Title
68233
    1GLY      N    1   7.553   5.336   4.039
    1GLY    HT1    2   7.642   5.385   4.061
    1GLY    HT2    3   7.478   5.405   4.017
    1GLY    HT3    4   7.571   5.285   3.950
    1GLY     CA    5   7.512   5.240   4.146
    1GLY    HA1    6   7.499   5.297   4.237
    1GLY    HA2    7   7.589   5.164   4.153
    1GLY      C    8   7.381   5.172   4.116
    1GLY      O    9   7.326   5.198   4.009
    2PRO      N   10   7.328   5.088   4.203
    2PRO     CD   11   7.401   5.027   4.314
    2PRO    HD1   12   7.408   5.100   4.397
    2PRO    HD2   13   7.502   4.991   4.284
    2PRO     CA   14   7.189   5.041   4.197
    2PRO     HA   15   7.181   4.978   4.110
    2PRO     CB   16   7.172   4.963   4.329
    2PRO    HB1   17   7.096   4.882   4.319
    2PRO    HB2   18   7.141   5.031   4.411
    2PRO     CG   19   7.312   4.909   4.356
    2PRO    HG1   20   7.328   4.878   4.462
    2PRO    HG2   21   7.332   4.822   4.289
    2PRO      C   22   7.082   5.148   4.180
    2PRO      O   23   7.109   5.268   4.199
    3GLY      N   24   6.960   5.108   4.140
    3GLY     HN   25   6.942   5.012   4.124
    3GLY     CA   26   6.844   5.196   4.148
    3GLY    HA1   27   6.766   5.153   4.087
    3GLY    HA2   28   6.872   5.296   4.118
    3GLY      C   29   6.789   5.204   4.288
    3GLY      O   30   6.816   5.119   4.372
    4ASP      N   31   6.705   5.306   4.314
    4ASP     HN   32   6.683   5.374   4.244
    4ASP     CA   33   6.627   5.312   4.435
    4ASP     HA   34   6.695   5.290   4.516
    4ASP     CB   35   6.571   5.456   4.460
    4ASP    HB1   36   6.499   5.456   4.545
    4ASP    HB2   37   6.517   5.492   4.369
    4ASP     CG   38   6.680   5.556   4.493
    4ASP    OD1   39   6.795   5.514   4.523
    4ASP    OD2   40   6.651   5.679   4.500
    4ASP      C   41   6.518   5.203   4.433
    4ASP      O   42   6.470   5.168   4.324
    5PRO      N   43   6.480   5.140   4.544
    5PRO     CD   44   6.546   5.156   4.674
    5PRO    HD1   45   6.520   5.256   4.715
    5PRO    HD2   46   6.656   5.145   4.666
    5PRO     CA   47   6.368   5.046   4.553
    5PRO     HA   48   6.403   4.955   4.505
    5PRO     CB   49   6.347   5.026   4.704
    5PRO    HB1   50   6.304   4.926   4.728
    5PRO    HB2   51   6.280   5.104   4.745
    5PRO     CG   52   6.487   5.045   4.762
    5PRO    HG1   53   6.486   5.072   4.870
    5PRO    HG2   54   6.547   4.952   4.749
    5PRO      C   55   6.239   5.082   4.481
    5PRO      O   56   6.199   5.199   4.478
    6GLY      N   57   6.170   4.981   4.423
    6GLY     HN   58   6.204   4.888   4.428
    6GLY     CA   59   6.036   4.998   4.369
    6GLY    HA1   60   6.003   4.903   4.331
    6GLY    HA2   61   6.039   5.075   4.294
    6GLY      C   62   5.937   5.042   4.473
    6GLY      O   63   5.945   5.003   4.589
    7SER      N   64   5.836   5.122   4.435
    7SER     HN   65   5.831   5.157   4.342
    7SER     CA   66   5.734   5.168   4.528
    7SER     HA   67   5.785   5.218   4.609
    7SER     CB   68   5.636   5.270   4.466
    7SER    HB1   69   5.557   5.299   4.539
    7SER    HB2   70   5.586   5.226   4.377
    7SER     OG   71   5.707   5.388   4.427
    7SER    HG1   72   5.642   5.445   4.386
    7SER      C   73   5.655   5.056   4.594
    7SER      O   74   5.633   4.949   4.535
    8GLY      N   75   5.615   5.076   4.721
    8GLY     HN   76   5.633   5.164   4.765
    8GLY     CA   77   5.537   4.981   4.798
    8GLY    HA1   78   5.519   5.025   4.895
    8GLY    HA2   79   5.595   4.890   4.803
    8GLY      C   80   5.402   4.949   4.738
    8GLY      O   81   5.354   5.023   4.652
    9PRO      N   82   5.336   4.842   4.780
    9PRO     CD   83   5.380   4.757   4.891
    9PRO    HD1   84   5.424   4.816   4.974
    9PRO    HD2   85   5.454   4.683   4.853
    9PRO     CA   86   5.197   4.817   4.744
    9PRO     HA   87   5.191   4.807   4.636
    9PRO     CB   88   5.163   4.685   4.816
    9PRO    HB1   89   5.192   4.600   4.750
    9PRO    HB2   90   5.056   4.675   4.843
    9PRO     CG   91   5.253   4.685   4.940
    9PRO    HG1   92   5.204   4.745   5.019
    9PRO    HG2   93   5.273   4.583   4.978
    9PRO      C   94   5.101   4.930   4.780
    9PRO      O   95   5.127   5.009   4.871
   10GLY      N   96   4.988   4.941   4.707
   10GLY     HN   97   4.975   4.883   4.628
   10GLY     CA   98   4.876   5.025   4.747
   10GLY    HA1   99   4.800   5.013   4.671
   10GLY    HA2  100   4.911   5.127   4.756
   10GLY      C  101   4.812   4.986   4.878
   10GLY      O  102   4.826   4.874   4.926
   11ASP      N  103   4.734   5.079   4.936
   11ASP     HN  104   4.723   5.170   4.898
   11ASP     CA  105   4.650   5.052   5.051
   11ASP     HA  106   4.716   5.018   5.130
   11ASP     CB  107   4.578   5.182   5.096
   11ASP    HB1  108   4.505   5.160   5.178
   11ASP    HB2  109   4.522   5.227   5.011
   11ASP     CG  110   4.675   5.285   5.151
   11ASP    OD1  111   4.748   5.253   5.248
   11ASP    OD2  112   4.673   5.400   5.101
   11ASP      C  113   4.545   4.943   5.022
   11ASP      O  114   4.495   4.938   4.909
   12PRO      N  115   4.507   4.855   5.115
   12PRO     CD  116   4.579   4.833   5.240
   12PRO    HD1  117   4.568   4.921   5.306
   12PRO    HD2  118   4.687   4.812   5.222
   12PRO     CA  119   4.388   4.771   5.106
   12PRO     HA  120   4.413   4.691   5.038
   12PRO     CB  121   4.368   4.721   5.250
   12PRO    HB1  122   4.315   4.623   5.254
   12PRO    HB2  123   4.312   4.795   5.310
   12PRO     CG  124   4.511   4.711   5.303
   12PRO    HG1  125   4.515   4.712   5.414
   12PRO    HG2  126   4.559   4.618   5.265
   12PRO      C  127   4.263   4.835   5.048
   12PRO      O  128   4.236   4.954   5.071
   13GLY      N  129   4.184   4.760   4.969
   13GLY     HN  130   4.208   4.665   4.951
   13GLY     CA  131   4.051   4.803   4.926
   13GLY    HA1  132   4.010   4.726   4.863
   13GLY    HA2  133   4.059   4.898   4.877
   13GLY      C  134   3.956   4.818   5.042
   13GLY      O  135   3.971   4.752   5.145
   14SER      N  136   3.853   4.905   5.029
   14SER     HN  137   3.843   4.961   4.947
   14SER     CA  138   3.750   4.920   5.131
   14SER     HA  139   3.801   4.943   5.223
   14SER     CB  140   3.646   5.033   5.104
   14SER    HB1  141   3.561   5.027   5.175
   14SER    HB2  142   3.605   5.022   5.002
   14SER     OG  143   3.706   5.162   5.119
   14SER    HG1  144   3.755   5.160   5.201
   14SER      C  145   3.672   4.793   5.158
   14SER      O  146   3.641   4.716   5.068
   15GLY      N  147   3.638   4.772   5.287
   15GLY     HN  148   3.670   4.834   5.358
   15GLY     CA  149   3.550   4.664   5.331
   15GLY    HA1  150   3.537   4.676   5.438
   15GLY    HA2  151   3.598   4.572   5.304
   15GLY      C  152   3.411   4.666   5.269
   15GLY      O  153   3.369   4.766   5.211
   16PRO      N  154   3.338   4.556   5.278
   16PRO     CD  155   3.369   4.446   5.371
   16PRO    HD1  156   3.404   4.484   5.470
   16PRO    HD2  157   3.447   4.381   5.326
   16PRO     CA  158   3.200   4.549   5.231
   16PRO     HA  159   3.199   4.572   5.125
   16PRO     CB  160   3.160   4.404   5.261
   16PRO    HB1  161   3.197   4.339   5.179
   16PRO    HB2  162   3.050   4.389   5.271
   16PRO     CG  163   3.237   4.370   5.389
   16PRO    HG1  164   3.183   4.411   5.477
   16PRO    HG2  165   3.253   4.261   5.402
   16PRO      C  166   3.107   4.649   5.297
   16PRO      O  167   3.134   4.697   5.408
   17GLY      N  168   2.996   4.686   5.231
   17GLY     HN  169   2.977   4.649   5.140
   17GLY     CA  170   2.886   4.758   5.296
   17GLY    HA1  171   2.809   4.773   5.221
   17GLY    HA2  172   2.925   4.850   5.336
   17GLY      C  173   2.822   4.682   5.410
   17GLY      O  174   2.831   4.560   5.419
   18ASP      N  175   2.750   4.754   5.498
   18ASP     HN  176   2.753   4.853   5.501
   18ASP     CA  177   2.670   4.696   5.604
   18ASP     HA  178   2.738   4.640   5.667
   18ASP     CB  179   2.601   4.806   5.691
   18ASP    HB1  180   2.548   4.757   5.775
   18ASP    HB2  181   2.527   4.860   5.629
   18ASP     CG  182   2.693   4.912   5.752
   18ASP    OD1  183   2.809   4.933   5.706
   18ASP    OD2  184   2.642   4.986   5.840
   18ASP      C  185   2.562   4.601   5.545
   18ASP      O  186   2.512   4.633   5.437
   19PRO      N  187   2.526   4.487   5.606
   19PRO     CD  188   2.611   4.418   5.704
   19PRO    HD1  189   2.583   4.452   5.806
   19PRO    HD2  190   2.720   4.435   5.686
   19PRO     CA  191   2.424   4.398   5.551
   19PRO     HA  192   2.448   4.378   5.447
   19PRO     CB  193   2.434   4.271   5.638
   19PRO    HB1  194   2.406   4.180   5.580
   19PRO    HB2  195   2.367   4.279   5.726
   19PRO     CG  196   2.580   4.269   5.685
   19PRO    HG1  197   2.594   4.210   5.778
   19PRO    HG2  198   2.644   4.228   5.605
   19PRO      C  199   2.281   4.452   5.554
   19PRO    OT1  200   2.250   4.536   5.643
   19PRO    OT2  201   2.198   4.402   5.473
   20LIT    LIT  202   2.339   0.203   1.690
   21LIT    LIT  203   3.647   1.108   1.590
   22LIT    LIT  204   8.303   7.369   3.977
   23LIT    LIT  205   6.753   2.843   4.136
   24LIT    LIT  206   2.569   1.956   4.517
   25LIT    LIT  207   0.793   5.620   2.414
   26LIT    LIT  208   6.111   8.927   6.722
   27LIT    LIT  209   1.877   2.509   3.734
   28LIT    LIT  210   5.570   3.912   7.392
   29LIT    LIT  211   0.079   5.931   7.114
   30LIT    LIT  212   5.227   0.196   6.529
   31LIT    LIT  213   8.578   6.679   6.476
   32LIT    LIT  214   8.729   1.965   3.820
   33LIT    LIT  215   1.105   7.594   7.070
   34LIT    LIT  216   6.942   8.239   7.848
   35LIT    LIT  217   9.046   5.326   2.051
   36LIT    LIT  218   5.715   0.839   2.851
   37LIT    LIT  219   4.881   5.123   7.670
   38LIT    LIT  220   3.061   7.006   3.759
   39LIT    LIT  221   4.710   4.545   3.931
   40LIT    LIT  222   7.139   6.410   7.416
   41LIT    LIT  223   2.591   1.647   6.614
   42LIT    LIT  224   4.164   4.023   1.298
   43LIT    LIT  225   0.062   4.388   2.008
   44LIT    LIT  226   2.321   6.913   5.524
   45LIT    LIT  227   6.047   0.047   5.430
   46LIT    LIT  228   6.840   5.017   2.501
   47LIT    LIT  229   8.115   7.032   7.801
   48LIT    LIT  230   1.220   5.174   1.838
   49LIT    LIT  231   2.880   3.390   1.070
   50LIT    LIT  232   2.455   3.383   2.454
   51LIT    LIT  233   1.616   6.508   3.218
   52LIT    LIT  234   5.566   8.171   5.107
   53LIT    LIT  235   1.707   4.338   1.643
   54LIT    LIT  236   3.584   2.647   2.495
   55LIT    LIT  237   2.614   8.107   0.114
   56LIT    LIT  238   2.990   2.623   1.563
   57LIT    LIT  239   2.650   5.183   7.668
   58LIT    LIT  240   2.908   9.027   7.851
   59LIT    LIT  241   1.357   3.131   3.490
   60LIT    LIT  242   4.846   8.985   3.256
   61LIT    LIT  243   0.584   2.373   7.283
   62LIT    LIT  244   8.585   9.062   1.628
   63LIT    LIT  245   9.563   4.340   2.896
   64LIT    LIT  246   3.698   3.642   3.284
   65LIT    LIT  247   3.657   0.243   4.970
   66LIT    LIT  248   9.027   5.788   4.417
   67LIT    LIT  249   8.575   3.977   3.314
   68LIT    LIT  250   0.671   7.277   5.136
   69LIT    LIT  251   7.208   5.140   6.916
   70LIT    LIT  252   7.677   8.451   5.731
   71LIT    LIT  253   9.017   2.455   5.197
   72LIT    LIT  254   5.058   7.103   7.765
   73LIT    LIT  255   3.382   3.185   0.017
   74LIT    LIT  256   6.275   4.404   4.872
   75LIT    LIT  257   8.683   0.505   5.331
   76LIT    LIT  258   4.084   0.868   1.633
   77LIT    LIT  259   7.180   7.383   2.319
   78LIT    LIT  260   3.522   5.851   6.970
   79LIT    LIT  261   0.299   2.303   3.897
   80LIT    LIT  262   9.290   8.620   0.670
   81LIT    LIT  263   2.896   1.863   3.333
   82LIT    LIT  264   1.392   6.434   7.389
   83LIT    LIT  265   9.786   0.289   7.563
   84LIT    LIT  266   9.037   7.219   5.616
   85LIT    LIT  267   7.976   7.383   5.440
   86LIT    LIT  268   6.592   2.126   1.709
   87LIT    LIT  269   7.316   2.036   6.277
   88CLA    CLA  270   8.770   2.687   6.232
   89CLA    CLA  271   3.416   3.045   0.901
   90CLA    CLA  272   2.950   3.340   2.532
   91CLA    CLA  273   8.787   7.771   2.250
   92CLA    CLA  274   7.168   7.908   7.891
   93CLA    CLA  275   8.414   8.398   5.185
   94CLA    CLA  276   0.196   6.160   4.777
   95CLA    CLA  277   3.819   0.721   5.046
   96CLA    CLA  278   3.031   2.753   0.867
   97CLA    CLA  279   2.248   7.929   7.022
   98CLA    CLA  280   9.271   5.658   2.137
   99CLA    CLA  281   3.752   8.169   6.511
  100CLA    CLA  282   6.321   1.970   3.361
  101CLA    CLA  283   0.678   0.034   4.960
  102CLA    CLA  284   7.136   4.244   2.975
  103CLA    CLA  285   6.201   3.687   6.063
  104CLA    CLA  286   8.222   4.695   1.168
  105CLA    CLA  287   8.394   7.519   4.433
  106CLA    CLA  288   6.617   7.463   7.512
  107CLA    CLA  289   1.392   2.715   3.717
  108CLA    CLA  290   4.084   3.917   6.985
  109CLA    CLA  291   7.516   1.789   1.900
  110CLA    CLA  292   4.933   4.615   3.890
  111CLA    CLA  293   6.638   1.737   0.872
  112CLA    CLA  294   2.370   1.934   4.420
  113CLA    CLA  295   3.193   8.988   4.947
  114CLA    CLA  296   6.296   7.098   0.960
  115CLA    CLA  297   8.029   8.350   4.187
  116CLA    CLA  298   2.579   2.370   2.992
  117CLA    CLA  299   9.336   7.245   4.981
  118CLA    CLA  300   5.420   1.525   4.733
  119CLA    CLA  301   1.896   3.983   7.395
  120CLA    CLA  302   1.618   4.860   2.689
  121CLA    CLA  303   5.355   2.665   7.549
  122CLA    CLA  304   5.397   8.119   5.250
  123CLA    CLA  305   5.445   9.208   6.402
  124CLA    CLA  306   7.893   6.163   0.994
  125CLA    CLA  307   8.613   3.980   1.838
  126CLA    CLA  308   4.959   3.458   1.520
  127CLA    CLA  309   6.129   8.994   6.934
  128CLA    CLA  310   2.661   2.268   7.075
  129CLA    CLA  311   9.274   2.849   7.544
  130CLA    CLA  312   1.100   3.319   3.168
  131CLA    CLA  313   0.074   5.882   6.627
  132CLA    CLA  314   8.083   8.027   2.469
  133CLA    CLA  315   5.226   0.529   7.623
  134CLA    CLA  316   3.678   6.750   3.675
  135CLA    CLA  317   6.771   4.419   0.283
  136CLA    CLA  318   4.818   0.793   2.904
  137CLA    CLA  319   8.758   1.803   3.659
  138CLA    CLA  320   3.744   1.235   2.934
  139CLA    CLA  321   6.590   7.956   3.175
  140CLA    CLA  322   0.337   4.629   6.809
  141CLA    CLA  323   8.225   6.844   5.465
  142CLA    CLA  324   5.703   7.067   2.091
  143CLA    CLA  325   6.248   0.025   6.952
  144CLA    CLA  326   0.609   4.511   1.733
  145CLA    CLA  327   3.829   3.666   3.485
  146CLA    CLA  328   6.081   4.362   7.073
  147CLA    CLA  329   1.311   5.246   1.259
  148CLA    CLA  330   5.332   5.659   7.868
  149CLA    CLA  331   1.892   9.168   2.139
  150CLA    CLA  332   1.713   4.126   0.505
  151CLA    CLA  333   2.985   8.854   7.968
  152CLA    CLA  334   3.545   2.722   1.808
  153TIP3   OH2  335   4.550   0.006   1.636
  153TIP3    H1  336   4.472   0.023   1.689
  153TIP3    H2  337   4.581   0.093   1.610
  154TIP3   OH2  338   4.861  -0.008   2.084
  154TIP3    H1  339   4.951  -0.033   2.102
  154TIP3    H2  340   4.867   0.054   2.012
  155TIP3   OH2  341   1.748   8.911   1.849
  155TIP3    H1  342   1.674   8.946   1.898
  155TIP3    H2  343   1.711   8.888   1.763
  156TIP3   OH2  344   1.372   8.796   2.191
  156TIP3    H1  345   1.337   8.884   2.205
  156TIP3    H2  346   1.304   8.752   2.140
  157TIP3   OH2  347   4.996   0.284   2.094
  157TIP3    H1  348   5.012   0.207   2.148
  157TIP3    H2  349   4.922   0.328   2.136
  158TIP3   OH2  350   4.106   0.084   2.226
  158TIP3    H1  351   4.079   0.172   2.252
  158TIP3    H2  352   4.037   0.054   2.167
  159TIP3   OH2  353   1.639   8.766   2.255
  159TIP3    H1  354   1.544   8.780   2.245
  159TIP3    H2  355   1.663   8.714   2.178
  160TIP3   OH2  356   4.709   0.693   2.189
  160TIP3    H1  357   4.739   0.741   2.113
  160TIP3    H2  358   4.756   0.732   2.263
  161TIP3   OH2  359   1.495   8.975   1.968
  161TIP3    H1  360   1.518   9.055   1.922
  161TIP3    H2  361   1.449   9.004   2.047
  162TIP3   OH2  362   1.018   9.106   2.259
  162TIP3    H1  363   1.045   9.082   2.347
  162TIP3    H2  364   0.959   9.180   2.271
  163TIP3   OH2  365   4.356   0.130   2.126
  163TIP3    H1  366   4.264   0.111   2.144
  163TIP3    H2  367   4.393   0.151   2.211
  164TIP3   OH2  368   4.497   0.360   2.079
  164TIP3    H1  369   4.447   0.282   2.103
  164TIP3    H2  370   4.546   0.334   2.001
  165TIP3   OH2  371   4.576   0.277   1.591
  165TIP3    H1  372   4.509   0.326   1.543
  165TIP3    H2  373   4.659   0.319   1.567
  166TIP3   OH2  374   3.361   0.362   2.550
  166TIP3    H1  375   3.440   0.369   2.604
  166TIP3    H2  376   3.311   0.290   2.590
  167TIP3   OH2  377   3.847   0.351   2.627
  167TIP3    H1  378   3.902   0.427   2.644
  167TIP3    H2  379   3.908   0.279   2.611
  168TIP3   OH2  380   4.428   0.238   2.365
  168TIP3    H1  381   4.425   0.167   2.430
  168TIP3    H2  382   4.506   0.288   2.388
  169TIP3   OH2  383   0.836   9.107   2.534
  169TIP3    H1  384   0.816   9.061   2.453
  169TIP3    H2  385   0.924   9.077   2.557
  170TIP3   OH2  386   1.282   9.083   2.145
  170TIP3    H1  387   1.299   9.149   2.078
  170TIP3    H2  388   1.191   9.100   2.173
  171TIP3   OH2  389   1.134   9.017   2.499
  171TIP3    H1  390   1.209   8.993   2.444
  171TIP3    H2  391   1.142   8.962   2.576
  172TIP3   OH2  392   1.361   8.609   2.608
  172TIP3    H1  393   1.325   8.578   2.525
  172TIP3    H2  394   1.402   8.693   2.587
  173TIP3   OH2  395   1.446   9.038   2.355
  173TIP3    H1  396   1.399   9.074   2.280
  173TIP3    H2  397   1.537   9.062   2.341
  174TIP3   OH2  398   4.794   0.419   1.511
  174TIP3    H1  399   4.852   0.494   1.524
  174TIP3    H2  400   4.820   0.383   1.426
  175TIP3   OH2  401   4.779   0.488   1.905
  175TIP3    H1  402   4.730   0.409   1.881
  175TIP3    H2  403   4.799   0.476   1.998
  176TIP3   OH2  404   4.854   0.145   2.430
  176TIP3    H1  405   4.798   0.147   2.508
  176TIP3    H2  406   4.908   0.223   2.438
  177TIP3   OH2  407   1.550   9.159   1.773
  177TIP3    H1  408   1.591   9.146   1.687
  177TIP3    H2  409   1.591   9.238   1.807
  178TIP3   OH2  410   4.628   0.270   1.861
  178TIP3    H1  411   4.642   0.180   1.890
  178TIP3    H2  412   4.598   0.261   1.770
  179TIP3   OH2  413   1.890   8.882   2.281
  179TIP3    H1  414   1.800   8.857   2.261
  179TIP3    H2  415   1.902   8.965   2.234
  180TIP3   OH2  416   1.597   8.711   1.975
  180TIP3    H1  417   1.547   8.792   1.987
  180TIP3    H2  418   1.682   8.740   1.944
  181TIP3   OH2  419   4.071   0.370   2.274
  181TIP3    H1  420   4.107   0.361   2.363
  181TIP3    H2  421   4.138   0.418   2.226
  182TIP3   OH2  422   4.278   0.519   2.167
  182TIP3    H1  423   4.346   0.456   2.142
  182TIP3    H2  424   4.324   0.584   2.221
  183TIP3   OH2  425   4.278   0.342   1.860
  183TIP3    H1  426   4.215   0.316   1.927
  183TIP3    H2  427   4.230   0.401   1.803
  184TIP3   OH2  428   4.346   0.637   1.699
  184TIP3    H1  429   4.413   0.593   1.647
  184TIP3    H2  430   4.374   0.626   1.790
  185TIP3   OH2  431   4.764   0.422   2.174
  185TIP3    H1  432   4.676   0.383   2.171
  185TIP3    H2  433   4.749   0.513   2.200
  186TIP3   OH2  434   5.487   0.146   1.613
  186TIP3    H1  435   5.489   0.242   1.610
  186TIP3    H2  436   5.440   0.126   1.694
  187TIP3   OH2  437   5.709   0.229   1.808
  187TIP3    H1  438   5.643   0.280   1.854
  187TIP3    H2  439   5.660   0.176   1.745
  188TIP3   OH2  440   2.160   9.025   1.996
  188TIP3    H1  441   2.179   9.119   2.006
  188TIP3    H2  442   2.065   9.021   1.990
  189TIP3   OH2  443   5.496   0.384   1.903
  189TIP3    H1  444   5.478   0.406   1.811
  189TIP3    H2  445   5.409   0.372   1.942
  190TIP3   OH2  446   1.889   9.146   1.830
  190TIP3    H1  447   1.852   9.059   1.819
  190TIP3    H2  448   1.883   9.163   1.924
  191TIP3   OH2  449   4.954   0.203   1.585
  191TIP3    H1  450   5.049   0.209   1.592
  191TIP3    H2  451   4.924   0.293   1.590
  192TIP3   OH2  452   5.895   0.393   1.677
  192TIP3    H1  453   5.886   0.478   1.721
  192TIP3    H2  454   5.842   0.333   1.729
  193TIP3   OH2  455   5.327   0.119   1.832
  193TIP3    H1  456   5.372   0.115   1.917
  193TIP3    H2  457   5.265   0.046   1.835
  194TIP3   OH2  458   6.501   0.961   1.645
  194TIP3    H1  459   6.483   0.974   1.552
  194TIP3    H2  460   6.582   1.010   1.661
  195TIP3   OH2  461   5.440   0.057   2.071
  195TIP3    H1  462   5.511   0.066   2.135
  195TIP3    H2  463   5.364   0.029   2.123
  196TIP3   OH2  464   6.151   0.470   1.592
  196TIP3    H1  465   6.066   0.427   1.603
  196TIP3    H2  466   6.182   0.483   1.682
  197TIP3   OH2  467   5.734   0.482   1.471
  197TIP3    H1  468   5.780   0.553   1.426
  197TIP3    H2  469   5.800   0.444   1.529
  198TIP3   OH2  470   6.311   0.673   1.507
  198TIP3    H1  471   6.262   0.591   1.519
  198TIP3    H2  472   6.297   0.696   1.416
  199TIP3   OH2  473   5.205   0.295   1.666
  199TIP3    H1  474   5.252   0.245   1.733
  199TIP3    H2  475   5.151   0.356   1.717
  200TIP3   OH2  476   5.164   0.646   2.053
  200TIP3    H1  477   5.238   0.658   2.113
  200TIP3    H2  478   5.169   0.553   2.028
  201TIP3   OH2  479   5.601   0.553   2.095
  201TIP3    H1  480   5.693   0.526   2.101
  201TIP3    H2  481   5.564   0.498   2.026
  202TIP3   OH2  482   6.223   0.516   1.854
  202TIP3    H1  483   6.220   0.441   1.913
  202TIP3    H2  484   6.305   0.560   1.877
  203TIP3   OH2  485   5.863   0.156   2.026
  203TIP3    H1  486   5.820   0.166   1.941
  203TIP3    H2  487   5.948   0.116   2.006
  204TIP3   OH2  488   6.124   0.056   2.000
  204TIP3    H1  489   6.163   0.036   1.915
  204TIP3    H2  490   6.183   0.015   2.063
  205TIP3   OH2  491   2.328   8.894   2.167
  205TIP3    H1  492   2.277   8.827   2.213
  205TIP3    H2  493   2.265   8.938   2.110
  206TIP3   OH2  494   4.911   0.339   1.277
  206TIP3    H1  495   4.929   0.280   1.204
  206TIP3    H2  496   4.998   0.360   1.312
  207TIP3   OH2  497   6.658   0.364   1.953
  207TIP3    H1  498   6.589   0.370   2.018
  207TIP3    H2  499   6.713   0.441   1.969
  208TIP3   OH2  500   5.254   0.370   2.055
  208TIP3    H1  501   5.165   0.335   2.055
  208TIP3    H2  502   5.291   0.344   2.140
  209TIP3   OH2  503   5.509   0.420   1.622
  209TIP3    H1  504   5.454   0.490   1.588
  209TIP3    H2  505   5.594   0.434   1.581
  210TIP3   OH2  506   5.889   0.658   1.765
  210TIP3    H1  507   5.926   0.650   1.853
  210TIP3    H2  508   5.956   0.703   1.714
  211TIP3   OH2  509   6.090   0.803   1.640
  211TIP3    H1  510   6.158   0.751   1.596
  211TIP3    H2  511   6.139   0.863   1.697
  212TIP3   OH2  512   5.203   0.733   1.678
  212TIP3    H1  513   5.108   0.736   1.689
  212TIP3    H2  514   5.237   0.781   1.754
  213TIP3   OH2  515   5.390   0.638   1.511
  213TIP3    H1  516   5.322   0.667   1.572
  213TIP3    H2  517   5.376   0.692   1.433
  214TIP3   OH2  518   5.824   0.695   1.317
  214TIP3    H1  519   5.749   0.727   1.267
  214TIP3    H2  520   5.850   0.769   1.372
  215TIP3   OH2  521   6.043   0.622   1.165
  215TIP3    H1  522   5.958   0.628   1.209
  215TIP3    H2  523   6.105   0.656   1.229
  216TIP3   OH2  524   6.272   0.769   1.249
  216TIP3    H1  525   6.251   0.861   1.229
  216TIP3    H2  526   6.275   0.726   1.164
  217TIP3   OH2  527   5.155   0.407   1.425
  217TIP3    H1  528   5.188   0.379   1.510
  217TIP3    H2  529   5.174   0.333   1.366
  218TIP3   OH2  530   5.200   0.212   1.253
  218TIP3    H1  531   5.204   0.116   1.256
  218TIP3    H2  532   5.288   0.239   1.225
  219TIP3   OH2  533   5.552   0.522   1.261
  219TIP3    H1  534   5.528   0.432   1.236
  219TIP3    H2  535   5.610   0.511   1.336
  220TIP3   OH2  536   6.539   0.690   1.672
  220TIP3    H1  537   6.468   0.662   1.614
  220TIP3    H2  538   6.535   0.785   1.671
  221TIP3   OH2  539   6.959   0.914   1.576
  221TIP3    H1  540   7.038   0.920   1.629
  221TIP3    H2  541   6.934   0.821   1.581
  222TIP3   OH2  542   2.670   1.491   2.139
  222TIP3    H1  543   2.636   1.418   2.088
  222TIP3    H2  544   2.606   1.561   2.126
  223TIP3   OH2  545   2.853   1.892   2.252
  223TIP3    H1  546   2.862   1.799   2.273
  223TIP3    H2  547   2.784   1.923   2.311
  224TIP3   OH2  548   2.572   2.248   2.354
  224TIP3    H1  549   2.570   2.273   2.261
  224TIP3    H2  550   2.645   2.298   2.390
  225TIP3   OH2  551   2.881   1.619   2.287
  225TIP3    H1  552   2.794   1.591   2.317
  225TIP3    H2  553   2.884   1.594   2.195
  226TIP3   OH2  554   2.390   1.908   2.204
  226TIP3    H1  555   2.342   1.874   2.279
  226TIP3    H2  556   2.327   1.967   2.161
  227TIP3   OH2  557   1.650   1.853   2.769
  227TIP3    H1  558   1.731   1.802   2.769
  227TIP3    H2  559   1.656   1.906   2.690
  228TIP3   OH2  560   2.284   1.827   2.449
  228TIP3    H1  561   2.252   1.752   2.500
  228TIP3    H2  562   2.354   1.864   2.503
  229TIP3   OH2  563   2.311   1.398   2.739
  229TIP3    H1  564   2.405   1.382   2.729
  229TIP3    H2  565   2.280   1.324   2.791
  230TIP3   OH2  566   2.554   1.049   2.787
  230TIP3    H1  567   2.627   0.988   2.785
  230TIP3    H2  568   2.591   1.132   2.757
  231TIP3   OH2  569   2.543   1.332   2.454
  231TIP3    H1  570   2.490   1.381   2.391
  231TIP3    H2  571   2.631   1.334   2.417
  232TIP3   OH2  572   2.575   1.926   1.653
  232TIP3    H1  573   2.553   1.948   1.743
  232TIP3    H2  574   2.656   1.974   1.636
  233TIP3   OH2  575   2.685   2.026   2.065
  233TIP3    H1  576   2.608   1.972   2.048
  233TIP3    H2  577   2.735   1.977   2.130
  234TIP3   OH2  578   2.722   1.700   2.543
  234TIP3    H1  579   2.656   1.704   2.613
  234TIP3    H2  580   2.772   1.781   2.553
  235TIP3   OH2  581   2.499   1.695   2.070
  235TIP3    H1  582   2.461   1.770   2.114
  235TIP3    H2  583   2.561   1.733   2.007
  236TIP3   OH2  584   2.806   1.331   2.373
  236TIP3    H1  585   2.853   1.248   2.387
  236TIP3    H2  586   2.830   1.357   2.284
  237TIP3   OH2  587   2.919   1.084   2.423
  237TIP3    H1  588   2.854   1.015   2.409
  237TIP3    H2  589   3.000   1.038   2.442
  238TIP3   OH2  590   3.207   0.626   2.632
  238TIP3    H1  591   3.215   0.540   2.673
  238TIP3    H2  592   3.275   0.627   2.565
  239TIP3   OH2  593   1.923   1.983   2.436
  239TIP3    H1  594   1.965   1.944   2.513
  239TIP3    H2  595   1.995   2.022   2.387
  240TIP3   OH2  596   2.167   2.071   2.346
  240TIP3    H1  597   2.205   1.998   2.395
  240TIP3    H2  598   2.210   2.148   2.383
  241TIP3   OH2  599   2.448   2.035   1.891
  241TIP3    H1  600   2.362   2.041   1.933
  241TIP3    H2  601   2.456   2.115   1.839
  242TIP3   OH2  602   2.614   1.977   2.357
  242TIP3    H1  603   2.539   1.951   2.304
  242TIP3    H2  604   2.605   2.072   2.365
  243TIP3   OH2  605   3.888   1.342   1.141
  243TIP3    H1  606   3.849   1.412   1.088
  243TIP3    H2  607   3.860   1.261   1.099
  244TIP3   OH2  608   3.751   1.136   1.421
  244TIP3    H1  609   3.827   1.194   1.431
  244TIP3    H2  610   3.733   1.136   1.327
  245TIP3   OH2  611   3.272   1.162   1.786
  245TIP3    H1  612   3.287   1.135   1.876
  245TIP3    H2  613   3.291   1.256   1.786
  246TIP3   OH2  614   4.076   1.620   1.152
  246TIP3    H1  615   4.060   1.592   1.242
  246TIP3    H2  616   4.171   1.629   1.145
  247TIP3   OH2  617   3.147   1.598   1.481
  247TIP3    H1  618   3.088   1.582   1.555
  247TIP3    H2  619   3.234   1.600   1.521
  248TIP3   OH2  620   3.658   2.046   1.209
  248TIP3    H1  621   3.650   1.973   1.148
  248TIP3    H2  622   3.743   2.086   1.188
  249TIP3   OH2  623   3.666   1.525   1.600
  249TIP3    H1  624   3.715   1.497   1.522
  249TIP3    H2  625   3.684   1.618   1.608
  250TIP3   OH2  626   4.754   0.877   1.554
  250TIP3    H1  627   4.789   0.935   1.621
  250TIP3    H2  628   4.705   0.935   1.495
  251TIP3   OH2  629   4.027   0.994   1.486
  251TIP3    H1  630   4.098   0.972   1.426
  251TIP3    H2  631   3.951   1.007   1.430
  252TIP3   OH2  632   4.791   1.099   1.714
  252TIP3    H1  633   4.720   1.124   1.655
  252TIP3    H2  634   4.783   1.158   1.788
  253TIP3   OH2  635   3.769   1.543   0.998
  253TIP3    H1  636   3.750   1.557   0.905
  253TIP3    H2  637   3.719   1.610   1.043
  254TIP3   OH2  638   3.543   1.525   1.841
  254TIP3    H1  639   3.502   1.609   1.865
  254TIP3    H2  640   3.587   1.544   1.758
  255TIP3   OH2  641   4.214   0.894   1.325
  255TIP3    H1  642   4.242   0.803   1.330
  255TIP3    H2  643   4.182   0.905   1.236
  256TIP3   OH2  644   3.356   1.725   1.855
  256TIP3    H1  645   3.337   1.797   1.795
  256TIP3    H2  646   3.282   1.724   1.916
  257TIP3   OH2  647   4.187   1.915   1.392
  257TIP3    H1  648   4.125   1.882   1.457
  257TIP3    H2  649   4.147   1.996   1.360
  258TIP3   OH2  650   4.529   0.856   1.723
  258TIP3    H1  651   4.469   0.783   1.708
  258TIP3    H2  652   4.594   0.848   1.653
  259TIP3   OH2  653   3.918   1.839   1.081
  259TIP3    H1  654   3.969   1.763   1.111
  259TIP3    H2  655   3.984   1.901   1.050
  260TIP3   OH2  656   4.152   1.760   0.890
  260TIP3    H1  657   4.118   1.671   0.904
  260TIP3    H2  658   4.173   1.791   0.978
  261TIP3   OH2  659   4.442   1.764   1.648
  261TIP3    H1  660   4.429   1.708   1.571
  261TIP3    H2  661   4.430   1.853   1.616
  262TIP3   OH2  662   4.610   1.448   1.501
  262TIP3    H1  663   4.526   1.493   1.496
  262TIP3    H2  664   4.651   1.463   1.416
  263TIP3   OH2  665   3.883   1.270   0.867
  263TIP3    H1  666   3.922   1.352   0.895
  263TIP3    H2  667   3.851   1.288   0.778
  264TIP3   OH2  668   4.241   1.334   1.885
  264TIP3    H1  669   4.281   1.400   1.941
  264TIP3    H2  670   4.194   1.384   1.818
  265TIP3   OH2  671   3.566   1.738   1.367
  265TIP3    H1  672   3.476   1.758   1.339
  265TIP3    H2  673   3.560   1.733   1.462
  266TIP3   OH2  674   3.988   1.857   1.584
  266TIP3    H1  675   3.944   1.920   1.527
  266TIP3    H2  676   3.946   1.773   1.564
  267TIP3   OH2  677   3.557   1.827   2.009
  267TIP3    H1  678   3.512   1.893   2.062
  267TIP3    H2  679   3.490   1.794   1.949
  268TIP3   OH2  680   3.322   1.346   2.100
  268TIP3    H1  681   3.328   1.434   2.137
  268TIP3    H2  682   3.232   1.318   2.120
  269TIP3   OH2  683   3.581   1.762   0.822
  269TIP3    H1  684   3.631   1.837   0.854
  269TIP3    H2  685   3.491   1.779   0.850
  270TIP3   OH2  686   3.342   1.985   2.098
  270TIP3    H1  687   3.292   2.043   2.040
  270TIP3    H2  688   3.276   1.949   2.158
  271TIP3   OH2  689   4.253   1.758   0.251
  271TIP3    H1  690   4.237   1.851   0.235
  271TIP3    H2  691   4.274   1.753   0.344
  272TIP3   OH2  692   2.915   1.577   2.009
  272TIP3    H1  693   2.821   1.596   2.001
  272TIP3    H2  694   2.921   1.483   1.995
  273TIP3   OH2  695   4.656   2.185   1.715
  273TIP3    H1  696   4.660   2.089   1.718
  273TIP3    H2  697   4.578   2.207   1.765
  274TIP3   OH2  698   3.786   1.885   1.872
  274TIP3    H1  699   3.802   1.979   1.878
  274TIP3    H2  700   3.708   1.871   1.926
  275TIP3   OH2  701   3.417   2.078   0.830
  275TIP3    H1  702   3.465   2.014   0.778
  275TIP3    H2  703   3.411   2.155   0.774
  276TIP3   OH2  704   3.787   1.908   0.584
  276TIP3    H1  705   3.786   1.934   0.676
  276TIP3    H2  706   3.880   1.903   0.562
  277TIP3   OH2  707   4.534   1.289   1.996
  277TIP3    H1  708   4.506   1.299   1.905
  277TIP3    H2  709   4.550   1.195   2.006
  278TIP3   OH2  710   3.136   1.733   2.012
  278TIP3    H1  711   3.184   1.724   2.094
  278TIP3    H2  712   3.058   1.678   2.024
  279TIP3   OH2  713   4.072   0.654   2.033
  279TIP3    H1  714   4.143   0.613   2.081
  279TIP3    H2  715   3.993   0.631   2.082
  280TIP3   OH2  716   4.265   1.063   1.902
  280TIP3    H1  717   4.226   1.043   1.987
  280TIP3    H2  718   4.267   1.158   1.899
  281TIP3   OH2  719   4.004   1.272   2.139
  281TIP3    H1  720   3.983   1.204   2.203
  281TIP3    H2  721   4.099   1.284   2.149
  282TIP3   OH2  722   3.314   1.061   2.034
  282TIP3    H1  723   3.323   1.132   2.097
  282TIP3    H2  724   3.267   0.993   2.081
  283TIP3   OH2  725   4.050   1.204   1.713
  283TIP3    H1  726   4.144   1.212   1.696
  283TIP3    H2  727   4.045   1.174   1.803
  284TIP3   OH2  728   4.130   0.697   1.544
  284TIP3    H1  729   4.207   0.669   1.594
  284TIP3    H2  730   4.104   0.619   1.495
  285TIP3   OH2  731   4.350   2.508   1.790
  285TIP3    H1  732   4.343   2.522   1.695
  285TIP3    H2  733   4.430   2.555   1.815
  286TIP3   OH2  734   3.303   1.603   2.215
  286TIP3    H1  735   3.385   1.624   2.259
  286TIP3    H2  736   3.236   1.609   2.283
  287TIP3   OH2  737   4.388   1.595   1.440
  287TIP3    H1  738   4.422   1.655   1.374
  287TIP3    H2  739   4.296   1.582   1.416
  288TIP3   OH2  740   3.885   1.618   1.885
  288TIP3    H1  741   3.937   1.609   1.965
  288TIP3    H2  742   3.863   1.711   1.881
  289TIP3   OH2  743   3.078   1.233   2.200
  289TIP3    H1  744   3.131   1.248   2.278
  289TIP3    H2  745   3.021   1.159   2.223
  290TIP3   OH2  746   3.768   1.409   2.167
  290TIP3    H1  747   3.708   1.340   2.140
  290TIP3    H2  748   3.855   1.375   2.146
  291TIP3   OH2  749   4.100   1.894   1.830
  291TIP3    H1  750   4.042   1.900   1.754
  291TIP3    H2  751   4.069   1.963   1.889
  292TIP3   OH2  752   4.671   1.911   1.729
  292TIP3    H1  753   4.586   1.875   1.753
  292TIP3    H2  754   4.692   1.869   1.646
  293TIP3   OH2  755   4.033   1.863   0.458
  293TIP3    H1  756   4.059   1.792   0.516
  293TIP3    H2  757   4.036   1.824   0.370
  294TIP3   OH2  758   4.133   1.511   1.398
  294TIP3    H1  759   4.069   1.511   1.470
  294TIP3    H2  760   4.124   1.425   1.358
  295TIP3   OH2  761   3.535   2.051   1.769
  295TIP3    H1  762   3.518   2.123   1.708
  295TIP3    H2  763   3.605   2.084   1.826
  296TIP3   OH2  764   3.981   1.562   1.627
  296TIP3    H1  765   3.924   1.566   1.704
  296TIP3    H2  766   4.065   1.595   1.659
  297TIP3   OH2  767   4.211   2.186   1.644
  297TIP3    H1  768   4.122   2.151   1.654
  297TIP3    H2  769   4.202   2.255   1.579
  298TIP3   OH2  770   4.193   2.019   0.244
  298TIP3    H1  771   4.239   2.103   0.241
  298TIP3    H2  772   4.115   2.036   0.295
  299TIP3   OH2  773   4.125   1.338   0.704
  299TIP3    H1  774   4.084   1.396   0.768
  299TIP3    H2  775   4.202   1.385   0.674
  300TIP3   OH2  776   2.990   1.820   1.793
  300TIP3    H1  777   3.035   1.799   1.875
  300TIP3    H2  778   2.942   1.901   1.813
  301TIP3   OH2  779   4.098   0.836   1.831
  301TIP3    H1  780   4.156   0.904   1.866
  301TIP3    H2  781   4.083   0.777   1.905
  302TIP3   OH2  782   3.947   1.087   1.948
  302TIP3    H1  783   3.950   1.164   2.005
  302TIP3    H2  784   3.994   1.019   1.996
  303TIP3   OH2  785   4.541   1.019   1.939
  303TIP3    H1  786   4.447   1.019   1.956
  303TIP3    H2  787   4.550   0.973   1.856
  304TIP3   OH2  788   4.157   1.258   1.278
  304TIP3    H1  789   4.120   1.245   1.190
  304TIP3    H2  790   4.238   1.207   1.278
  305TIP3   OH2  791   4.208   2.159   1.241
  305TIP3    H1  792   4.175   2.208   1.166
  305TIP3    H2  793   4.303   2.162   1.232
  306TIP3   OH2  794   2.986   2.205   2.219
  306TIP3    H1  795   3.064   2.193   2.274
  306TIP3    H2  796   2.982   2.125   2.167
  307TIP3   OH2  797   3.468   2.126   2.294
  307TIP3    H1  798   3.557   2.092   2.299
  307TIP3    H2  799   3.429   2.081   2.219
  308TIP3   OH2  800   4.052   2.078   2.033
  308TIP3    H1  801   4.074   2.002   2.087
  308TIP3    H2  802   4.129   2.134   2.038
  309TIP3   OH2  803   3.121   1.617   2.419
  309TIP3    H1  804   3.135   1.546   2.481
  309TIP3    H2  805   3.032   1.604   2.387
  310TIP3   OH2  806   3.720   1.685   2.183
  310TIP3    H1  807   3.674   1.710   2.103
  310TIP3    H2  808   3.748   1.595   2.168
  311TIP3   OH2  809   4.206   1.662   1.749
  311TIP3    H1  810   4.289   1.694   1.714
  311TIP3    H2  811   4.162   1.741   1.781
  312TIP3   OH2  812   3.255   1.264   2.407
  312TIP3    H1  813   3.350   1.252   2.394
  312TIP3    H2  814   3.249   1.332   2.474
  313TIP3   OH2  815   3.575   1.218   2.039
  313TIP3    H1  816   3.497   1.272   2.054
  313TIP3    H2  817   3.623   1.264   1.970
  314TIP3   OH2  818   4.058   1.600   2.119
  314TIP3    H1  819   4.147   1.586   2.086
  314TIP3    H2  820   4.053   1.551   2.200
  315TIP3   OH2  821   3.672   0.995   2.172
  315TIP3    H1  822   3.658   0.915   2.121
  315TIP3    H2  823   3.644   1.066   2.114
  316TIP3   OH2  824   3.612   0.769   2.004
  316TIP3    H1  825   3.606   0.839   1.939
  316TIP3    H2  826   3.526   0.728   2.005
  317TIP3   OH2  827   3.736   1.336   1.854
  317TIP3    H1  828   3.822   1.375   1.844
  317TIP3    H2  829   3.675   1.410   1.851
  318TIP3   OH2  830   4.273   1.287   2.212
  318TIP3    H1  831   4.297   1.226   2.282
  318TIP3    H2  832   4.355   1.305   2.166
  319TIP3   OH2  833   4.315   1.581   1.986
  319TIP3    H1  834   4.263   1.619   1.915
  319TIP3    H2  835   4.406   1.586   1.955
  320TIP3   OH2  836   3.516   1.098   2.374
  320TIP3    H1  837   3.463   1.025   2.405
  320TIP3    H2  838   3.565   1.063   2.300
  321TIP3   OH2  839   3.799   0.582   2.092
  321TIP3    H1  840   3.731   0.648   2.076
  321TIP3    H2  841   3.761   0.500   2.061
  322TIP3   OH2  842   3.924   1.052   2.282
  322TIP3    H1  843   3.920   1.043   2.377
  322TIP3    H2  844   3.837   1.025   2.251
  323TIP3   OH2  845   4.139   0.974   2.126
  323TIP3    H1  846   4.075   0.988   2.195
  323TIP3    H2  847   4.221   0.956   2.172
  324TIP3   OH2  848   4.393   0.949   2.241
  324TIP3    H1  849   4.407   0.860   2.270
  324TIP3    H2  850   4.375   0.998   2.321
  325TIP3   OH2  851   3.393   0.873   2.470
  325TIP3    H1  852   3.393   0.784   2.436
  325TIP3    H2  853   3.428   0.866   2.559
  326TIP3   OH2  854   3.870   0.553   2.354
  326TIP3    H1  855   3.931   0.480   2.349
  326TIP3    H2  856   3.839   0.564   2.264
  327TIP3   OH2  857   3.943   0.785   2.483
  327TIP3    H1  858   3.920   0.708   2.430
  327TIP3    H2  859   3.866   0.841   2.479
  328TIP3   OH2  860   4.475   2.225   1.215
  328TIP3    H1  861   4.494   2.241   1.307
  328TIP3    H2  862   4.488   2.310   1.172
  329TIP3   OH2  863   4.498   2.265   1.487
  329TIP3    H1  864   4.466   2.176   1.500
  329TIP3    H2  865   4.574   2.272   1.545
  330TIP3   OH2  866   4.531   1.949   2.035
  330TIP3    H1  867   4.462   1.957   2.100
  330TIP3    H2  868   4.578   2.032   2.039
  331TIP3   OH2  869   4.326   1.529   0.675
  331TIP3    H1  870   4.367   1.513   0.590
  331TIP3    H2  871   4.392   1.501   0.739
  332TIP3   OH2  872   4.514   1.406   0.833
  332TIP3    H1  873   4.541   1.314   0.845
  332TIP3    H2  874   4.587   1.457   0.869
  333TIP3   OH2  875   4.547   1.761   1.295
  333TIP3    H1  876   4.603   1.694   1.255
  333TIP3    H2  877   4.564   1.840   1.245
  334TIP3   OH2  878   4.393   2.013   1.538
  334TIP3    H1  879   4.332   2.065   1.591
  334TIP3    H2  880   4.337   1.974   1.470
  335TIP3   OH2  881   4.370   1.116   1.069
  335TIP3    H1  882   4.281   1.145   1.050
  335TIP3    H2  883   4.410   1.189   1.116
  336TIP3   OH2  884   4.558   1.605   1.856
  336TIP3    H1  885   4.626   1.542   1.833
  336TIP3    H2  886   4.538   1.649   1.774
  337TIP3   OH2  887   4.753   1.405   1.861
  337TIP3    H1  888   4.683   1.367   1.914
  337TIP3    H2  889   4.832   1.363   1.892
  338TIP3   OH2  890   4.377   1.103   1.366
  338TIP3    H1  891   4.440   1.074   1.300
  338TIP3    H2  892   4.317   1.030   1.376
  339TIP3   OH2  893   4.509   1.294   1.721
  339TIP3    H1  894   4.422   1.286   1.683
  339TIP3    H2  895   4.563   1.332   1.652
  340TIP3   OH2  896   3.120   0.911   2.478
  340TIP3    H1  897   3.215   0.920   2.469
  340TIP3    H2  898   3.109   0.835   2.535
  341TIP3   OH2  899   4.987   0.816   2.177
  341TIP3    H1  900   5.045   0.759   2.126
  341TIP3    H2  901   4.950   0.876   2.111
  342TIP3   OH2  902   4.829   0.988   2.024
  342TIP3    H1  903   4.761   1.023   2.081
  342TIP3    H2  904   4.783   0.928   1.966
  343TIP3   OH2  905   4.020   2.062   0.933
  343TIP3    H1  906   3.994   2.073   0.842
  343TIP3    H2  907   4.113   2.087   0.935
  344TIP3   OH2  908   3.130   1.912   2.256
  344TIP3    H1  909   3.035   1.908   2.243
  344TIP3    H2  910   3.141   1.913   2.351
  345TIP3   OH2  911   3.319   1.920   1.677
  345TIP3    H1  912   3.253   1.989   1.667
  345TIP3    H2  913   3.397   1.965   1.710
  346TIP3   OH2  914   3.731   2.186   1.905
  346TIP3    H1  915   3.762   2.186   1.996
  346TIP3    H2  916   3.789   2.247   1.860
  347TIP3   OH2  917   3.904   2.368   1.793
  347TIP3    H1  918   3.949   2.319   1.724
  347TIP3    H2  919   3.972   2.419   1.835
  348TIP3   OH2  920   4.726   0.757   1.906
  348TIP3    H1  921   4.642   0.775   1.864
  348TIP3    H2  922   4.732   0.662   1.907
  349TIP3   OH2  923   3.080   2.391   1.812
  349TIP3    H1  924   2.986   2.385   1.797
  349TIP3    H2  925   3.089   2.409   1.905
  350TIP3   OH2  926   3.162   2.152   1.694
  350TIP3    H1  927   3.133   2.228   1.745
  350TIP3    H2  928   3.186   2.189   1.609
  351TIP3   OH2  929   3.717   2.283   1.462
  351TIP3    H1  930   3.667   2.306   1.384
  351TIP3    H2  931   3.694   2.350   1.527
  352TIP3   OH2  932   3.949   2.197   1.570
  352TIP3    H1  933   3.860   2.212   1.537
  352TIP3    H2  934   4.005   2.243   1.508
  353TIP3   OH2  935   4.131   2.344   1.425
  353TIP3    H1  936   4.112   2.427   1.381
  353TIP3    H2  937   4.155   2.284   1.355
  354TIP3   OH2  938   2.837   1.995   1.547
  354TIP3    H1  939   2.860   1.969   1.637
  354TIP3    H2  940   2.888   1.935   1.492
  355TIP3   OH2  941   3.006   1.833   1.420
  355TIP3    H1  942   3.052   1.749   1.419
  355TIP3    H2  943   3.068   1.894   1.380
  356TIP3   OH2  944   3.373   2.049   1.414
  356TIP3    H1  945   3.361   1.958   1.385
  356TIP3    H2  946   3.442   2.043   1.480
  357TIP3   OH2  947   4.438   0.455   1.421
  357TIP3    H1  948   4.498   0.425   1.353
  357TIP3    H2  949   4.362   0.488   1.373
  358TIP3   OH2  950   4.519   0.647   1.128
  358TIP3    H1  951   4.573   0.581   1.170
  358TIP3    H2  952   4.580   0.699   1.076
  359TIP3   OH2  953   4.268   2.145   0.534
  359TIP3    H1  954   4.245   2.074   0.595
  359TIP3    H2  955   4.194   2.149   0.473
  360TIP3   OH2  956   3.400   0.602   2.424
  360TIP3    H1  957   3.376   0.511   2.442
  360TIP3    H2  958   3.493   0.606   2.447
  361TIP3   OH2  959   3.654   0.596   2.527
  361TIP3    H1  960   3.733   0.576   2.476
  361TIP3    H2  961   3.646   0.522   2.588
  362TIP3   OH2  962   4.456   0.688   2.293
  362TIP3    H1  963   4.465   0.659   2.384
  362TIP3    H2  964   4.546   0.687   2.259
  363TIP3   OH2  965   4.410   2.242   1.825
  363TIP3    H1  966   4.339   2.206   1.771
  363TIP3    H2  967   4.394   2.336   1.826
  364TIP3   OH2  968   5.698   1.659   0.585
  364TIP3    H1  969   5.670   1.743   0.549
  364TIP3    H2  970   5.621   1.604   0.579
  365TIP3   OH2  971   5.652   1.597   0.965
  365TIP3    H1  972   5.715   1.593   1.037
  365TIP3    H2  973   5.630   1.506   0.948
  366TIP3   OH2  974   4.954   1.441   1.327
  366TIP3    H1  975   4.981   1.388   1.401
  366TIP3    H2  976   5.021   1.509   1.320
  367TIP3   OH2  977   5.920   1.925   0.624
  367TIP3    H1  978   5.912   1.853   0.687
  367TIP3    H2  979   5.947   2.000   0.676
  368TIP3   OH2  980   4.964   1.887   0.975
  368TIP3    H1  981   4.953   1.795   1.000
  368TIP3    H2  982   5.059   1.898   0.965
  369TIP3   OH2  983   4.596   1.158   0.911
  369TIP3    H1  984   4.616   1.102   0.836
  369TIP3    H2  985   4.526   1.113   0.957
  370TIP3   OH2  986   4.732   1.481   0.977
  370TIP3    H1  987   4.778   1.398   0.988
  370TIP3    H2  988   4.802   1.547   0.976
  371TIP3   OH2  989   5.596   2.329   0.651
  371TIP3    H1  990   5.624   2.262   0.589
  371TIP3    H2  991   5.603   2.287   0.736
  372TIP3   OH2  992   5.473   1.816   0.963
  372TIP3    H1  993   5.518   1.734   0.944
  372TIP3    H2  994   5.542   1.876   0.990
  373TIP3   OH2  995   6.419   1.169   1.007
  373TIP3    H1  996   6.475   1.224   1.063
  373TIP3    H2  997   6.413   1.218   0.925
  374TIP3   OH2  998   5.899   1.322   1.015
  374TIP3    H1  999   5.937   1.237   1.037
  374TIP3    H2 1000   5.859   1.309   0.929
  375TIP3   OH2 1001   5.332   0.972   0.847
  375TIP3    H1 1002   5.298   1.052   0.807
  375TIP3    H2 1003   5.294   0.901   0.796
  376TIP3   OH2 1004   4.907   1.290   1.070
  376TIP3    H1 1005   4.973   1.334   1.124
  376TIP3    H2 1006   4.953   1.214   1.035
  377TIP3   OH2 1007   5.325   1.414   0.910
  377TIP3    H1 1008   5.418   1.405   0.929
  377TIP3    H2 1009   5.301   1.333   0.865
  378TIP3   OH2 1010   6.539   1.357   1.166
  378TIP3    H1 1011   6.468   1.419   1.149
  378TIP3    H2 1012   6.598   1.404   1.225
  379TIP3   OH2 1013   5.253   1.028   1.477
  379TIP3    H1 1014   5.193   1.068   1.415
  379TIP3    H2 1015   5.204   1.022   1.559
  380TIP3   OH2 1016   5.578   1.854   0.419
  380TIP3    H1 1017   5.544   1.817   0.338
  380TIP3    H2 1018   5.514   1.920   0.444
  381TIP3   OH2 1019   5.322   1.756   1.189
  381TIP3    H1 1020   5.262   1.826   1.214
  381TIP3    H2 1021   5.369   1.790   1.112
  382TIP3   OH2 1022   5.078   1.106   1.280
  382TIP3    H1 1023   5.125   1.187   1.298
  382TIP3    H2 1024   5.085   1.095   1.185
  383TIP3   OH2 1025   5.148   1.951   1.274
  383TIP3    H1 1026   5.137   2.041   1.243
  383TIP3    H2 1027   5.071   1.936   1.329
  384TIP3   OH2 1028   4.651   1.573   0.617
  384TIP3    H1 1029   4.594   1.500   0.589
  384TIP3    H2 1030   4.660   1.627   0.539
  385TIP3   OH2 1031   5.959   2.163   0.772
  385TIP3    H1 1032   5.870   2.155   0.806
  385TIP3    H2 1033   5.960   2.247   0.726
  386TIP3   OH2 1034   6.240   1.028   1.162
  386TIP3    H1 1035   6.151   1.048   1.131
  386TIP3    H2 1036   6.297   1.074   1.101
  387TIP3   OH2 1037   5.597   0.776   1.177
  387TIP3    H1 1038   5.583   0.682   1.184
  387TIP3    H2 1039   5.525   0.815   1.227
  388TIP3   OH2 1040   5.680   2.171   0.435
  388TIP3    H1 1041   5.740   2.097   0.425
  388TIP3    H2 1042   5.731   2.247   0.406
  389TIP3   OH2 1043   5.833   1.939   0.368
  389TIP3    H1 1044   5.747   1.902   0.386
  389TIP3    H2 1045   5.880   1.932   0.452
  390TIP3   OH2 1046   6.200   2.035   1.117
  390TIP3    H1 1047   6.185   1.963   1.056
  390TIP3    H2 1048   6.187   2.114   1.064
  391TIP3   OH2 1049   5.492   1.512   0.474
  391TIP3    H1 1050   5.420   1.567   0.442
  391TIP3    H2 1051   5.547   1.498   0.398
  392TIP3   OH2 1052   6.361   1.699   1.025
  392TIP3    H1 1053   6.295   1.750   0.977
  392TIP3    H2 1054   6.443   1.714   0.976
  393TIP3   OH2 1055   5.850   1.519   0.395
  393TIP3    H1 1056   5.813   1.564   0.471
  393TIP3    H2 1057   5.938   1.494   0.423
  394TIP3   OH2 1058   6.065   1.570   1.309
  394TIP3    H1 1059   6.063   1.654   1.354
  394TIP3    H2 1060   5.985   1.567   1.257
  395TIP3   OH2 1061   5.069   1.449   0.813
  395TIP3    H1 1062   5.041   1.517   0.752
  395TIP3    H2 1063   5.161   1.469   0.831
  396TIP3   OH2 1064   5.225   1.937   0.895
  396TIP3    H1 1065   5.201   1.927   0.803
  396TIP3    H2 1066   5.311   1.895   0.901
  397TIP3   OH2 1067   5.200   1.520   1.133
  397TIP3    H1 1068   5.245   1.489   1.054
  397TIP3    H2 1069   5.246   1.601   1.156
  398TIP3   OH2 1070   5.712   2.152   0.889
  398TIP3    H1 1071   5.704   2.231   0.942
  398TIP3    H2 1072   5.703   2.080   0.952
  399TIP3   OH2 1073   5.349   2.041   1.444
  399TIP3    H1 1074   5.289   2.100   1.490
  399TIP3    H2 1075   5.293   1.991   1.385
  400TIP3   OH2 1076   5.100   1.621   1.558
  400TIP3    H1 1077   5.105   1.712   1.590
  400TIP3    H2 1078   5.010   1.594   1.577
  401TIP3   OH2 1079   5.420   2.083   0.456
  401TIP3    H1 1080   5.507   2.121   0.460
  401TIP3    H2 1081   5.367   2.147   0.408
  402TIP3   OH2 1082   5.145   2.204   1.527
  402TIP3    H1 1083   5.116   2.218   1.437
  402TIP3    H2 1084   5.065   2.187   1.576
  403TIP3   OH2 1085   4.873   1.393   0.576
  403TIP3    H1 1086   4.819   1.430   0.506
  403TIP3    H2 1087   4.841   1.435   0.656
  404TIP3   OH2 1088   4.739   1.776   1.501
  404TIP3    H1 1089   4.672   1.755   1.437
  404TIP3    H2 1090   4.770   1.691   1.532
  405TIP3   OH2 1091   4.607   1.991   1.153
  405TIP3    H1 1092   4.693   2.020   1.182
  405TIP3    H2 1093   4.549   2.065   1.171
  406TIP3   OH2 1094   6.421   2.401   1.182
  406TIP3    H1 1095   6.427   2.306   1.188
  406TIP3    H2 1096   6.342   2.424   1.230
  407TIP3   OH2 1097   5.537   2.193   1.313
  407TIP3    H1 1098   5.526   2.283   1.343
  407TIP3    H2 1099   5.470   2.144   1.360
  408TIP3   OH2 1100   5.311   2.297   0.281
  408TIP3    H1 1101   5.258   2.286   0.202
  408TIP3    H2 1102   5.287   2.383   0.315
  409TIP3   OH2 1103   4.793   2.198   0.693
  409TIP3    H1 1104   4.836   2.201   0.779
  409TIP3    H2 1105   4.769   2.106   0.681
  410TIP3   OH2 1106   8.779   6.805   7.903
  410TIP3    H1 1107   8.862   6.776   7.864
  410TIP3    H2 1108   8.802   6.829   7.993
  411TIP3   OH2 1109   5.559   2.263   0.167
  411TIP3    H1 1110   5.476   2.265   0.214
  411TIP3    H2 1111   5.623   2.233   0.232
  412TIP3   OH2 1112   6.306   1.543   1.473
  412TIP3    H1 1113   6.233   1.550   1.413
  412TIP3    H2 1114   6.330   1.451   1.472
  413TIP3   OH2 1115   4.936   1.961   1.450
  413TIP3    H1 1116   4.987   1.956   1.531
  413TIP3    H2 1117   4.863   1.900   1.464
  414TIP3   OH2 1118   5.366   0.833   1.320
  414TIP3    H1 1119   5.313   0.839   1.240
  414TIP3    H2 1120   5.324   0.894   1.381
  415TIP3   OH2 1121   5.874   0.899   1.494
  415TIP3    H1 1122   5.946   0.871   1.551
  415TIP3    H2 1123   5.795   0.872   1.541
  416TIP3   OH2 1124   6.069   1.298   1.378
  416TIP3    H1 1125   6.038   1.293   1.468
  416TIP3    H2 1126   6.059   1.390   1.354
  417TIP3   OH2 1127   5.261   1.309   1.293
  417TIP3    H1 1128   5.273   1.352   1.378
  417TIP3    H2 1129   5.238   1.380   1.233
  418TIP3   OH2 1130   5.195   1.205   0.767
  418TIP3    H1 1131   5.125   1.269   0.781
  418TIP3    H2 1132   5.200   1.196   0.671
  419TIP3   OH2 1133   5.584   1.275   0.578
  419TIP3    H1 1134   5.538   1.359   0.582
  419TIP3    H2 1135   5.597   1.259   0.485
  420TIP3   OH2 1136   5.805   1.513   1.594
  420TIP3    H1 1137   5.779   1.446   1.658
  420TIP3    H2 1138   5.898   1.526   1.610
  421TIP3   OH2 1139   5.794   1.260   0.764
  421TIP3    H1 1140   5.734   1.288   0.695
  421TIP3    H2 1141   5.757   1.178   0.797
  422TIP3   OH2 1142   5.061   1.292   1.531
  422TIP3    H1 1143   5.132   1.341   1.573
  422TIP3    H2 1144   5.055   1.211   1.581
  423TIP3   OH2 1145   4.768   0.732   1.045
  423TIP3    H1 1146   4.837   0.718   1.110
  423TIP3    H2 1147   4.814   0.741   0.962
  424TIP3   OH2 1148   5.820   1.521   1.180
  424TIP3    H1 1149   5.854   1.457   1.117
  424TIP3    H2 1150   5.777   1.469   1.247
  425TIP3   OH2 1151   5.614   1.065   0.871
  425TIP3    H1 1152   5.526   1.026   0.870
  425TIP3    H2 1153   5.670   0.998   0.909
  426TIP3   OH2 1154   4.908   1.095   0.783
  426TIP3    H1 1155   4.891   1.071   0.874
  426TIP3    H2 1156   4.987   1.047   0.760
  427TIP3   OH2 1157   5.082   0.943   0.636
  427TIP3    H1 1158   5.160   0.922   0.584
  427TIP3    H2 1159   5.034   1.006   0.581
  428TIP3   OH2 1160   5.960   1.059   1.084
  428TIP3    H1 1161   5.917   1.076   1.168
  428TIP3    H2 1162   5.905   0.992   1.043
  429TIP3   OH2 1163   6.142   2.746   1.270
  429TIP3    H1 1164   6.136   2.763   1.176
  429TIP3    H2 1165   6.221   2.791   1.298
  430TIP3   OH2 1166   5.088   1.872   1.680
  430TIP3    H1 1167   5.170   1.888   1.727
  430TIP3    H2 1168   5.021   1.880   1.747
  431TIP3   OH2 1169   5.573   1.325   0.973
  431TIP3    H1 1170   5.598   1.247   0.922
  431TIP3    H2 1171   5.565   1.293   1.063
  432TIP3   OH2 1172   5.114   0.729   0.805
  432TIP3    H1 1173   5.033   0.684   0.827
  432TIP3    H2 1174   5.088   0.796   0.742
  433TIP3   OH2 1175   5.520   1.234   1.227
  433TIP3    H1 1176   5.431   1.260   1.251
  433TIP3    H2 1177   5.577   1.287   1.282
  434TIP3   OH2 1178   5.266   1.631   0.349
  434TIP3    H1 1179   5.198   1.564   0.359
  434TIP3    H2 1180   5.258   1.685   0.428
  435TIP3   OH2 1181   6.144   1.849   0.924
  435TIP3    H1 1182   6.183   1.896   0.851
  435TIP3    H2 1183   6.065   1.809   0.888
  436TIP3   OH2 1184   5.665   1.924   1.344
  436TIP3    H1 1185   5.721   1.912   1.421
  436TIP3    H2 1186   5.626   2.010   1.356
  437TIP3   OH2 1187   4.970   1.611   1.013
  437TIP3    H1 1188   4.993   1.555   0.939
  437TIP3    H2 1189   5.037   1.593   1.079
  438TIP3   OH2 1190   5.450   1.760   0.191
  438TIP3    H1 1191   5.408   1.846   0.190
  438TIP3    H2 1192   5.388   1.704   0.238
  439TIP3   OH2 1193   4.842   1.554   1.630
  439TIP3    H1 1194   4.866   1.545   1.723
  439TIP3    H2 1195   4.776   1.486   1.616
  440TIP3   OH2 1196   5.589   1.685   1.613
  440TIP3    H1 1197   5.541   1.665   1.533
  440TIP3    H2 1198   5.670   1.635   1.605
  441TIP3   OH2 1199   5.806   2.215   1.236
  441TIP3    H1 1200   5.711   2.201   1.237
  441TIP3    H2 1201   5.827   2.248   1.323
  442TIP3   OH2 1202   6.449   2.126   1.191
  442TIP3    H1 1203   6.356   2.103   1.195
  442TIP3    H2 1204   6.481   2.087   1.110
  443TIP3   OH2 1205   5.885   2.072   0.127
  443TIP3    H1 1206   5.883   2.033   0.214
  443TIP3    H2 1207   5.851   2.003   0.070
  444TIP3   OH2 1208   5.907   1.723   0.823
  444TIP3    H1 1209   5.814   1.705   0.833
  444TIP3    H2 1210   5.945   1.640   0.795
  445TIP3   OH2 1211   5.074   1.970   0.656
  445TIP3    H1 1212   5.074   2.051   0.606
  445TIP3    H2 1213   4.981   1.949   0.667
  446TIP3   OH2 1214   4.667   1.195   0.409
  446TIP3    H1 1215   4.739   1.222   0.352
  446TIP3    H2 1216   4.601   1.161   0.350
  447TIP3   OH2 1217   5.221   1.748   0.586
  447TIP3    H1 1218   5.197   1.841   0.595
  447TIP3    H2 1219   5.151   1.701   0.632
  448TIP3   OH2 1220   5.362   2.266   1.105
  448TIP3    H1 1221   5.397   2.343   1.059
  448TIP3    H2 1222   5.435   2.236   1.158
  449TIP3   OH2 1223   4.994   2.197   0.515
  449TIP3    H1 1224   4.933   2.209   0.587
  449TIP3    H2 1225   5.039   2.281   0.508
  450TIP3   OH2 1226   5.704   1.933   1.069
  450TIP3    H1 1227   5.690   1.928   1.164
  450TIP3    H2 1228   5.785   1.885   1.054
  451TIP3   OH2 1229   5.750   1.857  -0.007
  451TIP3    H1 1230   5.794   1.800   0.056
  451TIP3    H2 1231   5.659   1.860   0.024
  452TIP3   OH2 1232   5.959   2.418   1.114
  452TIP3    H1 1233   5.889   2.357   1.136
  452TIP3    H2 1234   5.923   2.471   1.043
  453TIP3   OH2 1235   9.237   6.874   7.778
  453TIP3    H1 1236   9.305   6.936   7.751
  453TIP3    H2 1237   9.167   6.928   7.812
  454TIP3   OH2 1238   5.057   1.047   1.674
  454TIP3    H1 1239   4.966   1.069   1.691
  454TIP3    H2 1240   5.074   0.968   1.725
  455TIP3   OH2 1241   5.851   1.713   0.198
  455TIP3    H1 1242   5.853   1.634   0.252
  455TIP3    H2 1243   5.871   1.784   0.259
  456TIP3   OH2 1244   4.797   2.151   1.282
  456TIP3    H1 1245   4.852   2.098   1.339
  456TIP3    H2 1246   4.809   2.241   1.313
  457TIP3   OH2 1247   8.397   6.391   7.827
  457TIP3    H1 1248   8.472   6.407   7.769
  457TIP3    H2 1249   8.427   6.322   7.886
  458TIP3   OH2 1250   5.047   1.811   0.197
  458TIP3    H1 1251   5.134   1.777   0.217
  458TIP3    H2 1252   5.054   1.905   0.217
  459TIP3   OH2 1253   4.768   1.489   0.341
  459TIP3    H1 1254   4.711   1.562   0.317
  459TIP3    H2 1255   4.835   1.487   0.273
  460TIP3   OH2 1256   5.862   1.123   1.335
  460TIP3    H1 1257   5.946   1.167   1.350
  460TIP3    H2 1258   5.864   1.047   1.393
  461TIP3   OH2 1259   5.307   1.984   0.188
  461TIP3    H1 1260   5.240   2.028   0.240
  461TIP3    H2 1261   5.285   2.006   0.097
  462TIP3   OH2 1262   5.607   0.992   0.575
  462TIP3    H1 1263   5.599   1.083   0.605
  462TIP3    H2 1264   5.574   0.940   0.649
  463TIP3   OH2 1265   5.714   1.358   1.376
  463TIP3    H1 1266   5.745   1.402   1.455
  463TIP3    H2 1267   5.763   1.276   1.373
  464TIP3   OH2 1268   5.067   2.080   0.279
  464TIP3    H1 1269   5.039   2.154   0.225
  464TIP3    H2 1270   5.049   2.108   0.369
  465TIP3   OH2 1271   6.343   1.281   1.378
  465TIP3    H1 1272   6.249   1.263   1.372
  465TIP3    H2 1273   6.371   1.294   1.287
  466TIP3   OH2 1274   5.995   1.467   0.755
  466TIP3    H1 1275   5.932   1.396   0.760
  466TIP3    H2 1276   6.070   1.437   0.807
  467TIP3   OH2 1277   4.703   1.677   0.142
  467TIP3    H1 1278   4.720   1.770   0.153
  467TIP3    H2 1279   4.786   1.641   0.111
  468TIP3   OH2 1280   5.980   2.424   0.676
  468TIP3    H1 1281   5.943   2.478   0.607
  468TIP3    H2 1282   6.075   2.436   0.667
  469TIP3   OH2 1283   5.010   0.631   1.172
  469TIP3    H1 1284   4.980   0.589   1.091
  469TIP3    H2 1285   5.097   0.595   1.187
  470TIP3   OH2 1286   4.783   1.923   0.648
  470TIP3    H1 1287   4.700   1.894   0.685
  470TIP3    H2 1288   4.788   1.879   0.563
  471TIP3   OH2 1289   4.770   2.448   1.684
  471TIP3    H1 1290   4.856   2.452   1.726
  471TIP3    H2 1291   4.743   2.356   1.695
  472TIP3   OH2 1292   5.242   2.363   1.731
  472TIP3    H1 1293   5.334   2.337   1.742
  472TIP3    H2 1294   5.212   2.311   1.656
  473TIP3   OH2 1295   8.511   6.626   7.927
  473TIP3    H1 1296   8.459   6.547   7.912
  473TIP3    H2 1297   8.593   6.609   7.881
  474TIP3   OH2 1298   5.856   2.304   1.490
  474TIP3    H1 1299   5.875   2.235   1.553
  474TIP3    H2 1300   5.927   2.368   1.502
  475TIP3   OH2 1301   9.013   6.694   7.806
  475TIP3    H1 1302   9.034   6.618   7.860
  475TIP3    H2 1303   9.097   6.739   7.793
  476TIP3   OH2 1304   4.895   1.866   1.880
  476TIP3    H1 1305   4.908   1.771   1.885
  476TIP3    H2 1306   4.810   1.876   1.838
  477TIP3   OH2 1307   4.921   1.504   0.114
  477TIP3    H1 1308   5.006   1.539   0.090
  477TIP3    H2 1309   4.897   1.446   0.042
  478TIP3   OH2 1310   5.506   1.950   1.651
  478TIP3    H1 1311   5.460   1.968   1.570
  478TIP3    H2 1312   5.547   1.865   1.637
  479TIP3   OH2 1313   8.653   6.325   7.932
  479TIP3    H1 1314   8.684   6.343   8.021
  479TIP3    H2 1315   8.724   6.275   7.892
  480TIP3   OH2 1316   5.976   1.992   1.272
  480TIP3    H1 1317   6.052   2.014   1.219
  480TIP3    H2 1318   5.913   2.062   1.253
  481TIP3   OH2 1319   5.004   1.604   1.870
  481TIP3    H1 1320   5.089   1.583   1.831
  481TIP3    H2 1321   5.023   1.622   1.962
  482TIP3   OH2 1322   5.087   1.435   0.396
  482TIP3    H1 1323   5.017   1.426   0.461
  482TIP3    H2 1324   5.050   1.395   0.317
  483TIP3   OH2 1325   5.315   1.459   1.513
  483TIP3    H1 1326   5.245   1.521   1.537
  483TIP3    H2 1327   5.381   1.513   1.470
  484TIP3   OH2 1328   5.863   1.863   1.611
  484TIP3    H1 1329   5.937   1.832   1.559
  484TIP3    H2 1330   5.860   1.804   1.686
  485TIP3   OH2 1331   5.468   1.269   1.651
  485TIP3    H1 1332   5.491   1.197   1.592
  485TIP3    H2 1333   5.421   1.331   1.595
  486TIP3   OH2 1334   5.521   1.069   1.460
  486TIP3    H1 1335   5.542   1.098   1.371
  486TIP3    H2 1336   5.427   1.055   1.459
  487TIP3   OH2 1337   5.484   1.617   1.365
  487TIP3    H1 1338   5.569   1.614   1.319
  487TIP3    H2 1339   5.429   1.672   1.309
  488TIP3   OH2 1340   6.074   1.537   1.683
  488TIP3    H1 1341   6.089   1.443   1.693
  488TIP3    H2 1342   6.157   1.571   1.650
  489TIP3   OH2 1343   6.095   1.818   1.442
  489TIP3    H1 1344   6.045   1.879   1.388
  489TIP3    H2 1345   6.186   1.829   1.412
  490TIP3   OH2 1346   5.350   1.359   1.887
  490TIP3    H1 1347   5.285   1.293   1.911
  490TIP3    H2 1348   5.382   1.330   1.801
  491TIP3   OH2 1349   5.610   0.822   1.556
  491TIP3    H1 1350   5.577   0.904   1.518
  491TIP3    H2 1351   5.546   0.756   1.531
  492TIP3   OH2 1352   5.724   1.306   1.755
  492TIP3    H1 1353   5.721   1.291   1.849
  492TIP3    H2 1354   5.635   1.288   1.724
  493TIP3   OH2 1355   5.971   1.264   1.627
  493TIP3    H1 1356   5.891   1.258   1.678
  493TIP3    H2 1357   6.039   1.230   1.685
  494TIP3   OH2 1358   6.196   1.222   1.780
  494TIP3    H1 1359   6.214   1.128   1.786
  494TIP3    H2 1360   6.192   1.251   1.871
  495TIP3   OH2 1361   5.200   1.142   1.965
  495TIP3    H1 1362   5.201   1.053   1.928
  495TIP3    H2 1363   5.235   1.131   2.053
  496TIP3   OH2 1364   5.655   0.797   1.823
  496TIP3    H1 1365   5.729   0.736   1.819
  496TIP3    H2 1366   5.628   0.809   1.732
  497TIP3   OH2 1367   5.749   1.022   1.951
  497TIP3    H1 1368   5.718   0.947   1.900
  497TIP3    H2 1369   5.675   1.081   1.955
  498TIP3   OH2 1370   5.014   2.293   0.108
  498TIP3    H1 1371   5.091   2.310   0.054
  498TIP3    H2 1372   4.958   2.370   0.094
  499TIP3   OH2 1373   4.470   1.601   0.252
  499TIP3    H1 1374   4.535   1.642   0.193
  499TIP3    H2 1375   4.390   1.650   0.236
  500TIP3   OH2 1376   4.401   2.319   0.765
  500TIP3    H1 1377   4.308   2.299   0.764
  500TIP3    H2 1378   4.441   2.247   0.814
  501TIP3   OH2 1379   4.553   2.113   0.865
  501TIP3    H1 1380   4.477   2.081   0.913
  501TIP3    H2 1381   4.610   2.152   0.931
  502TIP3   OH2 1382   6.250   2.477   0.683
  502TIP3    H1 1383   6.270   2.502   0.773
  502TIP3    H2 1384   6.309   2.530   0.630
  503TIP3   OH2 1385   6.265   2.505   0.963
  503TIP3    H1 1386   6.222   2.419   0.957
  503TIP3    H2 1387   6.337   2.491   1.025
  504TIP3   OH2 1388   6.336   2.214   1.516
  504TIP3    H1 1389   6.260   2.222   1.574
  504TIP3    H2 1390   6.375   2.301   1.516
  505TIP3   OH2 1391   6.314   1.987   0.757
  505TIP3    H1 1392   6.350   1.914   0.706
  505TIP3    H2 1393   6.323   2.063   0.700
  506TIP3   OH2 1394   6.133   2.258   0.969
  506TIP3    H1 1395   6.065   2.304   1.018
  506TIP3    H2 1396   6.086   2.219   0.895
  507TIP3   OH2 1397   6.095   1.451   0.501
  507TIP3    H1 1398   6.182   1.412   0.512
  507TIP3    H2 1399   6.066   1.469   0.590
  508TIP3   OH2 1400   4.709   1.547   1.244
  508TIP3    H1 1401   4.703   1.524   1.152
  508TIP3    H2 1402   4.799   1.525   1.269
  509TIP3   OH2 1403   6.354   1.862   1.356
  509TIP3    H1 1404   6.423   1.796   1.345
  509TIP3    H2 1405   6.343   1.899   1.268
  510TIP3   OH2 1406   6.541   1.659   1.380
  510TIP3    H1 1407   6.460   1.618   1.410
  510TIP3    H2 1408   6.605   1.587   1.379
  511TIP3   OH2 1409   6.228   1.386   0.879
  511TIP3    H1 1410   6.316   1.411   0.852
  511TIP3    H2 1411   6.230   1.391   0.975
  512TIP3   OH2 1412   6.282   1.473   1.146
  512TIP3    H1 1413   6.201   1.498   1.192
  512TIP3    H2 1414   6.310   1.554   1.103
  513TIP3   OH2 1415   4.942   1.229   1.951
  513TIP3    H1 1416   5.035   1.208   1.945
  513TIP3    H2 1417   4.902   1.148   1.983
  514TIP3   OH2 1418   6.758   1.086   1.655
  514TIP3    H1 1419   6.830   1.034   1.619
  514TIP3    H2 1420   6.722   1.133   1.580
  515TIP3   OH2 1421   4.830   0.979   1.293
  515TIP3    H1 1422   4.871   0.907   1.340
  515TIP3    H2 1423   4.894   1.050   1.296
  516TIP3   OH2 1424   4.721   1.259   1.272
  516TIP3    H1 1425   4.763   1.244   1.187
  516TIP3    H2 1426   4.784   1.311   1.321
  517TIP3   OH2 1427   6.598   1.198   1.464
  517TIP3    H1 1428   6.516   1.242   1.485
  517TIP3    H2 1429   6.571   1.124   1.408
  518TIP3   OH2 1430   5.801   2.386   0.330
  518TIP3    H1 1431   5.858   2.380   0.253
  518TIP3    H2 1432   5.839   2.456   0.382
  519TIP3   OH2 1433   4.942   0.779   1.739
  519TIP3    H1 1434   4.879   0.778   1.811
  519TIP3    H2 1435   4.888   0.779   1.660
  520TIP3   OH2 1436   4.933   2.166   1.700
  520TIP3    H1 1437   4.837   2.165   1.697
  520TIP3    H2 1438   4.955   2.165   1.793
  521TIP3   OH2 1439   5.128   2.227   1.244
  521TIP3    H1 1440   5.077   2.301   1.214
  521TIP3    H2 1441   5.214   2.238   1.203
  522TIP3   OH2 1442   5.513   2.461   1.388
  522TIP3    H1 1443   5.549   2.453   1.476
  522TIP3    H2 1444   5.576   2.515   1.340
  523TIP3   OH2 1445   5.710   2.614   1.268
  523TIP3    H1 1446   5.774   2.564   1.217
  523TIP3    H2 1447   5.763   2.676   1.319
  524TIP3   OH2 1448   6.461   0.977   1.363
  524TIP3    H1 1449   6.391   1.022   1.316
  524TIP3    H2 1450   6.449   0.885   1.340
  525TIP3   OH2 1451   4.774   2.442   1.289
  525TIP3    H1 1452   4.684   2.461   1.262
  525TIP3    H2 1453   4.795   2.509   1.354
  526TIP3   OH2 1454   5.011   2.455   1.147
  526TIP3    H1 1455   4.926   2.454   1.191
  526TIP3    H2 1456   4.991   2.486   1.058
  527TIP3   OH2 1457   5.430   2.480   0.943
  527TIP3    H1 1458   5.357   2.494   0.882
  527TIP3    H2 1459   5.440   2.565   0.987
  528TIP3   OH2 1460   5.689   2.407   0.988
  528TIP3    H1 1461   5.599   2.432   0.970
  528TIP3    H2 1462   5.742   2.474   0.944
  529TIP3   OH2 1463   5.887   2.574   0.888
  529TIP3    H1 1464   5.892   2.663   0.853
  529TIP3    H2 1465   5.918   2.519   0.816
  530TIP3   OH2 1466   4.715   2.267   1.030
  530TIP3    H1 1467   4.721   2.251   1.125
  530TIP3    H2 1468   4.796   2.231   0.995
  531TIP3   OH2 1469   4.930   2.152   0.920
  531TIP3    H1 1470   4.934   2.060   0.943
  531TIP3    H2 1471   5.022   2.180   0.917
  532TIP3   OH2 1472   5.195   2.218   0.892
  532TIP3    H1 1473   5.212   2.125   0.877
  532TIP3    H2 1474   5.249   2.240   0.968
  533TIP3   OH2 1475   5.774   0.868   0.991
  533TIP3    H1 1476   5.709   0.844   1.057
  533TIP3    H2 1477   5.814   0.785   0.966
  534TIP3   OH2 1478   4.939   0.524   0.922
  534TIP3    H1 1479   4.871   0.456   0.920
  534TIP3    H2 1480   5.021   0.475   0.930
  535TIP3   OH2 1481   4.471   1.993   0.351
  535TIP3    H1 1482   4.408   2.056   0.317
  535TIP3    H2 1483   4.512   2.037   0.426
  536TIP3   OH2 1484   8.511   6.899   7.965
  536TIP3    H1 1485   8.602   6.923   7.945
  536TIP3    H2 1486   8.507   6.805   7.949
  537TIP3   OH2 1487   5.948   2.338   0.099
  537TIP3    H1 1488   5.936   2.243   0.103
  537TIP3    H2 1489   5.902   2.365   0.020
  538TIP3   OH2 1490   5.222   0.874   1.910
  538TIP3    H1 1491   5.184   0.798   1.953
  538TIP3    H2 1492   5.312   0.878   1.944
  539TIP3   OH2 1493   5.468   0.857   2.024
  539TIP3    H1 1494   5.536   0.829   1.962
  539TIP3    H2 1495   5.462   0.785   2.086
  540TIP3   OH2 1496   7.941   6.716   7.899
  540TIP3    H1 1497   7.865   6.705   7.957
  540TIP3    H2 1498   8.015   6.689   7.952
  541TIP3   OH2 1499   6.265   0.957   1.791
  541TIP3    H1 1500   6.286   0.922   1.877
  541TIP3    H2 1501   6.348   0.953   1.743
  542TIP3   OH2 1502   6.173   2.472   1.285
  542TIP3    H1 1503   6.102   2.443   1.228
  542TIP3    H2 1504   6.165   2.567   1.287
  543TIP3   OH2 1505   6.727   2.168   0.507
  543TIP3    H1 1506   6.722   2.082   0.549
  543TIP3    H2 1507   6.815   2.172   0.471
  544TIP3   OH2 1508   7.368   2.497   0.071
  544TIP3    H1 1509   7.313   2.426   0.104
  544TIP3    H2 1510   7.372   2.560   0.143
  545TIP3   OH2 1511   7.089   2.033   0.647
  545TIP3    H1 1512   7.020   2.084   0.688
  545TIP3    H2 1513   7.150   2.099   0.613
  546TIP3   OH2 1514   6.918   2.209   0.768
  546TIP3    H1 1515   6.907   2.298   0.734
  546TIP3    H2 1516   6.834   2.189   0.810
  547TIP3   OH2 1517   7.981   2.207   0.602
  547TIP3    H1 1518   7.951   2.166   0.521
  547TIP3    H2 1519   7.969   2.301   0.587
  548TIP3   OH2 1520   6.960   2.208   0.354
  548TIP3    H1 1521   6.910   2.200   0.273
  548TIP3    H2 1522   7.034   2.148   0.342
  549TIP3   OH2 1523   7.358   2.364   0.346
  549TIP3    H1 1524   7.429   2.429   0.353
  549TIP3    H2 1525   7.367   2.311   0.425
  550TIP3   OH2 1526   7.104   2.296   0.952
  550TIP3    H1 1527   7.040   2.359   0.986
  550TIP3    H2 1528   7.054   2.244   0.889
  551TIP3   OH2 1529   6.867   1.844   1.066
  551TIP3    H1 1530   6.848   1.938   1.066
  551TIP3    H2 1531   6.801   1.807   1.007
  552TIP3   OH2 1532   6.913   2.483   1.001
  552TIP3    H1 1533   6.895   2.489   0.907
  552TIP3    H2 1534   6.827   2.470   1.041
  553TIP3   OH2 1535   6.511   2.007   0.954
  553TIP3    H1 1536   6.438   2.006   0.892
  553TIP3    H2 1537   6.557   1.925   0.937
  554TIP3   OH2 1538   6.381   2.216   0.613
  554TIP3    H1 1539   6.477   2.221   0.612
  554TIP3    H2 1540   6.353   2.295   0.660
  555TIP3   OH2 1541   8.297   2.714   0.631
  555TIP3    H1 1542   8.354   2.660   0.577
  555TIP3    H2 1543   8.210   2.704   0.591
  556TIP3   OH2 1544   7.268   2.470   0.815
  556TIP3    H1 1545   7.261   2.560   0.847
  556TIP3    H2 1546   7.204   2.421   0.866
  557TIP3   OH2 1547   6.545   2.450   0.143
  557TIP3    H1 1548   6.597   2.437   0.223
  557TIP3    H2 1549   6.504   2.365   0.127
  558TIP3   OH2 1550   6.692   2.214   0.929
  558TIP3    H1 1551   6.745   2.200   1.007
  558TIP3    H2 1552   6.627   2.144   0.931
  559TIP3   OH2 1553   7.563   1.821   1.090
  559TIP3    H1 1554   7.520   1.755   1.143
  559TIP3    H2 1555   7.645   1.839   1.136
  560TIP3   OH2 1556   7.872   3.120   0.791
  560TIP3    H1 1557   7.803   3.162   0.740
  560TIP3    H2 1558   7.950   3.173   0.774
  561TIP3   OH2 1559   6.843   2.132   1.156
  561TIP3    H1 1560   6.927   2.141   1.199
  561TIP3    H2 1561   6.779   2.131   1.227
  562TIP3   OH2 1562   7.400   2.087   0.824
  562TIP3    H1 1563   7.464   2.050   0.886
  562TIP3    H2 1564   7.400   2.180   0.844
  563TIP3   OH2 1565   6.761   1.915   0.626
  563TIP3    H1 1566   6.850   1.881   0.618
  563TIP3    H2 1567   6.723   1.863   0.697
  564TIP3   OH2 1568   7.312   1.934   1.112
  564TIP3    H1 1569   7.242   1.880   1.076
  564TIP3    H2 1570   7.392   1.885   1.093
  565TIP3   OH2 1571   7.532   2.499   0.630
  565TIP3    H1 1572   7.524   2.423   0.571
  565TIP3    H2 1573   7.530   2.461   0.718
  566TIP3   OH2 1574   8.401   2.269   0.620
  566TIP3    H1 1575   8.319   2.315   0.601
  566TIP3    H2 1576   8.380   2.177   0.608
  567TIP3   OH2 1577   6.809   2.204   0.129
  567TIP3    H1 1578   6.812   2.280   0.070
  567TIP3    H2 1579   6.721   2.167   0.116
  568TIP3   OH2 1580   7.140   2.527   0.576
  568TIP3    H1 1581   7.180   2.602   0.533
  568TIP3    H2 1582   7.204   2.500   0.642
  569TIP3   OH2 1583   0.238   7.055   7.985
  569TIP3    H1 1584   0.153   7.068   8.027
  569TIP3    H2 1585   0.275   7.143   7.980
  570TIP3   OH2 1586   7.427   2.184   0.554
  570TIP3    H1 1587   7.421   2.141   0.639
  570TIP3    H2 1588   7.492   2.134   0.505
  571TIP3   OH2 1589   7.762   2.626   0.538
  571TIP3    H1 1590   7.694   2.575   0.582
  571TIP3    H2 1591   7.715   2.677   0.472
  572TIP3   OH2 1592   6.903   1.297   1.168
  572TIP3    H1 1593   6.811   1.297   1.143
  572TIP3    H2 1594   6.913   1.222   1.226
  573TIP3   OH2 1595   6.562   2.421   0.763
  573TIP3    H1 1596   6.608   2.356   0.816
  573TIP3    H2 1597   6.583   2.505   0.803
  574TIP3   OH2 1598   7.815   2.631   0.205
  574TIP3    H1 1599   7.765   2.627   0.123
  574TIP3    H2 1600   7.897   2.672   0.180
  575TIP3   OH2 1601   6.423   2.211   0.108
  575TIP3    H1 1602   6.368   2.196   0.185
  575TIP3    H2 1603   6.361   2.214   0.035
  576TIP3   OH2 1604   6.579   2.720   1.166
  576TIP3    H1 1605   6.652   2.735   1.225
  576TIP3    H2 1606   6.586   2.628   1.142
  577TIP3   OH2 1607   7.010   2.640   1.205
  577TIP3    H1 1608   7.095   2.599   1.224
  577TIP3    H2 1609   6.978   2.595   1.127
  578TIP3   OH2 1610   7.676   2.507   1.001
  578TIP3    H1 1611   7.658   2.465   1.086
  578TIP3    H2 1612   7.760   2.551   1.014
  579TIP3   OH2 1613   6.659   2.113   1.365
  579TIP3    H1 1614   6.684   2.021   1.359
  579TIP3    H2 1615   6.579   2.120   1.314
  580TIP3   OH2 1616   7.260   2.207   1.153
  580TIP3    H1 1617   7.213   2.230   1.073
  580TIP3    H2 1618   7.293   2.118   1.137
  581TIP3   OH2 1619   7.696   2.200   0.739
  581TIP3    H1 1620   7.762   2.268   0.748
  581TIP3    H2 1621   7.618   2.237   0.781
  582TIP3   OH2 1622   6.731   1.856   1.325
  582TIP3    H1 1623   6.786   1.830   1.251
  582TIP3    H2 1624   6.672   1.782   1.338
  583TIP3   OH2 1625   7.129   1.760   1.007
  583TIP3    H1 1626   7.036   1.783   1.015
  583TIP3    H2 1627   7.149   1.774   0.915
  584TIP3   OH2 1628   7.555   2.116   1.106
  584TIP3    H1 1629   7.632   2.091   1.055
  584TIP3    H2 1630   7.515   2.033   1.132
  585TIP3   OH2 1631   7.200   1.543   1.156
  585TIP3    H1 1632   7.218   1.476   1.091
  585TIP3    H2 1633   7.171   1.619   1.105
  586TIP3   OH2 1634   7.252   1.849   0.763
  586TIP3    H1 1635   7.318   1.913   0.790
  586TIP3    H2 1636   7.185   1.900   0.718
  587TIP3   OH2 1637   7.971   1.740   1.118
  587TIP3    H1 1638   7.982   1.651   1.150
  587TIP3    H2 1639   7.900   1.776   1.171
  588TIP3   OH2 1640   7.773   2.055   0.961
  588TIP3    H1 1641   7.747   2.082   0.873
  588TIP3    H2 1642   7.835   1.984   0.948
  589TIP3   OH2 1643   7.099   1.581   1.407
  589TIP3    H1 1644   7.035   1.511   1.425
  589TIP3    H2 1645   7.116   1.574   1.313
  590TIP3   OH2 1646   7.423   1.669   1.265
  590TIP3    H1 1647   7.412   1.645   1.357
  590TIP3    H2 1648   7.357   1.620   1.218
  591TIP3   OH2 1649   6.945   1.372   1.485
  591TIP3    H1 1650   6.950   1.287   1.442
  591TIP3    H2 1651   6.991   1.359   1.568
  592TIP3   OH2 1652   7.515   1.194   1.470
  592TIP3    H1 1653   7.557   1.266   1.421
  592TIP3    H2 1654   7.430   1.229   1.495
  593TIP3   OH2 1655   6.160   2.487   0.187
  593TIP3    H1 1656   6.095   2.430   0.146
  593TIP3    H2 1657   6.207   2.431   0.249
  594TIP3   OH2 1658   6.303   2.343   0.372
  594TIP3    H1 1659   6.301   2.273   0.437
  594TIP3    H2 1660   6.358   2.411   0.412
  595TIP3   OH2 1661   8.044   2.779   0.138
  595TIP3    H1 1662   8.009   2.845   0.198
  595TIP3    H2 1663   8.128   2.816   0.109
  596TIP3   OH2 1664   8.080   2.710   0.455
  596TIP3    H1 1665   7.988   2.728   0.440
  596TIP3    H2 1666   8.124   2.792   0.433
  597TIP3   OH2 1667   7.939   2.572   1.018
  597TIP3    H1 1668   7.942   2.477   1.033
  597TIP3    H2 1669   8.026   2.603   1.042
  598TIP3   OH2 1670   7.938   2.443   0.443
  598TIP3    H1 1671   7.878   2.505   0.485
  598TIP3    H2 1672   7.933   2.463   0.350
  599TIP3   OH2 1673   6.433   1.771   0.643
  599TIP3    H1 1674   6.470   1.729   0.565
  599TIP3    H2 1675   6.497   1.756   0.712
  600TIP3   OH2 1676   6.700   1.439   1.380
  600TIP3    H1 1677   6.794   1.431   1.396
  600TIP3    H2 1678   6.663   1.358   1.414
  601TIP3   OH2 1679   6.497   1.437   0.832
  601TIP3    H1 1680   6.557   1.416   0.762
  601TIP3    H2 1681   6.532   1.517   0.871
  602TIP3   OH2 1682   6.689   2.454   1.158
  602TIP3    H1 1683   6.598   2.424   1.164
  602TIP3    H2 1684   6.729   2.423   1.239
  603TIP3   OH2 1685   6.911   2.482   0.722
  603TIP3    H1 1686   6.858   2.555   0.690
  603TIP3    H2 1687   6.994   2.490   0.675
  604TIP3   OH2 1688   7.294   2.726   0.906
  604TIP3    H1 1689   7.347   2.702   0.982
  604TIP3    H2 1690   7.341   2.800   0.867
  605TIP3   OH2 1691   7.436   2.940   0.808
  605TIP3    H1 1692   7.483   2.892   0.740
  605TIP3    H2 1693   7.501   2.999   0.846
  606TIP3   OH2 1694   6.575   2.719   0.792
  606TIP3    H1 1695   6.484   2.736   0.769
  606TIP3    H2 1696   6.598   2.790   0.852
  607TIP3   OH2 1697   6.792   2.708   0.627
  607TIP3    H1 1698   6.712   2.713   0.678
  607TIP3    H2 1699   6.767   2.736   0.539
  608TIP3   OH2 1700   7.208   2.759   0.436
  608TIP3    H1 1701   7.125   2.777   0.393
  608TIP3    H2 1702   7.224   2.835   0.492
  609TIP3   OH2 1703   7.385   2.715   0.232
  609TIP3    H1 1704   7.325   2.727   0.305
  609TIP3    H2 1705   7.472   2.726   0.271
  610TIP3   OH2 1706   7.630   2.791   0.348
  610TIP3    H1 1707   7.621   2.886   0.339
  610TIP3    H2 1708   7.701   2.768   0.288
  611TIP3   OH2 1709   6.482   2.517   0.515
  611TIP3    H1 1710   6.506   2.491   0.603
  611TIP3    H2 1711   6.554   2.485   0.460
  612TIP3   OH2 1712   6.687   2.410   0.376
  612TIP3    H1 1713   6.694   2.323   0.417
  612TIP3    H2 1714   6.776   2.443   0.374
  613TIP3   OH2 1715   6.957   2.485   0.375
  613TIP3    H1 1716   6.968   2.392   0.356
  613TIP3    H2 1717   7.019   2.502   0.447
  614TIP3   OH2 1718   9.494   6.871   7.921
  614TIP3    H1 1719   9.414   6.823   7.897
  614TIP3    H2 1720   9.481   6.958   7.883
  615TIP3   OH2 1721   6.982   1.118   1.384
  615TIP3    H1 1722   6.954   1.038   1.429
  615TIP3    H2 1723   7.076   1.123   1.401
  616TIP3   OH2 1724   7.239   1.116   1.505
  616TIP3    H1 1725   7.318   1.078   1.466
  616TIP3    H2 1726   7.220   1.059   1.580
  617TIP3   OH2 1727   7.958   2.677   0.727
  617TIP3    H1 1728   7.885   2.671   0.665
  617TIP3    H2 1729   7.999   2.761   0.707
  618TIP3   OH2 1730   8.352   2.983   0.640
  618TIP3    H1 1731   8.378   2.999   0.731
  618TIP3    H2 1732   8.342   2.888   0.635
  619TIP3   OH2 1733   8.617   2.247   0.793
  619TIP3    H1 1734   8.631   2.152   0.800
  619TIP3    H2 1735   8.548   2.256   0.727
  620TIP3   OH2 1736   8.635   2.609   0.720
  620TIP3    H1 1737   8.599   2.670   0.655
  620TIP3    H2 1738   8.613   2.649   0.804
  621TIP3   OH2 1739   8.354   3.067   0.208
  621TIP3    H1 1740   8.353   3.162   0.215
  621TIP3    H2 1741   8.437   3.041   0.248
  622TIP3   OH2 1742   0.693   3.497   2.334
  622TIP3    H1 1743   0.664   3.454   2.254
  622TIP3    H2 1744   0.614   3.500   2.389
  623TIP3   OH2 1745   0.395   3.792   2.455
  623TIP3    H1 1746   0.388   3.796   2.360
  623TIP3    H2 1747   0.474   3.842   2.475
  624TIP3   OH2 1748   0.577   3.236   2.721
  624TIP3    H1 1749   0.498   3.247   2.774
  624TIP3    H2 1750   0.615   3.323   2.715
  625TIP3   OH2 1751   0.457   3.523   2.474
  625TIP3    H1 1752   0.424   3.494   2.560
  625TIP3    H2 1753   0.429   3.614   2.467
  626TIP3   OH2 1754   1.849   3.143   1.293
  626TIP3    H1 1755   1.891   3.079   1.349
  626TIP3    H2 1756   1.770   3.170   1.340
  627TIP3   OH2 1757   1.595   3.616   1.352
  627TIP3    H1 1758   1.611   3.526   1.324
  627TIP3    H2 1759   1.540   3.608   1.430
  628TIP3   OH2 1760   1.562   3.052   1.744
  628TIP3    H1 1761   1.612   2.983   1.700
  628TIP3    H2 1762   1.627   3.120   1.761
  629TIP3   OH2 1763   2.516   2.524   1.682
  629TIP3    H1 1764   2.552   2.571   1.757
  629TIP3    H2 1765   2.524   2.585   1.609
  630TIP3   OH2 1766   2.603   2.655   1.902
  630TIP3    H1 1767   2.512   2.681   1.914
  630TIP3    H2 1768   2.652   2.713   1.960
  631TIP3   OH2 1769   1.429   3.130   1.965
  631TIP3    H1 1770   1.344   3.088   1.955
  631TIP3    H2 1771   1.472   3.118   1.880
  632TIP3   OH2 1772   1.143   3.268   1.987
  632TIP3    H1 1773   1.126   3.358   1.960
  632TIP3    H2 1774   1.084   3.253   2.061
  633TIP3   OH2 1775   2.089   3.365   1.460
  633TIP3    H1 1776   2.043   3.361   1.544
  633TIP3    H2 1777   2.103   3.458   1.445
  634TIP3   OH2 1778   2.382   2.363   1.887
  634TIP3    H1 1779   2.312   2.324   1.834
  634TIP3    H2 1780   2.441   2.404   1.823
  635TIP3   OH2 1781   1.727   3.422   1.200
  635TIP3    H1 1782   1.800   3.361   1.212
  635TIP3    H2 1783   1.755   3.481   1.130
  636TIP3   OH2 1784   2.228   3.422   1.851
  636TIP3    H1 1785   2.226   3.345   1.793
  636TIP3    H2 1786   2.206   3.495   1.795
  637TIP3   OH2 1787   2.449   2.996   1.760
  637TIP3    H1 1788   2.384   3.054   1.799
  637TIP3    H2 1789   2.445   3.014   1.666
  638TIP3   OH2 1790   2.172   2.922   1.986
  638TIP3    H1 1791   2.179   2.987   2.055
  638TIP3    H2 1792   2.085   2.884   1.998
  639TIP3   OH2 1793   1.698   3.447   1.603
  639TIP3    H1 1794   1.687   3.541   1.611
  639TIP3    H2 1795   1.627   3.410   1.656
  640TIP3   OH2 1796   1.405   3.353   2.141
  640TIP3    H1 1797   1.325   3.397   2.170
  640TIP3    H2 1798   1.375   3.286   2.080
  641TIP3   OH2 1799   1.110   2.955   2.188
  641TIP3    H1 1800   1.120   3.022   2.256
  641TIP3    H2 1801   1.018   2.930   2.192
  642TIP3   OH2 1802   1.176   3.496   2.214
  642TIP3    H1 1803   1.133   3.522   2.132
  642TIP3    H2 1804   1.104   3.480   2.275
  643TIP3   OH2 1805   2.480   3.704   1.877
  643TIP3    H1 1806   2.485   3.610   1.891
  643TIP3    H2 1807   2.404   3.733   1.928
  644TIP3   OH2 1808   1.586   3.515   2.007
  644TIP3    H1 1809   1.572   3.598   2.053
  644TIP3    H2 1810   1.553   3.448   2.068
  645TIP3   OH2 1811   2.360   2.836   2.202
  645TIP3    H1 1812   2.312   2.778   2.143
  645TIP3    H2 1813   2.414   2.778   2.255
  646TIP3   OH2 1814   0.934   3.217   2.158
  646TIP3    H1 1815   0.985   3.220   2.238
  646TIP3    H2 1816   0.889   3.132   2.161
  647TIP3   OH2 1817   2.130   2.640   2.088
  647TIP3    H1 1818   2.088   2.590   2.158
  647TIP3    H2 1819   2.058   2.691   2.049
  648TIP3   OH2 1820   1.865   2.810   2.275
  648TIP3    H1 1821   1.835   2.742   2.335
  648TIP3    H2 1822   1.959   2.817   2.290
  649TIP3   OH2 1823   1.930   2.795   1.976
  649TIP3    H1 1824   1.901   2.777   1.887
  649TIP3    H2 1825   1.862   2.851   2.013
  650TIP3   OH2 1826   2.195   4.063   1.957
  650TIP3    H1 1827   2.186   4.078   1.863
  650TIP3    H2 1828   2.277   4.107   1.980
  651TIP3   OH2 1829   1.116   3.168   2.369
  651TIP3    H1 1830   1.199   3.185   2.414
  651TIP3    H2 1831   1.050   3.178   2.437
  652TIP3   OH2 1832   2.226   3.180   1.726
  652TIP3    H1 1833   2.223   3.169   1.630
  652TIP3    H2 1834   2.165   3.114   1.759
  653TIP3   OH2 1835   1.709   3.230   2.074
  653TIP3    H1 1836   1.764   3.198   2.146
  653TIP3    H2 1837   1.629   3.178   2.081
  654TIP3   OH2 1838   1.647   2.984   2.301
  654TIP3    H1 1839   1.599   2.952   2.224
  654TIP3    H2 1840   1.732   2.940   2.296
  655TIP3   OH2 1841   1.849   3.516   1.928
  655TIP3    H1 1842   1.755   3.508   1.946
  655TIP3    H2 1843   1.883   3.570   1.999
  656TIP3   OH2 1844   2.495   3.417   1.892
  656TIP3    H1 1845   2.400   3.420   1.883
  656TIP3    H2 1846   2.527   3.397   1.804
  657TIP3   OH2 1847   1.930   2.957   1.471
  657TIP3    H1 1848   1.840   2.936   1.497
  657TIP3    H2 1849   1.973   2.871   1.461
  658TIP3   OH2 1850   1.337   3.517   1.877
  658TIP3    H1 1851   1.363   3.601   1.839
  658TIP3    H2 1852   1.412   3.490   1.929
  659TIP3   OH2 1853   1.847   2.995   1.777
  659TIP3    H1 1854   1.830   3.087   1.793
  659TIP3    H2 1855   1.940   2.992   1.751
  660TIP3   OH2 1856   1.939   3.788   1.812
  660TIP3    H1 1857   1.870   3.734   1.775
  660TIP3    H2 1858   1.942   3.865   1.755
  661TIP3   OH2 1859   0.812   3.420   2.006
  661TIP3    H1 1860   0.853   3.366   2.074
  661TIP3    H2 1861   0.877   3.487   1.987
  662TIP3   OH2 1862   1.907   2.443   1.951
  662TIP3    H1 1863   1.981   2.494   1.917
  662TIP3    H2 1864   1.923   2.355   1.917
  663TIP3   OH2 1865   1.728   2.599   2.092
  663TIP3    H1 1866   1.774   2.662   2.148
  663TIP3    H2 1867   1.798   2.544   2.057
  664TIP3   OH2 1868   2.385   2.541   2.099
  664TIP3    H1 1869   2.294   2.570   2.107
  664TIP3    H2 1870   2.384   2.481   2.024
  665TIP3   OH2 1871   2.041   2.711   1.441
  665TIP3    H1 1872   2.050   2.675   1.352
  665TIP3    H2 1873   2.018   2.635   1.495
  666TIP3   OH2 1874   2.101   3.638   1.458
  666TIP3    H1 1875   2.018   3.654   1.413
  666TIP3    H2 1876   2.159   3.708   1.428
  667TIP3   OH2 1877   0.811   3.758   2.358
  667TIP3    H1 1878   0.893   3.749   2.407
  667TIP3    H2 1879   0.778   3.669   2.349
  668TIP3   OH2 1880   1.291   3.671   2.395
  668TIP3    H1 1881   1.381   3.642   2.408
  668TIP3    H2 1882   1.257   3.612   2.327
  669TIP3   OH2 1883   1.935   3.631   2.165
  669TIP3    H1 1884   1.926   3.554   2.220
  669TIP3    H2 1885   2.016   3.672   2.195
  670TIP3   OH2 1886   0.908   3.159   2.552
  670TIP3    H1 1887   0.936   3.068   2.557
  670TIP3    H2 1888   0.813   3.154   2.542
  671TIP3   OH2 1889   1.548   3.246   2.349
  671TIP3    H1 1890   1.507   3.272   2.266
  671TIP3    H2 1891   1.587   3.161   2.330
  672TIP3   OH2 1892   2.019   3.300   1.985
  672TIP3    H1 1893   2.091   3.344   1.940
  672TIP3    H2 1894   1.946   3.362   1.981
  673TIP3   OH2 1895   1.008   2.907   2.558
  673TIP3    H1 1896   1.057   2.840   2.510
  673TIP3    H2 1897   1.056   2.920   2.639
  674TIP3   OH2 1898   1.902   3.159   2.286
  674TIP3    H1 1899   1.987   3.142   2.246
  674TIP3    H2 1900   1.900   3.102   2.363
  675TIP3   OH2 1901   1.559   2.906   2.058
  675TIP3    H1 1902   1.565   2.841   1.988
  675TIP3    H2 1903   1.509   2.978   2.021
  676TIP3   OH2 1904   2.126   2.833   2.377
  676TIP3    H1 1905   2.155   2.773   2.445
  676TIP3    H2 1906   2.203   2.845   2.322
  677TIP3   OH2 1907   2.160   3.147   2.155
  677TIP3    H1 1908   2.102   3.198   2.099
  677TIP3    H2 1909   2.247   3.161   2.118
  678TIP3   OH2 1910   1.777   2.606   2.433
  678TIP3    H1 1911   1.778   2.596   2.528
  678TIP3    H2 1912   1.692   2.571   2.406
  679TIP3   OH2 1913   2.007   2.520   2.296
  679TIP3    H1 1914   1.936   2.537   2.357
  679TIP3    H2 1915   2.086   2.518   2.350
  680TIP3   OH2 1916   2.262   2.532   2.416
  680TIP3    H1 1917   2.277   2.440   2.435
  680TIP3    H2 1918   2.239   2.571   2.500
  681TIP3   OH2 1919   1.186   2.485   2.700
  681TIP3    H1 1920   1.183   2.430   2.622
  681TIP3    H2 1921   1.247   2.441   2.758
  682TIP3   OH2 1922   1.682   2.097   2.483
  682TIP3    H1 1923   1.767   2.055   2.472
  682TIP3    H2 1924   1.641   2.090   2.397
  683TIP3   OH2 1925   1.780   2.319   2.625
  683TIP3    H1 1926   1.749   2.245   2.572
  683TIP3    H2 1927   1.708   2.382   2.624
  684TIP3   OH2 1928   2.323   3.796   1.406
  684TIP3    H1 1929   2.352   3.829   1.491
  684TIP3    H2 1930   2.299   3.875   1.357
  685TIP3   OH2 1931   2.344   3.848   1.678
  685TIP3    H1 1932   2.281   3.777   1.690
  685TIP3    H2 1933   2.418   3.825   1.734
  686TIP3   OH2 1934   2.418   3.514   2.315
  686TIP3    H1 1935   2.323   3.520   2.301
  686TIP3    H2 1936   2.454   3.589   2.268
  687TIP3   OH2 1937   2.356   3.264   1.300
  687TIP3    H1 1938   2.450   3.259   1.282
  687TIP3    H2 1939   2.329   3.345   1.257
  688TIP3   OH2 1940   2.158   3.654   1.720
  688TIP3    H1 1941   2.077   3.689   1.756
  688TIP3    H2 1942   2.137   3.630   1.630
  689TIP3   OH2 1943   2.403   3.186   2.043
  689TIP3    H1 1944   2.469   3.117   2.043
  689TIP3    H2 1945   2.445   3.258   1.995
  690TIP3   OH2 1946   2.569   2.967   2.062
  690TIP3    H1 1947   2.497   2.927   2.111
  690TIP3    H2 1948   2.643   2.910   2.078
  691TIP3   OH2 1949   2.266   2.533   1.577
  691TIP3    H1 1950   2.283   2.494   1.491
  691TIP3    H2 1951   2.348   2.522   1.625
  692TIP3   OH2 1952   2.349   2.753   1.865
  692TIP3    H1 1953   2.289   2.801   1.922
  692TIP3    H2 1954   2.381   2.819   1.803
  693TIP3   OH2 1955   2.822   2.384   2.350
  693TIP3    H1 1956   2.881   2.326   2.301
  693TIP3    H2 1957   2.782   2.439   2.284
  694TIP3   OH2 1958   2.663   2.520   2.172
  694TIP3    H1 1959   2.582   2.561   2.200
  694TIP3    H2 1960   2.636   2.443   2.122
  695TIP3   OH2 1961   1.843   3.629   1.052
  695TIP3    H1 1962   1.817   3.612   0.961
  695TIP3    H2 1963   1.854   3.724   1.056
  696TIP3   OH2 1964   0.961   3.464   2.379
  696TIP3    H1 1965   0.868   3.468   2.359
  696TIP3    H2 1966   0.965   3.461   2.475
  697TIP3   OH2 1967   1.080   3.539   1.956
  697TIP3    H1 1968   1.055   3.629   1.936
  697TIP3    H2 1969   1.168   3.530   1.921
  698TIP3   OH2 1970   1.562   3.791   2.066
  698TIP3    H1 1971   1.596   3.771   2.153
  698TIP3    H2 1972   1.626   3.852   2.028
  699TIP3   OH2 1973   1.753   3.950   1.951
  699TIP3    H1 1974   1.815   3.889   1.912
  699TIP3    H2 1975   1.807   4.006   2.008
  700TIP3   OH2 1976   2.570   2.277   2.078
  700TIP3    H1 1977   2.486   2.280   2.033
  700TIP3    H2 1978   2.599   2.186   2.070
  701TIP3   OH2 1979   0.809   3.791   1.974
  701TIP3    H1 1980   0.714   3.786   1.963
  701TIP3    H2 1981   0.822   3.852   2.046
  702TIP3   OH2 1982   1.063   3.802   1.879
  702TIP3    H1 1983   0.971   3.806   1.904
  702TIP3    H2 1984   1.063   3.823   1.786
  703TIP3   OH2 1985   1.538   3.881   1.535
  703TIP3    H1 1986   1.453   3.858   1.497
  703TIP3    H2 1987   1.516   3.943   1.605
  704TIP3   OH2 1988   1.755   3.725   1.609
  704TIP3    H1 1989   1.678   3.778   1.585
  704TIP3    H2 1990   1.811   3.730   1.532
  705TIP3   OH2 1991   1.934   4.002   1.642
  705TIP3    H1 1992   1.857   4.058   1.635
  705TIP3    H2 1993   1.949   3.970   1.553
  706TIP3   OH2 1994   1.205   3.556   1.442
  706TIP3    H1 1995   1.202   3.508   1.359
  706TIP3    H2 1996   1.131   3.521   1.492
  707TIP3   OH2 1997   2.015   3.674   0.579
  707TIP3    H1 1998   1.935   3.648   0.624
  707TIP3    H2 1999   1.988   3.747   0.523
  708TIP3   OH2 2000   1.486   2.201   2.655
  708TIP3    H1 2001   1.549   2.161   2.594
  708TIP3    H2 2002   1.457   2.128   2.710
  709TIP3   OH2 2003   2.321   2.270   2.460
  709TIP3    H1 2004   2.329   2.237   2.550
  709TIP3    H2 2005   2.410   2.265   2.425
  710TIP3   OH2 2006   2.236   3.791   1.986
  710TIP3    H1 2007   2.164   3.753   1.936
  710TIP3    H2 2008   2.221   3.886   1.979
  711TIP3   OH2 2009   3.581   3.205   0.690
  711TIP3    H1 2010   3.556   3.297   0.681
  711TIP3    H2 2011   3.529   3.173   0.764
  712TIP3   OH2 2012   3.561   3.218   1.122
  712TIP3    H1 2013   3.583   3.160   1.195
  712TIP3    H2 2014   3.511   3.163   1.061
  713TIP3   OH2 2015   2.859   3.123   1.436
  713TIP3    H1 2016   2.876   3.155   1.525
  713TIP3    H2 2017   2.942   3.084   1.408
  714TIP3   OH2 2018   3.786   3.495   0.758
  714TIP3    H1 2019   3.776   3.422   0.820
  714TIP3    H2 2020   3.801   3.572   0.814
  715TIP3   OH2 2021   2.558   2.956   1.161
  715TIP3    H1 2022   2.466   2.935   1.178
  715TIP3    H2 2023   2.561   2.973   1.066
  716TIP3   OH2 2024   3.463   3.890   0.818
  716TIP3    H1 2025   3.505   3.833   0.754
  716TIP3    H2 2026   3.468   3.841   0.900
  717TIP3   OH2 2027   3.281   3.400   1.115
  717TIP3    H1 2028   3.309   3.333   1.053
  717TIP3    H2 2029   3.363   3.443   1.141
  718TIP3   OH2 2030   4.342   2.710   1.152
  718TIP3    H1 2031   4.366   2.791   1.196
  718TIP3    H2 2032   4.352   2.729   1.059
  719TIP3   OH2 2033   3.813   2.888   1.195
  719TIP3    H1 2034   3.838   2.796   1.202
  719TIP3    H2 2035   3.783   2.898   1.105
  720TIP3   OH2 2036   3.090   2.506   1.034
  720TIP3    H1 2037   3.066   2.575   0.973
  720TIP3    H2 2038   3.031   2.433   1.013
  721TIP3   OH2 2039   3.759   2.644   0.780
  721TIP3    H1 2040   3.822   2.678   0.844
  721TIP3    H2 2041   3.679   2.695   0.795
  722TIP3   OH2 2042   2.591   2.683   1.204
  722TIP3    H1 2043   2.601   2.778   1.214
  722TIP3    H2 2044   2.597   2.668   1.109
  723TIP3   OH2 2045   3.144   2.981   1.045
  723TIP3    H1 2046   3.212   3.023   0.993
  723TIP3    H2 2047   3.116   2.906   0.992
  724TIP3   OH2 2048   4.408   2.928   1.301
  724TIP3    H1 2049   4.321   2.967   1.301
  724TIP3    H2 2050   4.452   2.968   1.377
  725TIP3   OH2 2051   3.470   3.440   0.602
  725TIP3    H1 2052   3.416   3.382   0.548
  725TIP3    H2 2053   3.416   3.518   0.613
  726TIP3   OH2 2054   3.169   3.311   1.350
  726TIP3    H1 2055   3.104   3.378   1.374
  726TIP3    H2 2056   3.210   3.345   1.270
  727TIP3   OH2 2057   3.975   2.695   0.945
  727TIP3    H1 2058   3.953   2.641   1.021
  727TIP3    H2 2059   4.022   2.770   0.981
  728TIP3   OH2 2060   2.988   3.520   1.410
  728TIP3    H1 2061   2.979   3.615   1.403
  728TIP3    H2 2062   2.916   3.494   1.468
  729TIP3   OH2 2063   2.261   3.116   0.615
  729TIP3    H1 2064   2.193   3.076   0.561
  729TIP3    H2 2065   2.316   3.164   0.553
  730TIP3   OH2 2066   3.797   3.728   0.916
  730TIP3    H1 2067   3.709   3.717   0.950
  730TIP3    H2 2068   3.795   3.813   0.871
  731TIP3   OH2 2069   4.139   2.596   1.306
  731TIP3    H1 2070   4.054   2.608   1.264
  731TIP3    H2 2071   4.202   2.631   1.244
  732TIP3   OH2 2072   3.482   2.293   1.296
  732TIP3    H1 2073   3.459   2.215   1.246
  732TIP3    H2 2074   3.461   2.270   1.387
  733TIP3   OH2 2075   3.568   3.743   0.610
  733TIP3    H1 2076   3.608   3.659   0.587
  733TIP3    H2 2077   3.631   3.808   0.581
  734TIP3   OH2 2078   3.733   3.551   0.494
  734TIP3    H1 2079   3.719   3.465   0.453
  734TIP3    H2 2080   3.759   3.530   0.584
  735TIP3   OH2 2081   4.029   3.621   1.262
  735TIP3    H1 2082   4.016   3.543   1.208
  735TIP3    H2 2083   4.011   3.694   1.203
  736TIP3   OH2 2084   3.338   3.027   0.592
  736TIP3    H1 2085   3.349   3.031   0.687
  736TIP3    H2 2086   3.337   3.119   0.565
  737TIP3   OH2 2087   3.314   2.846   0.253
  737TIP3    H1 2088   3.388   2.898   0.284
  737TIP3    H2 2089   3.315   2.767   0.307
  738TIP3   OH2 2090   4.209   3.264   1.142
  738TIP3    H1 2091   4.130   3.316   1.132
  738TIP3    H2 2092   4.251   3.267   1.056
  739TIP3   OH2 2093   3.708   3.070   0.498
  739TIP3    H1 2094   3.655   3.111   0.567
  739TIP3    H2 2095   3.794   3.057   0.538
  740TIP3   OH2 2096   3.916   3.116   1.454
  740TIP3    H1 2097   3.914   3.202   1.495
  740TIP3    H2 2098   3.835   3.112   1.403
  741TIP3   OH2 2099   2.879   3.045   1.001
  741TIP3    H1 2100   2.862   3.053   0.907
  741TIP3    H2 2101   2.970   3.016   1.006
  742TIP3   OH2 2102   3.025   3.508   1.120
  742TIP3    H1 2103   3.115   3.481   1.101
  742TIP3    H2 2104   3.029   3.539   1.211
  743TIP3   OH2 2105   3.090   3.050   1.309
  743TIP3    H1 2106   3.108   3.022   1.219
  743TIP3    H2 2107   3.128   3.138   1.315
  744TIP3   OH2 2108   3.553   3.714   1.041
  744TIP3    H1 2109   3.547   3.789   1.100
  744TIP3    H2 2110   3.545   3.638   1.098
  745TIP3   OH2 2111   3.190   3.599   1.596
  745TIP3    H1 2112   3.129   3.655   1.644
  745TIP3    H2 2113   3.134   3.549   1.537
  746TIP3   OH2 2114   3.492   3.038   0.320
  746TIP3    H1 2115   3.556   3.053   0.389
  746TIP3    H2 2116   3.529   3.082   0.243
  747TIP3   OH2 2117   2.928   3.195   1.697
  747TIP3    H1 2118   2.944   3.282   1.735
  747TIP3    H2 2119   2.846   3.167   1.739
  748TIP3   OH2 2120   3.306   3.665   0.634
  748TIP3    H1 2121   3.395   3.700   0.637
  748TIP3    H2 2122   3.253   3.738   0.600
  749TIP3   OH2 2123   2.982   3.762   1.679
  749TIP3    H1 2124   2.958   3.781   1.588
  749TIP3    H2 2125   2.898   3.752   1.724
  750TIP3   OH2 2126   4.022   2.183   0.380
  750TIP3    H1 2127   3.986   2.256   0.429
  750TIP3    H2 2128   4.040   2.219   0.293
  751TIP3   OH2 2129   2.587   2.987   0.885
  751TIP3    H1 2130   2.520   2.948   0.828
  751TIP3    H2 2131   2.649   2.915   0.901
  752TIP3   OH2 2132   7.121   8.265   7.919
  752TIP3    H1 2133   7.151   8.355   7.910
  752TIP3    H2 2134   7.201   8.213   7.927
  753TIP3   OH2 2135   2.597   3.332   1.648
  753TIP3    H1 2136   2.512   3.339   1.605
  753TIP3    H2 2137   2.603   3.240   1.675
  754TIP3   OH2 2138   2.591   3.534   1.287
  754TIP3    H1 2139   2.613   3.596   1.357
  754TIP3    H2 2140   2.496   3.533   1.285
  755TIP3   OH2 2141   4.284   3.922   1.407
  755TIP3    H1 2142   4.290   3.826   1.400
  755TIP3    H2 2143   4.290   3.940   1.500
  756TIP3   OH2 2144   3.373   3.751   1.458
  756TIP3    H1 2145   3.360   3.841   1.486
  756TIP3    H2 2146   3.309   3.701   1.508
  757TIP3   OH2 2147   3.220   3.896   0.501
  757TIP3    H1 2148   3.139   3.870   0.456
  757TIP3    H2 2149   3.203   3.985   0.532
  758TIP3   OH2 2150   2.698   3.647   0.741
  758TIP3    H1 2151   2.658   3.707   0.803
  758TIP3    H2 2152   2.626   3.592   0.710
  759TIP3   OH2 2153   3.423   3.776   0.114
  759TIP3    H1 2154   3.501   3.737   0.076
  759TIP3    H2 2155   3.452   3.807   0.200
  760TIP3   OH2 2156   3.454   3.872   0.363
  760TIP3    H1 2157   3.372   3.869   0.411
  760TIP3    H2 2158   3.520   3.843   0.426
  761TIP3   OH2 2159   4.150   3.066   1.611
  761TIP3    H1 2160   4.074   3.079   1.555
  761TIP3    H2 2161   4.170   2.972   1.603
  762TIP3   OH2 2162   2.792   3.517   1.605
  762TIP3    H1 2163   2.842   3.509   1.687
  762TIP3    H2 2164   2.721   3.454   1.614
  763TIP3   OH2 2165   3.235   2.339   1.500
  763TIP3    H1 2166   3.202   2.347   1.410
  763TIP3    H2 2167   3.209   2.421   1.542
  764TIP3   OH2 2168   3.686   2.478   1.661
  764TIP3    H1 2169   3.758   2.447   1.716
  764TIP3    H2 2170   3.643   2.546   1.712
  765TIP3   OH2 2171   3.890   2.856   1.566
  765TIP3    H1 2172   3.855   2.877   1.653
  765TIP3    H2 2173   3.888   2.939   1.519
  766TIP3   OH2 2174   3.574   3.089   0.047
  766TIP3    H1 2175   3.559   2.997   0.026
  766TIP3    H2 2176   3.657   3.090   0.094
  767TIP3   OH2 2177   3.183   2.884   1.502
  767TIP3    H1 2178   3.108   2.890   1.562
  767TIP3    H2 2179   3.163   2.947   1.433
  768TIP3   OH2 2180   3.511   2.771   0.766
  768TIP3    H1 2181   3.471   2.840   0.819
  768TIP3    H2 2182   3.505   2.804   0.676
  769TIP3   OH2 2183   3.627   3.030   1.790
  769TIP3    H1 2184   3.603   2.940   1.814
  769TIP3    H2 2185   3.718   3.038   1.816
  770TIP3   OH2 2186   3.696   2.915   0.946
  770TIP3    H1 2187   3.623   2.969   0.916
  770TIP3    H2 2188   3.654   2.836   0.980
  771TIP3   OH2 2189   2.962   2.886   1.671
  771TIP3    H1 2190   2.993   2.959   1.724
  771TIP3    H2 2191   2.868   2.881   1.689
  772TIP3   OH2 2192   3.661   3.060   1.337
  772TIP3    H1 2193   3.712   3.000   1.282
  772TIP3    H2 2194   3.619   3.004   1.401
  773TIP3   OH2 2195   3.315   2.669   0.983
  773TIP3    H1 2196   3.247   2.723   0.943
  773TIP3    H2 2197   3.274   2.630   1.060
  774TIP3   OH2 2198   2.721   2.743   0.926
  774TIP3    H1 2199   2.725   2.649   0.944
  774TIP3    H2 2200   2.806   2.763   0.886
  775TIP3   OH2 2201   3.875   2.609   1.206
  775TIP3    H1 2202   3.835   2.618   1.292
  775TIP3    H2 2203   3.822   2.543   1.161
  776TIP3   OH2 2204   2.935   3.436   1.835
  776TIP3    H1 2205   3.014   3.454   1.887
  776TIP3    H2 2206   2.865   3.427   1.900
  777TIP3   OH2 2207   3.412   2.912   1.186
  777TIP3    H1 2208   3.400   2.956   1.102
  777TIP3    H2 2209   3.479   2.845   1.168
  778TIP3   OH2 2210   3.383   2.714   1.438
  778TIP3    H1 2211   3.322   2.786   1.451
  778TIP3    H2 2212   3.470   2.755   1.444
  779TIP3   OH2 2213   2.979   3.183   0.519
  779TIP3    H1 2214   2.971   3.098   0.563
  779TIP3    H2 2215   3.057   3.174   0.465
  780TIP3   OH2 2216   3.992   3.422   1.082
  780TIP3    H1 2217   4.034   3.467   1.009
  780TIP3    H2 2218   3.913   3.383   1.044
  781TIP3   OH2 2219   3.437   2.531   0.351
  781TIP3    H1 2220   3.409   2.456   0.297
  781TIP3    H2 2221   3.521   2.557   0.314
  782TIP3   OH2 2222   3.514   3.489   1.485
  782TIP3    H1 2223   3.561   3.466   1.565
  782TIP3    H2 2224   3.470   3.572   1.505
  783TIP3   OH2 2225   3.620   2.749   0.257
  783TIP3    H1 2226   3.684   2.702   0.310
  783TIP3    H2 2227   3.563   2.792   0.320
  784TIP3   OH2 2228   2.905   3.239   1.185
  784TIP3    H1 2229   2.898   3.160   1.132
  784TIP3    H2 2230   2.898   3.207   1.275
  785TIP3   OH2 2231   3.258   3.234   0.191
  785TIP3    H1 2232   3.243   3.317   0.236
  785TIP3    H2 2233   3.228   3.168   0.253
  786TIP3   OH2 2234   2.693   3.127   1.832
  786TIP3    H1 2235   2.751   3.108   1.906
  786TIP3    H2 2236   2.618   3.069   1.844
  787TIP3   OH2 2237   3.422   3.226   1.813
  787TIP3    H1 2238   3.346   3.177   1.781
  787TIP3    H2 2239   3.497   3.170   1.793
  788TIP3   OH2 2240   3.643   3.783   1.384
  788TIP3    H1 2241   3.549   3.765   1.391
  788TIP3    H2 2242   3.669   3.813   1.471
  789TIP3   OH2 2243   4.070   2.845   0.274
  789TIP3    H1 2244   4.011   2.820   0.203
  789TIP3    H2 2245   4.098   2.933   0.252
  790TIP3   OH2 2246   4.282   3.651   1.354
  790TIP3    H1 2247   4.188   3.644   1.337
  790TIP3    H2 2248   4.323   3.628   1.270
  791TIP3   OH2 2249   3.706   3.675   0.243
  791TIP3    H1 2250   3.716   3.644   0.333
  791TIP3    H2 2251   3.724   3.597   0.189
  792TIP3   OH2 2252   3.778   3.299   0.962
  792TIP3    H1 2253   3.701   3.272   1.011
  792TIP3    H2 2254   3.820   3.218   0.935
  793TIP3   OH2 2255   3.098   3.173   0.807
  793TIP3    H1 2256   3.157   3.242   0.778
  793TIP3    H2 2257   3.094   3.113   0.733
  794TIP3   OH2 2258   3.200   3.799   1.236
  794TIP3    H1 2259   3.231   3.879   1.193
  794TIP3    H2 2260   3.273   3.772   1.291
  795TIP3   OH2 2261   2.765   3.862   0.574
  795TIP3    H1 2262   2.744   3.784   0.625
  795TIP3    H2 2263   2.853   3.887   0.602
  796TIP3   OH2 2264   3.528   3.485   1.207
  796TIP3    H1 2265   3.533   3.484   1.303
  796TIP3    H2 2266   3.561   3.399   1.180
  797TIP3   OH2 2267   3.477   3.357   0.069
  797TIP3    H1 2268   3.571   3.371   0.084
  797TIP3    H2 2269   3.434   3.406   0.138
  798TIP3   OH2 2270   3.787   3.992   1.264
  798TIP3    H1 2271   3.723   3.924   1.286
  798TIP3    H2 2272   3.749   4.039   1.191
  799TIP3   OH2 2273   7.180   8.529   7.905
  799TIP3    H1 2274   7.234   8.608   7.908
  799TIP3    H2 2275   7.091   8.560   7.921
  800TIP3   OH2 2276   3.742   3.309   0.359
  800TIP3    H1 2277   3.718   3.234   0.413
  800TIP3    H2 2278   3.836   3.301   0.347
  801TIP3   OH2 2279   2.654   3.729   1.469
  801TIP3    H1 2280   2.702   3.672   1.529
  801TIP3    H2 2281   2.658   3.816   1.509
  802TIP3   OH2 2282   2.912   3.336   0.085
  802TIP3    H1 2283   2.935   3.243   0.079
  802TIP3    H2 2284   2.880   3.346   0.175
  803TIP3   OH2 2285   2.840   3.339   0.350
  803TIP3    H1 2286   2.880   3.288   0.420
  803TIP3    H2 2287   2.853   3.430   0.374
  804TIP3   OH2 2288   3.757   2.641   1.447
  804TIP3    H1 2289   3.795   2.718   1.490
  804TIP3    H2 2290   3.727   2.586   1.519
  805TIP3   OH2 2291   3.585   2.458   0.571
  805TIP3    H1 2292   3.513   2.484   0.513
  805TIP3    H2 2293   3.647   2.531   0.566
  806TIP3   OH2 2294   3.124   3.458   0.366
  806TIP3    H1 2295   3.047   3.513   0.381
  806TIP3    H2 2296   3.189   3.517   0.328
  807TIP3   OH2 2297   3.341   2.561   0.716
  807TIP3    H1 2298   3.408   2.627   0.736
  807TIP3    H2 2299   3.276   2.570   0.786
  808TIP3   OH2 2300   3.570   2.904   1.548
  808TIP3    H1 2301   3.576   2.979   1.608
  808TIP3    H2 2302   3.567   2.827   1.606
  809TIP3   OH2 2303   3.554   2.425   0.880
  809TIP3    H1 2304   3.460   2.426   0.895
  809TIP3    H2 2305   3.565   2.460   0.792
  810TIP3   OH2 2306   2.892   3.597   0.435
  810TIP3    H1 2307   2.909   3.690   0.421
  810TIP3    H2 2308   2.908   3.583   0.528
  811TIP3   OH2 2309   4.156   2.792   1.523
  811TIP3    H1 2310   4.063   2.797   1.542
  811TIP3    H2 2311   4.162   2.735   1.446
  812TIP3   OH2 2312   3.917   3.061   0.903
  812TIP3    H1 2313   3.840   3.004   0.916
  812TIP3    H2 2314   3.986   3.020   0.955
  813TIP3   OH2 2315   2.584   3.347   0.247
  813TIP3    H1 2316   2.618   3.432   0.219
  813TIP3    H2 2317   2.652   3.312   0.305
  814TIP3   OH2 2318   3.823   3.992   0.832
  814TIP3    H1 2319   3.778   4.043   0.764
  814TIP3    H2 2320   3.916   4.010   0.818
  815TIP3   OH2 2321   2.800   2.199   1.357
  815TIP3    H1 2322   2.820   2.163   1.270
  815TIP3    H2 2323   2.806   2.123   1.415
  816TIP3   OH2 2324   2.446   3.518   0.707
  816TIP3    H1 2325   2.380   3.546   0.770
  816TIP3    H2 2326   2.398   3.509   0.625
  817TIP3   OH2 2327   2.632   4.025   1.848
  817TIP3    H1 2328   2.710   4.038   1.903
  817TIP3    H2 2329   2.629   3.930   1.833
  818TIP3   OH2 2330   3.090   3.934   1.868
  818TIP3    H1 2331   3.179   3.903   1.882
  818TIP3    H2 2332   3.055   3.876   1.800
  819TIP3   OH2 2333   3.110   3.520   0.044
  819TIP3    H1 2334   3.044   3.455   0.068
  819TIP3    H2 2335   3.124   3.508  -0.050
  820TIP3   OH2 2336   3.724   3.870   1.634
  820TIP3    H1 2337   3.731   3.798   1.697
  820TIP3    H2 2338   3.804   3.920   1.644
  821TIP3   OH2 2339   6.764   8.202   7.915
  821TIP3    H1 2340   6.740   8.117   7.952
  821TIP3    H2 2341   6.680   8.243   7.893
  822TIP3   OH2 2342   2.736   3.394   2.021
  822TIP3    H1 2343   2.745   3.303   2.048
  822TIP3    H2 2344   2.650   3.400   1.982
  823TIP3   OH2 2345   3.342   3.500   1.809
  823TIP3    H1 2346   3.300   3.515   1.724
  823TIP3    H2 2347   3.384   3.415   1.800
  824TIP3   OH2 2348   6.423   7.864   7.932
  824TIP3    H1 2349   6.411   7.855   8.027
  824TIP3    H2 2350   6.384   7.785   7.895
  825TIP3   OH2 2351   3.822   3.563   1.435
  825TIP3    H1 2352   3.895   3.587   1.378
  825TIP3    H2 2353   3.750   3.620   1.408
  826TIP3   OH2 2354   2.892   3.100   2.020
  826TIP3    H1 2355   2.971   3.047   2.006
  826TIP3    H2 2356   2.911   3.153   2.097
  827TIP3   OH2 2357   3.031   2.930   0.612
  827TIP3    H1 2358   3.037   2.885   0.696
  827TIP3    H2 2359   3.012   2.860   0.549
  828TIP3   OH2 2360   3.196   3.087   1.717
  828TIP3    H1 2361   3.115   3.138   1.707
  828TIP3    H2 2362   3.242   3.099   1.634
  829TIP3   OH2 2363   3.698   3.420   1.765
  829TIP3    H1 2364   3.769   3.386   1.711
  829TIP3    H2 2365   3.695   3.360   1.840
  830TIP3   OH2 2366   7.140   7.608   7.920
  830TIP3    H1 2367   7.064   7.586   7.867
  830TIP3    H2 2368   7.141   7.704   7.921
  831TIP3   OH2 2369   3.252   2.817   1.801
  831TIP3    H1 2370   3.345   2.794   1.803
  831TIP3    H2 2371   3.248   2.899   1.752
  832TIP3   OH2 2372   3.180   2.618   1.611
  832TIP3    H1 2373   3.251   2.640   1.551
  832TIP3    H2 2374   3.196   2.673   1.688
  833TIP3   OH2 2375   3.342   3.152   1.497
  833TIP3    H1 2376   3.410   3.120   1.439
  833TIP3    H2 2377   3.296   3.220   1.446
  834TIP3   OH2 2378   3.906   3.042   1.851
  834TIP3    H1 2379   3.949   2.961   1.877
  834TIP3    H2 2380   3.975   3.096   1.813
  835TIP3   OH2 2381   3.939   3.367   1.580
  835TIP3    H1 2382   3.888   3.434   1.534
  835TIP3    H2 2383   4.028   3.378   1.548
  836TIP3   OH2 2384   3.120   2.936   2.019
  836TIP3    H1 2385   3.086   2.857   2.061
  836TIP3    H2 2386   3.163   2.905   1.940
  837TIP3   OH2 2387   3.383   2.450   1.784
  837TIP3    H1 2388   3.420   2.538   1.786
  837TIP3    H2 2389   3.288   2.463   1.781
  838TIP3   OH2 2390   4.055   2.800   1.921
  838TIP3    H1 2391   4.053   2.704   1.917
  838TIP3    H2 2392   4.042   2.820   2.014
  839TIP3   OH2 2393   3.029   2.697   2.126
  839TIP3    H1 2394   3.031   2.609   2.090
  839TIP3    H2 2395   3.067   2.689   2.213
  840TIP3   OH2 2396   3.509   2.349   2.004
  840TIP3    H1 2397   3.577   2.287   1.975
  840TIP3    H2 2398   3.464   2.375   1.924
  841TIP3   OH2 2399   3.578   2.577   2.149
  841TIP3    H1 2400   3.564   2.509   2.084
  841TIP3    H2 2401   3.510   2.642   2.132
  842TIP3   OH2 2402   2.781   3.830   0.178
  842TIP3    H1 2403   2.850   3.882   0.136
  842TIP3    H2 2404   2.699   3.866   0.144
  843TIP3   OH2 2405   2.258   3.958   0.928
  843TIP3    H1 2406   2.235   3.929   0.840
  843TIP3    H2 2407   2.284   3.878   0.973
  844TIP3   OH2 2408   2.350   3.785   1.107
  844TIP3    H1 2409   2.346   3.693   1.083
  844TIP3    H2 2410   2.433   3.795   1.153
  845TIP3   OH2 2411   4.082   4.077   0.803
  845TIP3    H1 2412   4.097   4.163   0.841
  845TIP3    H2 2413   4.152   4.066   0.739
  846TIP3   OH2 2414   4.178   4.007   1.109
  846TIP3    H1 2415   4.106   3.952   1.078
  846TIP3    H2 2416   4.241   4.007   1.037
  847TIP3   OH2 2417   4.176   3.767   1.675
  847TIP3    H1 2418   4.100   3.770   1.734
  847TIP3    H2 2419   4.217   3.853   1.685
  848TIP3   OH2 2420   4.007   3.294   0.305
  848TIP3    H1 2421   4.060   3.365   0.269
  848TIP3    H2 2422   4.064   3.251   0.368
  849TIP3   OH2 2423   4.153   3.138   0.479
  849TIP3    H1 2424   4.081   3.111   0.536
  849TIP3    H2 2425   4.217   3.177   0.538
  850TIP3   OH2 2426   4.164   3.544   0.907
  850TIP3    H1 2427   4.214   3.467   0.879
  850TIP3    H2 2428   4.187   3.611   0.843
  851TIP3   OH2 2429   3.964   3.837   1.106
  851TIP3    H1 2430   3.894   3.883   1.153
  851TIP3    H2 2431   3.920   3.793   1.034
  852TIP3   OH2 2432   4.064   3.082   0.136
  852TIP3    H1 2433   3.995   3.073   0.070
  852TIP3    H2 2434   4.036   3.156   0.190
  853TIP3   OH2 2435   3.880   2.779   0.085
  853TIP3    H1 2436   3.889   2.863   0.041
  853TIP3    H2 2437   3.836   2.722   0.021
  854TIP3   OH2 2438   3.945   3.037   0.631
  854TIP3    H1 2439   3.955   2.942   0.624
  854TIP3    H2 2440   3.938   3.055   0.725
  855TIP3   OH2 2441   2.622   3.185   1.289
  855TIP3    H1 2442   2.610   3.098   1.250
  855TIP3    H2 2443   2.696   3.174   1.349
  856TIP3   OH2 2444   4.198   3.407   1.488
  856TIP3    H1 2445   4.258   3.333   1.476
  856TIP3    H2 2446   4.229   3.472   1.425
  857TIP3   OH2 2447   4.364   3.191   1.486
  857TIP3    H1 2448   4.294   3.143   1.530
  857TIP3    H2 2449   4.443   3.142   1.507
  858TIP3   OH2 2450   3.853   2.417   0.032
  858TIP3    H1 2451   3.923   2.372   0.078
  858TIP3    H2 2452   3.781   2.420   0.095
  859TIP3   OH2 2453   3.980   2.779   0.532
  859TIP3    H1 2454   4.037   2.725   0.586
  859TIP3    H2 2455   4.036   2.811   0.461
  860TIP3   OH2 2456   4.101   2.912   1.047
  860TIP3    H1 2457   4.187   2.935   1.010
  860TIP3    H2 2458   4.106   2.941   1.138
  861TIP3   OH2 2459   4.147   3.041   1.287
  861TIP3    H1 2460   4.067   3.064   1.333
  861TIP3    H2 2461   4.173   3.121   1.242
  862TIP3   OH2 2462   2.764   2.770   2.102
  862TIP3    H1 2463   2.858   2.756   2.100
  862TIP3    H2 2464   2.729   2.690   2.142
  863TIP3   OH2 2465   4.604   2.631   1.798
  863TIP3    H1 2466   4.668   2.573   1.755
  863TIP3    H2 2467   4.568   2.684   1.727
  864TIP3   OH2 2468   4.080   2.586   0.711
  864TIP3    H1 2469   4.084   2.636   0.792
  864TIP3    H2 2470   3.992   2.546   0.711
  865TIP3   OH2 2471   2.717   2.495   1.373
  865TIP3    H1 2472   2.688   2.410   1.341
  865TIP3    H2 2473   2.678   2.558   1.312
  866TIP3   OH2 2474   2.525   2.705   1.472
  866TIP3    H1 2475   2.510   2.666   1.386
  866TIP3    H2 2476   2.590   2.774   1.456
  867TIP3   OH2 2477   4.449   2.757   1.611
  867TIP3    H1 2478   4.378   2.797   1.660
  867TIP3    H2 2479   4.406   2.692   1.555
  868TIP3   OH2 2480   4.075   2.329   0.156
  868TIP3    H1 2481   4.139   2.284   0.101
  868TIP3    H2 2482   4.093   2.422   0.143
  869TIP3   OH2 2483   3.707   3.938   0.489
  869TIP3    H1 2484   3.747   3.950   0.403
  869TIP3    H2 2485   3.723   4.020   0.535
  870TIP3   OH2 2486   2.639   2.256   1.805
  870TIP3    H1 2487   2.620   2.275   1.897
  870TIP3    H2 2488   2.717   2.308   1.785
  871TIP3   OH2 2489   2.748   3.749   1.834
  871TIP3    H1 2490   2.657   3.722   1.842
  871TIP3    H2 2491   2.785   3.737   1.921
  872TIP3   OH2 2492   2.976   3.792   1.394
  872TIP3    H1 2493   2.924   3.868   1.367
  872TIP3    H2 2494   3.058   3.799   1.345
  873TIP3   OH2 2495   3.352   4.015   1.539
  873TIP3    H1 2496   3.393   4.004   1.625
  873TIP3    H2 2497   3.414   4.070   1.490
  874TIP3   OH2 2498   3.543   4.171   1.414
  874TIP3    H1 2499   3.604   4.122   1.358
  874TIP3    H2 2500   3.600   4.225   1.469
  875TIP3   OH2 2501   4.364   2.512   1.500
  875TIP3    H1 2502   4.279   2.504   1.457
  875TIP3    H2 2503   4.401   2.423   1.496
  876TIP3   OH2 2504   2.632   4.026   1.468
  876TIP3    H1 2505   2.540   4.045   1.451
  876TIP3    H2 2506   2.660   4.093   1.529
  877TIP3   OH2 2507   2.852   4.017   1.298
  877TIP3    H1 2508   2.771   4.022   1.348
  877TIP3    H2 2509   2.827   4.045   1.210
  878TIP3   OH2 2510   3.261   4.034   1.101
  878TIP3    H1 2511   3.190   4.051   1.039
  878TIP3    H2 2512   3.276   4.119   1.144
  879TIP3   OH2 2513   3.526   3.973   1.137
  879TIP3    H1 2514   3.434   3.992   1.119
  879TIP3    H2 2515   3.574   4.039   1.087
  880TIP3   OH2 2516   3.722   4.145   1.037
  880TIP3    H1 2517   3.741   4.235   1.011
  880TIP3    H2 2518   3.755   4.091   0.965
  881TIP3   OH2 2519   2.597   3.842   1.213
  881TIP3    H1 2520   2.599   3.817   1.306
  881TIP3    H2 2521   2.680   3.809   1.178
  882TIP3   OH2 2522   3.020   3.806   1.021
  882TIP3    H1 2523   3.019   3.721   0.978
  882TIP3    H2 2524   3.077   3.795   1.096
  883TIP3   OH2 2525   3.641   2.459   1.141
  883TIP3    H1 2526   3.585   2.400   1.192
  883TIP3    H2 2527   3.612   2.446   1.050
  884TIP3   OH2 2528   4.139   2.333   1.048
  884TIP3    H1 2529   4.194   2.407   1.023
  884TIP3    H2 2530   4.049   2.366   1.043
  885TIP3   OH2 2531   4.288   2.518   0.923
  885TIP3    H1 2532   4.351   2.468   0.871
  885TIP3    H2 2533   4.285   2.604   0.881
  886TIP3   OH2 2534   3.137   2.069   0.976
  886TIP3    H1 2535   3.164   2.115   0.897
  886TIP3    H2 2536   3.215   2.069   1.032
  887TIP3   OH2 2537   3.889   2.401   0.978
  887TIP3    H1 2538   3.861   2.398   0.887
  887TIP3    H2 2539   3.836   2.334   1.022
  888TIP3   OH2 2540   3.744   2.264   0.449
  888TIP3    H1 2541   3.691   2.330   0.495
  888TIP3    H2 2542   3.742   2.188   0.507
  889TIP3   OH2 2543   2.257   3.575   0.515
  889TIP3    H1 2544   2.173   3.591   0.558
  889TIP3    H2 2545   2.283   3.660   0.479
  890TIP3   OH2 2546   3.168   2.273   0.770
  890TIP3    H1 2547   3.246   2.278   0.715
  890TIP3    H2 2548   3.107   2.336   0.733
  891TIP3   OH2 2549   3.143   3.775   0.148
  891TIP3    H1 2550   3.235   3.787   0.124
  891TIP3    H2 2551   3.117   3.695   0.102
  892TIP3   OH2 2552   3.799   3.931   0.222
  892TIP3    H1 2553   3.774   3.839   0.229
  892TIP3    H2 2554   3.764   3.959   0.138
  893TIP3   OH2 2555   3.068   2.429   2.081
  893TIP3    H1 2556   3.021   2.353   2.116
  893TIP3    H2 2557   3.156   2.423   2.120
  894TIP3   OH2 2558   3.311   2.404   2.202
  894TIP3    H1 2559   3.385   2.379   2.147
  894TIP3    H2 2560   3.299   2.330   2.261
  895TIP3   OH2 2561   2.453   3.686   0.125
  895TIP3    H1 2562   2.366   3.662   0.156
  895TIP3    H2 2563   2.513   3.644   0.185
  896TIP3   OH2 2564   4.104   2.515   1.925
  896TIP3    H1 2565   4.116   2.484   2.015
  896TIP3    H2 2566   4.191   2.511   1.886
  897TIP3   OH2 2567   4.010   4.058   1.405
  897TIP3    H1 2568   3.925   4.042   1.364
  897TIP3    H2 2569   3.992   4.052   1.499
  898TIP3   OH2 2570   5.293   3.408   0.179
  898TIP3    H1 2571   5.263   3.497   0.166
  898TIP3    H2 2572   5.221   3.353   0.147
  899TIP3   OH2 2573   5.300   3.418   0.592
  899TIP3    H1 2574   5.354   3.401   0.670
  899TIP3    H2 2575   5.255   3.335   0.577
  900TIP3   OH2 2576   4.578   3.265   0.962
  900TIP3    H1 2577   4.612   3.206   1.029
  900TIP3    H2 2578   4.651   3.323   0.941
  901TIP3   OH2 2579   5.569   3.723   0.264
  901TIP3    H1 2580   5.554   3.658   0.332
  901TIP3    H2 2581   5.585   3.805   0.312
  902TIP3   OH2 2582   4.567   3.692   0.634
  902TIP3    H1 2583   4.555   3.597   0.632
  902TIP3    H2 2584   4.661   3.704   0.627
  903TIP3   OH2 2585   4.335   2.946   0.377
  903TIP3    H1 2586   4.282   3.024   0.395
  903TIP3    H2 2587   4.283   2.873   0.413
  904TIP3   OH2 2588   4.361   3.226   0.635
  904TIP3    H1 2589   4.412   3.151   0.667
  904TIP3    H2 2590   4.425   3.294   0.619
  905TIP3   OH2 2591   5.216   4.143   0.293
  905TIP3    H1 2592   5.243   4.077   0.229
  905TIP3    H2 2593   5.233   4.102   0.378
  906TIP3   OH2 2594   5.098   3.638   0.602
  906TIP3    H1 2595   5.144   3.560   0.569
  906TIP3    H2 2596   5.168   3.695   0.634
  907TIP3   OH2 2597   6.139   2.954   0.619
  907TIP3    H1 2598   6.153   3.039   0.662
  907TIP3    H2 2599   6.173   2.967   0.530
  908TIP3   OH2 2600   5.513   3.118   0.626
  908TIP3    H1 2601   5.542   3.033   0.657
  908TIP3    H2 2602   5.465   3.099   0.545
  909TIP3   OH2 2603   4.882   2.800   0.597
  909TIP3    H1 2604   4.861   2.871   0.537
  909TIP3    H2 2605   4.822   2.729   0.573
  910TIP3   OH2 2606   5.553   2.884   0.244
  910TIP3    H1 2607   5.619   2.874   0.312
  910TIP3    H2 2608   5.600   2.924   0.171
  911TIP3   OH2 2609   4.503   3.012   0.737
  911TIP3    H1 2610   4.584   3.005   0.786
  911TIP3    H2 2611   4.518   2.961   0.657
  912TIP3   OH2 2612   4.919   3.208   0.531
  912TIP3    H1 2613   5.013   3.194   0.542
  912TIP3    H2 2614   4.886   3.125   0.496
  913TIP3   OH2 2615   6.189   3.176   0.779
  913TIP3    H1 2616   6.101   3.213   0.773
  913TIP3    H2 2617   6.225   3.214   0.860
  914TIP3   OH2 2618   4.855   2.792   1.050
  914TIP3    H1 2619   4.807   2.837   0.982
  914TIP3    H2 2620   4.799   2.798   1.128
  915TIP3   OH2 2621   5.154   3.622   0.075
  915TIP3    H1 2622   5.150   3.609  -0.020
  915TIP3    H2 2623   5.114   3.708   0.090
  916TIP3   OH2 2624   4.947   3.557   0.819
  916TIP3    H1 2625   4.891   3.629   0.850
  916TIP3    H2 2626   4.997   3.595   0.747
  917TIP3   OH2 2627   5.729   2.894   0.454
  917TIP3    H1 2628   5.677   2.879   0.534
  917TIP3    H2 2629   5.779   2.974   0.473
  918TIP3   OH2 2630   4.755   2.910   0.821
  918TIP3    H1 2631   4.805   2.987   0.846
  918TIP3    H2 2632   4.805   2.873   0.748
  919TIP3   OH2 2633   4.780   3.763   0.910
  919TIP3    H1 2634   4.769   3.854   0.881
  919TIP3    H2 2635   4.699   3.742   0.956
  920TIP3   OH2 2636   4.166   3.486   0.186
  920TIP3    H1 2637   4.137   3.511   0.098
  920TIP3    H2 2638   4.193   3.568   0.226
  921TIP3   OH2 2639   5.587   3.972   0.404
  921TIP3    H1 2640   5.500   3.964   0.442
  921TIP3    H2 2641   5.586   4.058   0.360
  922TIP3   OH2 2642   5.945   2.837   0.785
  922TIP3    H1 2643   5.860   2.865   0.753
  922TIP3    H2 2644   6.007   2.867   0.719
  923TIP3   OH2 2645   5.198   2.485   0.781
  923TIP3    H1 2646   5.193   2.393   0.805
  923TIP3    H2 2647   5.121   2.524   0.822
  924TIP3   OH2 2648   5.304   4.003   0.070
  924TIP3    H1 2649   5.356   3.923   0.057
  924TIP3    H2 2650   5.363   4.074   0.046
  925TIP3   OH2 2651   5.457   3.787   0.019
  925TIP3    H1 2652   5.465   3.713  -0.041
  925TIP3    H2 2653   5.499   3.756   0.100
  926TIP3   OH2 2654   5.831   3.856   0.749
  926TIP3    H1 2655   5.816   3.781   0.692
  926TIP3    H2 2656   5.818   3.932   0.693
  927TIP3   OH2 2657   8.383   7.879   8.023
  927TIP3    H1 2658   8.303   7.932   8.012
  927TIP3    H2 2659   8.422   7.877   7.936
  928TIP3   OH2 2660   8.366   7.656   7.760
  928TIP3    H1 2661   8.440   7.714   7.776
  928TIP3    H2 2662   8.405   7.577   7.723
  929TIP3   OH2 2663   6.010   3.513   0.614
  929TIP3    H1 2664   5.927   3.561   0.615
  929TIP3    H2 2665   6.046   3.527   0.526
  930TIP3   OH2 2666   5.479   3.319   0.002
  930TIP3    H1 2667   5.424   3.351   0.074
  930TIP3    H2 2668   5.566   3.306   0.042
  931TIP3   OH2 2669   5.716   3.379   0.929
  931TIP3    H1 2670   5.711   3.463   0.976
  931TIP3    H2 2671   5.635   3.376   0.878
  932TIP3   OH2 2672   4.709   3.332   0.393
  932TIP3    H1 2673   4.673   3.268   0.331
  932TIP3    H2 2674   4.786   3.289   0.430
  933TIP3   OH2 2675   4.835   3.748   0.536
  933TIP3    H1 2676   4.814   3.736   0.443
  933TIP3    H2 2677   4.923   3.711   0.546
  934TIP3   OH2 2678   4.805   3.334   0.750
  934TIP3    H1 2679   4.848   3.299   0.672
  934TIP3    H2 2680   4.856   3.411   0.774
  935TIP3   OH2 2681   5.346   3.964   0.534
  935TIP3    H1 2682   5.340   4.044   0.586
  935TIP3    H2 2683   5.335   3.893   0.597
  936TIP3   OH2 2684   4.983   3.857   1.080
  936TIP3    H1 2685   4.920   3.913   1.125
  936TIP3    H2 2686   4.929   3.801   1.023
  937TIP3   OH2 2687   8.578   7.846   7.810
  937TIP3    H1 2688   8.635   7.885   7.877
  937TIP3    H2 2689   8.575   7.911   7.741
  938TIP3   OH2 2690   4.733   3.434   1.176
  938TIP3    H1 2691   4.738   3.523   1.210
  938TIP3    H2 2692   4.645   3.404   1.199
  939TIP3   OH2 2693   5.052   3.883   0.080
  939TIP3    H1 2694   5.138   3.924   0.088
  939TIP3    H2 2695   4.999   3.949   0.035
  940TIP3   OH2 2696   4.771   4.018   1.152
  940TIP3    H1 2697   4.750   4.030   1.059
  940TIP3    H2 2698   4.686   4.008   1.195
  941TIP3   OH2 2699   9.063   7.052   7.885
  941TIP3    H1 2700   8.996   7.081   7.946
  941TIP3    H2 2701   9.067   7.121   7.819
  942TIP3   OH2 2702   4.575   3.177   0.202
  942TIP3    H1 2703   4.521   3.246   0.165
  942TIP3    H2 2704   4.514   3.106   0.221
  943TIP3   OH2 2705   4.368   3.567   1.109
  943TIP3    H1 2706   4.301   3.540   1.046
  943TIP3    H2 2707   4.403   3.485   1.144
  944TIP3   OH2 2708   4.288   3.748   0.750
  944TIP3    H1 2709   4.373   3.723   0.713
  944TIP3    H2 2710   4.308   3.816   0.814
  945TIP3   OH2 2711   6.069   4.217   0.836
  945TIP3    H1 2712   6.069   4.122   0.846
  945TIP3    H2 2713   5.988   4.245   0.879
  946TIP3   OH2 2714   5.168   4.009   0.945
  946TIP3    H1 2715   5.158   4.099   0.977
  946TIP3    H2 2716   5.103   3.959   0.994
  947TIP3   OH2 2717   8.186   8.707   7.929
  947TIP3    H1 2718   8.102   8.667   7.909
  947TIP3    H2 2719   8.166   8.798   7.950
  948TIP3   OH2 2720   4.395   3.964   0.286
  948TIP3    H1 2721   4.440   3.958   0.370
  948TIP3    H2 2722   4.348   3.881   0.278
  949TIP3   OH2 2723   8.445   8.692   7.825
  949TIP3    H1 2724   8.353   8.698   7.852
  949TIP3    H2 2725   8.488   8.645   7.896
  950TIP3   OH2 2726   5.959   3.331   1.087
  950TIP3    H1 2727   5.874   3.346   1.045
  950TIP3    H2 2728   5.974   3.237   1.078
  951TIP3   OH2 2729   4.541   3.776   1.062
  951TIP3    H1 2730   4.596   3.767   1.139
  951TIP3    H2 2731   4.478   3.703   1.068
  952TIP3   OH2 2732   4.963   2.578   0.904
  952TIP3    H1 2733   4.878   2.546   0.875
  952TIP3    H2 2734   4.943   2.660   0.950
  953TIP3   OH2 2735   5.491   2.690   1.109
  953TIP3    H1 2736   5.559   2.671   1.173
  953TIP3    H2 2737   5.409   2.678   1.157
  954TIP3   OH2 2738   5.710   3.112   1.014
  954TIP3    H1 2739   5.670   3.101   1.100
  954TIP3    H2 2740   5.693   3.204   0.992
  955TIP3   OH2 2741   8.414   7.276   7.849
  955TIP3    H1 2742   8.358   7.253   7.923
  955TIP3    H2 2743   8.358   7.266   7.772
  956TIP3   OH2 2744   4.899   3.125   0.904
  956TIP3    H1 2745   4.904   3.157   0.994
  956TIP3    H2 2746   4.864   3.199   0.854
  957TIP3   OH2 2747   4.788   2.991   0.423
  957TIP3    H1 2748   4.701   2.967   0.455
  957TIP3    H2 2749   4.788   2.965   0.331
  958TIP3   OH2 2750   5.243   3.053   0.150
  958TIP3    H1 2751   5.194   3.126   0.113
  958TIP3    H2 2752   5.302   3.026   0.080
  959TIP3   OH2 2753   5.480   3.312   1.201
  959TIP3    H1 2754   5.433   3.269   1.272
  959TIP3    H2 2755   5.566   3.333   1.239
  960TIP3   OH2 2756   5.394   3.064   0.386
  960TIP3    H1 2757   5.332   3.090   0.318
  960TIP3    H2 2758   5.445   2.993   0.347
  961TIP3   OH2 2759   4.693   3.096   1.145
  961TIP3    H1 2760   4.773   3.139   1.173
  961TIP3    H2 2761   4.691   3.013   1.193
  962TIP3   OH2 2762   8.065   7.209   7.746
  962TIP3    H1 2763   8.040   7.281   7.805
  962TIP3    H2 2764   8.031   7.235   7.661
  963TIP3   OH2 2765   4.309   2.753   0.787
  963TIP3    H1 2766   4.399   2.761   0.819
  963TIP3    H2 2767   4.314   2.777   0.695
  964TIP3   OH2 2768   4.270   2.621   0.251
  964TIP3    H1 2769   4.334   2.686   0.222
  964TIP3    H2 2770   4.190   2.643   0.205
  965TIP3   OH2 2771   5.470   3.323   0.799
  965TIP3    H1 2772   5.493   3.255   0.736
  965TIP3    H2 2773   5.426   3.276   0.870
  966TIP3   OH2 2774   5.137   2.772   0.476
  966TIP3    H1 2775   5.060   2.780   0.533
  966TIP3    H2 2776   5.211   2.763   0.537
  967TIP3   OH2 2777   4.560   2.870   0.514
  967TIP3    H1 2778   4.481   2.878   0.460
  967TIP3    H2 2779   4.588   2.779   0.501
  968TIP3   OH2 2780   4.800   2.876   0.171
  968TIP3    H1 2781   4.896   2.879   0.175
  968TIP3    H2 2782   4.781   2.858   0.079
  969TIP3   OH2 2783   5.573   2.852   0.678
  969TIP3    H1 2784   5.564   2.866   0.772
  969TIP3    H2 2785   5.500   2.795   0.654
  970TIP3   OH2 2786   7.989   7.419   7.918
  970TIP3    H1 2787   7.894   7.426   7.919
  970TIP3    H2 2788   8.019   7.494   7.867
  971TIP3   OH2 2789   5.765   4.559   0.917
  971TIP3    H1 2790   5.759   4.570   0.822
  971TIP3    H2 2791   5.846   4.603   0.942
  972TIP3   OH2 2792   4.685   3.699   1.287
  972TIP3    H1 2793   4.769   3.722   1.327
  972TIP3    H2 2794   4.624   3.693   1.361
  973TIP3   OH2 2795   5.187   3.150   0.585
  973TIP3    H1 2796   5.251   3.102   0.532
  973TIP3    H2 2797   5.188   3.106   0.670
  974TIP3   OH2 2798   4.691   2.627   0.491
  974TIP3    H1 2799   4.665   2.545   0.532
  974TIP3    H2 2800   4.727   2.602   0.407
  975TIP3   OH2 2801   5.162   3.050   0.850
  975TIP3    H1 2802   5.076   3.089   0.868
  975TIP3    H2 2803   5.223   3.102   0.902
  976TIP3   OH2 2804   8.153   8.030   7.970
  976TIP3    H1 2805   8.087   7.963   7.953
  976TIP3    H2 2806   8.128   8.069   8.053
  977TIP3   OH2 2807   5.780   3.656   0.566
  977TIP3    H1 2808   5.817   3.706   0.494
  977TIP3    H2 2809   5.700   3.618   0.530
  978TIP3   OH2 2810   8.677   7.348   7.862
  978TIP3    H1 2811   8.587   7.319   7.846
  978TIP3    H2 2812   8.670   7.442   7.876
  979TIP3   OH2 2813   5.299   3.739   0.993
  979TIP3    H1 2814   5.353   3.723   1.071
  979TIP3    H2 2815   5.264   3.827   1.006
  980TIP3   OH2 2816   8.684   7.613   7.939
  980TIP3    H1 2817   8.776   7.622   7.964
  980TIP3    H2 2818   8.665   7.690   7.887
  981TIP3   OH2 2819   4.572   3.410   0.618
  981TIP3    H1 2820   4.610   3.392   0.532
  981TIP3    H2 2821   4.638   3.381   0.680
  982TIP3   OH2 2822   8.326   8.171   7.812
  982TIP3    H1 2823   8.284   8.257   7.803
  982TIP3    H2 2824   8.267   8.121   7.868
  983TIP3   OH2 2825   4.479   3.376   1.285
  983TIP3    H1 2826   4.530   3.385   1.365
  983TIP3    H2 2827   4.427   3.297   1.298
  984TIP3   OH2 2828   5.439   4.028   0.873
  984TIP3    H1 2829   5.345   4.016   0.874
  984TIP3    H2 2830   5.460   4.062   0.960
  985TIP3   OH2 2831   9.068   7.709   7.794
  985TIP3    H1 2832   9.038   7.658   7.718
  985TIP3    H2 2833   9.044   7.799   7.773
  986TIP3   OH2 2834   6.075   3.934   0.846
  986TIP3    H1 2835   5.980   3.922   0.835
  986TIP3    H2 2836   6.112   3.908   0.762
  987TIP3   OH2 2837   5.548   3.523   0.465
  987TIP3    H1 2838   5.459   3.502   0.494
  987TIP3    H2 2839   5.582   3.441   0.429
  988TIP3   OH2 2840   4.704   3.759   0.286
  988TIP3    H1 2841   4.708   3.835   0.229
  988TIP3    H2 2842   4.611   3.739   0.293
  989TIP3   OH2 2843   4.330   3.066   0.071
  989TIP3    H1 2844   4.348   3.160   0.066
  989TIP3    H2 2845   4.237   3.060   0.091
  990TIP3   OH2 2846   4.784   3.511   0.194
  990TIP3    H1 2847   4.774   3.601   0.226
  990TIP3    H2 2848   4.760   3.456   0.269
  991TIP3   OH2 2849   4.988   4.076   0.737
  991TIP3    H1 2850   5.025   4.149   0.688
  991TIP3    H2 2851   5.061   4.044   0.790
  992TIP3   OH2 2852   4.620   3.980   0.129
  992TIP3    H1 2853   4.534   3.983   0.172
  992TIP3    H2 2854   4.656   4.068   0.142
  993TIP3   OH2 2855   5.330   3.747   0.716
  993TIP3    H1 2856   5.317   3.743   0.811
  993TIP3    H2 2857   5.411   3.699   0.701
  994TIP3   OH2 2858   5.601   4.226   0.754
  994TIP3    H1 2859   5.532   4.164   0.776
  994TIP3    H2 2860   5.562   4.281   0.686
  995TIP3   OH2 2861   4.684   2.837   1.267
  995TIP3    H1 2862   4.591   2.852   1.278
  995TIP3    H2 2863   4.709   2.785   1.343
  996TIP3   OH2 2864   8.767   8.178   7.863
  996TIP3    H1 2865   8.751   8.099   7.915
  996TIP3    H2 2866   8.853   8.163   7.823
  997TIP3   OH2 2867   4.392   3.971   0.920
  997TIP3    H1 2868   4.451   3.911   0.966
  997TIP3    H2 2869   4.427   4.058   0.938
  998TIP3   OH2 2870   7.955   8.117   7.617
  998TIP3    H1 2871   8.045   8.125   7.585
  998TIP3    H2 2872   7.950   8.178   7.690
  999TIP3   OH2 2873   7.906   8.235   7.873
  999TIP3    H1 2874   7.976   8.197   7.925
  999TIP3    H2 2875   7.922   8.329   7.876
 1000TIP3   OH2 2876   4.377   3.335   0.090
 1000TIP3    H1 2877   4.308   3.381   0.137
 1000TIP3    H2 2878   4.389   3.386   0.009
 1001TIP3   OH2 2879   5.540   2.903   0.941
 1001TIP3    H1 2880   5.606   2.960   0.980
 1001TIP3    H2 2881   5.525   2.835   1.007
 1002TIP3   OH2 2882   5.410   2.674   0.134
 1002TIP3    H1 2883   5.405   2.695   0.040
 1002TIP3    H2 2884   5.451   2.751   0.173
 1003TIP3   OH2 2885   8.186   8.401   7.777
 1003TIP3    H1 2886   8.107   8.439   7.816
 1003TIP3    H2 2887   8.229   8.474   7.733
 1004TIP3   OH2 2888   5.069   2.853   0.219
 1004TIP3    H1 2889   5.129   2.923   0.193
 1004TIP3    H2 2890   5.090   2.836   0.311
 1005TIP3   OH2 2891   5.369   3.162   0.999
 1005TIP3    H1 2892   5.398   3.216   1.073
 1005TIP3    H2 2893   5.414   3.079   1.011
 1006TIP3   OH2 2894   5.228   2.570   0.307
 1006TIP3    H1 2895   5.204   2.648   0.358
 1006TIP3    H2 2896   5.297   2.601   0.248
 1007TIP3   OH2 2897   7.957   8.512   7.883
 1007TIP3    H1 2898   7.913   8.573   7.824
 1007TIP3    H2 2899   7.927   8.537   7.970
 1008TIP3   OH2 2900   4.765   2.606   0.229
 1008TIP3    H1 2901   4.754   2.700   0.214
 1008TIP3    H2 2902   4.844   2.584   0.180
 1009TIP3   OH2 2903   5.975   3.060   0.995
 1009TIP3    H1 2904   5.880   3.068   1.005
 1009TIP3    H2 2905   5.986   3.005   0.918
 1010TIP3   OH2 2906   5.639   3.260   0.385
 1010TIP3    H1 2907   5.559   3.213   0.409
 1010TIP3    H2 2908   5.707   3.223   0.442
 1011TIP3   OH2 2909   7.656   8.100   7.855
 1011TIP3    H1 2910   7.730   8.160   7.862
 1011TIP3    H2 2911   7.687   8.030   7.797
 1012TIP3   OH2 2912   7.715   7.479   7.946
 1012TIP3    H1 2913   7.687   7.564   7.981
 1012TIP3    H2 2914   7.633   7.430   7.936
 1013TIP3   OH2 2915   5.597   4.242   0.325
 1013TIP3    H1 2916   5.557   4.305   0.266
 1013TIP3    H2 2917   5.691   4.256   0.316
 1014TIP3   OH2 2918   4.704   2.493   0.869
 1014TIP3    H1 2919   4.675   2.461   0.783
 1014TIP3    H2 2920   4.696   2.417   0.927
 1015TIP3   OH2 2921   4.228   3.739   0.279
 1015TIP3    H1 2922   4.186   3.777   0.356
 1015TIP3    H2 2923   4.190   3.787   0.205
 1016TIP3   OH2 2924   4.876   4.173   1.354
 1016TIP3    H1 2925   4.966   4.143   1.369
 1016TIP3    H2 2926   4.846   4.122   1.278
 1017TIP3   OH2 2927   5.491   4.119   1.127
 1017TIP3    H1 2928   5.510   4.048   1.188
 1017TIP3    H2 2929   5.565   4.180   1.138
 1018TIP3   OH2 2930   4.510   3.677   1.509
 1018TIP3    H1 2931   4.555   3.593   1.520
 1018TIP3    H2 2932   4.426   3.655   1.469
 1019TIP3   OH2 2933   7.817   7.912   7.726
 1019TIP3    H1 2934   7.873   7.887   7.800
 1019TIP3    H2 2935   7.867   7.978   7.680
 1020TIP3   OH2 2936   5.137   3.778   1.298
 1020TIP3    H1 2937   5.096   3.782   1.212
 1020TIP3    H2 2938   5.180   3.692   1.301
 1021TIP3   OH2 2939   8.224   8.119   7.559
 1021TIP3    H1 2940   8.269   8.143   7.640
 1021TIP3    H2 2941   8.282   8.055   7.518
 1022TIP3   OH2 2942   5.608   3.804   0.903
 1022TIP3    H1 2943   5.686   3.830   0.854
 1022TIP3    H2 2944   5.545   3.874   0.889
 1023TIP3   OH2 2945   4.648   3.435   1.503
 1023TIP3    H1 2946   4.739   3.435   1.475
 1023TIP3    H2 2947   4.653   3.431   1.599
 1024TIP3   OH2 2948   7.971   7.827   7.941
 1024TIP3    H1 2949   7.943   7.793   8.027
 1024TIP3    H2 2950   8.011   7.752   7.898
 1025TIP3   OH2 2951   4.939   3.242   1.155
 1025TIP3    H1 2952   4.882   3.312   1.188
 1025TIP3    H2 2953   5.005   3.287   1.103
 1026TIP3   OH2 2954   8.091   7.631   7.782
 1026TIP3    H1 2955   8.068   7.603   7.693
 1026TIP3    H2 2956   8.185   7.648   7.778
 1027TIP3   OH2 2957   5.472   3.672   1.241
 1027TIP3    H1 2958   5.539   3.634   1.184
 1027TIP3    H2 2959   5.477   3.621   1.322
 1028TIP3   OH2 2960   5.112   3.060   1.299
 1028TIP3    H1 2961   5.117   2.993   1.230
 1028TIP3    H2 2962   5.054   3.127   1.263
 1029TIP3   OH2 2963   5.115   2.874   1.078
 1029TIP3    H1 2964   5.140   2.916   0.995
 1029TIP3    H2 2965   5.023   2.851   1.066
 1030TIP3   OH2 2966   5.093   3.372   0.969
 1030TIP3    H1 2967   5.183   3.406   0.974
 1030TIP3    H2 2968   5.045   3.439   0.921
 1031TIP3   OH2 2969   5.730   3.342   1.330
 1031TIP3    H1 2970   5.781   3.262   1.342
 1031TIP3    H2 2971   5.795   3.411   1.321
 1032TIP3   OH2 2972   5.734   3.625   1.065
 1032TIP3    H1 2973   5.680   3.687   1.016
 1032TIP3    H2 2974   5.823   3.640   1.034
 1033TIP3   OH2 2975   5.224   2.640   1.184
 1033TIP3    H1 2976   5.187   2.720   1.148
 1033TIP3    H2 2977   5.156   2.574   1.171
 1034TIP3   OH2 2978   5.373   3.125   1.376
 1034TIP3    H1 2979   5.370   3.120   1.472
 1034TIP3    H2 2980   5.284   3.103   1.349
 1035TIP3   OH2 2981   5.600   3.034   1.247
 1035TIP3    H1 2982   5.522   3.060   1.296
 1035TIP3    H2 2983   5.670   3.032   1.312
 1036TIP3   OH2 2984   5.836   3.041   1.406
 1036TIP3    H1 2985   5.848   2.946   1.410
 1036TIP3    H2 2986   5.826   3.068   1.497
 1037TIP3   OH2 2987   4.815   2.976   1.617
 1037TIP3    H1 2988   4.878   2.953   1.549
 1037TIP3    H2 2989   4.853   2.944   1.698
 1038TIP3   OH2 2990   5.284   2.620   1.451
 1038TIP3    H1 2991   5.353   2.554   1.447
 1038TIP3    H2 2992   5.257   2.632   1.360
 1039TIP3   OH2 2993   5.363   2.839   1.604
 1039TIP3    H1 2994   5.336   2.767   1.547
 1039TIP3    H2 2995   5.291   2.902   1.599
 1040TIP3   OH2 2996   7.850   8.708   7.727
 1040TIP3    H1 2997   7.867   8.801   7.710
 1040TIP3    H2 2998   7.764   8.691   7.688
 1041TIP3   OH2 2999   7.378   8.144   7.915
 1041TIP3    H1 3000   7.468   8.131   7.884
 1041TIP3    H2 3001   7.335   8.061   7.899
 1042TIP3   OH2 3002   4.015   4.054   0.341
 1042TIP3    H1 3003   3.951   4.006   0.289
 1042TIP3    H2 3004   4.053   3.988   0.399
 1043TIP3   OH2 3005   4.152   3.877   0.511
 1043TIP3    H1 3006   4.144   3.807   0.576
 1043TIP3    H2 3007   4.208   3.942   0.553
 1044TIP3   OH2 3008   5.857   4.315   0.308
 1044TIP3    H1 3009   5.886   4.396   0.349
 1044TIP3    H2 3010   5.927   4.293   0.246
 1045TIP3   OH2 3011   5.906   4.322   0.622
 1045TIP3    H1 3012   5.877   4.242   0.577
 1045TIP3    H2 3013   5.979   4.294   0.677
 1046TIP3   OH2 3014   5.970   4.015   1.170
 1046TIP3    H1 3015   5.896   4.026   1.230
 1046TIP3    H2 3016   6.015   4.099   1.171
 1047TIP3   OH2 3017   9.027   8.116   7.784
 1047TIP3    H1 3018   9.070   8.199   7.763
 1047TIP3    H2 3019   9.084   8.075   7.848
 1048TIP3   OH2 3020   5.922   3.377  -0.028
 1048TIP3    H1 3021   5.857   3.344   0.034
 1048TIP3    H2 3022   5.987   3.422   0.026
 1049TIP3   OH2 3023   5.971   3.790   0.409
 1049TIP3    H1 3024   6.021   3.719   0.370
 1049TIP3    H2 3025   5.992   3.867   0.356
 1050TIP3   OH2 3026   5.770   4.071   0.594
 1050TIP3    H1 3027   5.709   4.124   0.645
 1050TIP3    H2 3028   5.717   4.037   0.522
 1051TIP3   OH2 3029   5.722   3.251   0.123
 1051TIP3    H1 3030   5.720   3.156   0.112
 1051TIP3    H2 3031   5.700   3.265   0.215
 1052TIP3   OH2 3032   4.322   3.322   0.891
 1052TIP3    H1 3033   4.315   3.283   0.803
 1052TIP3    H2 3034   4.413   3.307   0.916
 1053TIP3   OH2 3035   5.993   3.668   0.971
 1053TIP3    H1 3036   6.059   3.602   0.952
 1053TIP3    H2 3037   6.012   3.739   0.910
 1054TIP3   OH2 3038   6.167   3.454   0.959
 1054TIP3    H1 3039   6.094   3.414   1.006
 1054TIP3    H2 3040   6.243   3.400   0.983
 1055TIP3   OH2 3041   8.869   7.384   7.656
 1055TIP3    H1 3042   8.947   7.330   7.673
 1055TIP3    H2 3043   8.805   7.356   7.721
 1056TIP3   OH2 3044   8.960   7.601   8.024
 1056TIP3    H1 3045   9.003   7.516   8.034
 1056TIP3    H2 3046   9.002   7.640   7.947
 1057TIP3   OH2 3047   5.854   3.136   0.523
 1057TIP3    H1 3048   5.933   3.157   0.474
 1057TIP3    H2 3049   5.867   3.176   0.609
 1058TIP3   OH2 3050   5.928   3.286   0.749
 1058TIP3    H1 3051   5.858   3.315   0.809
 1058TIP3    H2 3052   5.957   3.367   0.707
 1059TIP3   OH2 3053   4.554   2.996   1.529
 1059TIP3    H1 3054   4.645   3.002   1.557
 1059TIP3    H2 3055   4.523   2.913   1.565
 1060TIP3   OH2 3056   6.393   2.877   1.288
 1060TIP3    H1 3057   6.459   2.824   1.244
 1060TIP3    H2 3058   6.355   2.931   1.219
 1061TIP3   OH2 3059   5.807   2.735   0.064
 1061TIP3    H1 3060   5.861   2.720   0.141
 1061TIP3    H2 3061   5.747   2.660   0.062
 1062TIP3   OH2 3062   4.558   2.727   0.889
 1062TIP3    H1 3063   4.609   2.646   0.895
 1062TIP3    H2 3064   4.624   2.794   0.868
 1063TIP3   OH2 3065   4.347   3.000   0.971
 1063TIP3    H1 3066   4.385   2.997   0.883
 1063TIP3    H2 3067   4.407   3.055   1.021
 1064TIP3   OH2 3068   6.243   3.006   1.101
 1064TIP3    H1 3069   6.170   3.048   1.147
 1064TIP3    H2 3070   6.202   2.941   1.045
 1065TIP3   OH2 3071   9.112   7.252   7.703
 1065TIP3    H1 3072   9.162   7.237   7.623
 1065TIP3    H2 3073   9.175   7.291   7.764
 1066TIP3   OH2 3074   4.261   2.708   0.512
 1066TIP3    H1 3075   4.232   2.642   0.575
 1066TIP3    H2 3076   4.264   2.661   0.428
 1067TIP3   OH2 3077   8.693   8.851   7.961
 1067TIP3    H1 3078   8.685   8.817   7.872
 1067TIP3    H2 3079   8.780   8.892   7.963
 1068TIP3   OH2 3080   4.508   2.509   1.247
 1068TIP3    H1 3081   4.475   2.525   1.336
 1068TIP3    H2 3082   4.459   2.571   1.193
 1069TIP3   OH2 3083   4.547   4.005   1.317
 1069TIP3    H1 3084   4.466   3.964   1.346
 1069TIP3    H2 3085   4.600   4.011   1.396
 1070TIP3   OH2 3086   4.753   4.040   0.875
 1070TIP3    H1 3087   4.706   4.119   0.847
 1070TIP3    H2 3088   4.839   4.048   0.834
 1071TIP3   OH2 3089   5.152   4.276   1.026
 1071TIP3    H1 3090   5.189   4.267   1.114
 1071TIP3    H2 3091   5.216   4.327   0.977
 1072TIP3   OH2 3092   5.347   4.426   0.902
 1072TIP3    H1 3093   5.412   4.374   0.856
 1072TIP3    H2 3094   5.398   4.487   0.955
 1073TIP3   OH2 3095   6.149   2.760   0.984
 1073TIP3    H1 3096   6.068   2.763   0.934
 1073TIP3    H2 3097   6.179   2.670   0.978
 1074TIP3   OH2 3098   4.401   4.261   0.936
 1074TIP3    H1 3099   4.310   4.286   0.919
 1074TIP3    H2 3100   4.427   4.317   1.010
 1075TIP3   OH2 3101   4.638   4.275   0.790
 1075TIP3    H1 3102   4.554   4.277   0.835
 1075TIP3    H2 3103   4.618   4.301   0.700
 1076TIP3   OH2 3104   5.060   4.290   0.577
 1076TIP3    H1 3105   4.985   4.302   0.518
 1076TIP3    H2 3106   5.071   4.374   0.620
 1077TIP3   OH2 3107   5.321   4.220   0.630
 1077TIP3    H1 3108   5.232   4.245   0.608
 1077TIP3    H2 3109   5.375   4.289   0.592
 1078TIP3   OH2 3110   5.522   4.393   0.543
 1078TIP3    H1 3111   5.507   4.480   0.506
 1078TIP3    H2 3112   5.550   4.340   0.469
 1079TIP3   OH2 3113   4.322   4.054   0.655
 1079TIP3    H1 3114   4.346   4.035   0.747
 1079TIP3    H2 3115   4.397   4.022   0.605
 1080TIP3   OH2 3116   4.532   3.943   0.523
 1080TIP3    H1 3117   4.543   3.855   0.560
 1080TIP3    H2 3118   4.620   3.981   0.526
 1081TIP3   OH2 3119   4.799   4.025   0.540
 1081TIP3    H1 3120   4.817   3.933   0.524
 1081TIP3    H2 3121   4.859   4.049   0.611
 1082TIP3   OH2 3122   5.358   2.675   0.617
 1082TIP3    H1 3123   5.323   2.609   0.676
 1082TIP3    H2 3124   5.424   2.629   0.565
 1083TIP3   OH2 3125   5.864   2.600   0.494
 1083TIP3    H1 3126   5.908   2.650   0.425
 1083TIP3    H2 3127   5.782   2.647   0.510
 1084TIP3   OH2 3128   5.988   2.687   0.265
 1084TIP3    H1 3129   6.047   2.615   0.243
 1084TIP3    H2 3130   6.037   2.766   0.244
 1085TIP3   OH2 3131   4.614   2.399   0.620
 1085TIP3    H1 3132   4.534   2.372   0.664
 1085TIP3    H2 3133   4.673   2.324   0.629
 1086TIP3   OH2 3134   4.336   2.249   0.256
 1086TIP3    H1 3135   4.352   2.296   0.174
 1086TIP3    H2 3136   4.330   2.319   0.322
 1087TIP3   OH2 3137   5.099   2.442   0.519
 1087TIP3    H1 3138   5.141   2.495   0.452
 1087TIP3    H2 3139   5.137   2.473   0.601
 1088TIP3   OH2 3140   5.561   2.545   0.485
 1088TIP3    H1 3141   5.608   2.516   0.407
 1088TIP3    H2 3142   5.575   2.474   0.549
 1089TIP3   OH2 3143   5.630   2.517   0.081
 1089TIP3    H1 3144   5.549   2.566   0.100
 1089TIP3    H2 3145   5.614   2.430   0.116
 1090TIP3   OH2 3146   4.132   3.884   0.073
 1090TIP3    H1 3147   4.059   3.849   0.022
 1090TIP3    H2 3148   4.132   3.977   0.053
 1091TIP3   OH2 3149   4.533   2.534  -0.005
 1091TIP3    H1 3150   4.457   2.477  -0.016
 1091TIP3    H2 3151   4.534   2.556   0.088
 1092TIP3   OH2 3152   5.027   2.602   0.110
 1092TIP3    H1 3153   5.091   2.562   0.169
 1092TIP3    H2 3154   5.033   2.695   0.127
 1093TIP3   OH2 3155   4.813   2.637   1.482
 1093TIP3    H1 3156   4.784   2.576   1.550
 1093TIP3    H2 3157   4.898   2.669   1.512
 1094TIP3   OH2 3158   5.058   2.675   1.615
 1094TIP3    H1 3159   5.137   2.654   1.566
 1094TIP3    H2 3160   5.051   2.606   1.681
 1095TIP3   OH2 3161   7.546   8.602   7.708
 1095TIP3    H1 3162   7.534   8.552   7.789
 1095TIP3    H2 3163   7.506   8.547   7.640
 1096TIP3   OH2 3164   5.899   2.768   1.410
 1096TIP3    H1 3165   5.916   2.739   1.500
 1096TIP3    H2 3166   5.984   2.759   1.366
 1097TIP3   OH2 3167   5.815   4.286   0.926
 1097TIP3    H1 3168   5.747   4.255   0.866
 1097TIP3    H2 3169   5.802   4.381   0.930
 1098TIP3   OH2 3170   7.011   3.645   0.099
 1098TIP3    H1 3171   7.086   3.652   0.158
 1098TIP3    H2 3172   6.995   3.550   0.092
 1099TIP3   OH2 3173   6.385   3.511   0.419
 1099TIP3    H1 3174   6.423   3.468   0.496
 1099TIP3    H2 3175   6.460   3.544   0.370
 1100TIP3   OH2 3176   6.348   3.948   0.143
 1100TIP3    H1 3177   6.338   3.854   0.134
 1100TIP3    H2 3178   6.442   3.962   0.146
 1101TIP3   OH2 3179   9.326   7.769   7.882
 1101TIP3    H1 3180   9.310   7.858   7.914
 1101TIP3    H2 3181   9.240   7.734   7.862
 1102TIP3   OH2 3182   6.142   3.475   0.110
 1102TIP3    H1 3183   6.192   3.399   0.138
 1102TIP3    H2 3184   6.207   3.544   0.097
 1103TIP3   OH2 3185   6.890   3.891   0.099
 1103TIP3    H1 3186   6.923   3.803   0.081
 1103TIP3    H2 3187   6.966   3.939   0.131
 1104TIP3   OH2 3188   7.259   3.379   0.084
 1104TIP3    H1 3189   7.291   3.290   0.100
 1104TIP3    H2 3190   7.317   3.413   0.016
 1105TIP3   OH2 3191   6.633   3.052   0.104
 1105TIP3    H1 3192   6.624   3.121   0.038
 1105TIP3    H2 3193   6.584   2.978   0.068
 1106TIP3   OH2 3194   6.275   3.252   0.205
 1106TIP3    H1 3195   6.355   3.242   0.256
 1106TIP3    H2 3196   6.289   3.198   0.127
 1107TIP3   OH2 3197   6.712   3.449   0.041
 1107TIP3    H1 3198   6.805   3.428   0.052
 1107TIP3    H2 3199   6.672   3.367   0.013
 1108TIP3   OH2 3200   7.948   3.602   0.233
 1108TIP3    H1 3201   7.862   3.560   0.223
 1108TIP3    H2 3202   7.959   3.610   0.327
 1109TIP3   OH2 3203   6.631   3.043   0.536
 1109TIP3    H1 3204   6.582   3.086   0.466
 1109TIP3    H2 3205   6.580   3.060   0.615
 1110TIP3   OH2 3206   6.732   3.814   0.311
 1110TIP3    H1 3207   6.676   3.885   0.342
 1110TIP3    H2 3208   6.784   3.853   0.241
 1111TIP3   OH2 3209   6.514   3.164   0.320
 1111TIP3    H1 3210   6.569   3.239   0.342
 1111TIP3    H2 3211   6.559   3.121   0.248
 1112TIP3   OH2 3212   6.570   4.014   0.402
 1112TIP3    H1 3213   6.561   4.105   0.374
 1112TIP3    H2 3214   6.494   3.998   0.457
 1113TIP3   OH2 3215   7.606   3.204   0.144
 1113TIP3    H1 3216   7.517   3.181   0.118
 1113TIP3    H2 3217   7.662   3.151   0.087
 1114TIP3   OH2 3218   6.966   2.747   0.274
 1114TIP3    H1 3219   6.966   2.654   0.300
 1114TIP3    H2 3220   6.885   2.782   0.311
 1115TIP3   OH2 3221   7.597   4.156   0.201
 1115TIP3    H1 3222   7.641   4.131   0.120
 1115TIP3    H2 3223   7.641   4.236   0.229
 1116TIP3   OH2 3224   7.464   3.632   0.403
 1116TIP3    H1 3225   7.472   3.717   0.446
 1116TIP3    H2 3226   7.379   3.635   0.359
 1117TIP3   OH2 3227  -0.027   8.192   7.904
 1117TIP3    H1 3228   0.008   8.246   7.833
 1117TIP3    H2 3229   0.050   8.158   7.949
 1118TIP3   OH2 3230   6.630   3.983   0.060
 1118TIP3    H1 3231   6.625   4.009  -0.032
 1118TIP3    H2 3232   6.721   3.957   0.073
 1119TIP3   OH2 3233   6.598   3.585   0.256
 1119TIP3    H1 3234   6.642   3.550   0.179
 1119TIP3    H2 3235   6.644   3.667   0.275
 1120TIP3   OH2 3236   6.764   4.106   0.581
 1120TIP3    H1 3237   6.706   4.170   0.621
 1120TIP3    H2 3238   6.710   4.061   0.516
 1121TIP3   OH2 3239   6.528   3.656   0.717
 1121TIP3    H1 3240   6.534   3.750   0.734
 1121TIP3    H2 3241   6.434   3.639   0.709
 1122TIP3   OH2 3242   6.560   4.273   0.665
 1122TIP3    H1 3243   6.532   4.282   0.574
 1122TIP3    H2 3244   6.480   4.255   0.713
 1123TIP3   OH2 3245   6.162   3.830   0.612
 1123TIP3    H1 3246   6.095   3.816   0.545
 1123TIP3    H2 3247   6.196   3.743   0.631
 1124TIP3   OH2 3248   6.087   3.999   0.266
 1124TIP3    H1 3249   6.169   3.987   0.217
 1124TIP3    H2 3250   6.102   4.078   0.318
 1125TIP3   OH2 3251   7.837   4.390   0.309
 1125TIP3    H1 3252   7.911   4.446   0.332
 1125TIP3    H2 3253   7.760   4.435   0.342
 1126TIP3   OH2 3254   6.967   4.225   0.434
 1126TIP3    H1 3255   6.924   4.288   0.376
 1126TIP3    H2 3256   6.897   4.192   0.490
 1127TIP3   OH2 3257   7.710   3.671   0.649
 1127TIP3    H1 3258   7.660   3.734   0.597
 1127TIP3    H2 3259   7.718   3.594   0.593
 1128TIP3   OH2 3260   6.361   4.017   0.579
 1128TIP3    H1 3261   6.412   4.003   0.659
 1128TIP3    H2 3262   6.287   3.956   0.586
 1129TIP3   OH2 3263   6.727   2.829   0.388
 1129TIP3    H1 3264   6.641   2.798   0.358
 1129TIP3    H2 3265   6.707   2.909   0.436
 1130TIP3   OH2 3266   7.241   2.977   0.609
 1130TIP3    H1 3267   7.304   2.972   0.681
 1130TIP3    H2 3268   7.157   2.954   0.649
 1131TIP3   OH2 3269   7.480   3.368   0.491
 1131TIP3    H1 3270   7.432   3.365   0.574
 1131TIP3    H2 3271   7.466   3.456   0.458
 1132TIP3   OH2 3272   6.683   3.366   0.404
 1132TIP3    H1 3273   6.640   3.375   0.489
 1132TIP3    H2 3274   6.663   3.448   0.358
 1133TIP3   OH2 3275   9.824   7.866   7.928
 1133TIP3    H1 3276   9.737   7.829   7.945
 1133TIP3    H2 3277   9.813   7.914   7.845
 1134TIP3   OH2 3278   7.219   3.592   0.723
 1134TIP3    H1 3279   7.192   3.527   0.787
 1134TIP3    H2 3280   7.313   3.606   0.740
 1135TIP3   OH2 3281   6.523   3.377   0.625
 1135TIP3    H1 3282   6.532   3.447   0.690
 1135TIP3    H2 3283   6.505   3.299   0.676
 1136TIP3   OH2 3284   6.162   2.875   0.171
 1136TIP3    H1 3285   6.196   2.926   0.244
 1136TIP3    H2 3286   6.239   2.828   0.137
 1137TIP3   OH2 3287   9.445   7.554   7.762
 1137TIP3    H1 3288   9.511   7.584   7.700
 1137TIP3    H2 3289   9.403   7.634   7.794
 1138TIP3   OH2 3290   7.219   3.565   0.286
 1138TIP3    H1 3291   7.236   3.501   0.218
 1138TIP3    H2 3292   7.187   3.514   0.360
 1139TIP3   OH2 3293   6.874   2.970  -0.015
 1139TIP3    H1 3294   6.812   3.012   0.043
 1139TIP3    H2 3295   6.960   2.987   0.024
 1140TIP3   OH2 3296   9.592   7.725   7.978
 1140TIP3    H1 3297   9.501   7.722   7.950
 1140TIP3    H2 3298   9.623   7.635   7.968
 1141TIP3   OH2 3299   7.334   3.117   0.138
 1141TIP3    H1 3300   7.332   3.126   0.233
 1141TIP3    H2 3301   7.259   3.061   0.117
 1142TIP3   OH2 3302   7.592   4.802   0.422
 1142TIP3    H1 3303   7.586   4.878   0.364
 1142TIP3    H2 3304   7.626   4.837   0.505
 1143TIP3   OH2 3305   6.512   3.920   0.809
 1143TIP3    H1 3306   6.594   3.944   0.853
 1143TIP3    H2 3307   6.444   3.939   0.874
 1144TIP3   OH2 3308   6.975   3.367   0.097
 1144TIP3    H1 3309   7.067   3.355   0.075
 1144TIP3    H2 3310   6.966   3.330   0.185
 1145TIP3   OH2 3311   9.745   7.481   7.973
 1145TIP3    H1 3312   9.704   7.406   8.018
 1145TIP3    H2 3313   9.813   7.441   7.919
 1146TIP3   OH2 3314   6.950   3.303   0.365
 1146TIP3    H1 3315   6.864   3.341   0.382
 1146TIP3    H2 3316   7.011   3.357   0.416
 1147TIP3   OH2 3317   7.090   3.972   0.496
 1147TIP3    H1 3318   7.141   3.978   0.577
 1147TIP3    H2 3319   7.054   4.060   0.484
 1148TIP3   OH2 3320   6.355   3.658   0.116
 1148TIP3    H1 3321   6.396   3.635   0.032
 1148TIP3    H2 3322   6.422   3.640   0.181
 1149TIP3   OH2 3323   6.254   3.589   0.729
 1149TIP3    H1 3324   6.254   3.563   0.821
 1149TIP3    H2 3325   6.177   3.546   0.692
 1150TIP3   OH2 3326   6.989   3.741   0.765
 1150TIP3    H1 3327   6.922   3.680   0.733
 1150TIP3    H2 3328   7.072   3.705   0.732
 1151TIP3   OH2 3329   7.236   4.254   0.383
 1151TIP3    H1 3330   7.140   4.247   0.386
 1151TIP3    H2 3331   7.259   4.306   0.460
 1152TIP3   OH2 3332   7.896   4.126   0.333
 1152TIP3    H1 3333   7.870   4.218   0.321
 1152TIP3    H2 3334   7.943   4.104   0.252
 1153TIP3   OH2 3335   7.129   3.956   0.223
 1153TIP3    H1 3336   7.115   3.954   0.318
 1153TIP3    H2 3337   7.215   3.997   0.212
 1154TIP3   OH2 3338   6.467   3.122   0.744
 1154TIP3    H1 3339   6.372   3.132   0.748
 1154TIP3    H2 3340   6.490   3.075   0.824
 1155TIP3   OH2 3341   6.186   4.222   0.412
 1155TIP3    H1 3342   6.257   4.176   0.455
 1155TIP3    H2 3343   6.192   4.312   0.445
 1156TIP3   OH2 3344   7.330   3.142   0.409
 1156TIP3    H1 3345   7.361   3.224   0.448
 1156TIP3    H2 3346   7.290   3.094   0.482
 1157TIP3   OH2 3347   7.154   3.421   0.517
 1157TIP3    H1 3348   7.161   3.497   0.575
 1157TIP3    H2 3349   7.197   3.351   0.565
 1158TIP3   OH2 3350   7.741   3.455   0.490
 1158TIP3    H1 3351   7.656   3.412   0.497
 1158TIP3    H2 3352   7.776   3.425   0.406
 1159TIP3   OH2 3353   6.464   2.746   0.355
 1159TIP3    H1 3354   6.433   2.709   0.273
 1159TIP3    H2 3355   6.462   2.673   0.417
 1160TIP3   OH2 3356   6.202   4.507   0.838
 1160TIP3    H1 3357   6.289   4.508   0.878
 1160TIP3    H2 3358   6.182   4.414   0.827
 1161TIP3   OH2 3359   6.685   4.436   0.845
 1161TIP3    H1 3360   6.775   4.404   0.852
 1161TIP3    H2 3361   6.646   4.384   0.775
 1162TIP3   OH2 3362   7.303   4.386   0.614
 1162TIP3    H1 3363   7.314   4.316   0.677
 1162TIP3    H2 3364   7.381   4.441   0.626
 1163TIP3   OH2 3365   6.306   3.930   1.000
 1163TIP3    H1 3366   6.325   3.837   1.011
 1163TIP3    H2 3367   6.220   3.933   0.960
 1164TIP3   OH2 3368   6.930   4.015   0.777
 1164TIP3    H1 3369   6.882   4.037   0.697
 1164TIP3    H2 3370   6.964   3.927   0.762
 1165TIP3   OH2 3371   7.406   4.040   0.363
 1165TIP3    H1 3372   7.474   4.076   0.305
 1165TIP3    H2 3373   7.344   4.112   0.374
 1166TIP3   OH2 3374   6.422   3.673   1.008
 1166TIP3    H1 3375   6.496   3.668   0.947
 1166TIP3    H2 3376   6.462   3.695   1.092
 1167TIP3   OH2 3377   6.792   3.560   0.658
 1167TIP3    H1 3378   6.707   3.602   0.667
 1167TIP3    H2 3379   6.827   3.594   0.575
 1168TIP3   OH2 3380   7.278   3.931   0.736
 1168TIP3    H1 3381   7.349   3.896   0.682
 1168TIP3    H2 3382   7.280   3.878   0.815
 1169TIP3   OH2 3383   6.884   3.329   0.772
 1169TIP3    H1 3384   6.886   3.258   0.708
 1169TIP3    H2 3385   6.853   3.405   0.723
 1170TIP3   OH2 3386   6.889   3.128   0.574
 1170TIP3    H1 3387   6.920   3.170   0.493
 1170TIP3    H2 3388   6.798   3.104   0.555
 1171TIP3   OH2 3389   6.919   3.662   0.440
 1171TIP3    H1 3390   7.003   3.707   0.428
 1171TIP3    H2 3391   6.856   3.716   0.394
 1172TIP3   OH2 3392   7.486   3.602   0.806
 1172TIP3    H1 3393   7.514   3.515   0.833
 1172TIP3    H2 3394   7.564   3.642   0.766
 1173TIP3   OH2 3395   7.533   3.878   0.540
 1173TIP3    H1 3396   7.475   3.935   0.489
 1173TIP3    H2 3397   7.621   3.898   0.507
 1174TIP3   OH2 3398   6.776   3.407   1.017
 1174TIP3    H1 3399   6.705   3.347   1.037
 1174TIP3    H2 3400   6.802   3.385   0.927
 1175TIP3   OH2 3401   6.989   2.896   0.685
 1175TIP3    H1 3402   6.950   2.976   0.649
 1175TIP3    H2 3403   6.926   2.827   0.664
 1176TIP3   OH2 3404   7.135   3.379   0.878
 1176TIP3    H1 3405   7.128   3.364   0.972
 1176TIP3    H2 3406   7.048   3.358   0.844
 1177TIP3   OH2 3407   7.343   3.307   0.715
 1177TIP3    H1 3408   7.274   3.321   0.780
 1177TIP3    H2 3409   7.422   3.291   0.768
 1178TIP3   OH2 3410   7.576   3.355   0.892
 1178TIP3    H1 3411   7.589   3.260   0.890
 1178TIP3    H2 3412   7.575   3.377   0.985
 1179TIP3   OH2 3413   6.605   3.191   1.079
 1179TIP3    H1 3414   6.614   3.102   1.043
 1179TIP3    H2 3415   6.644   3.185   1.166
 1180TIP3   OH2 3416   7.070   2.879   0.944
 1180TIP3    H1 3417   7.140   2.814   0.939
 1180TIP3    H2 3418   7.038   2.886   0.854
 1181TIP3   OH2 3419   7.181   3.087   1.087
 1181TIP3    H1 3420   7.149   3.018   1.029
 1181TIP3    H2 3421   7.112   3.152   1.088
 1182TIP3   OH2 3422   5.868   4.189   0.029
 1182TIP3    H1 3423   5.869   4.102   0.071
 1182TIP3    H2 3424   5.955   4.225   0.047
 1183TIP3   OH2 3425   7.753   4.255   0.655
 1183TIP3    H1 3426   7.685   4.266   0.722
 1183TIP3    H2 3427   7.799   4.339   0.654
 1184TIP3   OH2 3428   6.122   3.558   0.371
 1184TIP3    H1 3429   6.112   3.533   0.279
 1184TIP3    H2 3430   6.217   3.552   0.387
 1185TIP3   OH2 3431   7.787   3.906   0.448
 1185TIP3    H1 3432   7.857   3.842   0.433
 1185TIP3    H2 3433   7.816   3.984   0.400
 1186TIP3   OH2 3434   7.960   3.698   0.498
 1186TIP3    H1 3435   7.898   3.683   0.569
 1186TIP3    H2 3436   8.046   3.694   0.540
 1187TIP3   OH2 3437   7.658   3.589   0.197
 1187TIP3    H1 3438   7.597   3.580   0.270
 1187TIP3    H2 3439   7.673   3.683   0.190
 1188TIP3   OH2 3440   6.343   3.247   1.010
 1188TIP3    H1 3441   6.437   3.246   1.032
 1188TIP3    H2 3442   6.309   3.167   1.051
 1189TIP3   OH2 3443   8.127   3.194   0.674
 1189TIP3    H1 3444   8.204   3.226   0.721
 1189TIP3    H2 3445   8.085   3.273   0.639
 1190TIP3   OH2 3446   6.309   2.973   0.386
 1190TIP3    H1 3447   6.366   2.896   0.389
 1190TIP3    H2 3448   6.368   3.047   0.374
 1191TIP3   OH2 3449   6.089   3.234   0.416
 1191TIP3    H1 3450   6.145   3.228   0.339
 1191TIP3    H2 3451   6.110   3.320   0.453
 1192TIP3   OH2 3452   7.978   3.416   0.635
 1192TIP3    H1 3453   7.929   3.419   0.717
 1192TIP3    H2 3454   7.910   3.417   0.567
 1193TIP3   OH2 3455   9.308   7.342   7.873
 1193TIP3    H1 3456   9.262   7.372   7.952
 1193TIP3    H2 3457   9.359   7.418   7.845
 1194TIP3   OH2 3458   6.314   2.787   0.754
 1194TIP3    H1 3459   6.267   2.787   0.837
 1194TIP3    H2 3460   6.259   2.839   0.696
 1195TIP3   OH2 3461   6.345   4.233   0.835
 1195TIP3    H1 3462   6.251   4.217   0.824
 1195TIP3    H2 3463   6.358   4.232   0.930
 1196TIP3   OH2 3464   6.522   4.281   0.391
 1196TIP3    H1 3465   6.456   4.326   0.338
 1196TIP3    H2 3466   6.605   4.320   0.364
 1197TIP3   OH2 3467   6.958   4.663   0.568
 1197TIP3    H1 3468   6.990   4.596   0.628
 1197TIP3    H2 3469   6.999   4.643   0.484
 1198TIP3   OH2 3470   7.145   4.617   0.366
 1198TIP3    H1 3471   7.179   4.535   0.333
 1198TIP3    H2 3472   7.217   4.654   0.417
 1199TIP3   OH2 3473   7.879   3.168   0.486
 1199TIP3    H1 3474   7.864   3.086   0.531
 1199TIP3    H2 3475   7.974   3.171   0.472
 1200TIP3   OH2 3476   6.178   4.513   0.461
 1200TIP3    H1 3477   6.088   4.533   0.433
 1200TIP3    H2 3478   6.202   4.586   0.518
 1201TIP3   OH2 3479   6.350   4.442   0.260
 1201TIP3    H1 3480   6.290   4.471   0.329
 1201TIP3    H2 3481   6.367   4.521   0.209
 1202TIP3   OH2 3482   6.098   4.303   0.147
 1202TIP3    H1 3483   6.133   4.296   0.236
 1202TIP3    H2 3484   6.171   4.280   0.090
 1203TIP3   OH2 3485   6.319   4.204   0.022
 1203TIP3    H1 3486   6.328   4.116   0.059
 1203TIP3    H2 3487   6.405   4.244   0.035
 1204TIP3   OH2 3488   6.587   4.270   0.069
 1204TIP3    H1 3489   6.621   4.184   0.094
 1204TIP3    H2 3490   6.640   4.332   0.120
 1205TIP3   OH2 3491   7.117   2.939   0.120
 1205TIP3    H1 3492   7.072   2.880   0.180
 1205TIP3    H2 3493   7.164   2.882   0.060
 1206TIP3   OH2 3494   1.011   7.498   7.975
 1206TIP3    H1 3495   1.085   7.537   8.022
 1206TIP3    H2 3496   0.936   7.553   7.999
 1207TIP3   OH2 3497   6.366   2.651   0.111
 1207TIP3    H1 3498   6.285   2.603   0.125
 1207TIP3    H2 3499   6.434   2.584   0.109
 1208TIP3   OH2 3500   9.417   7.104   7.784
 1208TIP3    H1 3501   9.492   7.143   7.738
 1208TIP3    H2 3502   9.375   7.177   7.828
 1209TIP3   OH2 3503   6.845   2.699   0.014
 1209TIP3    H1 3504   6.852   2.788  -0.021
 1209TIP3    H2 3505   6.892   2.702   0.097
 1210TIP3   OH2 3506   0.734   7.382   7.982
 1210TIP3    H1 3507   0.727   7.297   7.938
 1210TIP3    H2 3508   0.786   7.364   8.061
 1211TIP3   OH2 3509   6.623   2.924   0.985
 1211TIP3    H1 3510   6.589   2.857   1.044
 1211TIP3    H2 3511   6.715   2.933   1.011
 1212TIP3   OH2 3512   6.864   2.929   1.119
 1212TIP3    H1 3513   6.940   2.910   1.065
 1212TIP3    H2 3514   6.863   2.859   1.185
 1213TIP3   OH2 3515   7.637   3.098   0.951
 1213TIP3    H1 3516   7.665   3.089   1.042
 1213TIP3    H2 3517   7.716   3.080   0.900
 1214TIP3   OH2 3518   7.625   4.533   0.399
 1214TIP3    H1 3519   7.532   4.511   0.388
 1214TIP3    H2 3520   7.627   4.629   0.401
 1215TIP3   OH2 3521   8.362   4.107   0.384
 1215TIP3    H1 3522   8.438   4.157   0.413
 1215TIP3    H2 3523   8.287   4.159   0.412
 1216TIP3   OH2 3524   8.047   3.868   0.260
 1216TIP3    H1 3525   8.108   3.857   0.333
 1216TIP3    H2 3526   8.021   3.779   0.236
 1217TIP3   OH2 3527   8.092   3.393   0.113
 1217TIP3    H1 3528   8.051   3.463   0.164
 1217TIP3    H2 3529   8.174   3.374   0.159
 1218TIP3   OH2 3530   8.109   4.157   0.503
 1218TIP3    H1 3531   8.124   4.067   0.531
 1218TIP3    H2 3532   8.028   4.154   0.452
 1219TIP3   OH2 3533   8.245   3.887   0.494
 1219TIP3    H1 3534   8.292   3.947   0.435
 1219TIP3    H2 3535   8.263   3.920   0.582
 1220TIP3   OH2 3536   8.550   3.731   0.517
 1220TIP3    H1 3537   8.455   3.746   0.523
 1220TIP3    H2 3538   8.563   3.694   0.430
 1221TIP3   OH2 3539   8.377   3.471   0.587
 1221TIP3    H1 3540   8.385   3.385   0.545
 1221TIP3    H2 3541   8.463   3.486   0.626
 1222TIP3   OH2 3542   8.163   3.611   0.675
 1222TIP3    H1 3543   8.242   3.566   0.645
 1222TIP3    H2 3544   8.094   3.546   0.666
 1223TIP3   OH2 3545   8.058   3.087   0.139
 1223TIP3    H1 3546   8.067   3.145   0.214
 1223TIP3    H2 3547   8.139   3.098   0.090
 1224TIP3   OH2 3548   8.378   3.212   0.496
 1224TIP3    H1 3549   8.349   3.139   0.550
 1224TIP3    H2 3550   8.473   3.201   0.488
 1225TIP3   OH2 3551   8.632   3.158   0.585
 1225TIP3    H1 3552   8.722   3.162   0.617
 1225TIP3    H2 3553   8.596   3.078   0.624
 1226TIP3   OH2 3554   9.633   5.008   1.615
 1226TIP3    H1 3555   9.551   4.965   1.636
 1226TIP3    H2 3556   9.623   5.037   1.524
 1227TIP3   OH2 3557   0.089   4.918   1.935
 1227TIP3    H1 3558   0.090   4.841   1.878
 1227TIP3    H2 3559   0.070   4.991   1.876
 1228TIP3   OH2 3560   0.171   4.444   1.864
 1228TIP3    H1 3561   0.157   4.529   1.822
 1228TIP3    H2 3562   0.241   4.404   1.812
 1229TIP3   OH2 3563   9.720   4.512   2.036
 1229TIP3    H1 3564   9.726   4.561   2.117
 1229TIP3    H2 3565   9.656   4.560   1.983
 1230TIP3   OH2 3566   0.336   5.277   1.985
 1230TIP3    H1 3567   0.344   5.182   1.988
 1230TIP3    H2 3568   0.258   5.297   2.036
 1231TIP3   OH2 3569   9.320   4.988   2.052
 1231TIP3    H1 3570   9.336   5.021   2.141
 1231TIP3    H2 3571   9.225   4.975   2.049
 1232TIP3   OH2 3572   0.067   4.251   2.143
 1232TIP3    H1 3573   0.137   4.188   2.160
 1232TIP3    H2 3574   0.002   4.233   2.211
 1233TIP3   OH2 3575   9.501   4.388   2.443
 1233TIP3    H1 3576   9.518   4.297   2.464
 1233TIP3    H2 3577   9.584   4.433   2.462
 1234TIP3   OH2 3578   0.079   5.604   2.095
 1234TIP3    H1 3579   0.059   5.616   2.002
 1234TIP3    H2 3580   0.146   5.669   2.114
 1235TIP3   OH2 3581   0.070   4.694   1.766
 1235TIP3    H1 3582   0.122   4.732   1.695
 1235TIP3    H2 3583  -0.020   4.696   1.733
 1236TIP3   OH2 3584   9.401   4.741   2.152
 1236TIP3    H1 3585   9.461   4.778   2.217
 1236TIP3    H2 3586   9.355   4.817   2.116
 1237TIP3   OH2 3587   9.315   4.529   2.592
 1237TIP3    H1 3588   9.263   4.576   2.528
 1237TIP3    H2 3589   9.393   4.500   2.544
 1238TIP3   OH2 3590   9.579   5.089   2.016
 1238TIP3    H1 3591   9.511   5.022   2.025
 1238TIP3    H2 3592   9.622   5.092   2.101
 1239TIP3   OH2 3593   0.341   5.004   2.004
 1239TIP3    H1 3594   0.249   4.978   2.012
 1239TIP3    H2 3595   0.369   4.966   1.921
 1240TIP3   OH2 3596   9.527   4.676   1.918
 1240TIP3    H1 3597   9.471   4.683   1.995
 1240TIP3    H2 3598   9.466   4.681   1.844
 1241TIP3   OH2 3599   9.683   5.322   1.922
 1241TIP3    H1 3600   9.637   5.245   1.958
 1241TIP3    H2 3601   9.616   5.391   1.920
 1242TIP3   OH2 3602   9.679   5.129   2.271
 1242TIP3    H1 3603   9.669   5.057   2.333
 1242TIP3    H2 3604   9.645   5.206   2.318
 1243TIP3   OH2 3605   9.129   4.771   2.499
 1243TIP3    H1 3606   9.092   4.715   2.431
 1243TIP3    H2 3607   9.091   4.739   2.580
 1244TIP3   OH2 3608   9.687   4.824   2.097
 1244TIP3    H1 3609   9.755   4.876   2.055
 1244TIP3    H2 3610   9.634   4.791   2.025
 1245TIP3   OH2 3611   9.612   4.652   2.530
 1245TIP3    H1 3612   9.682   4.714   2.508
 1245TIP3    H2 3613   9.533   4.706   2.531
 1246TIP3   OH2 3614  -0.016   4.405   2.556
 1246TIP3    H1 3615   0.021   4.343   2.494
 1246TIP3    H2 3616   0.027   4.488   2.535
 1247TIP3   OH2 3617   0.023   4.654   2.254
 1247TIP3    H1 3618  -0.030   4.725   2.217
 1247TIP3    H2 3619   0.108   4.663   2.211
 1248TIP3   OH2 3620   9.470   4.107   2.499
 1248TIP3    H1 3621   9.440   4.081   2.586
 1248TIP3    H2 3622   9.406   4.068   2.439
 1249TIP3   OH2 3623   9.732   4.160   2.374
 1249TIP3    H1 3624   9.646   4.130   2.403
 1249TIP3    H2 3625   9.793   4.125   2.439
 1250TIP3   OH2 3626   0.109   4.084   2.571
 1250TIP3    H1 3627   0.120   3.989   2.583
 1250TIP3    H2 3628   0.113   4.120   2.660
 1251TIP3   OH2 3629   0.161   5.435   1.490
 1251TIP3    H1 3630   0.177   5.386   1.571
 1251TIP3    H2 3631   0.224   5.399   1.427
 1252TIP3   OH2 3632   0.178   5.360   1.765
 1252TIP3    H1 3633   0.123   5.282   1.755
 1252TIP3    H2 3634   0.246   5.334   1.827
 1253TIP3   OH2 3635   0.257   5.069   2.338
 1253TIP3    H1 3636   0.176   5.079   2.388
 1253TIP3    H2 3637   0.303   5.152   2.348
 1254TIP3   OH2 3638   0.229   4.810   1.578
 1254TIP3    H1 3639   0.289   4.744   1.544
 1254TIP3    H2 3640   0.242   4.886   1.522
 1255TIP3   OH2 3641   9.822   5.132   1.772
 1255TIP3    H1 3642   9.764   5.192   1.820
 1255TIP3    H2 3643   9.764   5.088   1.710
 1256TIP3   OH2 3644   0.270   4.667   2.143
 1256TIP3    H1 3645   0.329   4.600   2.179
 1256TIP3    H2 3646   0.309   4.688   2.057
 1257TIP3   OH2 3647   0.467   4.509   2.247
 1257TIP3    H1 3648   0.506   4.426   2.218
 1257TIP3    H2 3649   0.534   4.574   2.226
 1258TIP3   OH2 3650   0.631   3.945   2.446
 1258TIP3    H1 3651   0.698   3.879   2.428
 1258TIP3    H2 3652   0.610   3.982   2.361
 1259TIP3   OH2 3653   0.475   4.056   2.241
 1259TIP3    H1 3654   0.424   4.095   2.311
 1259TIP3    H2 3655   0.430   3.975   2.220
 1260TIP3   OH2 3656   9.189   5.280   2.175
 1260TIP3    H1 3657   9.155   5.286   2.264
 1260TIP3    H2 3658   9.281   5.302   2.183
 1261TIP3   OH2 3659   9.514   5.545   1.977
 1261TIP3    H1 3660   9.564   5.556   2.058
 1261TIP3    H2 3661   9.425   5.572   2.000
 1262TIP3   OH2 3662   0.376   3.806   2.178
 1262TIP3    H1 3663   0.300   3.756   2.149
 1262TIP3    H2 3664   0.436   3.802   2.104
 1263TIP3   OH2 3665   0.165   3.823   2.607
 1263TIP3    H1 3666   0.177   3.774   2.688
 1263TIP3    H2 3667   0.243   3.802   2.555
 1264TIP3   OH2 3668   0.098   5.334   2.102
 1264TIP3    H1 3669   0.024   5.309   2.047
 1264TIP3    H2 3670   0.092   5.429   2.108
 1265TIP3   OH2 3671   1.370   4.793   0.946
 1265TIP3    H1 3672   1.309   4.854   0.904
 1265TIP3    H2 3673   1.314   4.726   0.984
 1266TIP3   OH2 3674   1.335   4.729   1.287
 1266TIP3    H1 3675   1.407   4.709   1.347
 1266TIP3    H2 3676   1.302   4.643   1.261
 1267TIP3   OH2 3677   1.608   5.046   0.957
 1267TIP3    H1 3678   1.592   4.977   1.022
 1267TIP3    H2 3679   1.608   5.127   1.008
 1268TIP3   OH2 3680   0.622   5.004   1.317
 1268TIP3    H1 3681   0.607   4.910   1.327
 1268TIP3    H2 3682   0.717   5.011   1.307
 1269TIP3   OH2 3683   1.218   5.409   0.968
 1269TIP3    H1 3684   1.285   5.360   0.921
 1269TIP3    H2 3685   1.226   5.382   1.059
 1270TIP3   OH2 3686   1.163   4.964   1.279
 1270TIP3    H1 3687   1.229   4.896   1.269
 1270TIP3    H2 3688   1.212   5.046   1.267
 1271TIP3   OH2 3689   2.238   4.264   1.258
 1271TIP3    H1 3690   2.214   4.338   1.313
 1271TIP3    H2 3691   2.270   4.303   1.177
 1272TIP3   OH2 3692   1.483   4.309   1.452
 1272TIP3    H1 3693   1.525   4.244   1.396
 1272TIP3    H2 3694   1.421   4.354   1.395
 1273TIP3   OH2 3695   1.513   4.223   0.988
 1273TIP3    H1 3696   1.605   4.200   1.004
 1273TIP3    H2 3697   1.499   4.204   0.895
 1274TIP3   OH2 3698   0.990   4.509   1.220
 1274TIP3    H1 3699   1.076   4.508   1.260
 1274TIP3    H2 3700   0.990   4.433   1.161
 1275TIP3   OH2 3701   2.221   4.463   1.455
 1275TIP3    H1 3702   2.145   4.518   1.442
 1275TIP3    H2 3703   2.271   4.507   1.524
 1276TIP3   OH2 3704   0.866   4.084   1.705
 1276TIP3    H1 3705   0.824   4.156   1.658
 1276TIP3    H2 3706   0.823   4.082   1.790
 1277TIP3   OH2 3707   1.225   4.936   0.751
 1277TIP3    H1 3708   1.238   4.916   0.659
 1277TIP3    H2 3709   1.178   5.019   0.753
 1278TIP3   OH2 3710   1.008   4.870   1.487
 1278TIP3    H1 3711   0.943   4.936   1.512
 1278TIP3    H2 3712   1.058   4.911   1.417
 1279TIP3   OH2 3713   1.836   4.247   1.220
 1279TIP3    H1 3714   1.808   4.222   1.132
 1279TIP3    H2 3715   1.898   4.319   1.206
 1280TIP3   OH2 3716   0.752   4.289   1.570
 1280TIP3    H1 3717   0.707   4.353   1.625
 1280TIP3    H2 3718   0.784   4.340   1.495
 1281TIP3   OH2 3719   0.830   5.065   1.576
 1281TIP3    H1 3720   0.824   5.155   1.546
 1281TIP3    H2 3721   0.746   5.048   1.619
 1282TIP3   OH2 3722   1.592   5.275   1.114
 1282TIP3    H1 3723   1.506   5.262   1.153
 1282TIP3    H2 3724   1.588   5.360   1.071
 1283TIP3   OH2 3725   1.291   3.816   1.432
 1283TIP3    H1 3726   1.261   3.725   1.424
 1283TIP3    H2 3727   1.259   3.859   1.353
 1284TIP3   OH2 3728   1.387   5.289   0.789
 1284TIP3    H1 3729   1.432   5.207   0.769
 1284TIP3    H2 3730   1.442   5.356   0.748
 1285TIP3   OH2 3731   1.498   5.050   0.712
 1285TIP3    H1 3732   1.424   4.990   0.717
 1285TIP3    H2 3733   1.543   5.040   0.796
 1286TIP3   OH2 3734   1.870   5.171   1.427
 1286TIP3    H1 3735   1.856   5.095   1.370
 1286TIP3    H2 3736   1.851   5.246   1.371
 1287TIP3   OH2 3737   1.183   4.627   0.707
 1287TIP3    H1 3738   1.126   4.701   0.726
 1287TIP3    H2 3739   1.269   4.665   0.691
 1288TIP3   OH2 3740   2.060   4.840   1.291
 1288TIP3    H1 3741   1.975   4.884   1.288
 1288TIP3    H2 3742   2.094   4.849   1.202
 1289TIP3   OH2 3743   1.437   4.726   0.690
 1289TIP3    H1 3744   1.427   4.753   0.781
 1289TIP3    H2 3745   1.531   4.728   0.674
 1290TIP3   OH2 3746   1.762   4.682   1.589
 1290TIP3    H1 3747   1.757   4.765   1.636
 1290TIP3    H2 3748   1.678   4.674   1.543
 1291TIP3   OH2 3749   0.760   4.623   1.107
 1291TIP3    H1 3750   0.715   4.541   1.083
 1291TIP3    H2 3751   0.839   4.594   1.151
 1292TIP3   OH2 3752   0.895   5.026   1.221
 1292TIP3    H1 3753   0.878   4.997   1.131
 1292TIP3    H2 3754   0.988   5.004   1.235
 1293TIP3   OH2 3755   0.858   4.644   1.423
 1293TIP3    H1 3756   0.912   4.595   1.360
 1293TIP3    H2 3757   0.913   4.718   1.449
 1294TIP3   OH2 3758   1.011   5.131   1.773
 1294TIP3    H1 3759   0.954   5.199   1.808
 1294TIP3    H2 3760   0.961   5.090   1.702
 1295TIP3   OH2 3761   1.310   4.583   0.403
 1295TIP3    H1 3762   1.296   4.510   0.464
 1295TIP3    H2 3763   1.232   4.582   0.347
 1296TIP3   OH2 3764   0.797   4.689   1.905
 1296TIP3    H1 3765   0.772   4.778   1.881
 1296TIP3    H2 3766   0.745   4.633   1.848
 1297TIP3   OH2 3767   1.132   5.197   0.746
 1297TIP3    H1 3768   1.220   5.232   0.762
 1297TIP3    H2 3769   1.073   5.258   0.791
 1298TIP3   OH2 3770   0.845   5.339   1.840
 1298TIP3    H1 3771   0.823   5.347   1.747
 1298TIP3    H2 3772   0.761   5.326   1.883
 1299TIP3   OH2 3773   1.755   5.254   0.054
 1299TIP3    H1 3774   1.826   5.307   0.017
 1299TIP3    H2 3775   1.789   5.165   0.052
 1300TIP3   OH2 3776   0.417   4.881   1.774
 1300TIP3    H1 3777   0.355   4.859   1.704
 1300TIP3    H2 3778   0.435   4.798   1.817
 1301TIP3   OH2 3779   0.321   5.024   1.430
 1301TIP3    H1 3780   0.409   5.021   1.394
 1301TIP3    H2 3781   0.299   5.117   1.432
 1302TIP3   OH2 3782   2.112   5.511   1.492
 1302TIP3    H1 3783   2.114   5.416   1.507
 1302TIP3    H2 3784   2.032   5.540   1.537
 1303TIP3   OH2 3785   1.206   5.321   1.698
 1303TIP3    H1 3786   1.204   5.416   1.706
 1303TIP3    H2 3787   1.139   5.301   1.632
 1304TIP3   OH2 3788   1.223   5.432   0.559
 1304TIP3    H1 3789   1.180   5.347   0.556
 1304TIP3    H2 3790   1.315   5.412   0.573
 1305TIP3   OH2 3791   1.981   4.612   1.744
 1305TIP3    H1 3792   1.904   4.646   1.698
 1305TIP3    H2 3793   1.953   4.602   1.835
 1306TIP3   OH2 3794   0.611   5.073   1.749
 1306TIP3    H1 3795   0.662   5.054   1.828
 1306TIP3    H2 3796   0.541   5.008   1.749
 1307TIP3   OH2 3797   0.924   3.980   1.442
 1307TIP3    H1 3798   0.893   3.895   1.412
 1307TIP3    H2 3799   0.868   4.001   1.517
 1308TIP3   OH2 3800   1.537   4.016   1.780
 1308TIP3    H1 3801   1.600   4.010   1.851
 1308TIP3    H2 3802   1.452   4.021   1.823
 1309TIP3   OH2 3803   1.317   4.403   0.819
 1309TIP3    H1 3804   1.266   4.484   0.818
 1309TIP3    H2 3805   1.408   4.433   0.825
 1310TIP3   OH2 3806   1.493   4.635   1.906
 1310TIP3    H1 3807   1.480   4.557   1.960
 1310TIP3    H2 3808   1.582   4.662   1.925
 1311TIP3   OH2 3809   1.482   4.489   1.087
 1311TIP3    H1 3810   1.394   4.521   1.068
 1311TIP3    H2 3811   1.486   4.403   1.046
 1312TIP3   OH2 3812   1.518   4.614   1.469
 1312TIP3    H1 3813   1.569   4.563   1.406
 1312TIP3    H2 3814   1.483   4.549   1.530
 1313TIP3   OH2 3815   1.044   4.175   1.291
 1313TIP3    H1 3816   0.997   4.119   1.352
 1313TIP3    H2 3817   1.071   4.116   1.221
 1314TIP3   OH2 3818   1.828   5.864   1.577
 1314TIP3    H1 3819   1.826   5.875   1.482
 1314TIP3    H2 3820   1.904   5.914   1.605
 1315TIP3   OH2 3821   0.755   4.990   1.979
 1315TIP3    H1 3822   0.835   5.002   2.031
 1315TIP3    H2 3823   0.686   4.979   2.045
 1316TIP3   OH2 3824   1.244   4.435   1.314
 1316TIP3    H1 3825   1.252   4.361   1.253
 1316TIP3    H2 3826   1.207   4.397   1.393
 1317TIP3   OH2 3827   1.191   4.389   1.582
 1317TIP3    H1 3828   1.151   4.476   1.586
 1317TIP3    H2 3829   1.283   4.404   1.604
 1318TIP3   OH2 3830   0.903   4.750   0.701
 1318TIP3    H1 3831   0.833   4.684   0.699
 1318TIP3    H2 3832   0.897   4.789   0.788
 1319TIP3   OH2 3833   1.826   4.973   1.245
 1319TIP3    H1 3834   1.859   5.018   1.168
 1319TIP3    H2 3835   1.741   4.939   1.219
 1320TIP3   OH2 3836   1.380   5.094   1.751
 1320TIP3    H1 3837   1.445   5.025   1.761
 1320TIP3    H2 3838   1.408   5.143   1.674
 1321TIP3   OH2 3839   1.559   4.391   0.542
 1321TIP3    H1 3840   1.604   4.312   0.513
 1321TIP3    H2 3841   1.466   4.371   0.530
 1322TIP3   OH2 3842   0.620   4.728   1.327
 1322TIP3    H1 3843   0.645   4.704   1.238
 1322TIP3    H2 3844   0.694   4.698   1.381
 1323TIP3   OH2 3845   1.003   4.836   0.455
 1323TIP3    H1 3846   0.988   4.920   0.412
 1323TIP3    H2 3847   0.952   4.842   0.537
 1324TIP3   OH2 3848   0.467   4.672   1.949
 1324TIP3    H1 3849   0.536   4.670   2.016
 1324TIP3    H2 3850   0.498   4.612   1.881
 1325TIP3   OH2 3851   1.247   4.745   1.963
 1325TIP3    H1 3852   1.182   4.687   1.923
 1325TIP3    H2 3853   1.331   4.712   1.932
 1326TIP3   OH2 3854   1.448   5.259   1.539
 1326TIP3    H1 3855   1.420   5.244   1.448
 1326TIP3    H2 3856   1.383   5.320   1.574
 1327TIP3   OH2 3857   1.885   4.338   0.362
 1327TIP3    H1 3858   1.831   4.272   0.405
 1327TIP3    H2 3859   1.828   4.375   0.294
 1328TIP3   OH2 3860   2.123   5.230   1.507
 1328TIP3    H1 3861   2.029   5.218   1.498
 1328TIP3    H2 3862   2.158   5.207   1.420
 1329TIP3   OH2 3863   1.495   5.220   0.328
 1329TIP3    H1 3864   1.531   5.191   0.412
 1329TIP3    H2 3865   1.541   5.167   0.262
 1330TIP3   OH2 3866   1.592   4.856   1.158
 1330TIP3    H1 3867   1.500   4.829   1.163
 1330TIP3    H2 3868   1.636   4.783   1.114
 1331TIP3   OH2 3869   0.716   5.064   0.985
 1331TIP3    H1 3870   0.745   5.145   0.943
 1331TIP3    H2 3871   0.636   5.088   1.031
 1332TIP3   OH2 3872   0.859   4.832   0.956
 1332TIP3    H1 3873   0.802   4.909   0.958
 1332TIP3    H2 3874   0.815   4.769   1.012
 1333TIP3   OH2 3875   1.050   5.374   1.378
 1333TIP3    H1 3876   1.071   5.461   1.344
 1333TIP3    H2 3877   1.122   5.318   1.346
 1334TIP3   OH2 3878   1.384   4.818   0.197
 1334TIP3    H1 3879   1.455   4.811   0.261
 1334TIP3    H2 3880   1.349   4.907   0.211
 1335TIP3   OH2 3881   1.648   5.569   1.396
 1335TIP3    H1 3882   1.557   5.540   1.392
 1335TIP3    H2 3883   1.653   5.640   1.332
 1336TIP3   OH2 3884   1.668   5.529   0.120
 1336TIP3    H1 3885   1.732   5.579   0.069
 1336TIP3    H2 3886   1.631   5.467   0.058
 1337TIP3   OH2 3887   0.743   4.107   1.958
 1337TIP3    H1 3888   0.712   4.194   1.984
 1337TIP3    H2 3889   0.786   4.072   2.036
 1338TIP3   OH2 3890   1.545   4.904   0.422
 1338TIP3    H1 3891   1.464   4.903   0.472
 1338TIP3    H2 3892   1.586   4.820   0.442
 1339TIP3   OH2 3893   0.486   5.267   1.577
 1339TIP3    H1 3894   0.526   5.200   1.631
 1339TIP3    H2 3895   0.500   5.349   1.626
 1340TIP3   OH2 3896   1.228   4.140   0.836
 1340TIP3    H1 3897   1.251   4.232   0.845
 1340TIP3    H2 3898   1.134   4.136   0.856
 1341TIP3   OH2 3899   1.431   4.472   1.697
 1341TIP3    H1 3900   1.449   4.547   1.754
 1341TIP3    H2 3901   1.423   4.398   1.756
 1342TIP3   OH2 3902   1.381   3.936   0.946
 1342TIP3    H1 3903   1.392   3.957   1.039
 1342TIP3    H2 3904   1.344   4.016   0.908
 1343TIP3   OH2 3905   1.892   4.382   1.606
 1343TIP3    H1 3906   1.940   4.452   1.650
 1343TIP3    H2 3907   1.946   4.361   1.529
 1344TIP3   OH2 3908   1.729   4.647   1.041
 1344TIP3    H1 3909   1.648   4.598   1.027
 1344TIP3    H2 3910   1.784   4.588   1.092
 1345TIP3   OH2 3911   1.654   5.531   1.015
 1345TIP3    H1 3912   1.615   5.577   0.942
 1345TIP3    H2 3913   1.748   5.533   0.998
 1346TIP3   OH2 3914   0.457   5.549   1.955
 1346TIP3    H1 3915   0.536   5.498   1.973
 1346TIP3    H2 3916   0.388   5.483   1.944
 1347TIP3   OH2 3917   0.885   5.563   2.004
 1347TIP3    H1 3918   0.974   5.598   2.012
 1347TIP3    H2 3919   0.895   5.488   1.945
 1348TIP3   OH2 3920   1.544   5.413   1.790
 1348TIP3    H1 3921   1.568   5.355   1.717
 1348TIP3    H2 3922   1.622   5.467   1.804
 1349TIP3   OH2 3923   0.553   4.954   2.168
 1349TIP3    H1 3924   0.560   4.859   2.179
 1349TIP3    H2 3925   0.470   4.968   2.123
 1350TIP3   OH2 3926   1.175   5.005   1.944
 1350TIP3    H1 3927   1.097   4.994   1.890
 1350TIP3    H2 3928   1.210   4.917   1.956
 1351TIP3   OH2 3929   1.668   5.110   1.604
 1351TIP3    H1 3930   1.742   5.133   1.547
 1351TIP3    H2 3931   1.594   5.159   1.568
 1352TIP3   OH2 3932   0.661   4.688   2.157
 1352TIP3    H1 3933   0.729   4.681   2.089
 1352TIP3    H2 3934   0.708   4.718   2.234
 1353TIP3   OH2 3935   1.052   4.594   1.838
 1353TIP3    H1 3936   0.963   4.621   1.857
 1353TIP3    H2 3937   1.066   4.618   1.746
 1354TIP3   OH2 3938   4.966   9.153   7.938
 1354TIP3    H1 3939   4.887   9.206   7.926
 1354TIP3    H2 3940   4.971   9.137   8.032
 1355TIP3   OH2 3941   1.164   4.371   1.947
 1355TIP3    H1 3942   1.146   4.296   1.890
 1355TIP3    H2 3943   1.124   4.446   1.902
 1356TIP3   OH2 3944   1.124   4.179   1.748
 1356TIP3    H1 3945   1.140   4.241   1.677
 1356TIP3    H2 3946   1.038   4.141   1.729
 1357TIP3   OH2 3947   1.156   4.665   1.587
 1357TIP3    H1 3948   1.242   4.684   1.550
 1357TIP3    H2 3949   1.100   4.737   1.557
 1358TIP3   OH2 3950   1.746   4.675   2.004
 1358TIP3    H1 3951   1.777   4.612   2.070
 1358TIP3    H2 3952   1.805   4.750   2.013
 1359TIP3   OH2 3953   1.803   4.914   1.734
 1359TIP3    H1 3954   1.746   4.982   1.698
 1359TIP3    H2 3955   1.890   4.936   1.699
 1360TIP3   OH2 3956   1.029   4.449   2.196
 1360TIP3    H1 3957   0.969   4.376   2.212
 1360TIP3    H2 3958   1.053   4.441   2.103
 1361TIP3   OH2 3959   1.276   3.984   1.869
 1361TIP3    H1 3960   1.228   4.055   1.827
 1361TIP3    H2 3961   1.215   3.911   1.869
 1362TIP3   OH2 3962   1.437   4.383   2.007
 1362TIP3    H1 3963   1.448   4.371   2.101
 1362TIP3    H2 3964   1.343   4.373   1.992
 1363TIP3   OH2 3965   1.671   4.347   1.833
 1363TIP3    H1 3966   1.597   4.355   1.894
 1363TIP3    H2 3967   1.747   4.339   1.890
 1364TIP3   OH2 3968   1.881   4.322   2.007
 1364TIP3    H1 3969   1.898   4.236   2.044
 1364TIP3    H2 3970   1.856   4.376   2.082
 1365TIP3   OH2 3971   0.866   4.235   2.276
 1365TIP3    H1 3972   0.868   4.146   2.242
 1365TIP3    H2 3973   0.903   4.229   2.363
 1366TIP3   OH2 3974   1.326   3.928   2.134
 1366TIP3    H1 3975   1.395   3.862   2.122
 1366TIP3    H2 3976   1.300   3.952   2.045
 1367TIP3   OH2 3977   1.448   4.136   2.263
 1367TIP3    H1 3978   1.408   4.061   2.218
 1367TIP3    H2 3979   1.381   4.204   2.259
 1368TIP3   OH2 3980   1.928   5.576   0.984
 1368TIP3    H1 3981   1.957   5.599   1.072
 1368TIP3    H2 3982   1.968   5.642   0.927
 1369TIP3   OH2 3983   1.976   5.595   1.261
 1369TIP3    H1 3984   1.919   5.518   1.254
 1369TIP3    H2 3985   2.040   5.573   1.328
 1370TIP3   OH2 3986   2.012   5.316   1.837
 1370TIP3    H1 3987   1.939   5.327   1.898
 1370TIP3    H2 3988   2.059   5.399   1.840
 1371TIP3   OH2 3989   1.850   4.869   0.460
 1371TIP3    H1 3990   1.906   4.940   0.429
 1371TIP3    H2 3991   1.887   4.844   0.544
 1372TIP3   OH2 3992   1.988   4.794   0.689
 1372TIP3    H1 3993   1.963   4.718   0.741
 1372TIP3    H2 3994   2.072   4.822   0.726
 1373TIP3   OH2 3995   2.011   5.098   1.074
 1373TIP3    H1 3996   2.060   5.030   1.027
 1373TIP3    H2 3997   2.012   5.173   1.015
 1374TIP3   OH2 3998   1.800   5.380   1.267
 1374TIP3    H1 3999   1.741   5.439   1.313
 1374TIP3    H2 4000   1.745   5.336   1.202
 1375TIP3   OH2 4001   1.887   4.692   0.246
 1375TIP3    H1 4002   1.832   4.614   0.251
 1375TIP3    H2 4003   1.867   4.742   0.326
 1376TIP3   OH2 4004   1.931   4.569   0.831
 1376TIP3    H1 4005   1.902   4.482   0.804
 1376TIP3    H2 4006   1.879   4.589   0.908
 1377TIP3   OH2 4007   0.429   4.642   1.509
 1377TIP3    H1 4008   0.489   4.671   1.441
 1377TIP3    H2 4009   0.485   4.599   1.574
 1378TIP3   OH2 4010   2.054   4.974   1.638
 1378TIP3    H1 4011   2.112   4.900   1.621
 1378TIP3    H2 4012   2.082   5.042   1.577
 1379TIP3   OH2 4013   2.200   4.745   1.629
 1379TIP3    H1 4014   2.127   4.692   1.660
 1379TIP3    H2 4015   2.278   4.692   1.648
 1380TIP3   OH2 4016   1.854   4.313   0.736
 1380TIP3    H1 4017   1.901   4.230   0.742
 1380TIP3    H2 4018   1.792   4.301   0.664
 1381TIP3   OH2 4019   1.965   4.483   1.186
 1381TIP3    H1 4020   2.049   4.504   1.144
 1381TIP3    H2 4021   1.969   4.530   1.270
 1382TIP3   OH2 4022   1.987   4.614   1.427
 1382TIP3    H1 4023   1.905   4.634   1.472
 1382TIP3    H2 4024   2.014   4.697   1.387
 1383TIP3   OH2 4025   0.612   4.286   2.180
 1383TIP3    H1 4026   0.697   4.275   2.222
 1383TIP3    H2 4027   0.566   4.204   2.197
 1384TIP3   OH2 4028   2.439   4.199   1.941
 1384TIP3    H1 4029   2.507   4.138   1.914
 1384TIP3    H2 4030   2.414   4.245   1.861
 1385TIP3   OH2 4031   1.945   4.057   0.699
 1385TIP3    H1 4032   1.944   3.968   0.736
 1385TIP3    H2 4033   1.884   4.053   0.626
 1386TIP3   OH2 4034   0.367   4.319   1.719
 1386TIP3    H1 4035   0.384   4.274   1.636
 1386TIP3    H2 4036   0.444   4.375   1.732
 1387TIP3   OH2 4037   2.285   4.329   1.750
 1387TIP3    H1 4038   2.222   4.363   1.813
 1387TIP3    H2 4039   2.243   4.252   1.713
 1388TIP3   OH2 4040   1.971   3.880   0.407
 1388TIP3    H1 4041   1.948   3.829   0.329
 1388TIP3    H2 4042   1.972   3.971   0.377
 1389TIP3   OH2 4043   1.535   5.462   0.645
 1389TIP3    H1 4044   1.575   5.476   0.559
 1389TIP3    H2 4045   1.560   5.539   0.696
 1390TIP3   OH2 4046   0.535   3.882   1.960
 1390TIP3    H1 4047   0.538   3.970   1.998
 1390TIP3    H2 4048   0.556   3.895   1.867
 1391TIP3   OH2 4049   0.612   5.322   2.002
 1391TIP3    H1 4050   0.523   5.292   1.986
 1391TIP3    H2 4051   0.634   5.286   2.089
 1392TIP3   OH2 4052   0.838   5.344   1.553
 1392TIP3    H1 4053   0.775   5.404   1.514
 1392TIP3    H2 4054   0.916   5.352   1.499
 1393TIP3   OH2 4055   1.205   5.594   1.725
 1393TIP3    H1 4056   1.258   5.588   1.805
 1393TIP3    H2 4057   1.260   5.643   1.663
 1394TIP3   OH2 4058   1.369   5.733   1.556
 1394TIP3    H1 4059   1.406   5.676   1.489
 1394TIP3    H2 4060   1.445   5.777   1.595
 1395TIP3   OH2 4061   2.196   4.080   1.675
 1395TIP3    H1 4062   2.105   4.053   1.659
 1395TIP3    H2 4063   2.246   3.998   1.672
 1396TIP3   OH2 4064   0.472   5.600   1.592
 1396TIP3    H1 4065   0.379   5.616   1.576
 1396TIP3    H2 4066   0.496   5.664   1.659
 1397TIP3   OH2 4067   0.690   5.540   1.428
 1397TIP3    H1 4068   0.612   5.565   1.477
 1397TIP3    H2 4069   0.660   5.534   1.337
 1398TIP3   OH2 4070   1.123   5.605   1.240
 1398TIP3    H1 4071   1.060   5.608   1.168
 1398TIP3    H2 4072   1.131   5.696   1.269
 1399TIP3   OH2 4073   1.379   5.536   1.345
 1399TIP3    H1 4074   1.371   5.443   1.321
 1399TIP3    H2 4075   1.306   5.579   1.300
 1400TIP3   OH2 4076   1.639   5.750   1.189
 1400TIP3    H1 4077   1.607   5.828   1.143
 1400TIP3    H2 4078   1.628   5.678   1.126
 1401TIP3   OH2 4079   0.374   5.348   1.340
 1401TIP3    H1 4080   0.422   5.322   1.419
 1401TIP3    H2 4081   0.427   5.316   1.267
 1402TIP3   OH2 4082   0.570   5.235   1.182
 1402TIP3    H1 4083   0.578   5.155   1.234
 1402TIP3    H2 4084   0.658   5.273   1.185
 1403TIP3   OH2 4085   0.838   5.297   1.206
 1403TIP3    H1 4086   0.860   5.203   1.209
 1403TIP3    H2 4087   0.906   5.339   1.258
 1404TIP3   OH2 4088   1.405   3.984   1.223
 1404TIP3    H1 4089   1.419   3.894   1.251
 1404TIP3    H2 4090   1.476   4.034   1.262
 1405TIP3   OH2 4091   1.928   3.880   1.117
 1405TIP3    H1 4092   1.969   3.966   1.105
 1405TIP3    H2 4093   1.840   3.901   1.150
 1406TIP3   OH2 4094   2.039   4.102   1.004
 1406TIP3    H1 4095   2.116   4.054   0.973
 1406TIP3    H2 4096   2.057   4.193   0.981
 1407TIP3   OH2 4097   1.672   3.860   1.223
 1407TIP3    H1 4098   1.623   3.828   1.147
 1407TIP3    H2 4099   1.666   3.789   1.287
 1408TIP3   OH2 4100   1.596   5.474   0.373
 1408TIP3    H1 4101   1.551   5.390   0.364
 1408TIP3    H2 4102   1.630   5.492   0.285
 1409TIP3   OH2 4103   0.862   3.969   2.187
 1409TIP3    H1 4104   0.830   3.898   2.242
 1409TIP3    H2 4105   0.956   3.973   2.206
 1410TIP3   OH2 4106   1.110   3.967   2.308
 1410TIP3    H1 4107   1.188   3.948   2.256
 1410TIP3    H2 4108   1.104   3.894   2.370
 1411TIP3   OH2 4109   1.955   4.075   2.095
 1411TIP3    H1 4110   1.968   4.041   2.184
 1411TIP3    H2 4111   2.040   4.067   2.053
 1412TIP3   OH2 4112   1.860   5.591   1.581
 1412TIP3    H1 4113   1.788   5.567   1.523
 1412TIP3    H2 4114   1.853   5.686   1.590
 1413TIP3   OH2 4115   3.146   4.985   0.310
 1413TIP3    H1 4116   3.117   5.073   0.290
 1413TIP3    H2 4117   3.072   4.929   0.289
 1414TIP3   OH2 4118   3.139   4.969   0.738
 1414TIP3    H1 4119   3.192   4.956   0.817
 1414TIP3    H2 4120   3.095   4.885   0.725
 1415TIP3   OH2 4121   2.448   4.838   1.102
 1415TIP3    H1 4122   2.486   4.781   1.168
 1415TIP3    H2 4123   2.521   4.856   1.042
 1416TIP3   OH2 4124   3.405   5.283   0.405
 1416TIP3    H1 4125   3.393   5.217   0.473
 1416TIP3    H2 4126   3.424   5.363   0.453
 1417TIP3   OH2 4127   2.441   5.275   0.781
 1417TIP3    H1 4128   2.424   5.181   0.788
 1417TIP3    H2 4129   2.535   5.281   0.764
 1418TIP3   OH2 4130   2.114   4.506   0.631
 1418TIP3    H1 4131   2.075   4.531   0.714
 1418TIP3    H2 4132   2.104   4.410   0.627
 1419TIP3   OH2 4133   2.238   4.817   0.789
 1419TIP3    H1 4134   2.288   4.739   0.814
 1419TIP3    H2 4135   2.305   4.884   0.774
 1420TIP3   OH2 4136   3.060   5.708   0.423
 1420TIP3    H1 4137   3.093   5.641   0.363
 1420TIP3    H2 4138   3.060   5.666   0.509
 1421TIP3   OH2 4139   2.951   5.191   0.741
 1421TIP3    H1 4140   2.997   5.111   0.716
 1421TIP3    H2 4141   3.019   5.248   0.776
 1422TIP3   OH2 4142   3.991   4.514   0.757
 1422TIP3    H1 4143   4.000   4.599   0.800
 1422TIP3    H2 4144   4.021   4.528   0.668
 1423TIP3   OH2 4145   3.354   4.684   0.782
 1423TIP3    H1 4146   3.385   4.598   0.812
 1423TIP3    H2 4147   3.311   4.666   0.699
 1424TIP3   OH2 4148   2.749   4.375   0.752
 1424TIP3    H1 4149   2.699   4.423   0.685
 1424TIP3    H2 4150   2.736   4.283   0.730
 1425TIP3   OH2 4151   3.416   4.451   0.383
 1425TIP3    H1 4152   3.477   4.443   0.457
 1425TIP3    H2 4153   3.470   4.488   0.312
 1426TIP3   OH2 4154   2.371   4.597   0.889
 1426TIP3    H1 4155   2.457   4.581   0.929
 1426TIP3    H2 4156   2.361   4.526   0.826
 1427TIP3   OH2 4157   2.748   4.740   0.691
 1427TIP3    H1 4158   2.842   4.728   0.697
 1427TIP3    H2 4159   2.716   4.659   0.650
 1428TIP3   OH2 4160   4.029   4.733   0.929
 1428TIP3    H1 4161   3.940   4.767   0.923
 1428TIP3    H2 4162   4.055   4.751   1.019
 1429TIP3   OH2 4163   2.689   4.348   1.202
 1429TIP3    H1 4164   2.644   4.392   1.130
 1429TIP3    H2 4165   2.633   4.362   1.278
 1430TIP3   OH2 4166   3.050   5.209   0.179
 1430TIP3    H1 4167   3.013   5.178   0.097
 1430TIP3    H2 4168   2.991   5.279   0.207
 1431TIP3   OH2 4169   2.778   5.120   0.947
 1431TIP3    H1 4170   2.726   5.192   0.982
 1431TIP3    H2 4171   2.828   5.159   0.875
 1432TIP3   OH2 4172   3.569   4.458   0.609
 1432TIP3    H1 4173   3.521   4.443   0.691
 1432TIP3    H2 4174   3.622   4.536   0.626
 1433TIP3   OH2 4175   2.610   4.470   0.968
 1433TIP3    H1 4176   2.665   4.542   0.999
 1433TIP3    H2 4177   2.657   4.434   0.893
 1434TIP3   OH2 4178   2.627   5.323   1.060
 1434TIP3    H1 4179   2.613   5.412   1.028
 1434TIP3    H2 4180   2.549   5.303   1.111
 1435TIP3   OH2 4181   2.039   5.039   0.363
 1435TIP3    H1 4182   1.981   5.081   0.299
 1435TIP3    H2 4183   2.081   5.112   0.408
 1436TIP3   OH2 4184   3.437   5.529   0.545
 1436TIP3    H1 4185   3.351   5.521   0.587
 1436TIP3    H2 4186   3.434   5.614   0.501
 1437TIP3   OH2 4187   3.786   4.408   0.926
 1437TIP3    H1 4188   3.701   4.425   0.887
 1437TIP3    H2 4189   3.849   4.436   0.859
 1438TIP3   OH2 4190   3.032   4.067   0.936
 1438TIP3    H1 4191   3.025   3.974   0.959
 1438TIP3    H2 4192   2.952   4.106   0.970
 1439TIP3   OH2 4193   3.156   5.543   0.221
 1439TIP3    H1 4194   3.206   5.463   0.210
 1439TIP3    H2 4195   3.219   5.613   0.202
 1440TIP3   OH2 4196   3.302   5.318   0.153
 1440TIP3    H1 4197   3.222   5.266   0.160
 1440TIP3    H2 4198   3.349   5.300   0.235
 1441TIP3   OH2 4199   3.668   5.417   0.896
 1441TIP3    H1 4200   3.653   5.342   0.839
 1441TIP3    H2 4201   3.654   5.493   0.839
 1442TIP3   OH2 4202   2.967   4.823   0.166
 1442TIP3    H1 4203   2.888   4.877   0.157
 1442TIP3    H2 4204   3.001   4.816   0.077
 1443TIP3   OH2 4205   6.202   9.191   7.945
 1443TIP3    H1 4206   6.284   9.240   7.951
 1443TIP3    H2 4207   6.219   9.110   7.993
 1444TIP3   OH2 4208   3.853   5.076   0.766
 1444TIP3    H1 4209   3.769   5.122   0.766
 1444TIP3    H2 4210   3.888   5.089   0.678
 1445TIP3   OH2 4211   3.327   4.906   0.123
 1445TIP3    H1 4212   3.271   4.937   0.194
 1445TIP3    H2 4213   3.409   4.883   0.166
 1446TIP3   OH2 4214   3.555   4.932   1.081
 1446TIP3    H1 4215   3.554   5.017   1.126
 1446TIP3    H2 4216   3.473   4.930   1.031
 1447TIP3   OH2 4217   2.577   4.909   0.548
 1447TIP3    H1 4218   2.535   4.860   0.476
 1447TIP3    H2 4219   2.640   4.847   0.585
 1448TIP3   OH2 4220   2.697   5.312   0.671
 1448TIP3    H1 4221   2.666   5.298   0.581
 1448TIP3    H2 4222   2.783   5.271   0.674
 1449TIP3   OH2 4223   2.659   4.876   0.918
 1449TIP3    H1 4224   2.693   4.836   0.839
 1449TIP3    H2 4225   2.706   4.959   0.926
 1450TIP3   OH2 4226   3.205   5.517   0.686
 1450TIP3    H1 4227   3.188   5.599   0.733
 1450TIP3    H2 4228   3.187   5.449   0.751
 1451TIP3   OH2 4229   2.822   5.417   1.233
 1451TIP3    H1 4230   2.760   5.473   1.279
 1451TIP3    H2 4231   2.768   5.367   1.172
 1452TIP3   OH2 4232   9.691   0.149   7.955
 1452TIP3    H1 4233   9.745   0.209   8.005
 1452TIP3    H2 4234   9.692   0.184   7.866
 1453TIP3   OH2 4235   2.579   4.962   1.387
 1453TIP3    H1 4236   2.583   5.056   1.400
 1453TIP3    H2 4237   2.486   4.943   1.374
 1454TIP3   OH2 4238   2.897   5.436   0.219
 1454TIP3    H1 4239   2.976   5.488   0.233
 1454TIP3    H2 4240   2.838   5.494   0.172
 1455TIP3   OH2 4241   2.611   5.574   1.318
 1455TIP3    H1 4242   2.588   5.586   1.225
 1455TIP3    H2 4243   2.527   5.562   1.362
 1456TIP3   OH2 4244   6.932   8.630   7.981
 1456TIP3    H1 4245   6.861   8.657   8.039
 1456TIP3    H2 4246   6.942   8.702   7.919
 1457TIP3   OH2 4247   2.446   4.787   0.334
 1457TIP3    H1 4248   2.365   4.829   0.307
 1457TIP3    H2 4249   2.418   4.702   0.370
 1458TIP3   OH2 4250   2.211   5.137   1.267
 1458TIP3    H1 4251   2.140   5.121   1.204
 1458TIP3    H2 4252   2.244   5.050   1.288
 1459TIP3   OH2 4253   2.052   5.332   0.927
 1459TIP3    H1 4254   2.139   5.365   0.947
 1459TIP3    H2 4255   1.993   5.405   0.949
 1460TIP3   OH2 4256   3.899   5.765   0.971
 1460TIP3    H1 4257   3.903   5.672   0.989
 1460TIP3    H2 4258   3.821   5.796   1.017
 1461TIP3   OH2 4259   3.011   5.565   1.098
 1461TIP3    H1 4260   3.001   5.655   1.127
 1461TIP3    H2 4261   2.943   5.517   1.146
 1462TIP3   OH2 4262   2.784   5.659   0.049
 1462TIP3    H1 4263   2.735   5.645  -0.032
 1462TIP3    H2 4264   2.754   5.744   0.081
 1463TIP3   OH2 4265   2.241   5.551   0.436
 1463TIP3    H1 4266   2.284   5.539   0.521
 1463TIP3    H2 4267   2.190   5.470   0.423
 1464TIP3   OH2 4268   9.494   0.984   7.716
 1464TIP3    H1 4269   9.562   0.944   7.662
 1464TIP3    H2 4270   9.530   0.982   7.805
 1465TIP3   OH2 4271   3.044   5.624  -0.024
 1465TIP3    H1 4272   2.953   5.631   0.004
 1465TIP3    H2 4273   3.089   5.585   0.051
 1466TIP3   OH2 4274   3.804   4.880   1.230
 1466TIP3    H1 4275   3.719   4.890   1.188
 1466TIP3    H2 4276   3.823   4.787   1.223
 1467TIP3   OH2 4277   2.412   5.322   1.233
 1467TIP3    H1 4278   2.462   5.307   1.314
 1467TIP3    H2 4279   2.338   5.262   1.239
 1468TIP3   OH2 4280   2.782   4.133   1.055
 1468TIP3    H1 4281   2.698   4.103   1.021
 1468TIP3    H2 4282   2.761   4.213   1.104
 1469TIP3   OH2 4283   3.328   4.254   1.256
 1469TIP3    H1 4284   3.396   4.229   1.318
 1469TIP3    H2 4285   3.246   4.240   1.304
 1470TIP3   OH2 4286   3.560   4.667   1.170
 1470TIP3    H1 4287   3.521   4.664   1.257
 1470TIP3    H2 4288   3.544   4.757   1.140
 1471TIP3   OH2 4289   9.755   0.116   7.654
 1471TIP3    H1 4290   9.677   0.063   7.637
 1471TIP3    H2 4291   9.822   0.053   7.679
 1472TIP3   OH2 4292   2.936   4.321   0.065
 1472TIP3    H1 4293   2.928   4.274   0.147
 1472TIP3    H2 4294   2.857   4.299   0.016
 1473TIP3   OH2 4295   2.750   4.673   1.082
 1473TIP3    H1 4296   2.701   4.678   1.164
 1473TIP3    H2 4297   2.727   4.753   1.035
 1474TIP3   OH2 4298   2.618   4.526   0.559
 1474TIP3    H1 4299   2.526   4.552   0.552
 1474TIP3    H2 4300   2.631   4.462   0.489
 1475TIP3   OH2 4301   3.101   4.628   0.305
 1475TIP3    H1 4302   3.052   4.699   0.263
 1475TIP3    H2 4303   3.161   4.598   0.237
 1476TIP3   OH2 4304   3.277   4.877   1.378
 1476TIP3    H1 4305   3.251   4.810   1.441
 1476TIP3    H2 4306   3.369   4.895   1.397
 1477TIP3   OH2 4307   3.258   4.627   0.534
 1477TIP3    H1 4308   3.192   4.651   0.468
 1477TIP3    H2 4309   3.307   4.556   0.493
 1478TIP3   OH2 4310   2.574   4.672   1.293
 1478TIP3    H1 4311   2.579   4.737   1.364
 1478TIP3    H2 4312   2.550   4.591   1.337
 1479TIP3   OH2 4313   5.973   8.861   7.943
 1479TIP3    H1 4314   5.986   8.773   7.908
 1479TIP3    H2 4315   5.895   8.894   7.899
 1480TIP3   OH2 4316   2.149   4.322   0.897
 1480TIP3    H1 4317   2.236   4.329   0.936
 1480TIP3    H2 4318   2.166   4.308   0.804
 1481TIP3   OH2 4319   2.036   4.118   0.289
 1481TIP3    H1 4320   2.115   4.170   0.301
 1481TIP3    H2 4321   1.965   4.182   0.293
 1482TIP3   OH2 4322   3.305   4.886   0.955
 1482TIP3    H1 4323   3.329   4.819   0.891
 1482TIP3    H2 4324   3.260   4.838   1.025
 1483TIP3   OH2 4325   3.012   4.385   0.655
 1483TIP3    H1 4326   2.930   4.386   0.705
 1483TIP3    H2 4327   3.078   4.356   0.718
 1484TIP3   OH2 4328   2.371   4.397   0.709
 1484TIP3    H1 4329   2.304   4.437   0.654
 1484TIP3    H2 4330   2.428   4.350   0.648
 1485TIP3   OH2 4331   2.656   4.398   0.302
 1485TIP3    H1 4332   2.740   4.441   0.316
 1485TIP3    H2 4333   2.601   4.465   0.260
 1486TIP3   OH2 4334   3.422   4.422   0.843
 1486TIP3    H1 4335   3.407   4.441   0.936
 1486TIP3    H2 4336   3.353   4.361   0.819
 1487TIP3   OH2 4337   2.453   4.517   0.146
 1487TIP3    H1 4338   2.384   4.473   0.097
 1487TIP3    H2 4339   2.520   4.537   0.079
 1488TIP3   OH2 4340   3.620   6.120   1.060
 1488TIP3    H1 4341   3.617   6.137   0.965
 1488TIP3    H2 4342   3.699   6.166   1.090
 1489TIP3   OH2 4343   2.559   5.230   1.469
 1489TIP3    H1 4344   2.640   5.251   1.517
 1489TIP3    H2 4345   2.489   5.242   1.534
 1490TIP3   OH2 4346   3.023   4.700   0.737
 1490TIP3    H1 4347   3.081   4.643   0.687
 1490TIP3    H2 4348   3.021   4.662   0.825
 1491TIP3   OH2 4349   2.702   4.117   0.677
 1491TIP3    H1 4350   2.619   4.087   0.713
 1491TIP3    H2 4351   2.742   4.038   0.639
 1492TIP3   OH2 4352   3.003   4.604   1.000
 1492TIP3    H1 4353   2.919   4.639   1.030
 1492TIP3    H2 4354   3.068   4.652   1.051
 1493TIP3   OH2 4355   2.748   4.987   0.129
 1493TIP3    H1 4356   2.670   4.939   0.102
 1493TIP3    H2 4357   2.727   5.024   0.214
 1494TIP3   OH2 4358   3.617   5.213   0.717
 1494TIP3    H1 4359   3.656   5.263   0.644
 1494TIP3    H2 4360   3.539   5.174   0.679
 1495TIP3   OH2 4361   3.205   4.301   0.027
 1495TIP3    H1 4362   3.110   4.307   0.037
 1495TIP3    H2 4363   3.236   4.391   0.038
 1496TIP3   OH2 4364   3.136   5.295   1.141
 1496TIP3    H1 4365   3.190   5.284   1.219
 1496TIP3    H2 4366   3.098   5.383   1.150
 1497TIP3   OH2 4367   3.275   4.557   0.094
 1497TIP3    H1 4368   3.369   4.566   0.111
 1497TIP3    H2 4369   3.253   4.633   0.040
 1498TIP3   OH2 4370   2.448   4.995   0.773
 1498TIP3    H1 4371   2.486   4.978   0.687
 1498TIP3    H2 4372   2.512   4.961   0.835
 1499TIP3   OH2 4373   9.440   0.507   7.959
 1499TIP3    H1 4374   9.398   0.593   7.949
 1499TIP3    H2 4375   9.380   0.458   8.016
 1500TIP3   OH2 4376   2.305   4.902   1.405
 1500TIP3    H1 4377   2.311   4.877   1.497
 1500TIP3    H2 4378   2.225   4.862   1.373
 1501TIP3   OH2 4379   3.047   5.037   1.420
 1501TIP3    H1 4380   2.977   4.977   1.393
 1501TIP3    H2 4381   3.127   4.994   1.390
 1502TIP3   OH2 4382   3.281   5.586   1.023
 1502TIP3    H1 4383   3.186   5.573   1.027
 1502TIP3    H2 4384   3.303   5.622   1.108
 1503TIP3   OH2 4385   0.398   0.008   7.903
 1503TIP3    H1 4386   0.333  -0.030   7.844
 1503TIP3    H2 4387   0.418   0.093   7.865
 1504TIP3   OH2 4388   3.913   5.482   0.996
 1504TIP3    H1 4389   3.819   5.472   0.983
 1504TIP3    H2 4390   3.952   5.461   0.911
 1505TIP3   OH2 4391   0.099   0.815   7.909
 1505TIP3    H1 4392   0.084   0.789   7.999
 1505TIP3    H2 4393   0.090   0.733   7.859
 1506TIP3   OH2 4394   3.391   5.080   0.606
 1506TIP3    H1 4395   3.302   5.059   0.635
 1506TIP3    H2 4396   3.425   4.997   0.572
 1507TIP3   OH2 4397   2.530   5.318   0.439
 1507TIP3    H1 4398   2.526   5.394   0.381
 1507TIP3    H2 4399   2.440   5.307   0.470
 1508TIP3   OH2 4400   2.144   4.606   0.227
 1508TIP3    H1 4401   2.171   4.658   0.302
 1508TIP3    H2 4402   2.052   4.629   0.213
 1509TIP3   OH2 4403   2.659   5.092   0.358
 1509TIP3    H1 4404   2.619   5.176   0.379
 1509TIP3    H2 4405   2.634   5.034   0.430
 1510TIP3   OH2 4406   2.832   5.635   0.889
 1510TIP3    H1 4407   2.866   5.710   0.840
 1510TIP3    H2 4408   2.907   5.604   0.940
 1511TIP3   OH2 4409   2.467   5.540   0.284
 1511TIP3    H1 4410   2.380   5.551   0.323
 1511TIP3    H2 4411   2.507   5.627   0.290
 1512TIP3   OH2 4412   3.176   5.301   0.867
 1512TIP3    H1 4413   3.158   5.297   0.961
 1512TIP3    H2 4414   3.262   5.260   0.857
 1513TIP3   OH2 4415   9.717   0.420   7.684
 1513TIP3    H1 4416   9.757   0.456   7.763
 1513TIP3    H2 4417   9.623   0.438   7.693
 1514TIP3   OH2 4418   3.432   5.792   0.900
 1514TIP3    H1 4419   3.363   5.729   0.921
 1514TIP3    H2 4420   3.396   5.844   0.828
 1515TIP3   OH2 4421   2.516   4.411   1.409
 1515TIP3    H1 4422   2.420   4.407   1.408
 1515TIP3    H2 4423   2.541   4.358   1.484
 1516TIP3   OH2 4424   0.090   0.453   7.903
 1516TIP3    H1 4425   0.067   0.413   7.986
 1516TIP3    H2 4426   0.182   0.477   7.912
 1517TIP3   OH2 4427   2.255   5.531   1.049
 1517TIP3    H1 4428   2.312   5.475   1.101
 1517TIP3    H2 4429   2.268   5.619   1.085
 1518TIP3   OH2 4430   9.126   0.517   7.754
 1518TIP3    H1 4431   9.074   0.437   7.747
 1518TIP3    H2 4432   9.117   0.544   7.845
 1519TIP3   OH2 4433   2.545   5.185   0.025
 1519TIP3    H1 4434   2.614   5.161   0.088
 1519TIP3    H2 4435   2.541   5.281   0.030
 1520TIP3   OH2 4436   2.229   4.914   0.211
 1520TIP3    H1 4437   2.168   4.964   0.264
 1520TIP3    H2 4438   2.259   4.976   0.144
 1521TIP3   OH2 4439   3.365   4.481   1.105
 1521TIP3    H1 4440   3.444   4.524   1.138
 1521TIP3    H2 4441   3.354   4.405   1.161
 1522TIP3   OH2 4442   3.276   4.234   0.290
 1522TIP3    H1 4443   3.244   4.256   0.202
 1522TIP3    H2 4444   3.320   4.314   0.320
 1523TIP3   OH2 4445   9.309   0.741   7.927
 1523TIP3    H1 4446   9.239   0.786   7.974
 1523TIP3    H2 4447   9.295   0.763   7.835
 1524TIP3   OH2 4448   2.912   4.458   0.406
 1524TIP3    H1 4449   2.974   4.521   0.370
 1524TIP3    H2 4450   2.941   4.445   0.497
 1525TIP3   OH2 4451   3.207   4.717   1.150
 1525TIP3    H1 4452   3.230   4.761   1.232
 1525TIP3    H2 4453   3.259   4.636   1.151
 1526TIP3   OH2 4454   3.116   4.163   0.505
 1526TIP3    H1 4455   3.098   4.247   0.548
 1526TIP3    H2 4456   3.177   4.186   0.434
 1527TIP3   OH2 4457   2.537   5.454   0.034
 1527TIP3    H1 4458   2.487   5.507  -0.028
 1527TIP3    H2 4459   2.512   5.487   0.120
 1528TIP3   OH2 4460   2.660   4.102   0.307
 1528TIP3    H1 4461   2.621   4.175   0.354
 1528TIP3    H2 4462   2.752   4.125   0.299
 1529TIP3   OH2 4463   3.824   4.607   1.135
 1529TIP3    H1 4464   3.730   4.618   1.149
 1529TIP3    H2 4465   3.829   4.538   1.069
 1530TIP3   OH2 4466   3.484   4.817   0.529
 1530TIP3    H1 4467   3.406   4.765   0.548
 1530TIP3    H2 4468   3.552   4.781   0.585
 1531TIP3   OH2 4469   8.824   0.474   8.015
 1531TIP3    H1 4470   8.909   0.516   8.028
 1531TIP3    H2 4471   8.838   0.417   7.939
 1532TIP3   OH2 4472   2.211   4.388   0.084
 1532TIP3    H1 4473   2.176   4.474   0.110
 1532TIP3    H2 4474   2.134   4.339   0.055
 1533TIP3   OH2 4475   3.458   5.796   0.464
 1533TIP3    H1 4476   3.418   5.849   0.395
 1533TIP3    H2 4477   3.552   5.807   0.451
 1534TIP3   OH2 4478   2.508   4.048   1.047
 1534TIP3    H1 4479   2.421   4.022   1.019
 1534TIP3    H2 4480   2.530   3.988   1.119
 1535TIP3   OH2 4481   2.124   5.297   0.418
 1535TIP3    H1 4482   2.048   5.336   0.462
 1535TIP3    H2 4483   2.102   5.299   0.325
 1536TIP3   OH2 4484   2.260   5.835   1.472
 1536TIP3    H1 4485   2.342   5.841   1.522
 1536TIP3    H2 4486   2.250   5.742   1.453
 1537TIP3   OH2 4487   2.721   5.732   1.514
 1537TIP3    H1 4488   2.812   5.704   1.522
 1537TIP3    H2 4489   2.686   5.680   1.442
 1538TIP3   OH2 4490   9.221   0.757   7.662
 1538TIP3    H1 4491   9.183   0.672   7.684
 1538TIP3    H2 4492   9.251   0.746   7.571
 1539TIP3   OH2 4493   3.337   5.681   1.274
 1539TIP3    H1 4494   3.353   5.611   1.337
 1539TIP3    H2 4495   3.410   5.742   1.285
 1540TIP3   OH2 4496   2.354   5.233   1.659
 1540TIP3    H1 4497   2.372   5.140   1.673
 1540TIP3    H2 4498   2.267   5.235   1.619
 1541TIP3   OH2 4499   8.957   0.310   7.833
 1541TIP3    H1 4500   8.996   0.280   7.915
 1541TIP3    H2 4501   8.946   0.231   7.781
 1542TIP3   OH2 4502   2.977   5.313   1.437
 1542TIP3    H1 4503   2.933   5.335   1.355
 1542TIP3    H2 4504   3.014   5.226   1.422
 1543TIP3   OH2 4505   9.442   0.419   7.701
 1543TIP3    H1 4506   9.436   0.449   7.792
 1543TIP3    H2 4507   9.352   0.416   7.671
 1544TIP3   OH2 4508   3.445   5.359   1.048
 1544TIP3    H1 4509   3.524   5.387   1.000
 1544TIP3    H2 4510   3.383   5.431   1.037
 1545TIP3   OH2 4511   2.461   4.973   1.668
 1545TIP3    H1 4512   2.535   4.963   1.608
 1545TIP3    H2 4513   2.501   4.993   1.752
 1546TIP3   OH2 4514   2.533   4.829   0.072
 1546TIP3    H1 4515   2.504   4.813   0.162
 1546TIP3    H2 4516   2.574   4.746   0.046
 1547TIP3   OH2 4517   2.840   4.864   1.329
 1547TIP3    H1 4518   2.753   4.902   1.342
 1547TIP3    H2 4519   2.867   4.894   1.242
 1548TIP3   OH2 4520   5.926   9.219   7.989
 1548TIP3    H1 4521   5.920   9.190   7.899
 1548TIP3    H2 4522   6.019   9.223   8.008
 1549TIP3   OH2 4523   3.328   5.233   1.396
 1549TIP3    H1 4524   3.398   5.196   1.343
 1549TIP3    H2 4525   3.325   5.178   1.475
 1550TIP3   OH2 4526   0.179   0.316   7.545
 1550TIP3    H1 4527   0.227   0.320   7.463
 1550TIP3    H2 4528   0.247   0.318   7.613
 1551TIP3   OH2 4529   2.941   4.629   1.432
 1551TIP3    H1 4530   2.944   4.560   1.365
 1551TIP3    H2 4531   2.908   4.706   1.385
 1552TIP3   OH2 4532   2.950   4.431   1.228
 1552TIP3    H1 4533   2.976   4.469   1.144
 1552TIP3    H2 4534   2.859   4.407   1.216
 1553TIP3   OH2 4535   2.946   4.966   1.100
 1553TIP3    H1 4536   3.033   5.006   1.094
 1553TIP3    H2 4537   2.890   5.023   1.047
 1554TIP3   OH2 4538   3.544   4.926   1.474
 1554TIP3    H1 4539   3.600   4.849   1.475
 1554TIP3    H2 4540   3.604   5.000   1.472
 1555TIP3   OH2 4541   3.573   5.182   1.211
 1555TIP3    H1 4542   3.519   5.243   1.161
 1555TIP3    H2 4543   3.662   5.198   1.180
 1556TIP3   OH2 4544   2.825   4.707   1.676
 1556TIP3    H1 4545   2.756   4.645   1.696
 1556TIP3    H2 4546   2.853   4.685   1.587
 1557TIP3   OH2 4547   3.064   4.201   1.335
 1557TIP3    H1 4548   3.026   4.281   1.300
 1557TIP3    H2 4549   2.997   4.134   1.320
 1558TIP3   OH2 4550   3.196   4.667   1.536
 1558TIP3    H1 4551   3.186   4.654   1.631
 1558TIP3    H2 4552   3.110   4.647   1.499
 1559TIP3   OH2 4553   3.445   4.625   1.410
 1559TIP3    H1 4554   3.366   4.625   1.463
 1559TIP3    H2 4555   3.516   4.605   1.471
 1560TIP3   OH2 4556   3.682   4.586   1.561
 1560TIP3    H1 4557   3.684   4.491   1.574
 1560TIP3    H2 4558   3.674   4.622   1.649
 1561TIP3   OH2 4559   2.656   4.492   1.741
 1561TIP3    H1 4560   2.663   4.404   1.706
 1561TIP3    H2 4561   2.691   4.486   1.830
 1562TIP3   OH2 4562   3.129   4.173   1.600
 1562TIP3    H1 4563   3.197   4.106   1.593
 1562TIP3    H2 4564   3.100   4.187   1.510
 1563TIP3   OH2 4565   3.230   4.386   1.744
 1563TIP3    H1 4566   3.197   4.314   1.690
 1563TIP3    H2 4567   3.159   4.449   1.746
 1564TIP3   OH2 4568   8.945   0.989   7.849
 1564TIP3    H1 4569   9.023   1.027   7.808
 1564TIP3    H2 4570   8.872   1.039   7.814
 1565TIP3   OH2 4571   1.922   5.036   0.032
 1565TIP3    H1 4572   1.946   5.074  -0.052
 1565TIP3    H2 4573   1.951   4.945   0.027
 1566TIP3   OH2 4574   1.823   5.613   0.515
 1566TIP3    H1 4575   1.793   5.561   0.440
 1566TIP3    H2 4576   1.884   5.555   0.561
 1567TIP3   OH2 4577   1.997   5.446   0.653
 1567TIP3    H1 4578   1.988   5.373   0.714
 1567TIP3    H2 4579   2.050   5.511   0.699
 1568TIP3   OH2 4580   3.734   5.838   0.467
 1568TIP3    H1 4581   3.747   5.858   0.560
 1568TIP3    H2 4582   3.784   5.905   0.420
 1569TIP3   OH2 4583   3.747   5.869   0.746
 1569TIP3    H1 4584   3.699   5.786   0.743
 1569TIP3    H2 4585   3.817   5.854   0.809
 1570TIP3   OH2 4586   3.811   5.572   1.318
 1570TIP3    H1 4587   3.737   5.583   1.378
 1570TIP3    H2 4588   3.857   5.656   1.322
 1571TIP3   OH2 4589   0.368   0.469   7.932
 1571TIP3    H1 4590   0.425   0.540   7.904
 1571TIP3    H2 4591   0.412   0.430   8.007
 1572TIP3   OH2 4592   3.762   4.943   0.127
 1572TIP3    H1 4593   3.695   4.911   0.188
 1572TIP3    H2 4594   3.829   4.982   0.183
 1573TIP3   OH2 4595   3.801   5.351   0.559
 1573TIP3    H1 4596   3.855   5.282   0.519
 1573TIP3    H2 4597   3.807   5.425   0.499
 1574TIP3   OH2 4598   3.602   5.634   0.744
 1574TIP3    H1 4599   3.535   5.679   0.796
 1574TIP3    H2 4600   3.554   5.595   0.671
 1575TIP3   OH2 4601   0.344   0.257   7.766
 1575TIP3    H1 4602   0.260   0.220   7.793
 1575TIP3    H2 4603   0.357   0.332   7.823
 1576TIP3   OH2 4604   6.744   9.160   7.714
 1576TIP3    H1 4605   6.772   9.155   7.623
 1576TIP3    H2 4606   6.722   9.070   7.738
 1577TIP3   OH2 4607   3.552   4.813   0.261
 1577TIP3    H1 4608   3.562   4.718   0.249
 1577TIP3    H2 4609   3.532   4.823   0.354
 1578TIP3   OH2 4610   2.186   4.873   1.051
 1578TIP3    H1 4611   2.183   4.851   0.958
 1578TIP3    H2 4612   2.279   4.875   1.072
 1579TIP3   OH2 4613   3.835   5.227   1.124
 1579TIP3    H1 4614   3.900   5.160   1.106
 1579TIP3    H2 4615   3.860   5.301   1.070
 1580TIP3   OH2 4616   4.011   5.013   1.110
 1580TIP3    H1 4617   3.936   4.970   1.152
 1580TIP3    H2 4618   4.085   4.955   1.129
 1581TIP3   OH2 4619   6.715   8.887   7.774
 1581TIP3    H1 4620   6.805   8.856   7.769
 1581TIP3    H2 4621   6.675   8.836   7.843
 1582TIP3   OH2 4622   3.557   4.541   0.151
 1582TIP3    H1 4623   3.599   4.456   0.164
 1582TIP3    H2 4624   3.598   4.576   0.072
 1583TIP3   OH2 4625   3.699   4.696   0.670
 1583TIP3    H1 4626   3.780   4.715   0.622
 1583TIP3    H2 4627   3.712   4.738   0.756
 1584TIP3   OH2 4628   3.769   4.847   0.897
 1584TIP3    H1 4629   3.698   4.875   0.955
 1584TIP3    H2 4630   3.800   4.928   0.856
 1585TIP3   OH2 4631   2.397   4.560   1.668
 1585TIP3    H1 4632   2.491   4.555   1.687
 1585TIP3    H2 4633   2.361   4.479   1.704
 1586TIP3   OH2 4634   3.663   4.289   0.197
 1586TIP3    H1 4635   3.707   4.271   0.280
 1586TIP3    H2 4636   3.602   4.216   0.187
 1587TIP3   OH2 4637   2.393   4.303   1.027
 1587TIP3    H1 4638   2.441   4.221   1.036
 1587TIP3    H2 4639   2.458   4.366   0.997
 1588TIP3   OH2 4640   2.213   4.581   1.119
 1588TIP3    H1 4641   2.260   4.570   1.036
 1588TIP3    H2 4642   2.212   4.676   1.132
 1589TIP3   OH2 4643   6.981   8.808   7.776
 1589TIP3    H1 4644   6.999   8.783   7.685
 1589TIP3    H2 4645   7.041   8.880   7.794
 1590TIP3   OH2 4646   2.130   4.236   0.629
 1590TIP3    H1 4647   2.063   4.172   0.654
 1590TIP3    H2 4648   2.194   4.185   0.580
 1591TIP3   OH2 4649   3.323   5.735   0.142
 1591TIP3    H1 4650   3.361   5.744   0.054
 1591TIP3    H2 4651   3.337   5.821   0.182
 1592TIP3   OH2 4652   2.374   4.118   1.453
 1592TIP3    H1 4653   2.311   4.120   1.525
 1592TIP3    H2 4654   2.327   4.157   1.379
 1593TIP3   OH2 4655   2.384   5.556   1.483
 1593TIP3    H1 4656   2.291   5.530   1.479
 1593TIP3    H2 4657   2.407   5.548   1.575
 1594TIP3   OH2 4658   2.603   5.600   1.036
 1594TIP3    H1 4659   2.551   5.674   1.004
 1594TIP3    H2 4660   2.687   5.609   0.992
 1595TIP3   OH2 4661   2.994   5.831   1.175
 1595TIP3    H1 4662   3.031   5.824   1.263
 1595TIP3    H2 4663   3.058   5.885   1.127
 1596TIP3   OH2 4664   3.189   5.984   1.052
 1596TIP3    H1 4665   3.253   5.933   1.002
 1596TIP3    H2 4666   3.242   6.044   1.105
 1597TIP3   OH2 4667   2.260   5.830   1.086
 1597TIP3    H1 4668   2.169   5.846   1.059
 1597TIP3    H2 4669   2.279   5.900   1.148
 1598TIP3   OH2 4670   2.490   5.830   0.934
 1598TIP3    H1 4671   2.407   5.832   0.981
 1598TIP3    H2 4672   2.467   5.851   0.843
 1599TIP3   OH2 4673   2.903   5.849   0.727
 1599TIP3    H1 4674   2.828   5.859   0.668
 1599TIP3    H2 4675   2.914   5.934   0.768
 1600TIP3   OH2 4676   3.163   5.776   0.771
 1600TIP3    H1 4677   3.073   5.801   0.753
 1600TIP3    H2 4678   3.215   5.843   0.727
 1601TIP3   OH2 4679   3.362   5.945   0.674
 1601TIP3    H1 4680   3.365   6.034   0.639
 1601TIP3    H2 4681   3.393   5.890   0.602
 1602TIP3   OH2 4682   2.166   5.619   0.800
 1602TIP3    H1 4683   2.187   5.595   0.890
 1602TIP3    H2 4684   2.241   5.589   0.749
 1603TIP3   OH2 4685   2.380   5.515   0.670
 1603TIP3    H1 4686   2.390   5.430   0.712
 1603TIP3    H2 4687   2.468   5.553   0.671
 1604TIP3   OH2 4688   2.650   5.588   0.684
 1604TIP3    H1 4689   2.667   5.495   0.667
 1604TIP3    H2 4690   2.704   5.609   0.760
 1605TIP3   OH2 4691   3.210   4.245   0.790
 1605TIP3    H1 4692   3.162   4.182   0.844
 1605TIP3    H2 4693   3.272   4.192   0.740
 1606TIP3   OH2 4694   3.697   4.163   0.657
 1606TIP3    H1 4695   3.733   4.216   0.586
 1606TIP3    H2 4696   3.606   4.191   0.665
 1607TIP3   OH2 4697   3.817   4.235   0.419
 1607TIP3    H1 4698   3.890   4.176   0.397
 1607TIP3    H2 4699   3.855   4.323   0.412
 1608TIP3   OH2 4700   2.449   4.049   0.737
 1608TIP3    H1 4701   2.370   4.069   0.787
 1608TIP3    H2 4702   2.427   3.969   0.688
 1609TIP3   OH2 4703   2.238   3.819   0.405
 1609TIP3    H1 4704   2.271   3.838   0.317
 1609TIP3    H2 4705   2.144   3.837   0.400
 1610TIP3   OH2 4706   2.984   3.985   0.673
 1610TIP3    H1 4707   3.023   4.049   0.614
 1610TIP3    H2 4708   3.003   4.018   0.760
 1611TIP3   OH2 4709   3.406   4.104   0.656
 1611TIP3    H1 4710   3.423   4.065   0.570
 1611TIP3    H2 4711   3.425   4.035   0.718
 1612TIP3   OH2 4712   3.482   4.078   0.182
 1612TIP3    H1 4713   3.404   4.127   0.208
 1612TIP3    H2 4714   3.486   4.005   0.244
 1613TIP3   OH2 4715   1.964   5.504   0.278
 1613TIP3    H1 4716   1.919   5.419   0.276
 1613TIP3    H2 4717   1.959   5.536   0.188
 1614TIP3   OH2 4718   2.356   3.986   0.222
 1614TIP3    H1 4719   2.279   3.967   0.169
 1614TIP3    H2 4720   2.382   4.074   0.195
 1615TIP3   OH2 4721   2.914   4.200   0.312
 1615TIP3    H1 4722   2.977   4.157   0.369
 1615TIP3    H2 4723   2.904   4.288   0.349
 1616TIP3   OH2 4724   9.224   1.008   7.780
 1616TIP3    H1 4725   9.312   1.031   7.750
 1616TIP3    H2 4726   9.204   0.926   7.736
 1617TIP3   OH2 4727   0.139   1.091   7.878
 1617TIP3    H1 4728   0.124   0.996   7.878
 1617TIP3    H2 4729   0.060   1.128   7.841
 1618TIP3   OH2 4730   2.679   4.223   1.662
 1618TIP3    H1 4731   2.643   4.158   1.721
 1618TIP3    H2 4732   2.771   4.232   1.687
 1619TIP3   OH2 4733   2.923   4.220   1.787
 1619TIP3    H1 4734   2.998   4.199   1.732
 1619TIP3    H2 4735   2.923   4.151   1.854
 1620TIP3   OH2 4736   8.566   0.833   7.886
 1620TIP3    H1 4737   8.511   0.897   7.932
 1620TIP3    H2 4738   8.653   0.874   7.883
 1621TIP3   OH2 4739   3.732   4.308   1.573
 1621TIP3    H1 4740   3.743   4.275   1.662
 1621TIP3    H2 4741   3.822   4.318   1.540
 1622TIP3   OH2 4742   3.652   5.846   1.065
 1622TIP3    H1 4743   3.578   5.818   1.012
 1622TIP3    H2 4744   3.642   5.941   1.072
 1623TIP3   OH2 4745   4.891   5.228   0.257
 1623TIP3    H1 4746   4.941   5.210   0.336
 1623TIP3    H2 4747   4.847   5.145   0.237
 1624TIP3   OH2 4748   4.224   5.084   0.570
 1624TIP3    H1 4749   4.263   5.035   0.642
 1624TIP3    H2 4750   4.299   5.111   0.516
 1625TIP3   OH2 4751   4.199   5.506   0.264
 1625TIP3    H1 4752   4.180   5.413   0.270
 1625TIP3    H2 4753   4.294   5.512   0.261
 1626TIP3   OH2 4754   3.909   4.720   0.040
 1626TIP3    H1 4755   3.869   4.802   0.070
 1626TIP3    H2 4756   3.836   4.668   0.007
 1627TIP3   OH2 4757   3.986   5.033   0.265
 1627TIP3    H1 4758   4.037   4.957   0.292
 1627TIP3    H2 4759   4.051   5.101   0.247
 1628TIP3   OH2 4760   4.722   5.463   0.238
 1628TIP3    H1 4761   4.788   5.394   0.233
 1628TIP3    H2 4762   4.773   5.544   0.229
 1629TIP3   OH2 4763   5.723   4.737   0.283
 1629TIP3    H1 4764   5.752   4.822   0.315
 1629TIP3    H2 4765   5.751   4.734   0.192
 1630TIP3   OH2 4766   5.141   4.931   0.300
 1630TIP3    H1 4767   5.188   4.850   0.320
 1630TIP3    H2 4768   5.116   4.923   0.208
 1631TIP3   OH2 4769   4.500   4.589   0.227
 1631TIP3    H1 4770   4.482   4.662   0.168
 1631TIP3    H2 4771   4.444   4.518   0.196
 1632TIP3   OH2 4772   1.872   0.073   7.918
 1632TIP3    H1 4773   1.947   0.071   7.977
 1632TIP3    H2 4774   1.901   0.024   7.841
 1633TIP3   OH2 4775   4.125   4.811   0.355
 1633TIP3    H1 4776   4.208   4.795   0.399
 1633TIP3    H2 4777   4.131   4.761   0.273
 1634TIP3   OH2 4778   4.540   5.003   0.178
 1634TIP3    H1 4779   4.634   4.989   0.187
 1634TIP3    H2 4780   4.507   4.922   0.141
 1635TIP3   OH2 4781   5.809   4.980   0.375
 1635TIP3    H1 4782   5.727   5.029   0.378
 1635TIP3    H2 4783   5.849   4.994   0.461
 1636TIP3   OH2 4784   4.476   4.603   0.680
 1636TIP3    H1 4785   4.429   4.641   0.605
 1636TIP3    H2 4786   4.420   4.622   0.755
 1637TIP3   OH2 4787   4.572   5.369   0.449
 1637TIP3    H1 4788   4.515   5.440   0.480
 1637TIP3    H2 4789   4.623   5.409   0.379
 1638TIP3   OH2 4790   5.360   4.702   0.073
 1638TIP3    H1 4791   5.399   4.636   0.131
 1638TIP3    H2 4792   5.407   4.782   0.093
 1639TIP3   OH2 4793   4.372   4.707   0.445
 1639TIP3    H1 4794   4.426   4.783   0.467
 1639TIP3    H2 4795   4.420   4.663   0.374
 1640TIP3   OH2 4796   4.410   5.571   0.547
 1640TIP3    H1 4797   4.406   5.663   0.520
 1640TIP3    H2 4798   4.331   5.557   0.599
 1641TIP3   OH2 4799   0.528   0.659   7.806
 1641TIP3    H1 4800   0.471   0.694   7.739
 1641TIP3    H2 4801   0.556   0.735   7.857
 1642TIP3   OH2 4802   2.019   1.086   7.994
 1642TIP3    H1 4803   1.943   1.141   8.015
 1642TIP3    H2 4804   2.077   1.142   7.943
 1643TIP3   OH2 4805   5.514   4.648   0.443
 1643TIP3    H1 4806   5.429   4.663   0.403
 1643TIP3    H2 4807   5.577   4.671   0.374
 1644TIP3   OH2 4808   4.819   4.286   0.424
 1644TIP3    H1 4809   4.813   4.194   0.452
 1644TIP3    H2 4810   4.742   4.328   0.463
 1645TIP3   OH2 4811   5.423   5.631   0.453
 1645TIP3    H1 4812   5.484   5.561   0.432
 1645TIP3    H2 4813   5.371   5.642   0.373
 1646TIP3   OH2 4814   5.529   5.304   0.147
 1646TIP3    H1 4815   5.460   5.354   0.190
 1646TIP3    H2 4816   5.550   5.354   0.068
 1647TIP3   OH2 4817   5.328   5.176   0.568
 1647TIP3    H1 4818   5.327   5.252   0.625
 1647TIP3    H2 4819   5.245   5.180   0.520
 1648TIP3   OH2 4820   4.342   5.144   0.037
 1648TIP3    H1 4821   4.294   5.079  -0.015
 1648TIP3    H2 4822   4.416   5.095   0.073
 1649TIP3   OH2 4823   4.464   5.543   0.185
 1649TIP3    H1 4824   4.447   5.532   0.091
 1649TIP3    H2 4825   4.554   5.511   0.197
 1650TIP3   OH2 4826   4.435   5.140   0.395
 1650TIP3    H1 4827   4.474   5.104   0.315
 1650TIP3    H2 4828   4.485   5.220   0.412
 1651TIP3   OH2 4829   4.864   5.709   0.240
 1651TIP3    H1 4830   4.867   5.793   0.285
 1651TIP3    H2 4831   4.923   5.652   0.290
 1652TIP3   OH2 4832   4.605   5.648   0.729
 1652TIP3    H1 4833   4.548   5.710   0.775
 1652TIP3    H2 4834   4.546   5.602   0.668
 1653TIP3   OH2 4835   4.371   5.225   0.871
 1653TIP3    H1 4836   4.373   5.320   0.885
 1653TIP3    H2 4837   4.279   5.204   0.861
 1654TIP3   OH2 4838   4.405   5.823   0.808
 1654TIP3    H1 4839   4.387   5.841   0.716
 1654TIP3    H2 4840   4.319   5.818   0.849
 1655TIP3   OH2 4841   0.910   0.347   7.899
 1655TIP3    H1 4842   0.848   0.391   7.841
 1655TIP3    H2 4843   0.869   0.264   7.922
 1656TIP3   OH2 4844   4.002   5.394   0.755
 1656TIP3    H1 4845   3.932   5.374   0.692
 1656TIP3    H2 4846   4.037   5.308   0.779
 1657TIP3   OH2 4847   3.851   5.584   0.408
 1657TIP3    H1 4848   3.944   5.604   0.423
 1657TIP3    H2 4849   3.804   5.661   0.440
 1658TIP3   OH2 4850   5.751   6.036   0.338
 1658TIP3    H1 4851   5.753   5.952   0.292
 1658TIP3    H2 4852   5.665   6.039   0.378
 1659TIP3   OH2 4853   4.803   5.778   0.597
 1659TIP3    H1 4854   4.794   5.868   0.627
 1659TIP3    H2 4855   4.733   5.730   0.641
 1660TIP3   OH2 4856   0.710   1.150   7.948
 1660TIP3    H1 4857   0.791   1.150   7.999
 1660TIP3    H2 4858   0.642   1.131   8.012
 1661TIP3   OH2 4859   5.565   5.114   0.733
 1661TIP3    H1 4860   5.486   5.133   0.682
 1661TIP3    H2 4861   5.583   5.021   0.716
 1662TIP3   OH2 4862   4.197   5.584   0.721
 1662TIP3    H1 4863   4.249   5.573   0.800
 1662TIP3    H2 4864   4.126   5.521   0.730
 1663TIP3   OH2 4865   4.582   4.383   0.543
 1663TIP3    H1 4866   4.498   4.350   0.510
 1663TIP3    H2 4867   4.559   4.466   0.585
 1664TIP3   OH2 4868   5.126   4.498   0.745
 1664TIP3    H1 4869   5.198   4.477   0.804
 1664TIP3    H2 4870   5.047   4.482   0.797
 1665TIP3   OH2 4871   5.339   4.914   0.657
 1665TIP3    H1 4872   5.304   4.911   0.746
 1665TIP3    H2 4873   5.321   5.003   0.626
 1666TIP3   OH2 4874   4.522   4.918   0.538
 1666TIP3    H1 4875   4.482   4.928   0.624
 1666TIP3    H2 4876   4.499   4.999   0.492
 1667TIP3   OH2 4877   4.411   4.787   0.061
 1667TIP3    H1 4878   4.321   4.768   0.085
 1667TIP3    H2 4879   4.417   4.761  -0.031
 1668TIP3   OH2 4880   5.078   5.129   0.866
 1668TIP3    H1 4881   5.049   5.063   0.929
 1668TIP3    H2 4882   5.170   5.145   0.889
 1669TIP3   OH2 4883   5.045   4.918   0.041
 1669TIP3    H1 4884   5.006   4.969  -0.030
 1669TIP3    H2 4885   5.072   4.836  -0.001
 1670TIP3   OH2 4886   4.358   4.933   0.760
 1670TIP3    H1 4887   4.398   4.992   0.824
 1670TIP3    H2 4888   4.340   4.853   0.809
 1671TIP3   OH2 4889   3.945   4.463   0.356
 1671TIP3    H1 4890   4.021   4.495   0.404
 1671TIP3    H2 4891   3.978   4.444   0.268
 1672TIP3   OH2 4892   7.116   9.044   7.850
 1672TIP3    H1 4893   7.165   9.079   7.776
 1672TIP3    H2 4894   7.052   9.112   7.871
 1673TIP3   OH2 4895   5.066   5.140   0.456
 1673TIP3    H1 4896   5.098   5.070   0.399
 1673TIP3    H2 4897   5.024   5.094   0.529
 1674TIP3   OH2 4898   4.772   4.581   0.127
 1674TIP3    H1 4899   4.694   4.582   0.183
 1674TIP3    H2 4900   4.845   4.580   0.189
 1675TIP3   OH2 4901   4.168   4.672   0.121
 1675TIP3    H1 4902   4.079   4.673   0.086
 1675TIP3    H2 4903   4.197   4.582   0.111
 1676TIP3   OH2 4904   1.174   0.059   7.807
 1676TIP3    H1 4905   1.269   0.056   7.820
 1676TIP3    H2 4906   1.162   0.116   7.731
 1677TIP3   OH2 4907   5.231   4.672   0.358
 1677TIP3    H1 4908   5.192   4.689   0.444
 1677TIP3    H2 4909   5.168   4.614   0.315
 1678TIP3   OH2 4910   5.445   6.389   0.543
 1678TIP3    H1 4911   5.423   6.328   0.472
 1678TIP3    H2 4912   5.390   6.465   0.526
 1679TIP3   OH2 4913   4.350   5.492   0.955
 1679TIP3    H1 4914   4.432   5.512   1.001
 1679TIP3    H2 4915   4.283   5.503   1.022
 1680TIP3   OH2 4916   4.812   4.954   0.228
 1680TIP3    H1 4917   4.893   4.925   0.186
 1680TIP3    H2 4918   4.812   4.910   0.313
 1681TIP3   OH2 4919   4.303   4.426   0.106
 1681TIP3    H1 4920   4.280   4.344   0.150
 1681TIP3    H2 4921   4.323   4.400   0.016
 1682TIP3   OH2 4922   4.787   4.853   0.489
 1682TIP3    H1 4923   4.700   4.886   0.512
 1682TIP3    H2 4924   4.847   4.902   0.545
 1683TIP3   OH2 4925   5.341   5.506   0.199
 1683TIP3    H1 4926   5.306   5.587   0.163
 1683TIP3    H2 4927   5.267   5.445   0.196
 1684TIP3   OH2 4928   4.912   5.491   0.617
 1684TIP3    H1 4929   4.987   5.498   0.676
 1684TIP3    H2 4930   4.873   5.578   0.615
 1685TIP3   OH2 4931   4.198   5.220   0.256
 1685TIP3    H1 4932   4.240   5.207   0.171
 1685TIP3    H2 4933   4.265   5.197   0.320
 1686TIP3   OH2 4934   4.094   5.161   0.884
 1686TIP3    H1 4935   4.099   5.133   0.975
 1686TIP3    H2 4936   4.019   5.113   0.848
 1687TIP3   OH2 4937   4.852   5.292   0.900
 1687TIP3    H1 4938   4.795   5.258   0.831
 1687TIP3    H2 4939   4.938   5.253   0.881
 1688TIP3   OH2 4940   5.065   5.794   0.514
 1688TIP3    H1 4941   4.973   5.782   0.538
 1688TIP3    H2 4942   5.102   5.847   0.584
 1689TIP3   OH2 4943   5.685   5.742   0.476
 1689TIP3    H1 4944   5.590   5.739   0.466
 1689TIP3    H2 4945   5.713   5.652   0.463
 1690TIP3   OH2 4946   5.146   5.316   0.182
 1690TIP3    H1 4947   5.056   5.285   0.187
 1690TIP3    H2 4948   5.194   5.245   0.140
 1691TIP3   OH2 4949   1.100   0.946   7.928
 1691TIP3    H1 4950   1.133   1.022   7.880
 1691TIP3    H2 4951   1.006   0.963   7.937
 1692TIP3   OH2 4952   0.602   0.228   7.650
 1692TIP3    H1 4953   0.649   0.308   7.671
 1692TIP3    H2 4954   0.513   0.243   7.683
 1693TIP3   OH2 4955   1.190   0.693   7.848
 1693TIP3    H1 4956   1.166   0.782   7.872
 1693TIP3    H2 4957   1.152   0.638   7.917
 1694TIP3   OH2 4958   4.625   5.893   0.374
 1694TIP3    H1 4959   4.661   5.950   0.306
 1694TIP3    H2 4960   4.701   5.863   0.423
 1695TIP3   OH2 4961   5.020   5.517   0.351
 1695TIP3    H1 4962   5.001   5.489   0.441
 1695TIP3    H2 4963   5.071   5.445   0.314
 1696TIP3   OH2 4964   5.172   6.094   0.449
 1696TIP3    H1 4965   5.221   6.037   0.508
 1696TIP3    H2 4966   5.223   6.095   0.368
 1697TIP3   OH2 4967   4.301   4.688   0.883
 1697TIP3    H1 4968   4.206   4.701   0.884
 1697TIP3    H2 4969   4.322   4.655   0.970
 1698TIP3   OH2 4970   4.055   5.788   0.539
 1698TIP3    H1 4971   4.106   5.731   0.596
 1698TIP3    H2 4972   4.068   5.876   0.575
 1699TIP3   OH2 4973   0.719   0.471   7.729
 1699TIP3    H1 4974   0.655   0.531   7.766
 1699TIP3    H2 4975   0.775   0.526   7.674
 1700TIP3   OH2 4976   5.136   4.735   0.608
 1700TIP3    H1 4977   5.217   4.779   0.632
 1700TIP3    H2 4978   5.134   4.656   0.661
 1701TIP3   OH2 4979   1.442   0.039   7.870
 1701TIP3    H1 4980   1.516   0.094   7.845
 1701TIP3    H2 4981   1.457   0.020   7.963
 1702TIP3   OH2 4982   4.980   4.965   0.653
 1702TIP3    H1 4983   5.014   5.012   0.729
 1702TIP3    H2 4984   5.033   4.886   0.648
 1703TIP3   OH2 4985   8.148   8.990   7.984
 1703TIP3    H1 4986   8.116   9.069   8.026
 1703TIP3    H2 4987   8.243   9.000   7.982
 1704TIP3   OH2 4988   7.647   9.024   7.835
 1704TIP3    H1 4989   7.644   9.119   7.821
 1704TIP3    H2 4990   7.739   9.001   7.825
 1705TIP3   OH2 4991   5.602   4.851   0.630
 1705TIP3    H1 4992   5.507   4.863   0.642
 1705TIP3    H2 4993   5.608   4.779   0.567
 1706TIP3   OH2 4994   5.270   5.098   0.063
 1706TIP3    H1 4995   5.203   5.031   0.051
 1706TIP3    H2 4996   5.349   5.050   0.086
 1707TIP3   OH2 4997   7.187   9.198   7.636
 1707TIP3    H1 4998   7.176   9.293   7.638
 1707TIP3    H2 4999   7.221   9.180   7.548
 1708TIP3   OH2 5000   4.322   4.293   0.498
 1708TIP3    H1 5001   4.297   4.263   0.411
 1708TIP3    H2 5002   4.312   4.216   0.554
 1709TIP3   OH2 5003   0.576   0.903   7.915
 1709TIP3    H1 5004   0.537   0.935   7.997
 1709TIP3    H2 5005   0.631   0.975   7.885
 1710TIP3   OH2 5006   4.053   6.091   0.959
 1710TIP3    H1 5007   4.131   6.101   1.014
 1710TIP3    H2 5008   4.050   5.998   0.938
 1711TIP3   OH2 5009   4.503   5.972   1.021
 1711TIP3    H1 5010   4.596   5.950   1.028
 1711TIP3    H2 5011   4.473   5.926   0.943
 1712TIP3   OH2 5012   5.114   5.931   0.743
 1712TIP3    H1 5013   5.110   5.856   0.802
 1712TIP3    H2 5014   5.179   5.990   0.783
 1713TIP3   OH2 5015   4.147   5.488   1.147
 1713TIP3    H1 5016   4.168   5.396   1.160
 1713TIP3    H2 5017   4.059   5.488   1.110
 1714TIP3   OH2 5018   4.774   5.566   0.930
 1714TIP3    H1 5019   4.726   5.583   0.849
 1714TIP3    H2 5020   4.820   5.484   0.914
 1715TIP3   OH2 5021   5.199   5.567   0.592
 1715TIP3    H1 5022   5.285   5.592   0.557
 1715TIP3    H2 5023   5.141   5.638   0.567
 1716TIP3   OH2 5024   4.266   5.232   1.157
 1716TIP3    H1 5025   4.338   5.225   1.094
 1716TIP3    H2 5026   4.308   5.255   1.240
 1717TIP3   OH2 5027   4.607   5.092   0.794
 1717TIP3    H1 5028   4.537   5.152   0.820
 1717TIP3    H2 5029   4.656   5.140   0.727
 1718TIP3   OH2 5030   5.114   5.471   0.901
 1718TIP3    H1 5031   5.184   5.437   0.846
 1718TIP3    H2 5032   5.122   5.421   0.983
 1719TIP3   OH2 5033   4.726   4.881   0.923
 1719TIP3    H1 5034   4.736   4.810   0.861
 1719TIP3    H2 5035   4.691   4.954   0.872
 1720TIP3   OH2 5036   4.738   4.683   0.719
 1720TIP3    H1 5037   4.769   4.721   0.637
 1720TIP3    H2 5038   4.647   4.659   0.702
 1721TIP3   OH2 5039   4.751   5.252   0.623
 1721TIP3    H1 5040   4.826   5.312   0.617
 1721TIP3    H2 5041   4.688   5.286   0.560
 1722TIP3   OH2 5042   5.338   5.162   0.975
 1722TIP3    H1 5043   5.398   5.088   0.970
 1722TIP3    H2 5044   5.394   5.239   0.969
 1723TIP3   OH2 5045   5.350   5.397   0.735
 1723TIP3    H1 5046   5.298   5.465   0.692
 1723TIP3    H2 5047   5.440   5.415   0.710
 1724TIP3   OH2 5048   4.616   4.970   1.166
 1724TIP3    H1 5049   4.541   4.914   1.182
 1724TIP3    H2 5050   4.645   4.947   1.078
 1725TIP3   OH2 5051   4.857   4.453   0.823
 1725TIP3    H1 5052   4.820   4.534   0.788
 1725TIP3    H2 5053   4.789   4.387   0.810
 1726TIP3   OH2 5054   4.986   4.924   1.025
 1726TIP3    H1 5055   4.979   4.913   1.119
 1726TIP3    H2 5056   4.899   4.904   0.991
 1727TIP3   OH2 5057   5.235   4.869   0.900
 1727TIP3    H1 5058   5.158   4.875   0.957
 1727TIP3    H2 5059   5.308   4.858   0.961
 1728TIP3   OH2 5060   5.483   4.856   1.038
 1728TIP3    H1 5061   5.493   4.762   1.044
 1728TIP3    H2 5062   5.477   4.886   1.129
 1729TIP3   OH2 5063   4.445   4.744   1.228
 1729TIP3    H1 5064   4.491   4.669   1.191
 1729TIP3    H2 5065   4.477   4.749   1.318
 1730TIP3   OH2 5066   4.928   4.435   1.086
 1730TIP3    H1 5067   4.997   4.369   1.081
 1730TIP3    H2 5068   4.898   4.445   0.995
 1731TIP3   OH2 5069   5.024   4.646   1.235
 1731TIP3    H1 5070   4.996   4.575   1.177
 1731TIP3    H2 5071   4.951   4.707   1.235
 1732TIP3   OH2 5072   0.360   1.222   7.975
 1732TIP3    H1 5073   0.292   1.173   7.928
 1732TIP3    H2 5074   0.398   1.158   8.035
 1733TIP3   OH2 5075   3.796   5.694   0.149
 1733TIP3    H1 5076   3.787   5.624   0.214
 1733TIP3    H2 5077   3.835   5.767   0.198
 1734TIP3   OH2 5078   5.546   6.188   0.180
 1734TIP3    H1 5079   5.519   6.120   0.119
 1734TIP3    H2 5080   5.540   6.147   0.266
 1735TIP3   OH2 5081   5.404   5.714   0.800
 1735TIP3    H1 5082   5.361   5.753   0.876
 1735TIP3    H2 5083   5.496   5.740   0.808
 1736TIP3   OH2 5084   5.263   6.040   0.192
 1736TIP3    H1 5085   5.238   5.953   0.221
 1736TIP3    H2 5086   5.321   6.025   0.117
 1737TIP3   OH2 5087   3.962   5.128   0.521
 1737TIP3    H1 5088   3.954   5.096   0.432
 1737TIP3    H2 5089   4.056   5.122   0.540
 1738TIP3   OH2 5090   5.613   5.426   0.650
 1738TIP3    H1 5091   5.683   5.362   0.658
 1738TIP3    H2 5092   5.617   5.456   0.559
 1739TIP3   OH2 5093   5.803   5.226   0.675
 1739TIP3    H1 5094   5.723   5.180   0.699
 1739TIP3    H2 5095   5.867   5.201   0.742
 1740TIP3   OH2 5096   5.494   4.942   0.125
 1740TIP3    H1 5097   5.571   4.946   0.069
 1740TIP3    H2 5098   5.523   4.980   0.208
 1741TIP3   OH2 5099   5.553   5.103   0.352
 1741TIP3    H1 5100   5.488   5.112   0.422
 1741TIP3    H2 5101   5.545   5.183   0.301
 1742TIP3   OH2 5102   4.172   4.794   1.179
 1742TIP3    H1 5103   4.266   4.784   1.196
 1742TIP3    H2 5104   4.130   4.758   1.257
 1743TIP3   OH2 5105   6.008   4.684   0.921
 1743TIP3    H1 5106   6.078   4.622   0.897
 1743TIP3    H2 5107   5.994   4.736   0.842
 1744TIP3   OH2 5108   4.165   4.523   0.516
 1744TIP3    H1 5109   4.218   4.443   0.519
 1744TIP3    H2 5110   4.228   4.592   0.494
 1745TIP3   OH2 5111   3.942   4.787   0.570
 1745TIP3    H1 5112   3.994   4.779   0.490
 1745TIP3    H2 5113   3.971   4.868   0.611
 1746TIP3   OH2 5114   5.880   4.803   0.703
 1746TIP3    H1 5115   5.801   4.853   0.722
 1746TIP3    H2 5116   5.848   4.719   0.669
 1747TIP3   OH2 5117   3.927   4.334   0.095
 1747TIP3    H1 5118   3.839   4.316   0.130
 1747TIP3    H2 5119   3.910   4.369   0.008
 1748TIP3   OH2 5120   4.127   4.329   0.909
 1748TIP3    H1 5121   4.072   4.341   0.986
 1748TIP3    H2 5122   4.092   4.390   0.845
 1749TIP3   OH2 5123   4.170   5.818   0.965
 1749TIP3    H1 5124   4.079   5.789   0.964
 1749TIP3    H2 5125   4.197   5.811   1.057
 1750TIP3   OH2 5126   4.401   5.847   0.527
 1750TIP3    H1 5127   4.345   5.915   0.489
 1750TIP3    H2 5128   4.487   5.861   0.486
 1751TIP3   OH2 5129   4.760   6.038   0.681
 1751TIP3    H1 5130   4.803   6.047   0.767
 1751TIP3    H2 5131   4.811   6.094   0.623
 1752TIP3   OH2 5132   4.928   6.194   0.523
 1752TIP3    H1 5133   5.020   6.171   0.511
 1752TIP3    H2 5134   4.928   6.255   0.597
 1753TIP3   OH2 5135   5.767   4.553   0.637
 1753TIP3    H1 5136   5.679   4.528   0.608
 1753TIP3    H2 5137   5.816   4.470   0.638
 1754TIP3   OH2 5138   4.056   6.083   0.571
 1754TIP3    H1 5139   3.965   6.099   0.548
 1754TIP3    H2 5140   4.078   6.152   0.633
 1755TIP3   OH2 5141   4.279   6.062   0.411
 1755TIP3    H1 5142   4.199   6.072   0.463
 1755TIP3    H2 5143   4.256   6.098   0.325
 1756TIP3   OH2 5144   4.675   6.070   0.156
 1756TIP3    H1 5145   4.592   6.074   0.107
 1756TIP3    H2 5146   4.683   6.156   0.197
 1757TIP3   OH2 5147   4.935   6.074   0.064
 1757TIP3    H1 5148   4.847   6.058   0.100
 1757TIP3    H2 5149   4.967   6.151   0.112
 1758TIP3   OH2 5150   3.970   5.867   0.288
 1758TIP3    H1 5151   3.994   5.846   0.378
 1758TIP3    H2 5152   4.043   5.834   0.235
 1759TIP3   OH2 5153   4.168   5.748   0.141
 1759TIP3    H1 5154   4.170   5.663   0.185
 1759TIP3    H2 5155   4.255   5.785   0.157
 1760TIP3   OH2 5156   4.428   5.817   0.192
 1760TIP3    H1 5157   4.448   5.724   0.190
 1760TIP3    H2 5158   4.490   5.853   0.256
 1761TIP3   OH2 5159   5.018   4.486   0.249
 1761TIP3    H1 5160   4.986   4.416   0.305
 1761TIP3    H2 5161   5.087   4.445   0.196
 1762TIP3   OH2 5162   5.476   4.453   0.176
 1762TIP3    H1 5163   5.538   4.437   0.105
 1762TIP3    H2 5164   5.393   4.418   0.144
 1763TIP3   OH2 5165   8.933   8.995   7.984
 1763TIP3    H1 5166   9.000   8.929   8.004
 1763TIP3    H2 5167   8.982   9.068   7.947
 1764TIP3   OH2 5168   4.242   4.193   0.252
 1764TIP3    H1 5169   4.155   4.157   0.268
 1764TIP3    H2 5170   4.299   4.116   0.247
 1765TIP3   OH2 5171   7.329   8.749   7.969
 1765TIP3    H1 5172   7.363   8.794   7.892
 1765TIP3    H2 5173   7.294   8.819   8.024
 1766TIP3   OH2 5174   4.722   4.230   0.166
 1766TIP3    H1 5175   4.772   4.282   0.104
 1766TIP3    H2 5176   4.757   4.254   0.252
 1767TIP3   OH2 5177   5.208   4.340   0.103
 1767TIP3    H1 5178   5.264   4.302   0.036
 1767TIP3    H2 5179   5.208   4.275   0.173
 1768TIP3   OH2 5180   7.441   8.858   7.748
 1768TIP3    H1 5181   7.483   8.778   7.717
 1768TIP3    H2 5182   7.513   8.918   7.767
 1769TIP3   OH2 5183   7.922   9.008   7.804
 1769TIP3    H1 5184   7.996   8.973   7.854
 1769TIP3    H2 5185   7.935   9.102   7.804
 1770TIP3   OH2 5186   4.472   4.419   1.154
 1770TIP3    H1 5187   4.450   4.380   1.238
 1770TIP3    H2 5188   4.563   4.449   1.165
 1771TIP3   OH2 5189   4.714   4.501   1.255
 1771TIP3    H1 5190   4.792   4.479   1.203
 1771TIP3    H2 5191   4.713   4.435   1.325
 1772TIP3   OH2 5192   5.527   4.581   1.052
 1772TIP3    H1 5193   5.544   4.551   1.141
 1772TIP3    H2 5194   5.611   4.572   1.008
 1773TIP3   OH2 5195   5.498   6.092   0.429
 1773TIP3    H1 5196   5.444   6.022   0.465
 1773TIP3    H2 5197   5.540   6.131   0.506
 1774TIP3   OH2 5198   6.283   4.706   0.206
 1774TIP3    H1 5199   6.229   4.697   0.128
 1774TIP3    H2 5200   6.225   4.745   0.271
 1775TIP3   OH2 5201   6.139   5.487   0.377
 1775TIP3    H1 5202   6.172   5.577   0.378
 1775TIP3    H2 5203   6.113   5.473   0.286
 1776TIP3   OH2 5204   5.888   5.572   0.252
 1776TIP3    H1 5205   5.806   5.583   0.205
 1776TIP3    H2 5206   5.889   5.480   0.278
 1777TIP3   OH2 5207   6.067   5.754   0.153
 1777TIP3    H1 5208   6.126   5.772   0.226
 1777TIP3    H2 5209   6.018   5.676   0.180
 1778TIP3   OH2 5210   6.908   4.697   0.249
 1778TIP3    H1 5211   6.998   4.673   0.268
 1778TIP3    H2 5212   6.861   4.614   0.242
 1779TIP3   OH2 5213   6.882   5.441   0.486
 1779TIP3    H1 5214   6.843   5.354   0.488
 1779TIP3    H2 5215   6.973   5.425   0.459
 1780TIP3   OH2 5216   6.115   5.199   0.197
 1780TIP3    H1 5217   6.180   5.175   0.264
 1780TIP3    H2 5218   6.083   5.116   0.163
 1781TIP3   OH2 5219   6.172   5.667   0.638
 1781TIP3    H1 5220   6.238   5.729   0.607
 1781TIP3    H2 5221   6.096   5.684   0.583
 1782TIP3   OH2 5222   5.848   5.304   0.304
 1782TIP3    H1 5223   5.918   5.276   0.364
 1782TIP3    H2 5224   5.845   5.237   0.237
 1783TIP3   OH2 5225   6.629   5.490   0.324
 1783TIP3    H1 5226   6.555   5.431   0.310
 1783TIP3    H2 5227   6.702   5.446   0.280
 1784TIP3   OH2 5228   6.091   4.854   0.333
 1784TIP3    H1 5229   6.009   4.887   0.295
 1784TIP3    H2 5230   6.085   4.877   0.425
 1785TIP3   OH2 5231   5.971   4.503  -0.006
 1785TIP3    H1 5232   6.046   4.552  -0.040
 1785TIP3    H2 5233   6.009   4.436   0.050
 1786TIP3   OH2 5234   5.910   6.251   0.266
 1786TIP3    H1 5235   5.949   6.262   0.353
 1786TIP3    H2 5236   5.847   6.180   0.277
 1787TIP3   OH2 5237   6.326   6.339   0.404
 1787TIP3    H1 5238   6.370   6.274   0.459
 1787TIP3    H2 5239   6.380   6.344   0.325
 1788TIP3   OH2 5240   5.860   5.678   0.718
 1788TIP3    H1 5241   5.930   5.668   0.783
 1788TIP3    H2 5242   5.867   5.600   0.663
 1789TIP3   OH2 5243   6.531   5.831   0.404
 1789TIP3    H1 5244   6.542   5.829   0.309
 1789TIP3    H2 5245   6.604   5.779   0.437
 1790TIP3   OH2 5246   6.005   5.419   0.793
 1790TIP3    H1 5247   6.092   5.419   0.751
 1790TIP3    H2 5248   6.020   5.462   0.877
 1791TIP3   OH2 5249   6.385   5.371   0.270
 1791TIP3    H1 5250   6.316   5.379   0.336
 1791TIP3    H2 5251   6.370   5.444   0.210
 1792TIP3   OH2 5252   7.082   5.746   0.432
 1792TIP3    H1 5253   7.020   5.707   0.370
 1792TIP3    H2 5254   7.028   5.780   0.503
 1793TIP3   OH2 5255   6.547   5.158   0.419
 1793TIP3    H1 5256   6.546   5.062   0.409
 1793TIP3    H2 5257   6.480   5.189   0.359
 1794TIP3   OH2 5258   6.516   4.866   0.320
 1794TIP3    H1 5259   6.610   4.853   0.331
 1794TIP3    H2 5260   6.480   4.778   0.315
 1795TIP3   OH2 5261   7.149   5.438   0.449
 1795TIP3    H1 5262   7.208   5.363   0.455
 1795TIP3    H2 5263   7.183   5.500   0.514
 1796TIP3   OH2 5264   6.501   5.340   0.629
 1796TIP3    H1 5265   6.411   5.319   0.654
 1796TIP3    H2 5266   6.525   5.272   0.566
 1797TIP3   OH2 5267   6.800   5.182   0.523
 1797TIP3    H1 5268   6.773   5.149   0.608
 1797TIP3    H2 5269   6.722   5.172   0.468
 1798TIP3   OH2 5270   7.042   5.109   0.359
 1798TIP3    H1 5271   6.949   5.128   0.373
 1798TIP3    H2 5272   7.063   5.044   0.426
 1799TIP3   OH2 5273   7.386   4.987   0.566
 1799TIP3    H1 5274   7.337   4.906   0.553
 1799TIP3    H2 5275   7.373   5.008   0.659
 1800TIP3   OH2 5276   6.184   4.920   0.859
 1800TIP3    H1 5277   6.213   4.855   0.795
 1800TIP3    H2 5278   6.260   4.935   0.914
 1801TIP3   OH2 5279   6.685   4.615   0.515
 1801TIP3    H1 5280   6.778   4.632   0.532
 1801TIP3    H2 5281   6.686   4.553   0.442
 1802TIP3   OH2 5282   6.828   4.839   0.735
 1802TIP3    H1 5283   6.864   4.777   0.671
 1802TIP3    H2 5284   6.753   4.879   0.690
 1803TIP3   OH2 5285   5.965   5.088   0.845
 1803TIP3    H1 5286   6.043   5.033   0.851
 1803TIP3    H2 5287   5.895   5.033   0.879
 1804TIP3   OH2 5288   5.838   4.738   0.036
 1804TIP3    H1 5289   5.865   4.648   0.018
 1804TIP3    H2 5290   5.920   4.787   0.040
 1805TIP3   OH2 5291   2.459   0.324   7.887
 1805TIP3    H1 5292   2.491   0.246   7.932
 1805TIP3    H2 5293   2.475   0.396   7.948
 1806TIP3   OH2 5294   5.915   4.570   0.400
 1806TIP3    H1 5295   5.874   4.571   0.487
 1806TIP3    H2 5296   5.857   4.625   0.346
 1807TIP3   OH2 5297   6.016   6.004   0.404
 1807TIP3    H1 5298   5.924   6.021   0.381
 1807TIP3    H2 5299   6.017   5.913   0.433
 1808TIP3   OH2 5300   6.239   4.713   0.664
 1808TIP3    H1 5301   6.220   4.638   0.720
 1808TIP3    H2 5302   6.335   4.718   0.664
 1809TIP3   OH2 5303   6.507   4.685   0.711
 1809TIP3    H1 5304   6.569   4.641   0.652
 1809TIP3    H2 5305   6.505   4.631   0.790
 1810TIP3   OH2 5306   7.347   4.713   0.524
 1810TIP3    H1 5307   7.355   4.701   0.618
 1810TIP3    H2 5308   7.435   4.736   0.495
 1811TIP3   OH2 5309   9.647   5.830   2.213
 1811TIP3    H1 5310   9.625   5.738   2.222
 1811TIP3    H2 5311   9.666   5.859   2.303
 1812TIP3   OH2 5312   0.329   5.748   2.090
 1812TIP3    H1 5313   0.382   5.684   2.042
 1812TIP3    H2 5314   0.279   5.794   2.023
 1813TIP3   OH2 5315   0.143   5.856   1.920
 1813TIP3    H1 5316   0.084   5.914   1.967
 1813TIP3    H2 5317   0.085   5.797   1.871
 1814TIP3   OH2 5318   0.034   5.606   1.818
 1814TIP3    H1 5319  -0.056   5.604   1.786
 1814TIP3    H2 5320   0.068   5.519   1.799
 1815TIP3   OH2 5321   9.641   5.550   2.222
 1815TIP3    H1 5322   9.646   5.547   2.318
 1815TIP3    H2 5323   9.732   5.561   2.194
 1816TIP3   OH2 5324   1.831   6.068   0.900
 1816TIP3    H1 5325   1.846   6.151   0.945
 1816TIP3    H2 5326   1.857   6.085   0.810
 1817TIP3   OH2 5327   1.150   6.295   0.997
 1817TIP3    H1 5328   1.153   6.207   1.032
 1817TIP3    H2 5329   1.184   6.287   0.908
 1818TIP3   OH2 5330   1.885   6.285   1.074
 1818TIP3    H1 5331   1.793   6.313   1.070
 1818TIP3    H2 5332   1.916   6.318   1.158
 1819TIP3   OH2 5333   0.550   5.818   1.370
 1819TIP3    H1 5334   0.478   5.783   1.318
 1819TIP3    H2 5335   0.508   5.853   1.448
 1820TIP3   OH2 5336   1.371   6.035   0.730
 1820TIP3    H1 5337   1.348   6.006   0.818
 1820TIP3    H2 5338   1.451   6.087   0.742
 1821TIP3   OH2 5339   1.597   5.993   1.062
 1821TIP3    H1 5340   1.509   5.996   1.025
 1821TIP3    H2 5341   1.654   6.014   0.988
 1822TIP3   OH2 5342   0.906   5.623   1.061
 1822TIP3    H1 5343   0.891   5.535   1.025
 1822TIP3    H2 5344   0.820   5.652   1.089
 1823TIP3   OH2 5345   1.499   6.991   1.036
 1823TIP3    H1 5346   1.497   6.904   0.997
 1823TIP3    H2 5347   1.538   7.047   0.968
 1824TIP3   OH2 5348   1.723   6.617   0.922
 1824TIP3    H1 5349   1.641   6.666   0.927
 1824TIP3    H2 5350   1.764   6.648   0.841
 1825TIP3   OH2 5351   1.434   6.491   1.233
 1825TIP3    H1 5352   1.444   6.567   1.289
 1825TIP3    H2 5353   1.349   6.503   1.190
 1826TIP3   OH2 5354   1.785   7.320   1.155
 1826TIP3    H1 5355   1.776   7.225   1.155
 1826TIP3    H2 5356   1.698   7.353   1.178
 1827TIP3   OH2 5357   1.654   6.435   1.400
 1827TIP3    H1 5358   1.580   6.431   1.340
 1827TIP3    H2 5359   1.672   6.343   1.421
 1828TIP3   OH2 5360   0.647   5.697   1.143
 1828TIP3    H1 5361   0.558   5.671   1.123
 1828TIP3    H2 5362   0.640   5.745   1.226
 1829TIP3   OH2 5363   1.159   5.831   1.400
 1829TIP3    H1 5364   1.229   5.805   1.460
 1829TIP3    H2 5365   1.080   5.789   1.435
 1830TIP3   OH2 5366   1.399   6.222   1.327
 1830TIP3    H1 5367   1.357   6.222   1.413
 1830TIP3    H2 5368   1.380   6.308   1.291
 1831TIP3   OH2 5369   1.128   6.453   1.566
 1831TIP3    H1 5370   1.103   6.379   1.621
 1831TIP3    H2 5371   1.223   6.459   1.576
 1832TIP3   OH2 5372   1.173   6.531   1.160
 1832TIP3    H1 5373   1.174   6.490   1.074
 1832TIP3    H2 5374   1.135   6.465   1.218
 1833TIP3   OH2 5375   1.313   5.980   0.997
 1833TIP3    H1 5376   1.281   6.016   1.080
 1833TIP3    H2 5377   1.252   5.908   0.977
 1834TIP3   OH2 5378   0.868   6.075   1.240
 1834TIP3    H1 5379   0.803   6.123   1.189
 1834TIP3    H2 5380   0.934   6.049   1.176
 1835TIP3   OH2 5381   1.489   6.756   0.892
 1835TIP3    H1 5382   1.473   6.782   0.801
 1835TIP3    H2 5383   1.425   6.687   0.908
 1836TIP3   OH2 5384   0.903   6.606   1.576
 1836TIP3    H1 5385   0.839   6.539   1.553
 1836TIP3    H2 5386   0.988   6.564   1.561
 1837TIP3   OH2 5387   1.762   7.023   1.132
 1837TIP3    H1 5388   1.667   7.028   1.119
 1837TIP3    H2 5389   1.797   7.002   1.045
 1838TIP3   OH2 5390   0.441   5.956   1.583
 1838TIP3    H1 5391   0.367   6.001   1.623
 1838TIP3    H2 5392   0.473   5.897   1.652
 1839TIP3   OH2 5393   1.194   6.054   1.235
 1839TIP3    H1 5394   1.269   6.099   1.275
 1839TIP3    H2 5395   1.179   5.978   1.290
 1840TIP3   OH2 5396   1.096   6.322   1.314
 1840TIP3    H1 5397   1.096   6.339   1.408
 1840TIP3    H2 5398   1.081   6.228   1.307
 1841TIP3   OH2 5399   1.659   6.145   1.294
 1841TIP3    H1 5400   1.568   6.166   1.314
 1841TIP3    H2 5401   1.654   6.094   1.213
 1842TIP3   OH2 5402   1.288   6.321   0.744
 1842TIP3    H1 5403   1.297   6.360   0.657
 1842TIP3    H2 5404   1.374   6.282   0.762
 1843TIP3   OH2 5405   1.182   7.290   1.477
 1843TIP3    H1 5406   1.196   7.210   1.527
 1843TIP3    H2 5407   1.267   7.333   1.475
 1844TIP3   OH2 5408   0.810   6.870   1.637
 1844TIP3    H1 5409   0.746   6.882   1.566
 1844TIP3    H2 5410   0.853   6.787   1.617
 1845TIP3   OH2 5411   1.356   6.945   1.316
 1845TIP3    H1 5412   1.407   7.006   1.262
 1845TIP3    H2 5413   1.273   6.991   1.332
 1846TIP3   OH2 5414   0.300   6.602   1.843
 1846TIP3    H1 5415   0.334   6.540   1.779
 1846TIP3    H2 5416   0.360   6.596   1.917
 1847TIP3   OH2 5417   1.204   6.785   1.598
 1847TIP3    H1 5418   1.243   6.732   1.528
 1847TIP3    H2 5419   1.198   6.726   1.673
 1848TIP3   OH2 5420   0.785   6.188   1.585
 1848TIP3    H1 5421   0.797   6.096   1.563
 1848TIP3    H2 5422   0.727   6.222   1.517
 1849TIP3   OH2 5423   0.782   5.942   1.457
 1849TIP3    H1 5424   0.819   5.990   1.383
 1849TIP3    H2 5425   0.700   5.905   1.423
 1850TIP3   OH2 5426   1.400   6.474   1.632
 1850TIP3    H1 5427   1.428   6.383   1.629
 1850TIP3    H2 5428   1.472   6.522   1.592
 1851TIP3   OH2 5429   1.465   6.714   1.394
 1851TIP3    H1 5430   1.414   6.790   1.368
 1851TIP3    H2 5431   1.552   6.729   1.357
 1852TIP3   OH2 5432   0.667   6.264   1.827
 1852TIP3    H1 5433   0.594   6.205   1.844
 1852TIP3    H2 5434   0.691   6.249   1.736
 1853TIP3   OH2 5435   0.915   5.706   1.472
 1853TIP3    H1 5436   0.868   5.789   1.462
 1853TIP3    H2 5437   0.849   5.640   1.450
 1854TIP3   OH2 5438   1.037   6.230   1.695
 1854TIP3    H1 5439   1.020   6.213   1.788
 1854TIP3    H2 5440   0.952   6.216   1.652
 1855TIP3   OH2 5441   1.291   6.200   1.574
 1855TIP3    H1 5442   1.211   6.189   1.625
 1855TIP3    H2 5443   1.359   6.161   1.629
 1856TIP3   OH2 5444   1.520   6.133   1.716
 1856TIP3    H1 5445   1.532   6.038   1.718
 1856TIP3    H2 5446   1.519   6.159   1.808
 1857TIP3   OH2 5447   0.501   6.046   1.907
 1857TIP3    H1 5448   0.503   5.958   1.871
 1857TIP3    H2 5449   0.540   6.038   1.994
 1858TIP3   OH2 5450   0.982   5.752   1.730
 1858TIP3    H1 5451   1.056   5.691   1.740
 1858TIP3    H2 5452   0.952   5.738   1.640
 1859TIP3   OH2 5453   1.081   5.954   1.884
 1859TIP3    H1 5454   1.053   5.893   1.816
 1859TIP3    H2 5455   1.007   6.015   1.894
 1860TIP3   OH2 5456   1.657   7.133   1.448
 1860TIP3    H1 5457   1.587   7.136   1.514
 1860TIP3    H2 5458   1.698   7.219   1.453
 1861TIP3   OH2 5459   1.705   6.784   1.279
 1861TIP3    H1 5460   1.769   6.715   1.260
 1861TIP3    H2 5461   1.727   6.856   1.221
 1862TIP3   OH2 5462   1.863   6.560   1.275
 1862TIP3    H1 5463   1.786   6.521   1.318
 1862TIP3    H2 5464   1.934   6.499   1.294
 1863TIP3   OH2 5465   1.548   6.239   0.814
 1863TIP3    H1 5466   1.629   6.261   0.768
 1863TIP3    H2 5467   1.560   6.274   0.902
 1864TIP3   OH2 5468   1.625   6.388   1.044
 1864TIP3    H1 5469   1.556   6.418   1.104
 1864TIP3    H2 5470   1.657   6.468   1.003
 1865TIP3   OH2 5471   0.258   6.054   1.761
 1865TIP3    H1 5472   0.328   6.082   1.819
 1865TIP3    H2 5473   0.210   5.989   1.812
 1866TIP3   OH2 5474   2.075   6.003   1.584
 1866TIP3    H1 5475   2.142   5.949   1.542
 1866TIP3    H2 5476   2.034   6.050   1.512
 1867TIP3   OH2 5477   1.538   5.741   0.360
 1867TIP3    H1 5478   1.555   5.771   0.449
 1867TIP3    H2 5479   1.542   5.645   0.365
 1868TIP3   OH2 5480   1.921   6.105   1.380
 1868TIP3    H1 5481   1.832   6.139   1.379
 1868TIP3    H2 5482   1.915   6.021   1.333
 1869TIP3   OH2 5483   0.199   5.676   1.599
 1869TIP3    H1 5484   0.148   5.671   1.680
 1869TIP3    H2 5485   0.174   5.598   1.550
 1870TIP3   OH2 5486   1.870   5.848   1.293
 1870TIP3    H1 5487   1.782   5.828   1.260
 1870TIP3    H2 5488   1.916   5.764   1.288
 1871TIP3   OH2 5489   1.125   5.785   0.964
 1871TIP3    H1 5490   1.043   5.740   0.986
 1871TIP3    H2 5491   1.172   5.723   0.908
 1872TIP3   OH2 5492   1.551   5.686   0.817
 1872TIP3    H1 5493   1.578   5.749   0.751
 1872TIP3    H2 5494   1.456   5.686   0.813
 1873TIP3   OH2 5495   1.657   5.812   0.599
 1873TIP3    H1 5496   1.723   5.745   0.578
 1873TIP3    H2 5497   1.695   5.894   0.566
 1874TIP3   OH2 5498   1.281   5.627   0.799
 1874TIP3    H1 5499   1.240   5.618   0.713
 1874TIP3    H2 5500   1.257   5.546   0.845
 1875TIP3   OH2 5501   0.522   5.780   1.806
 1875TIP3    H1 5502   0.487   5.704   1.853
 1875TIP3    H2 5503   0.613   5.785   1.833
 1876TIP3   OH2 5504   0.775   5.793   1.908
 1876TIP3    H1 5505   0.837   5.808   1.837
 1876TIP3    H2 5506   0.804   5.711   1.948
 1877TIP3   OH2 5507   1.579   5.861   1.702
 1877TIP3    H1 5508   1.595   5.832   1.792
 1877TIP3    H2 5509   1.665   5.859   1.660
 1878TIP3   OH2 5510   1.527   7.389   1.213
 1878TIP3    H1 5511   1.441   7.351   1.194
 1878TIP3    H2 5512   1.508   7.477   1.245
 1879TIP3   OH2 5513   9.286   2.139   7.999
 1879TIP3    H1 5514   9.286   2.233   7.985
 1879TIP3    H2 5515   9.222   2.105   7.936
 1880TIP3   OH2 5516   2.773   6.783   0.384
 1880TIP3    H1 5517   2.824   6.764   0.463
 1880TIP3    H2 5518   2.732   6.700   0.362
 1881TIP3   OH2 5519   2.111   6.659   0.713
 1881TIP3    H1 5520   2.132   6.599   0.785
 1881TIP3    H2 5521   2.194   6.669   0.666
 1882TIP3   OH2 5522   2.979   7.095   0.075
 1882TIP3    H1 5523   2.995   7.025   0.138
 1882TIP3    H2 5524   3.030   7.169   0.108
 1883TIP3   OH2 5525   2.082   7.092   0.496
 1883TIP3    H1 5526   2.084   6.996   0.494
 1883TIP3    H2 5527   2.168   7.119   0.466
 1884TIP3   OH2 5528   1.846   6.617   0.451
 1884TIP3    H1 5529   1.887   6.536   0.482
 1884TIP3    H2 5530   1.846   6.609   0.356
 1885TIP3   OH2 5531   2.797   7.513   0.025
 1885TIP3    H1 5532   2.780   7.450  -0.045
 1885TIP3    H2 5533   2.790   7.462   0.105
 1886TIP3   OH2 5534   2.596   7.006   0.396
 1886TIP3    H1 5535   2.640   6.924   0.371
 1886TIP3    H2 5536   2.667   7.064   0.425
 1887TIP3   OH2 5537   3.619   6.322   0.412
 1887TIP3    H1 5538   3.628   6.407   0.456
 1887TIP3    H2 5539   3.656   6.335   0.325
 1888TIP3   OH2 5540   2.990   6.491   0.430
 1888TIP3    H1 5541   3.017   6.403   0.455
 1888TIP3    H2 5542   2.953   6.481   0.342
 1889TIP3   OH2 5543   2.342   6.146   0.364
 1889TIP3    H1 5544   2.321   6.220   0.307
 1889TIP3    H2 5545   2.288   6.074   0.331
 1890TIP3   OH2 5546   3.024   6.259   0.039
 1890TIP3    H1 5547   3.088   6.242   0.109
 1890TIP3    H2 5548   3.074   6.303  -0.029
 1891TIP3   OH2 5549   1.974   6.381   0.525
 1891TIP3    H1 5550   2.061   6.347   0.547
 1891TIP3    H2 5551   1.950   6.336   0.445
 1892TIP3   OH2 5552   2.401   6.555   0.325
 1892TIP3    H1 5553   2.496   6.543   0.331
 1892TIP3    H2 5554   2.369   6.475   0.283
 1893TIP3   OH2 5555   3.659   6.538   0.584
 1893TIP3    H1 5556   3.574   6.580   0.572
 1893TIP3    H2 5557   3.698   6.583   0.659
 1894TIP3   OH2 5558   2.323   6.149   0.829
 1894TIP3    H1 5559   2.272   6.182   0.755
 1894TIP3    H2 5560   2.270   6.169   0.905
 1895TIP3   OH2 5561   9.308   2.403   7.911
 1895TIP3    H1 5562   9.355   2.397   7.827
 1895TIP3    H2 5563   9.373   2.436   7.973
 1896TIP3   OH2 5564   2.434   6.927   0.605
 1896TIP3    H1 5565   2.381   6.998   0.641
 1896TIP3    H2 5566   2.483   6.968   0.534
 1897TIP3   OH2 5567   3.198   6.256   0.255
 1897TIP3    H1 5568   3.149   6.243   0.336
 1897TIP3    H2 5569   3.249   6.335   0.270
 1898TIP3   OH2 5570   2.217   6.251   0.591
 1898TIP3    H1 5571   2.277   6.321   0.619
 1898TIP3    H2 5572   2.262   6.209   0.518
 1899TIP3   OH2 5573   2.286   7.128   0.720
 1899TIP3    H1 5574   2.262   7.215   0.688
 1899TIP3    H2 5575   2.212   7.102   0.775
 1900TIP3   OH2 5576   3.083   7.333   0.199
 1900TIP3    H1 5577   2.994   7.326   0.234
 1900TIP3    H2 5578   3.084   7.418   0.154
 1901TIP3   OH2 5579   3.417   6.201   0.567
 1901TIP3    H1 5580   3.332   6.228   0.530
 1901TIP3    H2 5581   3.482   6.233   0.505
 1902TIP3   OH2 5582   2.666   5.848   0.570
 1902TIP3    H1 5583   2.660   5.756   0.594
 1902TIP3    H2 5584   2.587   5.888   0.606
 1903TIP3   OH2 5585   3.303   7.219   0.538
 1903TIP3    H1 5586   3.284   7.146   0.479
 1903TIP3    H2 5587   3.289   7.297   0.484
 1904TIP3   OH2 5588   9.131   2.029   7.793
 1904TIP3    H1 5589   9.062   2.086   7.760
 1904TIP3    H2 5590   9.163   1.982   7.716
 1905TIP3   OH2 5591   3.467   6.858   0.375
 1905TIP3    H1 5592   3.387   6.910   0.377
 1905TIP3    H2 5593   3.503   6.872   0.288
 1906TIP3   OH2 5594   9.472   1.961   7.898
 1906TIP3    H1 5595   9.425   2.038   7.930
 1906TIP3    H2 5596   9.562   1.992   7.883
 1907TIP3   OH2 5597   3.186   6.747   0.718
 1907TIP3    H1 5598   3.181   6.831   0.765
 1907TIP3    H2 5599   3.104   6.743   0.668
 1908TIP3   OH2 5600   2.176   6.681   0.231
 1908TIP3    H1 5601   2.121   6.609   0.199
 1908TIP3    H2 5602   2.256   6.638   0.261
 1909TIP3   OH2 5603   2.341   7.113   0.351
 1909TIP3    H1 5604   2.356   7.187   0.292
 1909TIP3    H2 5605   2.427   7.073   0.362
 1910TIP3   OH2 5606   2.340   6.673   0.567
 1910TIP3    H1 5607   2.365   6.645   0.479
 1910TIP3    H2 5608   2.374   6.763   0.575
 1911TIP3   OH2 5609   2.839   7.328   0.313
 1911TIP3    H1 5610   2.821   7.410   0.359
 1911TIP3    H2 5611   2.825   7.259   0.378
 1912TIP3   OH2 5612   2.473   7.237   0.888
 1912TIP3    H1 5613   2.408   7.295   0.929
 1912TIP3    H2 5614   2.421   7.183   0.828
 1913TIP3   OH2 5615   2.228   6.771   1.027
 1913TIP3    H1 5616   2.230   6.865   1.046
 1913TIP3    H2 5617   2.135   6.749   1.023
 1914TIP3   OH2 5618   2.257   7.391   0.959
 1914TIP3    H1 5619   2.221   7.397   0.870
 1914TIP3    H2 5620   2.182   7.368   1.014
 1915TIP3   OH2 5621   1.888   6.912   0.910
 1915TIP3    H1 5622   1.854   6.875   0.829
 1915TIP3    H2 5623   1.920   6.837   0.960
 1916TIP3   OH2 5624   3.524   7.592   0.605
 1916TIP3    H1 5625   3.531   7.496   0.605
 1916TIP3    H2 5626   3.439   7.609   0.647
 1917TIP3   OH2 5627   2.657   7.375   0.742
 1917TIP3    H1 5628   2.655   7.467   0.769
 1917TIP3    H2 5629   2.592   7.332   0.798
 1918TIP3   OH2 5630   3.425   6.705   0.886
 1918TIP3    H1 5631   3.344   6.712   0.836
 1918TIP3    H2 5632   3.445   6.612   0.886
 1919TIP3   OH2 5633   2.075   7.110   0.895
 1919TIP3    H1 5634   2.122   7.104   0.978
 1919TIP3    H2 5635   2.008   7.042   0.900
 1920TIP3   OH2 5636   2.424   5.933   0.686
 1920TIP3    H1 5637   2.340   5.900   0.653
 1920TIP3    H2 5638   2.401   6.013   0.733
 1921TIP3   OH2 5639   2.969   6.061   0.893
 1921TIP3    H1 5640   3.038   6.037   0.955
 1921TIP3    H2 5641   2.887   6.045   0.941
 1922TIP3   OH2 5642   3.189   6.481   0.806
 1922TIP3    H1 5643   3.149   6.477   0.893
 1922TIP3    H2 5644   3.172   6.570   0.776
 1923TIP3   OH2 5645   9.187   1.372   7.648
 1923TIP3    H1 5646   9.138   1.356   7.729
 1923TIP3    H2 5647   9.121   1.362   7.579
 1924TIP3   OH2 5648   2.379   6.445   0.707
 1924TIP3    H1 5649   2.330   6.457   0.788
 1924TIP3    H2 5650   2.370   6.528   0.661
 1925TIP3   OH2 5651   2.255   6.353   0.200
 1925TIP3    H1 5652   2.168   6.322   0.225
 1925TIP3    H2 5653   2.263   6.330   0.107
 1926TIP3   OH2 5654   9.245   1.820   7.942
 1926TIP3    H1 5655   9.187   1.886   7.903
 1926TIP3    H2 5656   9.333   1.845   7.914
 1927TIP3   OH2 5657   2.914   6.691   1.016
 1927TIP3    H1 5658   2.886   6.624   1.079
 1927TIP3    H2 5659   3.007   6.706   1.037
 1928TIP3   OH2 5660   2.885   6.456   0.180
 1928TIP3    H1 5661   2.827   6.496   0.115
 1928TIP3    H2 5662   2.924   6.382   0.133
 1929TIP3   OH2 5663   2.206   6.486   0.917
 1929TIP3    H1 5664   2.218   6.551   0.987
 1929TIP3    H2 5665   2.187   6.405   0.963
 1930TIP3   OH2 5666   8.764   1.427   7.663
 1930TIP3    H1 5667   8.784   1.371   7.737
 1930TIP3    H2 5668   8.747   1.367   7.591
 1931TIP3   OH2 5669   1.792   6.008   0.458
 1931TIP3    H1 5670   1.856   6.044   0.520
 1931TIP3    H2 5671   1.843   5.948   0.404
 1932TIP3   OH2 5672   2.935   6.695   0.598
 1932TIP3    H1 5673   2.962   6.628   0.535
 1932TIP3    H2 5674   2.890   6.647   0.667
 1933TIP3   OH2 5675   2.619   6.138   0.278
 1933TIP3    H1 5676   2.537   6.137   0.327
 1933TIP3    H2 5677   2.687   6.130   0.344
 1934TIP3   OH2 5678   2.028   6.226   0.278
 1934TIP3    H1 5679   1.932   6.233   0.274
 1934TIP3    H2 5680   2.045   6.132   0.265
 1935TIP3   OH2 5681   8.842   1.630   7.942
 1935TIP3    H1 5682   8.930   1.620   7.977
 1935TIP3    H2 5683   8.855   1.669   7.855
 1936TIP3   OH2 5684   3.048   6.227   0.487
 1936TIP3    H1 5685   3.030   6.247   0.579
 1936TIP3    H2 5686   2.979   6.166   0.462
 1937TIP3   OH2 5687   3.256   7.933   0.707
 1937TIP3    H1 5688   3.253   7.948   0.612
 1937TIP3    H2 5689   3.333   7.980   0.736
 1938TIP3   OH2 5690   2.207   7.032   1.127
 1938TIP3    H1 5691   2.287   7.057   1.174
 1938TIP3    H2 5692   2.136   7.053   1.187
 1939TIP3   OH2 5693   2.670   6.513   0.372
 1939TIP3    H1 5694   2.739   6.470   0.321
 1939TIP3    H2 5695   2.672   6.467   0.456
 1940TIP3   OH2 5696   2.147   5.973   0.243
 1940TIP3    H1 5697   2.119   5.899   0.297
 1940TIP3    H2 5698   2.155   5.936   0.155
 1941TIP3   OH2 5699   2.644   6.407   0.633
 1941TIP3    H1 5700   2.556   6.432   0.661
 1941TIP3    H2 5701   2.702   6.460   0.688
 1942TIP3   OH2 5702   3.242   7.019   0.360
 1942TIP3    H1 5703   3.283   7.059   0.284
 1942TIP3    H2 5704   3.162   6.979   0.326
 1943TIP3   OH2 5705   2.782   7.107   0.776
 1943TIP3    H1 5706   2.832   7.095   0.856
 1943TIP3    H2 5707   2.742   7.193   0.785
 1944TIP3   OH2 5708   2.087   6.821   0.453
 1944TIP3    H1 5709   2.110   6.759   0.384
 1944TIP3    H2 5710   2.075   6.767   0.531
 1945TIP3   OH2 5711   1.963   6.688   1.049
 1945TIP3    H1 5712   1.961   6.666   1.142
 1945TIP3    H2 5713   1.888   6.643   1.012
 1946TIP3   OH2 5714   2.685   6.849   1.059
 1946TIP3    H1 5715   2.616   6.790   1.029
 1946TIP3    H2 5716   2.766   6.808   1.028
 1947TIP3   OH2 5717   2.923   7.401   0.659
 1947TIP3    H1 5718   2.828   7.384   0.663
 1947TIP3    H2 5719   2.944   7.436   0.745
 1948TIP3   OH2 5720   3.543   7.316   0.626
 1948TIP3    H1 5721   3.450   7.292   0.620
 1948TIP3    H2 5722   3.581   7.284   0.544
 1949TIP3   OH2 5723   3.015   6.887   0.262
 1949TIP3    H1 5724   2.927   6.862   0.290
 1949TIP3    H2 5725   3.054   6.807   0.229
 1950TIP3   OH2 5726   2.324   6.809   0.020
 1950TIP3    H1 5727   2.395   6.860   0.060
 1950TIP3    H2 5728   2.275   6.775   0.094
 1951TIP3   OH2 5729   2.458   7.471   0.563
 1951TIP3    H1 5730   2.503   7.538   0.512
 1951TIP3    H2 5731   2.528   7.427   0.612
 1952TIP3   OH2 5732   2.827   7.117   0.502
 1952TIP3    H1 5733   2.812   7.112   0.596
 1952TIP3    H2 5734   2.908   7.069   0.488
 1953TIP3   OH2 5735   3.058   7.618   0.546
 1953TIP3    H1 5736   2.995   7.548   0.563
 1953TIP3    H2 5737   3.025   7.662   0.468
 1954TIP3   OH2 5738   2.158   6.232   1.036
 1954TIP3    H1 5739   2.063   6.240   1.041
 1954TIP3    H2 5740   2.181   6.180   1.114
 1955TIP3   OH2 5741   1.906   7.239   0.719
 1955TIP3    H1 5742   1.946   7.206   0.639
 1955TIP3    H2 5743   1.968   7.216   0.789
 1956TIP3   OH2 5744   2.994   6.292   0.747
 1956TIP3    H1 5745   3.074   6.336   0.777
 1956TIP3    H2 5746   2.987   6.215   0.803
 1957TIP3   OH2 5747   9.415   1.425   7.931
 1957TIP3    H1 5748   9.382   1.452   7.846
 1957TIP3    H2 5749   9.463   1.501   7.964
 1958TIP3   OH2 5750   2.567   6.224   0.021
 1958TIP3    H1 5751   2.623   6.296  -0.007
 1958TIP3    H2 5752   2.592   6.208   0.112
 1959TIP3   OH2 5753   2.839   6.526   0.792
 1959TIP3    H1 5754   2.864   6.569   0.874
 1959TIP3    H2 5755   2.890   6.445   0.791
 1960TIP3   OH2 5756   2.719   5.930   0.116
 1960TIP3    H1 5757   2.691   6.007   0.167
 1960TIP3    H2 5758   2.785   5.964   0.056
 1961TIP3   OH2 5759   8.805   1.339   7.938
 1961TIP3    H1 5760   8.795   1.432   7.958
 1961TIP3    H2 5761   8.899   1.325   7.931
 1962TIP3   OH2 5762   3.455   6.435   0.796
 1962TIP3    H1 5763   3.359   6.436   0.802
 1962TIP3    H2 5764   3.473   6.402   0.708
 1963TIP3   OH2 5765   3.118   6.636   0.188
 1963TIP3    H1 5766   3.042   6.579   0.182
 1963TIP3    H2 5767   3.182   6.588   0.241
 1964TIP3   OH2 5768   3.094   7.598   0.110
 1964TIP3    H1 5769   3.052   7.602   0.024
 1964TIP3    H2 5770   3.182   7.631   0.095
 1965TIP3   OH2 5771   2.160   5.852   0.642
 1965TIP3    H1 5772   2.128   5.819   0.558
 1965TIP3    H2 5773   2.150   5.777   0.701
 1966TIP3   OH2 5774   1.886   7.607   1.137
 1966TIP3    H1 5775   1.970   7.605   1.184
 1966TIP3    H2 5776   1.854   7.517   1.142
 1967TIP3   OH2 5777   2.366   7.549   1.156
 1967TIP3    H1 5778   2.455   7.515   1.165
 1967TIP3    H2 5779   2.329   7.500   1.083
 1968TIP3   OH2 5780   2.977   7.497   0.910
 1968TIP3    H1 5781   2.991   7.424   0.971
 1968TIP3    H2 5782   3.052   7.555   0.925
 1969TIP3   OH2 5783   1.987   7.043   1.299
 1969TIP3    H1 5784   2.008   6.951   1.312
 1969TIP3    H2 5785   1.902   7.042   1.254
 1970TIP3   OH2 5786   2.626   7.126   1.085
 1970TIP3    H1 5787   2.580   7.151   1.005
 1970TIP3    H2 5788   2.659   7.038   1.068
 1971TIP3   OH2 5789   3.084   7.173   0.696
 1971TIP3    H1 5790   3.161   7.196   0.644
 1971TIP3    H2 5791   3.022   7.244   0.679
 1972TIP3   OH2 5792   2.108   6.790   1.310
 1972TIP3    H1 5793   2.185   6.781   1.253
 1972TIP3    H2 5794   2.145   6.811   1.396
 1973TIP3   OH2 5795   2.482   6.667   0.967
 1973TIP3    H1 5796   2.396   6.709   0.977
 1973TIP3    H2 5797   2.514   6.699   0.882
 1974TIP3   OH2 5798   2.964   7.044   1.031
 1974TIP3    H1 5799   3.035   7.007   0.978
 1974TIP3    H2 5800   2.961   6.989   1.110
 1975TIP3   OH2 5801   2.577   6.434   1.072
 1975TIP3    H1 5802   2.579   6.365   1.006
 1975TIP3    H2 5803   2.546   6.511   1.025
 1976TIP3   OH2 5804   2.583   6.238   0.865
 1976TIP3    H1 5805   2.614   6.273   0.782
 1976TIP3    H2 5806   2.493   6.213   0.849
 1977TIP3   OH2 5807   2.607   6.775   0.751
 1977TIP3    H1 5808   2.694   6.812   0.737
 1977TIP3    H2 5809   2.548   6.830   0.700
 1978TIP3   OH2 5810   3.180   6.728   1.116
 1978TIP3    H1 5811   3.227   6.645   1.120
 1978TIP3    H2 5812   3.249   6.794   1.108
 1979TIP3   OH2 5813   3.203   6.992   0.858
 1979TIP3    H1 5814   3.150   7.055   0.808
 1979TIP3    H2 5815   3.292   7.005   0.825
 1980TIP3   OH2 5816   2.461   6.520   1.314
 1980TIP3    H1 5817   2.392   6.457   1.334
 1980TIP3    H2 5818   2.489   6.497   1.225
 1981TIP3   OH2 5819   2.703   6.011   0.971
 1981TIP3    H1 5820   2.664   6.091   0.937
 1981TIP3    H2 5821   2.637   5.943   0.957
 1982TIP3   OH2 5822   2.831   6.481   1.174
 1982TIP3    H1 5823   2.821   6.469   1.268
 1982TIP3    H2 5824   2.746   6.458   1.137
 1983TIP3   OH2 5825   3.077   6.436   1.047
 1983TIP3    H1 5826   2.999   6.437   1.101
 1983TIP3    H2 5827   3.148   6.414   1.107
 1984TIP3   OH2 5828   3.312   6.404   1.196
 1984TIP3    H1 5829   3.327   6.310   1.202
 1984TIP3    H2 5830   3.308   6.433   1.287
 1985TIP3   OH2 5831   2.294   6.301   1.380
 1985TIP3    H1 5832   2.302   6.214   1.342
 1985TIP3    H2 5833   2.334   6.293   1.467
 1986TIP3   OH2 5834   2.768   5.986   1.236
 1986TIP3    H1 5835   2.837   5.921   1.229
 1986TIP3    H2 5836   2.738   6.000   1.146
 1987TIP3   OH2 5837   2.867   6.199   1.382
 1987TIP3    H1 5838   2.835   6.128   1.326
 1987TIP3    H2 5839   2.795   6.263   1.383
 1988TIP3   OH2 5840   3.341   7.710   0.095
 1988TIP3    H1 5841   3.379   7.699   0.183
 1988TIP3    H2 5842   3.396   7.777   0.054
 1989TIP3   OH2 5843   3.394   7.675   0.368
 1989TIP3    H1 5844   3.344   7.593   0.367
 1989TIP3    H2 5845   3.467   7.658   0.427
 1990TIP3   OH2 5846   3.430   7.381   0.956
 1990TIP3    H1 5847   3.361   7.392   1.021
 1990TIP3    H2 5848   3.478   7.463   0.957
 1991TIP3   OH2 5849   3.431   7.117   0.187
 1991TIP3    H1 5850   3.486   7.052   0.144
 1991TIP3    H2 5851   3.447   7.198   0.137
 1992TIP3   OH2 5852   3.238   7.447   0.399
 1992TIP3    H1 5853   3.169   7.494   0.446
 1992TIP3    H2 5854   3.193   7.406   0.325
 1993TIP3   OH2 5855   9.744   2.011   7.924
 1993TIP3    H1 5856   9.756   1.917   7.912
 1993TIP3    H2 5857   9.727   2.021   8.018
 1994TIP3   OH2 5858   1.849   6.720   0.706
 1994TIP3    H1 5859   1.827   6.689   0.618
 1994TIP3    H2 5860   1.944   6.705   0.714
 1995TIP3   OH2 5861   3.461   7.032   0.762
 1995TIP3    H1 5862   3.528   6.964   0.751
 1995TIP3    H2 5863   3.470   7.088   0.685
 1996TIP3   OH2 5864   3.639   6.819   0.761
 1996TIP3    H1 5865   3.567   6.778   0.808
 1996TIP3    H2 5866   3.716   6.767   0.785
 1997TIP3   OH2 5867   9.734   1.740   7.851
 1997TIP3    H1 5868   9.768   1.650   7.851
 1997TIP3    H2 5869   9.718   1.760   7.759
 1998TIP3   OH2 5870   3.325   6.495   0.323
 1998TIP3    H1 5871   3.406   6.515   0.275
 1998TIP3    H2 5872   3.338   6.535   0.409
 1999TIP3   OH2 5873   3.402   6.651   0.547
 1999TIP3    H1 5874   3.330   6.684   0.600
 1999TIP3    H2 5875   3.424   6.723   0.488
 2000TIP3   OH2 5876   2.031   6.350   1.316
 2000TIP3    H1 5877   2.124   6.347   1.338
 2000TIP3    H2 5878   1.996   6.268   1.351
 2001TIP3   OH2 5879   3.869   6.260   1.073
 2001TIP3    H1 5880   3.934   6.201   1.035
 2001TIP3    H2 5881   3.831   6.307   0.998
 2002TIP3   OH2 5882   0.001   1.476   7.864
 2002TIP3    H1 5883   0.068   1.465   7.933
 2002TIP3    H2 5884  -0.035   1.388   7.853
 2003TIP3   OH2 5885   1.994   6.075   0.645
 2003TIP3    H1 5886   2.046   5.995   0.656
 2003TIP3    H2 5887   2.058   6.144   0.630
 2004TIP3   OH2 5888   1.790   6.342   0.732
 2004TIP3    H1 5889   1.848   6.346   0.656
 2004TIP3    H2 5890   1.815   6.417   0.785
 2005TIP3   OH2 5891   3.715   6.366   0.874
 2005TIP3    H1 5892   3.631   6.406   0.897
 2005TIP3    H2 5893   3.692   6.289   0.822
 2006TIP3   OH2 5894   1.779   5.816   0.237
 2006TIP3    H1 5895   1.700   5.775   0.272
 2006TIP3    H2 5896   1.749   5.899   0.200
 2007TIP3   OH2 5897   1.996   5.894   1.042
 2007TIP3    H1 5898   1.946   5.889   1.124
 2007TIP3    H2 5899   1.941   5.947   0.984
 2008TIP3   OH2 5900   2.059   7.335   1.141
 2008TIP3    H1 5901   1.964   7.326   1.131
 2008TIP3    H2 5902   2.072   7.347   1.235
 2009TIP3   OH2 5903   2.217   7.392   0.678
 2009TIP3    H1 5904   2.147   7.436   0.630
 2009TIP3    H2 5905   2.298   7.429   0.643
 2010TIP3   OH2 5906   2.656   7.642   0.803
 2010TIP3    H1 5907   2.691   7.642   0.892
 2010TIP3    H2 5908   2.712   7.704   0.755
 2011TIP3   OH2 5909   2.852   7.804   0.675
 2011TIP3    H1 5910   2.920   7.743   0.646
 2011TIP3    H2 5911   2.898   7.864   0.735
 2012TIP3   OH2 5912   3.630   6.123   0.767
 2012TIP3    H1 5913   3.546   6.125   0.721
 2012TIP3    H2 5914   3.658   6.032   0.763
 2013TIP3   OH2 5915   2.546   7.681   0.401
 2013TIP3    H1 5916   2.524   7.661   0.309
 2013TIP3    H2 5917   2.577   7.771   0.399
 2014TIP3   OH2 5918   2.807   7.585   0.404
 2014TIP3    H1 5919   2.715   7.613   0.410
 2014TIP3    H2 5920   2.851   7.657   0.359
 2015TIP3   OH2 5921   3.005   7.766   0.311
 2015TIP3    H1 5922   2.992   7.851   0.269
 2015TIP3    H2 5923   3.034   7.709   0.239
 2016TIP3   OH2 5924   2.283   7.483   0.354
 2016TIP3    H1 5925   2.349   7.490   0.285
 2016TIP3    H2 5926   2.333   7.465   0.433
 2017TIP3   OH2 5927   2.836   6.047   0.429
 2017TIP3    H1 5928   2.794   5.974   0.475
 2017TIP3    H2 5929   2.902   6.007   0.374
 2018TIP3   OH2 5930   3.338   5.972   0.284
 2018TIP3    H1 5931   3.377   6.025   0.215
 2018TIP3    H2 5932   3.249   6.007   0.293
 2019TIP3   OH2 5933   3.464   6.052   0.052
 2019TIP3    H1 5934   3.521   5.980   0.026
 2019TIP3    H2 5935   3.515   6.131   0.032
 2020TIP3   OH2 5936   2.063   5.759   0.400
 2020TIP3    H1 5937   1.977   5.718   0.393
 2020TIP3    H2 5938   2.125   5.686   0.395
 2021TIP3   OH2 5939   1.914   5.664   0.050
 2021TIP3    H1 5940   1.940   5.738  -0.005
 2021TIP3    H2 5941   1.872   5.705   0.126
 2022TIP3   OH2 5942   2.573   5.788   0.308
 2022TIP3    H1 5943   2.621   5.837   0.242
 2022TIP3    H2 5944   2.608   5.819   0.392
 2023TIP3   OH2 5945   3.040   5.941   0.281
 2023TIP3    H1 5946   3.043   5.913   0.189
 2023TIP3    H2 5947   3.053   5.860   0.330
 2024TIP3   OH2 5948   9.680   1.225   7.853
 2024TIP3    H1 5949   9.599   1.268   7.824
 2024TIP3    H2 5950   9.650   1.148   7.902
 2025TIP3   OH2 5951   8.715   1.127   7.782
 2025TIP3    H1 5952   8.628   1.146   7.746
 2025TIP3    H2 5953   8.725   1.190   7.854
 2026TIP3   OH2 5954   9.074   1.357   7.904
 2026TIP3    H1 5955   9.131   1.307   7.963
 2026TIP3    H2 5956   9.087   1.448   7.930
 2027TIP3   OH2 5957   2.308   6.034   1.284
 2027TIP3    H1 5958   2.274   5.968   1.345
 2027TIP3    H2 5959   2.400   6.042   1.307
 2028TIP3   OH2 5960   2.554   6.040   1.411
 2028TIP3    H1 5961   2.631   6.019   1.358
 2028TIP3    H2 5962   2.549   5.971   1.476
 2029TIP3   OH2 5963   3.377   6.133   1.198
 2029TIP3    H1 5964   3.394   6.104   1.287
 2029TIP3    H2 5965   3.462   6.127   1.154
 2030TIP3   OH2 5966   3.280   7.659   0.707
 2030TIP3    H1 5967   3.203   7.634   0.655
 2030TIP3    H2 5968   3.271   7.754   0.718
 2031TIP3   OH2 5969   3.861   6.927   0.226
 2031TIP3    H1 5970   3.861   6.877   0.308
 2031TIP3    H2 5971   3.919   7.001   0.243
 2032TIP3   OH2 5972   0.442   1.992   8.000
 2032TIP3    H1 5973   0.532   1.959   8.007
 2032TIP3    H2 5974   0.406   1.946   7.923
 2033TIP3   OH2 5975   4.096   6.410   0.333
 2033TIP3    H1 5976   4.074   6.494   0.293
 2033TIP3    H2 5977   4.040   6.405   0.410
 2034TIP3   OH2 5978   3.963   6.503   0.039
 2034TIP3    H1 5979   4.002   6.563   0.101
 2034TIP3    H2 5980   4.032   6.485  -0.025
 2035TIP3   OH2 5981   4.075   7.442   0.280
 2035TIP3    H1 5982   4.127   7.415   0.205
 2035TIP3    H2 5983   4.027   7.363   0.305
 2036TIP3   OH2 5984   4.419   6.059   0.050
 2036TIP3    H1 5985   4.410   5.972   0.090
 2036TIP3    H2 5986   4.345   6.109   0.084
 2037TIP3   OH2 5987   4.252   7.571   0.442
 2037TIP3    H1 5988   4.236   7.664   0.426
 2037TIP3    H2 5989   4.183   7.526   0.392
 2038TIP3   OH2 5990   3.895   7.113   0.520
 2038TIP3    H1 5991   3.912   7.116   0.614
 2038TIP3    H2 5992   3.819   7.057   0.510
 2039TIP3   OH2 5993   3.917   7.653   0.346
 2039TIP3    H1 5994   3.964   7.573   0.323
 2039TIP3    H2 5995   3.908   7.649   0.441
 2040TIP3   OH2 5996   3.608   7.195   0.388
 2040TIP3    H1 5997   3.544   7.177   0.319
 2040TIP3    H2 5998   3.629   7.110   0.425
 2041TIP3   OH2 5999   3.518   7.347   0.070
 2041TIP3    H1 6000   3.515   7.401  -0.009
 2041TIP3    H2 6001   3.562   7.401   0.135
 2042TIP3   OH2 6002   5.237   6.893   0.336
 2042TIP3    H1 6003   5.153   6.891   0.290
 2042TIP3    H2 6004   5.302   6.898   0.266
 2043TIP3   OH2 6005   3.824   7.362   0.405
 2043TIP3    H1 6006   3.863   7.310   0.475
 2043TIP3    H2 6007   3.745   7.313   0.380
 2044TIP3   OH2 6008   4.202   6.191   0.177
 2044TIP3    H1 6009   4.115   6.158   0.153
 2044TIP3    H2 6010   4.185   6.273   0.222
 2045TIP3   OH2 6011   4.758   6.279   0.322
 2045TIP3    H1 6012   4.829   6.262   0.385
 2045TIP3    H2 6013   4.679   6.250   0.367
 2046TIP3   OH2 6014   4.987   6.841   0.228
 2046TIP3    H1 6015   5.002   6.755   0.268
 2046TIP3    H2 6016   4.936   6.823   0.149
 2047TIP3   OH2 6017   4.059   6.666   0.238
 2047TIP3    H1 6018   3.989   6.707   0.289
 2047TIP3    H2 6019   4.089   6.734   0.179
 2048TIP3   OH2 6020   4.611   6.962   0.616
 2048TIP3    H1 6021   4.592   6.881   0.664
 2048TIP3    H2 6022   4.689   6.941   0.564
 2049TIP3   OH2 6023   3.888   6.744   0.440
 2049TIP3    H1 6024   3.959   6.800   0.472
 2049TIP3    H2 6025   3.894   6.665   0.494
 2050TIP3   OH2 6026   0.387   1.615   7.982
 2050TIP3    H1 6027   0.427   1.660   8.057
 2050TIP3    H2 6028   0.458   1.565   7.944
 2051TIP3   OH2 6029   3.943   7.341   0.699
 2051TIP3    H1 6030   4.012   7.314   0.760
 2051TIP3    H2 6031   3.861   7.323   0.745
 2052TIP3   OH2 6032   4.460   6.632   0.166
 2052TIP3    H1 6033   4.475   6.722   0.194
 2052TIP3    H2 6034   4.544   6.589   0.178
 2053TIP3   OH2 6035   4.538   7.505   0.191
 2053TIP3    H1 6036   4.525   7.543   0.278
 2053TIP3    H2 6037   4.624   7.537   0.163
 2054TIP3   OH2 6038   3.666   6.964   0.529
 2054TIP3    H1 6039   3.680   6.915   0.610
 2054TIP3    H2 6040   3.604   6.911   0.479
 2055TIP3   OH2 6041   4.382   7.086   0.550
 2055TIP3    H1 6042   4.385   7.130   0.465
 2055TIP3    H2 6043   4.465   7.038   0.556
 2056TIP3   OH2 6044   3.937   6.461   0.554
 2056TIP3    H1 6045   3.842   6.463   0.566
 2056TIP3    H2 6046   3.970   6.415   0.631
 2057TIP3   OH2 6047   3.659   7.513   0.232
 2057TIP3    H1 6048   3.721   7.500   0.304
 2057TIP3    H2 6049   3.677   7.602   0.200
 2058TIP3   OH2 6050   4.692   6.539   0.271
 2058TIP3    H1 6051   4.780   6.574   0.254
 2058TIP3    H2 6052   4.706   6.445   0.284
 2059TIP3   OH2 6053   4.573   6.857   0.287
 2059TIP3    H1 6054   4.642   6.860   0.353
 2059TIP3    H2 6055   4.620   6.851   0.204
 2060TIP3   OH2 6056   3.945   6.106   0.152
 2060TIP3    H1 6057   3.907   6.078   0.068
 2060TIP3    H2 6058   3.944   6.027   0.206
 2061TIP3   OH2 6059   3.649   7.847   0.629
 2061TIP3    H1 6060   3.718   7.835   0.694
 2061TIP3    H2 6061   3.604   7.762   0.626
 2062TIP3   OH2 6062   4.137   7.833   0.700
 2062TIP3    H1 6063   4.230   7.838   0.718
 2062TIP3    H2 6064   4.131   7.829   0.604
 2063TIP3   OH2 6065   4.729   7.816   0.323
 2063TIP3    H1 6066   4.754   7.723   0.323
 2063TIP3    H2 6067   4.796   7.858   0.376
 2064TIP3   OH2 6068   3.717   7.295   0.843
 2064TIP3    H1 6069   3.689   7.218   0.891
 2064TIP3    H2 6070   3.648   7.311   0.779
 2065TIP3   OH2 6071   4.404   7.402   0.650
 2065TIP3    H1 6072   4.341   7.354   0.596
 2065TIP3    H2 6073   4.453   7.335   0.697
 2066TIP3   OH2 6074   3.924   7.050   0.792
 2066TIP3    H1 6075   4.015   7.035   0.765
 2066TIP3    H2 6076   3.931   7.081   0.882
 2067TIP3   OH2 6077   4.101   6.914   0.446
 2067TIP3    H1 6078   4.112   6.955   0.531
 2067TIP3    H2 6079   4.180   6.938   0.397
 2068TIP3   OH2 6080   4.874   7.258   0.707
 2068TIP3    H1 6081   4.829   7.253   0.623
 2068TIP3    H2 6082   4.833   7.332   0.752
 2069TIP3   OH2 6083   4.289   6.584   0.645
 2069TIP3    H1 6084   4.329   6.499   0.630
 2069TIP3    H2 6085   4.287   6.625   0.559
 2070TIP3   OH2 6086   4.366   6.413   0.312
 2070TIP3    H1 6087   4.386   6.501   0.281
 2070TIP3    H2 6088   4.272   6.415   0.332
 2071TIP3   OH2 6089   4.321   6.959   0.286
 2071TIP3    H1 6090   4.415   6.939   0.284
 2071TIP3    H2 6091   4.307   7.017   0.212
 2072TIP3   OH2 6092   4.905   6.988   0.740
 2072TIP3    H1 6093   4.991   6.951   0.719
 2072TIP3    H2 6094   4.910   7.078   0.710
 2073TIP3   OH2 6095   5.046   7.169   0.232
 2073TIP3    H1 6096   4.980   7.237   0.238
 2073TIP3    H2 6097   5.121   7.203   0.281
 2074TIP3   OH2 6098   4.212   6.771   0.827
 2074TIP3    H1 6099   4.139   6.731   0.874
 2074TIP3    H2 6100   4.236   6.705   0.761
 2075TIP3   OH2 6101   4.515   6.222   0.429
 2075TIP3    H1 6102   4.459   6.286   0.386
 2075TIP3    H2 6103   4.459   6.145   0.442
 2076TIP3   OH2 6104   4.568   6.721   0.733
 2076TIP3    H1 6105   4.507   6.690   0.799
 2076TIP3    H2 6106   4.540   6.678   0.652
 2077TIP3   OH2 6107   4.809   6.637   0.611
 2077TIP3    H1 6108   4.750   6.658   0.684
 2077TIP3    H2 6109   4.890   6.608   0.654
 2078TIP3   OH2 6110   5.060   6.622   0.725
 2078TIP3    H1 6111   5.132   6.559   0.735
 2078TIP3    H2 6112   5.037   6.646   0.815
 2079TIP3   OH2 6113   4.064   6.543   0.908
 2079TIP3    H1 6114   4.082   6.466   0.855
 2079TIP3    H2 6115   4.112   6.527   0.990
 2080TIP3   OH2 6116   4.511   6.165   0.747
 2080TIP3    H1 6117   4.571   6.091   0.742
 2080TIP3    H2 6118   4.558   6.236   0.703
 2081TIP3   OH2 6119   4.593   6.438   0.893
 2081TIP3    H1 6120   4.584   6.418   0.800
 2081TIP3    H2 6121   4.523   6.501   0.911
 2082TIP3   OH2 6122   5.098   7.644   0.459
 2082TIP3    H1 6123   5.097   7.642   0.555
 2082TIP3    H2 6124   5.190   7.662   0.436
 2083TIP3   OH2 6125   3.604   6.902   0.138
 2083TIP3    H1 6126   3.609   6.852   0.057
 2083TIP3    H2 6127   3.695   6.917   0.163
 2084TIP3   OH2 6128   3.817   6.616   0.815
 2084TIP3    H1 6129   3.908   6.610   0.842
 2084TIP3    H2 6130   3.778   6.534   0.845
 2085TIP3   OH2 6131   5.745   6.425   0.441
 2085TIP3    H1 6132   5.829   6.451   0.402
 2085TIP3    H2 6133   5.686   6.498   0.420
 2086TIP3   OH2 6134   3.799   6.336   0.193
 2086TIP3    H1 6135   3.856   6.259   0.198
 2086TIP3    H2 6136   3.852   6.402   0.149
 2087TIP3   OH2 6137   3.567   6.591   0.234
 2087TIP3    H1 6138   3.612   6.590   0.149
 2087TIP3    H2 6139   3.593   6.674   0.274
 2088TIP3   OH2 6140   5.578   6.628   0.381
 2088TIP3    H1 6141   5.485   6.625   0.404
 2088TIP3    H2 6142   5.580   6.679   0.299
 2089TIP3   OH2 6143   3.792   6.145   0.535
 2089TIP3    H1 6144   3.745   6.143   0.618
 2089TIP3    H2 6145   3.740   6.202   0.479
 2090TIP3   OH2 6146   3.738   7.609   0.776
 2090TIP3    H1 6147   3.666   7.588   0.716
 2090TIP3    H2 6148   3.815   7.616   0.720
 2091TIP3   OH2 6149   5.331   6.322   0.296
 2091TIP3    H1 6150   5.322   6.395   0.235
 2091TIP3    H2 6151   5.385   6.258   0.249
 2092TIP3   OH2 6152   3.626   8.031   0.109
 2092TIP3    H1 6153   3.537   8.058   0.085
 2092TIP3    H2 6154   3.618   8.002   0.199
 2093TIP3   OH2 6155   0.566   1.395   7.921
 2093TIP3    H1 6156   0.485   1.345   7.927
 2093TIP3    H2 6157   0.631   1.332   7.890
 2094TIP3   OH2 6158   4.088   6.290   0.768
 2094TIP3    H1 6159   4.054   6.224   0.828
 2094TIP3    H2 6160   4.180   6.300   0.793
 2095TIP3   OH2 6161   4.325   6.287   0.909
 2095TIP3    H1 6162   4.395   6.249   0.857
 2095TIP3    H2 6163   4.313   6.227   0.982
 2096TIP3   OH2 6164   5.160   6.308   0.695
 2096TIP3    H1 6165   5.093   6.304   0.763
 2096TIP3    H2 6166   5.243   6.299   0.742
 2097TIP3   OH2 6167   6.002   6.509   0.393
 2097TIP3    H1 6168   6.063   6.531   0.322
 2097TIP3    H2 6169   6.059   6.477   0.464
 2098TIP3   OH2 6170   1.727   7.832   1.175
 2098TIP3    H1 6171   1.783   7.755   1.163
 2098TIP3    H2 6172   1.664   7.826   1.104
 2099TIP3   OH2 6173   3.230   8.296   0.212
 2099TIP3    H1 6174   3.213   8.349   0.135
 2099TIP3    H2 6175   3.283   8.352   0.268
 2100TIP3   OH2 6176   3.011   8.030   0.215
 2100TIP3    H1 6177   3.028   8.083   0.292
 2100TIP3    H2 6178   3.071   8.063   0.149
 2101TIP3   OH2 6179   3.053   8.504   0.559
 2101TIP3    H1 6180   3.056   8.505   0.464
 2101TIP3    H2 6181   3.109   8.430   0.584
 2102TIP3   OH2 6182   2.658   7.917   0.500
 2102TIP3    H1 6183   2.735   7.887   0.549
 2102TIP3    H2 6184   2.589   7.925   0.566
 2103TIP3   OH2 6185   2.807   8.306   0.411
 2103TIP3    H1 6186   2.780   8.293   0.502
 2103TIP3    H2 6187   2.782   8.397   0.392
 2104TIP3   OH2 6188   2.617   8.567   0.743
 2104TIP3    H1 6189   2.570   8.485   0.758
 2104TIP3    H2 6190   2.709   8.541   0.738
 2105TIP3   OH2 6191   2.630   8.121   0.304
 2105TIP3    H1 6192   2.690   8.184   0.345
 2105TIP3    H2 6193   2.617   8.054   0.370
 2106TIP3   OH2 6194   3.069   8.215   0.421
 2106TIP3    H1 6195   2.980   8.250   0.423
 2106TIP3    H2 6196   3.113   8.262   0.350
 2107TIP3   OH2 6197   2.886   8.505   0.777
 2107TIP3    H1 6198   2.907   8.416   0.805
 2107TIP3    H2 6199   2.941   8.520   0.700
 2108TIP3   OH2 6200   2.421   7.807   0.629
 2108TIP3    H1 6201   2.382   7.876   0.575
 2108TIP3    H2 6202   2.456   7.744   0.566
 2109TIP3   OH2 6203   2.508   8.324   0.827
 2109TIP3    H1 6204   2.550   8.314   0.912
 2109TIP3    H2 6205   2.417   8.299   0.842
 2110TIP3   OH2 6206   2.727   8.258   0.664
 2110TIP3    H1 6207   2.647   8.269   0.715
 2110TIP3    H2 6208   2.795   8.238   0.729
 2111TIP3   OH2 6209   2.950   8.229   0.845
 2111TIP3    H1 6210   2.964   8.134   0.845
 2111TIP3    H2 6211   2.942   8.251   0.938
 2112TIP3   OH2 6212   2.034   8.215   1.072
 2112TIP3    H1 6213   1.993   8.168   0.999
 2112TIP3    H2 6214   2.041   8.150   1.141
 2113TIP3   OH2 6215   2.407   7.791   0.902
 2113TIP3    H1 6216   2.465   7.716   0.913
 2113TIP3    H2 6217   2.400   7.803   0.807
 2114TIP3   OH2 6218   2.501   8.021   1.019
 2114TIP3    H1 6219   2.473   7.941   0.975
 2114TIP3    H2 6220   2.427   8.082   1.009
 2115TIP3   OH2 6221   3.244   8.695   0.431
 2115TIP3    H1 6222   3.255   8.608   0.467
 2115TIP3    H2 6223   3.328   8.739   0.448
 2116TIP3   OH2 6224   3.067   8.556   0.268
 2116TIP3    H1 6225   3.114   8.546   0.185
 2116TIP3    H2 6226   3.114   8.626   0.313
 2117TIP3   OH2 6227   3.507   8.068   0.712
 2117TIP3    H1 6228   3.562   8.000   0.671
 2117TIP3    H2 6229   3.466   8.113   0.638
 2118TIP3   OH2 6230   3.329   8.154   0.516
 2118TIP3    H1 6231   3.239   8.185   0.527
 2118TIP3    H2 6232   3.320   8.077   0.460
 2119TIP3   OH2 6233   3.256   7.910   0.405
 2119TIP3    H1 6234   3.168   7.877   0.388
 2119TIP3    H2 6235   3.313   7.834   0.394
 2120TIP3   OH2 6236   1.957   7.752   0.913
 2120TIP3    H1 6237   1.935   7.698   0.989
 2120TIP3    H2 6238   2.024   7.812   0.945
 2121TIP3   OH2 6239   2.186   7.848   1.076
 2121TIP3    H1 6240   2.260   7.825   1.020
 2121TIP3    H2 6241   2.173   7.771   1.132
 2122TIP3   OH2 6242   3.016   7.959   0.843
 2122TIP3    H1 6243   3.031   7.925   0.932
 2122TIP3    H2 6244   3.101   7.949   0.800
 2123TIP3   OH2 6245   3.512   8.746   0.503
 2123TIP3    H1 6246   3.563   8.669   0.478
 2123TIP3    H2 6247   3.547   8.817   0.449
 2124TIP3   OH2 6248   3.837   8.705   0.371
 2124TIP3    H1 6249   3.830   8.618   0.331
 2124TIP3    H2 6250   3.892   8.755   0.311
 2125TIP3   OH2 6251   3.607   8.423   0.548
 2125TIP3    H1 6252   3.635   8.349   0.494
 2125TIP3    H2 6253   3.637   8.401   0.636
 2126TIP3   OH2 6254   4.208   8.297   0.555
 2126TIP3    H1 6255   4.155   8.247   0.494
 2126TIP3    H2 6256   4.186   8.389   0.538
 2127TIP3   OH2 6257   3.359   8.416   0.429
 2127TIP3    H1 6258   3.443   8.451   0.458
 2127TIP3    H2 6259   3.357   8.327   0.463
 2128TIP3   OH2 6260   3.353   8.050   0.174
 2128TIP3    H1 6261   3.318   8.002   0.249
 2128TIP3    H2 6262   3.315   8.138   0.182
 2129TIP3   OH2 6263   3.669   7.923   0.362
 2129TIP3    H1 6264   3.666   7.883   0.449
 2129TIP3    H2 6265   3.679   8.017   0.380
 2130TIP3   OH2 6266   3.858   8.088   0.607
 2130TIP3    H1 6267   3.940   8.101   0.654
 2130TIP3    H2 6268   3.824   8.005   0.641
 2131TIP3   OH2 6269   8.029   9.108   4.765
 2131TIP3    H1 6270   7.957   9.091   4.704
 2131TIP3    H2 6271   8.009   9.194   4.801
 2132TIP3   OH2 6272   1.802   0.331   4.824
 2132TIP3    H1 6273   1.781   0.245   4.860
 2132TIP3    H2 6274   1.721   0.382   4.835
 2133TIP3   OH2 6275   1.482   0.664   4.908
 2133TIP3    H1 6276   1.396   0.695   4.880
 2133TIP3    H2 6277   1.514   0.733   4.967
 2134TIP3   OH2 6278   1.771   0.070   4.879
 2134TIP3    H1 6279   1.682   0.047   4.904
 2134TIP3    H2 6280   1.792   0.008   4.808
 2135TIP3   OH2 6281   1.278   0.309   4.791
 2135TIP3    H1 6282   1.240   0.224   4.812
 2135TIP3    H2 6283   1.255   0.323   4.699
 2136TIP3   OH2 6284   1.282   0.149   5.044
 2136TIP3    H1 6285   1.195   0.189   5.052
 2136TIP3    H2 6286   1.320   0.157   5.132
 2137TIP3   OH2 6287   1.644   0.511   4.258
 2137TIP3    H1 6288   1.657   0.425   4.296
 2137TIP3    H2 6289   1.608   0.494   4.171
 2138TIP3   OH2 6290   1.743   0.460   4.567
 2138TIP3    H1 6291   1.656   0.421   4.567
 2138TIP3    H2 6292   1.803   0.385   4.561
 2139TIP3   OH2 6293   1.575   0.035   5.166
 2139TIP3    H1 6294   1.590   0.031   5.261
 2139TIP3    H2 6295   1.606   0.121   5.140
 2140TIP3   OH2 6296   1.334   0.145   4.556
 2140TIP3    H1 6297   1.427   0.125   4.571
 2140TIP3    H2 6298   1.327   0.155   4.461
 2141TIP3   OH2 6299   8.318   8.842   5.061
 2141TIP3    H1 6300   8.358   8.760   5.031
 2141TIP3    H2 6301   8.290   8.886   4.980
 2142TIP3   OH2 6302   8.451   8.623   4.969
 2142TIP3    H1 6303   8.394   8.572   4.912
 2142TIP3    H2 6304   8.459   8.571   5.049
 2143TIP3   OH2 6305   1.132   0.532   4.849
 2143TIP3    H1 6306   1.178   0.461   4.804
 2143TIP3    H2 6307   1.167   0.530   4.938
 2144TIP3   OH2 6308   1.185   0.389   4.551
 2144TIP3    H1 6309   1.165   0.481   4.532
 2144TIP3    H2 6310   1.145   0.341   4.478
 2145TIP3   OH2 6311   1.531   0.399   4.866
 2145TIP3    H1 6312   1.456   0.386   4.808
 2145TIP3    H2 6313   1.523   0.490   4.895
 2146TIP3   OH2 6314   9.421   8.951   3.736
 2146TIP3    H1 6315   9.402   9.045   3.734
 2146TIP3    H2 6316   9.338   8.909   3.713
 2147TIP3   OH2 6317   9.414   8.951   4.106
 2147TIP3    H1 6318   9.461   8.933   4.187
 2147TIP3    H2 6319   9.375   8.867   4.081
 2148TIP3   OH2 6320   8.704   8.859   4.393
 2148TIP3    H1 6321   8.710   8.790   4.460
 2148TIP3    H2 6322   8.795   8.873   4.365
 2149TIP3   OH2 6323   3.165   0.030   3.799
 2149TIP3    H1 6324   3.136  -0.029   3.868
 2149TIP3    H2 6325   3.176   0.115   3.842
 2150TIP3   OH2 6326   2.050   0.029   4.109
 2150TIP3    H1 6327   2.020  -0.007   4.025
 2150TIP3    H2 6328   2.136  -0.011   4.122
 2151TIP3   OH2 6329   2.802   0.453   3.812
 2151TIP3    H1 6330   2.828   0.390   3.744
 2151TIP3    H2 6331   2.800   0.402   3.893
 2152TIP3   OH2 6332   9.241   9.172   4.126
 2152TIP3    H1 6333   9.285   9.094   4.094
 2152TIP3    H2 6334   9.312   9.232   4.149
 2153TIP3   OH2 6335   9.645   8.666   4.147
 2153TIP3    H1 6336   9.706   8.600   4.182
 2153TIP3    H2 6337   9.601   8.622   4.074
 2154TIP3   OH2 6338   0.396   8.626   4.305
 2154TIP3    H1 6339   0.332   8.697   4.299
 2154TIP3    H2 6340   0.453   8.650   4.378
 2155TIP3   OH2 6341   9.314   9.201   3.677
 2155TIP3    H1 6342   9.389   9.239   3.632
 2155TIP3    H2 6343   9.242   9.262   3.661
 2156TIP3   OH2 6344   9.109   9.113   4.358
 2156TIP3    H1 6345   9.052   9.186   4.380
 2156TIP3    H2 6346   9.153   9.140   4.277
 2157TIP3   OH2 6347   2.393   0.085   4.397
 2157TIP3    H1 6348   2.362   0.175   4.392
 2157TIP3    H2 6349   2.338   0.044   4.464
 2158TIP3   OH2 6350   3.178   0.278   3.930
 2158TIP3    H1 6351   3.090   0.271   3.967
 2158TIP3    H2 6352   3.177   0.361   3.882
 2159TIP3   OH2 6353   2.886   0.304   3.593
 2159TIP3    H1 6354   2.932   0.221   3.585
 2159TIP3    H2 6355   2.949   0.370   3.564
 2160TIP3   OH2 6356   3.014   0.066   3.571
 2160TIP3    H1 6357   3.051   0.024   3.494
 2160TIP3    H2 6358   3.076   0.048   3.641
 2161TIP3   OH2 6359   3.402   0.172   4.281
 2161TIP3    H1 6360   3.385   0.098   4.223
 2161TIP3    H2 6361   3.389   0.249   4.225
 2162TIP3   OH2 6362   0.309   9.076   4.159
 2162TIP3    H1 6363   0.225   9.122   4.156
 2162TIP3    H2 6364   0.343   9.084   4.070
 2163TIP3   OH2 6365   9.617   8.946   3.535
 2163TIP3    H1 6366   9.550   8.949   3.604
 2163TIP3    H2 6367   9.693   8.907   3.578
 2164TIP3   OH2 6368   9.820   8.927   4.442
 2164TIP3    H1 6369   9.819   9.012   4.485
 2164TIP3    H2 6370   9.738   8.924   4.392
 2165TIP3   OH2 6371   2.476   0.077   4.033
 2165TIP3    H1 6372   2.411   0.016   4.067
 2165TIP3    H2 6373   2.560   0.031   4.045
 2166TIP3   OH2 6374   8.933   8.917   4.250
 2166TIP3    H1 6375   8.941   8.900   4.156
 2166TIP3    H2 6376   9.011   8.968   4.272
 2167TIP3   OH2 6377   2.939   0.272   4.059
 2167TIP3    H1 6378   2.924   0.351   4.110
 2167TIP3    H2 6379   2.928   0.200   4.121
 2168TIP3   OH2 6380   2.568   0.172   4.603
 2168TIP3    H1 6381   2.506   0.234   4.642
 2168TIP3    H2 6382   2.517   0.126   4.536
 2169TIP3   OH2 6383   8.857   8.918   4.692
 2169TIP3    H1 6384   8.820   8.990   4.641
 2169TIP3    H2 6385   8.807   8.918   4.774
 2170TIP3   OH2 6386   2.633   0.196   3.603
 2170TIP3    H1 6387   2.719   0.237   3.605
 2170TIP3    H2 6388   2.575   0.261   3.564
 2171TIP3   OH2 6389   2.382   0.367   4.668
 2171TIP3    H1 6390   2.376   0.376   4.573
 2171TIP3    H2 6391   2.292   0.378   4.699
 2172TIP3   OH2 6392   3.247   0.167   2.975
 2172TIP3    H1 6393   3.241   0.243   2.917
 2172TIP3    H2 6394   3.326   0.121   2.946
 2173TIP3   OH2 6395   8.365   9.174   4.640
 2173TIP3    H1 6396   8.319   9.119   4.577
 2173TIP3    H2 6397   8.454   9.138   4.644
 2174TIP3   OH2 6398   1.795   0.001   4.244
 2174TIP3    H1 6399   1.878   0.026   4.201
 2174TIP3    H2 6400   1.766   0.082   4.287
 2175TIP3   OH2 6401   3.639   0.516   4.353
 2175TIP3    H1 6402   3.641   0.422   4.370
 2175TIP3    H2 6403   3.562   0.547   4.400
 2176TIP3   OH2 6404   2.756   0.322   4.471
 2176TIP3    H1 6405   2.745   0.413   4.501
 2176TIP3    H2 6406   2.686   0.274   4.516
 2177TIP3   OH2 6407   2.508   0.411   3.462
 2177TIP3    H1 6408   2.430   0.382   3.415
 2177TIP3    H2 6409   2.491   0.503   3.481
 2178TIP3   OH2 6410   2.766   0.424   3.357
 2178TIP3    H1 6411   2.675   0.410   3.385
 2178TIP3    H2 6412   2.818   0.367   3.413
 2179TIP3   OH2 6413   0.269   8.916   4.642
 2179TIP3    H1 6414   0.193   8.946   4.591
 2179TIP3    H2 6415   0.285   8.827   4.611
 2180TIP3   OH2 6416   2.069   0.047   4.773
 2180TIP3    H1 6417   2.158   0.052   4.807
 2180TIP3    H2 6418   2.078   0.065   4.679
 2181TIP3   OH2 6419   9.769   8.754   4.651
 2181TIP3    H1 6420   9.805   8.666   4.641
 2181TIP3    H2 6421   9.793   8.799   4.569
 2182TIP3   OH2 6422   8.894   8.574   4.299
 2182TIP3    H1 6423   8.907   8.642   4.366
 2182TIP3    H2 6424   8.942   8.606   4.223
 2183TIP3   OH2 6425   9.573   8.948   4.736
 2183TIP3    H1 6426   9.554   8.894   4.812
 2183TIP3    H2 6427   9.642   8.899   4.690
 2184TIP3   OH2 6428   9.535   8.627   3.883
 2184TIP3    H1 6429   9.529   8.712   3.839
 2184TIP3    H2 6430   9.587   8.573   3.823
 2185TIP3   OH2 6431   8.674   8.655   4.579
 2185TIP3    H1 6432   8.672   8.674   4.673
 2185TIP3    H2 6433   8.639   8.567   4.572
 2186TIP3   OH2 6434   9.577   8.870   4.320
 2186TIP3    H1 6435   9.600   8.796   4.262
 2186TIP3    H2 6436   9.533   8.829   4.394
 2187TIP3   OH2 6437   3.356   0.869   4.438
 2187TIP3    H1 6438   3.355   0.884   4.343
 2187TIP3    H2 6439   3.434   0.917   4.468
 2188TIP3   OH2 6440   2.330   0.040   4.847
 2188TIP3    H1 6441   2.357   0.128   4.875
 2188TIP3    H2 6442   2.332  -0.013   4.927
 2189TIP3   OH2 6443   9.339   8.679   4.068
 2189TIP3    H1 6444   9.399   8.647   4.001
 2189TIP3    H2 6445   9.367   8.635   4.149
 2190TIP3   OH2 6446   9.393   8.588   4.324
 2190TIP3    H1 6447   9.308   8.631   4.335
 2190TIP3    H2 6448   9.448   8.624   4.394
 2191TIP3   OH2 6449   0.077   9.212   4.102
 2191TIP3    H1 6450   0.113   9.262   4.029
 2191TIP3    H2 6451  -0.004   9.174   4.067
 2192TIP3   OH2 6452   2.873   0.058   4.496
 2192TIP3    H1 6453   2.903   0.030   4.583
 2192TIP3    H2 6454   2.835   0.144   4.510
 2193TIP3   OH2 6455   8.510   8.824   4.781
 2193TIP3    H1 6456   8.587   8.852   4.832
 2193TIP3    H2 6457   8.480   8.745   4.826
 2194TIP3   OH2 6458   9.331   9.069   4.802
 2194TIP3    H1 6459   9.255   9.034   4.755
 2194TIP3    H2 6460   9.406   9.024   4.763
 2195TIP3   OH2 6461   3.026   0.333   4.402
 2195TIP3    H1 6462   2.931   0.323   4.405
 2195TIP3    H2 6463   3.050   0.368   4.488
 2196TIP3   OH2 6464   3.651   0.228   4.374
 2196TIP3    H1 6465   3.557   0.219   4.359
 2196TIP3    H2 6466   3.691   0.203   4.291
 2197TIP3   OH2 6467   3.138   0.175   3.229
 2197TIP3    H1 6468   3.121   0.089   3.269
 2197TIP3    H2 6469   3.167   0.154   3.140
 2198TIP3   OH2 6470   9.647   9.086   4.004
 2198TIP3    H1 6471   9.557   9.062   4.027
 2198TIP3    H2 6472   9.685   9.005   3.971
 2199TIP3   OH2 6473   2.596   0.385   4.243
 2199TIP3    H1 6474   2.628   0.462   4.196
 2199TIP3    H2 6475   2.670   0.359   4.298
 2200TIP3   OH2 6476   2.936   0.050   4.231
 2200TIP3    H1 6477   2.915   0.053   4.324
 2200TIP3    H2 6478   3.026   0.016   4.228
 2201TIP3   OH2 6479   3.174   0.542   4.281
 2201TIP3    H1 6480   3.106   0.478   4.302
 2201TIP3    H2 6481   3.137   0.594   4.210
 2202TIP3   OH2 6482   3.240   0.429   2.868
 2202TIP3    H1 6483   3.303   0.500   2.875
 2202TIP3    H2 6484   3.165   0.457   2.921
 2203TIP3   OH2 6485   9.652   9.159   3.360
 2203TIP3    H1 6486   9.624   9.081   3.408
 2203TIP3    H2 6487   9.738   9.135   3.325
 2204TIP3   OH2 6488   1.971   0.359   4.357
 2204TIP3    H1 6489   2.047   0.308   4.384
 2204TIP3    H2 6490   1.985   0.446   4.395
 2205TIP3   OH2 6491   9.515   8.703   4.538
 2205TIP3    H1 6492   9.437   8.732   4.587
 2205TIP3    H2 6493   9.586   8.705   4.603
 2206TIP3   OH2 6494   9.749   8.833   3.947
 2206TIP3    H1 6495   9.685   8.792   4.006
 2206TIP3    H2 6496   9.834   8.801   3.976
 2207TIP3   OH2 6497   3.199   0.543   3.843
 2207TIP3    H1 6498   3.160   0.595   3.774
 2207TIP3    H2 6499   3.294   0.554   3.832
 2208TIP3   OH2 6500   2.057   0.605   4.866
 2208TIP3    H1 6501   2.133   0.609   4.924
 2208TIP3    H2 6502   2.062   0.519   4.825
 2209TIP3   OH2 6503   2.488   0.499   4.888
 2209TIP3    H1 6504   2.576   0.462   4.902
 2209TIP3    H2 6505   2.457   0.455   4.808
 2210TIP3   OH2 6506   3.079   0.428   4.653
 2210TIP3    H1 6507   3.091   0.356   4.716
 2210TIP3    H2 6508   3.153   0.486   4.669
 2211TIP3   OH2 6509   8.576   9.228   5.169
 2211TIP3    H1 6510   8.537   9.149   5.132
 2211TIP3    H2 6511   8.553   9.297   5.107
 2212TIP3   OH2 6512   2.731   0.096   4.813
 2212TIP3    H1 6513   2.677   0.107   4.735
 2212TIP3    H2 6514   2.765   0.007   4.807
 2213TIP3   OH2 6515   3.187   0.099   4.436
 2213TIP3    H1 6516   3.264   0.131   4.389
 2213TIP3    H2 6517   3.122   0.169   4.427
 2214TIP3   OH2 6518   8.723   8.926   4.927
 2214TIP3    H1 6519   8.760   8.902   5.012
 2214TIP3    H2 6520   8.655   8.990   4.948
 2215TIP3   OH2 6521   9.123   8.984   4.646
 2215TIP3    H1 6522   9.030   8.981   4.667
 2215TIP3    H2 6523   9.126   9.016   4.556
 2216TIP3   OH2 6524   9.619   9.209   4.818
 2216TIP3    H1 6525   9.604   9.134   4.762
 2216TIP3    H2 6526   9.624   9.173   4.907
 2217TIP3   OH2 6527   9.159   8.547   4.870
 2217TIP3    H1 6528   9.147   8.500   4.788
 2217TIP3    H2 6529   9.111   8.629   4.858
 2218TIP3   OH2 6530   9.347   8.986   4.452
 2218TIP3    H1 6531   9.427   9.022   4.414
 2218TIP3    H2 6532   9.277   9.042   4.419
 2219TIP3   OH2 6533   0.045   8.901   4.889
 2219TIP3    H1 6534   0.008   8.830   4.836
 2219TIP3    H2 6535   0.100   8.949   4.828
 2220TIP3   OH2 6536   0.057   9.154   4.587
 2220TIP3    H1 6537  -0.003   9.218   4.549
 2220TIP3    H2 6538   0.144   9.194   4.579
 2221TIP3   OH2 6539   9.104   8.729   5.125
 2221TIP3    H1 6540   9.150   8.644   5.130
 2221TIP3    H2 6541   9.087   8.741   5.032
 2222TIP3   OH2 6542   9.550   8.785   4.953
 2222TIP3    H1 6543   9.489   8.788   5.027
 2222TIP3    H2 6544   9.598   8.703   4.965
 2223TIP3   OH2 6545   3.471   0.588   3.844
 2223TIP3    H1 6546   3.493   0.617   3.933
 2223TIP3    H2 6547   3.527   0.641   3.787
 2224TIP3   OH2 6548   3.491   0.620   4.126
 2224TIP3    H1 6549   3.443   0.538   4.119
 2224TIP3    H2 6550   3.561   0.601   4.189
 2225TIP3   OH2 6551   3.554   0.333   4.661
 2225TIP3    H1 6552   3.478   0.335   4.720
 2225TIP3    H2 6553   3.590   0.421   4.665
 2226TIP3   OH2 6554   0.107   9.086   3.292
 2226TIP3    H1 6555   0.171   9.151   3.263
 2226TIP3    H2 6556   0.148   9.044   3.367
 2227TIP3   OH2 6557   0.215   8.962   3.515
 2227TIP3    H1 6558   0.149   8.941   3.580
 2227TIP3    H2 6559   0.281   9.011   3.564
 2228TIP3   OH2 6560   3.533   0.111   3.947
 2228TIP3    H1 6561   3.573   0.039   3.899
 2228TIP3    H2 6562   3.536   0.186   3.888
 2229TIP3   OH2 6563   3.343   0.387   4.124
 2229TIP3    H1 6564   3.277   0.433   4.176
 2229TIP3    H2 6565   3.295   0.348   4.052
 2230TIP3   OH2 6566   0.029   8.830   3.682
 2230TIP3    H1 6567   0.070   8.743   3.684
 2230TIP3    H2 6568  -0.002   8.844   3.772
 2231TIP3   OH2 6569   3.577   0.017   4.552
 2231TIP3    H1 6570   3.646  -0.044   4.527
 2231TIP3    H2 6571   3.595   0.096   4.501
 2232TIP3   OH2 6572   0.499   9.046   4.543
 2232TIP3    H1 6573   0.426   9.010   4.593
 2232TIP3    H2 6574   0.560   9.077   4.610
 2233TIP3   OH2 6575   0.172   8.724   4.049
 2233TIP3    H1 6576   0.246   8.756   3.996
 2233TIP3    H2 6577   0.195   8.748   4.138
 2234TIP3   OH2 6578   0.234   8.846   4.291
 2234TIP3    H1 6579   0.157   8.873   4.340
 2234TIP3    H2 6580   0.267   8.926   4.250
 2235TIP3   OH2 6581   3.049   0.493   3.494
 2235TIP3    H1 6582   3.096   0.483   3.411
 2235TIP3    H2 6583   3.089   0.570   3.534
 2236TIP3   OH2 6584   2.118   0.352   4.767
 2236TIP3    H1 6585   2.031   0.316   4.786
 2236TIP3    H2 6586   2.170   0.327   4.844
 2237TIP3   OH2 6587   2.373   0.367   4.395
 2237TIP3    H1 6588   2.319   0.439   4.360
 2237TIP3    H2 6589   2.453   0.369   4.342
 2238TIP3   OH2 6590   2.733   0.584   4.555
 2238TIP3    H1 6591   2.770   0.578   4.643
 2238TIP3    H2 6592   2.795   0.638   4.506
 2239TIP3   OH2 6593   2.926   0.735   4.430
 2239TIP3    H1 6594   2.989   0.682   4.380
 2239TIP3    H2 6595   2.981   0.793   4.482
 2240TIP3   OH2 6596   2.020   0.615   4.452
 2240TIP3    H1 6597   1.935   0.648   4.422
 2240TIP3    H2 6598   2.042   0.670   4.527
 2241TIP3   OH2 6599   2.243   0.586   4.295
 2241TIP3    H1 6600   2.163   0.599   4.347
 2241TIP3    H2 6601   2.215   0.602   4.205
 2242TIP3   OH2 6602   2.648   0.609   4.092
 2242TIP3    H1 6603   2.576   0.621   4.031
 2242TIP3    H2 6604   2.657   0.693   4.136
 2243TIP3   OH2 6605   2.905   0.531   4.151
 2243TIP3    H1 6606   2.816   0.556   4.126
 2243TIP3    H2 6607   2.961   0.593   4.105
 2244TIP3   OH2 6608   3.108   0.695   4.053
 2244TIP3    H1 6609   3.106   0.783   4.015
 2244TIP3    H2 6610   3.137   0.639   3.981
 2245TIP3   OH2 6611   1.889   0.369   4.097
 2245TIP3    H1 6612   1.902   0.374   4.191
 2245TIP3    H2 6613   1.975   0.348   4.061
 2246TIP3   OH2 6614   2.139   0.299   4.032
 2246TIP3    H1 6615   2.134   0.206   4.054
 2246TIP3    H2 6616   2.233   0.318   4.028
 2247TIP3   OH2 6617   2.415   0.344   4.035
 2247TIP3    H1 6618   2.436   0.254   4.009
 2247TIP3    H2 6619   2.471   0.360   4.110
 2248TIP3   OH2 6620   3.177   0.445   3.250
 2248TIP3    H1 6621   3.163   0.350   3.248
 2248TIP3    H2 6622   3.134   0.476   3.170
 2249TIP3   OH2 6623   3.391   0.596   4.449
 2249TIP3    H1 6624   3.318   0.567   4.394
 2249TIP3    H2 6625   3.382   0.691   4.453
 2250TIP3   OH2 6626   4.665   0.000   3.205
 2250TIP3    H1 6627   4.636   0.089   3.185
 2250TIP3    H2 6628   4.603  -0.056   3.160
 2251TIP3   OH2 6629   1.365   9.229   3.565
 2251TIP3    H1 6630   1.423   9.220   3.640
 2251TIP3    H2 6631   1.324   9.142   3.556
 2252TIP3   OH2 6632   0.673   9.141   3.964
 2252TIP3    H1 6633   0.722   9.129   4.045
 2252TIP3    H2 6634   0.739   9.166   3.899
 2253TIP3   OH2 6635   4.950   0.278   3.279
 2253TIP3    H1 6636   4.921   0.223   3.352
 2253TIP3    H2 6637   4.962   0.365   3.317
 2254TIP3   OH2 6638   3.949   0.269   3.645
 2254TIP3    H1 6639   3.928   0.176   3.642
 2254TIP3    H2 6640   4.044   0.273   3.632
 2255TIP3   OH2 6641   0.277   8.737   3.374
 2255TIP3    H1 6642   0.261   8.819   3.421
 2255TIP3    H2 6643   0.194   8.716   3.333
 2256TIP3   OH2 6644   0.441   9.066   3.641
 2256TIP3    H1 6645   0.486   8.982   3.645
 2256TIP3    H2 6646   0.510   9.129   3.618
 2257TIP3   OH2 6647   4.610   0.702   3.299
 2257TIP3    H1 6648   4.644   0.644   3.230
 2257TIP3    H2 6649   4.620   0.651   3.379
 2258TIP3   OH2 6650   4.462   0.207   3.610
 2258TIP3    H1 6651   4.501   0.128   3.574
 2258TIP3    H2 6652   4.537   0.263   3.633
 2259TIP3   OH2 6653   1.658   8.968   3.625
 2259TIP3    H1 6654   1.725   8.911   3.664
 2259TIP3    H2 6655   1.657   8.944   3.533
 2260TIP3   OH2 6656   0.540   8.813   3.687
 2260TIP3    H1 6657   0.621   8.789   3.731
 2260TIP3    H2 6658   0.547   8.771   3.601
 2261TIP3   OH2 6659   1.001   9.075   3.571
 2261TIP3    H1 6660   1.092   9.045   3.567
 2261TIP3    H2 6661   0.950   8.996   3.555
 2262TIP3   OH2 6662   2.261   8.881   3.828
 2262TIP3    H1 6663   2.233   8.965   3.791
 2262TIP3    H2 6664   2.346   8.900   3.869
 2263TIP3   OH2 6665   4.535   0.202   3.076
 2263TIP3    H1 6666   4.520   0.185   2.983
 2263TIP3    H2 6667   4.500   0.290   3.090
 2264TIP3   OH2 6668   4.319   0.148   3.841
 2264TIP3    H1 6669   4.258   0.218   3.863
 2264TIP3    H2 6670   4.360   0.176   3.759
 2265TIP3   OH2 6671   0.789   8.742   3.768
 2265TIP3    H1 6672   0.823   8.807   3.831
 2265TIP3    H2 6673   0.860   8.729   3.706
 2266TIP3   OH2 6674   4.146   0.338   3.931
 2266TIP3    H1 6675   4.136   0.429   3.902
 2266TIP3    H2 6676   4.066   0.320   3.980
 2267TIP3   OH2 6677   3.549   0.041   3.197
 2267TIP3    H1 6678   3.507   0.061   3.114
 2267TIP3    H2 6679   3.566   0.126   3.237
 2268TIP3   OH2 6680   4.975   0.530   3.412
 2268TIP3    H1 6681   4.886   0.526   3.447
 2268TIP3    H2 6682   4.978   0.613   3.364
 2269TIP3   OH2 6683   4.708   0.563   3.084
 2269TIP3    H1 6684   4.757   0.483   3.064
 2269TIP3    H2 6685   4.753   0.632   3.035
 2270TIP3   OH2 6686   4.858   0.344   3.022
 2270TIP3    H1 6687   4.861   0.270   2.962
 2270TIP3    H2 6688   4.892   0.309   3.105
 2271TIP3   OH2 6689   5.221   0.424   3.775
 2271TIP3    H1 6690   5.188   0.355   3.717
 2271TIP3    H2 6691   5.200   0.506   3.731
 2272TIP3   OH2 6692   1.243   9.085   3.035
 2272TIP3    H1 6693   1.154   9.118   3.023
 2272TIP3    H2 6694   1.280   9.085   2.947
 2273TIP3   OH2 6695   1.202   8.889   2.731
 2273TIP3    H1 6696   1.274   8.943   2.763
 2273TIP3    H2 6697   1.231   8.799   2.746
 2274TIP3   OH2 6698   5.381   0.123   3.618
 2274TIP3    H1 6699   5.290   0.155   3.618
 2274TIP3    H2 6700   5.413   0.143   3.530
 2275TIP3   OH2 6701   1.591   9.167   3.006
 2275TIP3    H1 6702   1.540   9.191   3.084
 2275TIP3    H2 6703   1.668   9.121   3.041
 2276TIP3   OH2 6704   5.035   0.064   3.873
 2276TIP3    H1 6705   5.018   0.158   3.879
 2276TIP3    H2 6706   4.955   0.028   3.834
 2277TIP3   OH2 6707   0.805   9.171   3.386
 2277TIP3    H1 6708   0.765   9.098   3.337
 2277TIP3    H2 6709   0.880   9.131   3.430
 2278TIP3   OH2 6710   4.209   0.308   3.548
 2278TIP3    H1 6711   4.188   0.299   3.455
 2278TIP3    H2 6712   4.298   0.273   3.556
 2279TIP3   OH2 6713   0.888   9.175   3.793
 2279TIP3    H1 6714   0.929   9.143   3.713
 2279TIP3    H2 6715   0.943   9.248   3.821
 2280TIP3   OH2 6716   4.731   0.533   3.533
 2280TIP3    H1 6717   4.719   0.611   3.587
 2280TIP3    H2 6718   4.714   0.460   3.592
 2281TIP3   OH2 6719   4.353   0.428   4.094
 2281TIP3    H1 6720   4.292   0.485   4.142
 2281TIP3    H2 6721   4.296   0.377   4.037
 2282TIP3   OH2 6722   1.423   9.037   2.829
 2282TIP3    H1 6723   1.480   9.077   2.894
 2282TIP3    H2 6724   1.454   9.072   2.745
 2283TIP3   OH2 6725   4.055   0.014   4.238
 2283TIP3    H1 6726   4.067   0.105   4.265
 2283TIP3    H2 6727   3.966  -0.008   4.266
 2284TIP3   OH2 6728   4.448   0.464   3.075
 2284TIP3    H1 6729   4.535   0.502   3.083
 2284TIP3    H2 6730   4.394   0.535   3.040
 2285TIP3   OH2 6731   4.142   0.580   4.188
 2285TIP3    H1 6732   4.118   0.597   4.097
 2285TIP3    H2 6733   4.059   0.567   4.233
 2286TIP3   OH2 6734   0.667   8.989   3.228
 2286TIP3    H1 6735   0.614   9.052   3.179
 2286TIP3    H2 6736   0.615   8.909   3.227
 2287TIP3   OH2 6737   5.010   0.370   2.428
 2287TIP3    H1 6738   5.010   0.464   2.408
 2287TIP3    H2 6739   5.094   0.339   2.394
 2288TIP3   OH2 6740   3.740   0.139   4.133
 2288TIP3    H1 6741   3.667   0.133   4.072
 2288TIP3    H2 6742   3.770   0.048   4.144
 2289TIP3   OH2 6743   3.585   0.337   3.793
 2289TIP3    H1 6744   3.677   0.361   3.805
 2289TIP3    H2 6745   3.536   0.414   3.819
 2290TIP3   OH2 6746   5.444   0.812   3.839
 2290TIP3    H1 6747   5.452   0.717   3.846
 2290TIP3    H2 6748   5.364   0.833   3.886
 2291TIP3   OH2 6749   4.545   0.572   3.959
 2291TIP3    H1 6750   4.538   0.663   3.988
 2291TIP3    H2 6751   4.476   0.526   4.008
 2292TIP3   OH2 6752   4.324   0.664   2.915
 2292TIP3    H1 6753   4.288   0.651   2.827
 2292TIP3    H2 6754   4.287   0.748   2.944
 2293TIP3   OH2 6755   3.766   0.513   3.292
 2293TIP3    H1 6756   3.810   0.510   3.377
 2293TIP3    H2 6757   3.717   0.431   3.288
 2294TIP3   OH2 6758   4.513   0.588   2.537
 2294TIP3    H1 6759   4.565   0.513   2.507
 2294TIP3    H2 6760   4.544   0.604   2.626
 2295TIP3   OH2 6761   4.577   0.620   2.795
 2295TIP3    H1 6762   4.509   0.638   2.860
 2295TIP3    H2 6763   4.657   0.656   2.833
 2296TIP3   OH2 6764   2.090   9.147   4.019
 2296TIP3    H1 6765   2.004   9.177   4.049
 2296TIP3    H2 6766   2.081   9.052   4.012
 2297TIP3   OH2 6767   3.925   0.343   4.098
 2297TIP3    H1 6768   3.974   0.340   4.180
 2297TIP3    H2 6769   3.859   0.274   4.106
 2298TIP3   OH2 6770   1.836   9.170   4.108
 2298TIP3    H1 6771   1.790   9.087   4.100
 2298TIP3    H2 6772   1.804   9.223   4.035
 2299TIP3   OH2 6773   1.525   9.130   2.601
 2299TIP3    H1 6774   1.472   9.110   2.524
 2299TIP3    H2 6775   1.615   9.136   2.568
 2300TIP3   OH2 6776   0.916   8.932   3.926
 2300TIP3    H1 6777   0.886   8.950   4.015
 2300TIP3    H2 6778   0.899   9.013   3.877
 2301TIP3   OH2 6779   0.827   8.880   3.505
 2301TIP3    H1 6780   0.751   8.823   3.493
 2301TIP3    H2 6781   0.879   8.868   3.425
 2302TIP3   OH2 6782   1.448   8.938   3.136
 2302TIP3    H1 6783   1.374   8.979   3.092
 2302TIP3    H2 6784   1.441   8.845   3.114
 2303TIP3   OH2 6785   4.780  -0.005   4.159
 2303TIP3    H1 6786   4.810   0.083   4.182
 2303TIP3    H2 6787   4.829  -0.062   4.218
 2304TIP3   OH2 6788   1.522   9.053   3.368
 2304TIP3    H1 6789   1.475   9.135   3.353
 2304TIP3    H2 6790   1.511   9.004   3.287
 2305TIP3   OH2 6791   0.823   8.990   4.178
 2305TIP3    H1 6792   0.798   9.074   4.216
 2305TIP3    H2 6793   0.751   8.931   4.199
 2306TIP3   OH2 6794   1.553   9.179   3.757
 2306TIP3    H1 6795   1.591   9.106   3.710
 2306TIP3    H2 6796   1.505   9.139   3.830
 2307TIP3   OH2 6797   0.628   8.689   3.454
 2307TIP3    H1 6798   0.605   8.721   3.366
 2307TIP3    H2 6799   0.567   8.616   3.469
 2308TIP3   OH2 6800   0.891   8.607   3.195
 2308TIP3    H1 6801   0.986   8.617   3.191
 2308TIP3    H2 6802   0.858   8.675   3.137
 2309TIP3   OH2 6803   0.745   8.763   3.020
 2309TIP3    H1 6804   0.653   8.771   3.045
 2309TIP3    H2 6805   0.745   8.702   2.947
 2310TIP3   OH2 6806   5.153   1.130   3.925
 2310TIP3    H1 6807   5.149   1.150   3.831
 2310TIP3    H2 6808   5.230   1.178   3.956
 2311TIP3   OH2 6809   4.078   0.268   4.337
 2311TIP3    H1 6810   4.162   0.282   4.380
 2311TIP3    H2 6811   4.013   0.283   4.405
 2312TIP3   OH2 6812   1.256   8.966   3.587
 2312TIP3    H1 6813   1.255   8.891   3.528
 2312TIP3    H2 6814   1.259   8.928   3.675
 2313TIP3   OH2 6815   1.266   8.846   3.834
 2313TIP3    H1 6816   1.189   8.791   3.848
 2313TIP3    H2 6817   1.320   8.833   3.912
 2314TIP3   OH2 6818   1.005   9.204   2.966
 2314TIP3    H1 6819   0.933   9.145   2.946
 2314TIP3    H2 6820   0.976   9.253   3.043
 2315TIP3   OH2 6821   5.139   0.253   3.580
 2315TIP3    H1 6822   5.176   0.309   3.512
 2315TIP3    H2 6823   5.056   0.223   3.544
 2316TIP3   OH2 6824   4.702   0.337   3.970
 2316TIP3    H1 6825   4.647   0.263   3.996
 2316TIP3    H2 6826   4.648   0.414   3.985
 2317TIP3   OH2 6827   1.466   8.765   2.862
 2317TIP3    H1 6828   1.544   8.761   2.916
 2317TIP3    H2 6829   1.459   8.857   2.836
 2318TIP3   OH2 6830   0.668   9.228   3.618
 2318TIP3    H1 6831   0.706   9.216   3.531
 2318TIP3    H2 6832   0.738   9.206   3.679
 2319TIP3   OH2 6833   4.438   0.121   2.811
 2319TIP3    H1 6834   4.389   0.203   2.811
 2319TIP3    H2 6835   4.386   0.062   2.866
 2320TIP3   OH2 6836   0.548   9.133   4.285
 2320TIP3    H1 6837   0.544   9.105   4.377
 2320TIP3    H2 6838   0.465   9.102   4.248
 2321TIP3   OH2 6839   4.552   0.077   4.301
 2321TIP3    H1 6840   4.468   0.041   4.271
 2321TIP3    H2 6841   4.614   0.056   4.232
 2322TIP3   OH2 6842   4.819   0.608   3.876
 2322TIP3    H1 6843   4.725   0.591   3.878
 2322TIP3    H2 6844   4.841   0.631   3.967
 2323TIP3   OH2 6845   1.946   8.784   2.882
 2323TIP3    H1 6846   1.976   8.705   2.837
 2323TIP3    H2 6847   1.940   8.850   2.812
 2324TIP3   OH2 6848   5.461   0.537   3.848
 2324TIP3    H1 6849   5.371   0.507   3.856
 2324TIP3    H2 6850   5.492   0.500   3.766
 2325TIP3   OH2 6851   5.077   0.399   2.698
 2325TIP3    H1 6852   5.005   0.407   2.761
 2325TIP3    H2 6853   5.034   0.390   2.613
 2326TIP3   OH2 6854   4.898   0.118   3.513
 2326TIP3    H1 6855   4.809   0.085   3.503
 2326TIP3    H2 6856   4.948   0.045   3.548
 2327TIP3   OH2 6857   4.085   0.325   3.300
 2327TIP3    H1 6858   4.081   0.401   3.242
 2327TIP3    H2 6859   3.993   0.305   3.320
 2328TIP3   OH2 6860   0.424   8.890   2.983
 2328TIP3    H1 6861   0.442   8.981   3.005
 2328TIP3    H2 6862   0.431   8.843   3.066
 2329TIP3   OH2 6863   4.153   0.090   3.173
 2329TIP3    H1 6864   4.151   0.178   3.210
 2329TIP3    H2 6865   4.125   0.033   3.245
 2330TIP3   OH2 6866   4.362   0.639   3.752
 2330TIP3    H1 6867   4.394   0.713   3.700
 2330TIP3    H2 6868   4.438   0.610   3.802
 2331TIP3   OH2 6869   3.996   0.538   3.144
 2331TIP3    H1 6870   3.910   0.542   3.185
 2331TIP3    H2 6871   4.031   0.626   3.152
 2332TIP3   OH2 6872   4.709   0.307   3.695
 2332TIP3    H1 6873   4.711   0.314   3.790
 2332TIP3    H2 6874   4.783   0.250   3.673
 2333TIP3   OH2 6875   4.683   0.195   2.655
 2333TIP3    H1 6876   4.753   0.177   2.719
 2333TIP3    H2 6877   4.603   0.169   2.700
 2334TIP3   OH2 6878   4.969   0.808   3.761
 2334TIP3    H1 6879   4.901   0.745   3.786
 2334TIP3    H2 6880   4.930   0.858   3.688
 2335TIP3   OH2 6881   5.008   0.645   2.400
 2335TIP3    H1 6882   5.014   0.701   2.322
 2335TIP3    H2 6883   4.932   0.677   2.447
 2336TIP3   OH2 6884   4.885   0.137   2.832
 2336TIP3    H1 6885   4.871   0.061   2.889
 2336TIP3    H2 6886   4.973   0.124   2.797
 2337TIP3   OH2 6887   3.788   0.542   3.916
 2337TIP3    H1 6888   3.838   0.484   3.973
 2337TIP3    H2 6889   3.804   0.630   3.950
 2338TIP3   OH2 6890   4.044   0.143   2.606
 2338TIP3    H1 6891   4.061   0.054   2.574
 2338TIP3    H2 6892   4.035   0.134   2.701
 2339TIP3   OH2 6893   4.011   0.157   2.882
 2339TIP3    H1 6894   4.067   0.124   2.951
 2339TIP3    H2 6895   4.017   0.252   2.889
 2340TIP3   OH2 6896   0.489   9.140   3.085
 2340TIP3    H1 6897   0.422   9.183   3.139
 2340TIP3    H2 6898   0.500   9.199   3.011
 2341TIP3   OH2 6899   4.289   0.344   2.823
 2341TIP3    H1 6900   4.201   0.367   2.853
 2341TIP3    H2 6901   4.340   0.425   2.833
 2342TIP3   OH2 6902   1.166   8.592   3.232
 2342TIP3    H1 6903   1.200   8.677   3.258
 2342TIP3    H2 6904   1.216   8.529   3.284
 2343TIP3   OH2 6905   1.432   9.062   3.970
 2343TIP3    H1 6906   1.466   9.117   4.040
 2343TIP3    H2 6907   1.464   8.974   3.990
 2344TIP3   OH2 6908   4.035   0.427   2.898
 2344TIP3    H1 6909   4.004   0.493   2.836
 2344TIP3    H2 6910   4.023   0.467   2.984
 2345TIP3   OH2 6911   1.794   9.075   3.381
 2345TIP3    H1 6912   1.699   9.082   3.388
 2345TIP3    H2 6913   1.827   9.115   3.462
 2346TIP3   OH2 6914   3.753   0.058   2.855
 2346TIP3    H1 6915   3.830   0.114   2.867
 2346TIP3    H2 6916   3.782  -0.011   2.795
 2347TIP3   OH2 6917   4.998   0.796   3.327
 2347TIP3    H1 6918   4.950   0.853   3.266
 2347TIP3    H2 6919   5.090   0.820   3.314
 2348TIP3   OH2 6920   3.587   0.302   3.284
 2348TIP3    H1 6921   3.544   0.340   3.361
 2348TIP3    H2 6922   3.543   0.342   3.209
 2349TIP3   OH2 6923   3.784   0.842   4.344
 2349TIP3    H1 6924   3.864   0.845   4.397
 2349TIP3    H2 6925   3.766   0.748   4.333
 2350TIP3   OH2 6926   4.250   0.744   4.382
 2350TIP3    H1 6927   4.342   0.721   4.389
 2350TIP3    H2 6928   4.217   0.690   4.310
 2351TIP3   OH2 6929   4.207   0.344   2.508
 2351TIP3    H1 6930   4.163   0.273   2.554
 2351TIP3    H2 6931   4.285   0.305   2.470
 2352TIP3   OH2 6932   4.869   0.678   4.137
 2352TIP3    H1 6933   4.883   0.609   4.202
 2352TIP3    H2 6934   4.942   0.739   4.151
 2353TIP3   OH2 6935   4.655   0.371   2.448
 2353TIP3    H1 6936   4.668   0.317   2.525
 2353TIP3    H2 6937   4.736   0.362   2.397
 2354TIP3   OH2 6938   3.879   0.250   4.530
 2354TIP3    H1 6939   3.909   0.159   4.537
 2354TIP3    H2 6940   3.793   0.243   4.488
 2355TIP3   OH2 6941   0.631   9.110   2.722
 2355TIP3    H1 6942   0.679   9.082   2.800
 2355TIP3    H2 6943   0.695   9.105   2.652
 2356TIP3   OH2 6944   4.510   0.350   4.305
 2356TIP3    H1 6945   4.466   0.367   4.222
 2356TIP3    H2 6946   4.542   0.260   4.297
 2357TIP3   OH2 6947   4.393   0.048   2.550
 2357TIP3    H1 6948   4.407   0.068   2.643
 2357TIP3    H2 6949   4.402  -0.047   2.544
 2358TIP3   OH2 6950   4.964   0.328   3.901
 2358TIP3    H1 6951   4.992   0.412   3.863
 2358TIP3    H2 6952   4.874   0.343   3.928
 2359TIP3   OH2 6953   4.006   0.004   4.554
 2359TIP3    H1 6954   4.096  -0.015   4.526
 2359TIP3    H2 6955   4.014   0.024   4.647
 2360TIP3   OH2 6956   0.801   9.025   2.924
 2360TIP3    H1 6957   0.771   8.977   3.001
 2360TIP3    H2 6958   0.839   8.957   2.867
 2361TIP3   OH2 6959   1.058   9.186   4.220
 2361TIP3    H1 6960   0.968   9.220   4.213
 2361TIP3    H2 6961   1.080   9.160   4.130
 2362TIP3   OH2 6962   0.935   8.840   2.770
 2362TIP3    H1 6963   0.925   8.763   2.714
 2362TIP3    H2 6964   1.026   8.866   2.757
 2363TIP3   OH2 6965   4.880   0.218   4.285
 2363TIP3    H1 6966   4.965   0.224   4.241
 2363TIP3    H2 6967   4.899   0.174   4.368
 2364TIP3   OH2 6968   1.706   9.148   2.381
 2364TIP3    H1 6969   1.761   9.149   2.303
 2364TIP3    H2 6970   1.663   9.234   2.382
 2365TIP3   OH2 6971   1.241   8.952   4.250
 2365TIP3    H1 6972   1.156   8.924   4.284
 2365TIP3    H2 6973   1.223   9.037   4.209
 2366TIP3   OH2 6974   4.541   0.119   4.000
 2366TIP3    H1 6975   4.571   0.030   3.985
 2366TIP3    H2 6976   4.459   0.126   3.952
 2367TIP3   OH2 6977   1.887   9.117   4.400
 2367TIP3    H1 6978   1.807   9.108   4.348
 2367TIP3    H2 6979   1.865   9.180   4.469
 2368TIP3   OH2 6980   5.103   0.254   4.123
 2368TIP3    H1 6981   5.044   0.286   4.055
 2368TIP3    H2 6982   5.185   0.234   4.077
 2369TIP3   OH2 6983   1.009   9.143   4.504
 2369TIP3    H1 6984   0.974   9.056   4.520
 2369TIP3    H2 6985   1.023   9.146   4.409
 2370TIP3   OH2 6986   1.563   8.778   4.275
 2370TIP3    H1 6987   1.636   8.744   4.327
 2370TIP3    H2 6988   1.488   8.771   4.334
 2371TIP3   OH2 6989   3.988   0.592   2.680
 2371TIP3    H1 6990   4.084   0.594   2.672
 2371TIP3    H2 6991   3.958   0.666   2.628
 2372TIP3   OH2 6992   3.486   0.038   2.919
 2372TIP3    H1 6993   3.575   0.058   2.890
 2372TIP3    H2 6994   3.476  -0.056   2.906
 2373TIP3   OH2 6995   3.380   0.599   3.352
 2373TIP3    H1 6996   3.316   0.545   3.306
 2373TIP3    H2 6997   3.422   0.539   3.414
 2374TIP3   OH2 6998   3.525   0.439   3.526
 2374TIP3    H1 6999   3.519   0.371   3.593
 2374TIP3    H2 7000   3.578   0.508   3.566
 2375TIP3   OH2 7001   5.265   0.875   3.338
 2375TIP3    H1 7002   5.276   0.869   3.433
 2375TIP3    H2 7003   5.278   0.968   3.319
 2376TIP3   OH2 7004   5.279   0.870   3.613
 2376TIP3    H1 7005   5.233   0.787   3.618
 2376TIP3    H2 7006   5.348   0.863   3.680
 2377TIP3   OH2 7007   5.329   0.592   4.162
 2377TIP3    H1 7008   5.256   0.602   4.223
 2377TIP3    H2 7009   5.376   0.675   4.167
 2378TIP3   OH2 7010   5.149   0.085   2.757
 2378TIP3    H1 7011   5.211   0.156   2.740
 2378TIP3    H2 7012   5.175   0.052   2.843
 2379TIP3   OH2 7013   5.243   0.012   3.002
 2379TIP3    H1 7014   5.190  -0.042   3.061
 2379TIP3    H2 7015   5.313   0.047   3.057
 2380TIP3   OH2 7016   5.324   0.395   3.427
 2380TIP3    H1 7017   5.369   0.326   3.378
 2380TIP3    H2 7018   5.328   0.471   3.370
 2381TIP3   OH2 7019   5.134   0.634   3.621
 2381TIP3    H1 7020   5.066   0.685   3.665
 2381TIP3    H2 7021   5.089   0.595   3.546
 2382TIP3   OH2 7022   1.947   9.242   2.499
 2382TIP3    H1 7023   1.870   9.201   2.460
 2382TIP3    H2 7024   1.920   9.262   2.589
 2383TIP3   OH2 7025   1.761   8.870   2.544
 2383TIP3    H1 7026   1.802   8.854   2.459
 2383TIP3    H2 7027   1.765   8.786   2.589
 2384TIP3   OH2 7028   1.822   9.042   3.117
 2384TIP3    H1 7029   1.858   8.953   3.114
 2384TIP3    H2 7030   1.816   9.062   3.210
 2385TIP3   OH2 7031   0.412   9.111   3.905
 2385TIP3    H1 7032   0.410   9.104   3.810
 2385TIP3    H2 7033   0.505   9.125   3.926
 2386TIP3   OH2 7034   5.327   0.246   3.963
 2386TIP3    H1 7035   5.397   0.199   3.917
 2386TIP3    H2 7036   5.291   0.305   3.898
 2387TIP3   OH2 7037   5.566   0.077   3.979
 2387TIP3    H1 7038   5.494   0.032   4.023
 2387TIP3    H2 7039   5.609   0.127   4.049
 2388TIP3   OH2 7040   1.692   8.733   3.000
 2388TIP3    H1 7041   1.738   8.656   3.033
 2388TIP3    H2 7042   1.759   8.783   2.953
 2389TIP3   OH2 7043   2.053   8.929   3.570
 2389TIP3    H1 7044   2.066   9.005   3.513
 2389TIP3    H2 7045   2.034   8.967   3.656
 2390TIP3   OH2 7046   2.161   9.125   3.752
 2390TIP3    H1 7047   2.136   9.154   3.840
 2390TIP3    H2 7048   2.140   9.199   3.695
 2391TIP3   OH2 7049   0.375   8.835   3.905
 2391TIP3    H1 7050   0.424   8.819   3.824
 2391TIP3    H2 7051   0.378   8.930   3.917
 2392TIP3   OH2 7052   3.914   0.553   4.350
 2392TIP3    H1 7053   3.821   0.533   4.346
 2392TIP3    H2 7054   3.931   0.566   4.444
 2393TIP3   OH2 7055   4.135   0.612   3.905
 2393TIP3    H1 7056   4.085   0.686   3.872
 2393TIP3    H2 7057   4.220   0.618   3.860
 2394TIP3   OH2 7058   4.528   0.837   4.039
 2394TIP3    H1 7059   4.566   0.831   4.127
 2394TIP3    H2 7060   4.590   0.890   3.990
 2395TIP3   OH2 7061   4.720   0.989   3.913
 2395TIP3    H1 7062   4.783   0.938   3.861
 2395TIP3    H2 7063   4.775   1.045   3.968
 2396TIP3   OH2 7064   3.797   0.831   3.957
 2396TIP3    H1 7065   3.706   0.849   3.934
 2396TIP3    H2 7066   3.820   0.898   4.021
 2397TIP3   OH2 7067   4.022   0.838   3.798
 2397TIP3    H1 7068   3.940   0.838   3.846
 2397TIP3    H2 7069   3.998   0.858   3.708
 2398TIP3   OH2 7070   4.430   0.852   3.590
 2398TIP3    H1 7071   4.358   0.861   3.527
 2398TIP3    H2 7072   4.441   0.940   3.627
 2399TIP3   OH2 7073   4.694   0.787   3.634
 2399TIP3    H1 7074   4.603   0.808   3.614
 2399TIP3    H2 7075   4.745   0.852   3.587
 2400TIP3   OH2 7076   4.896   0.954   3.533
 2400TIP3    H1 7077   4.887   1.042   3.495
 2400TIP3    H2 7078   4.925   0.899   3.460
 2401TIP3   OH2 7079   3.699   0.621   3.665
 2401TIP3    H1 7080   3.727   0.600   3.754
 2401TIP3    H2 7081   3.771   0.591   3.609
 2402TIP3   OH2 7082   3.905   0.510   3.529
 2402TIP3    H1 7083   3.914   0.426   3.573
 2402TIP3    H2 7084   3.992   0.549   3.533
 2403TIP3   OH2 7085   4.172   0.585   3.556
 2403TIP3    H1 7086   4.189   0.492   3.542
 2403TIP3    H2 7087   4.231   0.610   3.627
 2404TIP3   OH2 7088   3.473   0.410   3.060
 2404TIP3    H1 7089   3.390   0.368   3.035
 2404TIP3    H2 7090   3.469   0.496   3.019
 2405TIP3   OH2 7091   4.259   0.581   2.647
 2405TIP3    H1 7092   4.345   0.604   2.610
 2405TIP3    H2 7093   4.239   0.495   2.608
 2406TIP3   OH2 7094   3.587   0.388   2.706
 2406TIP3    H1 7095   3.583   0.389   2.801
 2406TIP3    H2 7096   3.675   0.355   2.686
 2407TIP3   OH2 7097   5.188   0.858   3.929
 2407TIP3    H1 7098   5.114   0.830   3.876
 2407TIP3    H2 7099   5.176   0.953   3.938
 2408TIP3   OH2 7100   6.437   0.213   2.699
 2408TIP3    H1 7101   6.409   0.305   2.696
 2408TIP3    H2 7102   6.386   0.171   2.630
 2409TIP3   OH2 7103   6.416   0.241   3.073
 2409TIP3    H1 7104   6.465   0.240   3.156
 2409TIP3    H2 7105   6.369   0.158   3.072
 2410TIP3   OH2 7106   5.733   0.166   3.437
 2410TIP3    H1 7107   5.771   0.119   3.511
 2410TIP3    H2 7108   5.808   0.202   3.390
 2411TIP3   OH2 7109   6.730   0.536   2.780
 2411TIP3    H1 7110   6.713   0.480   2.856
 2411TIP3    H2 7111   6.752   0.621   2.818
 2412TIP3   OH2 7112   5.796   0.523   3.145
 2412TIP3    H1 7113   5.750   0.439   3.139
 2412TIP3    H2 7114   5.826   0.527   3.236
 2413TIP3   OH2 7115   2.116   9.032   2.917
 2413TIP3    H1 7116   2.084   9.117   2.945
 2413TIP3    H2 7117   2.043   8.994   2.867
 2414TIP3   OH2 7118   5.493   0.079   3.112
 2414TIP3    H1 7119   5.541   0.002   3.142
 2414TIP3    H2 7120   5.562   0.143   3.090
 2415TIP3   OH2 7121   6.407   0.954   2.795
 2415TIP3    H1 7122   6.421   0.893   2.723
 2415TIP3    H2 7123   6.431   0.905   2.874
 2416TIP3   OH2 7124   6.263   0.471   3.108
 2416TIP3    H1 7125   6.299   0.388   3.078
 2416TIP3    H2 7126   6.340   0.525   3.125
 2417TIP3   OH2 7127   6.680   0.020   3.128
 2417TIP3    H1 7128   6.770  -0.010   3.143
 2417TIP3    H2 7129   6.677   0.040   3.034
 2418TIP3   OH2 7130   2.357   9.110   3.239
 2418TIP3    H1 7131   2.450   9.100   3.259
 2418TIP3    H2 7132   2.339   9.045   3.171
 2419TIP3   OH2 7133   6.051   0.088   3.057
 2419TIP3    H1 7134   6.138   0.053   3.074
 2419TIP3    H2 7135   5.999   0.012   3.033
 2420TIP3   OH2 7136   4.046   9.114   3.275
 2420TIP3    H1 7137   4.029   9.207   3.260
 2420TIP3    H2 7138   4.128   9.112   3.324
 2421TIP3   OH2 7139   6.303   0.437   2.591
 2421TIP3    H1 7140   6.300   0.423   2.497
 2421TIP3    H2 7141   6.273   0.527   2.603
 2422TIP3   OH2 7142   6.131   0.411   3.344
 2422TIP3    H1 7143   6.063   0.477   3.357
 2422TIP3    H2 7144   6.176   0.439   3.264
 2423TIP3   OH2 7145   2.619   9.029   3.204
 2423TIP3    H1 7146   2.664   9.082   3.270
 2423TIP3    H2 7147   2.687   8.969   3.172
 2424TIP3   OH2 7148   5.923   0.585   3.393
 2424TIP3    H1 7149   5.926   0.679   3.377
 2424TIP3    H2 7150   5.857   0.575   3.461
 2425TIP3   OH2 7151   5.326   0.291   2.682
 2425TIP3    H1 7152   5.236   0.324   2.677
 2425TIP3    H2 7153   5.380   0.368   2.694
 2426TIP3   OH2 7154   6.767   0.790   2.906
 2426TIP3    H1 7155   6.676   0.787   2.939
 2426TIP3    H2 7156   6.772   0.873   2.859
 2427TIP3   OH2 7157   6.469   0.808   2.567
 2427TIP3    H1 7158   6.521   0.728   2.558
 2427TIP3    H2 7159   6.528   0.879   2.542
 2428TIP3   OH2 7160   6.624   0.592   2.530
 2428TIP3    H1 7161   6.634   0.517   2.471
 2428TIP3    H2 7162   6.666   0.563   2.611
 2429TIP3   OH2 7163   7.018   0.681   3.260
 2429TIP3    H1 7164   6.988   0.611   3.202
 2429TIP3    H2 7165   7.001   0.761   3.212
 2430TIP3   OH2 7166   6.298   0.113   2.478
 2430TIP3    H1 7167   6.206   0.138   2.478
 2430TIP3    H2 7168   6.332   0.146   2.395
 2431TIP3   OH2 7169   3.009   9.158   2.175
 2431TIP3    H1 7170   3.056   9.168   2.258
 2431TIP3    H2 7171   3.028   9.068   2.148
 2432TIP3   OH2 7172   7.186   0.365   3.099
 2432TIP3    H1 7173   7.096   0.396   3.102
 2432TIP3    H2 7174   7.213   0.379   3.009
 2433TIP3   OH2 7175   6.639   0.159   2.507
 2433TIP3    H1 7176   6.589   0.178   2.587
 2433TIP3    H2 7177   6.726   0.133   2.537
 2434TIP3   OH2 7178   6.817   0.268   3.391
 2434TIP3    H1 7179   6.824   0.354   3.433
 2434TIP3    H2 7180   6.726   0.262   3.363
 2435TIP3   OH2 7181   5.869   0.210   2.877
 2435TIP3    H1 7182   5.831   0.143   2.821
 2435TIP3    H2 7183   5.939   0.166   2.925
 2436TIP3   OH2 7184   6.033   0.591   3.000
 2436TIP3    H1 7185   5.961   0.545   3.045
 2436TIP3    H2 7186   6.112   0.547   3.029
 2437TIP3   OH2 7187   5.949   0.220   3.271
 2437TIP3    H1 7188   5.991   0.181   3.194
 2437TIP3    H2 7189   6.016   0.278   3.308
 2438TIP3   OH2 7190   6.515   0.794   3.014
 2438TIP3    H1 7191   6.510   0.871   3.072
 2438TIP3    H2 7192   6.507   0.719   3.073
 2439TIP3   OH2 7193   6.140   0.678   3.571
 2439TIP3    H1 7194   6.077   0.736   3.614
 2439TIP3    H2 7195   6.086   0.617   3.522
 2440TIP3   OH2 7196   6.531   0.055   2.278
 2440TIP3    H1 7197   6.570   0.092   2.357
 2440TIP3    H2 7198   6.536   0.126   2.213
 2441TIP3   OH2 7199   5.873   0.282   3.706
 2441TIP3    H1 7200   5.878   0.370   3.745
 2441TIP3    H2 7201   5.780   0.259   3.714
 2442TIP3   OH2 7202   6.215   0.701   2.582
 2442TIP3    H1 7203   6.303   0.740   2.586
 2442TIP3    H2 7204   6.165   0.759   2.526
 2443TIP3   OH2 7205   5.939   0.838   3.664
 2443TIP3    H1 7206   5.906   0.858   3.577
 2443TIP3    H2 7207   5.861   0.824   3.717
 2444TIP3   OH2 7208   5.741   0.017   2.714
 2444TIP3    H1 7209   5.677   0.074   2.671
 2444TIP3    H2 7210   5.697  -0.068   2.720
 2445TIP3   OH2 7211   6.780   0.621   1.936
 2445TIP3    H1 7212   6.785   0.716   1.923
 2445TIP3    H2 7213   6.798   0.584   1.850
 2446TIP3   OH2 7214   5.533   0.418   3.614
 2446TIP3    H1 7215   5.458   0.405   3.556
 2446TIP3    H2 7216   5.562   0.329   3.636
 2447TIP3   OH2 7217   5.379   0.629   3.282
 2447TIP3    H1 7218   5.461   0.658   3.322
 2447TIP3    H2 7219   5.319   0.702   3.294
 2448TIP3   OH2 7220   7.240   1.065   3.321
 2448TIP3    H1 7221   7.248   0.970   3.328
 2448TIP3    H2 7222   7.158   1.086   3.367
 2449TIP3   OH2 7223   6.336   0.825   3.446
 2449TIP3    H1 7224   6.331   0.915   3.478
 2449TIP3    H2 7225   6.266   0.779   3.492
 2450TIP3   OH2 7226   6.111   0.908   2.410
 2450TIP3    H1 7227   6.081   0.894   2.320
 2450TIP3    H2 7228   6.081   0.997   2.432
 2451TIP3   OH2 7229   5.549   0.754   2.811
 2451TIP3    H1 7230   5.478   0.762   2.874
 2451TIP3    H2 7231   5.522   0.682   2.754
 2452TIP3   OH2 7232   6.329   0.852   2.037
 2452TIP3    H1 7233   6.378   0.776   2.004
 2452TIP3    H2 7234   6.362   0.865   2.126
 2453TIP3   OH2 7235   6.370   0.896   2.307
 2453TIP3    H1 7236   6.285   0.895   2.351
 2453TIP3    H2 7237   6.432   0.862   2.372
 2454TIP3   OH2 7238   7.152   0.204   3.510
 2454TIP3    H1 7239   7.126   0.266   3.578
 2454TIP3    H2 7240   7.082   0.140   3.507
 2455TIP3   OH2 7241   5.731   0.604   3.585
 2455TIP3    H1 7242   5.777   0.601   3.669
 2455TIP3    H2 7243   5.661   0.539   3.595
 2456TIP3   OH2 7244   6.923   0.079   3.569
 2456TIP3    H1 7245   6.862   0.007   3.582
 2456TIP3    H2 7246   6.880   0.137   3.507
 2457TIP3   OH2 7247   2.714   9.208   3.381
 2457TIP3    H1 7248   2.681   9.207   3.471
 2457TIP3    H2 7249   2.685   9.292   3.346
 2458TIP3   OH2 7250   2.604   9.155   2.947
 2458TIP3    H1 7251   2.557   9.103   3.012
 2458TIP3    H2 7252   2.541   9.169   2.877
 2459TIP3   OH2 7253   3.139   9.131   2.591
 2459TIP3    H1 7254   3.091   9.203   2.550
 2459TIP3    H2 7255   3.205   9.106   2.527
 2460TIP3   OH2 7256   6.627   0.279   3.678
 2460TIP3    H1 7257   6.568   0.252   3.749
 2460TIP3    H2 7258   6.714   0.248   3.706
 2461TIP3   OH2 7259   6.640   0.102   2.863
 2461TIP3    H1 7260   6.573   0.154   2.819
 2461TIP3    H2 7261   6.607   0.012   2.858
 2462TIP3   OH2 7262   5.876   0.014   3.626
 2462TIP3    H1 7263   5.884   0.087   3.688
 2462TIP3    H2 7264   5.832  -0.055   3.675
 2463TIP3   OH2 7265   6.562   0.190   3.301
 2463TIP3    H1 7266   6.606   0.132   3.239
 2463TIP3    H2 7267   6.546   0.136   3.378
 2464TIP3   OH2 7268   2.388   8.953   3.023
 2464TIP3    H1 7269   2.367   8.985   2.935
 2464TIP3    H2 7270   2.470   8.905   3.011
 2465TIP3   OH2 7271   2.699   8.947   2.644
 2465TIP3    H1 7272   2.709   8.853   2.626
 2465TIP3    H2 7273   2.610   8.967   2.617
 2466TIP3   OH2 7274   2.460   9.000   2.504
 2466TIP3    H1 7275   2.379   9.040   2.473
 2466TIP3    H2 7276   2.496   8.956   2.428
 2467TIP3   OH2 7277   6.949   1.383   3.410
 2467TIP3    H1 7278   6.943   1.401   3.317
 2467TIP3    H2 7279   7.024   1.433   3.440
 2468TIP3   OH2 7280   5.877   0.530   3.822
 2468TIP3    H1 7281   5.959   0.540   3.869
 2468TIP3    H2 7282   5.809   0.542   3.888
 2469TIP3   OH2 7283   3.034   9.227   3.112
 2469TIP3    H1 7284   3.075   9.181   3.039
 2469TIP3    H2 7285   3.058   9.177   3.190
 2470TIP3   OH2 7286   3.079   9.101   3.361
 2470TIP3    H1 7287   2.997   9.051   3.365
 2470TIP3    H2 7288   3.126   9.077   3.440
 2471TIP3   OH2 7289   6.047   0.225   2.453
 2471TIP3    H1 7290   5.974   0.165   2.439
 2471TIP3    H2 7291   6.024   0.273   2.533
 2472TIP3   OH2 7292   6.944   0.500   3.073
 2472TIP3    H1 7293   6.981   0.548   2.999
 2472TIP3    H2 7294   6.859   0.469   3.041
 2473TIP3   OH2 7295   6.503   0.596   3.453
 2473TIP3    H1 7296   6.459   0.515   3.478
 2473TIP3    H2 7297   6.441   0.665   3.476
 2474TIP3   OH2 7298   3.312   9.047   2.394
 2474TIP3    H1 7299   3.386   9.005   2.351
 2474TIP3    H2 7300   3.300   9.129   2.347
 2475TIP3   OH2 7301   5.719   0.250   3.107
 2475TIP3    H1 7302   5.762   0.245   3.022
 2475TIP3    H2 7303   5.788   0.227   3.170
 2476TIP3   OH2 7304   6.223   0.381   2.311
 2476TIP3    H1 7305   6.179   0.466   2.309
 2476TIP3    H2 7306   6.162   0.324   2.358
 2477TIP3   OH2 7307   5.621   0.179   3.735
 2477TIP3    H1 7308   5.620   0.146   3.825
 2477TIP3    H2 7309   5.546   0.138   3.693
 2478TIP3   OH2 7310   6.351   0.354   3.750
 2478TIP3    H1 7311   6.268   0.308   3.738
 2478TIP3    H2 7312   6.391   0.355   3.663
 2479TIP3   OH2 7313   6.610   0.862   3.358
 2479TIP3    H1 7314   6.517   0.838   3.366
 2479TIP3    H2 7315   6.636   0.885   3.447
 2480TIP3   OH2 7316   7.263   0.790   3.336
 2480TIP3    H1 7317   7.171   0.766   3.349
 2480TIP3    H2 7318   7.287   0.750   3.253
 2481TIP3   OH2 7319   6.745   0.704   2.202
 2481TIP3    H1 7320   6.748   0.634   2.268
 2481TIP3    H2 7321   6.764   0.660   2.119
 2482TIP3   OH2 7322   6.699   0.368   3.014
 2482TIP3    H1 7323   6.612   0.329   3.001
 2482TIP3    H2 7324   6.756   0.293   3.031
 2483TIP3   OH2 7325   2.202   9.137   2.483
 2483TIP3    H1 7326   2.247   9.215   2.515
 2483TIP3    H2 7327   2.110   9.162   2.478
 2484TIP3   OH2 7328   5.975   0.368   2.674
 2484TIP3    H1 7329   6.041   0.425   2.712
 2484TIP3    H2 7330   5.933   0.326   2.749
 2485TIP3   OH2 7331   6.169   0.902   3.234
 2485TIP3    H1 7332   6.202   0.982   3.194
 2485TIP3    H2 7333   6.240   0.872   3.291
 2486TIP3   OH2 7334   6.515   0.568   3.179
 2486TIP3    H1 7335   6.517   0.578   3.274
 2486TIP3    H2 7336   6.592   0.514   3.159
 2487TIP3   OH2 7337   6.473   0.414   2.151
 2487TIP3    H1 7338   6.534   0.415   2.225
 2487TIP3    H2 7339   6.387   0.415   2.192
 2488TIP3   OH2 7340   6.769   1.054   3.245
 2488TIP3    H1 7341   6.701   0.992   3.270
 2488TIP3    H2 7342   6.729   1.107   3.176
 2489TIP3   OH2 7343   6.804   0.896   1.893
 2489TIP3    H1 7344   6.824   0.956   1.822
 2489TIP3    H2 7345   6.733   0.939   1.942
 2490TIP3   OH2 7346   6.658   0.382   2.350
 2490TIP3    H1 7347   6.654   0.305   2.406
 2490TIP3    H2 7348   6.748   0.385   2.318
 2491TIP3   OH2 7349   5.586   0.778   3.408
 2491TIP3    H1 7350   5.637   0.725   3.468
 2491TIP3    H2 7351   5.591   0.867   3.444
 2492TIP3   OH2 7352   5.846   0.418   2.112
 2492TIP3    H1 7353   5.855   0.328   2.081
 2492TIP3    H2 7354   5.830   0.409   2.206
 2493TIP3   OH2 7355   5.784   0.426   2.383
 2493TIP3    H1 7356   5.846   0.399   2.450
 2493TIP3    H2 7357   5.789   0.521   2.383
 2494TIP3   OH2 7358   5.540   0.146   2.581
 2494TIP3    H1 7359   5.462   0.180   2.626
 2494TIP3    H2 7360   5.548   0.200   2.503
 2495TIP3   OH2 7361   6.072   0.605   2.308
 2495TIP3    H1 7362   5.987   0.627   2.344
 2495TIP3    H2 7363   6.093   0.678   2.249
 2496TIP3   OH2 7364   3.041   8.906   2.715
 2496TIP3    H1 7365   3.076   8.984   2.673
 2496TIP3    H2 7366   3.016   8.936   2.803
 2497TIP3   OH2 7367   6.539   0.060   3.534
 2497TIP3    H1 7368   6.554   0.142   3.583
 2497TIP3    H2 7369   6.603  -0.001   3.571
 2498TIP3   OH2 7370   5.817   0.698   2.379
 2498TIP3    H1 7371   5.800   0.754   2.304
 2498TIP3    H2 7372   5.803   0.755   2.455
 2499TIP3   OH2 7373   6.915   0.093   2.860
 2499TIP3    H1 7374   6.819   0.094   2.862
 2499TIP3    H2 7375   6.940   0.126   2.947
 2500TIP3   OH2 7376   5.535   0.299   2.350
 2500TIP3    H1 7377   5.607   0.362   2.361
 2500TIP3    H2 7378   5.571   0.233   2.292
 2501TIP3   OH2 7379   2.106   8.880   2.455
 2501TIP3    H1 7380   2.148   8.966   2.446
 2501TIP3    H2 7381   2.037   8.880   2.389
 2502TIP3   OH2 7382   6.790   1.054   2.816
 2502TIP3    H1 7383   6.750   1.105   2.746
 2502TIP3    H2 7384   6.884   1.068   2.806
 2503TIP3   OH2 7385   5.384   0.562   2.708
 2503TIP3    H1 7386   5.308   0.563   2.766
 2503TIP3    H2 7387   5.350   0.592   2.624
 2504TIP3   OH2 7388   5.568   1.091   3.817
 2504TIP3    H1 7389   5.652   1.091   3.864
 2504TIP3    H2 7390   5.537   1.001   3.822
 2505TIP3   OH2 7391   6.042   0.997   3.868
 2505TIP3    H1 7392   6.134   0.976   3.879
 2505TIP3    H2 7393   6.014   0.945   3.792
 2506TIP3   OH2 7394   6.009   0.612   2.003
 2506TIP3    H1 7395   5.961   0.541   2.045
 2506TIP3    H2 7396   6.083   0.569   1.960
 2507TIP3   OH2 7397   6.671   0.941   3.613
 2507TIP3    H1 7398   6.682   0.878   3.685
 2507TIP3    H2 7399   6.741   1.005   3.627
 2508TIP3   OH2 7400   6.459   0.636   1.931
 2508TIP3    H1 7401   6.513   0.575   1.980
 2508TIP3    H2 7402   6.504   0.646   1.847
 2509TIP3   OH2 7403   5.678   0.518   4.014
 2509TIP3    H1 7404   5.696   0.424   4.022
 2509TIP3    H2 7405   5.594   0.523   3.969
 2510TIP3   OH2 7406   5.673   0.103   2.221
 2510TIP3    H1 7407   5.728   0.075   2.294
 2510TIP3    H2 7408   5.734   0.113   2.148
 2511TIP3   OH2 7409   6.294   0.619   3.790
 2511TIP3    H1 7410   6.247   0.635   3.708
 2511TIP3    H2 7411   6.333   0.533   3.779
 2512TIP3   OH2 7412   6.171   0.329   2.041
 2512TIP3    H1 7413   6.184   0.341   2.135
 2512TIP3    H2 7414   6.147   0.237   2.031
 2513TIP3   OH2 7415   6.767   0.577   3.385
 2513TIP3    H1 7416   6.807   0.655   3.346
 2513TIP3    H2 7417   6.679   0.605   3.410
 2514TIP3   OH2 7418   5.779   0.262   4.031
 2514TIP3    H1 7419   5.848   0.213   3.986
 2514TIP3    H2 7420   5.820   0.289   4.114
 2515TIP3   OH2 7421   2.581   9.273   2.428
 2515TIP3    H1 7422   2.556   9.237   2.513
 2515TIP3    H2 7423   2.627   9.202   2.384
 2516TIP3   OH2 7424   6.135   0.216   3.663
 2516TIP3    H1 7425   6.042   0.241   3.672
 2516TIP3    H2 7426   6.145   0.195   3.571
 2517TIP3   OH2 7427   2.705   9.112   2.208
 2517TIP3    H1 7428   2.770   9.107   2.278
 2517TIP3    H2 7429   2.747   9.165   2.140
 2518TIP3   OH2 7430   6.662   0.522   3.809
 2518TIP3    H1 7431   6.652   0.463   3.735
 2518TIP3    H2 7432   6.674   0.465   3.885
 2519TIP3   OH2 7433   6.291   0.003   3.730
 2519TIP3    H1 7434   6.226  -0.058   3.765
 2519TIP3    H2 7435   6.241   0.078   3.699
 2520TIP3   OH2 7436   6.381   0.353   3.470
 2520TIP3    H1 7437   6.432   0.296   3.413
 2520TIP3    H2 7438   6.291   0.344   3.439
 2521TIP3   OH2 7439   7.006   0.145   3.933
 2521TIP3    H1 7440   6.924   0.126   3.888
 2521TIP3    H2 7441   6.980   0.188   4.014
 2522TIP3   OH2 7442   6.905   0.474   3.591
 2522TIP3    H1 7443   6.843   0.520   3.535
 2522TIP3    H2 7444   6.988   0.478   3.544
 2523TIP3   OH2 7445   6.011   0.117   3.992
 2523TIP3    H1 7446   6.004   0.040   4.048
 2523TIP3    H2 7447   6.067   0.178   4.041
 2524TIP3   OH2 7448   6.509   0.099   3.860
 2524TIP3    H1 7449   6.529   0.033   3.926
 2524TIP3    H2 7450   6.436   0.062   3.810
 2525TIP3   OH2 7451   5.811   0.899   2.194
 2525TIP3    H1 7452   5.903   0.889   2.170
 2525TIP3    H2 7453   5.772   0.944   2.119
 2526TIP3   OH2 7454   5.255   0.260   2.345
 2526TIP3    H1 7455   5.348   0.281   2.358
 2526TIP3    H2 7456   5.245   0.172   2.379
 2527TIP3   OH2 7457   5.124   0.876   2.860
 2527TIP3    H1 7458   5.036   0.838   2.861
 2527TIP3    H2 7459   5.177   0.814   2.908
 2528TIP3   OH2 7460   5.340   0.734   2.998
 2528TIP3    H1 7461   5.321   0.657   3.051
 2528TIP3    H2 7462   5.383   0.795   3.058
 2529TIP3   OH2 7463   7.059   1.110   2.817
 2529TIP3    H1 7464   7.076   1.137   2.907
 2529TIP3    H2 7465   7.112   1.169   2.764
 2530TIP3   OH2 7466   7.074   1.138   3.096
 2530TIP3    H1 7467   7.031   1.053   3.094
 2530TIP3    H2 7468   7.145   1.128   3.159
 2531TIP3   OH2 7469   7.117   0.860   3.635
 2531TIP3    H1 7470   7.050   0.862   3.703
 2531TIP3    H2 7471   7.169   0.939   3.650
 2532TIP3   OH2 7472   6.917   0.391   2.279
 2532TIP3    H1 7473   6.981   0.453   2.243
 2532TIP3    H2 7474   6.971   0.327   2.327
 2533TIP3   OH2 7475   7.070   0.224   2.435
 2533TIP3    H1 7476   7.011   0.179   2.495
 2533TIP3    H2 7477   7.139   0.260   2.491
 2534TIP3   OH2 7478   7.126   0.628   2.908
 2534TIP3    H1 7479   7.175   0.561   2.859
 2534TIP3    H2 7480   7.130   0.706   2.853
 2535TIP3   OH2 7481   6.940   0.892   3.104
 2535TIP3    H1 7482   6.874   0.942   3.152
 2535TIP3    H2 7483   6.892   0.852   3.031
 2536TIP3   OH2 7484   6.887   0.080   2.591
 2536TIP3    H1 7485   6.910  -0.011   2.569
 2536TIP3    H2 7486   6.905   0.087   2.684
 2537TIP3   OH2 7487   5.473   0.171   3.366
 2537TIP3    H1 7488   5.470   0.147   3.274
 2537TIP3    H2 7489   5.566   0.173   3.388
 2538TIP3   OH2 7490   7.134   0.509   3.445
 2538TIP3    H1 7491   7.210   0.469   3.401
 2538TIP3    H2 7492   7.095   0.566   3.378
 2539TIP3   OH2 7493   7.378   0.347   3.467
 2539TIP3    H1 7494   7.301   0.304   3.503
 2539TIP3    H2 7495   7.431   0.370   3.544
 2540TIP3   OH2 7496   3.852   9.191   3.034
 2540TIP3    H1 7497   3.891   9.261   2.982
 2540TIP3    H2 7498   3.864   9.219   3.125
 2541TIP3   OH2 7499   7.215   0.129   3.244
 2541TIP3    H1 7500   7.191   0.160   3.332
 2541TIP3    H2 7501   7.198   0.204   3.187
 2542TIP3   OH2 7502   2.135   9.130   3.399
 2542TIP3    H1 7503   2.220   9.132   3.355
 2542TIP3    H2 7504   2.111   9.222   3.409
 2543TIP3   OH2 7505   6.610   1.013   2.466
 2543TIP3    H1 7506   6.667   1.005   2.390
 2543TIP3    H2 7507   6.650   1.083   2.519
 2544TIP3   OH2 7508   5.724   0.809   3.836
 2544TIP3    H1 7509   5.628   0.804   3.832
 2544TIP3    H2 7510   5.743   0.824   3.928
 2545TIP3   OH2 7511   5.933   0.857   3.372
 2545TIP3    H1 7512   5.883   0.934   3.346
 2545TIP3    H2 7513   6.019   0.871   3.332
 2546TIP3   OH2 7514   6.322   1.088   3.528
 2546TIP3    H1 7515   6.362   1.084   3.615
 2546TIP3    H2 7516   6.383   1.141   3.476
 2547TIP3   OH2 7517   6.511   1.235   3.393
 2547TIP3    H1 7518   6.570   1.177   3.344
 2547TIP3    H2 7519   6.569   1.286   3.449
 2548TIP3   OH2 7520   5.576   1.089   3.427
 2548TIP3    H1 7521   5.485   1.106   3.403
 2548TIP3    H2 7522   5.597   1.156   3.493
 2549TIP3   OH2 7523   5.812   1.085   3.283
 2549TIP3    H1 7524   5.729   1.090   3.331
 2549TIP3    H2 7525   5.791   1.117   3.195
 2550TIP3   OH2 7526   6.234   1.124   3.082
 2550TIP3    H1 7527   6.173   1.144   3.011
 2550TIP3    H2 7528   6.247   1.207   3.127
 2551TIP3   OH2 7529   6.494   1.046   3.121
 2551TIP3    H1 7530   6.404   1.071   3.102
 2551TIP3    H2 7531   6.548   1.112   3.076
 2552TIP3   OH2 7532   6.693   1.211   3.022
 2552TIP3    H1 7533   6.696   1.300   2.986
 2552TIP3    H2 7534   6.725   1.156   2.950
 2553TIP3   OH2 7535   5.525   0.881   3.144
 2553TIP3    H1 7536   5.513   0.869   3.238
 2553TIP3    H2 7537   5.609   0.840   3.125
 2554TIP3   OH2 7538   5.760   0.770   3.026
 2554TIP3    H1 7539   5.758   0.682   3.063
 2554TIP3    H2 7540   5.846   0.804   3.049
 2555TIP3   OH2 7541   6.014   0.865   3.013
 2555TIP3    H1 7542   6.035   0.776   2.983
 2555TIP3    H2 7543   6.069   0.878   3.090
 2556TIP3   OH2 7544   5.275   0.672   2.482
 2556TIP3    H1 7545   5.184   0.647   2.465
 2556TIP3    H2 7546   5.276   0.767   2.471
 2557TIP3   OH2 7547   6.074   0.837   2.139
 2557TIP3    H1 7548   6.158   0.862   2.100
 2557TIP3    H2 7549   6.042   0.766   2.082
 2558TIP3   OH2 7550   6.763   0.974   2.238
 2558TIP3    H1 7551   6.760   0.879   2.229
 2558TIP3    H2 7552   6.722   1.007   2.158
 2559TIP3   OH2 7553   5.383   0.666   2.215
 2559TIP3    H1 7554   5.370   0.653   2.308
 2559TIP3    H2 7555   5.461   0.615   2.193
 2560TIP3   OH2 7556   6.984   1.111   3.413
 2560TIP3    H1 7557   6.911   1.081   3.360
 2560TIP3    H2 7558   6.970   1.206   3.422
 2561TIP3   OH2 7559   8.179   0.482   2.565
 2561TIP3    H1 7560   8.246   0.468   2.632
 2561TIP3    H2 7561   8.228   0.489   2.483
 2562TIP3   OH2 7562   7.556   0.434   2.913
 2562TIP3    H1 7563   7.585   0.361   2.968
 2562TIP3    H2 7564   7.605   0.509   2.945
 2563TIP3   OH2 7565   7.548   0.772   2.615
 2563TIP3    H1 7566   7.532   0.678   2.616
 2563TIP3    H2 7567   7.642   0.780   2.598
 2564TIP3   OH2 7568   7.297   0.321   2.587
 2564TIP3    H1 7569   7.338   0.235   2.596
 2564TIP3    H2 7570   7.369   0.380   2.563
 2565TIP3   OH2 7571   8.127   1.209   2.236
 2565TIP3    H1 7572   8.199   1.153   2.206
 2565TIP3    H2 7573   8.128   1.200   2.331
 2566TIP3   OH2 7574   8.047   0.719   2.614
 2566TIP3    H1 7575   8.075   0.633   2.583
 2566TIP3    H2 7576   8.128   0.767   2.631
 2567TIP3   OH2 7577   7.399   0.074   2.650
 2567TIP3    H1 7578   7.483   0.046   2.684
 2567TIP3    H2 7579   7.374   0.005   2.588
 2568TIP3   OH2 7580   7.886   0.636   2.821
 2568TIP3    H1 7581   7.830   0.707   2.852
 2568TIP3    H2 7582   7.939   0.675   2.751
 2569TIP3   OH2 7583   4.372   9.228   2.744
 2569TIP3    H1 7584   4.417   9.288   2.804
 2569TIP3    H2 7585   4.440   9.199   2.683
 2570TIP3   OH2 7586   7.734   0.845   2.910
 2570TIP3    H1 7587   7.729   0.933   2.874
 2570TIP3    H2 7588   7.654   0.834   2.961
 2571TIP3   OH2 7589   7.113   0.560   2.187
 2571TIP3    H1 7590   7.162   0.558   2.105
 2571TIP3    H2 7591   7.138   0.644   2.227
 2572TIP3   OH2 7592   8.572   1.063   2.426
 2572TIP3    H1 7593   8.479   1.044   2.443
 2572TIP3    H2 7594   8.571   1.148   2.382
 2573TIP3   OH2 7595   8.330   1.067   2.129
 2573TIP3    H1 7596   8.388   0.996   2.157
 2573TIP3    H2 7597   8.380   1.114   2.063
 2574TIP3   OH2 7598   8.599   0.494   2.909
 2574TIP3    H1 7599   8.593   0.579   2.953
 2574TIP3    H2 7600   8.526   0.495   2.846
 2575TIP3   OH2 7601   7.683   0.377   2.386
 2575TIP3    H1 7602   7.612   0.358   2.325
 2575TIP3    H2 7603   7.748   0.309   2.369
 2576TIP3   OH2 7604   7.806   0.825   2.517
 2576TIP3    H1 7605   7.794   0.801   2.425
 2576TIP3    H2 7606   7.891   0.787   2.541
 2577TIP3   OH2 7607   7.815   0.390   2.726
 2577TIP3    H1 7608   7.848   0.398   2.636
 2577TIP3    H2 7609   7.837   0.474   2.767
 2578TIP3   OH2 7610   8.312   1.032   2.505
 2578TIP3    H1 7611   8.296   1.111   2.557
 2578TIP3    H2 7612   8.297   0.960   2.566
 2579TIP3   OH2 7613   7.941   0.937   3.071
 2579TIP3    H1 7614   7.881   0.996   3.115
 2579TIP3    H2 7615   7.886   0.884   3.014
 2580TIP3   OH2 7616   7.662   0.549   3.174
 2580TIP3    H1 7617   7.671   0.636   3.213
 2580TIP3    H2 7618   7.573   0.522   3.195
 2581TIP3   OH2 7619   7.951   1.026   2.100
 2581TIP3    H1 7620   8.008   1.085   2.151
 2581TIP3    H2 7621   7.913   1.082   2.033
 2582TIP3   OH2 7622   7.737   1.099   3.155
 2582TIP3    H1 7623   7.710   1.110   3.064
 2582TIP3    H2 7624   7.655   1.082   3.202
 2583TIP3   OH2 7625   7.326   0.661   3.104
 2583TIP3    H1 7626   7.253   0.651   3.042
 2583TIP3    H2 7627   7.354   0.571   3.122
 2584TIP3   OH2 7628   7.175   0.861   2.768
 2584TIP3    H1 7629   7.266   0.886   2.786
 2584TIP3    H2 7630   7.123   0.938   2.791
 2585TIP3   OH2 7631   8.129   1.082   2.933
 2585TIP3    H1 7632   8.121   1.172   2.964
 2585TIP3    H2 7633   8.062   1.033   2.981
 2586TIP3   OH2 7634   7.862   1.197   1.897
 2586TIP3    H1 7635   7.787   1.175   1.842
 2586TIP3    H2 7636   7.838   1.279   1.939
 2587TIP3   OH2 7637   7.360   1.034   2.267
 2587TIP3    H1 7638   7.406   1.027   2.351
 2587TIP3    H2 7639   7.309   0.953   2.261
 2588TIP3   OH2 7640   8.122   1.140   1.823
 2588TIP3    H1 7641   8.029   1.151   1.844
 2588TIP3    H2 7642   8.150   1.066   1.876
 2589TIP3   OH2 7643   7.512   0.862   3.072
 2589TIP3    H1 7644   7.560   0.859   3.155
 2589TIP3    H2 7645   7.445   0.794   3.081
 2590TIP3   OH2 7646   7.783   0.171   2.889
 2590TIP3    H1 7647   7.751   0.206   2.972
 2590TIP3    H2 7648   7.779   0.245   2.829
 2591TIP3   OH2 7649   8.374   0.528   3.157
 2591TIP3    H1 7650   8.440   0.489   3.214
 2591TIP3    H2 7651   8.392   0.622   3.159
 2592TIP3   OH2 7652   7.675   0.269   3.123
 2592TIP3    H1 7653   7.651   0.352   3.162
 2592TIP3    H2 7654   7.613   0.206   3.160
 2593TIP3   OH2 7655   8.373   0.415   2.752
 2593TIP3    H1 7656   8.398   0.341   2.697
 2593TIP3    H2 7657   8.350   0.376   2.836
 2594TIP3   OH2 7658   8.721   1.646   2.886
 2594TIP3    H1 7659   8.706   1.651   2.791
 2594TIP3    H2 7660   8.787   1.713   2.903
 2595TIP3   OH2 7661   7.670   0.787   3.305
 2595TIP3    H1 7662   7.754   0.801   3.348
 2595TIP3    H2 7663   7.606   0.795   3.375
 2596TIP3   OH2 7664   8.168   0.134   2.830
 2596TIP3    H1 7665   8.099   0.088   2.879
 2596TIP3    H2 7666   8.203   0.198   2.892
 2597TIP3   OH2 7667   8.295   0.839   2.951
 2597TIP3    H1 7668   8.243   0.759   2.961
 2597TIP3    H2 7669   8.236   0.910   2.975
 2598TIP3   OH2 7670   7.540   0.481   2.609
 2598TIP3    H1 7671   7.598   0.451   2.539
 2598TIP3    H2 7672   7.583   0.453   2.690
 2599TIP3   OH2 7673   7.428   0.419   3.213
 2599TIP3    H1 7674   7.424   0.395   3.306
 2599TIP3    H2 7675   7.350   0.378   3.175
 2600TIP3   OH2 7676   8.136   0.596   3.280
 2600TIP3    H1 7677   8.058   0.547   3.255
 2600TIP3    H2 7678   8.204   0.565   3.219
 2601TIP3   OH2 7679   8.397   1.112   2.854
 2601TIP3    H1 7680   8.304   1.094   2.861
 2601TIP3    H2 7681   8.422   1.144   2.941
 2602TIP3   OH2 7682   7.699   0.820   2.248
 2602TIP3    H1 7683   7.740   0.885   2.190
 2602TIP3    H2 7684   7.606   0.839   2.242
 2603TIP3   OH2 7685   7.850   0.597   2.315
 2603TIP3    H1 7686   7.800   0.667   2.272
 2603TIP3    H2 7687   7.785   0.530   2.336
 2604TIP3   OH2 7688   7.956   1.157   2.720
 2604TIP3    H1 7689   7.991   1.229   2.669
 2604TIP3    H2 7690   8.030   1.125   2.771
 2605TIP3   OH2 7691   7.568   1.048   2.088
 2605TIP3    H1 7692   7.493   1.052   2.148
 2605TIP3    H2 7693   7.615   1.129   2.104
 2606TIP3   OH2 7694   8.305   0.813   2.678
 2606TIP3    H1 7695   8.301   0.825   2.773
 2606TIP3    H2 7696   8.395   0.783   2.662
 2607TIP3   OH2 7697   8.561   1.301   2.742
 2607TIP3    H1 7698   8.496   1.234   2.762
 2607TIP3    H2 7699   8.529   1.343   2.663
 2608TIP3   OH2 7700   7.378   1.053   2.888
 2608TIP3    H1 7701   7.429   0.996   2.946
 2608TIP3    H2 7702   7.393   1.141   2.923
 2609TIP3   OH2 7703   8.319   0.313   3.002
 2609TIP3    H1 7704   8.318   0.397   3.048
 2609TIP3    H2 7705   8.405   0.276   3.023
 2610TIP3   OH2 7706   7.457   1.008   1.833
 2610TIP3    H1 7707   7.522   1.064   1.792
 2610TIP3    H2 7708   7.486   0.999   1.924
 2611TIP3   OH2 7709   8.598   1.314   2.306
 2611TIP3    H1 7710   8.545   1.359   2.240
 2611TIP3    H2 7711   8.679   1.292   2.260
 2612TIP3   OH2 7712   7.181   0.821   2.260
 2612TIP3    H1 7713   7.143   0.858   2.340
 2612TIP3    H2 7714   7.128   0.857   2.189
 2613TIP3   OH2 7715   7.376   1.341   3.308
 2613TIP3    H1 7716   7.458   1.338   3.357
 2613TIP3    H2 7717   7.348   1.249   3.303
 2614TIP3   OH2 7718   7.842   1.262   3.349
 2614TIP3    H1 7719   7.933   1.236   3.359
 2614TIP3    H2 7720   7.809   1.209   3.277
 2615TIP3   OH2 7721   8.457   1.212   3.103
 2615TIP3    H1 7722   8.458   1.140   3.166
 2615TIP3    H2 7723   8.537   1.261   3.122
 2616TIP3   OH2 7724   7.479   0.769   3.506
 2616TIP3    H1 7725   7.505   0.677   3.508
 2616TIP3    H2 7726   7.396   0.769   3.459
 2617TIP3   OH2 7727   8.104   0.869   3.280
 2617TIP3    H1 7728   8.056   0.884   3.198
 2617TIP3    H2 7729   8.130   0.777   3.276
 2618TIP3   OH2 7730   8.580   0.868   2.861
 2618TIP3    H1 7731   8.622   0.926   2.798
 2618TIP3    H2 7732   8.495   0.910   2.879
 2619TIP3   OH2 7733   7.622   0.529   3.502
 2619TIP3    H1 7734   7.710   0.511   3.467
 2619TIP3    H2 7735   7.636   0.546   3.595
 2620TIP3   OH2 7736   7.914   0.450   3.210
 2620TIP3    H1 7737   7.830   0.491   3.192
 2620TIP3    H2 7738   7.946   0.421   3.124
 2621TIP3   OH2 7739   8.479   0.769   3.241
 2621TIP3    H1 7740   8.558   0.767   3.187
 2621TIP3    H2 7741   8.505   0.725   3.322
 2622TIP3   OH2 7742   8.083   0.163   3.140
 2622TIP3    H1 7743   8.003   0.139   3.187
 2622TIP3    H2 7744   8.138   0.206   3.206
 2623TIP3   OH2 7745   8.149   0.610   2.935
 2623TIP3    H1 7746   8.190   0.539   2.887
 2623TIP3    H2 7747   8.055   0.597   2.923
 2624TIP3   OH2 7748   8.819   0.399   3.331
 2624TIP3    H1 7749   8.818   0.333   3.400
 2624TIP3    H2 7750   8.728   0.406   3.303
 2625TIP3   OH2 7751   8.698   0.736   3.063
 2625TIP3    H1 7752   8.655   0.792   2.998
 2625TIP3    H2 7753   8.771   0.696   3.017
 2626TIP3   OH2 7754   7.893   0.415   3.490
 2626TIP3    H1 7755   7.846   0.333   3.502
 2626TIP3    H2 7756   7.908   0.420   3.395
 2627TIP3   OH2 7757   8.267   0.245   3.328
 2627TIP3    H1 7758   8.324   0.235   3.403
 2627TIP3    H2 7759   8.326   0.261   3.254
 2628TIP3   OH2 7760   7.640   1.197   1.720
 2628TIP3    H1 7761   7.642   1.293   1.724
 2628TIP3    H2 7762   7.611   1.178   1.631
 2629TIP3   OH2 7763   6.979   1.119   2.328
 2629TIP3    H1 7764   6.912   1.066   2.284
 2629TIP3    H2 7765   7.021   1.058   2.389
 2630TIP3   OH2 7766   7.121   0.955   2.501
 2630TIP3    H1 7767   7.115   0.888   2.569
 2630TIP3    H2 7768   7.174   1.024   2.539
 2631TIP3   OH2 7769   8.682   1.046   2.678
 2631TIP3    H1 7770   8.665   1.137   2.702
 2631TIP3    H2 7771   8.657   1.040   2.586
 2632TIP3   OH2 7772   7.290   0.411   2.844
 2632TIP3    H1 7773   7.283   0.393   2.751
 2632TIP3    H2 7774   7.383   0.426   2.860
 2633TIP3   OH2 7775   7.253   0.135   2.877
 2633TIP3    H1 7776   7.283   0.105   2.790
 2633TIP3    H2 7777   7.248   0.230   2.868
 2634TIP3   OH2 7778   8.458   1.230   1.954
 2634TIP3    H1 7779   8.436   1.261   1.866
 2634TIP3    H2 7780   8.466   1.309   2.007
 2635TIP3   OH2 7781   7.518   1.064   3.325
 2635TIP3    H1 7782   7.423   1.055   3.317
 2635TIP3    H2 7783   7.535   1.063   3.419
 2636TIP3   OH2 7784   7.728   1.119   2.872
 2636TIP3    H1 7785   7.677   1.194   2.841
 2636TIP3    H2 7786   7.813   1.127   2.827
 2637TIP3   OH2 7787   8.117   1.346   3.016
 2637TIP3    H1 7788   8.156   1.344   3.103
 2637TIP3    H2 7789   8.180   1.393   2.962
 2638TIP3   OH2 7790   8.310   1.486   2.878
 2638TIP3    H1 7791   8.370   1.427   2.832
 2638TIP3    H2 7792   8.366   1.538   2.935
 2639TIP3   OH2 7793   7.387   1.343   2.929
 2639TIP3    H1 7794   7.295   1.361   2.908
 2639TIP3    H2 7795   7.410   1.410   2.993
 2640TIP3   OH2 7796   7.614   1.350   2.774
 2640TIP3    H1 7797   7.532   1.350   2.823
 2640TIP3    H2 7798   7.589   1.373   2.685
 2641TIP3   OH2 7799   8.019   1.370   2.548
 2641TIP3    H1 7800   7.940   1.376   2.494
 2641TIP3    H2 7801   8.028   1.456   2.588
 2642TIP3   OH2 7802   8.271   1.283   2.610
 2642TIP3    H1 7803   8.186   1.317   2.585
 2642TIP3    H2 7804   8.334   1.345   2.573
 2643TIP3   OH2 7805   8.477   1.440   2.518
 2643TIP3    H1 7806   8.475   1.532   2.492
 2643TIP3    H2 7807   8.520   1.396   2.445
 2644TIP3   OH2 7808   7.295   1.136   2.635
 2644TIP3    H1 7809   7.319   1.114   2.725
 2644TIP3    H2 7810   7.367   1.102   2.583
 2645TIP3   OH2 7811   7.500   1.018   2.503
 2645TIP3    H1 7812   7.509   0.931   2.544
 2645TIP3    H2 7813   7.588   1.056   2.508
 2646TIP3   OH2 7814   7.766   1.098   2.526
 2646TIP3    H1 7815   7.783   1.005   2.510
 2646TIP3    H2 7816   7.825   1.122   2.598
 2647TIP3   OH2 7817   7.040   0.924   2.051
 2647TIP3    H1 7818   6.959   0.891   2.013
 2647TIP3    H2 7819   7.053   1.009   2.008
 2648TIP3   OH2 7820   7.189   0.971   1.732
 2648TIP3    H1 7821   7.139   1.019   1.798
 2648TIP3    H2 7822   7.276   0.960   1.771
 2649TIP3   OH2 7823   8.737   1.374   2.942
 2649TIP3    H1 7824   8.683   1.338   2.872
 2649TIP3    H2 7825   8.744   1.467   2.922
 2650TIP3   OH2 7826   0.964   1.594   3.968
 2650TIP3    H1 7827   0.962   1.523   4.032
 2650TIP3    H2 7828   0.994   1.670   4.017
 2651TIP3   OH2 7829   0.615   2.035   3.982
 2651TIP3    H1 7830   0.656   1.969   3.926
 2651TIP3    H2 7831   0.616   1.996   4.070
 2652TIP3   OH2 7832   0.522   1.510   4.302
 2652TIP3    H1 7833   0.553   1.428   4.263
 2652TIP3    H2 7834   0.602   1.555   4.328
 2653TIP3   OH2 7835   1.540   0.867   4.270
 2653TIP3    H1 7836   1.593   0.932   4.318
 2653TIP3    H2 7837   1.593   0.845   4.193
 2654TIP3   OH2 7838   1.664   1.052   4.453
 2654TIP3    H1 7839   1.573   1.069   4.474
 2654TIP3    H2 7840   1.714   1.102   4.517
 2655TIP3   OH2 7841   0.366   1.455   4.522
 2655TIP3    H1 7842   0.290   1.513   4.534
 2655TIP3    H2 7843   0.404   1.483   4.439
 2656TIP3   OH2 7844   0.173   1.638   4.603
 2656TIP3    H1 7845   0.155   1.729   4.578
 2656TIP3    H2 7846   0.104   1.616   4.665
 2657TIP3   OH2 7847   1.015   1.841   4.099
 2657TIP3    H1 7848   0.926   1.832   4.132
 2657TIP3    H2 7849   1.015   1.923   4.050
 2658TIP3   OH2 7850   1.300   0.865   4.408
 2658TIP3    H1 7851   1.227   0.908   4.365
 2658TIP3    H2 7852   1.374   0.876   4.347
 2659TIP3   OH2 7853   0.749   1.876   3.808
 2659TIP3    H1 7854   0.796   1.793   3.817
 2659TIP3    H2 7855   0.791   1.919   3.732
 2660TIP3   OH2 7856   1.267   1.715   4.434
 2660TIP3    H1 7857   1.243   1.644   4.375
 2660TIP3    H2 7858   1.254   1.794   4.382
 2661TIP3   OH2 7859   1.448   1.405   4.280
 2661TIP3    H1 7860   1.361   1.446   4.280
 2661TIP3    H2 7861   1.477   1.410   4.189
 2662TIP3   OH2 7862   1.167   1.293   4.602
 2662TIP3    H1 7863   1.135   1.369   4.650
 2662TIP3    H2 7864   1.091   1.260   4.555
 2663TIP3   OH2 7865   0.772   1.830   4.220
 2663TIP3    H1 7866   0.763   1.906   4.278
 2663TIP3    H2 7867   0.765   1.754   4.279
 2664TIP3   OH2 7868   0.386   1.737   4.756
 2664TIP3    H1 7869   0.320   1.788   4.803
 2664TIP3    H2 7870   0.336   1.676   4.702
 2665TIP3   OH2 7871   0.129   1.295   4.885
 2665TIP3    H1 7872   0.137   1.377   4.933
 2665TIP3    H2 7873   0.072   1.241   4.940
 2666TIP3   OH2 7874   0.173   1.885   4.852
 2666TIP3    H1 7875   0.147   1.905   4.762
 2666TIP3    H2 7876   0.091   1.873   4.899
 2667TIP3   OH2 7877   1.482   2.100   4.499
 2667TIP3    H1 7878   1.491   2.005   4.504
 2667TIP3    H2 7879   1.402   2.120   4.548
 2668TIP3   OH2 7880   0.588   1.867   4.626
 2668TIP3    H1 7881   0.581   1.958   4.655
 2668TIP3    H2 7882   0.520   1.821   4.674
 2669TIP3   OH2 7883   1.377   1.241   4.780
 2669TIP3    H1 7884   1.307   1.278   4.727
 2669TIP3    H2 7885   1.398   1.158   4.739
 2670TIP3   OH2 7886   9.779   1.614   4.807
 2670TIP3    H1 7887   9.837   1.595   4.882
 2670TIP3    H2 7888   9.727   1.534   4.797
 2671TIP3   OH2 7889   0.877   0.636   4.773
 2671TIP3    H1 7890   0.951   0.636   4.833
 2671TIP3    H2 7891   0.825   0.560   4.799
 2672TIP3   OH2 7892   1.113   0.965   4.637
 2672TIP3    H1 7893   1.075   1.003   4.715
 2672TIP3    H2 7894   1.109   1.035   4.571
 2673TIP3   OH2 7895   0.837   1.265   4.879
 2673TIP3    H1 7896   0.873   1.214   4.951
 2673TIP3    H2 7897   0.881   1.350   4.886
 2674TIP3   OH2 7898   0.764   1.275   4.322
 2674TIP3    H1 7899   0.714   1.195   4.306
 2674TIP3    H2 7900   0.833   1.247   4.382
 2675TIP3   OH2 7901   1.197   2.428   4.588
 2675TIP3    H1 7902   1.196   2.440   4.493
 2675TIP3    H2 7903   1.277   2.472   4.617
 2676TIP3   OH2 7904   0.124   1.531   5.033
 2676TIP3    H1 7905   0.213   1.554   5.060
 2676TIP3    H2 7906   0.076   1.522   5.115
 2677TIP3   OH2 7907   1.200   1.524   4.254
 2677TIP3    H1 7908   1.230   1.569   4.175
 2677TIP3    H2 7909   1.122   1.476   4.225
 2678TIP3   OH2 7910   0.733   1.606   4.662
 2678TIP3    H1 7911   0.777   1.584   4.744
 2678TIP3    H2 7912   0.685   1.687   4.681
 2679TIP3   OH2 7913   0.602   1.403   4.888
 2679TIP3    H1 7914   0.563   1.374   4.806
 2679TIP3    H2 7915   0.685   1.356   4.893
 2680TIP3   OH2 7916   0.857   1.896   4.545
 2680TIP3    H1 7917   0.764   1.874   4.550
 2680TIP3    H2 7918   0.879   1.928   4.633
 2681TIP3   OH2 7919   1.509   1.828   4.512
 2681TIP3    H1 7920   1.420   1.795   4.524
 2681TIP3    H2 7921   1.538   1.790   4.428
 2682TIP3   OH2 7922   0.972   1.386   4.167
 2682TIP3    H1 7923   0.892   1.361   4.213
 2682TIP3    H2 7924   1.006   1.304   4.131
 2683TIP3   OH2 7925   0.407   1.934   4.417
 2683TIP3    H1 7926   0.455   2.005   4.376
 2683TIP3    H2 7927   0.472   1.888   4.470
 2684TIP3   OH2 7928   0.769   1.606   4.389
 2684TIP3    H1 7929   0.758   1.603   4.484
 2684TIP3    H2 7930   0.831   1.536   4.370
 2685TIP3   OH2 7931   1.014   2.096   4.433
 2685TIP3    H1 7932   0.948   2.031   4.455
 2685TIP3    H2 7933   0.976   2.146   4.361
 2686TIP3   OH2 7934   9.659   1.826   4.658
 2686TIP3    H1 7935   9.695   1.751   4.706
 2686TIP3    H2 7936   9.735   1.865   4.614
 2687TIP3   OH2 7937   0.883   0.812   4.559
 2687TIP3    H1 7938   0.968   0.854   4.567
 2687TIP3    H2 7939   0.888   0.736   4.618
 2688TIP3   OH2 7940   0.760   1.119   4.658
 2688TIP3    H1 7941   0.787   1.175   4.731
 2688TIP3    H2 7942   0.747   1.033   4.698
 2689TIP3   OH2 7943   1.414   1.064   4.572
 2689TIP3    H1 7944   1.355   1.013   4.517
 2689TIP3    H2 7945   1.457   0.999   4.628
 2690TIP3   OH2 7946   1.039   1.131   4.080
 2690TIP3    H1 7947   0.985   1.054   4.062
 2690TIP3    H2 7948   1.127   1.096   4.096
 2691TIP3   OH2 7949   1.043   2.101   4.002
 2691TIP3    H1 7950   1.005   2.150   3.929
 2691TIP3    H2 7951   1.137   2.110   3.992
 2692TIP3   OH2 7952   9.662   2.122   4.999
 2692TIP3    H1 7953   9.728   2.145   5.064
 2692TIP3    H2 7954   9.667   2.027   4.992
 2693TIP3   OH2 7955   0.294   2.056   5.033
 2693TIP3    H1 7956   0.382   2.024   5.049
 2693TIP3    H2 7957   0.257   1.996   4.968
 2694TIP3   OH2 7958   0.911   1.989   4.797
 2694TIP3    H1 7959   0.922   1.916   4.858
 2694TIP3    H2 7960   0.987   2.045   4.813
 2695TIP3   OH2 7961   0.552   1.659   4.959
 2695TIP3    H1 7962   0.499   1.680   4.882
 2695TIP3    H2 7963   0.583   1.570   4.944
 2696TIP3   OH2 7964   1.035   1.678   4.585
 2696TIP3    H1 7965   1.111   1.702   4.531
 2696TIP3    H2 7966   0.967   1.740   4.560
 2697TIP3   OH2 7967   0.383   1.184   4.879
 2697TIP3    H1 7968   0.294   1.217   4.879
 2697TIP3    H2 7969   0.423   1.223   4.801
 2698TIP3   OH2 7970   0.918   1.530   4.917
 2698TIP3    H1 7971   1.006   1.528   4.879
 2698TIP3    H2 7972   0.932   1.511   5.010
 2699TIP3   OH2 7973   0.436   0.955   5.014
 2699TIP3    H1 7974   0.364   0.911   4.969
 2699TIP3    H2 7975   0.434   1.045   4.979
 2700TIP3   OH2 7976   0.516   1.279   4.658
 2700TIP3    H1 7977   0.595   1.267   4.605
 2700TIP3    H2 7978   0.460   1.336   4.605
 2701TIP3   OH2 7979   1.212   1.219   5.003
 2701TIP3    H1 7980   1.250   1.139   5.040
 2701TIP3    H2 7981   1.276   1.247   4.937
 2702TIP3   OH2 7982   1.155   1.524   4.770
 2702TIP3    H1 7983   1.104   1.581   4.712
 2702TIP3    H2 7984   1.245   1.529   4.736
 2703TIP3   OH2 7985   0.740   1.022   5.060
 2703TIP3    H1 7986   0.772   0.948   5.111
 2703TIP3    H2 7987   0.734   0.988   4.970
 2704TIP3   OH2 7988   1.030   1.024   4.885
 2704TIP3    H1 7989   1.038   0.942   4.933
 2704TIP3    H2 7990   1.091   1.084   4.928
 2705TIP3   OH2 7991   1.222   0.971   5.106
 2705TIP3    H1 7992   1.242   0.878   5.099
 2705TIP3    H2 7993   1.234   0.992   5.198
 2706TIP3   OH2 7994   1.313   2.142   3.996
 2706TIP3    H1 7995   1.335   2.176   4.083
 2706TIP3    H2 7996   1.382   2.176   3.939
 2707TIP3   OH2 7997   1.330   2.180   4.275
 2707TIP3    H1 7998   1.284   2.096   4.270
 2707TIP3    H2 7999   1.397   2.167   4.342
 2708TIP3   OH2 8000   1.380   1.885   4.841
 2708TIP3    H1 8001   1.309   1.889   4.905
 2708TIP3    H2 8002   1.426   1.968   4.852
 2709TIP3   OH2 8003   1.353   1.214   3.668
 2709TIP3    H1 8004   1.283   1.243   3.727
 2709TIP3    H2 8005   1.431   1.261   3.699
 2710TIP3   OH2 8006   1.377   1.654   4.084
 2710TIP3    H1 8007   1.432   1.587   4.043
 2710TIP3    H2 8008   1.377   1.727   4.022
 2711TIP3   OH2 8009   1.193   1.938   4.287
 2711TIP3    H1 8010   1.126   1.984   4.340
 2711TIP3    H2 8011   1.143   1.897   4.217
 2712TIP3   OH2 8012   1.400   1.542   4.644
 2712TIP3    H1 8013   1.469   1.479   4.623
 2712TIP3    H2 8014   1.377   1.580   4.560
 2713TIP3   OH2 8015   1.596   1.343   4.638
 2713TIP3    H1 8016   1.527   1.301   4.689
 2713TIP3    H2 8017   1.674   1.292   4.658
 2714TIP3   OH2 8018   1.283   1.009   4.150
 2714TIP3    H1 8019   1.368   1.028   4.110
 2714TIP3    H2 8020   1.276   1.071   4.223
 2715TIP3   OH2 8021   1.283   1.193   4.352
 2715TIP3    H1 8022   1.259   1.218   4.441
 2715TIP3    H2 8023   1.351   1.256   4.327
 2716TIP3   OH2 8024   1.921   0.799   5.005
 2716TIP3    H1 8025   1.968   0.728   4.960
 2716TIP3    H2 8026   1.882   0.851   4.935
 2717TIP3   OH2 8027   1.780   0.910   4.798
 2717TIP3    H1 8028   1.685   0.922   4.797
 2717TIP3    H2 8029   1.793   0.817   4.776
 2718TIP3   OH2 8030   0.859   2.057   3.620
 2718TIP3    H1 8031   0.913   2.040   3.542
 2718TIP3    H2 8032   0.912   2.113   3.675
 2719TIP3   OH2 8033   9.739   1.852   5.009
 2719TIP3    H1 8034   9.696   1.777   4.969
 2719TIP3    H2 8035   9.754   1.825   5.100
 2720TIP3   OH2 8036   0.163   1.913   4.566
 2720TIP3    H1 8037   0.128   1.993   4.526
 2720TIP3    H2 8038   0.252   1.906   4.531
 2721TIP3   OH2 8039   0.574   2.136   4.703
 2721TIP3    H1 8040   0.611   2.127   4.791
 2721TIP3    H2 8041   0.640   2.186   4.654
 2722TIP3   OH2 8042   0.773   2.285   4.580
 2722TIP3    H1 8043   0.835   2.225   4.537
 2722TIP3    H2 8044   0.827   2.343   4.633
 2723TIP3   OH2 8045   1.584   0.685   4.571
 2723TIP3    H1 8046   1.509   0.661   4.518
 2723TIP3    H2 8047   1.647   0.614   4.559
 2724TIP3   OH2 8048   9.675   2.150   4.597
 2724TIP3    H1 8049   9.586   2.115   4.604
 2724TIP3    H2 8050   9.690   2.195   4.680
 2725TIP3   OH2 8051   0.090   2.143   4.433
 2725TIP3    H1 8052   0.009   2.150   4.484
 2725TIP3    H2 8053   0.062   2.152   4.342
 2726TIP3   OH2 8054   0.482   2.162   4.249
 2726TIP3    H1 8055   0.389   2.159   4.228
 2726TIP3    H2 8056   0.493   2.242   4.301
 2727TIP3   OH2 8057   0.741   2.092   4.311
 2727TIP3    H1 8058   0.652   2.117   4.286
 2727TIP3    H2 8059   0.797   2.154   4.265
 2728TIP3   OH2 8060   0.940   2.252   4.206
 2728TIP3    H1 8061   0.949   2.341   4.172
 2728TIP3    H2 8062   0.974   2.196   4.136
 2729TIP3   OH2 8063   0.258   1.955   4.179
 2729TIP3    H1 8064   0.244   1.867   4.144
 2729TIP3    H2 8065   0.299   1.941   4.265
 2730TIP3   OH2 8066   1.025   2.021   3.394
 2730TIP3    H1 8067   1.078   1.947   3.364
 2730TIP3    H2 8068   1.000   2.065   3.313
 2731TIP3   OH2 8069   1.241   0.696   5.116
 2731TIP3    H1 8070   1.200   0.683   5.202
 2731TIP3    H2 8071   1.285   0.613   5.099
 2732TIP3   OH2 8072   1.231   2.154   4.599
 2732TIP3    H1 8073   1.158   2.123   4.546
 2732TIP3    H2 8074   1.217   2.249   4.607
 2733TIP3   OH2 8075   2.528   1.569   3.333
 2733TIP3    H1 8076   2.490   1.651   3.302
 2733TIP3    H2 8077   2.460   1.503   3.316
 2734TIP3   OH2 8078   2.508   1.523   3.767
 2734TIP3    H1 8079   2.560   1.504   3.845
 2734TIP3    H2 8080   2.463   1.440   3.749
 2735TIP3   OH2 8081   1.800   1.378   4.101
 2735TIP3    H1 8082   1.836   1.330   4.175
 2735TIP3    H2 8083   1.876   1.406   4.050
 2736TIP3   OH2 8084   2.815   1.824   3.501
 2736TIP3    H1 8085   2.776   1.754   3.553
 2736TIP3    H2 8086   2.788   1.904   3.546
 2737TIP3   OH2 8087   1.805   1.816   3.788
 2737TIP3    H1 8088   1.782   1.723   3.794
 2737TIP3    H2 8089   1.899   1.816   3.774
 2738TIP3   OH2 8090   1.581   1.337   3.778
 2738TIP3    H1 8091   1.632   1.259   3.801
 2738TIP3    H2 8092   1.646   1.405   3.763
 2739TIP3   OH2 8093   2.447   2.280   3.431
 2739TIP3    H1 8094   2.491   2.224   3.368
 2739TIP3    H2 8095   2.447   2.230   3.512
 2740TIP3   OH2 8096   2.322   1.748   3.762
 2740TIP3    H1 8097   2.365   1.665   3.739
 2740TIP3    H2 8098   2.393   1.804   3.792
 2741TIP3   OH2 8099   3.362   1.066   3.785
 2741TIP3    H1 8100   3.373   1.152   3.826
 2741TIP3    H2 8101   3.399   1.077   3.697
 2742TIP3   OH2 8102   2.725   1.240   3.799
 2742TIP3    H1 8103   2.754   1.153   3.827
 2742TIP3    H2 8104   2.692   1.226   3.710
 2743TIP3   OH2 8105   2.109   0.923   3.770
 2743TIP3    H1 8106   2.079   0.993   3.712
 2743TIP3    H2 8107   2.075   0.843   3.730
 2744TIP3   OH2 8108   2.783   0.995   3.393
 2744TIP3    H1 8109   2.845   0.988   3.466
 2744TIP3    H2 8110   2.836   1.029   3.321
 2745TIP3   OH2 8111   1.717   1.108   3.857
 2745TIP3    H1 8112   1.795   1.089   3.910
 2745TIP3    H2 8113   1.720   1.045   3.786
 2746TIP3   OH2 8114   2.124   1.316   3.708
 2746TIP3    H1 8115   2.218   1.297   3.715
 2746TIP3    H2 8116   2.087   1.234   3.675
 2747TIP3   OH2 8117   3.408   1.296   3.935
 2747TIP3    H1 8118   3.318   1.328   3.935
 2747TIP3    H2 8119   3.446   1.330   4.017
 2748TIP3   OH2 8120   2.069   0.895   4.202
 2748TIP3    H1 8121   2.010   0.929   4.135
 2748TIP3    H2 8122   2.024   0.911   4.284
 2749TIP3   OH2 8123   2.442   1.790   3.193
 2749TIP3    H1 8124   2.398   1.757   3.115
 2749TIP3    H2 8125   2.389   1.865   3.221
 2750TIP3   OH2 8126   2.166   1.664   3.977
 2750TIP3    H1 8127   2.107   1.733   4.009
 2750TIP3    H2 8128   2.214   1.705   3.905
 2751TIP3   OH2 8129   2.936   1.025   3.617
 2751TIP3    H1 8130   2.892   1.002   3.699
 2751TIP3    H2 8131   2.992   1.099   3.640
 2752TIP3   OH2 8132   1.947   1.007   3.979
 2752TIP3    H1 8133   1.998   1.084   4.007
 2752TIP3    H2 8134   2.001   0.966   3.912
 2753TIP3   OH2 8135   1.990   1.858   4.064
 2753TIP3    H1 8136   1.963   1.929   4.005
 2753TIP3    H2 8137   1.916   1.848   4.124
 2754TIP3   OH2 8138   1.431   1.613   3.356
 2754TIP3    H1 8139   1.346   1.612   3.312
 2754TIP3    H2 8140   1.440   1.702   3.391
 2755TIP3   OH2 8141   2.808   2.096   3.557
 2755TIP3    H1 8142   2.724   2.091   3.602
 2755TIP3    H2 8143   2.808   2.181   3.514
 2756TIP3   OH2 8144   3.157   0.960   3.949
 2756TIP3    H1 8145   3.074   0.979   3.906
 2756TIP3    H2 8146   3.223   0.986   3.885
 2757TIP3   OH2 8147   2.405   0.603   3.927
 2757TIP3    H1 8148   2.408   0.511   3.950
 2757TIP3    H2 8149   2.327   0.637   3.970
 2758TIP3   OH2 8150   2.565   2.151   3.219
 2758TIP3    H1 8151   2.626   2.083   3.189
 2758TIP3    H2 8152   2.575   2.222   3.155
 2759TIP3   OH2 8153   2.740   1.858   3.218
 2759TIP3    H1 8154   2.732   1.833   3.126
 2759TIP3    H2 8155   2.652   1.843   3.255
 2760TIP3   OH2 8156   3.041   1.979   3.905
 2760TIP3    H1 8157   3.026   1.905   3.847
 2760TIP3    H2 8158   3.023   2.056   3.852
 2761TIP3   OH2 8159   2.357   1.394   3.197
 2761TIP3    H1 8160   2.272   1.435   3.179
 2761TIP3    H2 8161   2.397   1.385   3.111
 2762TIP3   OH2 8162   2.332   1.170   2.902
 2762TIP3    H1 8163   2.392   1.215   2.961
 2762TIP3    H2 8164   2.387   1.108   2.855
 2763TIP3   OH2 8165   3.217   1.636   3.786
 2763TIP3    H1 8166   3.137   1.686   3.777
 2763TIP3    H2 8167   3.266   1.654   3.706
 2764TIP3   OH2 8168   2.706   1.499   3.140
 2764TIP3    H1 8169   2.650   1.522   3.214
 2764TIP3    H2 8170   2.780   1.453   3.179
 2765TIP3   OH2 8171   2.932   1.492   4.098
 2765TIP3    H1 8172   2.932   1.576   4.143
 2765TIP3    H2 8173   2.850   1.490   4.049
 2766TIP3   OH2 8174   1.939   1.460   3.558
 2766TIP3    H1 8175   1.895   1.398   3.499
 2766TIP3    H2 8176   2.009   1.408   3.599
 2767TIP3   OH2 8177   2.069   1.866   3.700
 2767TIP3    H1 8178   2.045   1.856   3.608
 2767TIP3    H2 8179   2.155   1.824   3.706
 2768TIP3   OH2 8180   2.015   1.442   3.927
 2768TIP3    H1 8181   2.055   1.404   3.849
 2768TIP3    H2 8182   2.068   1.519   3.947
 2769TIP3   OH2 8183   2.585   2.068   3.702
 2769TIP3    H1 8184   2.558   2.149   3.745
 2769TIP3    H2 8185   2.569   2.000   3.767
 2770TIP3   OH2 8186   2.164   2.024   4.204
 2770TIP3    H1 8187   2.220   1.999   4.278
 2770TIP3    H2 8188   2.126   1.941   4.175
 2771TIP3   OH2 8189   2.544   1.335   2.991
 2771TIP3    H1 8190   2.602   1.399   3.034
 2771TIP3    H2 8191   2.564   1.343   2.898
 2772TIP3   OH2 8192   1.951   1.547   4.396
 2772TIP3    H1 8193   1.948   1.641   4.413
 2772TIP3    H2 8194   1.859   1.521   4.391
 2773TIP3   OH2 8195   2.308   2.026   3.242
 2773TIP3    H1 8196   2.387   2.079   3.229
 2773TIP3    H2 8197   2.238   2.076   3.201
 2774TIP3   OH2 8198   1.942   2.180   4.339
 2774TIP3    H1 8199   1.988   2.099   4.316
 2774TIP3    H2 8200   1.875   2.152   4.401
 2775TIP3   OH2 8201   3.050   0.562   3.025
 2775TIP3    H1 8202   2.974   0.580   3.080
 2775TIP3    H2 8203   3.058   0.640   2.969
 2776TIP3   OH2 8204   1.797   1.297   3.382
 2776TIP3    H1 8205   1.737   1.355   3.336
 2776TIP3    H2 8206   1.743   1.224   3.412
 2777TIP3   OH2 8207   2.873   1.928   2.591
 2777TIP3    H1 8208   2.859   2.021   2.574
 2777TIP3    H2 8209   2.965   1.913   2.571
 2778TIP3   OH2 8210   1.579   1.706   4.277
 2778TIP3    H1 8211   1.509   1.682   4.217
 2778TIP3    H2 8212   1.613   1.621   4.308
 2779TIP3   OH2 8213   1.414   1.884   3.933
 2779TIP3    H1 8214   1.507   1.904   3.948
 2779TIP3    H2 8215   1.368   1.962   3.966
 2780TIP3   OH2 8216   3.272   2.318   3.983
 2780TIP3    H1 8217   3.276   2.223   3.996
 2780TIP3    H2 8218   3.195   2.346   4.033
 2781TIP3   OH2 8219   2.389   2.140   4.087
 2781TIP3    H1 8220   2.386   2.231   4.117
 2781TIP3    H2 8221   2.307   2.101   4.119
 2782TIP3   OH2 8222   2.150   2.215   3.073
 2782TIP3    H1 8223   2.104   2.206   2.989
 2782TIP3    H2 8224   2.127   2.303   3.103
 2783TIP3   OH2 8225   1.609   2.086   3.440
 2783TIP3    H1 8226   1.647   2.078   3.527
 2783TIP3    H2 8227   1.554   2.008   3.430
 2784TIP3   OH2 8228   2.353   2.140   2.693
 2784TIP3    H1 8229   2.404   2.067   2.658
 2784TIP3    H2 8230   2.377   2.144   2.786
 2785TIP3   OH2 8231   2.386   2.134   2.959
 2785TIP3    H1 8232   2.311   2.165   3.011
 2785TIP3    H2 8233   2.452   2.203   2.969
 2786TIP3   OH2 8234   3.165   1.445   4.262
 2786TIP3    H1 8235   3.086   1.451   4.209
 2786TIP3    H2 8236   3.185   1.351   4.266
 2787TIP3   OH2 8237   1.785   1.884   4.248
 2787TIP3    H1 8238   1.834   1.871   4.330
 2787TIP3    H2 8239   1.711   1.823   4.255
 2788TIP3   OH2 8240   2.162   0.683   4.049
 2788TIP3    H1 8241   2.079   0.654   4.012
 2788TIP3    H2 8242   2.141   0.762   4.098
 2789TIP3   OH2 8243   2.709   0.814   4.268
 2789TIP3    H1 8244   2.778   0.790   4.330
 2789TIP3    H2 8245   2.627   0.799   4.315
 2790TIP3   OH2 8246   2.924   1.227   4.190
 2790TIP3    H1 8247   2.882   1.219   4.276
 2790TIP3    H2 8248   2.908   1.318   4.165
 2791TIP3   OH2 8249   2.597   1.336   2.720
 2791TIP3    H1 8250   2.566   1.326   2.630
 2791TIP3    H2 8251   2.684   1.376   2.711
 2792TIP3   OH2 8252   2.100   1.218   4.067
 2792TIP3    H1 8253   2.055   1.223   4.152
 2792TIP3    H2 8254   2.078   1.300   4.023
 2793TIP3   OH2 8255   1.985   1.101   3.602
 2793TIP3    H1 8256   1.900   1.060   3.621
 2793TIP3    H2 8257   2.000   1.085   3.509
 2794TIP3   OH2 8258   2.476   1.183   3.327
 2794TIP3    H1 8259   2.428   1.257   3.288
 2794TIP3    H2 8260   2.533   1.151   3.257
 2795TIP3   OH2 8261   2.670   1.433   4.395
 2795TIP3    H1 8262   2.632   1.372   4.458
 2795TIP3    H2 8263   2.761   1.443   4.424
 2796TIP3   OH2 8264   2.647   1.188   3.542
 2796TIP3    H1 8265   2.577   1.207   3.480
 2796TIP3    H2 8266   2.692   1.112   3.505
 2797TIP3   OH2 8267   1.940   1.224   4.291
 2797TIP3    H1 8268   2.003   1.278   4.338
 2797TIP3    H2 8269   1.932   1.144   4.344
 2798TIP3   OH2 8270   2.685   1.444   3.971
 2798TIP3    H1 8271   2.708   1.376   3.908
 2798TIP3    H2 8272   2.641   1.398   4.042
 2799TIP3   OH2 8273   2.375   0.908   3.660
 2799TIP3    H1 8274   2.297   0.909   3.716
 2799TIP3    H2 8275   2.446   0.884   3.718
 2800TIP3   OH2 8276   1.775   0.922   3.655
 2800TIP3    H1 8277   1.693   0.888   3.618
 2800TIP3    H2 8278   1.835   0.848   3.651
 2801TIP3   OH2 8279   2.037   1.017   3.348
 2801TIP3    H1 8280   2.131   1.009   3.366
 2801TIP3    H2 8281   2.027   0.984   3.259
 2802TIP3   OH2 8282   2.791   0.974   3.851
 2802TIP3    H1 8283   2.773   0.991   3.943
 2802TIP3    H2 8284   2.726   0.909   3.825
 2803TIP3   OH2 8285   3.001   2.681   4.072
 2803TIP3    H1 8286   2.994   2.698   3.978
 2803TIP3    H2 8287   3.081   2.726   4.099
 2804TIP3   OH2 8288   1.931   1.815   4.480
 2804TIP3    H1 8289   2.014   1.824   4.526
 2804TIP3    H2 8290   1.865   1.818   4.549
 2805TIP3   OH2 8291   2.395   1.259   3.758
 2805TIP3    H1 8292   2.454   1.200   3.711
 2805TIP3    H2 8293   2.392   1.224   3.847
 2806TIP3   OH2 8294   1.985   0.725   3.615
 2806TIP3    H1 8295   2.060   0.672   3.641
 2806TIP3    H2 8296   1.987   0.724   3.519
 2807TIP3   OH2 8297   2.370   1.175   4.023
 2807TIP3    H1 8298   2.281   1.203   4.044
 2807TIP3    H2 8299   2.426   1.231   4.077
 2808TIP3   OH2 8300   2.124   1.538   3.139
 2808TIP3    H1 8301   2.067   1.461   3.134
 2808TIP3    H2 8302   2.102   1.579   3.222
 2809TIP3   OH2 8303   2.984   1.774   3.728
 2809TIP3    H1 8304   2.979   1.809   3.639
 2809TIP3    H2 8305   2.912   1.711   3.733
 2810TIP3   OH2 8306   2.567   0.858   3.039
 2810TIP3    H1 8307   2.483   0.864   2.992
 2810TIP3    H2 8308   2.591   0.949   3.056
 2811TIP3   OH2 8309   2.482   1.879   4.133
 2811TIP3    H1 8310   2.453   1.860   4.222
 2811TIP3    H2 8311   2.457   1.971   4.119
 2812TIP3   OH2 8312   2.646   1.109   3.117
 2812TIP3    H1 8313   2.740   1.112   3.130
 2812TIP3    H2 8314   2.626   1.187   3.065
 2813TIP3   OH2 8315   1.792   1.531   3.778
 2813TIP3    H1 8316   1.835   1.516   3.694
 2813TIP3    H2 8317   1.855   1.500   3.843
 2814TIP3   OH2 8318   2.282   1.692   2.971
 2814TIP3    H1 8319   2.231   1.773   2.976
 2814TIP3    H2 8320   2.231   1.629   3.022
 2815TIP3   OH2 8321   1.679   1.481   4.411
 2815TIP3    H1 8322   1.677   1.450   4.502
 2815TIP3    H2 8323   1.608   1.432   4.368
 2816TIP3   OH2 8324   2.660   2.150   4.022
 2816TIP3    H1 8325   2.565   2.140   4.024
 2816TIP3    H2 8326   2.684   2.177   4.111
 2817TIP3   OH2 8327   3.036   1.193   2.929
 2817TIP3    H1 8328   2.978   1.151   2.866
 2817TIP3    H2 8329   3.045   1.283   2.899
 2818TIP3   OH2 8330   3.295   2.032   3.988
 2818TIP3    H1 8331   3.201   2.021   3.977
 2818TIP3    H2 8332   3.333   2.007   3.904
 2819TIP3   OH2 8333   2.800   1.965   2.861
 2819TIP3    H1 8334   2.771   1.880   2.892
 2819TIP3    H2 8335   2.823   1.951   2.769
 2820TIP3   OH2 8336   2.757   1.612   3.663
 2820TIP3    H1 8337   2.668   1.588   3.687
 2820TIP3    H2 8338   2.794   1.534   3.623
 2821TIP3   OH2 8339   1.919   1.879   3.457
 2821TIP3    H1 8340   1.916   1.957   3.401
 2821TIP3    H2 8341   1.828   1.863   3.480
 2822TIP3   OH2 8342   2.031   1.642   3.369
 2822TIP3    H1 8343   1.999   1.728   3.397
 2822TIP3    H2 8344   2.000   1.582   3.437
 2823TIP3   OH2 8345   1.849   2.113   3.311
 2823TIP3    H1 8346   1.760   2.112   3.344
 2823TIP3    H2 8347   1.880   2.202   3.325
 2824TIP3   OH2 8348   2.559   1.848   3.875
 2824TIP3    H1 8349   2.535   1.855   3.967
 2824TIP3    H2 8350   2.624   1.778   3.872
 2825TIP3   OH2 8351   2.558   1.719   2.766
 2825TIP3    H1 8352   2.617   1.713   2.841
 2825TIP3    H2 8353   2.472   1.694   2.801
 2826TIP3   OH2 8354   2.803   2.366   3.917
 2826TIP3    H1 8355   2.738   2.297   3.934
 2826TIP3    H2 8356   2.769   2.413   3.841
 2827TIP3   OH2 8357   2.847   2.201   2.565
 2827TIP3    H1 8358   2.852   2.261   2.491
 2827TIP3    H2 8359   2.781   2.240   2.623
 2828TIP3   OH2 8360   1.937   0.978   4.431
 2828TIP3    H1 8361   1.841   0.970   4.426
 2828TIP3    H2 8362   1.962   0.920   4.503
 2829TIP3   OH2 8363   2.752   1.706   2.969
 2829TIP3    H1 8364   2.724   1.633   3.025
 2829TIP3    H2 8365   2.846   1.692   2.957
 2830TIP3   OH2 8366   1.652   2.074   4.082
 2830TIP3    H1 8367   1.696   2.007   4.134
 2830TIP3    H2 8368   1.654   2.152   4.137
 2831TIP3   OH2 8369   1.885   1.705   2.771
 2831TIP3    H1 8370   1.904   1.615   2.747
 2831TIP3    H2 8371   1.888   1.706   2.867
 2832TIP3   OH2 8372   1.877   1.716   3.042
 2832TIP3    H1 8373   1.946   1.683   3.100
 2832TIP3    H2 8374   1.875   1.810   3.059
 2833TIP3   OH2 8375   1.621   1.451   3.246
 2833TIP3    H1 8376   1.556   1.497   3.298
 2833TIP3    H2 8377   1.621   1.496   3.162
 2834TIP3   OH2 8378   2.738   1.038   4.111
 2834TIP3    H1 8379   2.813   1.087   4.146
 2834TIP3    H2 8380   2.728   0.964   4.171
 2835TIP3   OH2 8381   2.625   0.785   3.300
 2835TIP3    H1 8382   2.598   0.808   3.211
 2835TIP3    H2 8383   2.672   0.862   3.331
 2836TIP3   OH2 8384   2.127   1.911   2.980
 2836TIP3    H1 8385   2.042   1.938   3.013
 2836TIP3    H2 8386   2.167   1.992   2.947
 2837TIP3   OH2 8387   2.303   0.986   3.407
 2837TIP3    H1 8388   2.364   1.055   3.379
 2837TIP3    H2 8389   2.329   0.966   3.497
 2838TIP3   OH2 8390   2.580   1.291   4.171
 2838TIP3    H1 8391   2.606   1.335   4.252
 2838TIP3    H2 8392   2.623   1.205   4.176
 2839TIP3   OH2 8393   2.448   0.686   3.490
 2839TIP3    H1 8394   2.436   0.764   3.544
 2839TIP3    H2 8395   2.514   0.711   3.425
 2840TIP3   OH2 8396   1.876   1.992   3.062
 2840TIP3    H1 8397   1.845   2.057   2.999
 2840TIP3    H2 8398   1.866   2.035   3.147
 2841TIP3   OH2 8399   3.185   1.164   4.159
 2841TIP3    H1 8400   3.092   1.179   4.172
 2841TIP3    H2 8401   3.190   1.102   4.087
 2842TIP3   OH2 8402   2.861   1.377   3.549
 2842TIP3    H1 8403   2.788   1.315   3.553
 2842TIP3    H2 8404   2.930   1.336   3.602
 2843TIP3   OH2 8405   1.620   1.619   3.022
 2843TIP3    H1 8406   1.709   1.650   3.036
 2843TIP3    H2 8407   1.588   1.669   2.946
 2844TIP3   OH2 8408   2.834   2.355   3.471
 2844TIP3    H1 8409   2.793   2.415   3.410
 2844TIP3    H2 8410   2.928   2.370   3.461
 2845TIP3   OH2 8411   1.899   0.613   3.970
 2845TIP3    H1 8412   1.893   0.586   3.878
 2845TIP3    H2 8413   1.885   0.533   4.020
 2846TIP3   OH2 8414   1.420   1.882   3.430
 2846TIP3    H1 8415   1.387   1.916   3.514
 2846TIP3    H2 8416   1.359   1.917   3.365
 2847TIP3   OH2 8417   1.620   2.387   4.486
 2847TIP3    H1 8418   1.698   2.391   4.541
 2847TIP3    H2 8419   1.599   2.294   4.480
 2848TIP3   OH2 8420   2.068   2.327   4.538
 2848TIP3    H1 8421   2.147   2.278   4.563
 2848TIP3    H2 8422   2.035   2.281   4.461
 2849TIP3   OH2 8423   2.058   1.887   2.661
 2849TIP3    H1 8424   1.991   1.834   2.703
 2849TIP3    H2 8425   2.136   1.832   2.662
 2850TIP3   OH2 8426   2.739   2.218   4.276
 2850TIP3    H1 8427   2.793   2.144   4.302
 2850TIP3    H2 8428   2.790   2.296   4.299
 2851TIP3   OH2 8429   2.488   1.926   2.598
 2851TIP3    H1 8430   2.522   1.862   2.661
 2851TIP3    H2 8431   2.559   1.936   2.533
 2852TIP3   OH2 8432   1.731   1.795   4.674
 2852TIP3    H1 8433   1.750   1.702   4.684
 2852TIP3    H2 8434   1.646   1.798   4.630
 2853TIP3   OH2 8435   2.239   1.663   2.694
 2853TIP3    H1 8436   2.246   1.683   2.787
 2853TIP3    H2 8437   2.255   1.569   2.689
 2854TIP3   OH2 8438   2.835   1.931   4.084
 2854TIP3    H1 8439   2.908   1.954   4.026
 2854TIP3    H2 8440   2.764   1.987   4.055
 2855TIP3   OH2 8441   1.851   1.545   4.683
 2855TIP3    H1 8442   1.925   1.522   4.627
 2855TIP3    H2 8443   1.889   1.560   4.770
 2856TIP3   OH2 8444   1.966   1.318   3.161
 2856TIP3    H1 8445   1.920   1.309   3.244
 2856TIP3    H2 8446   1.926   1.252   3.104
 2857TIP3   OH2 8447   2.162   1.384   4.336
 2857TIP3    H1 8448   2.100   1.453   4.358
 2857TIP3    H2 8449   2.215   1.421   4.265
 2858TIP3   OH2 8450   2.712   1.830   4.493
 2858TIP3    H1 8451   2.783   1.823   4.429
 2858TIP3    H2 8452   2.723   1.754   4.550
 2859TIP3   OH2 8453   2.825   1.460   2.616
 2859TIP3    H1 8454   2.827   1.411   2.534
 2859TIP3    H2 8455   2.795   1.547   2.591
 2860TIP3   OH2 8456   2.319   1.188   4.443
 2860TIP3    H1 8457   2.322   1.114   4.382
 2860TIP3    H2 8458   2.268   1.254   4.397
 2861TIP3   OH2 8459   2.324   0.993   4.239
 2861TIP3    H1 8460   2.350   1.034   4.157
 2861TIP3    H2 8461   2.235   0.961   4.223
 2862TIP3   OH2 8462   2.310   1.486   4.130
 2862TIP3    H1 8463   2.401   1.516   4.133
 2862TIP3    H2 8464   2.265   1.553   4.077
 2863TIP3   OH2 8465   2.932   1.445   4.508
 2863TIP3    H1 8466   2.964   1.356   4.524
 2863TIP3    H2 8467   3.008   1.493   4.476
 2864TIP3   OH2 8468   2.967   1.738   4.225
 2864TIP3    H1 8469   2.911   1.802   4.181
 2864TIP3    H2 8470   3.055   1.757   4.192
 2865TIP3   OH2 8471   2.213   1.284   4.687
 2865TIP3    H1 8472   2.147   1.219   4.711
 2865TIP3    H2 8473   2.239   1.260   4.598
 2866TIP3   OH2 8474   2.446   0.769   4.349
 2866TIP3    H1 8475   2.407   0.849   4.313
 2866TIP3    H2 8476   2.382   0.700   4.328
 2867TIP3   OH2 8477   2.567   1.234   4.555
 2867TIP3    H1 8478   2.552   1.216   4.648
 2867TIP3    H2 8479   2.483   1.214   4.513
 2868TIP3   OH2 8480   2.805   1.165   4.424
 2868TIP3    H1 8481   2.727   1.175   4.478
 2868TIP3    H2 8482   2.875   1.147   4.487
 2869TIP3   OH2 8483   3.044   1.155   4.575
 2869TIP3    H1 8484   3.061   1.061   4.578
 2869TIP3    H2 8485   3.044   1.182   4.666
 2870TIP3   OH2 8486   2.057   1.068   4.751
 2870TIP3    H1 8487   2.043   0.979   4.718
 2870TIP3    H2 8488   2.083   1.055   4.842
 2871TIP3   OH2 8489   2.505   0.736   4.614
 2871TIP3    H1 8490   2.574   0.670   4.606
 2871TIP3    H2 8491   2.477   0.751   4.523
 2872TIP3   OH2 8492   2.606   0.948   4.759
 2872TIP3    H1 8493   2.574   0.876   4.704
 2872TIP3    H2 8494   2.534   1.010   4.762
 2873TIP3   OH2 8495   1.843   2.191   2.869
 2873TIP3    H1 8496   1.932   2.175   2.839
 2873TIP3    H2 8497   1.802   2.240   2.797
 2874TIP3   OH2 8498   1.233   2.173   3.503
 2874TIP3    H1 8499   1.165   2.119   3.462
 2874TIP3    H2 8500   1.274   2.117   3.567
 2875TIP3   OH2 8501   1.364   2.002   3.677
 2875TIP3    H1 8502   1.355   1.932   3.741
 2875TIP3    H2 8503   1.419   2.067   3.720
 2876TIP3   OH2 8504   3.107   2.399   3.484
 2876TIP3    H1 8505   3.123   2.423   3.575
 2876TIP3    H2 8506   3.155   2.466   3.433
 2877TIP3   OH2 8507   3.119   2.433   3.764
 2877TIP3    H1 8508   3.071   2.350   3.760
 2877TIP3    H2 8509   3.189   2.417   3.827
 2878TIP3   OH2 8510   3.169   2.138   4.333
 2878TIP3    H1 8511   3.100   2.145   4.399
 2878TIP3    H2 8512   3.220   2.219   4.342
 2879TIP3   OH2 8513   3.025   1.663   2.962
 2879TIP3    H1 8514   3.075   1.730   2.917
 2879TIP3    H2 8515   3.087   1.623   3.022
 2880TIP3   OH2 8516   3.082   1.890   3.384
 2880TIP3    H1 8517   3.151   1.829   3.408
 2880TIP3    H2 8518   3.120   1.977   3.396
 2881TIP3   OH2 8519   2.969   2.200   3.761
 2881TIP3    H1 8520   2.904   2.246   3.813
 2881TIP3    H2 8521   2.920   2.165   3.687
 2882TIP3   OH2 8522   3.022   1.434   2.804
 2882TIP3    H1 8523   2.950   1.440   2.741
 2882TIP3    H2 8524   3.016   1.513   2.856
 2883TIP3   OH2 8525   2.878   1.101   2.724
 2883TIP3    H1 8526   2.898   1.110   2.630
 2883TIP3    H2 8527   2.859   1.008   2.735
 2884TIP3   OH2 8528   2.898   1.360   3.272
 2884TIP3    H1 8529   2.923   1.269   3.258
 2884TIP3    H2 8530   2.898   1.371   3.367
 2885TIP3   OH2 8531   1.547   1.447   4.028
 2885TIP3    H1 8532   1.538   1.407   3.941
 2885TIP3    H2 8533   1.638   1.432   4.052
 2886TIP3   OH2 8534   3.225   1.789   4.137
 2886TIP3    H1 8535   3.281   1.713   4.121
 2886TIP3    H2 8536   3.254   1.855   4.074
 2887TIP3   OH2 8537   3.375   1.559   4.125
 2887TIP3    H1 8538   3.302   1.518   4.173
 2887TIP3    H2 8539   3.451   1.505   4.147
 2888TIP3   OH2 8540   2.817   0.840   2.778
 2888TIP3    H1 8541   2.907   0.810   2.793
 2888TIP3    H2 8542   2.763   0.786   2.834
 2889TIP3   OH2 8543   2.928   1.093   3.167
 2889TIP3    H1 8544   2.971   1.008   3.178
 2889TIP3    H2 8545   2.968   1.130   3.089
 2890TIP3   OH2 8546   3.073   1.258   3.690
 2890TIP3    H1 8547   3.154   1.277   3.644
 2890TIP3    H2 8548   3.085   1.296   3.777
 2891TIP3   OH2 8549   3.146   1.405   3.918
 2891TIP3    H1 8550   3.076   1.432   3.977
 2891TIP3    H2 8551   3.175   1.486   3.875
 2892TIP3   OH2 8552   1.802   1.160   4.681
 2892TIP3    H1 8553   1.898   1.163   4.680
 2892TIP3    H2 8554   1.781   1.081   4.730
 2893TIP3   OH2 8555   3.596   1.016   4.448
 2893TIP3    H1 8556   3.666   0.956   4.422
 2893TIP3    H2 8557   3.568   1.057   4.367
 2894TIP3   OH2 8558   3.036   0.844   3.214
 2894TIP3    H1 8559   3.085   0.830   3.295
 2894TIP3    H2 8560   2.975   0.770   3.210
 2895TIP3   OH2 8561   1.734   0.821   4.062
 2895TIP3    H1 8562   1.789   0.745   4.043
 2895TIP3    H2 8563   1.787   0.896   4.038
 2896TIP3   OH2 8564   1.528   1.118   4.069
 2896TIP3    H1 8565   1.581   1.108   3.990
 2896TIP3    H2 8566   1.579   1.176   4.125
 2897TIP3   OH2 8567   3.454   1.120   4.240
 2897TIP3    H1 8568   3.371   1.158   4.270
 2897TIP3    H2 8569   3.429   1.041   4.193
 2898TIP3   OH2 8570   3.078   0.766   2.829
 2898TIP3    H1 8571   3.126   0.717   2.763
 2898TIP3    H2 8572   3.135   0.841   2.850
 2899TIP3   OH2 8573   1.783   0.721   4.376
 2899TIP3    H1 8574   1.712   0.753   4.431
 2899TIP3    H2 8575   1.741   0.656   4.319
 2900TIP3   OH2 8576   1.757   2.112   4.534
 2900TIP3    H1 8577   1.663   2.096   4.519
 2900TIP3    H2 8578   1.769   2.094   4.627
 2901TIP3   OH2 8579   2.001   2.153   4.017
 2901TIP3    H1 8580   1.950   2.210   4.074
 2901TIP3    H2 8581   2.067   2.114   4.075
 2902TIP3   OH2 8582   2.407   2.392   4.204
 2902TIP3    H1 8583   2.458   2.350   4.274
 2902TIP3    H2 8584   2.471   2.443   4.155
 2903TIP3   OH2 8585   2.617   2.519   4.083
 2903TIP3    H1 8586   2.688   2.479   4.034
 2903TIP3    H2 8587   2.657   2.594   4.127
 2904TIP3   OH2 8588   3.370   0.869   4.149
 2904TIP3    H1 8589   3.284   0.863   4.107
 2904TIP3    H2 8590   3.404   0.780   4.146
 2905TIP3   OH2 8591   1.666   2.425   4.094
 2905TIP3    H1 8592   1.573   2.433   4.077
 2905TIP3    H2 8593   1.683   2.485   4.167
 2906TIP3   OH2 8594   1.842   2.394   3.888
 2906TIP3    H1 8595   1.781   2.414   3.960
 2906TIP3    H2 8596   1.842   2.298   3.883
 2907TIP3   OH2 8597   2.535   2.332   3.769
 2907TIP3    H1 8598   2.461   2.382   3.803
 2907TIP3    H2 8599   2.590   2.397   3.726
 2908TIP3   OH2 8600   2.736   2.505   3.682
 2908TIP3    H1 8601   2.732   2.594   3.649
 2908TIP3    H2 8602   2.767   2.453   3.608
 2909TIP3   OH2 8603   1.544   2.149   3.839
 2909TIP3    H1 8604   1.585   2.128   3.923
 2909TIP3    H2 8605   1.613   2.133   3.774
 2910TIP3   OH2 8606   1.744   2.056   3.677
 2910TIP3    H1 8607   1.752   1.970   3.717
 2910TIP3    H2 8608   1.832   2.093   3.683
 2911TIP3   OH2 8609   2.004   2.135   3.739
 2911TIP3    H1 8610   2.040   2.049   3.719
 2911TIP3    H2 8611   2.014   2.144   3.834
 2912TIP3   OH2 8612   2.587   0.785   3.788
 2912TIP3    H1 8613   2.538   0.714   3.829
 2912TIP3    H2 8614   2.654   0.740   3.735
 2913TIP3   OH2 8615   3.087   0.719   3.664
 2913TIP3    H1 8616   3.122   0.771   3.591
 2913TIP3    H2 8617   2.993   0.735   3.661
 2914TIP3   OH2 8618   3.206   0.802   3.426
 2914TIP3    H1 8619   3.271   0.736   3.401
 2914TIP3    H2 8620   3.250   0.886   3.411
 2915TIP3   OH2 8621   2.232   0.619   3.677
 2915TIP3    H1 8622   2.299   0.626   3.609
 2915TIP3    H2 8623   2.280   0.599   3.757
 2916TIP3   OH2 8624   2.799   0.670   3.646
 2916TIP3    H1 8625   2.808   0.628   3.561
 2916TIP3    H2 8626   2.805   0.597   3.709
 2917TIP3   OH2 8627   2.849   0.636   3.208
 2917TIP3    H1 8628   2.770   0.686   3.227
 2917TIP3    H2 8629   2.837   0.553   3.253
 2918TIP3   OH2 8630   1.256   1.960   3.220
 2918TIP3    H1 8631   1.257   1.897   3.148
 2918TIP3    H2 8632   1.276   2.044   3.179
 2919TIP3   OH2 8633   2.228   0.737   3.314
 2919TIP3    H1 8634   2.299   0.687   3.355
 2919TIP3    H2 8635   2.250   0.829   3.331
 2920TIP3   OH2 8636   2.097   2.131   2.792
 2920TIP3    H1 8637   2.181   2.158   2.755
 2920TIP3    H2 8638   2.075   2.050   2.747
 2921TIP3   OH2 8639   2.855   2.235   2.912
 2921TIP3    H1 8640   2.835   2.143   2.894
 2921TIP3    H2 8641   2.771   2.275   2.933
 2922TIP3   OH2 8642   2.062   0.796   4.664
 2922TIP3    H1 8643   2.030   0.733   4.729
 2922TIP3    H2 8644   2.154   0.810   4.688
 2923TIP3   OH2 8645   2.307   0.797   4.799
 2923TIP3    H1 8646   2.378   0.772   4.741
 2923TIP3    H2 8647   2.310   0.733   4.870
 2924TIP3   OH2 8648   1.431   2.008   2.838
 2924TIP3    H1 8649   1.418   2.028   2.930
 2924TIP3    H2 8650   1.503   1.944   2.837
 2925TIP3   OH2 8651   3.114   0.885   4.576
 2925TIP3    H1 8652   3.131   0.855   4.665
 2925TIP3    H2 8653   3.199   0.878   4.532
 2926TIP3   OH2 8654   3.027   2.406   4.084
 2926TIP3    H1 8655   2.953   2.381   4.029
 2926TIP3    H2 8656   3.023   2.502   4.088
 2927TIP3   OH2 8657   4.311   1.806   2.820
 2927TIP3    H1 8658   4.268   1.887   2.793
 2927TIP3    H2 8659   4.245   1.738   2.807
 2928TIP3   OH2 8660   4.309   1.790   3.251
 2928TIP3    H1 8661   4.367   1.771   3.324
 2928TIP3    H2 8662   4.268   1.705   3.230
 2929TIP3   OH2 8663   3.600   1.660   3.602
 2929TIP3    H1 8664   3.636   1.599   3.667
 2929TIP3    H2 8665   3.673   1.675   3.541
 2930TIP3   OH2 8666   4.579   2.097   2.915
 2930TIP3    H1 8667   4.566   2.027   2.980
 2930TIP3    H2 8668   4.597   2.175   2.966
 2931TIP3   OH2 8669   3.602   2.075   3.273
 2931TIP3    H1 8670   3.584   1.981   3.277
 2931TIP3    H2 8671   3.697   2.081   3.278
 2932TIP3   OH2 8672   3.246   1.350   3.061
 2932TIP3    H1 8673   3.264   1.326   3.152
 2932TIP3    H2 8674   3.191   1.279   3.028
 2933TIP3   OH2 8675   3.354   1.610   3.311
 2933TIP3    H1 8676   3.392   1.524   3.325
 2933TIP3    H2 8677   3.421   1.659   3.263
 2934TIP3   OH2 8678   4.240   2.511   2.942
 2934TIP3    H1 8679   4.259   2.446   2.874
 2934TIP3    H2 8680   4.257   2.465   3.024
 2935TIP3   OH2 8681   4.119   2.002   3.262
 2935TIP3    H1 8682   4.168   1.924   3.236
 2935TIP3    H2 8683   4.187   2.064   3.290
 2936TIP3   OH2 8684   5.138   1.334   3.268
 2936TIP3    H1 8685   5.159   1.411   3.320
 2936TIP3    H2 8686   5.140   1.365   3.177
 2937TIP3   OH2 8687   4.542   1.487   3.299
 2937TIP3    H1 8688   4.588   1.408   3.326
 2937TIP3    H2 8689   4.502   1.465   3.215
 2938TIP3   OH2 8690   3.866   1.187   3.216
 2938TIP3    H1 8691   3.843   1.221   3.129
 2938TIP3    H2 8692   3.819   1.104   3.222
 2939TIP3   OH2 8693   4.575   1.254   2.887
 2939TIP3    H1 8694   4.640   1.252   2.957
 2939TIP3    H2 8695   4.621   1.291   2.812
 2940TIP3   OH2 8696   3.484   1.367   3.374
 2940TIP3    H1 8697   3.573   1.355   3.407
 2940TIP3    H2 8698   3.476   1.303   3.303
 2941TIP3   OH2 8699   3.927   1.553   3.187
 2941TIP3    H1 8700   4.022   1.555   3.196
 2941TIP3    H2 8701   3.907   1.466   3.152
 2942TIP3   OH2 8702   5.205   1.549   3.430
 2942TIP3    H1 8703   5.115   1.582   3.429
 2942TIP3    H2 8704   5.243   1.585   3.510
 2943TIP3   OH2 8705   3.854   1.163   3.684
 2943TIP3    H1 8706   3.804   1.200   3.610
 2943TIP3    H2 8707   3.798   1.177   3.760
 2944TIP3   OH2 8708   4.156   1.997   2.696
 2944TIP3    H1 8709   4.138   1.977   2.604
 2944TIP3    H2 8710   4.119   2.084   2.709
 2945TIP3   OH2 8711   3.953   1.920   3.469
 2945TIP3    H1 8712   3.900   1.994   3.499
 2945TIP3    H2 8713   4.007   1.957   3.398
 2946TIP3   OH2 8714   4.759   1.284   3.080
 2946TIP3    H1 8715   4.820   1.213   3.101
 2946TIP3    H2 8716   4.800   1.362   3.117
 2947TIP3   OH2 8717   3.741   1.274   3.451
 2947TIP3    H1 8718   3.798   1.345   3.479
 2947TIP3    H2 8719   3.781   1.241   3.371
 2948TIP3   OH2 8720   3.797   2.133   3.562
 2948TIP3    H1 8721   3.786   2.224   3.532
 2948TIP3    H2 8722   3.718   2.115   3.612
 2949TIP3   OH2 8723   3.174   1.849   2.822
 2949TIP3    H1 8724   3.150   1.863   2.731
 2949TIP3    H2 8725   3.195   1.936   2.856
 2950TIP3   OH2 8726   4.603   2.344   3.062
 2950TIP3    H1 8727   4.513   2.337   3.095
 2950TIP3    H2 8728   4.605   2.427   3.014
 2951TIP3   OH2 8729   4.922   1.222   3.440
 2951TIP3    H1 8730   4.832   1.232   3.409
 2951TIP3    H2 8731   4.976   1.245   3.364
 2952TIP3   OH2 8732   4.190   0.844   3.436
 2952TIP3    H1 8733   4.183   0.752   3.461
 2952TIP3    H2 8734   4.110   0.884   3.472
 2953TIP3   OH2 8735   4.310   2.350   2.727
 2953TIP3    H1 8736   4.361   2.271   2.711
 2953TIP3    H2 8737   4.365   2.421   2.694
 2954TIP3   OH2 8738   4.471   2.143   2.664
 2954TIP3    H1 8739   4.485   2.067   2.606
 2954TIP3    H2 8740   4.513   2.118   2.747
 2955TIP3   OH2 8741   4.846   2.230   3.400
 2955TIP3    H1 8742   4.827   2.155   3.343
 2955TIP3    H2 8743   4.833   2.307   3.344
 2956TIP3   OH2 8744   4.132   1.633   2.686
 2956TIP3    H1 8745   4.051   1.678   2.662
 2956TIP3    H2 8746   4.182   1.629   2.604
 2957TIP3   OH2 8747   4.106   1.457   2.364
 2957TIP3    H1 8748   4.168   1.500   2.423
 2957TIP3    H2 8749   4.158   1.392   2.317
 2958TIP3   OH2 8750   5.025   1.895   3.277
 2958TIP3    H1 8751   4.940   1.938   3.272
 2958TIP3    H2 8752   5.062   1.905   3.189
 2959TIP3   OH2 8753   4.501   1.731   2.640
 2959TIP3    H1 8754   4.446   1.759   2.713
 2959TIP3    H2 8755   4.582   1.700   2.681
 2960TIP3   OH2 8756   4.725   1.751   3.585
 2960TIP3    H1 8757   4.721   1.835   3.630
 2960TIP3    H2 8758   4.645   1.748   3.532
 2961TIP3   OH2 8759   3.729   1.691   3.038
 2961TIP3    H1 8760   3.692   1.630   2.974
 2961TIP3    H2 8761   3.801   1.643   3.078
 2962TIP3   OH2 8762   3.871   2.119   3.193
 2962TIP3    H1 8763   3.846   2.092   3.105
 2962TIP3    H2 8764   3.958   2.080   3.206
 2963TIP3   OH2 8765   3.812   1.691   3.407
 2963TIP3    H1 8766   3.853   1.653   3.329
 2963TIP3    H2 8767   3.864   1.769   3.426
 2964TIP3   OH2 8768   4.355   2.340   3.179
 2964TIP3    H1 8769   4.350   2.420   3.232
 2964TIP3    H2 8770   4.346   2.269   3.242
 2965TIP3   OH2 8771   3.993   2.234   3.734
 2965TIP3    H1 8772   3.930   2.288   3.781
 2965TIP3    H2 8773   3.939   2.181   3.675
 2966TIP3   OH2 8774   4.329   1.577   2.491
 2966TIP3    H1 8775   4.387   1.632   2.543
 2966TIP3    H2 8776   4.358   1.590   2.401
 2967TIP3   OH2 8777   3.758   1.806   3.881
 2967TIP3    H1 8778   3.754   1.900   3.898
 2967TIP3    H2 8779   3.666   1.780   3.871
 2968TIP3   OH2 8780   4.054   2.260   2.689
 2968TIP3    H1 8781   4.143   2.283   2.714
 2968TIP3    H2 8782   4.013   2.344   2.666
 2969TIP3   OH2 8783   3.778   2.388   3.819
 2969TIP3    H1 8784   3.757   2.400   3.727
 2969TIP3    H2 8785   3.692   2.379   3.862
 2970TIP3   OH2 8786   4.776   0.792   2.454
 2970TIP3    H1 8787   4.723   0.806   2.532
 2970TIP3    H2 8788   4.818   0.876   2.438
 2971TIP3   OH2 8789   3.622   1.518   2.847
 2971TIP3    H1 8790   3.527   1.512   2.834
 2971TIP3    H2 8791   3.649   1.429   2.869
 2972TIP3   OH2 8792   4.662   2.186   2.079
 2972TIP3    H1 8793   4.655   2.278   2.055
 2972TIP3    H2 8794   4.753   2.163   2.059
 2973TIP3   OH2 8795   3.398   1.924   3.755
 2973TIP3    H1 8796   3.367   1.878   3.677
 2973TIP3    H2 8797   3.432   1.855   3.812
 2974TIP3   OH2 8798   3.197   2.141   3.418
 2974TIP3    H1 8799   3.289   2.149   3.444
 2974TIP3    H2 8800   3.156   2.222   3.448
 2975TIP3   OH2 8801   5.074   2.595   3.470
 2975TIP3    H1 8802   5.080   2.500   3.483
 2975TIP3    H2 8803   4.995   2.621   3.518
 2976TIP3   OH2 8804   4.181   2.382   3.598
 2976TIP3    H1 8805   4.172   2.472   3.629
 2976TIP3    H2 8806   4.115   2.333   3.647
 2977TIP3   OH2 8807   3.963   2.483   2.562
 2977TIP3    H1 8808   3.928   2.466   2.474
 2977TIP3    H2 8809   3.942   2.575   2.579
 2978TIP3   OH2 8810   3.400   2.335   2.922
 2978TIP3    H1 8811   3.449   2.324   3.004
 2978TIP3    H2 8812   3.351   2.254   2.912
 2979TIP3   OH2 8813   4.145   2.410   2.185
 2979TIP3    H1 8814   4.199   2.339   2.149
 2979TIP3    H2 8815   4.184   2.429   2.270
 2980TIP3   OH2 8816   4.219   2.464   2.445
 2980TIP3    H1 8817   4.143   2.454   2.502
 2980TIP3    H2 8818   4.294   2.458   2.505
 2981TIP3   OH2 8819   4.969   1.697   3.735
 2981TIP3    H1 8820   4.885   1.709   3.690
 2981TIP3    H2 8821   4.985   1.603   3.732
 2982TIP3   OH2 8822   3.574   2.138   3.729
 2982TIP3    H1 8823   3.624   2.131   3.810
 2982TIP3    H2 8824   3.510   2.067   3.734
 2983TIP3   OH2 8825   3.950   0.938   3.552
 2983TIP3    H1 8826   3.866   0.906   3.519
 2983TIP3    H2 8827   3.929   1.021   3.594
 2984TIP3   OH2 8828   4.498   1.067   3.757
 2984TIP3    H1 8829   4.570   1.041   3.815
 2984TIP3    H2 8830   4.419   1.046   3.806
 2985TIP3   OH2 8831   4.715   1.488   3.678
 2985TIP3    H1 8832   4.681   1.486   3.767
 2985TIP3    H2 8833   4.704   1.578   3.649
 2986TIP3   OH2 8834   4.414   1.613   2.240
 2986TIP3    H1 8835   4.368   1.602   2.156
 2986TIP3    H2 8836   4.501   1.646   2.215
 2987TIP3   OH2 8837   4.105   1.003   2.545
 2987TIP3    H1 8838   4.071   1.020   2.633
 2987TIP3    H2 8839   4.066   0.919   2.521
 2988TIP3   OH2 8840   3.901   1.474   3.553
 2988TIP3    H1 8841   3.859   1.481   3.639
 2988TIP3    H2 8842   3.875   1.554   3.507
 2989TIP3   OH2 8843   4.289   1.454   2.823
 2989TIP3    H1 8844   4.223   1.510   2.783
 2989TIP3    H2 8845   4.322   1.400   2.752
 2990TIP3   OH2 8846   4.446   1.694   3.883
 2990TIP3    H1 8847   4.419   1.625   3.944
 2990TIP3    H2 8848   4.538   1.709   3.902
 2991TIP3   OH2 8849   4.432   1.438   3.053
 2991TIP3    H1 8850   4.373   1.462   2.981
 2991TIP3    H2 8851   4.479   1.360   3.021
 2992TIP3   OH2 8852   3.729   1.481   3.774
 2992TIP3    H1 8853   3.797   1.526   3.824
 2992TIP3    H2 8854   3.713   1.400   3.823
 2993TIP3   OH2 8855   3.747   0.976   2.497
 2993TIP3    H1 8856   3.741   0.979   2.593
 2993TIP3    H2 8857   3.669   1.022   2.467
 2994TIP3   OH2 8858   3.342   1.031   3.369
 2994TIP3    H1 8859   3.400   1.057   3.440
 2994TIP3    H2 8860   3.380   1.071   3.291
 2995TIP3   OH2 8861   3.227   0.999   2.871
 2995TIP3    H1 8862   3.280   1.036   2.800
 2995TIP3    H2 8863   3.168   1.070   2.896
 2996TIP3   OH2 8864   4.476   1.696   3.458
 2996TIP3    H1 8865   4.506   1.627   3.399
 2996TIP3    H2 8866   4.430   1.649   3.527
 2997TIP3   OH2 8867   4.142   1.108   3.161
 2997TIP3    H1 8868   4.055   1.138   3.188
 2997TIP3    H2 8869   4.201   1.145   3.226
 2998TIP3   OH2 8870   3.488   1.177   3.174
 2998TIP3    H1 8871   3.494   1.218   3.088
 2998TIP3    H2 8872   3.560   1.114   3.176
 2999TIP3   OH2 8873   4.631   1.237   3.389
 2999TIP3    H1 8874   4.582   1.257   3.469
 2999TIP3    H2 8875   4.575   1.176   3.341
 3000TIP3   OH2 8876   3.551   1.291   2.564
 3000TIP3    H1 8877   3.553   1.230   2.490
 3000TIP3    H2 8878   3.643   1.312   2.579
 3001TIP3   OH2 8879   4.789   2.939   3.563
 3001TIP3    H1 8880   4.787   2.952   3.468
 3001TIP3    H2 8881   4.869   2.982   3.591
 3002TIP3   OH2 8882   3.724   2.069   3.968
 3002TIP3    H1 8883   3.806   2.083   4.015
 3002TIP3    H2 8884   3.656   2.075   4.036
 3003TIP3   OH2 8885   4.204   1.524   3.236
 3003TIP3    H1 8886   4.270   1.480   3.184
 3003TIP3    H2 8887   4.202   1.476   3.319
 3004TIP3   OH2 8888   3.686   0.983   3.172
 3004TIP3    H1 8889   3.660   0.895   3.198
 3004TIP3    H2 8890   3.704   0.977   3.079
 3005TIP3   OH2 8891   4.166   1.415   3.496
 3005TIP3    H1 8892   4.077   1.442   3.520
 3005TIP3    H2 8893   4.223   1.467   3.553
 3006TIP3   OH2 8894   3.898   1.766   2.619
 3006TIP3    H1 8895   3.826   1.706   2.600
 3006TIP3    H2 8896   3.874   1.805   2.704
 3007TIP3   OH2 8897   4.788   2.027   3.222
 3007TIP3    H1 8898   4.826   2.075   3.148
 3007TIP3    H2 8899   4.710   1.985   3.186
 3008TIP3   OH2 8900   4.321   1.129   2.434
 3008TIP3    H1 8901   4.245   1.090   2.479
 3008TIP3    H2 8902   4.355   1.192   2.497
 3009TIP3   OH2 8903   4.314   2.114   3.640
 3009TIP3    H1 8904   4.369   2.097   3.716
 3009TIP3    H2 8905   4.278   2.202   3.655
 3010TIP3   OH2 8906   4.424   1.330   2.596
 3010TIP3    H1 8907   4.518   1.336   2.614
 3010TIP3    H2 8908   4.401   1.413   2.555
 3011TIP3   OH2 8909   3.594   1.793   3.257
 3011TIP3    H1 8910   3.631   1.767   3.173
 3011TIP3    H2 8911   3.654   1.757   3.322
 3012TIP3   OH2 8912   4.026   1.933   2.449
 3012TIP3    H1 8913   3.972   2.011   2.456
 3012TIP3    H2 8914   3.983   1.869   2.506
 3013TIP3   OH2 8915   3.488   1.741   3.938
 3013TIP3    H1 8916   3.531   1.752   4.023
 3013TIP3    H2 8917   3.433   1.663   3.948
 3014TIP3   OH2 8918   4.229   1.867   3.902
 3014TIP3    H1 8919   4.179   1.845   3.824
 3014TIP3    H2 8920   4.311   1.818   3.893
 3015TIP3   OH2 8921   4.452   2.405   3.522
 3015TIP3    H1 8922   4.357   2.390   3.525
 3015TIP3    H2 8923   4.473   2.439   3.609
 3016TIP3   OH2 8924   4.841   1.446   2.422
 3016TIP3    H1 8925   4.783   1.403   2.360
 3016TIP3    H2 8926   4.847   1.536   2.389
 3017TIP3   OH2 8927   5.090   2.317   3.491
 3017TIP3    H1 8928   4.997   2.298   3.486
 3017TIP3    H2 8929   5.126   2.287   3.408
 3018TIP3   OH2 8930   4.573   2.256   2.338
 3018TIP3    H1 8931   4.547   2.182   2.393
 3018TIP3    H2 8932   4.599   2.216   2.255
 3019TIP3   OH2 8933   4.562   1.891   3.114
 3019TIP3    H1 8934   4.472   1.871   3.140
 3019TIP3    H2 8935   4.596   1.809   3.079
 3020TIP3   OH2 8936   3.710   2.113   2.958
 3020TIP3    H1 8937   3.709   2.200   2.919
 3020TIP3    H2 8938   3.623   2.104   2.999
 3021TIP3   OH2 8939   3.220   1.444   2.611
 3021TIP3    H1 8940   3.285   1.504   2.647
 3021TIP3    H2 8941   3.162   1.424   2.685
 3022TIP3   OH2 8942   3.786   1.878   2.838
 3022TIP3    H1 8943   3.768   1.964   2.877
 3022TIP3    H2 8944   3.769   1.816   2.908
 3023TIP3   OH2 8945   4.002   2.453   3.390
 3023TIP3    H1 8946   4.038   2.528   3.342
 3023TIP3    H2 8947   4.074   2.420   3.443
 3024TIP3   OH2 8948   4.348   2.125   3.364
 3024TIP3    H1 8949   4.335   2.120   3.459
 3024TIP3    H2 8950   4.428   2.074   3.348
 3025TIP3   OH2 8951   4.356   1.992   2.240
 3025TIP3    H1 8952   4.399   1.972   2.323
 3025TIP3    H2 8953   4.275   1.941   2.242
 3026TIP3   OH2 8954   4.605   2.608   3.405
 3026TIP3    H1 8955   4.538   2.544   3.428
 3026TIP3    H2 8956   4.567   2.659   3.334
 3027TIP3   OH2 8957   4.652   2.457   2.030
 3027TIP3    H1 8958   4.667   2.516   1.955
 3027TIP3    H2 8959   4.585   2.501   2.082
 3028TIP3   OH2 8960   3.685   1.231   3.897
 3028TIP3    H1 8961   3.590   1.240   3.904
 3028TIP3    H2 8962   3.710   1.179   3.973
 3029TIP3   OH2 8963   4.523   1.943   2.463
 3029TIP3    H1 8964   4.506   1.867   2.519
 3029TIP3    H2 8965   4.617   1.938   2.445
 3030TIP3   OH2 8966   3.427   2.340   3.551
 3030TIP3    H1 8967   3.480   2.280   3.604
 3030TIP3    H2 8968   3.440   2.425   3.592
 3031TIP3   OH2 8969   3.700   1.952   2.266
 3031TIP3    H1 8970   3.714   1.863   2.235
 3031TIP3    H2 8971   3.692   1.944   2.361
 3032TIP3   OH2 8972   3.679   1.970   2.540
 3032TIP3    H1 8973   3.716   1.918   2.611
 3032TIP3    H2 8974   3.737   2.046   2.534
 3033TIP3   OH2 8975   3.360   1.654   2.727
 3033TIP3    H1 8976   3.305   1.709   2.783
 3033TIP3    H2 8977   3.402   1.716   2.667
 3034TIP3   OH2 8978   4.507   1.310   3.629
 3034TIP3    H1 8979   4.591   1.350   3.654
 3034TIP3    H2 8980   4.505   1.227   3.677
 3035TIP3   OH2 8981   4.419   1.047   2.796
 3035TIP3    H1 8982   4.383   1.097   2.722
 3035TIP3    H2 8983   4.474   1.110   2.842
 3036TIP3   OH2 8984   3.879   2.161   2.499
 3036TIP3    H1 8985   3.934   2.190   2.572
 3036TIP3    H2 8986   3.884   2.233   2.435
 3037TIP3   OH2 8987   4.357   1.543   3.656
 3037TIP3    H1 8988   4.385   1.585   3.737
 3037TIP3    H2 8989   4.406   1.461   3.653
 3038TIP3   OH2 8990   4.224   0.937   2.964
 3038TIP3    H1 8991   4.210   1.006   3.030
 3038TIP3    H2 8992   4.297   0.969   2.911
 3039TIP3   OH2 8993   3.734   0.969   2.771
 3039TIP3    H1 8994   3.713   1.051   2.815
 3039TIP3    H2 8995   3.829   0.960   2.780
 3040TIP3   OH2 8996   4.974   1.417   3.640
 3040TIP3    H1 8997   4.881   1.434   3.658
 3040TIP3    H2 8998   4.974   1.353   3.569
 3041TIP3   OH2 8999   4.650   1.631   3.035
 3041TIP3    H1 9000   4.576   1.572   3.049
 3041TIP3    H2 9001   4.720   1.594   3.089
 3042TIP3   OH2 9002   3.418   1.857   2.531
 3042TIP3    H1 9003   3.493   1.916   2.540
 3042TIP3    H2 9004   3.446   1.793   2.466
 3043TIP3   OH2 9005   3.337   1.137   2.662
 3043TIP3    H1 9006   3.414   1.193   2.657
 3043TIP3    H2 9007   3.283   1.163   2.586
 3044TIP3   OH2 9008   4.632   2.608   2.970
 3044TIP3    H1 9009   4.593   2.654   2.896
 3044TIP3    H2 9010   4.726   2.617   2.959
 3045TIP3   OH2 9011   3.686   0.858   3.511
 3045TIP3    H1 9012   3.660   0.825   3.425
 3045TIP3    H2 9013   3.679   0.781   3.568
 3046TIP3   OH2 9014   3.211   2.122   2.889
 3046TIP3    H1 9015   3.158   2.162   2.958
 3046TIP3    H2 9016   3.175   2.157   2.808
 3047TIP3   OH2 9017   3.437   2.653   3.975
 3047TIP3    H1 9018   3.516   2.667   4.028
 3047TIP3    H2 9019   3.439   2.559   3.954
 3048TIP3   OH2 9020   3.888   2.547   4.017
 3048TIP3    H1 9021   3.979   2.519   4.027
 3048TIP3    H2 9022   3.855   2.494   3.944
 3049TIP3   OH2 9023   3.827   2.168   2.158
 3049TIP3    H1 9024   3.785   2.091   2.197
 3049TIP3    H2 9025   3.909   2.135   2.121
 3050TIP3   OH2 9026   4.506   2.498   3.774
 3050TIP3    H1 9027   4.521   2.427   3.836
 3050TIP3    H2 9028   4.580   2.557   3.787
 3051TIP3   OH2 9029   4.293   2.206   2.077
 3051TIP3    H1 9030   4.329   2.141   2.137
 3051TIP3    H2 9031   4.354   2.208   2.004
 3052TIP3   OH2 9032   3.519   2.053   4.157
 3052TIP3    H1 9033   3.544   1.962   4.172
 3052TIP3    H2 9034   3.434   2.047   4.112
 3053TIP3   OH2 9035   3.526   1.660   2.373
 3053TIP3    H1 9036   3.569   1.627   2.451
 3053TIP3    H2 9037   3.596   1.669   2.309
 3054TIP3   OH2 9038   4.148   2.135   3.941
 3054TIP3    H1 9039   4.105   2.155   3.858
 3054TIP3    H2 9040   4.190   2.050   3.926
 3055TIP3   OH2 9041   4.105   1.868   2.197
 3055TIP3    H1 9042   4.072   1.880   2.287
 3055TIP3    H2 9043   4.076   1.780   2.173
 3056TIP3   OH2 9044   4.622   2.180   3.554
 3056TIP3    H1 9045   4.700   2.206   3.506
 3056TIP3    H2 9046   4.559   2.251   3.538
 3057TIP3   OH2 9047   3.644   1.798   4.162
 3057TIP3    H1 9048   3.726   1.784   4.114
 3057TIP3    H2 9049   3.671   1.812   4.252
 3058TIP3   OH2 9050   3.689   1.593   2.586
 3058TIP3    H1 9051   3.667   1.566   2.676
 3058TIP3    H2 9052   3.736   1.519   2.549
 3059TIP3   OH2 9053   3.960   1.636   3.815
 3059TIP3    H1 9054   3.897   1.702   3.844
 3059TIP3    H2 9055   4.020   1.683   3.757
 3060TIP3   OH2 9056   3.828   1.406   2.442
 3060TIP3    H1 9057   3.798   1.410   2.351
 3060TIP3    H2 9058   3.923   1.414   2.436
 3061TIP3   OH2 9059   4.503   2.049   3.896
 3061TIP3    H1 9060   4.577   2.014   3.844
 3061TIP3    H2 9061   4.501   1.994   3.974
 3062TIP3   OH2 9062   4.635   1.707   2.099
 3062TIP3    H1 9063   4.622   1.661   2.016
 3062TIP3    H2 9064   4.608   1.797   2.082
 3063TIP3   OH2 9065   4.104   1.436   3.936
 3063TIP3    H1 9066   4.113   1.364   3.874
 3063TIP3    H2 9067   4.060   1.506   3.887
 3064TIP3   OH2 9068   4.114   1.243   3.730
 3064TIP3    H1 9069   4.147   1.276   3.646
 3064TIP3    H2 9070   4.024   1.217   3.711
 3065TIP3   OH2 9071   4.119   1.793   3.654
 3065TIP3    H1 9072   4.202   1.785   3.608
 3065TIP3    H2 9073   4.062   1.841   3.594
 3066TIP3   OH2 9074   4.711   1.734   3.980
 3066TIP3    H1 9075   4.750   1.647   3.986
 3066TIP3    H2 9076   4.786   1.794   3.976
 3067TIP3   OH2 9077   4.740   2.000   3.720
 3067TIP3    H1 9078   4.689   2.063   3.669
 3067TIP3    H2 9079   4.830   2.012   3.690
 3068TIP3   OH2 9080   3.991   1.523   4.179
 3068TIP3    H1 9081   3.923   1.458   4.200
 3068TIP3    H2 9082   4.021   1.498   4.092
 3069TIP3   OH2 9083   4.235   1.016   3.840
 3069TIP3    H1 9084   4.196   1.096   3.805
 3069TIP3    H2 9085   4.169   0.949   3.824
 3070TIP3   OH2 9086   4.360   1.484   4.040
 3070TIP3    H1 9087   4.351   1.470   4.134
 3070TIP3    H2 9088   4.275   1.462   4.003
 3071TIP3   OH2 9089   4.617   1.449   3.925
 3071TIP3    H1 9090   4.537   1.442   3.978
 3071TIP3    H2 9091   4.686   1.419   3.983
 3072TIP3   OH2 9092   4.853   1.403   4.065
 3072TIP3    H1 9093   4.866   1.309   4.073
 3072TIP3    H2 9094   4.848   1.435   4.155
 3073TIP3   OH2 9095   3.824   1.304   4.244
 3073TIP3    H1 9096   3.831   1.216   4.207
 3073TIP3    H2 9097   3.862   1.296   4.332
 3074TIP3   OH2 9098   4.299   0.987   4.105
 3074TIP3    H1 9099   4.370   0.923   4.097
 3074TIP3    H2 9100   4.269   1.001   4.015
 3075TIP3   OH2 9101   4.399   1.203   4.245
 3075TIP3    H1 9102   4.367   1.130   4.192
 3075TIP3    H2 9103   4.326   1.265   4.247
 3076TIP3   OH2 9104   3.647   2.497   2.394
 3076TIP3    H1 9105   3.722   2.438   2.385
 3076TIP3    H2 9106   3.620   2.513   2.303
 3077TIP3   OH2 9107   3.143   1.862   2.538
 3077TIP3    H1 9108   3.238   1.876   2.541
 3077TIP3    H2 9109   3.133   1.773   2.502
 3078TIP3   OH2 9110   3.025   2.433   2.994
 3078TIP3    H1 9111   2.962   2.376   2.950
 3078TIP3    H2 9112   3.069   2.376   3.057
 3079TIP3   OH2 9113   3.167   2.264   3.160
 3079TIP3    H1 9114   3.159   2.196   3.226
 3079TIP3    H2 9115   3.226   2.329   3.199
 3080TIP3   OH2 9116   4.905   2.653   2.967
 3080TIP3    H1 9117   4.924   2.683   3.056
 3080TIP3    H2 9118   4.963   2.705   2.911
 3081TIP3   OH2 9119   4.918   2.693   3.248
 3081TIP3    H1 9120   4.871   2.609   3.242
 3081TIP3    H2 9121   4.987   2.677   3.312
 3082TIP3   OH2 9122   4.974   2.391   3.820
 3082TIP3    H1 9123   4.902   2.400   3.883
 3082TIP3    H2 9124   5.023   2.473   3.827
 3083TIP3   OH2 9125   4.798   1.914   2.434
 3083TIP3    H1 9126   4.857   1.982   2.401
 3083TIP3    H2 9127   4.845   1.874   2.507
 3084TIP3   OH2 9128   4.928   1.768   2.632
 3084TIP3    H1 9129   4.863   1.727   2.688
 3084TIP3    H2 9130   4.993   1.803   2.692
 3085TIP3   OH2 9131   4.971   2.164   3.062
 3085TIP3    H1 9132   5.025   2.095   3.025
 3085TIP3    H2 9133   4.976   2.235   2.999
 3086TIP3   OH2 9134   4.778   2.452   3.251
 3086TIP3    H1 9135   4.712   2.496   3.305
 3086TIP3    H2 9136   4.727   2.411   3.181
 3087TIP3   OH2 9137   4.834   1.685   2.285
 3087TIP3    H1 9138   4.764   1.685   2.219
 3087TIP3    H2 9139   4.819   1.763   2.337
 3088TIP3   OH2 9140   4.684   1.339   2.230
 3088TIP3    H1 9141   4.631   1.364   2.154
 3088TIP3    H2 9142   4.680   1.243   2.232
 3089TIP3   OH2 9143   4.725   1.623   2.767
 3089TIP3    H1 9144   4.728   1.528   2.752
 3089TIP3    H2 9145   4.705   1.632   2.860
 3090TIP3   OH2 9146   3.342   1.731   3.554
 3090TIP3    H1 9147   3.329   1.690   3.468
 3090TIP3    H2 9148   3.434   1.713   3.574
 3091TIP3   OH2 9149   4.999   2.038   3.625
 3091TIP3    H1 9150   5.065   1.970   3.612
 3091TIP3    H2 9151   5.012   2.098   3.552
 3092TIP3   OH2 9152   5.178   1.829   3.617
 3092TIP3    H1 9153   5.105   1.783   3.659
 3092TIP3    H2 9154   5.254   1.774   3.635
 3093TIP3   OH2 9155   4.652   1.069   2.220
 3093TIP3    H1 9156   4.708   1.035   2.290
 3093TIP3    H2 9157   4.570   1.020   2.229
 3094TIP3   OH2 9158   4.713   1.346   2.656
 3094TIP3    H1 9159   4.765   1.267   2.672
 3094TIP3    H2 9160   4.755   1.386   2.580
 3095TIP3   OH2 9161   4.871   1.520   3.172
 3095TIP3    H1 9162   4.954   1.537   3.128
 3095TIP3    H2 9163   4.884   1.555   3.261
 3096TIP3   OH2 9164   4.945   1.662   3.404
 3096TIP3    H1 9165   4.873   1.688   3.461
 3096TIP3    H2 9166   4.975   1.745   3.365
 3097TIP3   OH2 9167   3.562   1.363   4.173
 3097TIP3    H1 9168   3.655   1.359   4.194
 3097TIP3    H2 9169   3.526   1.281   4.207
 3098TIP3   OH2 9170   5.398   1.273   3.935
 3098TIP3    H1 9171   5.464   1.211   3.901
 3098TIP3    H2 9172   5.363   1.316   3.857
 3099TIP3   OH2 9173   4.850   1.107   2.709
 3099TIP3    H1 9174   4.873   1.092   2.800
 3099TIP3    H2 9175   4.788   1.037   2.688
 3100TIP3   OH2 9176   3.540   1.089   3.556
 3100TIP3    H1 9177   3.590   1.008   3.548
 3100TIP3    H2 9178   3.599   1.156   3.521
 3101TIP3   OH2 9179   3.318   1.347   3.601
 3101TIP3    H1 9180   3.366   1.350   3.518
 3101TIP3    H2 9181   3.374   1.394   3.663
 3102TIP3   OH2 9182   5.246   1.382   3.737
 3102TIP3    H1 9183   5.174   1.419   3.787
 3102TIP3    H2 9184   5.205   1.316   3.680
 3103TIP3   OH2 9185   4.894   1.013   2.353
 3103TIP3    H1 9186   4.948   0.956   2.298
 3103TIP3    H2 9187   4.943   1.095   2.357
 3104TIP3   OH2 9188   3.288   0.819   3.069
 3104TIP3    H1 9189   3.211   0.824   3.125
 3104TIP3    H2 9190   3.279   0.893   3.009
 3105TIP3   OH2 9191   4.439   2.557   2.606
 3105TIP3    H1 9192   4.502   2.550   2.535
 3105TIP3    H2 9193   4.475   2.624   2.665
 3106TIP3   OH2 9194   3.535   0.899   3.921
 3106TIP3    H1 9195   3.485   0.895   4.002
 3106TIP3    H2 9196   3.481   0.951   3.862
 3107TIP3   OH2 9197   3.541   2.380   3.976
 3107TIP3    H1 9198   3.451   2.348   3.974
 3107TIP3    H2 9199   3.568   2.368   4.068
 3108TIP3   OH2 9200   3.772   2.412   3.537
 3108TIP3    H1 9201   3.721   2.486   3.506
 3108TIP3    H2 9202   3.858   2.422   3.495
 3109TIP3   OH2 9203   4.167   2.648   3.679
 3109TIP3    H1 9204   4.205   2.638   3.767
 3109TIP3    H2 9205   4.231   2.701   3.632
 3110TIP3   OH2 9206   4.361   2.802   3.556
 3110TIP3    H1 9207   4.426   2.747   3.511
 3110TIP3    H2 9208   4.413   2.863   3.608
 3111TIP3   OH2 9209   5.158   1.127   3.629
 3111TIP3    H1 9210   5.069   1.122   3.593
 3111TIP3    H2 9211   5.190   1.037   3.629
 3112TIP3   OH2 9212   3.426   2.652   3.584
 3112TIP3    H1 9213   3.334   2.666   3.562
 3112TIP3    H2 9214   3.446   2.720   3.648
 3113TIP3   OH2 9215   3.657   2.641   3.436
 3113TIP3    H1 9216   3.574   2.645   3.484
 3113TIP3    H2 9217   3.635   2.667   3.347
 3114TIP3   OH2 9218   4.078   2.668   3.233
 3114TIP3    H1 9219   4.002   2.680   3.176
 3114TIP3    H2 9220   4.086   2.752   3.278
 3115TIP3   OH2 9221   4.338   2.596   3.276
 3115TIP3    H1 9222   4.247   2.620   3.258
 3115TIP3    H2 9223   4.390   2.664   3.232
 3116TIP3   OH2 9224   4.535   2.764   3.176
 3116TIP3    H1 9225   4.542   2.852   3.140
 3116TIP3    H2 9226   4.569   2.707   3.106
 3117TIP3   OH2 9227   3.351   2.425   3.297
 3117TIP3    H1 9228   3.371   2.400   3.387
 3117TIP3    H2 9229   3.424   2.392   3.246
 3118TIP3   OH2 9230   3.554   2.313   3.153
 3118TIP3    H1 9231   3.562   2.230   3.200
 3118TIP3    H2 9232   3.640   2.354   3.164
 3119TIP3   OH2 9233   3.820   2.394   3.188
 3119TIP3    H1 9234   3.841   2.300   3.180
 3119TIP3    H2 9235   3.874   2.424   3.261
 3120TIP3   OH2 9236   4.441   1.060   3.274
 3120TIP3    H1 9237   4.386   0.987   3.304
 3120TIP3    H2 9238   4.500   1.021   3.210
 3121TIP3   OH2 9239   4.872   1.005   3.197
 3121TIP3    H1 9240   4.911   1.024   3.112
 3121TIP3    H2 9241   4.781   0.982   3.177
 3122TIP3   OH2 9242   4.981   1.095   2.964
 3122TIP3    H1 9243   5.029   1.019   2.931
 3122TIP3    H2 9244   5.027   1.171   2.927
 3123TIP3   OH2 9245   3.610   0.739   3.272
 3123TIP3    H1 9246   3.521   0.704   3.280
 3123TIP3    H2 9247   3.665   0.661   3.264
 3124TIP3   OH2 9248   3.415   0.637   2.908
 3124TIP3    H1 9249   3.453   0.691   2.839
 3124TIP3    H2 9250   3.378   0.700   2.970
 3125TIP3   OH2 9251   4.090   0.790   3.171
 3125TIP3    H1 9252   4.127   0.845   3.102
 3125TIP3    H2 9253   4.130   0.823   3.252
 3126TIP3   OH2 9254   4.619   0.914   3.121
 3126TIP3    H1 9255   4.667   0.880   3.046
 3126TIP3    H2 9256   4.611   0.839   3.181
 3127TIP3   OH2 9257   4.649   0.913   2.676
 3127TIP3    H1 9258   4.566   0.937   2.715
 3127TIP3    H2 9259   4.696   0.866   2.746
 3128TIP3   OH2 9260   3.113   2.220   2.647
 3128TIP3    H1 9261   3.020   2.203   2.633
 3128TIP3    H2 9262   3.122   2.315   2.637
 3129TIP3   OH2 9263   3.536   0.786   2.697
 3129TIP3    H1 9264   3.588   0.726   2.643
 3129TIP3    H2 9265   3.600   0.848   2.732
 3130TIP3   OH2 9266   4.003   1.029   2.803
 3130TIP3    H1 9267   4.069   0.997   2.864
 3130TIP3    H2 9268   3.964   1.104   2.848
 3131TIP3   OH2 9269   3.894   2.381   2.311
 3131TIP3    H1 9270   3.975   2.408   2.267
 3131TIP3    H2 9271   3.856   2.316   2.252
 3132TIP3   OH2 9272   4.603   2.524   2.386
 3132TIP3    H1 9273   4.599   2.429   2.374
 3132TIP3    H2 9274   4.568   2.559   2.304
 3133TIP3   OH2 9275   3.843   1.034   4.155
 3133TIP3    H1 9276   3.805   0.972   4.217
 3133TIP3    H2 9277   3.935   1.041   4.181
 3134TIP3   OH2 9278   4.087   1.031   4.286
 3134TIP3    H1 9279   4.164   1.012   4.233
 3134TIP3    H2 9280   4.084   0.961   4.351
 3135TIP3   OH2 9281   3.215   2.201   2.378
 3135TIP3    H1 9282   3.195   2.201   2.471
 3135TIP3    H2 9283   3.304   2.165   2.372
 3136TIP3   OH2 9284   4.910   1.131   4.065
 3136TIP3    H1 9285   4.928   1.103   4.155
 3136TIP3    H2 9286   4.995   1.128   4.022
 3137TIP3   OH2 9287   4.826   2.665   3.569
 3137TIP3    H1 9288   4.751   2.635   3.517
 3137TIP3    H2 9289   4.812   2.759   3.578
 3138TIP3   OH2 9290   6.112   2.053   2.288
 3138TIP3    H1 9291   6.072   2.139   2.273
 3138TIP3    H2 9292   6.041   1.991   2.270
 3139TIP3   OH2 9293   6.103   2.046   2.730
 3139TIP3    H1 9294   6.155   2.030   2.808
 3139TIP3    H2 9295   6.056   1.964   2.715
 3140TIP3   OH2 9296   5.399   1.894   3.082
 3140TIP3    H1 9297   5.440   1.849   3.155
 3140TIP3    H2 9298   5.472   1.923   3.027
 3141TIP3   OH2 9299   6.360   2.356   2.404
 3141TIP3    H1 9300   6.355   2.287   2.470
 3141TIP3    H2 9301   6.386   2.434   2.453
 3142TIP3   OH2 9302   5.393   2.327   2.752
 3142TIP3    H1 9303   5.374   2.233   2.762
 3142TIP3    H2 9304   5.489   2.331   2.750
 3143TIP3   OH2 9305   5.081   1.546   2.544
 3143TIP3    H1 9306   5.042   1.630   2.570
 3143TIP3    H2 9307   5.007   1.494   2.512
 3144TIP3   OH2 9308   5.157   1.852   2.773
 3144TIP3    H1 9309   5.208   1.775   2.799
 3144TIP3    H2 9310   5.223   1.917   2.751
 3145TIP3   OH2 9311   6.042   2.768   2.412
 3145TIP3    H1 9312   6.067   2.703   2.347
 3145TIP3    H2 9313   6.048   2.722   2.496
 3146TIP3   OH2 9314   5.914   2.267   2.733
 3146TIP3    H1 9315   5.960   2.187   2.709
 3146TIP3    H2 9316   5.982   2.325   2.766
 3147TIP3   OH2 9317   6.948   1.579   2.763
 3147TIP3    H1 9318   6.959   1.664   2.806
 3147TIP3    H2 9319   6.988   1.591   2.677
 3148TIP3   OH2 9320   6.308   1.753   2.770
 3148TIP3    H1 9321   6.341   1.668   2.799
 3148TIP3    H2 9322   6.281   1.738   2.679
 3149TIP3   OH2 9323   5.669   1.401   2.724
 3149TIP3    H1 9324   5.650   1.476   2.668
 3149TIP3    H2 9325   5.606   1.334   2.697
 3150TIP3   OH2 9326   6.368   1.508   2.374
 3150TIP3    H1 9327   6.432   1.501   2.445
 3150TIP3    H2 9328   6.419   1.544   2.300
 3151TIP3   OH2 9329   5.297   1.630   2.862
 3151TIP3    H1 9330   5.381   1.612   2.905
 3151TIP3    H2 9331   5.300   1.577   2.782
 3152TIP3   OH2 9332   5.713   1.828   2.678
 3152TIP3    H1 9333   5.807   1.813   2.686
 3152TIP3    H2 9334   5.678   1.745   2.645
 3153TIP3   OH2 9335   6.990   1.806   2.921
 3153TIP3    H1 9336   6.901   1.839   2.911
 3153TIP3    H2 9337   7.019   1.839   3.006
 3154TIP3   OH2 9338   5.653   1.412   3.177
 3154TIP3    H1 9339   5.604   1.455   3.107
 3154TIP3    H2 9340   5.601   1.428   3.255
 3155TIP3   OH2 9341   5.990   2.276   2.175
 3155TIP3    H1 9342   5.949   2.242   2.095
 3155TIP3    H2 9343   5.936   2.351   2.199
 3156TIP3   OH2 9344   5.743   2.193   2.939
 3156TIP3    H1 9345   5.691   2.265   2.975
 3156TIP3    H2 9346   5.793   2.233   2.868
 3157TIP3   OH2 9347   6.527   1.528   2.596
 3157TIP3    H1 9348   6.481   1.513   2.678
 3157TIP3    H2 9349   6.580   1.606   2.612
 3158TIP3   OH2 9350   5.550   1.525   2.945
 3158TIP3    H1 9351   5.604   1.601   2.969
 3158TIP3    H2 9352   5.598   1.484   2.874
 3159TIP3   OH2 9353   5.590   2.397   3.050
 3159TIP3    H1 9354   5.578   2.488   3.023
 3159TIP3    H2 9355   5.513   2.376   3.102
 3160TIP3   OH2 9356   4.970   2.098   2.310
 3160TIP3    H1 9357   4.937   2.117   2.222
 3160TIP3    H2 9358   4.992   2.184   2.346
 3161TIP3   OH2 9359   6.405   2.599   2.546
 3161TIP3    H1 9360   6.317   2.593   2.585
 3161TIP3    H2 9361   6.405   2.683   2.500
 3162TIP3   OH2 9362   6.741   1.477   2.927
 3162TIP3    H1 9363   6.659   1.498   2.883
 3162TIP3    H2 9364   6.809   1.505   2.866
 3163TIP3   OH2 9365   6.000   1.121   2.908
 3163TIP3    H1 9366   6.012   1.035   2.948
 3163TIP3    H2 9367   5.926   1.159   2.956
 3164TIP3   OH2 9368   6.123   2.613   2.191
 3164TIP3    H1 9369   6.176   2.534   2.180
 3164TIP3    H2 9370   6.182   2.685   2.169
 3165TIP3   OH2 9371   6.250   2.366   2.154
 3165TIP3    H1 9372   6.163   2.328   2.171
 3165TIP3    H2 9373   6.296   2.358   2.237
 3166TIP3   OH2 9374   6.652   2.477   2.890
 3166TIP3    H1 9375   6.628   2.405   2.833
 3166TIP3    H2 9376   6.637   2.556   2.837
 3167TIP3   OH2 9377   5.930   1.887   2.157
 3167TIP3    H1 9378   5.846   1.929   2.140
 3167TIP3    H2 9379   5.974   1.885   2.072
 3168TIP3   OH2 9380   5.906   1.698   1.838
 3168TIP3    H1 9381   5.969   1.746   1.891
 3168TIP3    H2 9382   5.959   1.631   1.793
 3169TIP3   OH2 9383   6.821   2.145   2.744
 3169TIP3    H1 9384   6.736   2.189   2.744
 3169TIP3    H2 9385   6.854   2.158   2.655
 3170TIP3   OH2 9386   6.300   1.984   2.103
 3170TIP3    H1 9387   6.244   2.011   2.175
 3170TIP3    H2 9388   6.381   1.955   2.144
 3171TIP3   OH2 9389   6.520   2.006   3.052
 3171TIP3    H1 9390   6.517   2.081   3.111
 3171TIP3    H2 9391   6.434   2.003   3.011
 3172TIP3   OH2 9392   5.517   1.959   2.521
 3172TIP3    H1 9393   5.481   1.896   2.458
 3172TIP3    H2 9394   5.589   1.912   2.563
 3173TIP3   OH2 9395   5.660   2.381   2.665
 3173TIP3    H1 9396   5.636   2.368   2.573
 3173TIP3    H2 9397   5.747   2.343   2.673
 3174TIP3   OH2 9398   5.608   1.957   2.900
 3174TIP3    H1 9399   5.648   1.920   2.822
 3174TIP3    H2 9400   5.656   2.038   2.916
 3175TIP3   OH2 9401   6.164   2.596   2.673
 3175TIP3    H1 9402   6.150   2.676   2.725
 3175TIP3    H2 9403   6.150   2.525   2.735
 3176TIP3   OH2 9404   5.790   2.488   3.222
 3176TIP3    H1 9405   5.729   2.543   3.271
 3176TIP3    H2 9406   5.735   2.437   3.163
 3177TIP3   OH2 9407   6.122   1.841   1.949
 3177TIP3    H1 9408   6.181   1.896   2.000
 3177TIP3    H2 9409   6.151   1.851   1.859
 3178TIP3   OH2 9410   5.550   2.050   3.356
 3178TIP3    H1 9411   5.547   2.142   3.380
 3178TIP3    H2 9412   5.458   2.023   3.352
 3179TIP3   OH2 9413   5.863   2.519   2.206
 3179TIP3    H1 9414   5.949   2.562   2.208
 3179TIP3    H2 9415   5.807   2.582   2.159
 3180TIP3   OH2 9416   5.578   2.645   3.309
 3180TIP3    H1 9417   5.554   2.657   3.217
 3180TIP3    H2 9418   5.494   2.632   3.354
 3181TIP3   OH2 9419   6.626   1.068   2.015
 3181TIP3    H1 9420   6.550   1.088   2.070
 3181TIP3    H2 9421   6.634   1.144   1.957
 3182TIP3   OH2 9422   5.389   1.796   2.323
 3182TIP3    H1 9423   5.312   1.844   2.294
 3182TIP3    H2 9424   5.358   1.709   2.345
 3183TIP3   OH2 9425   6.469   2.448   1.567
 3183TIP3    H1 9426   6.447   2.538   1.545
 3183TIP3    H2 9427   6.564   2.442   1.554
 3184TIP3   OH2 9428   5.175   2.210   3.255
 3184TIP3    H1 9429   5.105   2.188   3.194
 3184TIP3    H2 9430   5.210   2.126   3.283
 3185TIP3   OH2 9431   5.023   2.396   2.907
 3185TIP3    H1 9432   5.115   2.415   2.921
 3185TIP3    H2 9433   4.977   2.473   2.942
 3186TIP3   OH2 9434   6.874   2.868   2.957
 3186TIP3    H1 9435   6.880   2.773   2.963
 3186TIP3    H2 9436   6.794   2.890   3.005
 3187TIP3   OH2 9437   5.976   2.640   3.086
 3187TIP3    H1 9438   5.965   2.729   3.118
 3187TIP3    H2 9439   5.910   2.589   3.134
 3188TIP3   OH2 9440   5.758   2.733   2.036
 3188TIP3    H1 9441   5.712   2.712   1.956
 3188TIP3    H2 9442   5.719   2.815   2.066
 3189TIP3   OH2 9443   5.192   2.590   2.415
 3189TIP3    H1 9444   5.236   2.581   2.499
 3189TIP3    H2 9445   5.143   2.508   2.405
 3190TIP3   OH2 9446   5.958   2.672   1.664
 3190TIP3    H1 9447   6.006   2.597   1.629
 3190TIP3    H2 9448   5.994   2.686   1.751
 3191TIP3   OH2 9449   6.013   2.710   1.935
 3191TIP3    H1 9450   5.926   2.713   1.974
 3191TIP3    H2 9451   6.069   2.675   2.004
 3192TIP3   OH2 9452   6.777   1.961   3.223
 3192TIP3    H1 9453   6.685   1.980   3.208
 3192TIP3    H2 9454   6.784   1.866   3.217
 3193TIP3   OH2 9455   5.372   2.399   3.221
 3193TIP3    H1 9456   5.424   2.386   3.301
 3193TIP3    H2 9457   5.301   2.336   3.228
 3194TIP3   OH2 9458   5.759   1.196   3.035
 3194TIP3    H1 9459   5.677   1.166   2.998
 3194TIP3    H2 9460   5.737   1.278   3.080
 3195TIP3   OH2 9461   6.297   1.336   3.246
 3195TIP3    H1 9462   6.368   1.306   3.304
 3195TIP3    H2 9463   6.217   1.318   3.295
 3196TIP3   OH2 9464   6.502   1.769   3.200
 3196TIP3    H1 9465   6.455   1.806   3.275
 3196TIP3    H2 9466   6.506   1.841   3.137
 3197TIP3   OH2 9467   6.214   1.866   1.695
 3197TIP3    H1 9468   6.168   1.850   1.612
 3197TIP3    H2 9469   6.296   1.908   1.669
 3198TIP3   OH2 9470   5.901   1.246   2.007
 3198TIP3    H1 9471   5.867   1.250   2.097
 3198TIP3    H2 9472   5.867   1.163   1.973
 3199TIP3   OH2 9473   5.696   1.736   3.046
 3199TIP3    H1 9474   5.653   1.741   3.131
 3199TIP3    H2 9475   5.674   1.819   3.003
 3200TIP3   OH2 9476   5.577   1.610   2.572
 3200TIP3    H1 9477   5.487   1.587   2.597
 3200TIP3    H2 9478   5.584   1.579   2.482
 3201TIP3   OH2 9479   6.051   1.684   2.298
 3201TIP3    H1 9480   6.004   1.756   2.257
 3201TIP3    H2 9481   6.109   1.651   2.229
 3202TIP3   OH2 9482   6.228   1.703   2.513
 3202TIP3    H1 9483   6.156   1.720   2.453
 3202TIP3    H2 9484   6.272   1.627   2.476
 3203TIP3   OH2 9485   5.542   1.743   3.273
 3203TIP3    H1 9486   5.585   1.793   3.342
 3203TIP3    H2 9487   5.523   1.658   3.314
 3204TIP3   OH2 9488   5.570   1.223   1.990
 3204TIP3    H1 9489   5.561   1.228   2.085
 3204TIP3    H2 9490   5.496   1.275   1.957
 3205TIP3   OH2 9491   5.126   1.282   2.834
 3205TIP3    H1 9492   5.207   1.306   2.879
 3205TIP3    H2 9493   5.155   1.246   2.750
 3206TIP3   OH2 9494   5.032   1.252   2.364
 3206TIP3    H1 9495   5.075   1.288   2.286
 3206TIP3    H2 9496   4.967   1.318   2.388
 3207TIP3   OH2 9497   6.262   1.957   2.942
 3207TIP3    H1 9498   6.285   1.887   2.881
 3207TIP3    H2 9499   6.223   1.911   3.018
 3208TIP3   OH2 9500   5.938   1.383   2.616
 3208TIP3    H1 9501   5.861   1.388   2.673
 3208TIP3    H2 9502   6.013   1.384   2.677
 3209TIP3   OH2 9503   5.336   1.490   2.629
 3209TIP3    H1 9504   5.248   1.498   2.593
 3209TIP3    H2 9505   5.357   1.397   2.618
 3210TIP3   OH2 9506   5.589   1.492   2.324
 3210TIP3    H1 9507   5.684   1.502   2.316
 3210TIP3    H2 9508   5.556   1.512   2.236
 3211TIP3   OH2 9509   6.384   1.493   2.833
 3211TIP3    H1 9510   6.374   1.512   2.926
 3211TIP3    H2 9511   6.313   1.433   2.812
 3212TIP3   OH2 9512   5.486   1.521   2.072
 3212TIP3    H1 9513   5.419   1.474   2.022
 3212TIP3    H2 9514   5.541   1.563   2.005
 3213TIP3   OH2 9515   6.583   3.193   3.045
 3213TIP3    H1 9516   6.577   3.207   2.951
 3213TIP3    H2 9517   6.663   3.238   3.071
 3214TIP3   OH2 9518   5.525   2.314   3.454
 3214TIP3    H1 9519   5.606   2.329   3.502
 3214TIP3    H2 9520   5.456   2.318   3.520
 3215TIP3   OH2 9521   5.985   1.777   2.730
 3215TIP3    H1 9522   6.059   1.733   2.688
 3215TIP3    H2 9523   5.982   1.740   2.818
 3216TIP3   OH2 9524   5.464   1.230   2.619
 3216TIP3    H1 9525   5.424   1.159   2.668
 3216TIP3    H2 9526   5.471   1.197   2.530
 3217TIP3   OH2 9527   5.962   1.679   2.994
 3217TIP3    H1 9528   5.876   1.712   3.017
 3217TIP3    H2 9529   6.023   1.729   3.047
 3218TIP3   OH2 9530   5.691   2.018   2.104
 3218TIP3    H1 9531   5.616   1.965   2.078
 3218TIP3    H2 9532   5.663   2.063   2.184
 3219TIP3   OH2 9533   6.585   2.284   2.706
 3219TIP3    H1 9534   6.621   2.333   2.633
 3219TIP3    H2 9535   6.506   2.242   2.670
 3220TIP3   OH2 9536   6.155   1.344   2.025
 3220TIP3    H1 9537   6.062   1.324   2.016
 3220TIP3    H2 9538   6.159   1.439   2.034
 3221TIP3   OH2 9539   6.107   2.368   3.123
 3221TIP3    H1 9540   6.163   2.349   3.199
 3221TIP3    H2 9541   6.068   2.453   3.144
 3222TIP3   OH2 9542   6.215   1.610   2.083
 3222TIP3    H1 9543   6.310   1.612   2.096
 3222TIP3    H2 9544   6.197   1.685   2.028
 3223TIP3   OH2 9545   5.379   2.036   2.749
 3223TIP3    H1 9546   5.419   2.019   2.664
 3223TIP3    H2 9547   5.446   2.009   2.813
 3224TIP3   OH2 9548   5.845   2.184   1.951
 3224TIP3    H1 9549   5.796   2.266   1.945
 3224TIP3    H2 9550   5.788   2.125   2.001
 3225TIP3   OH2 9551   5.272   1.984   3.391
 3225TIP3    H1 9552   5.284   1.963   3.483
 3225TIP3    H2 9553   5.198   1.930   3.363
 3226TIP3   OH2 9554   6.026   2.099   3.402
 3226TIP3    H1 9555   5.963   2.033   3.373
 3226TIP3    H2 9556   6.111   2.060   3.384
 3227TIP3   OH2 9557   6.249   2.661   3.017
 3227TIP3    H1 9558   6.155   2.645   3.017
 3227TIP3    H2 9559   6.269   2.690   3.106
 3228TIP3   OH2 9560   6.628   1.693   1.912
 3228TIP3    H1 9561   6.569   1.666   1.841
 3228TIP3    H2 9562   6.675   1.768   1.877
 3229TIP3   OH2 9563   6.893   2.594   2.971
 3229TIP3    H1 9564   6.803   2.562   2.980
 3229TIP3    H2 9565   6.924   2.555   2.890
 3230TIP3   OH2 9566   6.368   2.514   1.823
 3230TIP3    H1 9567   6.336   2.438   1.872
 3230TIP3    H2 9568   6.396   2.478   1.739
 3231TIP3   OH2 9569   6.358   2.148   2.598
 3231TIP3    H1 9570   6.271   2.125   2.629
 3231TIP3    H2 9571   6.392   2.067   2.560
 3232TIP3   OH2 9572   5.513   2.385   2.424
 3232TIP3    H1 9573   5.507   2.460   2.365
 3232TIP3    H2 9574   5.426   2.379   2.465
 3233TIP3   OH2 9575   5.061   1.667   2.131
 3233TIP3    H1 9576   5.108   1.748   2.152
 3233TIP3    H2 9577   4.984   1.668   2.188
 3234TIP3   OH2 9578   5.587   2.141   2.320
 3234TIP3    H1 9579   5.573   2.230   2.353
 3234TIP3    H2 9580   5.564   2.084   2.394
 3235TIP3   OH2 9581   5.796   2.709   2.877
 3235TIP3    H1 9582   5.831   2.782   2.827
 3235TIP3    H2 9583   5.869   2.677   2.929
 3236TIP3   OH2 9584   5.428   2.605   2.273
 3236TIP3    H1 9585   5.341   2.614   2.311
 3236TIP3    H2 9586   5.466   2.693   2.279
 3237TIP3   OH2 9587   6.143   2.377   2.850
 3237TIP3    H1 9588   6.128   2.374   2.944
 3237TIP3    H2 9589   6.220   2.321   2.836
 3238TIP3   OH2 9590   6.152   2.247   1.712
 3238TIP3    H1 9591   6.193   2.230   1.796
 3238TIP3    H2 9592   6.068   2.201   1.715
 3239TIP3   OH2 9593   6.404   2.858   2.891
 3239TIP3    H1 9594   6.336   2.796   2.918
 3239TIP3    H2 9595   6.364   2.909   2.821
 3240TIP3   OH2 9596   6.436   2.714   1.521
 3240TIP3    H1 9597   6.445   2.768   1.442
 3240TIP3    H2 9598   6.371   2.761   1.575
 3241TIP3   OH2 9599   5.482   1.488   3.384
 3241TIP3    H1 9600   5.388   1.499   3.393
 3241TIP3    H2 9601   5.509   1.448   3.467
 3242TIP3   OH2 9602   6.311   2.208   1.938
 3242TIP3    H1 9603   6.312   2.123   1.981
 3242TIP3    H2 9604   6.298   2.271   2.008
 3243TIP3   OH2 9605   5.223   2.606   3.040
 3243TIP3    H1 9606   5.273   2.547   3.096
 3243TIP3    H2 9607   5.238   2.693   3.079
 3244TIP3   OH2 9608   5.492   2.216   1.740
 3244TIP3    H1 9609   5.504   2.125   1.712
 3244TIP3    H2 9610   5.479   2.211   1.834
 3245TIP3   OH2 9611   5.433   2.229   2.012
 3245TIP3    H1 9612   5.490   2.205   2.085
 3245TIP3    H2 9613   5.431   2.325   2.014
 3246TIP3   OH2 9614   5.162   1.916   2.215
 3246TIP3    H1 9615   5.099   1.965   2.268
 3246TIP3    H2 9616   5.182   1.975   2.142
 3247TIP3   OH2 9617   6.349   1.562   3.096
 3247TIP3    H1 9618   6.411   1.616   3.144
 3247TIP3    H2 9619   6.333   1.487   3.154
 3248TIP3   OH2 9620   6.219   1.290   2.289
 3248TIP3    H1 9621   6.197   1.310   2.198
 3248TIP3    H2 9622   6.263   1.369   2.321
 3249TIP3   OH2 9623   5.701   2.413   1.938
 3249TIP3    H1 9624   5.617   2.436   1.978
 3249TIP3    H2 9625   5.724   2.489   1.885
 3250TIP3   OH2 9626   5.866   1.493   2.370
 3250TIP3    H1 9627   5.929   1.562   2.346
 3250TIP3    H2 9628   5.893   1.467   2.458
 3251TIP3   OH2 9629   6.171   1.788   3.143
 3251TIP3    H1 9630   6.205   1.836   3.219
 3251TIP3    H2 9631   6.225   1.710   3.138
 3252TIP3   OH2 9632   6.028   1.173   2.449
 3252TIP3    H1 9633   6.004   1.241   2.512
 3252TIP3    H2 9634   6.101   1.211   2.400
 3253TIP3   OH2 9635   5.453   2.502   2.020
 3253TIP3    H1 9636   5.433   2.574   1.960
 3253TIP3    H2 9637   5.442   2.540   2.107
 3254TIP3   OH2 9638   5.549   1.220   2.273
 3254TIP3    H1 9639   5.539   1.312   2.299
 3254TIP3    H2 9640   5.643   1.204   2.275
 3255TIP3   OH2 9641   6.761   1.683   3.146
 3255TIP3    H1 9642   6.672   1.695   3.177
 3255TIP3    H2 9643   6.754   1.620   3.075
 3256TIP3   OH2 9644   6.449   1.891   2.505
 3256TIP3    H1 9645   6.372   1.834   2.515
 3256TIP3    H2 9646   6.515   1.852   2.562
 3257TIP3   OH2 9647   5.191   2.094   2.000
 3257TIP3    H1 9648   5.263   2.157   2.009
 3257TIP3    H2 9649   5.222   2.032   1.934
 3258TIP3   OH2 9650   5.095   1.391   2.139
 3258TIP3    H1 9651   5.095   1.486   2.136
 3258TIP3    H2 9652   5.032   1.365   2.072
 3259TIP3   OH2 9653   6.425   2.863   2.457
 3259TIP3    H1 9654   6.384   2.915   2.389
 3259TIP3    H2 9655   6.519   2.876   2.444
 3260TIP3   OH2 9656   5.513   1.093   2.967
 3260TIP3    H1 9657   5.456   1.064   2.895
 3260TIP3    H2 9658   5.500   1.027   3.035
 3261TIP3   OH2 9659   5.014   2.369   2.392
 3261TIP3    H1 9660   4.975   2.405   2.471
 3261TIP3    H2 9661   4.968   2.412   2.320
 3262TIP3   OH2 9662   5.229   2.904   3.460
 3262TIP3    H1 9663   5.310   2.911   3.510
 3262TIP3    H2 9664   5.218   2.810   3.446
 3263TIP3   OH2 9665   5.689   2.804   3.504
 3263TIP3    H1 9666   5.779   2.773   3.513
 3263TIP3    H2 9667   5.652   2.752   3.433
 3264TIP3   OH2 9668   5.641   2.416   1.623
 3264TIP3    H1 9669   5.594   2.348   1.671
 3264TIP3    H2 9670   5.714   2.371   1.582
 3265TIP3   OH2 9671   6.303   2.744   3.274
 3265TIP3    H1 9672   6.323   2.672   3.335
 3265TIP3    H2 9673   6.376   2.804   3.284
 3266TIP3   OH2 9674   6.080   2.457   1.548
 3266TIP3    H1 9675   6.119   2.392   1.606
 3266TIP3    H2 9676   6.132   2.452   1.468
 3267TIP3   OH2 9677   5.322   2.308   3.645
 3267TIP3    H1 9678   5.343   2.215   3.656
 3267TIP3    H2 9679   5.234   2.308   3.606
 3268TIP3   OH2 9680   5.315   1.907   1.843
 3268TIP3    H1 9681   5.364   1.881   1.921
 3268TIP3    H2 9682   5.382   1.924   1.776
 3269TIP3   OH2 9683   5.946   2.374   3.423
 3269TIP3    H1 9684   5.902   2.394   3.341
 3269TIP3    H2 9685   5.985   2.288   3.409
 3270TIP3   OH2 9686   5.904   2.125   1.689
 3270TIP3    H1 9687   5.875   2.136   1.780
 3270TIP3    H2 9688   5.881   2.035   1.667
 3271TIP3   OH2 9689   6.424   2.435   3.049
 3271TIP3    H1 9690   6.501   2.461   2.998
 3271TIP3    H2 9691   6.360   2.505   3.032
 3272TIP3   OH2 9692   5.437   2.054   3.652
 3272TIP3    H1 9693   5.516   2.028   3.603
 3272TIP3    H2 9694   5.468   2.066   3.742
 3273TIP3   OH2 9695   5.482   1.843   2.055
 3273TIP3    H1 9696   5.461   1.812   2.143
 3273TIP3    H2 9697   5.531   1.771   2.016
 3274TIP3   OH2 9698   5.804   1.937   3.308
 3274TIP3    H1 9699   5.721   1.985   3.319
 3274TIP3    H2 9700   5.835   1.964   3.221
 3275TIP3   OH2 9701   5.631   1.668   1.891
 3275TIP3    H1 9702   5.601   1.675   1.801
 3275TIP3    H2 9703   5.726   1.675   1.886
 3276TIP3   OH2 9704   6.295   2.300   3.394
 3276TIP3    H1 9705   6.328   2.228   3.341
 3276TIP3    H2 9706   6.279   2.261   3.480
 3277TIP3   OH2 9707   6.479   2.009   1.606
 3277TIP3    H1 9708   6.487   1.934   1.546
 3277TIP3    H2 9709   6.421   2.070   1.560
 3278TIP3   OH2 9710   5.817   1.688   3.419
 3278TIP3    H1 9711   5.871   1.627   3.369
 3278TIP3    H2 9712   5.827   1.772   3.374
 3279TIP3   OH2 9713   5.916   1.491   3.211
 3279TIP3    H1 9714   5.941   1.539   3.132
 3279TIP3    H2 9715   5.823   1.471   3.198
 3280TIP3   OH2 9716   5.914   2.024   3.075
 3280TIP3    H1 9717   6.002   2.060   3.073
 3280TIP3    H2 9718   5.861   2.087   3.027
 3281TIP3   OH2 9719   6.565   1.993   3.568
 3281TIP3    H1 9720   6.500   1.967   3.504
 3281TIP3    H2 9721   6.609   2.069   3.528
 3282TIP3   OH2 9722   6.553   2.244   3.200
 3282TIP3    H1 9723   6.495   2.308   3.160
 3282TIP3    H2 9724   6.640   2.267   3.166
 3283TIP3   OH2 9725   5.768   1.782   3.674
 3283TIP3    H1 9726   5.703   1.720   3.705
 3283TIP3    H2 9727   5.785   1.756   3.583
 3284TIP3   OH2 9728   6.033   1.264   3.319
 3284TIP3    H1 9729   5.995   1.345   3.285
 3284TIP3    H2 9730   5.963   1.199   3.307
 3285TIP3   OH2 9731   6.712   1.643   3.562
 3285TIP3    H1 9732   6.680   1.553   3.562
 3285TIP3    H2 9733   6.669   1.683   3.639
 3286TIP3   OH2 9734   5.611   1.557   3.741
 3286TIP3    H1 9735   5.624   1.472   3.698
 3286TIP3    H2 9736   5.653   1.546   3.827
 3287TIP3   OH2 9737   6.093   1.239   3.585
 3287TIP3    H1 9738   6.166   1.177   3.579
 3287TIP3    H2 9739   6.066   1.253   3.495
 3288TIP3   OH2 9740   6.183   1.455   3.735
 3288TIP3    H1 9741   6.152   1.385   3.678
 3288TIP3    H2 9742   6.110   1.517   3.739
 3289TIP3   OH2 9743   5.448   2.712   1.840
 3289TIP3    H1 9744   5.536   2.694   1.807
 3289TIP3    H2 9745   5.405   2.761   1.769
 3290TIP3   OH2 9746   4.920   2.100   2.022
 3290TIP3    H1 9747   5.015   2.113   2.019
 3290TIP3    H2 9748   4.905   2.014   1.984
 3291TIP3   OH2 9749   4.818   2.672   2.476
 3291TIP3    H1 9750   4.752   2.618   2.433
 3291TIP3    H2 9751   4.863   2.612   2.535
 3292TIP3   OH2 9752   4.963   2.506   2.644
 3292TIP3    H1 9753   4.957   2.437   2.710
 3292TIP3    H2 9754   5.015   2.575   2.686
 3293TIP3   OH2 9755   6.696   2.914   2.455
 3293TIP3    H1 9756   6.713   2.941   2.546
 3293TIP3    H2 9757   6.748   2.975   2.402
 3294TIP3   OH2 9758   6.709   2.947   2.735
 3294TIP3    H1 9759   6.666   2.861   2.732
 3294TIP3    H2 9760   6.780   2.935   2.797
 3295TIP3   OH2 9761   6.784   2.651   3.305
 3295TIP3    H1 9762   6.712   2.659   3.367
 3295TIP3    H2 9763   6.828   2.737   3.308
 3296TIP3   OH2 9764   6.721   2.019   2.075
 3296TIP3    H1 9765   6.652   1.988   2.134
 3296TIP3    H2 9766   6.783   2.064   2.132
 3297TIP3   OH2 9767   6.772   2.422   2.549
 3297TIP3    H1 9768   6.824   2.355   2.505
 3297TIP3    H2 9769   6.775   2.497   2.490
 3298TIP3   OH2 9770   6.577   2.700   2.743
 3298TIP3    H1 9771   6.510   2.745   2.794
 3298TIP3    H2 9772   6.529   2.660   2.670
 3299TIP3   OH2 9773   6.473   1.612   1.703
 3299TIP3    H1 9774   6.424   1.637   1.624
 3299TIP3    H2 9775   6.467   1.517   1.707
 3300TIP3   OH2 9776   6.524   1.885   2.234
 3300TIP3    H1 9777   6.527   1.790   2.224
 3300TIP3    H2 9778   6.507   1.899   2.328
 3301TIP3   OH2 9779   5.137   1.944   3.031
 3301TIP3    H1 9780   5.128   1.911   2.942
 3301TIP3    H2 9781   5.230   1.935   3.050
 3302TIP3   OH2 9782   6.806   2.300   3.101
 3302TIP3    H1 9783   6.872   2.233   3.087
 3302TIP3    H2 9784   6.794   2.341   3.015
 3303TIP3   OH2 9785   6.983   2.086   3.096
 3303TIP3    H1 9786   6.909   2.046   3.141
 3303TIP3    H2 9787   7.058   2.034   3.122
 3304TIP3   OH2 9788   6.431   1.343   1.686
 3304TIP3    H1 9789   6.500   1.307   1.741
 3304TIP3    H2 9790   6.352   1.294   1.711
 3305TIP3   OH2 9791   6.505   1.601   2.144
 3305TIP3    H1 9792   6.550   1.517   2.157
 3305TIP3    H2 9793   6.545   1.637   2.064
 3306TIP3   OH2 9794   6.656   1.769   2.657
 3306TIP3    H1 9795   6.738   1.786   2.610
 3306TIP3    H2 9796   6.668   1.810   2.743
 3307TIP3   OH2 9797   6.734   1.918   2.884
 3307TIP3    H1 9798   6.665   1.946   2.944
 3307TIP3    H2 9799   6.763   1.999   2.841
 3308TIP3   OH2 9800   5.356   1.621   3.662
 3308TIP3    H1 9801   5.448   1.617   3.687
 3308TIP3    H2 9802   5.318   1.541   3.697
 3309TIP3   OH2 9803   7.203   1.516   3.423
 3309TIP3    H1 9804   7.266   1.459   3.380
 3309TIP3    H2 9805   7.165   1.568   3.351
 3310TIP3   OH2 9806   6.624   1.355   2.193
 3310TIP3    H1 9807   6.675   1.343   2.273
 3310TIP3    H2 9808   6.564   1.281   2.192
 3311TIP3   OH2 9809   5.355   1.327   2.977
 3311TIP3    H1 9810   5.412   1.251   2.991
 3311TIP3    H2 9811   5.415   1.401   2.975
 3312TIP3   OH2 9812   5.124   1.585   3.083
 3312TIP3    H1 9813   5.169   1.585   2.998
 3312TIP3    H2 9814   5.160   1.661   3.129
 3313TIP3   OH2 9815   7.054   1.648   3.232
 3313TIP3    H1 9816   6.992   1.687   3.294
 3313TIP3    H2 9817   7.000   1.589   3.179
 3314TIP3   OH2 9818   6.656   1.271   1.829
 3314TIP3    H1 9819   6.705   1.211   1.773
 3314TIP3    H2 9820   6.714   1.346   1.841
 3315TIP3   OH2 9821   5.112   1.126   2.591
 3315TIP3    H1 9822   5.029   1.108   2.634
 3315TIP3    H2 9823   5.089   1.178   2.514
 3316TIP3   OH2 9824   6.265   2.820   2.101
 3316TIP3    H1 9825   6.321   2.818   2.024
 3316TIP3    H2 9826   6.298   2.895   2.152
 3317TIP3   OH2 9827   5.306   1.148   3.384
 3317TIP3    H1 9828   5.266   1.154   3.471
 3317TIP3    H2 9829   5.255   1.208   3.330
 3318TIP3   OH2 9830   5.349   2.627   3.473
 3318TIP3    H1 9831   5.256   2.604   3.465
 3318TIP3    H2 9832   5.370   2.611   3.565
 3319TIP3   OH2 9833   5.568   2.673   3.027
 3319TIP3    H1 9834   5.517   2.749   2.996
 3319TIP3    H2 9835   5.652   2.682   2.983
 3320TIP3   OH2 9836   5.959   2.904   3.172
 3320TIP3    H1 9837   5.998   2.895   3.260
 3320TIP3    H2 9838   6.022   2.958   3.124
 3321TIP3   OH2 9839   6.149   3.057   3.042
 3321TIP3    H1 9840   6.208   3.004   2.989
 3321TIP3    H2 9841   6.207   3.113   3.093
 3322TIP3   OH2 9842   6.954   1.392   3.125
 3322TIP3    H1 9843   6.869   1.393   3.080
 3322TIP3    H2 9844   6.983   1.301   3.119
 3323TIP3   OH2 9845   5.228   2.907   3.076
 3323TIP3    H1 9846   5.137   2.924   3.054
 3323TIP3    H2 9847   5.250   2.974   3.141
 3324TIP3   OH2 9848   5.458   2.905   2.925
 3324TIP3    H1 9849   5.375   2.907   2.972
 3324TIP3    H2 9850   5.435   2.927   2.834
 3325TIP3   OH2 9851   5.869   2.923   2.716
 3325TIP3    H1 9852   5.795   2.932   2.656
 3325TIP3    H2 9853   5.878   3.009   2.756
 3326TIP3   OH2 9854   6.129   2.854   2.770
 3326TIP3    H1 9855   6.039   2.875   2.748
 3326TIP3    H2 9856   6.182   2.918   2.722
 3327TIP3   OH2 9857   6.329   3.015   2.665
 3327TIP3    H1 9858   6.335   3.104   2.629
 3327TIP3    H2 9859   6.360   2.958   2.594
 3328TIP3   OH2 9860   5.136   2.686   2.788
 3328TIP3    H1 9861   5.163   2.664   2.878
 3328TIP3    H2 9862   5.208   2.654   2.733
 3329TIP3   OH2 9863   5.340   2.572   2.648
 3329TIP3    H1 9864   5.352   2.487   2.690
 3329TIP3    H2 9865   5.427   2.614   2.654
 3330TIP3   OH2 9866   5.608   2.657   2.676
 3330TIP3    H1 9867   5.628   2.565   2.661
 3330TIP3    H2 9868   5.663   2.682   2.751
 3331TIP3   OH2 9869   6.170   1.312   2.763
 3331TIP3    H1 9870   6.122   1.241   2.806
 3331TIP3    H2 9871   6.238   1.267   2.712
 3332TIP3   OH2 9872   6.677   1.227   2.632
 3332TIP3    H1 9873   6.719   1.275   2.561
 3332TIP3    H2 9874   6.591   1.268   2.641
 3333TIP3   OH2 9875   6.798   1.314   2.402
 3333TIP3    H1 9876   6.865   1.249   2.378
 3333TIP3    H2 9877   6.841   1.398   2.389
 3334TIP3   OH2 9878   5.360   1.000   2.754
 3334TIP3    H1 9879   5.269   0.986   2.781
 3334TIP3    H2 9880   5.377   0.931   2.690
 3335TIP3   OH2 9881   5.264   0.942   2.442
 3335TIP3    H1 9882   5.275   0.981   2.355
 3335TIP3    H2 9883   5.209   1.004   2.490
 3336TIP3   OH2 9884   5.823   0.962   2.749
 3336TIP3    H1 9885   5.831   0.985   2.657
 3336TIP3    H2 9886   5.888   1.017   2.793
 3337TIP3   OH2 9887   6.376   1.177   2.636
 3337TIP3    H1 9888   6.405   1.142   2.552
 3337TIP3    H2 9889   6.389   1.106   2.698
 3338TIP3   OH2 9890   6.441   1.143   2.205
 3338TIP3    H1 9891   6.361   1.191   2.229
 3338TIP3    H2 9892   6.430   1.056   2.243
 3339TIP3   OH2 9893   4.888   2.491   2.180
 3339TIP3    H1 9894   4.808   2.459   2.139
 3339TIP3    H2 9895   4.898   2.580   2.147
 3340TIP3   OH2 9896   5.345   1.051   2.189
 3340TIP3    H1 9897   5.392   0.986   2.137
 3340TIP3    H2 9898   5.413   1.110   2.222
 3341TIP3   OH2 9899   5.823   1.241   2.273
 3341TIP3    H1 9900   5.887   1.191   2.324
 3341TIP3    H2 9901   5.836   1.332   2.301
 3342TIP3   OH2 9902   5.704   2.639   1.767
 3342TIP3    H1 9903   5.787   2.668   1.728
 3342TIP3    H2 9904   5.674   2.568   1.710
 3343TIP3   OH2 9905   6.411   2.782   1.868
 3343TIP3    H1 9906   6.401   2.687   1.858
 3343TIP3    H2 9907   6.366   2.818   1.792
 3344TIP3   OH2 9908   5.626   1.288   3.629
 3344TIP3    H1 9909   5.590   1.226   3.691
 3344TIP3    H2 9910   5.718   1.297   3.653
 3345TIP3   OH2 9911   5.872   1.290   3.751
 3345TIP3    H1 9912   5.953   1.271   3.703
 3345TIP3    H2 9913   5.867   1.222   3.818
 3346TIP3   OH2 9914   5.011   2.482   1.814
 3346TIP3    H1 9915   5.015   2.504   1.907
 3346TIP3    H2 9916   5.094   2.437   1.797
 3347TIP3   OH2 9917   6.702   1.361   3.544
 3347TIP3    H1 9918   6.721   1.344   3.637
 3347TIP3    H2 9919   6.788   1.370   3.504
 3348TIP3   OH2 9920   6.620   2.920   3.058
 3348TIP3    H1 9921   6.549   2.888   3.003
 3348TIP3    H2 9922   6.606   3.015   3.062
 3349TIP3   OH2 9923   7.879   2.321   1.828
 3349TIP3    H1 9924   7.847   2.409   1.806
 3349TIP3    H2 9925   7.808   2.263   1.800
 3350TIP3   OH2 9926   7.900   2.296   2.221
 3350TIP3    H1 9927   7.950   2.279   2.300
 3350TIP3    H2 9928   7.854   2.214   2.203
 3351TIP3   OH2 9929   7.195   2.154   2.551
 3351TIP3    H1 9930   7.230   2.106   2.626
 3351TIP3    H2 9931   7.272   2.171   2.496
 3352TIP3   OH2 9932   8.177   2.612   1.912
 3352TIP3    H1 9933   8.154   2.553   1.984
 3352TIP3    H2 9934   8.197   2.696   1.955
 3353TIP3   OH2 9935   7.194   2.588   2.244
 3353TIP3    H1 9936   7.172   2.495   2.253
 3353TIP3    H2 9937   7.289   2.589   2.238
 3354TIP3   OH2 9938   6.883   1.806   2.003
 3354TIP3    H1 9939   6.846   1.892   2.024
 3354TIP3    H2 9940   6.815   1.744   2.030
 3355TIP3   OH2 9941   6.944   2.101   2.239
 3355TIP3    H1 9942   6.992   2.023   2.267
 3355TIP3    H2 9943   7.012   2.165   2.216
 3356TIP3   OH2 9944   7.803   3.064   1.930
 3356TIP3    H1 9945   7.829   2.992   1.873
 3356TIP3    H2 9946   7.789   3.023   2.015
 3357TIP3   OH2 9947   7.710   2.516   2.218
 3357TIP3    H1 9948   7.754   2.435   2.194
 3357TIP3    H2 9949   7.779   2.573   2.252
 3358TIP3   OH2 9950   8.654   1.823   2.257
 3358TIP3    H1 9951   8.699   1.894   2.304
 3358TIP3    H2 9952   8.667   1.843   2.165
 3359TIP3   OH2 9953   8.134   2.013   2.278
 3359TIP3    H1 9954   8.166   1.927   2.304
 3359TIP3    H2 9955   8.089   1.998   2.195
 3360TIP3   OH2 9956   7.417   1.700   2.198
 3360TIP3    H1 9957   7.455   1.736   2.118
 3360TIP3    H2 9958   7.369   1.623   2.169
 3361TIP3   OH2 9959   8.157   1.749   1.913
 3361TIP3    H1 9960   8.233   1.750   1.971
 3361TIP3    H2 9961   8.193   1.762   1.825
 3362TIP3   OH2 9962   7.077   1.879   2.345
 3362TIP3    H1 9963   7.164   1.868   2.383
 3362TIP3    H2 9964   7.072   1.810   2.278
 3363TIP3   OH2 9965   7.513   2.047   2.131
 3363TIP3    H1 9966   7.606   2.048   2.155
 3363TIP3    H2 9967   7.505   1.973   2.071
 3364TIP3   OH2 9968   8.746   2.029   2.415
 3364TIP3    H1 9969   8.679   2.095   2.399
 3364TIP3    H2 9970   8.813   2.075   2.465
 3365TIP3   OH2 9971   7.443   1.676   2.668
 3365TIP3    H1 9972   7.396   1.713   2.592
 3365TIP3    H2 9973   7.385   1.693   2.742
 3366TIP3   OH2 9974   7.773   2.547   1.705
 3366TIP3    H1 9975   7.735   2.502   1.629
 3366TIP3    H2 9976   7.715   2.622   1.719
 3367TIP3   OH2 9977   7.532   2.438   2.418
 3367TIP3    H1 9978   7.481   2.511   2.455
 3367TIP3    H2 9979   7.584   2.478   2.348
 3368TIP3   OH2 9980   8.350   1.795   2.099
 3368TIP3    H1 9981   8.312   1.775   2.185
 3368TIP3    H2 9982   8.398   1.876   2.113
 3369TIP3   OH2 9983   7.328   1.788   2.441
 3369TIP3    H1 9984   7.388   1.859   2.463
 3369TIP3    H2 9985   7.359   1.754   2.357
 3370TIP3   OH2 9986   7.387   2.648   2.534
 3370TIP3    H1 9987   7.374   2.738   2.503
 3370TIP3    H2 9988   7.310   2.628   2.586
 3371TIP3   OH2 9989   8.204   2.863   2.029
 3371TIP3    H1 9990   8.118   2.856   2.071
 3371TIP3    H2 9991   8.200   2.946   1.982
 3372TIP3   OH2 9992   8.486   1.706   2.437
 3372TIP3    H1 9993   8.397   1.726   2.408
 3372TIP3    H2 9994   8.542   1.741   2.368
 3373TIP3   OH2 9995   7.774   1.353   2.408
 3373TIP3    H1 9996   7.768   1.262   2.439
 3373TIP3    H2 9997   7.697   1.396   2.446
 3374TIP3   OH2 9998   7.892   2.902   1.722
 3374TIP3    H1 9999   7.946   2.824   1.713
 3374TIP3    H210000   7.952   2.975   1.703
 3375TIP3   OH210001   8.020   2.663   1.696
 3375TIP3    H110002   7.936   2.620   1.714
 3375TIP3    H210003   8.074   2.642   1.772
 3376TIP3   OH210004   8.437   2.744   2.374
 3376TIP3    H110005   8.418   2.671   2.315
 3376TIP3    H210006   8.421   2.822   2.321
 3377TIP3   OH210007   7.690   2.176   1.691
 3377TIP3    H110008   7.605   2.205   1.659
 3377TIP3    H210009   7.724   2.119   1.621
 3378TIP3   OH210010   7.551   1.998   1.410
 3378TIP3    H110011   7.621   2.062   1.395
 3378TIP3    H210012   7.597   1.920   1.440
 3379TIP3   OH210013   8.589   2.398   2.238
 3379TIP3    H110014   8.513   2.452   2.220
 3379TIP3    H210015   8.642   2.403   2.158
 3380TIP3   OH210016   8.152   2.342   1.772
 3380TIP3    H110017   8.068   2.340   1.818
 3380TIP3    H210018   8.214   2.379   1.835
 3381TIP3   OH210019   8.309   2.267   2.563
 3381TIP3    H110020   8.305   2.351   2.608
 3381TIP3    H210021   8.227   2.262   2.515
 3382TIP3   OH210022   7.319   2.218   2.033
 3382TIP3    H110023   7.260   2.165   1.980
 3382TIP3    H210024   7.389   2.158   2.059
 3383TIP3   OH210025   7.459   2.639   2.153
 3383TIP3    H110026   7.430   2.625   2.063
 3383TIP3    H210027   7.545   2.597   2.156
 3384TIP3   OH210028   7.410   2.193   2.374
 3384TIP3    H110029   7.444   2.155   2.292
 3384TIP3    H210030   7.457   2.276   2.383
 3385TIP3   OH210031   7.973   2.847   2.169
 3385TIP3    H110032   7.951   2.927   2.217
 3385TIP3    H210033   7.953   2.776   2.230
 3386TIP3   OH210034   7.582   2.744   2.707
 3386TIP3    H110035   7.520   2.800   2.753
 3386TIP3    H210036   7.529   2.692   2.647
 3387TIP3   OH210037   7.849   2.017   1.524
 3387TIP3    H110038   7.908   2.049   1.592
 3387TIP3    H210039   7.893   2.039   1.442
 3388TIP3   OH210040   7.332   2.289   2.862
 3388TIP3    H110041   7.337   2.383   2.877
 3388TIP3    H210042   7.239   2.271   2.852
 3389TIP3   OH210043   7.640   2.788   1.712
 3389TIP3    H110044   7.722   2.837   1.723
 3389TIP3    H210045   7.583   2.847   1.663
 3390TIP3   OH210046   7.375   2.903   2.794
 3390TIP3    H110047   7.350   2.915   2.702
 3390TIP3    H210048   7.292   2.888   2.840
 3391TIP3   OH210049   7.159   2.066   1.873
 3391TIP3    H110050   7.202   2.074   1.788
 3391TIP3    H210051   7.130   1.975   1.877
 3392TIP3   OH210052   8.180   2.687   1.065
 3392TIP3    H110053   8.186   2.763   1.123
 3392TIP3    H210054   8.237   2.708   0.991
 3393TIP3   OH210055   6.972   2.464   2.745
 3393TIP3    H110056   6.902   2.445   2.682
 3393TIP3    H210057   7.005   2.378   2.770
 3394TIP3   OH210058   6.811   2.662   2.406
 3394TIP3    H110059   6.901   2.689   2.426
 3394TIP3    H210060   6.758   2.738   2.430
 3395TIP3   OH210061   8.667   3.118   2.447
 3395TIP3    H110062   8.680   3.023   2.447
 3395TIP3    H210063   8.584   3.130   2.493
 3396TIP3   OH210064   7.772   2.892   2.576
 3396TIP3    H110065   7.760   2.983   2.605
 3396TIP3    H210066   7.704   2.844   2.622
 3397TIP3   OH210067   7.538   2.995   1.545
 3397TIP3    H110068   7.493   2.976   1.463
 3397TIP3    H210069   7.504   3.080   1.572
 3398TIP3   OH210070   7.000   2.869   1.907
 3398TIP3    H110071   7.043   2.855   1.991
 3398TIP3    H210072   6.947   2.790   1.894
 3399TIP3   OH210073   7.729   3.030   1.201
 3399TIP3    H110074   7.731   2.943   1.161
 3399TIP3    H210075   7.772   3.019   1.285
 3400TIP3   OH210076   7.800   2.993   1.467
 3400TIP3    H110077   7.709   2.991   1.495
 3400TIP3    H210078   7.849   2.954   1.540
 3401TIP3   OH210079   8.549   2.239   2.735
 3401TIP3    H110080   8.473   2.250   2.678
 3401TIP3    H210081   8.571   2.146   2.728
 3402TIP3   OH210082   7.172   2.651   2.708
 3402TIP3    H110083   7.222   2.638   2.788
 3402TIP3    H210084   7.099   2.589   2.715
 3403TIP3   OH210085   7.542   1.454   2.530
 3403TIP3    H110086   7.457   1.423   2.497
 3403TIP3    H210087   7.522   1.537   2.573
 3404TIP3   OH210088   8.093   1.578   2.724
 3404TIP3    H110089   8.163   1.545   2.780
 3404TIP3    H210090   8.012   1.558   2.772
 3405TIP3   OH210091   8.324   1.997   2.645
 3405TIP3    H110092   8.285   1.998   2.733
 3405TIP3    H210093   8.307   2.085   2.611
 3406TIP3   OH210094   7.935   2.064   1.270
 3406TIP3    H110095   7.876   2.139   1.263
 3406TIP3    H210096   8.011   2.088   1.217
 3407TIP3   OH210097   7.790   1.461   1.564
 3407TIP3    H110098   7.743   1.492   1.642
 3407TIP3    H210099   7.722   1.450   1.498
 3408TIP3   OH210100   7.493   1.989   2.542
 3408TIP3    H110101   7.443   1.999   2.623
 3408TIP3    H210102   7.471   2.067   2.491
 3409TIP3   OH210103   7.800   1.917   1.906
 3409TIP3    H110104   7.713   1.877   1.907
 3409TIP3    H210105   7.803   1.965   1.823
 3410TIP3   OH210106   8.023   2.210   2.856
 3410TIP3    H110107   8.002   2.141   2.919
 3410TIP3    H210108   8.115   2.232   2.874
 3411TIP3   OH210109   8.037   1.965   2.028
 3411TIP3    H110110   7.952   1.967   1.985
 3411TIP3    H210111   8.079   1.886   1.995
 3412TIP3   OH210112   7.322   2.010   2.756
 3412TIP3    H110113   7.329   2.074   2.827
 3412TIP3    H210114   7.304   1.927   2.801
 3413TIP3   OH210115   7.348   1.474   1.467
 3413TIP3    H110116   7.350   1.488   1.562
 3413TIP3    H210117   7.260   1.501   1.441
 3414TIP3   OH210118   6.934   1.542   2.352
 3414TIP3    H110119   6.990   1.567   2.426
 3414TIP3    H210120   6.975   1.582   2.276
 3415TIP3   OH210121   6.817   1.498   1.855
 3415TIP3    H110122   6.858   1.541   1.780
 3415TIP3    H210123   6.752   1.561   1.886
 3416TIP3   OH210124   8.062   2.217   2.437
 3416TIP3    H110125   8.093   2.150   2.377
 3416TIP3    H210126   8.015   2.169   2.505
 3417TIP3   OH210127   7.076   1.677   2.158
 3417TIP3    H110128   7.032   1.716   2.083
 3417TIP3    H210129   7.143   1.621   2.121
 3418TIP3   OH210130   8.210   1.751   2.343
 3418TIP3    H110131   8.173   1.772   2.429
 3418TIP3    H210132   8.148   1.689   2.305
 3419TIP3   OH210133   7.213   1.760   1.577
 3419TIP3    H110134   7.169   1.693   1.524
 3419TIP3    H210135   7.238   1.827   1.514
 3420TIP3   OH210136   8.378   3.447   2.526
 3420TIP3    H110137   8.369   3.466   2.432
 3420TIP3    H210138   8.454   3.499   2.553
 3421TIP3   OH210139   7.322   2.561   2.943
 3421TIP3    H110140   7.403   2.579   2.991
 3421TIP3    H210141   7.252   2.571   3.007
 3422TIP3   OH210142   7.781   2.034   2.220
 3422TIP3    H110143   7.820   1.969   2.161
 3422TIP3    H210144   7.777   1.990   2.305
 3423TIP3   OH210145   7.271   1.486   2.095
 3423TIP3    H110146   7.242   1.412   2.148
 3423TIP3    H210147   7.320   1.447   2.023
 3424TIP3   OH210148   7.755   1.932   2.480
 3424TIP3    H110149   7.668   1.961   2.505
 3424TIP3    H210150   7.815   1.985   2.533
 3425TIP3   OH210151   7.444   2.295   1.600
 3425TIP3    H110152   7.393   2.214   1.606
 3425TIP3    H210153   7.434   2.336   1.686
 3426TIP3   OH210154   8.373   2.555   2.183
 3426TIP3    H110155   8.409   2.600   2.107
 3426TIP3    H210156   8.294   2.512   2.150
 3427TIP3   OH210157   7.942   1.597   1.374
 3427TIP3    H110158   7.895   1.536   1.431
 3427TIP3    H210159   7.968   1.669   1.432
 3428TIP3   OH210160   7.902   2.629   2.610
 3428TIP3    H110161   7.950   2.615   2.691
 3428TIP3    H210162   7.859   2.714   2.620
 3429TIP3   OH210163   7.944   1.766   1.598
 3429TIP3    H110164   8.037   1.769   1.623
 3429TIP3    H210165   7.921   1.857   1.581
 3430TIP3   OH210166   7.172   2.301   2.247
 3430TIP3    H110167   7.215   2.283   2.164
 3430TIP3    H210168   7.231   2.266   2.313
 3431TIP3   OH210169   7.630   2.448   1.473
 3431TIP3    H110170   7.586   2.532   1.456
 3431TIP3    H210171   7.565   2.395   1.520
 3432TIP3   OH210172   7.058   2.224   2.866
 3432TIP3    H110173   7.055   2.191   2.956
 3432TIP3    H210174   6.985   2.180   2.823
 3433TIP3   OH210175   7.799   2.369   2.899
 3433TIP3    H110176   7.728   2.310   2.874
 3433TIP3    H210177   7.878   2.324   2.868
 3434TIP3   OH210178   8.043   2.914   2.502
 3434TIP3    H110179   7.948   2.900   2.505
 3434TIP3    H210180   8.065   2.947   2.589
 3435TIP3   OH210181   8.423   1.960   1.399
 3435TIP3    H110182   8.491   1.917   1.347
 3435TIP3    H210183   8.406   2.042   1.352
 3436TIP3   OH210184   8.685   2.833   2.458
 3436TIP3    H110185   8.592   2.813   2.456
 3436TIP3    H210186   8.719   2.797   2.376
 3437TIP3   OH210187   8.124   2.772   1.383
 3437TIP3    H110188   8.171   2.746   1.463
 3437TIP3    H210189   8.122   2.692   1.330
 3438TIP3   OH210190   8.138   2.409   2.098
 3438TIP3    H110191   8.051   2.385   2.130
 3438TIP3    H210192   8.178   2.325   2.074
 3439TIP3   OH210193   7.301   2.644   1.920
 3439TIP3    H110194   7.298   2.716   1.858
 3439TIP3    H210195   7.212   2.639   1.956
 3440TIP3   OH210196   7.398   2.401   1.840
 3440TIP3    H110197   7.369   2.487   1.868
 3440TIP3    H210198   7.375   2.343   1.913
 3441TIP3   OH210199   7.592   2.964   2.366
 3441TIP3    H110200   7.626   3.040   2.319
 3441TIP3    H210201   7.667   2.933   2.417
 3442TIP3   OH210202   7.229   2.861   1.758
 3442TIP3    H110203   7.143   2.872   1.798
 3442TIP3    H210204   7.270   2.947   1.763
 3443TIP3   OH210205   7.940   2.625   2.337
 3443TIP3    H110206   7.924   2.625   2.431
 3443TIP3    H210207   8.017   2.570   2.325
 3444TIP3   OH210208   8.088   2.514   1.280
 3444TIP3    H110209   8.105   2.478   1.368
 3444TIP3    H210210   7.994   2.502   1.268
 3445TIP3   OH210211   8.194   3.117   2.380
 3445TIP3    H110212   8.125   3.055   2.403
 3445TIP3    H210213   8.157   3.169   2.308
 3446TIP3   OH210214   8.248   2.940   1.151
 3446TIP3    H110215   8.235   2.950   1.057
 3446TIP3    H210216   8.184   3.000   1.191
 3447TIP3   OH210217   7.266   1.757   2.872
 3447TIP3    H110218   7.171   1.767   2.877
 3447TIP3    H210219   7.289   1.706   2.949
 3448TIP3   OH210220   8.061   2.440   1.539
 3448TIP3    H110221   8.095   2.395   1.617
 3448TIP3    H210222   8.038   2.528   1.571
 3449TIP3   OH210223   7.018   2.860   2.525
 3449TIP3    H110224   7.073   2.804   2.579
 3449TIP3    H210225   7.032   2.948   2.560
 3450TIP3   OH210226   7.231   2.472   1.242
 3450TIP3    H110227   7.228   2.382   1.211
 3450TIP3    H210228   7.214   2.465   1.336
 3451TIP3   OH210229   7.197   2.472   1.512
 3451TIP3    H110230   7.265   2.436   1.568
 3451TIP3    H210231   7.207   2.567   1.521
 3452TIP3   OH210232   8.117   1.819   2.594
 3452TIP3    H110233   8.201   1.854   2.621
 3452TIP3    H210234   8.109   1.736   2.642
 3453TIP3   OH210235   7.998   1.557   1.798
 3453TIP3    H110236   7.964   1.601   1.720
 3453TIP3    H210237   8.047   1.624   1.845
 3454TIP3   OH210238   7.495   2.679   1.425
 3454TIP3    H110239   7.409   2.693   1.464
 3454TIP3    H210240   7.515   2.761   1.382
 3455TIP3   OH210241   7.959   2.050   2.628
 3455TIP3    H110242   7.981   2.090   2.712
 3455TIP3    H210243   8.008   1.968   2.627
 3456TIP3   OH210244   7.814   1.478   1.982
 3456TIP3    H110245   7.814   1.556   2.037
 3456TIP3    H210246   7.885   1.493   1.919
 3457TIP3   OH210247   7.241   2.745   1.511
 3457TIP3    H110248   7.213   2.813   1.450
 3457TIP3    H210249   7.236   2.785   1.597
 3458TIP3   OH210250   7.341   1.504   1.740
 3458TIP3    H110251   7.313   1.592   1.763
 3458TIP3    H210252   7.434   1.500   1.765
 3459TIP3   OH210253   8.597   1.979   2.649
 3459TIP3    H110254   8.503   1.961   2.640
 3459TIP3    H210255   8.632   1.971   2.561
 3460TIP3   OH210256   8.239   2.159   2.019
 3460TIP3    H110257   8.165   2.099   2.031
 3460TIP3    H210258   8.309   2.121   2.072
 3461TIP3   OH210259   6.934   2.356   1.488
 3461TIP3    H110260   7.007   2.414   1.510
 3461TIP3    H210261   6.973   2.289   1.432
 3462TIP3   OH210262   6.879   1.649   1.633
 3462TIP3    H110263   6.956   1.697   1.603
 3462TIP3    H210264   6.840   1.614   1.554
 3463TIP3   OH210265   8.215   3.124   1.935
 3463TIP3    H110266   8.168   3.187   1.880
 3463TIP3    H210267   8.307   3.151   1.929
 3464TIP3   OH210268   7.280   1.373   2.485
 3464TIP3    H110269   7.253   1.342   2.399
 3464TIP3    H210270   7.275   1.295   2.541
 3465TIP3   OH210271   6.831   2.659   1.878
 3465TIP3    H110272   6.775   2.673   1.954
 3465TIP3    H210273   6.775   2.677   1.802
 3466TIP3   OH210274   7.020   3.152   2.949
 3466TIP3    H110275   7.103   3.153   2.996
 3466TIP3    H210276   6.999   3.059   2.940
 3467TIP3   OH210277   7.486   3.058   2.992
 3467TIP3    H110278   7.577   3.027   2.999
 3467TIP3    H210279   7.449   3.008   2.919
 3468TIP3   OH210280   7.425   2.635   1.126
 3468TIP3    H110281   7.347   2.617   1.178
 3468TIP3    H210282   7.474   2.552   1.128
 3469TIP3   OH210283   8.101   3.005   2.754
 3469TIP3    H110284   8.119   2.936   2.817
 3469TIP3    H210285   8.173   3.067   2.765
 3470TIP3   OH210286   7.948   2.861   0.991
 3470TIP3    H110287   7.927   2.844   1.082
 3470TIP3    H210288   7.962   2.774   0.952
 3471TIP3   OH210289   7.117   2.572   3.133
 3471TIP3    H110290   7.135   2.479   3.145
 3471TIP3    H210291   7.031   2.575   3.091
 3472TIP3   OH210292   7.064   2.159   1.337
 3472TIP3    H110293   7.099   2.089   1.393
 3472TIP3    H210294   7.136   2.181   1.278
 3473TIP3   OH210295   7.738   2.643   2.912
 3473TIP3    H110296   7.692   2.663   2.830
 3473TIP3    H210297   7.771   2.554   2.899
 3474TIP3   OH210298   7.509   2.376   1.181
 3474TIP3    H110299   7.434   2.382   1.240
 3474TIP3    H210300   7.501   2.290   1.141
 3475TIP3   OH210301   8.217   2.692   2.535
 3475TIP3    H110302   8.292   2.718   2.483
 3475TIP3    H210303   8.151   2.759   2.518
 3476TIP3   OH210304   7.230   2.319   3.146
 3476TIP3    H110305   7.302   2.289   3.090
 3476TIP3    H210306   7.270   2.331   3.232
 3477TIP3   OH210307   7.317   2.054   1.647
 3477TIP3    H110308   7.366   1.985   1.692
 3477TIP3    H210309   7.297   2.018   1.561
 3478TIP3   OH210310   7.595   2.193   2.810
 3478TIP3    H110311   7.507   2.229   2.820
 3478TIP3    H210312   7.622   2.219   2.721
 3479TIP3   OH210313   7.286   1.953   1.389
 3479TIP3    H110314   7.272   1.932   1.297
 3479TIP3    H210315   7.379   1.972   1.396
 3480TIP3   OH210316   8.097   2.563   2.879
 3480TIP3    H110317   8.166   2.525   2.824
 3480TIP3    H210318   8.094   2.506   2.956
 3481TIP3   OH210319   8.146   2.126   1.107
 3481TIP3    H110320   8.126   2.123   1.014
 3481TIP3    H210321   8.186   2.212   1.121
 3482TIP3   OH210322   7.703   1.958   2.906
 3482TIP3    H110323   7.701   1.888   2.841
 3482TIP3    H210324   7.666   2.034   2.861
 3483TIP3   OH210325   7.704   1.758   2.705
 3483TIP3    H110326   7.732   1.794   2.621
 3483TIP3    H210327   7.613   1.731   2.691
 3484TIP3   OH210328   7.697   2.283   2.575
 3484TIP3    H110329   7.786   2.313   2.557
 3484TIP3    H210330   7.642   2.339   2.520
 3485TIP3   OH210331   8.294   2.244   2.941
 3485TIP3    H110332   8.294   2.148   2.931
 3485TIP3    H210333   8.383   2.270   2.918
 3486TIP3   OH210334   8.337   2.512   2.699
 3486TIP3    H110335   8.285   2.575   2.649
 3486TIP3    H210336   8.426   2.525   2.668
 3487TIP3   OH210337   7.591   2.035   3.154
 3487TIP3    H110338   7.520   1.974   3.174
 3487TIP3    H210339   7.616   2.014   3.064
 3488TIP3   OH210340   7.829   1.529   2.809
 3488TIP3    H110341   7.788   1.609   2.775
 3488TIP3    H210342   7.762   1.461   2.795
 3489TIP3   OH210343   7.958   1.991   3.010
 3489TIP3    H110344   7.945   1.977   3.103
 3489TIP3    H210345   7.874   1.972   2.970
 3490TIP3   OH210346   8.217   1.980   2.895
 3490TIP3    H110347   8.133   1.964   2.939
 3490TIP3    H210348   8.281   1.933   2.948
 3491TIP3   OH210349   8.430   1.891   3.041
 3491TIP3    H110350   8.442   1.796   3.042
 3491TIP3    H210351   8.429   1.917   3.133
 3492TIP3   OH210352   7.424   1.814   3.214
 3492TIP3    H110353   7.428   1.725   3.177
 3492TIP3    H210354   7.463   1.805   3.301
 3493TIP3   OH210355   7.892   1.502   3.075
 3493TIP3    H110356   7.960   1.435   3.067
 3493TIP3    H210357   7.863   1.516   2.985
 3494TIP3   OH210358   7.993   1.712   3.221
 3494TIP3    H110359   7.962   1.640   3.167
 3494TIP3    H210360   7.921   1.775   3.222
 3495TIP3   OH210361   7.215   2.955   1.332
 3495TIP3    H110362   7.310   2.952   1.316
 3495TIP3    H210363   7.180   3.003   1.257
 3496TIP3   OH210364   6.714   2.227   1.604
 3496TIP3    H110365   6.791   2.284   1.601
 3496TIP3    H210366   6.703   2.197   1.514
 3497TIP3   OH210367   6.616   2.935   1.965
 3497TIP3    H110368   6.553   2.880   1.919
 3497TIP3    H210369   6.659   2.876   2.026
 3498TIP3   OH210370   6.753   2.770   2.139
 3498TIP3    H110371   6.749   2.699   2.204
 3498TIP3    H210372   6.809   2.836   2.179
 3499TIP3   OH210373   8.473   3.212   1.954
 3499TIP3    H110374   8.492   3.219   2.047
 3499TIP3    H210375   8.511   3.292   1.916
 3500TIP3   OH210376   8.501   3.207   2.227
 3500TIP3    H110377   8.457   3.121   2.226
 3500TIP3    H210378   8.577   3.194   2.284
 3501TIP3   OH210379   8.579   2.905   2.794
 3501TIP3    H110380   8.507   2.915   2.856
 3501TIP3    H210381   8.623   2.990   2.796
 3502TIP3   OH210382   8.448   2.453   1.449
 3502TIP3    H110383   8.525   2.440   1.393
 3502TIP3    H210384   8.438   2.371   1.496
 3503TIP3   OH210385   8.454   2.374   1.790
 3503TIP3    H110386   8.411   2.332   1.715
 3503TIP3    H210387   8.500   2.303   1.834
 3504TIP3   OH210388   8.560   2.692   2.022
 3504TIP3    H110389   8.584   2.652   1.938
 3504TIP3    H210390   8.552   2.785   2.002
 3505TIP3   OH210391   8.367   2.965   2.228
 3505TIP3    H110392   8.300   3.008   2.280
 3505TIP3    H210393   8.320   2.926   2.155
 3506TIP3   OH210394   8.402   2.197   1.260
 3506TIP3    H110395   8.313   2.223   1.287
 3506TIP3    H210396   8.449   2.280   1.251
 3507TIP3   OH210397   8.401   1.707   1.110
 3507TIP3    H110398   8.462   1.780   1.112
 3507TIP3    H210399   8.315   1.748   1.120
 3508TIP3   OH210400   8.272   2.043   1.763
 3508TIP3    H110401   8.341   1.977   1.758
 3508TIP3    H210402   8.279   2.079   1.852
 3509TIP3   OH210403   6.931   2.198   2.499
 3509TIP3    H110404   6.919   2.165   2.409
 3509TIP3    H210405   7.025   2.192   2.514
 3510TIP3   OH210406   8.596   2.553   2.602
 3510TIP3    H110407   8.661   2.485   2.587
 3510TIP3    H210408   8.612   2.619   2.534
 3511TIP3   OH210409   8.772   2.337   2.600
 3511TIP3    H110410   8.699   2.304   2.652
 3511TIP3    H210411   8.840   2.270   2.609
 3512TIP3   OH210412   8.212   1.733   1.644
 3512TIP3    H110413   8.286   1.682   1.678
 3512TIP3    H210414   8.222   1.728   1.549
 3513TIP3   OH210415   8.461   2.049   2.144
 3513TIP3    H110416   8.545   2.074   2.105
 3513TIP3    H210417   8.468   2.076   2.236
 3514TIP3   OH210418   8.517   2.182   2.387
 3514TIP3    H110419   8.443   2.211   2.441
 3514TIP3    H210420   8.541   2.259   2.337
 3515TIP3   OH210421   7.165   1.890   3.160
 3515TIP3    H110422   7.259   1.880   3.176
 3515TIP3    H210423   7.126   1.810   3.194
 3516TIP3   OH210424   8.412   1.578   1.735
 3516TIP3    H110425   8.486   1.567   1.794
 3516TIP3    H210426   8.355   1.503   1.755
 3517TIP3   OH210427   7.130   1.600   2.540
 3517TIP3    H110428   7.182   1.521   2.529
 3517TIP3    H210429   7.186   1.671   2.510
 3518TIP3   OH210430   6.899   1.860   2.563
 3518TIP3    H110431   6.952   1.856   2.482
 3518TIP3    H210432   6.934   1.936   2.610
 3519TIP3   OH210433   8.838   1.893   2.755
 3519TIP3    H110434   8.752   1.935   2.760
 3519TIP3    H210435   8.825   1.818   2.696
 3520TIP3   OH210436   6.883   1.311   2.045
 3520TIP3    H110437   6.808   1.318   2.104
 3520TIP3    H210438   6.874   1.386   1.986
 3521TIP3   OH210439   8.037   3.110   1.637
 3521TIP3    H110440   8.100   3.098   1.566
 3521TIP3    H210441   8.069   3.186   1.685
 3522TIP3   OH210442   7.124   1.412   2.898
 3522TIP3    H110443   7.078   1.415   2.982
 3522TIP3    H210444   7.069   1.464   2.839
 3523TIP3   OH210445   7.152   2.874   2.960
 3523TIP3    H110446   7.058   2.858   2.950
 3523TIP3    H210447   7.170   2.859   3.052
 3524TIP3   OH210448   7.363   2.926   2.512
 3524TIP3    H110449   7.312   3.002   2.481
 3524TIP3    H210450   7.448   2.935   2.469
 3525TIP3   OH210451   7.752   3.158   2.653
 3525TIP3    H110452   7.790   3.150   2.740
 3525TIP3    H210453   7.814   3.212   2.604
 3526TIP3   OH210454   7.944   3.308   2.524
 3526TIP3    H110455   8.001   3.255   2.468
 3526TIP3    H210456   8.003   3.360   2.577
 3527TIP3   OH210457   8.713   1.676   2.611
 3527TIP3    H110458   8.632   1.700   2.566
 3527TIP3    H210459   8.746   1.601   2.561
 3528TIP3   OH210460   7.023   3.155   2.560
 3528TIP3    H110461   6.932   3.171   2.535
 3528TIP3    H210462   7.043   3.223   2.624
 3529TIP3   OH210463   7.254   3.159   2.411
 3529TIP3    H110464   7.171   3.161   2.458
 3529TIP3    H210465   7.231   3.183   2.321
 3530TIP3   OH210466   7.662   3.178   2.204
 3530TIP3    H110467   7.589   3.187   2.143
 3530TIP3    H210468   7.672   3.265   2.243
 3531TIP3   OH210469   7.921   3.105   2.257
 3531TIP3    H110470   7.831   3.131   2.238
 3531TIP3    H210471   7.975   3.168   2.209
 3532TIP3   OH210472   8.122   3.265   2.153
 3532TIP3    H110473   8.133   3.355   2.122
 3532TIP3    H210474   8.150   3.211   2.080
 3533TIP3   OH210475   6.933   2.945   2.274
 3533TIP3    H110476   6.955   2.921   2.364
 3533TIP3    H210477   7.006   2.912   2.221
 3534TIP3   OH210478   7.141   2.834   2.140
 3534TIP3    H110479   7.151   2.748   2.181
 3534TIP3    H210480   7.229   2.873   2.145
 3535TIP3   OH210481   7.409   2.914   2.162
 3535TIP3    H110482   7.428   2.821   2.147
 3535TIP3    H210483   7.463   2.937   2.238
 3536TIP3   OH210484   8.021   1.573   2.248
 3536TIP3    H110485   7.961   1.506   2.281
 3536TIP3    H210486   8.074   1.528   2.183
 3537TIP3   OH210487   8.456   1.453   2.122
 3537TIP3    H110488   8.501   1.512   2.061
 3537TIP3    H210489   8.364   1.478   2.117
 3538TIP3   OH210490   8.617   1.547   1.919
 3538TIP3    H110491   8.694   1.497   1.892
 3538TIP3    H210492   8.648   1.637   1.926
 3539TIP3   OH210493   7.205   1.262   2.243
 3539TIP3    H110494   7.116   1.227   2.254
 3539TIP3    H210495   7.261   1.184   2.238
 3540TIP3   OH210496   7.036   1.149   1.885
 3540TIP3    H110497   7.061   1.214   1.819
 3540TIP3    H210498   6.984   1.198   1.948
 3541TIP3   OH210499   7.683   1.294   2.146
 3541TIP3    H110500   7.719   1.364   2.092
 3541TIP3    H210501   7.714   1.313   2.234
 3542TIP3   OH210502   8.180   1.430   2.077
 3542TIP3    H110503   8.192   1.404   1.985
 3542TIP3    H210504   8.163   1.348   2.123
 3543TIP3   OH210505   8.222   1.389   1.793
 3543TIP3    H110506   8.142   1.439   1.781
 3543TIP3    H210507   8.194   1.297   1.792
 3544TIP3   OH210508   6.683   2.741   1.655
 3544TIP3    H110509   6.597   2.717   1.621
 3544TIP3    H210510   6.695   2.832   1.629
 3545TIP3   OH210511   7.135   1.315   1.681
 3545TIP3    H110512   7.183   1.258   1.621
 3545TIP3    H210513   7.200   1.379   1.711
 3546TIP3   OH210514   7.621   1.522   1.787
 3546TIP3    H110515   7.679   1.495   1.858
 3546TIP3    H210516   7.590   1.608   1.813
 3547TIP3   OH210517   7.482   2.929   1.277
 3547TIP3    H110518   7.552   2.989   1.253
 3547TIP3    H210519   7.472   2.872   1.201
 3548TIP3   OH210520   8.194   3.047   1.421
 3548TIP3    H110521   8.172   2.954   1.409
 3548TIP3    H210522   8.146   3.091   1.351
 3549TIP3   OH210523   7.438   1.543   3.129
 3549TIP3    H110524   7.401   1.476   3.188
 3549TIP3    H210525   7.529   1.551   3.156
 3550TIP3   OH210526   7.682   1.551   3.257
 3550TIP3    H110527   7.758   1.529   3.203
 3550TIP3    H210528   7.676   1.479   3.320
 3551TIP3   OH210529   6.794   2.747   1.330
 3551TIP3    H110530   6.801   2.761   1.424
 3551TIP3    H210531   6.875   2.701   1.306
 3552TIP3   OH210532   8.492   1.624   3.039
 3552TIP3    H110533   8.516   1.593   3.126
 3552TIP3    H210534   8.574   1.624   2.990
 3553TIP3   OH210535   8.413   3.174   2.543
 3553TIP3    H110536   8.340   3.142   2.491
 3553TIP3    H210537   8.403   3.269   2.544
 3554TIP3   OH210538   8.638   2.084   1.750
 3554TIP3    H110539   8.632   2.107   1.657
 3554TIP3    H210540   8.586   2.003   1.757
 3555TIP3   OH210541   8.769   2.314   1.785
 3555TIP3    H110542   8.721   2.231   1.778
 3555TIP3    H210543   8.757   2.356   1.700
 3556TIP3   OH210544   8.664   2.621   1.312
 3556TIP3    H110545   8.577   2.658   1.294
 3556TIP3    H210546   8.700   2.677   1.381
 3557TIP3   OH210547   8.762   2.719   2.218
 3557TIP3    H110548   8.695   2.696   2.154
 3557TIP3    H210549   8.785   2.636   2.260
 3558TIP3   OH210550   8.575   2.955   1.937
 3558TIP3    H110551   8.663   2.985   1.958
 3558TIP3    H210552   8.520   3.033   1.948
 3559TIP3   OH210553   8.819   3.139   1.372
 3559TIP3    H110554   8.867   3.149   1.454
 3559TIP3    H210555   8.757   3.069   1.388
 3560TIP3   OH210556   8.885   2.964   2.221
 3560TIP3    H110557   8.959   2.949   2.280
 3560TIP3    H210558   8.842   2.879   2.214
 3561TIP3   OH210559   8.729   1.790   1.872
 3561TIP3    H110560   8.810   1.838   1.853
 3561TIP3    H210561   8.705   1.750   1.788
 3562TIP3   OH210562   8.805   2.495   2.373
 3562TIP3    H110563   8.825   2.445   2.452
 3562TIP3    H210564   8.734   2.447   2.331
 3563TIP3   OH210565   8.649   2.341   1.285
 3563TIP3    H110566   8.671   2.432   1.266
 3563TIP3    H210567   8.666   2.294   1.204
 3564TIP3   OH210568   8.789   3.114   2.012
 3564TIP3    H110569   8.829   3.066   2.085
 3564TIP3    H210570   8.807   3.206   2.032
 3565TIP3   OH210571   8.612   2.970   1.439
 3565TIP3    H110572   8.564   3.000   1.516
 3565TIP3    H210573   8.557   2.996   1.365
 3566TIP3   OH210574   8.766   3.380   2.449
 3566TIP3    H110575   8.852   3.370   2.489
 3566TIP3    H210576   8.730   3.292   2.446
 3567TIP3   OH210577   8.913   2.887   2.618
 3567TIP3    H110578   8.946   2.813   2.669
 3567TIP3    H210579   8.832   2.855   2.577
 3568TIP3   OH210580   8.590   2.696   0.980
 3568TIP3    H110581   8.679   2.697   1.015
 3568TIP3    H210582   8.545   2.629   1.031
 3569TIP3   OH210583   8.407   3.213   1.480
 3569TIP3    H110584   8.338   3.158   1.445
 3569TIP3    H210585   8.438   3.167   1.558
 3570TIP3   OH210586   8.508   3.051   1.676
 3570TIP3    H110587   8.497   2.989   1.748
 3570TIP3    H210588   8.577   3.111   1.706
 3571TIP3   OH210589   8.777   2.409   2.037
 3571TIP3    H110590   8.769   2.388   1.944
 3571TIP3    H210591   8.857   2.461   2.043
 3572TIP3   OH210592   8.934   2.113   2.614
 3572TIP3    H110593   9.029   2.107   2.611
 3572TIP3    H210594   8.907   2.038   2.666
 3573TIP3   OH210595   8.712   2.134   2.072
 3573TIP3    H110596   8.785   2.090   2.029
 3573TIP3    H210597   8.736   2.227   2.072
 3574TIP3   OH210598   8.945   3.142   2.519
 3574TIP3    H110599   8.863   3.139   2.468
 3574TIP3    H210600   8.953   3.055   2.556
 3575TIP3   OH210601   8.820   3.387   2.031
 3575TIP3    H110602   8.734   3.417   1.999
 3575TIP3    H210603   8.843   3.448   2.100
 3576TIP3   OH210604   9.006   3.295   1.827
 3576TIP3    H110605   8.957   3.319   1.905
 3576TIP3    H210606   9.009   3.375   1.774
 3577TIP3   OH210607   8.721   3.201   1.751
 3577TIP3    H110608   8.742   3.182   1.842
 3577TIP3    H210609   8.800   3.176   1.703
 3578TIP3   OH210610   8.950   3.121   1.619
 3578TIP3    H110611   9.004   3.042   1.618
 3578TIP3    H210612   8.990   3.176   1.686
 3579TIP3   OH210613   8.483   3.060   1.218
 3579TIP3    H110614   8.401   3.015   1.202
 3579TIP3    H210615   8.470   3.148   1.182
 3580TIP3   OH210616   8.640   2.930   0.754
 3580TIP3    H110617   8.582   2.962   0.824
 3580TIP3    H210618   8.727   2.928   0.794
 3581TIP3   OH210619   0.348   3.095   3.503
 3581TIP3    H110620   0.320   3.182   3.476
 3581TIP3    H210621   0.284   3.036   3.464
 3582TIP3   OH210622   0.382   3.097   3.897
 3582TIP3    H110623   0.419   3.072   3.982
 3582TIP3    H210624   0.358   3.014   3.856
 3583TIP3   OH210625   9.489   2.916   4.256
 3583TIP3    H110626   9.522   2.874   4.336
 3583TIP3    H210627   9.567   2.942   4.208
 3584TIP3   OH210628   0.636   3.399   3.583
 3584TIP3    H110629   0.625   3.332   3.651
 3584TIP3    H210630   0.651   3.480   3.631
 3585TIP3   OH210631   9.487   3.359   3.853
 3585TIP3    H110632   9.465   3.274   3.891
 3585TIP3    H210633   9.582   3.360   3.850
 3586TIP3   OH210634   0.272   3.828   3.600
 3586TIP3    H110635   0.301   3.763   3.537
 3586TIP3    H210636   0.286   3.787   3.685
 3587TIP3   OH210637   0.202   3.311   3.905
 3587TIP3    H110638   0.253   3.233   3.880
 3587TIP3    H210639   0.267   3.369   3.945
 3588TIP3   OH210640   1.202   2.621   3.950
 3588TIP3    H110641   1.217   2.705   3.993
 3588TIP3    H210642   1.245   2.629   3.865
 3589TIP3   OH210643   0.555   2.788   3.963
 3589TIP3    H110644   0.599   2.709   3.992
 3589TIP3    H210645   0.531   2.772   3.872
 3590TIP3   OH210646   2.355   3.421   1.555
 3590TIP3    H110647   2.361   3.502   1.505
 3590TIP3    H210648   2.292   3.367   1.507
 3591TIP3   OH210649   0.644   2.582   3.569
 3591TIP3    H110650   0.710   2.568   3.636
 3591TIP3    H210651   0.693   2.608   3.492
 3592TIP3   OH210652   9.378   2.532   3.963
 3592TIP3    H110653   9.331   2.481   4.029
 3592TIP3    H210654   9.369   2.622   3.992
 3593TIP3   OH210655  -0.018   2.845   3.841
 3593TIP3    H110656   0.076   2.840   3.861
 3593TIP3    H210657  -0.036   2.763   3.794
 3594TIP3   OH210658   1.244   2.855   4.094
 3594TIP3    H110659   1.152   2.881   4.104
 3594TIP3    H210660   1.288   2.890   4.171
 3595TIP3   OH210661   9.713   2.434   4.359
 3595TIP3    H110662   9.657   2.482   4.299
 3595TIP3    H210663   9.673   2.447   4.445
 3596TIP3   OH210664   0.259   3.313   3.361
 3596TIP3    H110665   0.232   3.291   3.271
 3596TIP3    H210666   0.202   3.386   3.385
 3597TIP3   OH210667   0.030   3.211   4.097
 3597TIP3    H110668  -0.012   3.281   4.145
 3597TIP3    H210669   0.081   3.256   4.029
 3598TIP3   OH210670   0.807   2.579   3.785
 3598TIP3    H110671   0.763   2.563   3.868
 3598TIP3    H210672   0.861   2.656   3.800
 3599TIP3   OH210673   9.565   2.573   4.181
 3599TIP3    H110674   9.630   2.643   4.175
 3599TIP3    H210675   9.531   2.565   4.092
 3600TIP3   OH210676   9.691   3.396   4.246
 3600TIP3    H110677   9.664   3.459   4.180
 3600TIP3    H210678   9.618   3.393   4.308
 3601TIP3   OH210679   0.653   3.643   3.724
 3601TIP3    H110680   0.564   3.634   3.757
 3601TIP3    H210681   0.653   3.726   3.676
 3602TIP3   OH210682   1.001   2.512   4.107
 3602TIP3    H110683   0.919   2.533   4.064
 3602TIP3    H210684   1.069   2.539   4.045
 3603TIP3   OH210685   0.218   2.186   4.031
 3603TIP3    H110686   0.240   2.099   4.063
 3603TIP3    H210687   0.140   2.211   4.080
 3604TIP3   OH210688   0.364   3.676   3.389
 3604TIP3    H110689   0.419   3.599   3.376
 3604TIP3    H210690   0.418   3.749   3.357
 3605TIP3   OH210691   0.505   3.449   3.346
 3605TIP3    H110692   0.436   3.383   3.348
 3605TIP3    H210693   0.562   3.425   3.419
 3606TIP3   OH210694   0.888   3.530   4.055
 3606TIP3    H110695   0.883   3.457   3.993
 3606TIP3    H210696   0.871   3.608   4.001
 3607TIP3   OH210697   0.184   2.938   3.340
 3607TIP3    H110698   0.110   2.989   3.306
 3607TIP3    H210699   0.240   2.923   3.264
 3608TIP3   OH210700   1.082   3.166   3.934
 3608TIP3    H110701   1.007   3.222   3.910
 3608TIP3    H210702   1.094   3.110   3.857
 3609TIP3   OH210703   0.544   3.065   3.310
 3609TIP3    H110704   0.485   3.084   3.383
 3609TIP3    H210705   0.621   3.025   3.350
 3610TIP3   OH210706   0.760   3.052   4.251
 3610TIP3    H110707   0.763   3.137   4.296
 3610TIP3    H210708   0.677   3.052   4.204
 3611TIP3   OH210709   9.563   2.975   3.731
 3611TIP3    H110710   9.569   2.953   3.638
 3611TIP3    H210711   9.640   2.935   3.770
 3612TIP3   OH210712   9.757   3.406   3.817
 3612TIP3    H110713   9.749   3.403   3.722
 3612TIP3    H210714   9.846   3.376   3.835
 3613TIP3   OH210715   9.688   2.980   4.074
 3613TIP3    H110716   9.720   2.941   3.992
 3613TIP3    H210717   9.737   3.062   4.082
 3614TIP3   OH210718   0.410   3.626   3.849
 3614TIP3    H110719   0.409   3.710   3.894
 3614TIP3    H210720   0.405   3.561   3.920
 3615TIP3   OH210721   0.091   3.520   4.397
 3615TIP3    H110722   0.038   3.578   4.451
 3615TIP3    H210723   0.027   3.469   4.347
 3616TIP3   OH210724   0.397   2.883   3.163
 3616TIP3    H110725   0.451   2.952   3.202
 3616TIP3    H210726   0.416   2.887   3.069
 3617TIP3   OH210727   9.681   3.125   4.416
 3617TIP3    H110728   9.703   3.208   4.373
 3617TIP3    H210729   9.627   3.150   4.491
 3618TIP3   OH210730   0.119   3.549   3.399
 3618TIP3    H110731   0.204   3.592   3.410
 3618TIP3    H210732   0.066   3.612   3.350
 3619TIP3   OH210733   9.710   3.701   4.500
 3619TIP3    H110734   9.698   3.725   4.408
 3619TIP3    H210735   9.622   3.678   4.531
 3620TIP3   OH210736   0.690   3.498   2.737
 3620TIP3    H110737   0.692   3.591   2.717
 3620TIP3    H210738   0.777   3.466   2.712
 3621TIP3   OH210739   9.250   3.269   4.467
 3621TIP3    H110740   9.170   3.273   4.415
 3621TIP3    H210741   9.246   3.184   4.511
 3622TIP3   OH210742   1.119   3.879   4.139
 3622TIP3    H110743   1.123   3.785   4.153
 3622TIP3    H210744   1.043   3.908   4.188
 3623TIP3   OH210745   0.253   3.674   4.240
 3623TIP3    H110746   0.253   3.763   4.275
 3623TIP3    H210747   0.195   3.625   4.298
 3624TIP3   OH210748   9.821   3.731   3.208
 3624TIP3    H110749   9.776   3.762   3.130
 3624TIP3    H210750   9.789   3.787   3.279
 3625TIP3   OH210751   9.371   3.533   3.624
 3625TIP3    H110752   9.408   3.613   3.659
 3625TIP3    H210753   9.320   3.496   3.696
 3626TIP3   OH210754   0.212   3.689   2.842
 3626TIP3    H110755   0.273   3.624   2.807
 3626TIP3    H210756   0.247   3.709   2.929
 3627TIP3   OH210757   0.275   3.752   3.104
 3627TIP3    H110758   0.192   3.741   3.150
 3627TIP3    H210759   0.342   3.723   3.167
 3628TIP3   OH210760   1.011   3.002   4.407
 3628TIP3    H110761   0.926   3.008   4.365
 3628TIP3    H210762   1.032   2.908   4.407
 3629TIP3   OH210763   9.466   3.431   4.402
 3629TIP3    H110764   9.521   3.445   4.480
 3629TIP3    H210765   9.395   3.375   4.433
 3630TIP3   OH210766   9.794   2.236   4.186
 3630TIP3    H110767   9.710   2.209   4.149
 3630TIP3    H210768   9.771   2.307   4.246
 3631TIP3   OH210769   0.558   2.365   4.422
 3631TIP3    H110770   0.630   2.339   4.480
 3631TIP3    H210771   0.479   2.349   4.474
 3632TIP3   OH210772   0.766   2.787   4.331
 3632TIP3    H110773   0.730   2.780   4.420
 3632TIP3    H210774   0.751   2.878   4.306
 3633TIP3   OH210775   0.461   2.908   2.897
 3633TIP3    H110776   0.392   2.957   2.852
 3633TIP3    H210777   0.542   2.931   2.850
 3634TIP3   OH210778   9.763   2.766   4.232
 3634TIP3    H110779   9.731   2.780   4.321
 3634TIP3    H210780   9.746   2.848   4.187
 3635TIP3   OH210781   0.297   2.732   3.493
 3635TIP3    H110782   0.252   2.804   3.448
 3635TIP3    H210783   0.361   2.701   3.429
 3636TIP3   OH210784   0.503   2.990   4.542
 3636TIP3    H110785   0.476   2.924   4.606
 3636TIP3    H210786   0.595   3.008   4.563
 3637TIP3   OH210787   0.474   2.746   3.708
 3637TIP3    H110788   0.405   2.765   3.644
 3637TIP3    H210789   0.530   2.682   3.665
 3638TIP3   OH210790   9.616   2.781   4.471
 3638TIP3    H110791   9.622   2.836   4.549
 3638TIP3    H210792   9.599   2.694   4.504
 3639TIP3   OH210793   0.507   2.996   4.131
 3639TIP3    H110794   0.534   2.926   4.071
 3639TIP3    H210795   0.462   2.950   4.202
 3640TIP3   OH210796   0.197   2.471   3.891
 3640TIP3    H110797   0.175   2.496   3.802
 3640TIP3    H210798   0.189   2.552   3.942
 3641TIP3   OH210799   0.657   2.533   4.015
 3641TIP3    H110800   0.635   2.551   4.106
 3641TIP3    H210801   0.602   2.459   3.991
 3642TIP3   OH210802   0.845   4.239   4.227
 3642TIP3    H110803   0.841   4.252   4.133
 3642TIP3    H210804   0.924   4.284   4.256
 3643TIP3   OH210805   9.663   3.404   4.593
 3643TIP3    H110806   9.710   3.437   4.669
 3643TIP3    H210807   9.617   3.326   4.625
 3644TIP3   OH210808   0.240   2.767   3.900
 3644TIP3    H110809   0.326   2.752   3.860
 3644TIP3    H210810   0.254   2.753   3.993
 3645TIP3   OH210811   0.225   2.706   4.168
 3645TIP3    H110812   0.139   2.738   4.194
 3645TIP3    H210813   0.286   2.756   4.223
 3646TIP3   OH210814   9.757   3.124   3.277
 3646TIP3    H110815   9.677   3.165   3.243
 3646TIP3    H210816   9.744   3.125   3.372
 3647TIP3   OH210817   0.864   3.327   3.868
 3647TIP3    H110818   0.899   3.373   3.792
 3647TIP3    H210819   0.781   3.292   3.838
 3648TIP3   OH210820   0.365   3.382   4.317
 3648TIP3    H110821   0.422   3.369   4.392
 3648TIP3    H210822   0.310   3.457   4.342
 3649TIP3   OH210823   0.482   2.656   3.301
 3649TIP3    H110824   0.577   2.660   3.298
 3649TIP3    H210825   0.453   2.724   3.240
 3650TIP3   OH210826   9.421   3.093   3.935
 3650TIP3    H110827   9.466   3.048   3.864
 3650TIP3    H210828   9.471   3.070   4.014
 3651TIP3   OH210829   0.144   3.255   3.110
 3651TIP3    H110830   0.092   3.332   3.089
 3651TIP3    H210831   0.084   3.197   3.157
 3652TIP3   OH210832   9.317   3.010   4.559
 3652TIP3    H110833   9.295   2.999   4.652
 3652TIP3    H210834   9.287   2.929   4.518
 3653TIP3   OH210835   0.271   3.140   4.579
 3653TIP3    H110836   0.206   3.079   4.545
 3653TIP3    H210837   0.355   3.103   4.552
 3654TIP3   OH210838   0.520   3.699   4.174
 3654TIP3    H110839   0.426   3.680   4.178
 3654TIP3    H210840   0.540   3.738   4.259
 3655TIP3   OH210841   0.906   2.741   3.083
 3655TIP3    H110842   0.844   2.691   3.029
 3655TIP3    H210843   0.905   2.829   3.045
 3656TIP3   OH210844   1.133   3.595   4.151
 3656TIP3    H110845   1.039   3.585   4.140
 3656TIP3    H210846   1.170   3.573   4.066
 3657TIP3   OH210847   0.607   3.553   3.007
 3657TIP3    H110848   0.596   3.481   3.069
 3657TIP3    H210849   0.651   3.513   2.932
 3658TIP3   OH210850   0.625   3.203   3.783
 3658TIP3    H110851   0.537   3.187   3.817
 3658TIP3    H210852   0.653   3.117   3.751
 3659TIP3   OH210853   9.626   3.422   3.569
 3659TIP3    H110854   9.644   3.489   3.502
 3659TIP3    H210855   9.541   3.446   3.605
 3660TIP3   OH210856   9.676   3.155   3.541
 3660TIP3    H110857   9.665   3.250   3.538
 3660TIP3    H210858   9.647   3.130   3.629
 3661TIP3   OH210859   0.074   3.751   4.048
 3661TIP3    H110860   0.109   3.830   4.006
 3661TIP3    H210861   0.147   3.718   4.100
 3662TIP3   OH210862   9.554   3.651   3.410
 3662TIP3    H110863   9.495   3.676   3.481
 3662TIP3    H210864   9.625   3.715   3.413
 3663TIP3   OH210865   0.414   3.421   4.046
 3663TIP3    H110866   0.390   3.410   4.138
 3663TIP3    H210867   0.508   3.400   4.044
 3664TIP3   OH210868   0.364   3.280   2.914
 3664TIP3    H110869   0.434   3.266   2.977
 3664TIP3    H210870   0.284   3.269   2.965
 3665TIP3   OH210871   0.651   3.931   4.076
 3665TIP3    H110872   0.585   3.861   4.085
 3665TIP3    H210873   0.626   3.978   3.997
 3666TIP3   OH210874   0.716   3.774   2.709
 3666TIP3    H110875   0.769   3.849   2.683
 3666TIP3    H210876   0.635   3.812   2.743
 3667TIP3   OH210877   9.593   2.503   4.602
 3667TIP3    H110878   9.535   2.551   4.660
 3667TIP3    H210879   9.634   2.437   4.657
 3668TIP3   OH210880   0.565   3.235   3.088
 3668TIP3    H110881   0.551   3.186   3.169
 3668TIP3    H210882   0.659   3.229   3.071
 3669TIP3   OH210883   9.224   3.679   4.279
 3669TIP3    H110884   9.155   3.615   4.266
 3669TIP3    H210885   9.268   3.652   4.360
 3670TIP3   OH210886   9.517   3.275   3.210
 3670TIP3    H110887   9.455   3.237   3.148
 3670TIP3    H210888   9.526   3.366   3.183
 3671TIP3   OH210889   0.582   2.591   4.270
 3671TIP3    H110890   0.658   2.640   4.303
 3671TIP3    H210891   0.576   2.515   4.329
 3672TIP3   OH210892   0.461   2.397   3.473
 3672TIP3    H110893   0.448   2.439   3.388
 3672TIP3    H210894   0.526   2.452   3.517
 3673TIP3   OH210895   9.787   3.479   3.087
 3673TIP3    H110896   9.693   3.486   3.108
 3673TIP3    H210897   9.828   3.547   3.140
 3674TIP3   OH210898   0.170   2.520   3.616
 3674TIP3    H110899   0.220   2.595   3.584
 3674TIP3    H210900   0.118   2.491   3.541
 3675TIP3   OH210901   0.420   2.821   4.328
 3675TIP3    H110902   0.448   2.868   4.406
 3675TIP3    H210903   0.475   2.742   4.326
 3676TIP3   OH210904   0.321   2.296   3.702
 3676TIP3    H110905   0.270   2.365   3.659
 3676TIP3    H210906   0.390   2.275   3.640
 3677TIP3   OH210907   9.529   3.546   3.155
 3677TIP3    H110908   9.485   3.612   3.102
 3677TIP3    H210909   9.528   3.583   3.244
 3678TIP3   OH210910   1.029   2.723   4.310
 3678TIP3    H110911   0.935   2.738   4.319
 3678TIP3    H210912   1.036   2.656   4.242
 3679TIP3   OH210913   0.697   2.938   3.714
 3679TIP3    H110914   0.624   2.878   3.725
 3679TIP3    H210915   0.768   2.899   3.764
 3680TIP3   OH210916   0.679   3.905   3.632
 3680TIP3    H110917   0.639   3.961   3.565
 3680TIP3    H210918   0.773   3.919   3.623
 3681TIP3   OH210919   1.669   4.475   1.288
 3681TIP3    H110920   1.606   4.482   1.216
 3681TIP3    H210921   1.736   4.415   1.255
 3682TIP3   OH210922  -0.018   3.878   4.696
 3682TIP3    H110923   0.070   3.856   4.726
 3682TIP3    H210924  -0.037   3.815   4.627
 3683TIP3   OH210925   0.567   3.800   4.422
 3683TIP3    H110926   0.570   3.726   4.483
 3683TIP3    H210927   0.642   3.854   4.447
 3684TIP3   OH210928   0.397   3.502   2.750
 3684TIP3    H110929   0.376   3.427   2.807
 3684TIP3    H210930   0.491   3.515   2.762
 3685TIP3   OH210931   9.370   3.307   4.862
 3685TIP3    H110932   9.443   3.274   4.809
 3685TIP3    H210933   9.328   3.372   4.806
 3686TIP3   OH210934   0.222   3.412   4.611
 3686TIP3    H110935   0.179   3.437   4.529
 3686TIP3    H210936   0.251   3.322   4.597
 3687TIP3   OH210937   0.667   3.464   4.200
 3687TIP3    H110938   0.748   3.490   4.156
 3687TIP3    H210939   0.611   3.542   4.196
 3688TIP3   OH210940   9.623   3.012   4.811
 3688TIP3    H110941   9.699   2.954   4.816
 3688TIP3    H210942   9.620   3.053   4.898
 3689TIP3   OH210943   0.097   2.958   4.452
 3689TIP3    H110944   0.015   3.008   4.446
 3689TIP3    H210945   0.145   2.982   4.373
 3690TIP3   OH210946   0.544   3.336   4.550
 3690TIP3    H110947   0.624   3.309   4.505
 3690TIP3    H210948   0.545   3.286   4.632
 3691TIP3   OH210949   0.671   2.982   2.733
 3691TIP3    H110950   0.678   2.953   2.642
 3691TIP3    H210951   0.643   3.073   2.727
 3692TIP3   OH210952   0.170   2.733   4.589
 3692TIP3    H110953   0.174   2.659   4.528
 3692TIP3    H210954   0.148   2.808   4.535
 3693TIP3   OH210955   0.169   2.536   4.390
 3693TIP3    H110956   0.196   2.575   4.307
 3693TIP3    H210957   0.080   2.503   4.373
 3694TIP3   OH210958   0.217   3.063   4.234
 3694TIP3    H110959   0.299   3.113   4.231
 3694TIP3    H210960   0.155   3.116   4.184
 3695TIP3   OH210961   0.765   3.033   4.646
 3695TIP3    H110962   0.817   2.953   4.657
 3695TIP3    H210963   0.830   3.103   4.641
 3696TIP3   OH210964   0.789   3.301   4.380
 3696TIP3    H110965   0.736   3.359   4.325
 3696TIP3    H210966   0.879   3.316   4.351
 3697TIP3   OH210967   0.034   2.835   4.804
 3697TIP3    H110968  -0.010   2.759   4.841
 3697TIP3    H210969   0.081   2.801   4.728
 3698TIP3   OH210970   0.294   2.315   4.496
 3698TIP3    H110971   0.255   2.396   4.463
 3698TIP3    H210972   0.230   2.247   4.477
 3699TIP3   OH210973   0.420   2.785   4.704
 3699TIP3    H110974   0.419   2.775   4.799
 3699TIP3    H210975   0.333   2.757   4.676
 3700TIP3   OH210976   0.659   2.731   4.571
 3700TIP3    H110977   0.582   2.735   4.627
 3700TIP3    H210978   0.732   2.714   4.631
 3701TIP3   OH210979   0.890   2.707   4.725
 3701TIP3    H110980   0.905   2.612   4.732
 3701TIP3    H210981   0.884   2.737   4.816
 3702TIP3   OH210982   9.723   2.602   4.905
 3702TIP3    H110983   9.734   2.514   4.870
 3702TIP3    H210984   9.771   2.602   4.988
 3703TIP3   OH210985   0.351   2.294   4.763
 3703TIP3    H110986   0.419   2.228   4.761
 3703TIP3    H210987   0.325   2.305   4.671
 3704TIP3   OH210988   0.437   2.510   4.911
 3704TIP3    H110989   0.411   2.436   4.855
 3704TIP3    H210990   0.361   2.568   4.911
 3705TIP3   OH210991   9.480   3.771   2.976
 3705TIP3    H110992   9.575   3.763   2.962
 3705TIP3    H210993   9.442   3.773   2.889
 3706TIP3   OH210994   0.946   3.969   3.641
 3706TIP3    H110995   0.970   3.994   3.730
 3706TIP3    H210996   1.002   4.023   3.585
 3707TIP3   OH210997   0.969   3.989   3.920
 3707TIP3    H110998   0.921   3.907   3.913
 3707TIP3    H210999   1.039   3.970   3.983
 3708TIP3   OH211000   1.016   3.691   4.487
 3708TIP3    H111001   0.945   3.699   4.551
 3708TIP3    H211002   1.064   3.773   4.493
 3709TIP3   OH211003   0.834   3.200   3.064
 3709TIP3    H111004   0.903   3.266   3.070
 3709TIP3    H211005   0.854   3.138   3.134
 3710TIP3   OH211006   0.929   3.049   3.272
 3710TIP3    H111007   0.868   3.028   3.343
 3710TIP3    H211008   0.962   3.136   3.294
 3711TIP3   OH211009   1.028   3.456   3.682
 3711TIP3    H111010   1.026   3.416   3.596
 3711TIP3    H211011   1.035   3.550   3.665
 3712TIP3   OH211012   0.817   3.757   3.918
 3712TIP3    H111013   0.751   3.800   3.972
 3712TIP3    H211014   0.768   3.718   3.846
 3713TIP3   OH211015   0.871   2.967   2.924
 3713TIP3    H111016   0.802   2.963   2.857
 3713TIP3    H211017   0.859   3.053   2.965
 3714TIP3   OH211018   0.724   2.633   2.911
 3714TIP3    H111019   0.650   2.689   2.887
 3714TIP3    H211020   0.723   2.563   2.846
 3715TIP3   OH211021   0.747   2.934   3.442
 3715TIP3    H111022   0.759   2.841   3.424
 3715TIP3    H211023   0.734   2.938   3.537
 3716TIP3   OH211024   9.174   2.977   4.198
 3716TIP3    H111025   9.142   2.971   4.108
 3716TIP3    H211026   9.245   3.042   4.194
 3717TIP3   OH211027   1.050   3.347   4.292
 3717TIP3    H111028   1.113   3.276   4.276
 3717TIP3    H211029   1.079   3.418   4.235
 3718TIP3   OH211030   1.217   3.130   4.279
 3718TIP3    H111031   1.145   3.086   4.324
 3718TIP3    H211032   1.294   3.077   4.300
 3719TIP3   OH211033   0.772   2.666   3.327
 3719TIP3    H111034   0.812   2.580   3.338
 3719TIP3    H211035   0.816   2.703   3.250
 3720TIP3   OH211036   0.919   2.827   3.846
 3720TIP3    H111037   1.001   2.848   3.802
 3720TIP3    H211038   0.930   2.860   3.935
 3721TIP3   OH211039   0.976   2.960   4.084
 3721TIP3    H111040   0.904   2.990   4.138
 3721TIP3    H211041   1.014   3.040   4.048
 3722TIP3   OH211042   9.465   2.632   4.812
 3722TIP3    H111043   9.550   2.643   4.854
 3722TIP3    H211044   9.411   2.702   4.848
 3723TIP3   OH211045   1.448   2.562   4.604
 3723TIP3    H111046   1.511   2.503   4.562
 3723TIP3    H211047   1.411   2.613   4.531
 3724TIP3   OH211048   0.868   2.413   3.377
 3724TIP3    H111049   0.923   2.397   3.453
 3724TIP3    H211050   0.811   2.337   3.371
 3725TIP3   OH211051   9.110   2.678   4.195
 3725TIP3    H111052   9.166   2.724   4.132
 3725TIP3    H211053   9.116   2.731   4.274
 3726TIP3   OH211054   1.299   2.681   4.409
 3726TIP3    H111055   1.219   2.718   4.446
 3726TIP3    H211056   1.268   2.608   4.355
 3727TIP3   OH211057   1.057   2.313   3.020
 3727TIP3    H111058   1.016   2.296   2.935
 3727TIP3    H211059   1.084   2.404   3.017
 3728TIP3   OH211060   0.493   3.885   3.276
 3728TIP3    H111061   0.546   3.870   3.197
 3728TIP3    H211062   0.544   3.947   3.327
 3729TIP3   OH211063   9.398   2.194   4.652
 3729TIP3    H111064   9.400   2.250   4.730
 3729TIP3    H211065   9.380   2.254   4.580
 3730TIP3   OH211066   9.459   3.655   4.606
 3730TIP3    H111067   9.415   3.734   4.638
 3730TIP3    H211068   9.498   3.616   4.685
 3731TIP3   OH211069   9.674   3.752   4.239
 3731TIP3    H111070   9.606   3.699   4.197
 3731TIP3    H211071   9.742   3.760   4.173
 3732TIP3   OH211072   0.261   3.933   4.323
 3732TIP3    H111073   0.294   3.924   4.412
 3732TIP3    H211074   0.326   3.987   4.279
 3733TIP3   OH211075   0.445   4.100   4.205
 3733TIP3    H111076   0.516   4.048   4.168
 3733TIP3    H211077   0.488   4.162   4.263
 3734TIP3   OH211078   1.214   2.432   4.301
 3734TIP3    H111079   1.131   2.430   4.252
 3734TIP3    H211080   1.247   2.343   4.295
 3735TIP3   OH211081   9.527   3.904   4.030
 3735TIP3    H111082   9.454   3.851   4.060
 3735TIP3    H211083   9.493   3.949   3.952
 3736TIP3   OH211084   0.150   3.965   3.889
 3736TIP3    H111085   0.079   3.969   3.825
 3736TIP3    H211086   0.150   4.051   3.930
 3737TIP3   OH211087   0.407   3.888   3.925
 3737TIP3    H111088   0.316   3.915   3.913
 3737TIP3    H211089   0.458   3.959   3.886
 3738TIP3   OH211090   0.599   4.069   3.837
 3738TIP3    H111091   0.598   4.156   3.798
 3738TIP3    H211092   0.628   4.011   3.767
 3739TIP3   OH211093   9.218   3.694   4.002
 3739TIP3    H111094   9.223   3.688   4.097
 3739TIP3    H211095   9.306   3.671   3.971
 3740TIP3   OH211096   9.449   3.631   3.882
 3740TIP3    H111097   9.464   3.536   3.879
 3740TIP3    H211098   9.536   3.669   3.870
 3741TIP3   OH211099   9.716   3.682   3.839
 3741TIP3    H111100   9.736   3.589   3.826
 3741TIP3    H211101   9.768   3.707   3.916
 3742TIP3   OH211102   0.488   2.303   3.953
 3742TIP3    H111103   0.514   2.236   4.016
 3742TIP3    H211104   0.543   2.286   3.877
 3743TIP3   OH211105   0.932   2.259   3.810
 3743TIP3    H111106   0.973   2.311   3.741
 3743TIP3    H211107   0.839   2.280   3.805
 3744TIP3   OH211108   1.041   2.356   3.581
 3744TIP3    H111109   1.117   2.303   3.556
 3744TIP3    H211110   1.076   2.446   3.585
 3745TIP3   OH211111   0.657   2.202   3.765
 3745TIP3    H111112   0.698   2.157   3.691
 3745TIP3    H211113   0.649   2.136   3.833
 3746TIP3   OH211114   9.747   3.714   2.933
 3746TIP3    H111115   9.825   3.734   2.881
 3746TIP3    H211116   9.755   3.621   2.954
 3747TIP3   OH211117   0.637   3.824   3.046
 3747TIP3    H111118   0.632   3.729   3.037
 3747TIP3    H211119   0.603   3.858   2.964
 3748TIP3   OH211120   9.693   2.324   4.825
 3748TIP3    H111121   9.668   2.250   4.881
 3748TIP3    H211122   9.786   2.336   4.841
 3749TIP3   OH211123   0.139   2.342   4.939
 3749TIP3    H111124   0.217   2.323   4.886
 3749TIP3    H211125   0.140   2.275   5.007
 3750TIP3   OH211126   0.956   2.437   4.728
 3750TIP3    H111127   0.973   2.406   4.817
 3750TIP3    H211128   1.041   2.432   4.684
 3751TIP3   OH211129   0.876   3.964   4.239
 3751TIP3    H111130   0.800   3.939   4.187
 3751TIP3    H211131   0.870   4.059   4.248
 3752TIP3   OH211132   2.144   3.360   2.970
 3752TIP3    H111133   2.111   3.447   2.947
 3752TIP3    H211134   2.075   3.300   2.943
 3753TIP3   OH211135   2.153   3.345   3.396
 3753TIP3    H111136   2.208   3.327   3.473
 3753TIP3    H211137   2.108   3.262   3.379
 3754TIP3   OH211138   2.403   3.658   3.056
 3754TIP3    H111139   2.398   3.589   3.123
 3754TIP3    H211140   2.428   3.737   3.105
 3755TIP3   OH211141   1.447   3.647   3.434
 3755TIP3    H111142   1.429   3.556   3.457
 3755TIP3    H211143   1.541   3.649   3.415
 3756TIP3   OH211144   1.126   2.861   3.247
 3756TIP3    H111145   1.052   2.922   3.243
 3756TIP3    H211146   1.087   2.775   3.227
 3757TIP3   OH211147   1.218   3.110   3.362
 3757TIP3    H111148   1.186   3.029   3.323
 3757TIP3    H211149   1.187   3.179   3.303
 3758TIP3   OH211150   2.086   4.068   3.074
 3758TIP3    H111151   2.114   4.000   3.013
 3758TIP3    H211152   2.086   4.026   3.160
 3759TIP3   OH211153   1.960   3.566   3.394
 3759TIP3    H111154   2.007   3.485   3.371
 3759TIP3    H211155   2.028   3.624   3.429
 3760TIP3   OH211156   2.979   2.885   3.423
 3760TIP3    H111157   3.000   2.966   3.469
 3760TIP3    H211158   2.989   2.907   3.330
 3761TIP3   OH211159   2.376   3.033   3.444
 3761TIP3    H111160   2.426   2.956   3.470
 3761TIP3    H211161   2.331   3.007   3.363
 3762TIP3   OH211162   1.748   2.670   3.361
 3762TIP3    H111163   1.727   2.762   3.344
 3762TIP3    H211164   1.666   2.623   3.344
 3763TIP3   OH211165   2.400   2.811   3.047
 3763TIP3    H111166   2.469   2.804   3.112
 3763TIP3    H211167   2.445   2.834   2.965
 3764TIP3   OH211168   1.422   2.958   3.530
 3764TIP3    H111169   1.431   2.899   3.605
 3764TIP3    H211170   1.421   2.900   3.454
 3765TIP3   OH211171   1.783   3.130   3.319
 3765TIP3    H111172   1.876   3.111   3.332
 3765TIP3    H211173   1.744   3.046   3.296
 3766TIP3   OH211174   3.045   3.106   3.581
 3766TIP3    H111175   2.956   3.142   3.577
 3766TIP3    H211176   3.082   3.142   3.661
 3767TIP3   OH211177   1.668   2.740   3.851
 3767TIP3    H111178   1.588   2.749   3.800
 3767TIP3    H211179   1.641   2.759   3.941
 3768TIP3   OH211180   2.043   3.581   2.832
 3768TIP3    H111181   1.997   3.545   2.755
 3768TIP3    H211182   1.990   3.655   2.859
 3769TIP3   OH211183   1.798   3.496   3.608
 3769TIP3    H111184   1.741   3.565   3.641
 3769TIP3    H211185   1.844   3.535   3.534
 3770TIP3   OH211186   2.599   2.833   3.230
 3770TIP3    H111187   2.638   2.761   3.280
 3770TIP3    H211188   2.639   2.912   3.265
 3771TIP3   OH211189   1.635   3.694   3.714
 3771TIP3    H111190   1.623   3.784   3.684
 3771TIP3    H211191   1.557   3.676   3.766
 3772TIP3   OH211192   2.447   3.900   3.203
 3772TIP3    H111193   2.361   3.893   3.244
 3772TIP3    H211194   2.447   3.986   3.160
 3773TIP3   OH211195   2.772   2.773   3.591
 3773TIP3    H111196   2.683   2.785   3.557
 3773TIP3    H211197   2.829   2.801   3.520
 3774TIP3   OH211198   1.980   2.389   3.621
 3774TIP3    H111199   2.004   2.301   3.652
 3774TIP3    H211200   1.970   2.379   3.526
 3775TIP3   OH211201   2.174   3.909   2.857
 3775TIP3    H111202   2.227   3.831   2.844
 3775TIP3    H211203   2.231   3.982   2.834
 3776TIP3   OH211204   2.306   3.659   2.799
 3776TIP3    H111205   2.218   3.626   2.816
 3776TIP3    H211206   2.350   3.654   2.883
 3777TIP3   OH211207   2.681   3.788   3.547
 3777TIP3    H111208   2.668   3.713   3.489
 3777TIP3    H211209   2.667   3.865   3.491
 3778TIP3   OH211210   1.978   3.194   2.818
 3778TIP3    H111211   1.892   3.234   2.804
 3778TIP3    H211212   2.017   3.189   2.731
 3779TIP3   OH211213   1.949   2.999   2.516
 3779TIP3    H111214   2.018   3.046   2.562
 3779TIP3    H211215   1.994   2.929   2.470
 3780TIP3   OH211216   2.869   3.441   3.395
 3780TIP3    H111217   2.786   3.489   3.395
 3780TIP3    H211218   2.906   3.456   3.308
 3781TIP3   OH211219   2.330   3.261   2.799
 3781TIP3    H111220   2.275   3.296   2.869
 3781TIP3    H211221   2.405   3.223   2.843
 3782TIP3   OH211222   2.568   3.315   3.727
 3782TIP3    H111223   2.562   3.400   3.772
 3782TIP3    H211224   2.487   3.310   3.676
 3783TIP3   OH211225   1.572   3.267   3.195
 3783TIP3    H111226   1.533   3.208   3.130
 3783TIP3    H211227   1.650   3.220   3.226
 3784TIP3   OH211228   1.704   3.679   3.326
 3784TIP3    H111229   1.676   3.666   3.235
 3784TIP3    H211230   1.791   3.640   3.330
 3785TIP3   OH211231   1.702   3.243   3.559
 3785TIP3    H111232   1.745   3.212   3.479
 3785TIP3    H211233   1.746   3.326   3.578
 3786TIP3   OH211234   2.211   3.894   3.338
 3786TIP3    H111235   2.197   3.976   3.386
 3786TIP3    H211236   2.194   3.826   3.402
 3787TIP3   OH211237   1.834   3.790   3.884
 3787TIP3    H111238   1.772   3.846   3.931
 3787TIP3    H211239   1.780   3.738   3.825
 3788TIP3   OH211240   2.175   3.139   2.611
 3788TIP3    H111241   2.224   3.183   2.680
 3788TIP3    H211242   2.221   3.163   2.530
 3789TIP3   OH211243   1.581   3.335   4.032
 3789TIP3    H111244   1.588   3.429   4.047
 3789TIP3    H211245   1.487   3.319   4.025
 3790TIP3   OH211246   1.912   3.820   2.871
 3790TIP3    H111247   1.997   3.863   2.873
 3790TIP3    H211248   1.853   3.886   2.832
 3791TIP3   OH211249   1.622   3.945   3.970
 3791TIP3    H111250   1.600   3.959   3.878
 3791TIP3    H211251   1.537   3.936   4.013
 3792TIP3   OH211252   2.653   2.360   2.677
 3792TIP3    H111253   2.621   2.360   2.767
 3792TIP3    H211254   2.656   2.453   2.652
 3793TIP3   OH211255   1.443   3.104   3.000
 3793TIP3    H111256   1.364   3.150   2.970
 3793TIP3    H211257   1.410   3.023   3.038
 3794TIP3   OH211258   2.511   3.755   2.220
 3794TIP3    H111259   2.504   3.848   2.195
 3794TIP3    H211260   2.593   3.725   2.180
 3795TIP3   OH211261   1.214   3.502   3.905
 3795TIP3    H111262   1.156   3.477   3.834
 3795TIP3    H211263   1.247   3.419   3.939
 3796TIP3   OH211264   1.069   3.719   3.612
 3796TIP3    H111265   1.154   3.757   3.634
 3796TIP3    H211266   1.008   3.792   3.619
 3797TIP3   OH211267   2.914   4.141   3.628
 3797TIP3    H111268   2.918   4.047   3.645
 3797TIP3    H211269   2.836   4.171   3.673
 3798TIP3   OH211270   2.022   3.939   3.749
 3798TIP3    H111271   2.013   4.029   3.780
 3798TIP3    H211272   1.955   3.890   3.797
 3799TIP3   OH211273   1.802   4.045   2.705
 3799TIP3    H111274   1.754   4.020   2.626
 3799TIP3    H211275   1.763   4.127   2.734
 3800TIP3   OH211276   1.238   3.914   3.092
 3800TIP3    H111277   1.284   3.903   3.175
 3800TIP3    H211278   1.194   3.830   3.077
 3801TIP3   OH211279   2.008   3.962   2.340
 3801TIP3    H111280   2.063   3.888   2.314
 3801TIP3    H211281   2.039   3.984   2.428
 3802TIP3   OH211282   2.056   4.028   2.604
 3802TIP3    H111283   1.970   4.028   2.645
 3802TIP3    H211284   2.115   3.997   2.672
 3803TIP3   OH211285   2.812   3.257   3.882
 3803TIP3    H111286   2.728   3.272   3.839
 3803TIP3    H211287   2.827   3.162   3.873
 3804TIP3   OH211288   1.415   3.695   3.884
 3804TIP3    H111289   1.465   3.679   3.963
 3804TIP3    H211290   1.343   3.631   3.888
 3805TIP3   OH211291   1.697   2.527   3.664
 3805TIP3    H111292   1.631   2.503   3.598
 3805TIP3    H211293   1.653   2.593   3.718
 3806TIP3   OH211294   2.559   3.055   3.821
 3806TIP3    H111295   2.518   3.051   3.907
 3806TIP3    H211296   2.547   3.145   3.792
 3807TIP3   OH211297   2.318   3.249   2.391
 3807TIP3    H111298   2.307   3.186   2.320
 3807TIP3    H211299   2.248   3.313   2.377
 3808TIP3   OH211300   1.949   2.533   2.680
 3808TIP3    H111301   1.923   2.540   2.772
 3808TIP3    H211302   1.911   2.451   2.650
 3809TIP3   OH211303   1.774   3.042   3.740
 3809TIP3    H111304   1.702   3.029   3.801
 3809TIP3    H211305   1.743   3.110   3.680
 3810TIP3   OH211306   1.643   2.905   3.242
 3810TIP3    H111307   1.553   2.884   3.270
 3810TIP3    H211308   1.649   2.869   3.154
 3811TIP3   OH211309   2.098   2.995   2.967
 3811TIP3    H111310   2.053   3.066   2.922
 3811TIP3    H211311   2.157   2.958   2.901
 3812TIP3   OH211312   2.289   3.255   4.037
 3812TIP3    H111313   2.260   3.189   4.100
 3812TIP3    H211314   2.381   3.271   4.061
 3813TIP3   OH211315   2.253   2.991   3.199
 3813TIP3    H111316   2.190   3.016   3.132
 3813TIP3    H211317   2.303   2.919   3.160
 3814TIP3   OH211318   1.574   3.040   3.931
 3814TIP3    H111319   1.569   3.117   3.987
 3814TIP3    H211320   1.558   2.966   3.990
 3815TIP3   OH211321   1.613   2.536   2.661
 3815TIP3    H111322   1.604   2.501   2.750
 3815TIP3    H211323   1.583   2.626   2.667
 3816TIP3   OH211324   1.152   2.599   3.554
 3816TIP3    H111325   1.234   2.632   3.592
 3816TIP3    H211326   1.171   2.590   3.461
 3817TIP3   OH211327   1.129   2.580   3.016
 3817TIP3    H111328   1.190   2.623   2.955
 3817TIP3    H211329   1.058   2.643   3.028
 3818TIP3   OH211330   2.320   3.247   3.604
 3818TIP3    H111331   2.346   3.177   3.544
 3818TIP3    H211332   2.275   3.202   3.676
 3819TIP3   OH211333   2.012   2.700   3.280
 3819TIP3    H111334   1.932   2.697   3.333
 3819TIP3    H211335   2.083   2.706   3.344
 3820TIP3   OH211336   1.394   2.808   3.304
 3820TIP3    H111337   1.301   2.813   3.281
 3820TIP3    H211338   1.416   2.715   3.297
 3821TIP3   OH211339   1.645   2.782   2.995
 3821TIP3    H111340   1.740   2.793   2.990
 3821TIP3    H211341   1.615   2.794   2.905
 3822TIP3   OH211342   2.481   2.786   3.528
 3822TIP3    H111343   2.448   2.790   3.617
 3822TIP3    H211344   2.416   2.736   3.480
 3823TIP3   OH211345   1.530   2.783   2.746
 3823TIP3    H111346   1.436   2.779   2.759
 3823TIP3    H211347   1.543   2.852   2.681
 3824TIP3   OH211348   2.631   4.494   3.714
 3824TIP3    H111349   2.629   4.510   3.620
 3824TIP3    H211350   2.710   4.539   3.744
 3825TIP3   OH211351   1.567   3.605   4.117
 3825TIP3    H111352   1.649   3.624   4.163
 3825TIP3    H211353   1.499   3.616   4.184
 3826TIP3   OH211354   2.048   3.072   3.391
 3826TIP3    H111355   2.115   3.031   3.337
 3826TIP3    H211356   2.051   3.025   3.474
 3827TIP3   OH211357   1.510   2.552   3.275
 3827TIP3    H111358   1.483   2.475   3.325
 3827TIP3    H211359   1.515   2.520   3.184
 3828TIP3   OH211360   2.023   2.952   3.672
 3828TIP3    H111361   1.936   2.987   3.694
 3828TIP3    H211362   2.084   3.008   3.720
 3829TIP3   OH211363   1.739   3.326   2.771
 3829TIP3    H111364   1.662   3.274   2.746
 3829TIP3    H211365   1.713   3.370   2.851
 3830TIP3   OH211366   2.635   3.585   3.364
 3830TIP3    H111367   2.673   3.633   3.290
 3830TIP3    H211368   2.555   3.547   3.328
 3831TIP3   OH211369   2.171   2.685   2.619
 3831TIP3    H111370   2.093   2.641   2.652
 3831TIP3    H211371   2.189   2.752   2.685
 3832TIP3   OH211372   2.150   3.668   3.794
 3832TIP3    H111373   2.203   3.655   3.874
 3832TIP3    H211374   2.111   3.755   3.805
 3833TIP3   OH211375   2.263   2.910   2.759
 3833TIP3    H111376   2.358   2.904   2.771
 3833TIP3    H211377   2.251   2.980   2.696
 3834TIP3   OH211378   1.460   3.286   3.450
 3834TIP3    H111379   1.482   3.305   3.358
 3834TIP3    H211380   1.544   3.287   3.495
 3835TIP3   OH211381   1.892   3.487   2.613
 3835TIP3    H111382   1.844   3.569   2.610
 3835TIP3    H211383   1.837   3.429   2.665
 3836TIP3   OH211384   1.306   3.280   4.050
 3836TIP3    H111385   1.312   3.256   4.143
 3836TIP3    H211386   1.235   3.227   4.016
 3837TIP3   OH211387   2.060   3.420   4.077
 3837TIP3    H111388   1.988   3.365   4.047
 3837TIP3    H211389   2.139   3.375   4.045
 3838TIP3   OH211390   2.292   3.961   3.673
 3838TIP3    H111391   2.197   3.947   3.678
 3838TIP3    H211392   2.315   3.996   3.760
 3839TIP3   OH211393   2.629   2.983   2.578
 3839TIP3    H111394   2.654   2.927   2.505
 3839TIP3    H211395   2.684   3.061   2.569
 3840TIP3   OH211396   2.926   3.856   3.649
 3840TIP3    H111397   2.831   3.847   3.637
 3840TIP3    H211398   2.963   3.835   3.563
 3841TIP3   OH211399   2.376   3.813   2.455
 3841TIP3    H111400   2.392   3.758   2.531
 3841TIP3    H211401   2.440   3.784   2.390
 3842TIP3   OH211402   2.402   3.454   3.260
 3842TIP3    H111403   2.313   3.435   3.291
 3842TIP3    H211404   2.436   3.370   3.232
 3843TIP3   OH211405   1.545   3.684   3.090
 3843TIP3    H111406   1.539   3.762   3.034
 3843TIP3    H211407   1.454   3.667   3.116
 3844TIP3   OH211408   1.117   2.963   2.804
 3844TIP3    H111409   1.158   3.046   2.828
 3844TIP3    H211410   1.034   2.962   2.851
 3845TIP3   OH211411   1.637   3.446   2.990
 3845TIP3    H111412   1.616   3.534   3.019
 3845TIP3    H211413   1.615   3.390   3.064
 3846TIP3   OH211414   1.843   4.009   3.540
 3846TIP3    H111415   1.877   4.084   3.491
 3846TIP3    H211416   1.917   3.979   3.592
 3847TIP3   OH211417   1.470   3.908   2.940
 3847TIP3    H111418   1.384   3.920   2.981
 3847TIP3    H211419   1.511   3.994   2.944
 3848TIP3   OH211420   2.185   3.678   3.519
 3848TIP3    H111421   2.170   3.674   3.613
 3848TIP3    H211422   2.269   3.632   3.506
 3849TIP3   OH211423   2.150   3.462   2.390
 3849TIP3    H111424   2.145   3.507   2.475
 3849TIP3    H211425   2.059   3.452   2.362
 3850TIP3   OH211426   2.445   4.166   3.553
 3850TIP3    H111427   2.376   4.103   3.575
 3850TIP3    H211428   2.408   4.219   3.482
 3851TIP3   OH211429   2.501   4.031   2.194
 3851TIP3    H111430   2.550   4.107   2.161
 3851TIP3    H211431   2.422   4.069   2.232
 3852TIP3   OH211432   1.535   2.800   4.085
 3852TIP3    H111433   1.440   2.795   4.071
 3852TIP3    H211434   1.553   2.733   4.151
 3853TIP3   OH211435   2.371   3.457   2.616
 3853TIP3    H111436   2.358   3.388   2.680
 3853TIP3    H211437   2.359   3.538   2.666
 3854TIP3   OH211438   1.271   3.904   3.715
 3854TIP3    H111439   1.326   3.847   3.767
 3854TIP3    H211440   1.288   3.992   3.750
 3855TIP3   OH211441   1.541   3.520   2.414
 3855TIP3    H111442   1.549   3.428   2.390
 3855TIP3    H211443   1.521   3.518   2.508
 3856TIP3   OH211444   1.469   3.531   2.683
 3856TIP3    H111445   1.521   3.504   2.758
 3856TIP3    H211446   1.470   3.627   2.686
 3857TIP3   OH211447   1.208   3.211   2.896
 3857TIP3    H111448   1.172   3.247   2.977
 3857TIP3    H211449   1.207   3.284   2.835
 3858TIP3   OH211450   2.408   2.829   3.791
 3858TIP3    H111451   2.469   2.903   3.787
 3858TIP3    H211452   2.402   2.808   3.884
 3859TIP3   OH211453   2.229   2.614   2.948
 3859TIP3    H111454   2.279   2.589   2.870
 3859TIP3    H211455   2.281   2.683   2.989
 3860TIP3   OH211456   1.749   3.716   2.607
 3860TIP3    H111457   1.665   3.735   2.648
 3860TIP3    H211458   1.771   3.795   2.557
 3861TIP3   OH211459   1.919   2.796   3.035
 3861TIP3    H111460   1.979   2.866   3.007
 3861TIP3    H211461   1.951   2.771   3.122
 3862TIP3   OH211462   2.225   3.093   3.815
 3862TIP3    H111463   2.236   3.152   3.890
 3862TIP3    H211464   2.273   3.014   3.839
 3863TIP3   OH211465   2.077   2.482   3.130
 3863TIP3    H111466   2.059   2.558   3.184
 3863TIP3    H211467   2.139   2.513   3.064
 3864TIP3   OH211468   1.501   3.802   2.690
 3864TIP3    H111469   1.480   3.873   2.629
 3864TIP3    H211470   1.488   3.840   2.776
 3865TIP3   OH211471   1.599   2.508   2.942
 3865TIP3    H111472   1.588   2.600   2.965
 3865TIP3    H211473   1.693   2.492   2.946
 3866TIP3   OH211474   2.818   2.979   3.788
 3866TIP3    H111475   2.725   2.998   3.802
 3866TIP3    H211476   2.819   2.913   3.718
 3867TIP3   OH211477   2.485   3.187   3.204
 3867TIP3    H111478   2.408   3.134   3.226
 3867TIP3    H211479   2.555   3.149   3.256
 3868TIP3   OH211480   1.218   3.402   2.687
 3868TIP3    H111481   1.288   3.466   2.694
 3868TIP3    H211482   1.249   3.338   2.623
 3869TIP3   OH211483   1.263   2.729   2.806
 3869TIP3    H111484   1.203   2.803   2.798
 3869TIP3    H211485   1.221   2.659   2.755
 3870TIP3   OH211486   2.473   4.166   3.123
 3870TIP3    H111487   2.433   4.217   3.053
 3870TIP3    H211488   2.567   4.178   3.112
 3871TIP3   OH211489   1.126   3.670   3.040
 3871TIP3    H111490   1.109   3.580   3.069
 3871TIP3    H211491   1.077   3.680   2.959
 3872TIP3   OH211492   1.277   4.211   4.126
 3872TIP3    H111493   1.356   4.222   4.178
 3872TIP3    H211494   1.274   4.117   4.107
 3873TIP3   OH211495   1.730   4.107   4.166
 3873TIP3    H111496   1.821   4.080   4.177
 3873TIP3    H211497   1.698   4.053   4.094
 3874TIP3   OH211498   1.692   3.714   2.288
 3874TIP3    H111499   1.649   3.645   2.340
 3874TIP3    H211500   1.773   3.674   2.257
 3875TIP3   OH211501   2.349   4.056   3.924
 3875TIP3    H111502   2.363   3.986   3.988
 3875TIP3    H211503   2.422   4.116   3.938
 3876TIP3   OH211504   2.175   3.759   2.254
 3876TIP3    H111505   2.246   3.778   2.315
 3876TIP3    H211506   2.215   3.766   2.168
 3877TIP3   OH211507   1.362   3.608   4.308
 3877TIP3    H111508   1.385   3.516   4.321
 3877TIP3    H211509   1.276   3.606   4.267
 3878TIP3   OH211510   1.345   3.215   2.530
 3878TIP3    H111511   1.395   3.192   2.608
 3878TIP3    H211512   1.412   3.230   2.463
 3879TIP3   OH211513   1.989   3.692   4.092
 3879TIP3    H111514   1.945   3.712   4.009
 3879TIP3    H211515   2.026   3.605   4.079
 3880TIP3   OH211516   1.884   3.430   2.340
 3880TIP3    H111517   1.866   3.438   2.433
 3880TIP3    H211518   1.870   3.338   2.320
 3881TIP3   OH211519   2.458   3.733   3.699
 3881TIP3    H111520   2.536   3.760   3.651
 3881TIP3    H211521   2.396   3.805   3.687
 3882TIP3   OH211522   1.473   3.352   4.315
 3882TIP3    H111523   1.548   3.335   4.258
 3882TIP3    H211524   1.510   3.368   4.401
 3883TIP3   OH211525   1.525   3.153   2.733
 3883TIP3    H111526   1.510   3.125   2.823
 3883TIP3    H211527   1.575   3.082   2.693
 3884TIP3   OH211528   1.851   3.257   3.987
 3884TIP3    H111529   1.759   3.282   3.989
 3884TIP3    H211530   1.879   3.275   3.897
 3885TIP3   OH211531   1.662   2.969   2.577
 3885TIP3    H111532   1.639   2.976   2.485
 3885TIP3    H211533   1.758   2.971   2.578
 3886TIP3   OH211534   2.338   3.608   4.049
 3886TIP3    H111535   2.411   3.572   3.998
 3886TIP3    H211536   2.336   3.553   4.128
 3887TIP3   OH211537   1.938   3.018   4.083
 3887TIP3    H111538   1.909   2.954   4.018
 3887TIP3    H211539   1.912   3.102   4.046
 3888TIP3   OH211540   1.925   2.695   3.766
 3888TIP3    H111541   1.973   2.771   3.732
 3888TIP3    H211542   1.842   2.731   3.798
 3889TIP3   OH211543   1.972   3.347   3.759
 3889TIP3    H111544   2.058   3.388   3.745
 3889TIP3    H211545   1.912   3.400   3.707
 3890TIP3   OH211546   2.556   3.289   4.136
 3890TIP3    H111547   2.613   3.213   4.147
 3890TIP3    H211548   2.617   3.363   4.131
 3891TIP3   OH211549   2.583   3.560   3.867
 3891TIP3    H111550   2.529   3.621   3.816
 3891TIP3    H211551   2.672   3.575   3.836
 3892TIP3   OH211552   1.832   3.083   4.336
 3892TIP3    H111553   1.762   3.021   4.355
 3892TIP3    H211554   1.856   3.066   4.244
 3893TIP3   OH211555   2.198   3.042   4.187
 3893TIP3    H111556   2.186   3.028   4.281
 3893TIP3    H211557   2.111   3.027   4.149
 3894TIP3   OH211558   2.436   2.979   4.053
 3894TIP3    H111559   2.361   2.991   4.111
 3894TIP3    H211560   2.511   2.971   4.113
 3895TIP3   OH211561   2.678   2.973   4.203
 3895TIP3    H111562   2.699   2.880   4.210
 3895TIP3    H211563   2.675   3.004   4.293
 3896TIP3   OH211564   1.660   2.870   4.399
 3896TIP3    H111565   1.667   2.782   4.362
 3896TIP3    H211566   1.699   2.862   4.486
 3897TIP3   OH211567   2.169   2.541   4.247
 3897TIP3    H111568   2.247   2.486   4.240
 3897TIP3    H211569   2.119   2.523   4.167
 3898TIP3   OH211570   2.243   2.761   4.396
 3898TIP3    H111571   2.216   2.690   4.338
 3898TIP3    H211572   2.169   2.822   4.395
 3899TIP3   OH211573   1.496   4.009   2.507
 3899TIP3    H111574   1.586   3.991   2.480
 3899TIP3    H211575   1.459   4.060   2.435
 3900TIP3   OH211576   0.942   3.412   2.655
 3900TIP3    H111577   1.033   3.424   2.682
 3900TIP3    H211578   0.936   3.320   2.631
 3901TIP3   OH211579   0.852   3.980   3.131
 3901TIP3    H111580   0.790   3.918   3.093
 3901TIP3    H211581   0.898   3.930   3.198
 3902TIP3   OH211582   0.980   3.853   3.336
 3902TIP3    H111583   0.992   3.763   3.364
 3902TIP3    H211584   1.047   3.902   3.383
 3903TIP3   OH211585   2.745   4.215   3.126
 3903TIP3    H111586   2.766   4.240   3.216
 3903TIP3    H211587   2.800   4.272   3.072
 3904TIP3   OH211588   2.763   4.245   3.405
 3904TIP3    H111589   2.715   4.162   3.398
 3904TIP3    H211590   2.832   4.227   3.469
 3905TIP3   OH211591   2.820   3.946   3.970
 3905TIP3    H111592   2.746   3.957   4.031
 3905TIP3    H211593   2.868   4.029   3.977
 3906TIP3   OH211594   2.634   3.346   2.514
 3906TIP3    H111595   2.723   3.362   2.482
 3906TIP3    H211596   2.646   3.323   2.606
 3907TIP3   OH211597   2.701   3.278   2.770
 3907TIP3    H111598   2.646   3.242   2.840
 3907TIP3    H211599   2.769   3.327   2.816
 3908TIP3   OH211600   2.826   3.715   3.205
 3908TIP3    H111601   2.877   3.651   3.155
 3908TIP3    H211602   2.826   3.793   3.150
 3909TIP3   OH211603   2.616   4.009   3.399
 3909TIP3    H111604   2.550   4.054   3.451
 3909TIP3    H211605   2.567   3.970   3.326
 3910TIP3   OH211606   2.534   3.144   2.938
 3910TIP3    H111607   2.546   3.050   2.928
 3910TIP3    H211608   2.523   3.158   3.032
 3911TIP3   OH211609   2.845   3.600   3.779
 3911TIP3    H111610   2.912   3.534   3.763
 3911TIP3    H211611   2.870   3.673   3.722
 3912TIP3   OH211612   3.024   3.388   3.769
 3912TIP3    H111613   2.949   3.344   3.811
 3912TIP3    H211614   3.099   3.332   3.789
 3913TIP3   OH211615   2.500   2.665   2.358
 3913TIP3    H111616   2.566   2.638   2.422
 3913TIP3    H211617   2.424   2.610   2.377
 3914TIP3   OH211618   2.541   2.877   2.816
 3914TIP3    H111619   2.596   2.800   2.831
 3914TIP3    H211620   2.574   2.915   2.735
 3915TIP3   OH211621   2.709   3.069   3.329
 3915TIP3    H111622   2.788   3.089   3.280
 3915TIP3    H211623   2.724   3.107   3.416
 3916TIP3   OH211624   2.787   3.224   3.551
 3916TIP3    H111625   2.715   3.256   3.606
 3916TIP3    H211626   2.815   3.301   3.501
 3917TIP3   OH211627   1.396   2.927   4.330
 3917TIP3    H111628   1.491   2.923   4.344
 3917TIP3    H211629   1.363   2.846   4.367
 3918TIP3   OH211630   3.248   2.817   4.087
 3918TIP3    H111631   3.315   2.760   4.048
 3918TIP3    H211632   3.212   2.866   4.013
 3919TIP3   OH211633   2.685   2.646   2.886
 3919TIP3    H111634   2.734   2.662   2.967
 3919TIP3    H211635   2.639   2.564   2.903
 3920TIP3   OH211636   1.175   2.932   3.787
 3920TIP3    H111637   1.218   2.869   3.729
 3920TIP3    H211638   1.230   2.935   3.865
 3921TIP3   OH211639   3.091   2.943   3.900
 3921TIP3    H111640   3.023   2.982   3.954
 3921TIP3    H211641   3.045   2.884   3.840
 3922TIP3   OH211642   2.720   2.594   2.514
 3922TIP3    H111643   2.771   2.525   2.471
 3922TIP3    H211644   2.780   2.668   2.520
 3923TIP3   OH211645   1.134   2.526   3.286
 3923TIP3    H111646   1.057   2.470   3.294
 3923TIP3    H211647   1.152   2.530   3.192
 3924TIP3   OH211648   2.309   4.119   2.761
 3924TIP3    H111649   2.363   4.119   2.683
 3924TIP3    H211650   2.342   4.192   2.814
 3925TIP3   OH211651   1.398   2.475   4.086
 3925TIP3    H111652   1.341   2.465   4.163
 3925TIP3    H211653   1.341   2.514   4.020
 3926TIP3   OH211654   1.389   3.936   4.131
 3926TIP3    H111655   1.298   3.906   4.128
 3926TIP3    H211656   1.415   3.925   4.222
 3927TIP3   OH211657   1.615   3.971   3.689
 3927TIP3    H111658   1.564   4.046   3.657
 3927TIP3    H211659   1.699   3.980   3.645
 3928TIP3   OH211660   2.006   4.205   3.828
 3928TIP3    H111661   2.044   4.196   3.916
 3928TIP3    H211662   2.068   4.260   3.780
 3929TIP3   OH211663   2.199   4.360   3.703
 3929TIP3    H111664   2.262   4.305   3.656
 3929TIP3    H211665   2.252   4.417   3.758
 3930TIP3   OH211666   2.998   2.688   3.784
 3930TIP3    H111667   2.913   2.686   3.740
 3930TIP3    H211668   3.030   2.598   3.779
 3931TIP3   OH211669   1.275   4.203   3.744
 3931TIP3    H111670   1.185   4.221   3.719
 3931TIP3    H211671   1.297   4.272   3.806
 3932TIP3   OH211672   1.503   4.201   3.587
 3932TIP3    H111673   1.420   4.204   3.635
 3932TIP3    H211674   1.479   4.224   3.498
 3933TIP3   OH211675   1.914   4.224   3.378
 3933TIP3    H111676   1.840   4.233   3.318
 3933TIP3    H211677   1.924   4.311   3.416
 3934TIP3   OH211678   2.176   4.155   3.423
 3934TIP3    H111679   2.085   4.177   3.405
 3934TIP3    H211680   2.227   4.223   3.379
 3935TIP3   OH211681   2.378   4.326   3.328
 3935TIP3    H111682   2.378   4.413   3.289
 3935TIP3    H211683   2.409   4.269   3.257
 3936TIP3   OH211684   1.184   3.998   3.467
 3936TIP3    H111685   1.212   3.973   3.555
 3936TIP3    H211686   1.254   3.965   3.410
 3937TIP3   OH211687   1.387   3.888   3.323
 3937TIP3    H111688   1.397   3.802   3.364
 3937TIP3    H211689   1.475   3.926   3.323
 3938TIP3   OH211690   1.658   3.957   3.338
 3938TIP3    H111691   1.675   3.864   3.322
 3938TIP3    H211692   1.715   3.980   3.412
 3939TIP3   OH211693   2.266   2.635   3.408
 3939TIP3    H111694   2.247   2.559   3.463
 3939TIP3    H211695   2.323   2.601   3.339
 3940TIP3   OH211696   2.711   2.553   3.324
 3940TIP3    H111697   2.759   2.574   3.244
 3940TIP3    H211698   2.622   2.535   3.294
 3941TIP3   OH211699   2.858   2.627   3.107
 3941TIP3    H111700   2.915   2.560   3.069
 3941TIP3    H211701   2.894   2.710   3.076
 3942TIP3   OH211702   1.455   2.315   3.399
 3942TIP3    H111703   1.370   2.283   3.428
 3942TIP3    H211704   1.513   2.240   3.406
 3943TIP3   OH211705   1.294   2.176   3.051
 3943TIP3    H111706   1.340   2.231   2.988
 3943TIP3    H211707   1.206   2.214   3.056
 3944TIP3   OH211708   1.919   2.385   3.347
 3944TIP3    H111709   1.978   2.402   3.273
 3944TIP3    H211710   1.857   2.458   3.346
 3945TIP3   OH211711   2.445   2.493   3.253
 3945TIP3    H111712   2.471   2.460   3.166
 3945TIP3    H211713   2.442   2.415   3.308
 3946TIP3   OH211714   0.985   3.762   2.798
 3946TIP3    H111715   0.896   3.727   2.787
 3946TIP3    H211716   0.976   3.856   2.789
 3947TIP3   OH211717   1.382   2.358   2.853
 3947TIP3    H111718   1.422   2.309   2.781
 3947TIP3    H211719   1.454   2.410   2.889
 3948TIP3   OH211720   1.874   2.541   2.945
 3948TIP3    H111721   1.936   2.492   2.999
 3948TIP3    H211722   1.889   2.632   2.967
 3949TIP3   OH211723   1.751   3.938   2.435
 3949TIP3    H111724   1.836   3.964   2.399
 3949TIP3    H211725   1.721   3.867   2.379
 3950TIP3   OH211726   2.442   4.080   2.519
 3950TIP3    H111727   2.420   3.988   2.503
 3950TIP3    H211728   2.402   4.127   2.447
 3951TIP3   OH211729   1.685   2.600   4.317
 3951TIP3    H111730   1.647   2.529   4.369
 3951TIP3    H211731   1.776   2.605   4.347
 3952TIP3   OH211732   1.931   2.596   4.443
 3952TIP3    H111733   2.013   2.568   4.402
 3952TIP3    H211734   1.915   2.530   4.511
 3953TIP3   OH211735   1.055   3.766   2.501
 3953TIP3    H111736   1.050   3.759   2.596
 3953TIP3    H211737   1.139   3.726   2.478
 3954TIP3   OH211738   2.767   2.710   4.221
 3954TIP3    H111739   2.782   2.679   4.310
 3954TIP3    H211740   2.851   2.701   4.177
 3955TIP3   OH211741   2.665   4.220   3.719
 3955TIP3    H111742   2.591   4.191   3.666
 3955TIP3    H211743   2.654   4.315   3.728
 3956TIP3   OH211744   3.947   3.608   2.453
 3956TIP3    H111745   3.918   3.695   2.427
 3956TIP3    H211746   3.875   3.550   2.427
 3957TIP3   OH211747   3.970   3.605   2.890
 3957TIP3    H111748   4.030   3.571   2.957
 3957TIP3    H211749   3.918   3.529   2.864
 3958TIP3   OH211750   3.264   3.490   3.209
 3958TIP3    H111751   3.291   3.409   3.254
 3958TIP3    H211752   3.293   3.560   3.268
 3959TIP3   OH211753   4.207   3.918   2.544
 3959TIP3    H111754   4.201   3.848   2.609
 3959TIP3    H211755   4.229   3.996   2.595
 3960TIP3   OH211756   3.239   3.905   2.919
 3960TIP3    H111757   3.224   3.812   2.935
 3960TIP3    H211758   3.333   3.912   2.905
 3961TIP3   OH211759   2.912   3.070   2.675
 3961TIP3    H111760   2.928   3.150   2.625
 3961TIP3    H211761   2.847   3.095   2.740
 3962TIP3   OH211762   2.946   3.381   2.887
 3962TIP3    H111763   3.008   3.314   2.914
 3962TIP3    H211764   2.967   3.398   2.796
 3963TIP3   OH211765   3.880   4.333   2.574
 3963TIP3    H111766   3.903   4.268   2.506
 3963TIP3    H211767   3.887   4.285   2.656
 3964TIP3   OH211768   3.734   3.807   2.911
 3964TIP3    H111769   3.782   3.733   2.872
 3964TIP3    H211770   3.802   3.869   2.937
 3965TIP3   OH211771   4.789   3.139   2.903
 3965TIP3    H111772   4.804   3.224   2.944
 3965TIP3    H211773   4.820   3.151   2.813
 3966TIP3   OH211774   4.115   3.276   2.933
 3966TIP3    H111775   4.163   3.197   2.956
 3966TIP3    H211776   4.104   3.271   2.838
 3967TIP3   OH211777   3.495   2.976   2.892
 3967TIP3    H111778   3.480   3.044   2.827
 3967TIP3    H211779   3.441   2.903   2.864
 3968TIP3   OH211780   4.222   3.077   2.513
 3968TIP3    H111781   4.289   3.071   2.581
 3968TIP3    H211782   4.268   3.111   2.436
 3969TIP3   OH211783   3.116   3.185   2.997
 3969TIP3    H111784   3.193   3.166   3.050
 3969TIP3    H211785   3.129   3.134   2.917
 3970TIP3   OH211786   3.564   3.372   2.804
 3970TIP3    H111787   3.658   3.361   2.819
 3970TIP3    H211788   3.536   3.288   2.768
 3971TIP3   OH211789   4.841   3.361   3.066
 3971TIP3    H111790   4.753   3.398   3.061
 3971TIP3    H211791   4.878   3.397   3.146
 3972TIP3   OH211792   3.491   2.974   3.324
 3972TIP3    H111793   3.440   3.015   3.254
 3972TIP3    H211794   3.436   2.983   3.402
 3973TIP3   OH211795   3.852   3.829   2.310
 3973TIP3    H111796   3.807   3.795   2.233
 3973TIP3    H211797   3.798   3.902   2.340
 3974TIP3   OH211798   3.600   3.750   3.158
 3974TIP3    H111799   3.529   3.814   3.167
 3974TIP3    H211800   3.632   3.764   3.068
 3975TIP3   OH211801   4.388   3.096   2.726
 3975TIP3    H111802   4.343   3.075   2.808
 3975TIP3    H211803   4.441   3.172   2.747
 3976TIP3   OH211804   3.364   3.094   3.109
 3976TIP3    H111805   3.399   3.181   3.129
 3976TIP3    H211806   3.419   3.063   3.037
 3977TIP3   OH211807   3.421   3.953   3.207
 3977TIP3    H111808   3.411   4.041   3.171
 3977TIP3    H211809   3.341   3.939   3.258
 3978TIP3   OH211810   4.240   4.159   2.692
 3978TIP3    H111811   4.154   4.152   2.732
 3978TIP3    H211812   4.239   4.244   2.648
 3979TIP3   OH211813   4.593   3.025   3.071
 3979TIP3    H111814   4.508   3.055   3.039
 3979TIP3    H211815   4.655   3.054   3.005
 3980TIP3   OH211816   3.839   2.664   3.084
 3980TIP3    H111817   3.833   2.570   3.101
 3980TIP3    H211818   3.757   2.701   3.117
 3981TIP3   OH211819   3.957   4.188   2.347
 3981TIP3    H111820   4.010   4.109   2.336
 3981TIP3    H211821   4.014   4.260   2.320
 3982TIP3   OH211822   4.100   3.962   2.290
 3982TIP3    H111823   4.026   3.901   2.291
 3982TIP3    H211824   4.149   3.941   2.370
 3983TIP3   OH211825   4.477   4.049   3.035
 3983TIP3    H111826   4.461   3.973   2.979
 3983TIP3    H211827   4.461   4.125   2.978
 3984TIP3   OH211828   3.770   3.445   2.310
 3984TIP3    H111829   3.687   3.489   2.294
 3984TIP3    H211830   3.814   3.444   2.225
 3985TIP3   OH211831   3.750   3.250   1.994
 3985TIP3    H111832   3.818   3.301   2.038
 3985TIP3    H211833   3.797   3.173   1.960
 3986TIP3   OH211834   4.662   3.707   2.907
 3986TIP3    H111835   4.578   3.752   2.906
 3986TIP3    H211836   4.697   3.718   2.819
 3987TIP3   OH211837   4.133   3.545   2.262
 3987TIP3    H111838   4.079   3.571   2.336
 3987TIP3    H211839   4.217   3.520   2.302
 3988TIP3   OH211840   4.374   3.567   3.219
 3988TIP3    H111841   4.369   3.650   3.266
 3988TIP3    H211842   4.293   3.564   3.167
 3989TIP3   OH211843   3.359   3.525   2.705
 3989TIP3    H111844   3.324   3.467   2.637
 3989TIP3    H211845   3.434   3.477   2.741
 3990TIP3   OH211846   3.497   3.945   2.817
 3990TIP3    H111847   3.475   3.921   2.727
 3990TIP3    H211848   3.576   3.895   2.836
 3991TIP3   OH211849   4.001   4.151   2.823
 3991TIP3    H111850   3.989   4.232   2.873
 3991TIP3    H211851   3.980   4.081   2.886
 3992TIP3   OH211852   3.629   4.056   3.364
 3992TIP3    H111853   3.568   4.112   3.411
 3992TIP3    H211854   3.573   4.004   3.305
 3993TIP3   OH211855   3.961   3.401   2.103
 3993TIP3    H111856   4.021   3.459   2.150
 3993TIP3    H211857   3.989   3.408   2.011
 3994TIP3   OH211858   3.339   3.621   3.471
 3994TIP3    H111859   3.348   3.707   3.513
 3994TIP3    H211860   3.254   3.588   3.501
 3995TIP3   OH211861   3.711   4.063   2.355
 3995TIP3    H111862   3.790   4.116   2.362
 3995TIP3    H211863   3.647   4.120   2.313
 3996TIP3   OH211864   3.415   4.205   3.457
 3996TIP3    H111865   3.391   4.217   3.366
 3996TIP3    H211866   3.332   4.193   3.503
 3997TIP3   OH211867   4.479   2.627   2.158
 3997TIP3    H111868   4.402   2.650   2.210
 3997TIP3    H211869   4.494   2.703   2.103
 3998TIP3   OH211870   3.252   3.365   2.490
 3998TIP3    H111871   3.161   3.393   2.497
 3998TIP3    H211872   3.252   3.273   2.518
 3999TIP3   OH211873   4.292   4.018   1.668
 3999TIP3    H111874   4.299   4.113   1.670
 3999TIP3    H211875   4.382   3.987   1.682
 4000TIP3   OH211876   3.013   3.764   3.408
 4000TIP3    H111877   2.947   3.746   3.341
 4000TIP3    H211878   3.041   3.677   3.438
 4001TIP3   OH211879   2.859   3.961   3.073
 4001TIP3    H111880   2.951   3.986   3.085
 4001TIP3    H211881   2.809   4.037   3.101
 4002TIP3   OH211882   4.706   4.405   3.108
 4002TIP3    H111883   4.711   4.311   3.123
 4002TIP3    H211884   4.627   4.433   3.154
 4003TIP3   OH211885   3.821   4.205   3.230
 4003TIP3    H111886   3.807   4.292   3.267
 4003TIP3    H211887   3.762   4.148   3.279
 4004TIP3   OH211888   3.597   4.294   2.187
 4004TIP3    H111889   3.541   4.272   2.113
 4004TIP3    H211890   3.562   4.376   2.220
 4005TIP3   OH211891   3.042   4.186   2.579
 4005TIP3    H111892   3.087   4.170   2.662
 4005TIP3    H211893   2.994   4.105   2.562
 4006TIP3   OH211894   3.808   4.209   1.818
 4006TIP3    H111895   3.873   4.146   1.787
 4006TIP3    H211896   3.834   4.229   1.908
 4007TIP3   OH211897   3.850   4.267   2.085
 4007TIP3    H111898   3.762   4.273   2.123
 4007TIP3    H211899   3.905   4.233   2.156
 4008TIP3   OH211900   4.610   3.517   3.379
 4008TIP3    H111901   4.524   3.533   3.339
 4008TIP3    H211902   4.624   3.422   3.369
 4009TIP3   OH211903   3.202   3.963   3.376
 4009TIP3    H111904   3.254   3.951   3.456
 4009TIP3    H211905   3.133   3.896   3.383
 4010TIP3   OH211906   3.595   2.753   3.191
 4010TIP3    H111907   3.512   2.717   3.161
 4010TIP3    H211908   3.571   2.835   3.234
 4011TIP3   OH211909   4.136   2.879   3.403
 4011TIP3    H111910   4.209   2.857   3.461
 4011TIP3    H211911   4.058   2.860   3.454
 4012TIP3   OH211912   4.343   3.293   3.280
 4012TIP3    H111913   4.310   3.288   3.370
 4012TIP3    H211914   4.345   3.387   3.261
 4013TIP3   OH211915   4.034   3.396   1.842
 4013TIP3    H111916   3.994   3.384   1.756
 4013TIP3    H211917   4.118   3.437   1.823
 4014TIP3   OH211918   3.735   2.828   2.124
 4014TIP3    H111919   3.707   2.774   2.198
 4014TIP3    H211920   3.695   2.787   2.048
 4015TIP3   OH211921   3.417   3.153   2.701
 4015TIP3    H111922   3.327   3.137   2.727
 4015TIP3    H211923   3.425   3.111   2.615
 4016TIP3   OH211924   3.894   3.240   2.443
 4016TIP3    H111925   3.846   3.313   2.404
 4016TIP3    H211926   3.953   3.210   2.373
 4017TIP3   OH211927   4.068   3.257   2.658
 4017TIP3    H111928   4.003   3.274   2.591
 4017TIP3    H211929   4.121   3.185   2.623
 4018TIP3   OH211930   3.357   3.277   3.367
 4018TIP3    H111931   3.414   3.329   3.425
 4018TIP3    H211932   3.335   3.200   3.419
 4019TIP3   OH211933   3.384   2.777   2.165
 4019TIP3    H111934   3.371   2.871   2.180
 4019TIP3    H211935   3.351   2.761   2.077
 4020TIP3   OH211936   2.963   2.839   2.973
 4020TIP3    H111937   3.041   2.864   3.024
 4020TIP3    H211938   2.998   2.792   2.898
 4021TIP3   OH211939   2.890   2.827   2.537
 4021TIP3    H111940   2.903   2.858   2.447
 4021TIP3    H211941   2.894   2.906   2.590
 4022TIP3   OH211942   4.125   3.493   3.104
 4022TIP3    H111943   4.131   3.413   3.052
 4022TIP3    H211944   4.098   3.464   3.191
 4023TIP3   OH211945   3.748   2.975   2.765
 4023TIP3    H111946   3.673   2.971   2.825
 4023TIP3    H211947   3.821   2.938   2.815
 4024TIP3   OH211948   3.174   3.042   2.768
 4024TIP3    H111949   3.086   3.040   2.729
 4024TIP3    H211950   3.204   2.952   2.765
 4025TIP3   OH211951   3.429   3.015   2.459
 4025TIP3    H111952   3.521   3.040   2.454
 4025TIP3    H211953   3.393   3.037   2.373
 4026TIP3   OH211954   4.253   3.023   2.950
 4026TIP3    H111955   4.231   3.030   3.043
 4026TIP3    H211956   4.220   2.937   2.925
 4027TIP3   OH211957   3.324   3.042   2.201
 4027TIP3    H111958   3.243   3.034   2.150
 4027TIP3    H211959   3.375   3.109   2.156
 4028TIP3   OH211960   4.417   4.755   3.192
 4028TIP3    H111961   4.413   4.773   3.098
 4028TIP3    H211962   4.495   4.803   3.221
 4029TIP3   OH211963   3.360   3.865   3.605
 4029TIP3    H111964   3.444   3.881   3.649
 4029TIP3    H211965   3.295   3.874   3.674
 4030TIP3   OH211966   3.849   3.344   2.842
 4030TIP3    H111967   3.892   3.311   2.764
 4030TIP3    H211968   3.902   3.311   2.915
 4031TIP3   OH211969   3.312   2.795   2.765
 4031TIP3    H111970   3.288   2.721   2.820
 4031TIP3    H211971   3.318   2.759   2.677
 4032TIP3   OH211972   3.533   3.582   2.264
 4032TIP3    H111973   3.454   3.533   2.239
 4032TIP3    H211974   3.509   3.624   2.347
 4033TIP3   OH211975   4.428   3.844   2.857
 4033TIP3    H111976   4.467   3.893   2.784
 4033TIP3    H211977   4.350   3.804   2.819
 4034TIP3   OH211978   3.992   2.911   2.168
 4034TIP3    H111979   3.899   2.896   2.152
 4034TIP3    H211980   4.001   3.006   2.175
 4035TIP3   OH211981   3.927   3.872   3.268
 4035TIP3    H111982   3.920   3.807   3.338
 4035TIP3    H211983   3.944   3.955   3.313
 4036TIP3   OH211984   4.063   3.173   2.230
 4036TIP3    H111985   4.159   3.175   2.237
 4036TIP3    H211986   4.041   3.250   2.178
 4037TIP3   OH211987   3.247   3.630   2.947
 4037TIP3    H111988   3.281   3.591   2.867
 4037TIP3    H211989   3.272   3.570   3.016
 4038TIP3   OH211990   3.683   3.742   2.101
 4038TIP3    H111991   3.636   3.825   2.098
 4038TIP3    H211992   3.628   3.686   2.156
 4039TIP3   OH211993   3.088   3.528   3.539
 4039TIP3    H111994   3.089   3.489   3.627
 4039TIP3    H211995   3.019   3.480   3.493
 4040TIP3   OH211996   4.093   4.217   3.167
 4040TIP3    H111997   3.999   4.208   3.179
 4040TIP3    H211998   4.125   4.254   3.249
 4041TIP3   OH211999   4.474   3.255   2.044
 4041TIP3    H112000   4.416   3.209   1.984
 4041TIP3    H212001   4.476   3.345   2.012
 4042TIP3   OH212002   4.722   4.122   3.128
 4042TIP3    H112003   4.628   4.107   3.116
 4042TIP3    H212004   4.761   4.097   3.045
 4043TIP3   OH212005   4.191   4.057   2.024
 4043TIP3    H112006   4.160   4.031   2.111
 4043TIP3    H212007   4.223   3.976   1.985
 4044TIP3   OH212008   4.204   3.712   2.746
 4044TIP3    H112009   4.117   3.692   2.781
 4044TIP3    H212010   4.234   3.629   2.710
 4045TIP3   OH212011   3.343   3.939   2.572
 4045TIP3    H112012   3.338   4.017   2.517
 4045TIP3    H212013   3.255   3.929   2.608
 4046TIP3   OH212014   2.968   3.231   2.246
 4046TIP3    H112015   3.030   3.296   2.214
 4046TIP3    H212016   2.948   3.257   2.335
 4047TIP3   OH212017   3.435   3.693   2.491
 4047TIP3    H112018   3.413   3.783   2.515
 4047TIP3    H212019   3.411   3.641   2.568
 4048TIP3   OH212020   3.638   4.268   3.027
 4048TIP3    H112021   3.673   4.342   2.979
 4048TIP3    H212022   3.712   4.237   3.080
 4049TIP3   OH212023   3.270   4.168   2.425
 4049TIP3    H112024   3.185   4.181   2.468
 4049TIP3    H212025   3.312   4.254   2.428
 4050TIP3   OH212026   3.969   3.932   3.002
 4050TIP3    H112027   3.950   3.919   3.095
 4050TIP3    H212028   4.056   3.894   2.989
 4051TIP3   OH212029   3.977   3.811   1.860
 4051TIP3    H112030   4.029   3.783   1.935
 4051TIP3    H212031   3.895   3.762   1.868
 4052TIP3   OH212032   4.237   4.421   3.035
 4052TIP3    H112033   4.170   4.357   3.062
 4052TIP3    H212034   4.195   4.471   2.965
 4053TIP3   OH212035   4.304   4.291   1.669
 4053TIP3    H112036   4.356   4.366   1.638
 4053TIP3    H212037   4.226   4.331   1.708
 4054TIP3   OH212038   3.316   3.043   3.529
 4054TIP3    H112039   3.222   3.056   3.538
 4054TIP3    H212040   3.343   3.004   3.611
 4055TIP3   OH212041   4.159   3.726   2.049
 4055TIP3    H112042   4.138   3.672   2.126
 4055TIP3    H212043   4.255   3.731   2.050
 4056TIP3   OH212044   3.063   4.165   3.199
 4056TIP3    H112045   3.113   4.105   3.255
 4056TIP3    H212046   3.081   4.251   3.236
 4057TIP3   OH212047   3.334   3.772   1.886
 4057TIP3    H112048   3.343   3.680   1.862
 4057TIP3    H212049   3.317   3.772   1.980
 4058TIP3   OH212050   3.264   3.793   2.154
 4058TIP3    H112051   3.306   3.760   2.233
 4058TIP3    H212052   3.268   3.888   2.162
 4059TIP3   OH212053   4.193   3.066   3.208
 4059TIP3    H112054   4.240   3.141   3.245
 4059TIP3    H212055   4.173   3.011   3.283
 4060TIP3   OH212056   4.074   2.862   2.425
 4060TIP3    H112057   4.046   2.880   2.335
 4060TIP3    H212058   4.119   2.942   2.453
 4061TIP3   OH212059   3.541   3.973   2.092
 4061TIP3    H112060   3.457   3.994   2.132
 4061TIP3    H212061   3.561   4.049   2.036
 4062TIP3   OH212062   3.700   3.052   2.504
 4062TIP3    H112063   3.764   3.120   2.482
 4062TIP3    H212064   3.717   3.032   2.596
 4063TIP3   OH212065   4.017   3.442   3.359
 4063TIP3    H112066   3.977   3.510   3.413
 4063TIP3    H212067   4.056   3.381   3.421
 4064TIP3   OH212068   3.912   2.749   2.609
 4064TIP3    H112069   3.922   2.793   2.693
 4064TIP3    H212070   3.976   2.790   2.552
 4065TIP3   OH212071   3.293   4.063   2.173
 4065TIP3    H112072   3.275   4.136   2.114
 4065TIP3    H212073   3.282   4.100   2.261
 4066TIP3   OH212074   3.418   2.739   2.438
 4066TIP3    H112075   3.411   2.831   2.464
 4066TIP3    H212076   3.411   2.741   2.343
 4067TIP3   OH212077   4.614   3.249   3.281
 4067TIP3    H112078   4.519   3.251   3.285
 4067TIP3    H212079   4.633   3.189   3.209
 4068TIP3   OH212080   4.286   3.448   2.668
 4068TIP3    H112081   4.212   3.388   2.676
 4068TIP3    H212082   4.355   3.409   2.721
 4069TIP3   OH212083   3.009   3.695   2.093
 4069TIP3    H112084   3.082   3.750   2.121
 4069TIP3    H212085   3.050   3.615   2.060
 4070TIP3   OH212086   2.899   2.958   2.299
 4070TIP3    H112087   2.929   3.048   2.286
 4070TIP3    H212088   2.855   2.935   2.217
 4071TIP3   OH212089   4.268   4.424   2.605
 4071TIP3    H112090   4.230   4.476   2.535
 4071TIP3    H212091   4.362   4.434   2.594
 4072TIP3   OH212092   3.341   2.660   3.146
 4072TIP3    H112093   3.309   2.628   3.062
 4072TIP3    H212094   3.332   2.586   3.206
 4073TIP3   OH212095   2.911   3.959   2.510
 4073TIP3    H112096   2.867   3.882   2.545
 4073TIP3    H212097   2.867   3.976   2.427
 4074TIP3   OH212098   3.067   4.465   3.613
 4074TIP3    H112099   3.148   4.473   3.664
 4074TIP3    H212100   3.058   4.370   3.598
 4075TIP3   OH212101   3.525   4.366   3.652
 4075TIP3    H112102   3.614   4.335   3.664
 4075TIP3    H212103   3.490   4.313   3.580
 4076TIP3   OH212104   3.492   3.965   1.766
 4076TIP3    H112105   3.445   3.897   1.814
 4076TIP3    H212106   3.569   3.921   1.730
 4077TIP3   OH212107   4.195   4.315   3.402
 4077TIP3    H112108   4.182   4.249   3.470
 4077TIP3    H212109   4.270   4.366   3.434
 4078TIP3   OH212110   3.988   4.026   1.694
 4078TIP3    H112111   3.978   3.954   1.757
 4078TIP3    H212112   4.080   4.049   1.698
 4079TIP3   OH212113   3.161   3.859   3.799
 4079TIP3    H112114   3.185   3.767   3.810
 4079TIP3    H212115   3.073   3.857   3.763
 4080TIP3   OH212116   3.153   3.476   2.006
 4080TIP3    H112117   3.202   3.460   2.087
 4080TIP3    H212118   3.221   3.485   1.939
 4081TIP3   OH212119   3.777   3.962   3.574
 4081TIP3    H112120   3.732   3.986   3.493
 4081TIP3    H212121   3.812   3.875   3.557
 4082TIP3   OH212122   3.729   3.687   1.835
 4082TIP3    H112123   3.703   3.696   1.927
 4082TIP3    H212124   3.710   3.595   1.815
 4083TIP3   OH212125   4.254   3.987   3.187
 4083TIP3    H112126   4.332   4.015   3.139
 4083TIP3    H212127   4.193   4.060   3.179
 4084TIP3   OH212128   3.290   3.610   3.813
 4084TIP3    H112129   3.371   3.580   3.771
 4084TIP3    H212130   3.316   3.631   3.902
 4085TIP3   OH212131   3.314   3.414   2.221
 4085TIP3    H112132   3.298   3.396   2.314
 4085TIP3    H212133   3.372   3.344   2.192
 4086TIP3   OH212134   3.579   3.526   3.394
 4086TIP3    H112135   3.491   3.554   3.420
 4086TIP3    H212136   3.634   3.545   3.470
 4087TIP3   OH212137   3.478   3.235   2.081
 4087TIP3    H112138   3.448   3.241   1.990
 4087TIP3    H212139   3.574   3.237   2.075
 4088TIP3   OH212140   4.156   3.876   3.561
 4088TIP3    H112141   4.210   3.833   3.496
 4088TIP3    H212142   4.144   3.810   3.630
 4089TIP3   OH212143   4.258   3.515   1.733
 4089TIP3    H112144   4.247   3.470   1.648
 4089TIP3    H212145   4.238   3.606   1.714
 4090TIP3   OH212146   3.729   3.272   3.572
 4090TIP3    H112147   3.737   3.189   3.526
 4090TIP3    H212148   3.747   3.338   3.505
 4091TIP3   OH212149   3.744   3.052   3.396
 4091TIP3    H112150   3.786   3.072   3.312
 4091TIP3    H212151   3.655   3.027   3.373
 4092TIP3   OH212152   3.843   3.571   3.176
 4092TIP3    H112153   3.905   3.517   3.225
 4092TIP3    H212154   3.897   3.625   3.119
 4093TIP3   OH212155   4.388   3.537   3.665
 4093TIP3    H112156   4.438   3.457   3.649
 4093TIP3    H212157   4.449   3.608   3.646
 4094TIP3   OH212158   4.385   3.813   3.354
 4094TIP3    H112159   4.329   3.874   3.305
 4094TIP3    H212160   4.473   3.832   3.323
 4095TIP3   OH212161   3.614   3.349   3.813
 4095TIP3    H112162   3.550   3.282   3.835
 4095TIP3    H212163   3.645   3.326   3.725
 4096TIP3   OH212164   3.871   2.818   3.482
 4096TIP3    H112165   3.827   2.900   3.460
 4096TIP3    H212166   3.806   2.750   3.466
 4097TIP3   OH212167   4.011   3.295   3.660
 4097TIP3    H112168   4.032   3.303   3.753
 4097TIP3    H212169   3.916   3.282   3.658
 4098TIP3   OH212170   4.249   3.264   3.529
 4098TIP3    H112171   4.170   3.270   3.582
 4098TIP3    H212172   4.320   3.251   3.593
 4099TIP3   OH212173   4.482   3.231   3.694
 4099TIP3    H112174   4.492   3.136   3.699
 4099TIP3    H212175   4.471   3.258   3.785
 4100TIP3   OH212176   3.462   3.119   3.879
 4100TIP3    H112177   3.469   3.031   3.843
 4100TIP3    H212178   3.501   3.113   3.966
 4101TIP3   OH212179   3.940   2.798   3.745
 4101TIP3    H112180   4.012   2.735   3.740
 4101TIP3    H212181   3.910   2.808   3.655
 4102TIP3   OH212182   4.027   3.018   3.888
 4102TIP3    H112183   4.000   2.945   3.833
 4102TIP3    H212184   3.954   3.079   3.884
 4103TIP3   OH212185   3.298   4.274   1.991
 4103TIP3    H112186   3.384   4.248   1.958
 4103TIP3    H212187   3.256   4.318   1.917
 4104TIP3   OH212188   2.741   3.657   2.111
 4104TIP3    H112189   2.833   3.680   2.124
 4104TIP3    H212190   2.741   3.563   2.094
 4105TIP3   OH212191   2.654   4.231   2.621
 4105TIP3    H112192   2.593   4.171   2.578
 4105TIP3    H212193   2.698   4.177   2.686
 4106TIP3   OH212194   2.783   4.096   2.822
 4106TIP3    H112195   2.785   4.018   2.878
 4106TIP3    H212196   2.846   4.156   2.861
 4107TIP3   OH212197   4.542   4.468   2.603
 4107TIP3    H112198   4.560   4.495   2.694
 4107TIP3    H212199   4.595   4.526   2.550
 4108TIP3   OH212200   4.555   4.505   2.883
 4108TIP3    H112201   4.508   4.422   2.879
 4108TIP3    H212202   4.625   4.489   2.947
 4109TIP3   OH212203   4.606   4.207   3.452
 4109TIP3    H112204   4.514   4.234   3.457
 4109TIP3    H212205   4.655   4.289   3.460
 4110TIP3   OH212206   4.437   3.729   2.065
 4110TIP3    H112207   4.498   3.795   2.033
 4110TIP3    H212208   4.481   3.687   2.138
 4111TIP3   OH212209   4.566   3.581   2.262
 4111TIP3    H112210   4.500   3.544   2.320
 4111TIP3    H212211   4.633   3.616   2.321
 4112TIP3   OH212212   4.612   3.980   2.698
 4112TIP3    H112213   4.664   3.911   2.657
 4112TIP3    H212214   4.616   4.053   2.636
 4113TIP3   OH212215   4.411   4.268   2.884
 4113TIP3    H112216   4.344   4.312   2.936
 4113TIP3    H212217   4.363   4.227   2.812
 4114TIP3   OH212218   4.457   3.497   1.920
 4114TIP3    H112219   4.387   3.498   1.854
 4114TIP3    H212220   4.446   3.578   1.969
 4115TIP3   OH212221   4.312   3.145   1.854
 4115TIP3    H112222   4.264   3.181   1.780
 4115TIP3    H212223   4.314   3.051   1.837
 4116TIP3   OH212224   4.359   3.445   2.397
 4116TIP3    H112225   4.366   3.351   2.383
 4116TIP3    H212226   4.339   3.453   2.491
 4117TIP3   OH212227   2.989   3.487   3.150
 4117TIP3    H112228   2.973   3.460   3.059
 4117TIP3    H212229   3.084   3.494   3.156
 4118TIP3   OH212230   4.644   3.860   3.261
 4118TIP3    H112231   4.708   3.790   3.247
 4118TIP3    H212232   4.668   3.928   3.199
 4119TIP3   OH212233   4.817   3.643   3.252
 4119TIP3    H112234   4.744   3.602   3.299
 4119TIP3    H212235   4.892   3.587   3.272
 4120TIP3   OH212236   4.302   2.872   1.816
 4120TIP3    H112237   4.365   2.850   1.885
 4120TIP3    H212238   4.217   2.843   1.851
 4121TIP3   OH212239   4.354   3.165   2.282
 4121TIP3    H112240   4.401   3.082   2.295
 4121TIP3    H212241   4.395   3.204   2.205
 4122TIP3   OH212242   4.505   3.334   2.808
 4122TIP3    H112243   4.585   3.352   2.759
 4122TIP3    H212244   4.520   3.372   2.894
 4123TIP3   OH212245   4.582   3.476   3.038
 4123TIP3    H112246   4.517   3.505   3.101
 4123TIP3    H212247   4.613   3.557   2.996
 4124TIP3   OH212248   3.200   3.180   3.812
 4124TIP3    H112249   3.293   3.177   3.834
 4124TIP3    H212250   3.164   3.100   3.851
 4125TIP3   OH212251   5.044   3.066   3.578
 4125TIP3    H112252   5.111   3.013   3.536
 4125TIP3    H212253   5.007   3.119   3.508
 4126TIP3   OH212254   4.471   2.918   2.335
 4126TIP3    H112255   4.519   2.901   2.416
 4126TIP3    H212256   4.411   2.844   2.327
 4127TIP3   OH212257   3.178   2.886   3.138
 4127TIP3    H112258   3.233   2.810   3.155
 4127TIP3    H212259   3.238   2.960   3.138
 4128TIP3   OH212260   2.948   3.155   3.224
 4128TIP3    H112261   2.991   3.150   3.138
 4128TIP3    H212262   2.966   3.244   3.255
 4129TIP3   OH212263   4.891   3.196   3.391
 4129TIP3    H112264   4.820   3.235   3.442
 4129TIP3    H212265   4.848   3.130   3.337
 4130TIP3   OH212266   4.526   2.828   1.976
 4130TIP3    H112267   4.574   2.768   1.920
 4130TIP3    H212268   4.579   2.908   1.977
 4131TIP3   OH212269   2.947   2.661   2.746
 4131TIP3    H112270   2.863   2.640   2.787
 4131TIP3    H212271   2.925   2.720   2.674
 4132TIP3   OH212272   4.099   4.388   2.240
 4132TIP3    H112273   4.158   4.382   2.165
 4132TIP3    H212274   4.136   4.458   2.294
 4133TIP3   OH212275   3.158   2.710   3.548
 4133TIP3    H112276   3.114   2.712   3.632
 4133TIP3    H212277   3.103   2.762   3.490
 4134TIP3   OH212278   3.187   4.185   3.625
 4134TIP3    H112279   3.095   4.160   3.619
 4134TIP3    H212280   3.210   4.175   3.717
 4135TIP3   OH212281   3.408   4.231   3.175
 4135TIP3    H112282   3.359   4.307   3.143
 4135TIP3    H212283   3.493   4.238   3.132
 4136TIP3   OH212284   3.804   4.466   3.325
 4136TIP3    H112285   3.848   4.448   3.408
 4136TIP3    H212286   3.867   4.520   3.277
 4137TIP3   OH212287   3.995   4.617   3.193
 4137TIP3    H112288   4.058   4.562   3.147
 4137TIP3    H212289   4.050   4.673   3.249
 4138TIP3   OH212290   4.799   2.947   3.276
 4138TIP3    H112291   4.716   2.945   3.228
 4138TIP3    H212292   4.833   2.858   3.269
 4139TIP3   OH212293   3.069   4.464   3.227
 4139TIP3    H112294   2.978   4.481   3.204
 4139TIP3    H212295   3.090   4.533   3.292
 4140TIP3   OH212296   3.299   4.464   3.075
 4140TIP3    H112297   3.216   4.465   3.123
 4140TIP3    H212298   3.275   4.485   2.985
 4141TIP3   OH212299   3.708   4.482   2.867
 4141TIP3    H112300   3.634   4.494   2.808
 4141TIP3    H212301   3.718   4.568   2.909
 4142TIP3   OH212302   3.970   4.411   2.908
 4142TIP3    H112303   3.878   4.434   2.892
 4142TIP3    H212304   4.020   4.479   2.863
 4143TIP3   OH212305   4.168   4.580   2.809
 4143TIP3    H112306   4.173   4.668   2.773
 4143TIP3    H212307   4.201   4.523   2.739
 4144TIP3   OH212308   2.979   4.253   2.950
 4144TIP3    H112309   3.005   4.229   3.039
 4144TIP3    H212310   3.051   4.221   2.895
 4145TIP3   OH212311   3.186   4.147   2.810
 4145TIP3    H112312   3.195   4.061   2.850
 4145TIP3    H212313   3.275   4.184   2.812
 4146TIP3   OH212314   3.456   4.220   2.823
 4146TIP3    H112315   3.473   4.127   2.806
 4146TIP3    H212316   3.512   4.241   2.898
 4147TIP3   OH212317   3.949   2.823   2.878
 4147TIP3    H112318   3.921   2.770   2.952
 4147TIP3    H212319   4.042   2.801   2.866
 4148TIP3   OH212320   4.512   2.767   2.777
 4148TIP3    H112321   4.557   2.811   2.705
 4148TIP3    H212322   4.441   2.827   2.802
 4149TIP3   OH212323   4.631   2.860   2.553
 4149TIP3    H112324   4.699   2.798   2.527
 4149TIP3    H212325   4.672   2.946   2.542
 4150TIP3   OH212326   3.252   2.566   2.903
 4150TIP3    H112327   3.163   2.534   2.914
 4150TIP3    H212328   3.305   2.487   2.894
 4151TIP3   OH212329   3.105   2.487   2.594
 4151TIP3    H112330   3.106   2.530   2.509
 4151TIP3    H212331   3.053   2.545   2.650
 4152TIP3   OH212332   3.646   2.632   2.678
 4152TIP3    H112333   3.734   2.668   2.693
 4152TIP3    H212334   3.623   2.591   2.761
 4153TIP3   OH212335   4.210   2.755   2.819
 4153TIP3    H112336   4.241   2.733   2.731
 4153TIP3    H212337   4.223   2.674   2.869
 4154TIP3   OH212338   4.286   2.707   2.336
 4154TIP3    H112339   4.209   2.758   2.363
 4154TIP3    H212340   4.271   2.621   2.374
 4155TIP3   OH212341   2.772   4.028   2.277
 4155TIP3    H112342   2.684   3.991   2.268
 4155TIP3    H212343   2.761   4.121   2.260
 4156TIP3   OH212344   3.178   2.605   2.347
 4156TIP3    H112345   3.221   2.537   2.296
 4156TIP3    H212346   3.249   2.653   2.390
 4157TIP3   OH212347   3.706   2.789   2.433
 4157TIP3    H112348   3.789   2.774   2.477
 4157TIP3    H212349   3.695   2.884   2.433
 4158TIP3   OH212350   3.546   4.189   1.912
 4158TIP3    H112351   3.633   4.212   1.878
 4158TIP3    H212352   3.517   4.117   1.855
 4159TIP3   OH212353   4.246   4.331   2.007
 4159TIP3    H112354   4.231   4.237   2.010
 4159TIP3    H212355   4.198   4.361   1.930
 4160TIP3   OH212356   3.478   2.850   3.785
 4160TIP3    H112357   3.444   2.785   3.846
 4160TIP3    H212358   3.570   2.859   3.808
 4161TIP3   OH212359   3.722   2.855   3.912
 4161TIP3    H112360   3.801   2.833   3.863
 4161TIP3    H212361   3.717   2.788   3.981
 4162TIP3   OH212362   2.865   4.033   1.994
 4162TIP3    H112363   2.859   4.020   2.089
 4162TIP3    H212364   2.946   3.988   1.969
 4163TIP3   OH212365   4.546   2.957   3.700
 4163TIP3    H112366   4.562   2.927   3.790
 4163TIP3    H212367   4.631   2.950   3.657
 4164TIP3   OH212368   4.453   4.483   3.197
 4164TIP3    H112369   4.380   4.451   3.145
 4164TIP3    H212370   4.443   4.578   3.197
 4165TIP3   OH212371   5.744   3.867   1.942
 4165TIP3    H112372   5.710   3.953   1.920
 4165TIP3    H212373   5.676   3.806   1.913
 4166TIP3   OH212374   5.743   3.860   2.371
 4166TIP3    H112375   5.797   3.841   2.448
 4166TIP3    H212376   5.697   3.779   2.353
 4167TIP3   OH212377   5.034   3.711   2.714
 4167TIP3    H112378   5.075   3.661   2.785
 4167TIP3    H212379   5.107   3.737   2.658
 4168TIP3   OH212380   6.017   4.166   2.044
 4168TIP3    H112381   5.999   4.099   2.110
 4168TIP3    H212382   6.032   4.246   2.094
 4169TIP3   OH212383   5.028   4.143   2.394
 4169TIP3    H112384   5.009   4.050   2.401
 4169TIP3    H212385   5.123   4.148   2.387
 4170TIP3   OH212386   4.711   3.349   2.182
 4170TIP3    H112387   4.674   3.435   2.205
 4170TIP3    H212388   4.639   3.302   2.141
 4171TIP3   OH212389   4.794   3.664   2.406
 4171TIP3    H112390   4.845   3.586   2.430
 4171TIP3    H212391   4.860   3.730   2.383
 4172TIP3   OH212392   5.676   4.585   2.061
 4172TIP3    H112393   5.696   4.525   1.989
 4172TIP3    H212394   5.686   4.533   2.140
 4173TIP3   OH212395   5.546   4.080   2.372
 4173TIP3    H112396   5.592   4.002   2.343
 4173TIP3    H212397   5.615   4.138   2.404
 4174TIP3   OH212398   6.587   3.393   2.390
 4174TIP3    H112399   6.600   3.478   2.432
 4174TIP3    H212400   6.613   3.406   2.299
 4175TIP3   OH212401   5.951   3.566   2.407
 4175TIP3    H112402   5.981   3.480   2.436
 4175TIP3    H212403   5.914   3.551   2.320
 4176TIP3   OH212404   5.306   3.220   2.363
 4176TIP3    H112405   5.287   3.294   2.305
 4176TIP3    H212406   5.251   3.149   2.330
 4177TIP3   OH212407   6.009   3.326   2.007
 4177TIP3    H112408   6.071   3.320   2.079
 4177TIP3    H212409   6.059   3.362   1.934
 4178TIP3   OH212410   4.934   3.440   2.494
 4178TIP3    H112411   5.017   3.422   2.537
 4178TIP3    H212412   4.938   3.390   2.413
 4179TIP3   OH212413   5.349   3.640   2.317
 4179TIP3    H112414   5.444   3.627   2.321
 4179TIP3    H212415   5.315   3.558   2.280
 4180TIP3   OH212416   6.634   3.617   2.549
 4180TIP3    H112417   6.546   3.656   2.545
 4180TIP3    H212418   6.671   3.650   2.631
 4181TIP3   OH212419   5.290   3.230   2.817
 4181TIP3    H112420   5.240   3.266   2.743
 4181TIP3    H212421   5.234   3.247   2.893
 4182TIP3   OH212422   5.622   4.079   1.818
 4182TIP3    H112423   5.586   4.053   1.733
 4182TIP3    H212424   5.576   4.161   1.839
 4183TIP3   OH212425   5.377   4.005   2.578
 4183TIP3    H112426   5.325   4.078   2.612
 4183TIP3    H212427   5.427   4.043   2.506
 4184TIP3   OH212428   6.163   3.346   2.233
 4184TIP3    H112429   6.117   3.327   2.315
 4184TIP3    H212430   6.217   3.422   2.253
 4185TIP3   OH212431   5.181   3.335   2.585
 4185TIP3    H112432   5.237   3.410   2.606
 4185TIP3    H212433   5.227   3.292   2.513
 4186TIP3   OH212434   5.227   4.211   2.687
 4186TIP3    H112435   5.215   4.302   2.658
 4186TIP3    H212436   5.149   4.192   2.739
 4187TIP3   OH212437   4.611   3.911   1.947
 4187TIP3    H112438   4.583   3.931   1.858
 4187TIP3    H212439   4.637   3.996   1.984
 4188TIP3   OH212440   6.041   4.413   2.186
 4188TIP3    H112441   5.953   4.407   2.223
 4188TIP3    H212442   6.041   4.496   2.137
 4189TIP3   OH212443   6.391   3.277   2.559
 4189TIP3    H112444   6.305   3.299   2.523
 4189TIP3    H212445   6.453   3.305   2.492
 4190TIP3   OH212446   5.631   2.920   2.557
 4190TIP3    H112447   5.624   2.828   2.581
 4190TIP3    H212448   5.553   2.961   2.594
 4191TIP3   OH212449   5.752   4.445   1.832
 4191TIP3    H112450   5.806   4.366   1.824
 4191TIP3    H212451   5.810   4.517   1.806
 4192TIP3   OH212452   5.909   4.227   1.797
 4192TIP3    H112453   5.879   4.146   1.757
 4192TIP3    H212454   5.951   4.200   1.878
 4193TIP3   OH212455   6.285   4.300   2.526
 4193TIP3    H112456   6.263   4.226   2.470
 4193TIP3    H212457   6.269   4.377   2.472
 4194TIP3   OH212458   5.574   3.702   1.794
 4194TIP3    H112459   5.489   3.742   1.776
 4194TIP3    H212460   5.617   3.698   1.709
 4195TIP3   OH212461   5.558   3.522   1.458
 4195TIP3    H112462   5.620   3.564   1.519
 4195TIP3    H212463   5.606   3.446   1.425
 4196TIP3   OH212464   6.451   3.958   2.385
 4196TIP3    H112465   6.367   4.004   2.385
 4196TIP3    H212466   6.486   3.972   2.297
 4197TIP3   OH212467   5.933   3.803   1.755
 4197TIP3    H112468   5.876   3.828   1.828
 4197TIP3    H212469   6.015   3.776   1.796
 4198TIP3   OH212470   6.159   3.820   2.707
 4198TIP3    H112471   6.153   3.904   2.753
 4198TIP3    H212472   6.078   3.815   2.656
 4199TIP3   OH212473   5.150   3.773   2.162
 4199TIP3    H112474   5.112   3.711   2.100
 4199TIP3    H212475   5.224   3.725   2.201
 4200TIP3   OH212476   5.292   4.195   2.304
 4200TIP3    H112477   5.269   4.183   2.212
 4200TIP3    H212478   5.380   4.157   2.311
 4201TIP3   OH212479   5.244   3.769   2.538
 4201TIP3    H112480   5.283   3.731   2.459
 4201TIP3    H212481   5.292   3.850   2.552
 4202TIP3   OH212482   5.799   4.412   2.312
 4202TIP3    H112483   5.788   4.491   2.363
 4202TIP3    H212484   5.784   4.340   2.374
 4203TIP3   OH212485   5.424   4.304   2.860
 4203TIP3    H112486   5.362   4.359   2.908
 4203TIP3    H212487   5.369   4.254   2.800
 4204TIP3   OH212488   5.773   3.649   1.590
 4204TIP3    H112489   5.829   3.712   1.636
 4204TIP3    H212490   5.802   3.653   1.499
 4205TIP3   OH212491   5.179   3.848   3.009
 4205TIP3    H112492   5.184   3.942   3.025
 4205TIP3    H212493   5.085   3.829   3.002
 4206TIP3   OH212494   5.501   4.331   1.844
 4206TIP3    H112495   5.586   4.374   1.847
 4206TIP3    H212496   5.445   4.392   1.794
 4207TIP3   OH212497   5.212   4.459   2.949
 4207TIP3    H112498   5.189   4.472   2.857
 4207TIP3    H212499   5.128   4.447   2.993
 4208TIP3   OH212500   6.265   2.883   1.654
 4208TIP3    H112501   6.191   2.905   1.709
 4208TIP3    H212502   6.276   2.958   1.596
 4209TIP3   OH212503   5.016   3.608   1.976
 4209TIP3    H112504   4.941   3.652   1.936
 4209TIP3    H212505   4.986   3.519   1.992
 4210TIP3   OH212506   6.097   4.255   1.203
 4210TIP3    H112507   6.088   4.348   1.181
 4210TIP3    H212508   6.186   4.232   1.177
 4211TIP3   OH212509   4.814   4.022   2.892
 4211TIP3    H112510   4.744   4.003   2.829
 4211TIP3    H212511   4.848   3.936   2.917
 4212TIP3   OH212512   4.661   4.213   2.544
 4212TIP3    H112513   4.754   4.232   2.555
 4212TIP3    H212514   4.617   4.290   2.578
 4213TIP3   OH212515   6.519   4.670   2.610
 4213TIP3    H112516   6.526   4.575   2.618
 4213TIP3    H212517   6.436   4.692   2.652
 4214TIP3   OH212518   5.615   4.450   2.725
 4214TIP3    H112519   5.605   4.541   2.753
 4214TIP3    H212520   5.547   4.402   2.773
 4215TIP3   OH212521   5.394   4.543   1.675
 4215TIP3    H112522   5.352   4.523   1.591
 4215TIP3    H212523   5.356   4.628   1.701
 4216TIP3   OH212524   4.829   4.403   2.055
 4216TIP3    H112525   4.877   4.397   2.138
 4216TIP3    H212526   4.784   4.319   2.047
 4217TIP3   OH212527   5.593   4.482   1.302
 4217TIP3    H112528   5.642   4.409   1.265
 4217TIP3    H212529   5.631   4.496   1.388
 4218TIP3   OH212530   5.648   4.523   1.571
 4218TIP3    H112531   5.562   4.526   1.613
 4218TIP3    H212532   5.705   4.484   1.637
 4219TIP3   OH212533   6.409   3.783   2.860
 4219TIP3    H112534   6.325   3.795   2.816
 4219TIP3    H212535   6.428   3.689   2.850
 4220TIP3   OH212536   5.011   4.212   2.859
 4220TIP3    H112537   5.062   4.199   2.939
 4220TIP3    H212538   4.939   4.149   2.866
 4221TIP3   OH212539   5.391   3.010   2.678
 4221TIP3    H112540   5.308   2.977   2.645
 4221TIP3    H212541   5.369   3.092   2.723
 4222TIP3   OH212542   5.933   3.139   2.881
 4222TIP3    H112543   6.001   3.113   2.942
 4222TIP3    H212544   5.851   3.123   2.927
 4223TIP3   OH212545   6.157   3.553   2.795
 4223TIP3    H112546   6.120   3.550   2.883
 4223TIP3    H212547   6.145   3.643   2.767
 4224TIP3   OH212548   5.845   3.621   1.325
 4224TIP3    H112549   5.792   3.628   1.245
 4224TIP3    H212550   5.924   3.671   1.305
 4225TIP3   OH212551   5.534   3.053   1.645
 4225TIP3    H112552   5.501   3.062   1.734
 4225TIP3    H212553   5.494   2.973   1.612
 4226TIP3   OH212554   5.332   3.547   2.684
 4226TIP3    H112555   5.287   3.554   2.768
 4226TIP3    H212556   5.309   3.629   2.639
 4227TIP3   OH212557   5.214   3.425   2.204
 4227TIP3    H112558   5.125   3.400   2.227
 4227TIP3    H212559   5.224   3.397   2.113
 4228TIP3   OH212560   5.692   3.498   1.934
 4228TIP3    H112561   5.645   3.571   1.893
 4228TIP3    H212562   5.749   3.465   1.865
 4229TIP3   OH212563   5.877   3.763   3.005
 4229TIP3    H112564   5.852   3.695   3.067
 4229TIP3    H212565   5.969   3.780   3.024
 4230TIP3   OH212566   5.860   3.513   2.155
 4230TIP3    H112567   5.791   3.533   2.091
 4230TIP3    H212568   5.907   3.440   2.117
 4231TIP3   OH212569   5.173   3.563   2.908
 4231TIP3    H112570   5.185   3.627   2.978
 4231TIP3    H212571   5.156   3.481   2.954
 4232TIP3   OH212572   5.175   3.041   1.582
 4232TIP3    H112573   5.149   3.114   1.638
 4232TIP3    H212574   5.135   3.059   1.498
 4233TIP3   OH212575   4.765   3.083   2.488
 4233TIP3    H112576   4.835   3.120   2.543
 4233TIP3    H212577   4.805   3.074   2.402
 4234TIP3   OH212578   4.672   3.067   1.980
 4234TIP3    H112579   4.733   3.106   1.918
 4234TIP3    H212580   4.607   3.135   1.997
 4235TIP3   OH212581   5.910   3.768   2.583
 4235TIP3    H112582   5.932   3.701   2.518
 4235TIP3    H212583   5.863   3.720   2.651
 4236TIP3   OH212584   5.577   3.211   2.258
 4236TIP3    H112585   5.498   3.210   2.311
 4236TIP3    H212586   5.649   3.202   2.320
 4237TIP3   OH212587   4.973   3.301   2.261
 4237TIP3    H112588   4.885   3.304   2.223
 4237TIP3    H212589   5.003   3.212   2.243
 4238TIP3   OH212590   5.229   3.312   1.954
 4238TIP3    H112591   5.323   3.318   1.943
 4238TIP3    H212592   5.194   3.313   1.865
 4239TIP3   OH212593   6.014   3.304   2.468
 4239TIP3    H112594   5.996   3.322   2.560
 4239TIP3    H212595   5.946   3.242   2.442
 4240TIP3   OH212596   5.080   3.262   1.725
 4240TIP3    H112597   4.994   3.241   1.762
 4240TIP3    H212598   5.061   3.325   1.655
 4241TIP3   OH212599   6.222   5.009   2.683
 4241TIP3    H112600   6.219   5.024   2.589
 4241TIP3    H212601   6.301   5.055   2.713
 4242TIP3   OH212602   5.163   4.117   3.094
 4242TIP3    H112603   5.243   4.139   3.142
 4242TIP3    H212604   5.093   4.128   3.158
 4243TIP3   OH212605   5.624   3.592   2.363
 4243TIP3    H112606   5.689   3.543   2.313
 4243TIP3    H212607   5.622   3.549   2.449
 4244TIP3   OH212608   5.110   3.052   2.240
 4244TIP3    H112609   5.085   2.973   2.287
 4244TIP3    H212610   5.127   3.023   2.150
 4245TIP3   OH212611   5.597   3.490   2.625
 4245TIP3    H112612   5.510   3.522   2.649
 4245TIP3    H212613   5.657   3.542   2.678
 4246TIP3   OH212614   5.333   3.830   1.739
 4246TIP3    H112615   5.267   3.763   1.718
 4246TIP3    H212616   5.300   3.871   1.819
 4247TIP3   OH212617   6.218   4.100   2.347
 4247TIP3    H112618   6.254   4.149   2.273
 4247TIP3    H212619   6.139   4.058   2.312
 4248TIP3   OH212620   5.790   3.155   1.654
 4248TIP3    H112621   5.697   3.135   1.648
 4248TIP3    H212622   5.794   3.250   1.665
 4249TIP3   OH212623   5.745   4.184   2.763
 4249TIP3    H112624   5.796   4.173   2.843
 4249TIP3    H212625   5.705   4.271   2.772
 4250TIP3   OH212626   5.857   3.419   1.721
 4250TIP3    H112627   5.952   3.424   1.732
 4250TIP3    H212628   5.834   3.496   1.669
 4251TIP3   OH212629   5.014   3.853   2.389
 4251TIP3    H112630   5.053   3.836   2.303
 4251TIP3    H212631   5.081   3.825   2.451
 4252TIP3   OH212632   5.483   3.996   1.585
 4252TIP3    H112633   5.433   4.078   1.582
 4252TIP3    H212634   5.429   3.937   1.637
 4253TIP3   OH212635   4.903   3.788   3.026
 4253TIP3    H112636   4.905   3.760   3.117
 4253TIP3    H212637   4.827   3.743   2.988
 4254TIP3   OH212638   5.648   3.922   3.047
 4254TIP3    H112639   5.578   3.863   3.020
 4254TIP3    H212640   5.728   3.879   3.017
 4255TIP3   OH212641   5.886   4.475   2.651
 4255TIP3    H112642   5.792   4.460   2.653
 4255TIP3    H212643   5.907   4.509   2.738
 4256TIP3   OH212644   6.264   3.510   1.532
 4256TIP3    H112645   6.208   3.465   1.470
 4256TIP3    H212646   6.271   3.599   1.498
 4257TIP3   OH212647   6.529   4.390   2.620
 4257TIP3    H112648   6.435   4.372   2.615
 4257TIP3    H212649   6.564   4.357   2.537
 4258TIP3   OH212650   6.014   4.324   1.466
 4258TIP3    H112651   5.987   4.251   1.521
 4258TIP3    H212652   6.035   4.284   1.381
 4259TIP3   OH212653   5.993   3.962   2.243
 4259TIP3    H112654   5.903   3.940   2.268
 4259TIP3    H212655   6.027   3.881   2.204
 4260TIP3   OH212656   5.155   4.198   2.059
 4260TIP3    H112657   5.154   4.274   2.001
 4260TIP3    H212658   5.063   4.186   2.084
 4261TIP3   OH212659   4.688   3.464   1.775
 4261TIP3    H112660   4.739   3.544   1.789
 4261TIP3    H212661   4.611   3.474   1.831
 4262TIP3   OH212662   5.223   3.950   1.957
 4262TIP3    H112663   5.216   4.040   1.990
 4262TIP3    H212664   5.200   3.895   2.031
 4263TIP3   OH212665   5.433   4.521   2.516
 4263TIP3    H112666   5.468   4.595   2.466
 4263TIP3    H212667   5.508   4.488   2.566
 4264TIP3   OH212668   5.065   4.422   1.912
 4264TIP3    H112669   4.978   4.429   1.952
 4264TIP3    H212670   5.101   4.510   1.917
 4265TIP3   OH212671   5.776   4.191   2.487
 4265TIP3    H112672   5.766   4.187   2.582
 4265TIP3    H212673   5.851   4.133   2.469
 4266TIP3   OH212674   5.780   4.064   1.358
 4266TIP3    H112675   5.825   4.045   1.441
 4266TIP3    H212676   5.697   4.016   1.365
 4267TIP3   OH212677   6.042   4.676   2.527
 4267TIP3    H112678   5.972   4.615   2.551
 4267TIP3    H212679   6.003   4.730   2.457
 4268TIP3   OH212680   6.092   4.527   1.171
 4268TIP3    H112681   6.142   4.601   1.138
 4268TIP3    H212682   6.011   4.565   1.206
 4269TIP3   OH212683   5.118   3.308   3.024
 4269TIP3    H112684   5.023   3.316   3.029
 4269TIP3    H212685   5.142   3.257   3.101
 4270TIP3   OH212686   5.952   4.009   1.571
 4270TIP3    H112687   5.936   3.940   1.635
 4270TIP3    H212688   6.046   4.007   1.555
 4271TIP3   OH212689   4.859   4.425   2.675
 4271TIP3    H112690   4.911   4.367   2.731
 4271TIP3    H212691   4.873   4.513   2.712
 4272TIP3   OH212692   5.122   4.039   1.382
 4272TIP3    H112693   5.136   3.949   1.354
 4272TIP3    H212694   5.110   4.033   1.477
 4273TIP3   OH212695   5.064   4.043   1.655
 4273TIP3    H112696   5.130   4.012   1.717
 4273TIP3    H212697   5.069   4.139   1.661
 4274TIP3   OH212698   4.795   3.720   1.850
 4274TIP3    H112699   4.735   3.774   1.901
 4274TIP3    H212700   4.819   3.775   1.776
 4275TIP3   OH212701   5.961   3.368   2.730
 4275TIP3    H112702   6.040   3.412   2.761
 4275TIP3    H212703   5.953   3.291   2.787
 4276TIP3   OH212704   5.858   3.108   1.921
 4276TIP3    H112705   5.834   3.127   1.830
 4276TIP3    H212706   5.901   3.189   1.951
 4277TIP3   OH212707   5.337   4.224   1.577
 4277TIP3    H112708   5.253   4.250   1.616
 4277TIP3    H212709   5.363   4.299   1.524
 4278TIP3   OH212710   5.508   3.305   2.004
 4278TIP3    H112711   5.569   3.374   1.979
 4278TIP3    H212712   5.531   3.286   2.095
 4279TIP3   OH212713   5.803   3.603   2.777
 4279TIP3    H112714   5.828   3.645   2.859
 4279TIP3    H212715   5.853   3.521   2.775
 4280TIP3   OH212716   5.668   3.002   2.092
 4280TIP3    H112717   5.642   3.079   2.143
 4280TIP3    H212718   5.737   3.033   2.034
 4281TIP3   OH212719   5.091   4.317   1.660
 4281TIP3    H112720   5.072   4.389   1.600
 4281TIP3    H212721   5.082   4.356   1.747
 4282TIP3   OH212722   5.172   3.027   1.947
 4282TIP3    H112723   5.163   3.122   1.945
 4282TIP3    H212724   5.263   3.010   1.924
 4283TIP3   OH212725   6.424   3.513   2.771
 4283TIP3    H112726   6.330   3.513   2.783
 4283TIP3    H212727   6.438   3.463   2.691
 4284TIP3   OH212728   6.084   3.703   2.155
 4284TIP3    H112729   6.007   3.647   2.165
 4284TIP3    H212730   6.150   3.663   2.211
 4285TIP3   OH212731   4.818   3.914   1.642
 4285TIP3    H112732   4.895   3.970   1.656
 4285TIP3    H212733   4.843   3.856   1.570
 4286TIP3   OH212734   4.810   3.213   1.787
 4286TIP3    H112735   4.774   3.300   1.772
 4286TIP3    H212736   4.797   3.167   1.703
 4287TIP3   OH212737   6.064   4.677   2.097
 4287TIP3    H112738   6.020   4.732   2.032
 4287TIP3    H212739   6.157   4.692   2.083
 4288TIP3   OH212740   5.129   2.925   2.636
 4288TIP3    H112741   5.100   2.894   2.550
 4288TIP3    H212742   5.121   2.849   2.693
 4289TIP3   OH212743   4.657   4.177   2.038
 4289TIP3    H112744   4.620   4.214   2.119
 4289TIP3    H212745   4.610   4.223   1.968
 4290TIP3   OH212746   4.852   4.731   3.102
 4290TIP3    H112747   4.935   4.738   3.150
 4290TIP3    H212748   4.836   4.637   3.095
 4291TIP3   OH212749   5.321   4.618   3.145
 4291TIP3    H112750   5.413   4.592   3.152
 4291TIP3    H212751   5.286   4.565   3.074
 4292TIP3   OH212752   5.277   4.232   1.262
 4292TIP3    H112753   5.231   4.164   1.311
 4292TIP3    H212754   5.352   4.186   1.223
 4293TIP3   OH212755   5.942   4.566   2.904
 4293TIP3    H112756   5.960   4.496   2.966
 4293TIP3    H212757   6.016   4.627   2.914
 4294TIP3   OH212758   5.717   4.268   1.186
 4294TIP3    H112759   5.755   4.205   1.247
 4294TIP3    H212760   5.773   4.264   1.109
 4295TIP3   OH212761   4.955   4.118   3.281
 4295TIP3    H112762   4.975   4.025   3.295
 4295TIP3    H212763   4.867   4.117   3.242
 4296TIP3   OH212764   4.904   3.749   1.444
 4296TIP3    H112765   4.915   3.659   1.475
 4296TIP3    H212766   4.988   3.771   1.404
 4297TIP3   OH212767   5.580   4.199   3.063
 4297TIP3    H112768   5.535   4.221   2.982
 4297TIP3    H212769   5.615   4.111   3.049
 4298TIP3   OH212770   5.531   3.934   1.323
 4298TIP3    H112771   5.505   3.946   1.414
 4298TIP3    H212772   5.504   3.845   1.301
 4299TIP3   OH212773   6.058   4.252   2.682
 4299TIP3    H112774   6.135   4.278   2.632
 4299TIP3    H212775   5.993   4.320   2.666
 4300TIP3   OH212776   5.072   3.864   3.298
 4300TIP3    H112777   5.148   3.848   3.242
 4300TIP3    H212778   5.110   3.885   3.383
 4301TIP3   OH212779   5.138   3.642   1.709
 4301TIP3    H112780   5.101   3.616   1.793
 4301TIP3    H212781   5.094   3.586   1.645
 4302TIP3   OH212782   5.440   3.748   2.955
 4302TIP3    H112783   5.354   3.787   2.966
 4302TIP3    H212784   5.469   3.777   2.868
 4303TIP3   OH212785   5.935   4.121   3.025
 4303TIP3    H112786   6.004   4.082   2.971
 4303TIP3    H212787   5.931   4.065   3.102
 4304TIP3   OH212788   6.058   3.764   1.220
 4304TIP3    H112789   6.045   3.725   1.134
 4304TIP3    H212790   6.035   3.856   1.208
 4305TIP3   OH212791   5.542   3.514   3.058
 4305TIP3    H112792   5.544   3.445   2.992
 4305TIP3    H212793   5.508   3.591   3.012
 4306TIP3   OH212794   5.549   3.317   2.854
 4306TIP3    H112795   5.576   3.354   2.770
 4306TIP3    H212796   5.458   3.290   2.839
 4307TIP3   OH212797   5.546   3.846   2.725
 4307TIP3    H112798   5.634   3.882   2.713
 4307TIP3    H212799   5.490   3.903   2.673
 4308TIP3   OH212800   6.146   3.809   3.102
 4308TIP3    H112801   6.191   3.724   3.104
 4308TIP3    H212802   6.216   3.874   3.098
 4309TIP3   OH212803   6.175   4.067   2.843
 4309TIP3    H112804   6.123   4.131   2.794
 4309TIP3    H212805   6.265   4.080   2.811
 4310TIP3   OH212806   5.429   3.592   3.304
 4310TIP3    H112807   5.357   3.532   3.323
 4310TIP3    H212808   5.455   3.569   3.215
 4311TIP3   OH212809   5.669   3.088   2.961
 4311TIP3    H112810   5.629   3.168   2.927
 4311TIP3    H212811   5.603   3.020   2.948
 4312TIP3   OH212812   5.797   3.552   3.162
 4312TIP3    H112813   5.786   3.539   3.256
 4312TIP3    H212814   5.712   3.531   3.125
 4313TIP3   OH212815   6.049   3.516   3.039
 4313TIP3    H112816   5.968   3.512   3.091
 4313TIP3    H212817   6.118   3.490   3.100
 4314TIP3   OH212818   6.280   3.472   3.191
 4314TIP3    H112819   6.292   3.378   3.196
 4314TIP3    H212820   6.275   3.501   3.282
 4315TIP3   OH212821   5.255   3.377   3.365
 4315TIP3    H112822   5.261   3.288   3.330
 4315TIP3    H212823   5.294   3.370   3.453
 4316TIP3   OH212824   5.733   3.060   3.227
 4316TIP3    H112825   5.801   2.993   3.221
 4316TIP3    H212826   5.704   3.073   3.137
 4317TIP3   OH212827   5.833   3.270   3.374
 4317TIP3    H112828   5.801   3.199   3.319
 4317TIP3    H212829   5.762   3.334   3.375
 4318TIP3   OH212830   5.087   4.528   1.479
 4318TIP3    H112831   5.176   4.506   1.452
 4318TIP3    H212832   5.050   4.574   1.404
 4319TIP3   OH212833   4.545   3.908   1.663
 4319TIP3    H112834   4.640   3.922   1.657
 4319TIP3    H212835   4.531   3.823   1.621
 4320TIP3   OH212836   4.454   4.483   2.109
 4320TIP3    H112837   4.390   4.428   2.064
 4320TIP3    H212838   4.498   4.424   2.170
 4321TIP3   OH212839   4.600   4.320   2.282
 4321TIP3    H112840   4.593   4.253   2.350
 4321TIP3    H212841   4.652   4.390   2.322
 4322TIP3   OH212842   6.335   4.728   2.091
 4322TIP3    H112843   6.358   4.755   2.180
 4322TIP3    H212844   6.397   4.775   2.036
 4323TIP3   OH212845   6.361   4.756   2.372
 4323TIP3    H112846   6.312   4.674   2.368
 4323TIP3    H212847   6.426   4.742   2.441
 4324TIP3   OH212848   6.411   4.464   2.940
 4324TIP3    H112849   6.341   4.473   3.005
 4324TIP3    H212850   6.458   4.547   2.944
 4325TIP3   OH212851   6.229   3.978   1.550
 4325TIP3    H112852   6.287   4.048   1.518
 4325TIP3    H212853   6.277   3.940   1.624
 4326TIP3   OH212854   6.362   3.834   1.749
 4326TIP3    H112855   6.295   3.797   1.806
 4326TIP3    H212856   6.427   3.870   1.809
 4327TIP3   OH212857   6.404   4.236   2.189
 4327TIP3    H112858   6.456   4.168   2.146
 4327TIP3    H212859   6.402   4.308   2.126
 4328TIP3   OH212860   6.214   4.520   2.376
 4328TIP3    H112861   6.148   4.566   2.428
 4328TIP3    H212862   6.165   4.480   2.305
 4329TIP3   OH212863   6.265   3.751   1.399
 4329TIP3    H112864   6.195   3.750   1.334
 4329TIP3    H212865   6.250   3.830   1.450
 4330TIP3   OH212866   6.114   3.394   1.335
 4330TIP3    H112867   6.067   3.432   1.261
 4330TIP3    H212868   6.110   3.299   1.321
 4331TIP3   OH212869   6.157   3.698   1.886
 4331TIP3    H112870   6.160   3.604   1.871
 4331TIP3    H212871   6.137   3.706   1.980
 4332TIP3   OH212872   4.772   3.756   2.662
 4332TIP3    H112873   4.763   3.724   2.572
 4332TIP3    H212874   4.866   3.750   2.680
 4333TIP3   OH212875   6.432   4.109   2.744
 4333TIP3    H112876   6.503   4.046   2.728
 4333TIP3    H212877   6.436   4.169   2.669
 4334TIP3   OH212878   6.624   3.906   2.741
 4334TIP3    H112879   6.549   3.867   2.786
 4334TIP3    H212880   6.697   3.847   2.759
 4335TIP3   OH212881   6.084   3.120   1.303
 4335TIP3    H112882   6.146   3.098   1.373
 4335TIP3    H212883   6.000   3.090   1.336
 4336TIP3   OH212884   6.148   3.420   1.776
 4336TIP3    H112885   6.194   3.337   1.788
 4336TIP3    H212886   6.186   3.458   1.697
 4337TIP3   OH212887   6.299   3.582   2.299
 4337TIP3    H112888   6.379   3.599   2.250
 4337TIP3    H212889   6.314   3.623   2.384
 4338TIP3   OH212890   6.375   3.732   2.525
 4338TIP3    H112891   6.303   3.761   2.582
 4338TIP3    H212892   6.402   3.812   2.479
 4339TIP3   OH212893   4.993   3.434   3.297
 4339TIP3    H112894   5.086   3.433   3.318
 4339TIP3    H212895   4.957   3.356   3.338
 4340TIP3   OH212896   6.839   3.320   3.064
 4340TIP3    H112897   6.906   3.267   3.021
 4340TIP3    H212898   6.802   3.373   2.994
 4341TIP3   OH212899   6.265   3.171   1.826
 4341TIP3    H112900   6.312   3.157   1.908
 4341TIP3    H212901   6.201   3.100   1.822
 4342TIP3   OH212902   4.972   3.154   2.663
 4342TIP3    H112903   5.024   3.074   2.664
 4342TIP3    H212904   5.034   3.223   2.639
 4343TIP3   OH212905   4.747   3.420   2.707
 4343TIP3    H112906   4.800   3.408   2.628
 4343TIP3    H212907   4.780   3.500   2.746
 4344TIP3   OH212908   6.684   3.442   2.877
 4344TIP3    H112909   6.607   3.483   2.916
 4344TIP3    H212910   6.648   3.374   2.820
 4345TIP3   OH212911   6.307   3.077   1.464
 4345TIP3    H112912   6.359   3.017   1.409
 4345TIP3    H212913   6.359   3.157   1.468
 4346TIP3   OH212914   4.738   2.931   2.209
 4346TIP3    H112915   4.652   2.922   2.250
 4346TIP3    H212916   4.723   2.986   2.133
 4347TIP3   OH212917   5.894   4.653   1.734
 4347TIP3    H112918   5.944   4.635   1.655
 4347TIP3    H212919   5.941   4.724   1.778
 4348TIP3   OH212920   4.966   2.979   3.045
 4348TIP3    H112921   4.917   2.977   3.127
 4348TIP3    H212922   4.910   3.028   2.985
 4349TIP3   OH212923   4.982   4.440   3.110
 4349TIP3    H112924   4.889   4.420   3.102
 4349TIP3    H212925   5.000   4.431   3.204
 4350TIP3   OH212926   5.205   4.488   2.666
 4350TIP3    H112927   5.155   4.564   2.634
 4350TIP3    H212928   5.289   4.496   2.622
 4351TIP3   OH212929   5.597   4.716   2.801
 4351TIP3    H112930   5.634   4.709   2.889
 4351TIP3    H212931   5.658   4.772   2.754
 4352TIP3   OH212932   5.787   4.874   2.678
 4352TIP3    H112933   5.847   4.822   2.625
 4352TIP3    H212934   5.843   4.931   2.730
 4353TIP3   OH212935   6.592   3.202   2.757
 4353TIP3    H112936   6.512   3.207   2.705
 4353TIP3    H212937   6.620   3.111   2.750
 4354TIP3   OH212938   4.865   4.719   2.714
 4354TIP3    H112939   4.774   4.735   2.688
 4354TIP3    H212940   4.885   4.786   2.778
 4355TIP3   OH212941   5.095   4.719   2.562
 4355TIP3    H112942   5.012   4.722   2.610
 4355TIP3    H212943   5.072   4.741   2.472
 4356TIP3   OH212944   5.505   4.735   2.356
 4356TIP3    H112945   5.434   4.745   2.293
 4356TIP3    H212946   5.515   4.822   2.395
 4357TIP3   OH212947   5.769   4.671   2.406
 4357TIP3    H112948   5.678   4.690   2.384
 4357TIP3    H212949   5.820   4.735   2.357
 4358TIP3   OH212950   5.970   4.836   2.302
 4358TIP3    H112951   5.972   4.924   2.263
 4358TIP3    H212952   6.000   4.778   2.232
 4359TIP3   OH212953   4.773   4.502   2.422
 4359TIP3    H112954   4.798   4.481   2.512
 4359TIP3    H212955   4.846   4.470   2.369
 4360TIP3   OH212956   4.979   4.389   2.285
 4360TIP3    H112957   4.990   4.303   2.327
 4360TIP3    H212958   5.066   4.429   2.291
 4361TIP3   OH212959   5.246   4.472   2.313
 4361TIP3    H112960   5.266   4.380   2.298
 4361TIP3    H212961   5.301   4.496   2.388
 4362TIP3   OH212962   5.801   3.120   2.405
 4362TIP3    H112963   5.761   3.049   2.455
 4362TIP3    H212964   5.870   3.078   2.354
 4363TIP3   OH212965   6.305   3.036   2.280
 4363TIP3    H112966   6.342   3.086   2.208
 4363TIP3    H212967   6.213   3.063   2.284
 4364TIP3   OH212968   6.423   3.117   2.046
 4364TIP3    H112969   6.492   3.055   2.021
 4364TIP3    H212970   6.463   3.203   2.034
 4365TIP3   OH212971   5.043   2.823   2.393
 4365TIP3    H112972   4.954   2.788   2.401
 4365TIP3    H212973   5.098   2.746   2.384
 4366TIP3   OH212974   4.870   2.734   2.051
 4366TIP3    H112975   4.899   2.783   1.974
 4366TIP3    H212976   4.833   2.801   2.109
 4367TIP3   OH212977   5.533   2.856   2.294
 4367TIP3    H112978   5.576   2.906   2.225
 4367TIP3    H212979   5.572   2.888   2.376
 4368TIP3   OH212980   6.013   3.002   2.273
 4368TIP3    H112981   6.021   2.972   2.182
 4368TIP3    H212982   6.026   2.924   2.326
 4369TIP3   OH212983   6.079   2.961   1.840
 4369TIP3    H112984   5.999   3.008   1.863
 4369TIP3    H212985   6.067   2.873   1.876
 4370TIP3   OH212986   4.534   4.307   1.831
 4370TIP3    H112987   4.452   4.280   1.791
 4370TIP3    H212988   4.545   4.398   1.804
 4371TIP3   OH212989   4.975   2.866   1.820
 4371TIP3    H112990   5.021   2.811   1.756
 4371TIP3    H212991   5.044   2.920   1.858
 4372TIP3   OH212992   5.451   3.055   1.908
 4372TIP3    H112993   5.508   3.001   1.963
 4372TIP3    H212994   5.467   3.145   1.937
 4373TIP3   OH212995   5.341   4.453   1.408
 4373TIP3    H112996   5.424   4.480   1.370
 4373TIP3    H212997   5.310   4.383   1.351
 4374TIP3   OH212998   6.039   4.594   1.505
 4374TIP3    H112999   6.035   4.498   1.497
 4374TIP3    H213000   5.998   4.627   1.425
 4375TIP3   OH213001   5.274   3.107   3.277
 4375TIP3    H113002   5.241   3.040   3.336
 4375TIP3    H213003   5.366   3.117   3.301
 4376TIP3   OH213004   5.520   3.115   3.403
 4376TIP3    H113005   5.596   3.092   3.350
 4376TIP3    H213006   5.514   3.046   3.469
 4377TIP3   OH213007   4.675   4.320   1.458
 4377TIP3    H113008   4.677   4.310   1.553
 4377TIP3    H213009   4.747   4.265   1.427
 4378TIP3   OH213010   6.343   3.201   3.188
 4378TIP3    H113011   6.362   3.171   3.277
 4378TIP3    H213012   6.427   3.196   3.142
 4379TIP3   OH213013   6.263   4.735   2.690
 4379TIP3    H113014   6.189   4.703   2.639
 4379TIP3    H213015   6.247   4.829   2.698
 4380TIP3   OH213016   7.532   4.115   1.434
 4380TIP3    H113017   7.497   4.202   1.420
 4380TIP3    H213018   7.463   4.055   1.405
 4381TIP3   OH213019   7.533   4.117   1.857
 4381TIP3    H113020   7.588   4.099   1.933
 4381TIP3    H213021   7.488   4.034   1.839
 4382TIP3   OH213022   6.829   3.967   2.200
 4382TIP3    H113023   6.870   3.918   2.272
 4382TIP3    H213024   6.902   3.995   2.145
 4383TIP3   OH213025   7.802   4.422   1.530
 4383TIP3    H113026   7.789   4.355   1.598
 4383TIP3    H213027   7.825   4.501   1.579
 4384TIP3   OH213028   6.835   4.416   1.915
 4384TIP3    H113029   6.813   4.323   1.910
 4384TIP3    H213030   6.927   4.419   1.891
 4385TIP3   OH213031   6.506   3.604   1.667
 4385TIP3    H113032   6.469   3.689   1.691
 4385TIP3    H213033   6.433   3.557   1.626
 4386TIP3   OH213034   6.590   3.919   1.892
 4386TIP3    H113035   6.640   3.842   1.918
 4386TIP3    H213036   6.656   3.982   1.864
 4387TIP3   OH213037   7.480   4.834   1.559
 4387TIP3    H113038   7.500   4.778   1.485
 4387TIP3    H213039   7.500   4.780   1.636
 4388TIP3   OH213040   7.341   4.336   1.861
 4388TIP3    H113041   7.387   4.257   1.833
 4388TIP3    H213042   7.410   4.396   1.889
 4389TIP3   OH213043   8.377   3.640   1.879
 4389TIP3    H113044   8.377   3.725   1.925
 4389TIP3    H213045   8.414   3.660   1.793
 4390TIP3   OH213046   7.746   3.824   1.895
 4390TIP3    H113047   7.775   3.737   1.923
 4390TIP3    H213048   7.707   3.809   1.808
 4391TIP3   OH213049   7.101   3.479   1.852
 4391TIP3    H113050   7.081   3.554   1.795
 4391TIP3    H213051   7.045   3.409   1.820
 4392TIP3   OH213052   7.800   3.592   1.501
 4392TIP3    H113053   7.864   3.580   1.570
 4392TIP3    H213054   7.850   3.629   1.428
 4393TIP3   OH213055   6.727   3.696   1.984
 4393TIP3    H113056   6.811   3.678   2.027
 4393TIP3    H213057   6.731   3.645   1.903
 4394TIP3   OH213058   7.144   3.898   1.804
 4394TIP3    H113059   7.239   3.885   1.807
 4394TIP3    H213060   7.110   3.816   1.768
 4395TIP3   OH213061   8.374   3.852   2.059
 4395TIP3    H113062   8.302   3.909   2.032
 4395TIP3    H213063   8.451   3.909   2.058
 4396TIP3   OH213064   7.085   3.486   2.306
 4396TIP3    H113065   7.036   3.522   2.232
 4396TIP3    H213066   7.030   3.502   2.382
 4397TIP3   OH213067   7.385   4.323   1.332
 4397TIP3    H113068   7.370   4.310   1.238
 4397TIP3    H213069   7.351   4.410   1.350
 4398TIP3   OH213070   7.174   4.263   2.070
 4398TIP3    H113071   7.126   4.338   2.105
 4398TIP3    H213072   7.225   4.299   1.998
 4399TIP3   OH213073   7.959   3.596   1.726
 4399TIP3    H113074   7.908   3.586   1.807
 4399TIP3    H213075   8.012   3.674   1.741
 4400TIP3   OH213076   6.976   3.592   2.074
 4400TIP3    H113077   7.030   3.668   2.096
 4400TIP3    H213078   7.022   3.549   2.002
 4401TIP3   OH213079   7.029   4.474   2.185
 4401TIP3    H113080   7.013   4.564   2.156
 4401TIP3    H213081   6.950   4.449   2.233
 4402TIP3   OH213082   6.401   4.165   1.432
 4402TIP3    H113083   6.368   4.189   1.345
 4402TIP3    H213084   6.425   4.248   1.472
 4403TIP3   OH213085   7.835   4.662   1.685
 4403TIP3    H113086   7.743   4.659   1.714
 4403TIP3    H213087   7.842   4.743   1.636
 4404TIP3   OH213088   8.191   3.518   2.049
 4404TIP3    H113089   8.107   3.558   2.027
 4404TIP3    H213090   8.252   3.551   1.983
 4405TIP3   OH213091   7.427   3.175   2.045
 4405TIP3    H113092   7.419   3.083   2.070
 4405TIP3    H213093   7.349   3.217   2.082
 4406TIP3   OH213094   7.547   4.701   1.325
 4406TIP3    H113095   7.600   4.622   1.316
 4406TIP3    H213096   7.603   4.772   1.293
 4407TIP3   OH213097   7.693   4.479   1.283
 4407TIP3    H113098   7.714   4.410   1.220
 4407TIP3    H213099   7.736   4.452   1.364
 4408TIP3   OH213100   8.084   4.539   2.022
 4408TIP3    H113101   8.062   4.471   1.958
 4408TIP3    H213102   8.073   4.621   1.974
 4409TIP3   OH213103   7.359   3.956   1.282
 4409TIP3    H113104   7.278   4.004   1.264
 4409TIP3    H213105   7.408   3.959   1.200
 4410TIP3   OH213106   7.336   3.772   0.966
 4410TIP3    H113107   7.400   3.823   1.015
 4410TIP3    H213108   7.387   3.706   0.920
 4411TIP3   OH213109   8.240   4.209   1.865
 4411TIP3    H113110   8.160   4.261   1.857
 4411TIP3    H213111   8.279   4.211   1.778
 4412TIP3   OH213112   7.718   4.059   1.241
 4412TIP3    H113113   7.662   4.084   1.315
 4412TIP3    H213114   7.801   4.033   1.282
 4413TIP3   OH213115   7.944   4.080   2.198
 4413TIP3    H113116   7.938   4.165   2.242
 4413TIP3    H213117   7.864   4.074   2.146
 4414TIP3   OH213118   6.943   4.028   1.652
 4414TIP3    H113119   6.909   3.967   1.587
 4414TIP3    H213120   7.017   3.982   1.691
 4415TIP3   OH213121   7.088   4.452   1.795
 4415TIP3    H113122   7.061   4.438   1.704
 4415TIP3    H213123   7.175   4.414   1.800
 4416TIP3   OH213124   7.041   4.027   2.026
 4416TIP3    H113125   7.080   3.990   1.947
 4416TIP3    H213126   7.090   4.108   2.041
 4417TIP3   OH213127   7.580   4.673   1.790
 4417TIP3    H113128   7.575   4.750   1.847
 4417TIP3    H213129   7.570   4.598   1.849
 4418TIP3   OH213130   7.228   4.555   2.357
 4418TIP3    H113131   7.175   4.567   2.435
 4418TIP3    H213132   7.168   4.515   2.293
 4419TIP3   OH213133   7.550   3.918   1.074
 4419TIP3    H113134   7.609   3.977   1.122
 4419TIP3    H213135   7.576   3.928   0.983
 4420TIP3   OH213136   6.968   4.098   2.480
 4420TIP3    H113137   6.971   4.188   2.511
 4420TIP3    H213138   6.874   4.078   2.475
 4421TIP3   OH213139   7.293   4.587   1.352
 4421TIP3    H113140   7.379   4.629   1.354
 4421TIP3    H213141   7.238   4.647   1.303
 4422TIP3   OH213142   6.894   4.854   2.409
 4422TIP3    H113143   6.930   4.816   2.329
 4422TIP3    H213144   6.870   4.778   2.462
 4423TIP3   OH213145   8.067   3.147   1.202
 4423TIP3    H113146   7.988   3.178   1.246
 4423TIP3    H213147   8.081   3.209   1.130
 4424TIP3   OH213148   6.823   3.868   1.450
 4424TIP3    H113149   6.747   3.917   1.420
 4424TIP3    H213150   6.791   3.778   1.463
 4425TIP3   OH213151   7.874   4.499   0.692
 4425TIP3    H113152   7.883   4.591   0.670
 4425TIP3    H213153   7.963   4.463   0.682
 4426TIP3   OH213154   6.603   4.277   2.383
 4426TIP3    H113155   6.533   4.259   2.320
 4426TIP3    H213156   6.638   4.191   2.405
 4427TIP3   OH213157   6.434   4.471   2.037
 4427TIP3    H113158   6.522   4.500   2.063
 4427TIP3    H213159   6.377   4.544   2.062
 4428TIP3   OH213160   8.315   4.944   2.080
 4428TIP3    H113161   8.320   4.849   2.085
 4428TIP3    H213162   8.231   4.967   2.120
 4429TIP3   OH213163   7.410   4.701   2.211
 4429TIP3    H113164   7.402   4.793   2.238
 4429TIP3    H213165   7.344   4.655   2.263
 4430TIP3   OH213166   7.175   4.795   1.182
 4430TIP3    H113167   7.125   4.779   1.102
 4430TIP3    H213168   7.142   4.879   1.215
 4431TIP3   OH213169   6.617   4.655   1.550
 4431TIP3    H113170   6.666   4.647   1.632
 4431TIP3    H213171   6.571   4.572   1.541
 4432TIP3   OH213172   7.383   4.692   0.801
 4432TIP3    H113173   7.448   4.632   0.766
 4432TIP3    H213174   7.407   4.702   0.893
 4433TIP3   OH213175   7.418   4.725   1.074
 4433TIP3    H113176   7.334   4.747   1.114
 4433TIP3    H213177   7.471   4.691   1.147
 4434TIP3   OH213178   8.181   4.049   2.371
 4434TIP3    H113179   8.105   4.057   2.312
 4434TIP3    H213180   8.207   3.958   2.363
 4435TIP3   OH213181   6.806   4.457   2.347
 4435TIP3    H113182   6.854   4.442   2.428
 4435TIP3    H213183   6.733   4.395   2.350
 4436TIP3   OH213184   7.189   3.267   2.166
 4436TIP3    H113185   7.106   3.234   2.133
 4436TIP3    H213186   7.167   3.349   2.210
 4437TIP3   OH213187   7.729   3.396   2.366
 4437TIP3    H113188   7.797   3.368   2.427
 4437TIP3    H213189   7.647   3.380   2.412
 4438TIP3   OH213190   7.959   3.805   2.265
 4438TIP3    H113191   7.931   3.812   2.356
 4438TIP3    H213192   7.948   3.893   2.230
 4439TIP3   OH213193   7.621   3.925   0.812
 4439TIP3    H113194   7.579   3.919   0.727
 4439TIP3    H213195   7.710   3.956   0.793
 4440TIP3   OH213196   7.335   3.316   1.141
 4440TIP3    H113197   7.296   3.317   1.228
 4440TIP3    H213198   7.304   3.233   1.103
 4441TIP3   OH213199   7.125   3.804   2.170
 4441TIP3    H113200   7.082   3.809   2.255
 4441TIP3    H213201   7.104   3.887   2.127
 4442TIP3   OH213202   7.006   3.682   1.694
 4442TIP3    H113203   6.917   3.660   1.718
 4442TIP3    H213204   7.016   3.651   1.604
 4443TIP3   OH213205   7.481   3.756   1.423
 4443TIP3    H113206   7.432   3.828   1.383
 4443TIP3    H213207   7.543   3.730   1.355
 4444TIP3   OH213208   7.656   4.016   2.477
 4444TIP3    H113209   7.642   3.949   2.544
 4444TIP3    H213210   7.747   4.041   2.487
 4445TIP3   OH213211   7.646   3.772   1.646
 4445TIP3    H113212   7.579   3.795   1.582
 4445TIP3    H213213   7.696   3.701   1.606
 4446TIP3   OH213214   6.967   3.816   2.394
 4446TIP3    H113215   6.983   3.882   2.461
 4446TIP3    H213216   6.951   3.735   2.442
 4447TIP3   OH213217   7.004   3.290   1.117
 4447TIP3    H113218   6.995   3.297   1.212
 4447TIP3    H213219   6.926   3.333   1.082
 4448TIP3   OH213220   6.559   3.338   1.976
 4448TIP3    H113221   6.629   3.375   2.030
 4448TIP3    H213222   6.598   3.328   1.890
 4449TIP3   OH213223   6.452   3.314   1.472
 4449TIP3    H113224   6.497   3.349   1.395
 4449TIP3    H213225   6.388   3.381   1.496
 4450TIP3   OH213226   7.703   4.027   2.067
 4450TIP3    H113227   7.727   3.962   2.001
 4450TIP3    H213228   7.653   3.977   2.132
 4451TIP3   OH213229   7.367   3.472   1.747
 4451TIP3    H113230   7.289   3.472   1.801
 4451TIP3    H213231   7.439   3.465   1.810
 4452TIP3   OH213232   6.766   3.558   1.751
 4452TIP3    H113233   6.678   3.562   1.712
 4452TIP3    H213234   6.796   3.469   1.733
 4453TIP3   OH213235   7.019   3.560   1.448
 4453TIP3    H113236   7.114   3.571   1.439
 4453TIP3    H213237   6.985   3.577   1.360
 4454TIP3   OH213238   7.802   3.561   1.956
 4454TIP3    H113239   7.783   3.579   2.048
 4454TIP3    H213240   7.733   3.500   1.929
 4455TIP3   OH213241   6.912   3.581   1.197
 4455TIP3    H113242   6.849   3.533   1.143
 4455TIP3    H213243   6.967   3.628   1.134
 4456TIP3   OH213244   8.013   5.264   2.168
 4456TIP3    H113245   8.006   5.275   2.073
 4456TIP3    H213246   8.091   5.313   2.192
 4457TIP3   OH213247   6.935   4.365   2.578
 4457TIP3    H113248   7.019   4.385   2.619
 4457TIP3    H213249   6.871   4.371   2.649
 4458TIP3   OH213250   7.419   3.848   1.846
 4458TIP3    H113251   7.485   3.801   1.796
 4458TIP3    H213252   7.416   3.803   1.930
 4459TIP3   OH213253   6.906   3.311   1.731
 4459TIP3    H113254   6.879   3.236   1.784
 4459TIP3    H213255   6.923   3.274   1.644
 4460TIP3   OH213256   7.387   3.740   2.106
 4460TIP3    H113257   7.300   3.773   2.130
 4460TIP3    H213258   7.448   3.794   2.157
 4461TIP3   OH213259   7.123   4.093   1.225
 4461TIP3    H113260   7.048   4.039   1.201
 4461TIP3    H213261   7.099   4.134   1.308
 4462TIP3   OH213262   8.014   4.360   1.827
 4462TIP3    H113263   8.049   4.414   1.756
 4462TIP3    H213264   7.935   4.320   1.790
 4463TIP3   OH213265   7.581   3.433   1.155
 4463TIP3    H113266   7.488   3.412   1.154
 4463TIP3    H213267   7.584   3.528   1.167
 4464TIP3   OH213268   7.538   4.440   2.242
 4464TIP3    H113269   7.593   4.433   2.320
 4464TIP3    H213270   7.500   4.528   2.246
 4465TIP3   OH213271   7.650   3.696   1.212
 4465TIP3    H113272   7.746   3.700   1.219
 4465TIP3    H213273   7.627   3.770   1.155
 4466TIP3   OH213274   6.817   4.126   1.879
 4466TIP3    H113275   6.853   4.104   1.792
 4466TIP3    H213276   6.883   4.093   1.940
 4467TIP3   OH213277   7.286   4.250   1.072
 4467TIP3    H113278   7.240   4.333   1.071
 4467TIP3    H213279   7.230   4.192   1.124
 4468TIP3   OH213280   6.689   4.037   2.505
 4468TIP3    H113281   6.688   3.999   2.593
 4468TIP3    H213282   6.616   3.995   2.460
 4469TIP3   OH213283   7.434   4.169   2.540
 4469TIP3    H113284   7.360   4.113   2.517
 4469TIP3    H213285   7.510   4.126   2.502
 4470TIP3   OH213286   7.683   4.726   2.141
 4470TIP3    H113287   7.588   4.716   2.137
 4470TIP3    H213288   7.701   4.762   2.227
 4471TIP3   OH213289   8.069   3.780   1.030
 4471TIP3    H113290   7.998   3.742   0.978
 4471TIP3    H213291   8.077   3.870   0.997
 4472TIP3   OH213292   8.323   4.667   2.105
 4472TIP3    H113293   8.232   4.639   2.117
 4472TIP3    H213294   8.349   4.627   2.023
 4473TIP3   OH213295   7.784   4.568   0.949
 4473TIP3    H113296   7.775   4.491   1.006
 4473TIP3    H213297   7.814   4.531   0.865
 4474TIP3   OH213298   7.784   4.221   1.730
 4474TIP3    H113299   7.694   4.199   1.753
 4474TIP3    H213300   7.820   4.141   1.693
 4475TIP3   OH213301   6.945   4.446   1.556
 4475TIP3    H113302   6.944   4.524   1.501
 4475TIP3    H213303   6.853   4.422   1.565
 4476TIP3   OH213304   6.506   3.739   1.263
 4476TIP3    H113305   6.548   3.823   1.284
 4476TIP3    H213306   6.425   3.740   1.312
 4477TIP3   OH213307   7.022   4.203   1.448
 4477TIP3    H113308   7.016   4.293   1.480
 4477TIP3    H213309   6.996   4.149   1.523
 4478TIP3   OH213310   7.222   4.783   2.008
 4478TIP3    H113311   7.259   4.855   1.957
 4478TIP3    H213312   7.298   4.744   2.053
 4479TIP3   OH213313   6.854   4.665   1.413
 4479TIP3    H113314   6.765   4.672   1.447
 4479TIP3    H213315   6.889   4.754   1.421
 4480TIP3   OH213316   7.573   4.451   1.965
 4480TIP3    H113317   7.563   4.443   2.060
 4480TIP3    H213318   7.651   4.399   1.945
 4481TIP3   OH213319   7.582   4.311   0.860
 4481TIP3    H113320   7.623   4.302   0.946
 4481TIP3    H213321   7.496   4.270   0.871
 4482TIP3   OH213322   7.841   4.928   2.021
 4482TIP3    H113323   7.770   4.868   2.041
 4482TIP3    H213324   7.808   4.981   1.948
 4483TIP3   OH213325   7.909   4.767   0.640
 4483TIP3    H113326   7.943   4.825   0.573
 4483TIP3    H213327   7.824   4.803   0.663
 4484TIP3   OH213328   6.913   3.564   2.511
 4484TIP3    H113329   6.818   3.572   2.514
 4484TIP3    H213330   6.937   3.527   2.596
 4485TIP3   OH213331   7.754   4.284   1.082
 4485TIP3    H113332   7.735   4.207   1.136
 4485TIP3    H213333   7.847   4.275   1.060
 4486TIP3   OH213334   6.663   4.609   2.136
 4486TIP3    H113335   6.741   4.567   2.100
 4486TIP3    H213336   6.673   4.602   2.231
 4487TIP3   OH213337   6.925   4.282   0.862
 4487TIP3    H113338   6.934   4.192   0.832
 4487TIP3    H213339   6.913   4.275   0.957
 4488TIP3   OH213340   6.872   4.284   1.136
 4488TIP3    H113341   6.941   4.255   1.196
 4488TIP3    H213342   6.870   4.379   1.145
 4489TIP3   OH213343   6.599   3.990   1.343
 4489TIP3    H113344   6.533   4.039   1.392
 4489TIP3    H213345   6.620   4.046   1.268
 4490TIP3   OH213346   7.751   3.628   2.219
 4490TIP3    H113347   7.835   3.670   2.241
 4490TIP3    H213348   7.748   3.550   2.274
 4491TIP3   OH213349   7.644   3.378   1.418
 4491TIP3    H113350   7.624   3.394   1.326
 4491TIP3    H213351   7.687   3.458   1.448
 4492TIP3   OH213352   7.138   4.475   1.080
 4492TIP3    H113353   7.056   4.497   1.123
 4492TIP3    H213354   7.155   4.548   1.021
 4493TIP3   OH213355   7.298   3.564   1.493
 4493TIP3    H113356   7.359   3.633   1.466
 4493TIP3    H213357   7.321   3.545   1.584
 4494TIP3   OH213358   7.589   3.858   2.251
 4494TIP3    H113359   7.608   3.901   2.335
 4494TIP3    H213360   7.641   3.778   2.253
 4495TIP3   OH213361   7.459   3.264   1.587
 4495TIP3    H113362   7.433   3.341   1.638
 4495TIP3    H213363   7.530   3.296   1.531
 4496TIP3   OH213364   6.889   4.552   1.169
 4496TIP3    H113365   6.868   4.623   1.107
 4496TIP3    H213366   6.877   4.592   1.255
 4497TIP3   OH213367   6.973   3.287   1.397
 4497TIP3    H113368   6.963   3.379   1.421
 4497TIP3    H213369   7.068   3.270   1.403
 4498TIP3   OH213370   8.233   3.789   2.289
 4498TIP3    H113371   8.141   3.771   2.268
 4498TIP3    H213372   8.276   3.799   2.204
 4499TIP3   OH213373   7.875   3.963   1.645
 4499TIP3    H113374   7.798   3.908   1.658
 4499TIP3    H213375   7.943   3.922   1.699
 4500TIP3   OH213376   6.624   4.162   1.125
 4500TIP3    H113377   6.698   4.222   1.135
 4500TIP3    H213378   6.652   4.100   1.058
 4501TIP3   OH213379   6.523   3.461   1.252
 4501TIP3    H113380   6.539   3.555   1.265
 4501TIP3    H213381   6.471   3.457   1.172
 4502TIP3   OH213382   7.856   4.921   1.592
 4502TIP3    H113383   7.810   4.978   1.530
 4502TIP3    H213384   7.948   4.934   1.573
 4503TIP3   OH213385   6.927   3.183   2.124
 4503TIP3    H113386   6.897   3.154   2.039
 4503TIP3    H213387   6.919   3.107   2.181
 4504TIP3   OH213388   6.455   4.425   1.533
 4504TIP3    H113389   6.412   4.463   1.609
 4504TIP3    H213390   6.409   4.464   1.458
 4505TIP3   OH213391   6.641   4.929   2.601
 4505TIP3    H113392   6.706   4.924   2.671
 4505TIP3    H213393   6.601   4.843   2.598
 4506TIP3   OH213394   7.122   4.903   2.656
 4506TIP3    H113395   7.206   4.897   2.702
 4506TIP3    H213396   7.118   4.825   2.601
 4507TIP3   OH213397   7.071   4.481   0.736
 4507TIP3    H113398   7.025   4.407   0.776
 4507TIP3    H213399   7.145   4.441   0.691
 4508TIP3   OH213400   7.732   4.822   2.394
 4508TIP3    H113401   7.751   4.752   2.457
 4508TIP3    H213402   7.806   4.881   2.401
 4509TIP3   OH213403   7.544   4.512   0.678
 4509TIP3    H113404   7.572   4.450   0.745
 4509TIP3    H213405   7.616   4.514   0.615
 4510TIP3   OH213406   6.753   4.386   2.789
 4510TIP3    H113407   6.760   4.308   2.845
 4510TIP3    H213408   6.666   4.378   2.749
 4511TIP3   OH213409   6.741   3.971   0.969
 4511TIP3    H113410   6.793   3.949   1.046
 4511TIP3    H213411   6.806   3.990   0.901
 4512TIP3   OH213412   7.390   4.444   2.558
 4512TIP3    H113413   7.356   4.462   2.470
 4512TIP3    H213414   7.420   4.353   2.553
 4513TIP3   OH213415   7.322   4.197   0.807
 4513TIP3    H113416   7.297   4.207   0.899
 4513TIP3    H213417   7.297   4.107   0.785
 4514TIP3   OH213418   7.851   4.503   2.172
 4514TIP3    H113419   7.929   4.525   2.121
 4514TIP3    H213420   7.790   4.575   2.154
 4515TIP3   OH213421   6.914   3.916   1.181
 4515TIP3    H113422   6.896   3.886   1.271
 4515TIP3    H213423   6.966   3.846   1.142
 4516TIP3   OH213424   7.232   3.994   2.449
 4516TIP3    H113425   7.145   4.033   2.459
 4516TIP3    H213426   7.261   4.021   2.362
 4517TIP3   OH213427   7.065   3.737   1.031
 4517TIP3    H113428   7.031   3.745   0.942
 4517TIP3    H213429   7.160   3.747   1.022
 4518TIP3   OH213430   7.734   4.378   2.517
 4518TIP3    H113431   7.807   4.349   2.461
 4518TIP3    H213432   7.735   4.316   2.590
 4519TIP3   OH213433   7.858   4.011   0.696
 4519TIP3    H113434   7.844   3.969   0.611
 4519TIP3    H213435   7.830   4.102   0.682
 4520TIP3   OH213436   7.370   3.767   2.545
 4520TIP3    H113437   7.359   3.699   2.478
 4520TIP3    H213438   7.318   3.840   2.514
 4521TIP3   OH213439   7.346   3.571   2.337
 4521TIP3    H113440   7.370   3.609   2.252
 4521TIP3    H213441   7.254   3.545   2.326
 4522TIP3   OH213442   7.336   4.095   2.218
 4522TIP3    H113443   7.425   4.126   2.204
 4522TIP3    H213444   7.281   4.155   2.168
 4523TIP3   OH213445   7.992   4.043   2.661
 4523TIP3    H113446   7.998   3.978   2.591
 4523TIP3    H213447   8.051   4.113   2.634
 4524TIP3   OH213448   7.958   4.323   2.344
 4524TIP3    H113449   7.907   4.386   2.291
 4524TIP3    H213450   8.048   4.334   2.314
 4525TIP3   OH213451   7.466   3.343   2.446
 4525TIP3    H113452   7.426   3.423   2.410
 4525TIP3    H213453   7.399   3.276   2.433
 4526TIP3   OH213454   7.624   3.802   2.643
 4526TIP3    H113455   7.613   3.793   2.738
 4526TIP3    H213456   7.537   3.781   2.608
 4527TIP3   OH213457   7.876   3.812   2.523
 4527TIP3    H113458   7.793   3.795   2.568
 4527TIP3    H213459   7.941   3.766   2.576
 4528TIP3   OH213460   8.080   3.709   2.676
 4528TIP3    H113461   8.089   3.614   2.679
 4528TIP3    H213462   8.065   3.734   2.767
 4529TIP3   OH213463   7.027   3.605   2.875
 4529TIP3    H113464   7.043   3.521   2.833
 4529TIP3    H213465   7.087   3.608   2.950
 4530TIP3   OH213466   7.526   3.317   2.713
 4530TIP3    H113467   7.595   3.250   2.706
 4530TIP3    H213468   7.498   3.331   2.622
 4531TIP3   OH213469   7.601   3.532   2.871
 4531TIP3    H113470   7.574   3.461   2.812
 4531TIP3    H213471   7.530   3.596   2.867
 4532TIP3   OH213472   6.878   4.758   0.991
 4532TIP3    H113473   6.967   4.740   0.961
 4532TIP3    H213474   6.829   4.779   0.912
 4533TIP3   OH213475   6.350   4.168   1.135
 4533TIP3    H113476   6.446   4.177   1.134
 4533TIP3    H213477   6.334   4.081   1.099
 4534TIP3   OH213478   6.249   4.741   1.603
 4534TIP3    H113479   6.184   4.689   1.556
 4534TIP3    H213480   6.294   4.677   1.659
 4535TIP3   OH213481   6.396   4.574   1.771
 4535TIP3    H113482   6.388   4.508   1.840
 4535TIP3    H213483   6.447   4.644   1.811
 4536TIP3   OH213484   8.120   4.973   1.564
 4536TIP3    H113485   8.143   4.996   1.655
 4536TIP3    H213486   8.196   5.001   1.513
 4537TIP3   OH213487   8.139   5.015   1.845
 4537TIP3    H113488   8.103   4.926   1.851
 4537TIP3    H213489   8.228   5.007   1.880
 4538TIP3   OH213490   8.203   4.709   2.441
 4538TIP3    H113491   8.132   4.720   2.505
 4538TIP3    H213492   8.241   4.797   2.433
 4539TIP3   OH213493   8.024   4.243   1.039
 4539TIP3    H113494   8.078   4.319   1.017
 4539TIP3    H213495   8.072   4.200   1.110
 4540TIP3   OH213496   8.145   4.084   1.233
 4540TIP3    H113497   8.075   4.051   1.289
 4540TIP3    H213498   8.209   4.122   1.294
 4541TIP3   OH213499   8.198   4.505   1.673
 4541TIP3    H113500   8.246   4.433   1.633
 4541TIP3    H213501   8.204   4.576   1.610
 4542TIP3   OH213502   8.014   4.764   1.879
 4542TIP3    H113503   7.948   4.814   1.926
 4542TIP3    H213504   7.967   4.725   1.805
 4543TIP3   OH213505   8.055   4.015   0.887
 4543TIP3    H113506   7.983   4.010   0.823
 4543TIP3    H213507   8.039   4.096   0.934
 4544TIP3   OH213508   7.870   3.684   0.877
 4544TIP3    H113509   7.813   3.711   0.806
 4544TIP3    H213510   7.866   3.589   0.876
 4545TIP3   OH213511   7.941   3.960   1.376
 4545TIP3    H113512   7.945   3.866   1.362
 4545TIP3    H213513   7.924   3.970   1.469
 4546TIP3   OH213514   6.568   4.016   2.146
 4546TIP3    H113515   6.559   3.984   2.056
 4546TIP3    H213516   6.661   4.008   2.165
 4547TIP3   OH213517   8.202   4.367   2.225
 4547TIP3    H113518   8.274   4.309   2.200
 4547TIP3    H213519   8.183   4.418   2.147
 4548TIP3   OH213520   8.392   4.164   2.228
 4548TIP3    H113521   8.321   4.130   2.282
 4548TIP3    H213522   8.465   4.104   2.244
 4549TIP3   OH213523   7.852   3.413   0.872
 4549TIP3    H113524   7.902   3.367   0.940
 4549TIP3    H213525   7.762   3.385   0.887
 4550TIP3   OH213526   7.939   3.692   1.269
 4550TIP3    H113527   7.987   3.611   1.286
 4550TIP3    H213528   7.982   3.730   1.193
 4551TIP3   OH213529   8.087   3.837   1.786
 4551TIP3    H113530   8.169   3.854   1.740
 4551TIP3    H213531   8.096   3.882   1.870
 4552TIP3   OH213532   8.146   3.997   2.010
 4552TIP3    H113533   8.078   4.035   2.065
 4552TIP3    H213534   8.181   4.070   1.959
 4553TIP3   OH213535   6.781   3.682   2.781
 4553TIP3    H113536   6.873   3.684   2.809
 4553TIP3    H213537   6.745   3.603   2.821
 4554TIP3   OH213538   8.626   3.585   2.559
 4554TIP3    H113539   8.681   3.522   2.514
 4554TIP3    H213540   8.590   3.640   2.489
 4555TIP3   OH213541   8.056   3.453   1.344
 4555TIP3    H113542   8.104   3.443   1.426
 4555TIP3    H213543   7.992   3.381   1.344
 4556TIP3   OH213544   6.767   3.409   2.147
 4556TIP3    H113545   6.821   3.330   2.150
 4556TIP3    H213546   6.829   3.479   2.126
 4557TIP3   OH213547   6.543   3.669   2.199
 4557TIP3    H113548   6.593   3.660   2.118
 4557TIP3    H213549   6.576   3.749   2.239
 4558TIP3   OH213550   8.485   3.702   2.360
 4558TIP3    H113551   8.401   3.746   2.373
 4558TIP3    H213552   8.465   3.629   2.302
 4559TIP3   OH213553   8.104   3.332   0.993
 4559TIP3    H113554   8.157   3.273   0.939
 4559TIP3    H213555   8.148   3.417   0.985
 4560TIP3   OH213556   6.531   3.182   1.698
 4560TIP3    H113557   6.447   3.172   1.742
 4560TIP3    H213558   6.512   3.236   1.622
 4561TIP3   OH213559   7.686   4.913   1.218
 4561TIP3    H113560   7.734   4.886   1.140
 4561TIP3    H213561   7.746   4.969   1.267
 4562TIP3   OH213562   6.758   3.218   2.522
 4562TIP3    H113563   6.713   3.223   2.606
 4562TIP3    H213564   6.706   3.273   2.464
 4563TIP3   OH213565   6.813   4.677   2.598
 4563TIP3    H113566   6.721   4.654   2.610
 4563TIP3    H213567   6.854   4.653   2.681
 4564TIP3   OH213568   6.990   4.751   2.154
 4564TIP3    H113569   6.938   4.820   2.114
 4564TIP3    H213570   7.076   4.759   2.112
 4565TIP3   OH213571   7.402   4.968   2.287
 4565TIP3    H113572   7.439   4.960   2.375
 4565TIP3    H213573   7.466   5.020   2.238
 4566TIP3   OH213574   7.586   5.127   2.160
 4566TIP3    H113575   7.643   5.080   2.099
 4566TIP3    H213576   7.645   5.182   2.211
 4567TIP3   OH213577   8.395   3.467   2.239
 4567TIP3    H113578   8.317   3.478   2.184
 4567TIP3    H213579   8.415   3.374   2.232
 4568TIP3   OH213580   6.866   4.973   2.048
 4568TIP3    H113581   6.780   4.994   2.084
 4568TIP3    H213582   6.861   4.995   1.956
 4569TIP3   OH213583   7.303   4.991   1.846
 4569TIP3    H113584   7.238   4.999   1.776
 4569TIP3    H213585   7.316   5.080   1.877
 4570TIP3   OH213586   7.561   4.921   1.909
 4570TIP3    H113587   7.472   4.943   1.881
 4570TIP3    H213588   7.618   4.979   1.859
 4571TIP3   OH213589   7.761   5.074   1.800
 4571TIP3    H113590   7.753   5.163   1.766
 4571TIP3    H213591   7.793   5.022   1.726
 4572TIP3   OH213592   6.569   4.759   1.920
 4572TIP3    H113593   6.595   4.722   2.004
 4572TIP3    H213594   6.638   4.732   1.860
 4573TIP3   OH213595   6.772   4.646   1.779
 4573TIP3    H113596   6.787   4.563   1.824
 4573TIP3    H213597   6.859   4.687   1.776
 4574TIP3   OH213598   7.041   4.729   1.803
 4574TIP3    H113599   7.061   4.638   1.784
 4574TIP3    H213600   7.098   4.752   1.876
 4575TIP3   OH213601   7.591   3.380   1.890
 4575TIP3    H113602   7.555   3.306   1.940
 4575TIP3    H213603   7.657   3.341   1.833
 4576TIP3   OH213604   8.094   3.327   1.793
 4576TIP3    H113605   8.141   3.372   1.723
 4576TIP3    H213606   8.010   3.372   1.799
 4577TIP3   OH213607   8.218   3.399   1.562
 4577TIP3    H113608   8.290   3.344   1.532
 4577TIP3    H213609   8.250   3.488   1.551
 4578TIP3   OH213610   6.836   3.089   1.881
 4578TIP3    H113611   6.750   3.050   1.892
 4578TIP3    H213612   6.896   3.014   1.874
 4579TIP3   OH213613   6.671   2.991   1.543
 4579TIP3    H113614   6.693   3.039   1.463
 4579TIP3    H213615   6.631   3.057   1.600
 4580TIP3   OH213616   7.330   3.112   1.785
 4580TIP3    H113617   7.371   3.168   1.719
 4580TIP3    H213618   7.366   3.143   1.868
 4581TIP3   OH213619   7.800   3.270   1.752
 4581TIP3    H113620   7.850   3.237   1.677
 4581TIP3    H213621   7.807   3.200   1.818
 4582TIP3   OH213622   7.880   3.241   1.380
 4582TIP3    H113623   7.796   3.286   1.389
 4582TIP3    H213624   7.866   3.156   1.420
 4583TIP3   OH213625   6.328   4.534   1.321
 4583TIP3    H113626   6.247   4.496   1.287
 4583TIP3    H213627   6.326   4.625   1.291
 4584TIP3   OH213628   6.764   3.121   1.303
 4584TIP3    H113629   6.809   3.059   1.245
 4584TIP3    H213630   6.834   3.176   1.338
 4585TIP3   OH213631   7.249   3.310   1.404
 4585TIP3    H113632   7.310   3.262   1.459
 4585TIP3    H213633   7.262   3.402   1.428
 4586TIP3   OH213634   7.127   4.688   0.902
 4586TIP3    H113635   7.211   4.716   0.867
 4586TIP3    H213636   7.098   4.619   0.843
 4587TIP3   OH213637   7.815   4.838   0.976
 4587TIP3    H113638   7.818   4.743   0.969
 4587TIP3    H213639   7.729   4.862   0.941
 4588TIP3   OH213640   7.070   3.349   2.762
 4588TIP3    H113641   7.040   3.281   2.823
 4588TIP3    H213642   7.162   3.363   2.787
 4589TIP3   OH213643   7.314   3.369   2.890
 4589TIP3    H113644   7.390   3.344   2.837
 4589TIP3    H213645   7.307   3.300   2.956
 4590TIP3   OH213646   6.454   4.536   0.949
 4590TIP3    H113647   6.464   4.562   1.041
 4590TIP3    H213648   6.537   4.493   0.927
 4591TIP3   OH213649   8.139   3.440   2.671
 4591TIP3    H113650   8.161   3.414   2.761
 4591TIP3    H213651   8.223   3.439   2.625
 4592TIP3   OH213652   8.059   4.992   2.182
 4592TIP3    H113653   7.988   4.958   2.128
 4592TIP3    H213654   8.045   5.087   2.184
 4593TIP3   OH213655   8.619   4.250   1.662
 4593TIP3    H113656   8.611   4.166   1.708
 4593TIP3    H213657   8.680   4.301   1.714
 4594TIP3   OH213658   8.626   4.692   1.421
 4594TIP3    H113659   8.612   4.598   1.430
 4594TIP3    H213660   8.710   4.700   1.376
 4595TIP3   OH213661   8.304   3.859   1.166
 4595TIP3    H113662   8.269   3.944   1.192
 4595TIP3    H213663   8.232   3.816   1.121
 4596TIP3   OH213664   8.369   4.161   1.374
 4596TIP3    H113665   8.423   4.091   1.409
 4596TIP3    H213666   8.427   4.210   1.315
 4597TIP3   OH213667   9.158   5.076   1.040
 4597TIP3    H113668   9.180   5.161   1.001
 4597TIP3    H213669   9.137   5.097   1.131
 4598TIP3   OH213670   9.082   4.579   1.301
 4598TIP3    H113671   9.087   4.522   1.224
 4598TIP3    H213672   9.161   4.633   1.295
 4599TIP3   OH213673   8.880   3.721   1.338
 4599TIP3    H113674   8.879   3.799   1.283
 4599TIP3    H213675   8.819   3.660   1.296
 4600TIP3   OH213676   8.520   3.958   1.479
 4600TIP3    H113677   8.589   3.940   1.543
 4600TIP3    H213678   8.546   3.907   1.402
 4601TIP3   OH213679   8.929   4.160   1.260
 4601TIP3    H113680   9.016   4.157   1.219
 4601TIP3    H213681   8.891   4.074   1.239
 4602TIP3   OH213682   8.877   3.741   1.832
 4602TIP3    H113683   8.821   3.783   1.766
 4602TIP3    H213684   8.836   3.762   1.916
 4603TIP3   OH213685   8.977   4.526   1.561
 4603TIP3    H113686   8.910   4.586   1.594
 4603TIP3    H213687   8.997   4.559   1.473
 4604TIP3   OH213688   8.763   3.811   1.569
 4604TIP3    H113689   8.819   3.885   1.595
 4604TIP3    H213690   8.810   3.771   1.495
 4605TIP3   OH213691   8.803   4.704   1.678
 4605TIP3    H113692   8.789   4.790   1.639
 4605TIP3    H213693   8.721   4.684   1.724
 4606TIP3   OH213694   8.194   4.453   0.968
 4606TIP3    H113695   8.175   4.508   0.892
 4606TIP3    H213696   8.205   4.516   1.040
 4607TIP3   OH213697   8.698   4.282   1.166
 4607TIP3    H113698   8.664   4.231   1.093
 4607TIP3    H213699   8.777   4.236   1.193
 4608TIP3   OH213700   8.847   4.717   1.261
 4608TIP3    H113701   8.810   4.698   1.175
 4608TIP3    H213702   8.926   4.664   1.266
 4609TIP3   OH213703   8.919   4.250   1.523
 4609TIP3    H113704   8.915   4.225   1.430
 4609TIP3    H213705   8.913   4.345   1.523
 4610TIP3   OH213706   8.999   4.823   1.830
 4610TIP3    H113707   8.946   4.888   1.876
 4610TIP3    H213708   8.936   4.774   1.777
 4611TIP3   OH213709   8.736   4.363   1.948
 4611TIP3    H113710   8.735   4.454   1.979
 4611TIP3    H213711   8.646   4.332   1.959
 4612TIP3   OH213712   9.078   4.855   0.892
 4612TIP3    H113713   9.111   4.929   0.943
 4612TIP3    H213714   8.993   4.885   0.859
 4613TIP3   OH213715   8.796   5.001   1.921
 4613TIP3    H113716   8.770   4.992   1.829
 4613TIP3    H213717   8.719   4.974   1.970
 4614TIP3   OH213718   8.594   4.134   0.945
 4614TIP3    H113719   8.518   4.186   0.920
 4614TIP3    H213720   8.567   4.044   0.932
 4615TIP3   OH213721   8.385   4.530   1.879
 4615TIP3    H113722   8.319   4.518   1.810
 4615TIP3    H213723   8.412   4.442   1.903
 4616TIP3   OH213724   8.239   4.711   1.490
 4616TIP3    H113725   8.245   4.694   1.396
 4616TIP3    H213726   8.184   4.789   1.497
 4617TIP3   OH213727   9.199   4.936   1.679
 4617TIP3    H113728   9.210   5.029   1.698
 4617TIP3    H213729   9.128   4.908   1.737
 4618TIP3   OH213730   8.439   4.873   1.042
 4618TIP3    H113731   8.477   4.893   1.127
 4618TIP3    H213732   8.371   4.807   1.061
 4619TIP3   OH213733   8.581   4.715   1.842
 4619TIP3    H113734   8.633   4.701   1.921
 4619TIP3    H213735   8.509   4.652   1.849
 4620TIP3   OH213736   8.959   3.522   1.687
 4620TIP3    H113737   8.876   3.507   1.642
 4620TIP3    H213738   8.945   3.602   1.738
 4621TIP3   OH213739   8.895   4.023   1.675
 4621TIP3    H113740   8.819   4.033   1.733
 4621TIP3    H213741   8.898   4.106   1.627
 4622TIP3   OH213742   8.812   3.932   1.171
 4622TIP3    H113743   8.722   3.908   1.193
 4622TIP3    H213744   8.823   3.904   1.080
 4623TIP3   OH213745   8.842   4.104   2.005
 4623TIP3    H113746   8.812   4.192   1.980
 4623TIP3    H213747   8.777   4.045   1.966
 4624TIP3   OH213748   8.788   3.640   0.628
 4624TIP3    H113749   8.781   3.650   0.723
 4624TIP3    H213750   8.710   3.683   0.593
 4625TIP3   OH213751   8.325   3.633   1.489
 4625TIP3    H113752   8.400   3.660   1.541
 4625TIP3    H213753   8.358   3.625   1.400
 4626TIP3   OH213754   8.255   3.581   0.973
 4626TIP3    H113755   8.319   3.624   0.917
 4626TIP3    H213756   8.185   3.644   0.984
 4627TIP3   OH213757   8.568   3.825   1.240
 4627TIP3    H113758   8.477   3.830   1.209
 4627TIP3    H213759   8.592   3.733   1.228
 4628TIP3   OH213760   8.849   3.845   0.912
 4628TIP3    H113761   8.924   3.874   0.860
 4628TIP3    H213762   8.773   3.869   0.860
 4629TIP3   OH213763   8.636   3.888   0.751
 4629TIP3    H113764   8.558   3.837   0.732
 4629TIP3    H213765   8.675   3.906   0.665
 4630TIP3   OH213766   8.723   4.623   2.062
 4630TIP3    H113767   8.804   4.649   2.105
 4630TIP3    H213768   8.657   4.624   2.131
 4631TIP3   OH213769   8.683   3.574   1.203
 4631TIP3    H113770   8.659   3.494   1.250
 4631TIP3    H213771   8.699   3.545   1.113
 4632TIP3   OH213772   8.862   4.428   0.731
 4632TIP3    H113773   8.826   4.339   0.723
 4632TIP3    H213774   8.882   4.437   0.824
 4633TIP3   OH213775   9.320   4.692   1.733
 4633TIP3    H113776   9.258   4.630   1.695
 4633TIP3    H213777   9.285   4.778   1.710
 4634TIP3   OH213778   8.657   4.415   1.415
 4634TIP3    H113779   8.663   4.371   1.330
 4634TIP3    H213780   8.646   4.344   1.478
 4635TIP3   OH213781   8.474   4.292   1.995
 4635TIP3    H113782   8.468   4.256   2.084
 4635TIP3    H213783   8.413   4.237   1.944
 4636TIP3   OH213784   9.263   4.420   2.030
 4636TIP3    H113785   9.173   4.389   2.015
 4636TIP3    H213786   9.310   4.395   1.950
 4637TIP3   OH213787   8.707   4.687   1.025
 4637TIP3    H113788   8.708   4.761   0.965
 4637TIP3    H213789   8.615   4.674   1.045
 4638TIP3   OH213790   8.286   4.017   0.743
 4638TIP3    H113791   8.325   4.102   0.765
 4638TIP3    H213792   8.204   4.015   0.793
 4639TIP3   OH213793   8.861   4.458   1.012
 4639TIP3    H113794   8.818   4.543   1.003
 4639TIP3    H213795   8.801   4.406   1.066
 4640TIP3   OH213796   9.017   5.025   1.485
 4640TIP3    H113797   9.055   5.090   1.427
 4640TIP3    H213798   9.092   4.988   1.532
 4641TIP3   OH213799   8.655   4.918   0.876
 4641TIP3    H113800   8.573   4.915   0.924
 4641TIP3    H213801   8.686   5.008   0.887
 4642TIP3   OH213802   8.729   3.792   2.062
 4642TIP3    H113803   8.676   3.843   2.001
 4642TIP3    H213804   8.682   3.708   2.069
 4643TIP3   OH213805   8.418   4.866   1.666
 4643TIP3    H113806   8.383   4.795   1.611
 4643TIP3    H213807   8.484   4.823   1.721
 4644TIP3   OH213808   8.636   4.550   0.631
 4644TIP3    H113809   8.720   4.519   0.664
 4644TIP3    H213810   8.646   4.645   0.623
 4645TIP3   OH213811   8.368   4.265   0.850
 4645TIP3    H113812   8.310   4.316   0.907
 4645TIP3    H213813   8.383   4.321   0.774
 4646TIP3   OH213814   8.660   4.822   0.620
 4646TIP3    H113815   8.650   4.904   0.570
 4646TIP3    H213816   8.661   4.850   0.711
 4647TIP3   OH213817   8.777   3.578   0.920
 4647TIP3    H113818   8.808   3.667   0.938
 4647TIP3    H213819   8.856   3.525   0.918
 4648TIP3   OH213820   8.396   4.419   0.625
 4648TIP3    H113821   8.461   4.487   0.641
 4648TIP3    H213822   8.440   4.358   0.565
 4649TIP3   OH213823   8.367   3.759   0.780
 4649TIP3    H113824   8.350   3.854   0.780
 4649TIP3    H213825   8.289   3.721   0.739
 4650TIP3   OH213826   8.702   3.443   1.607
 4650TIP3    H113827   8.681   3.416   1.518
 4650TIP3    H213828   8.702   3.361   1.657
 4651TIP3   OH213829   8.427   5.221   2.067
 4651TIP3    H113830   8.509   5.221   2.116
 4651TIP3    H213831   8.404   5.129   2.058
 4652TIP3   OH213832   8.912   5.188   2.083
 4652TIP3    H113833   8.952   5.123   2.141
 4652TIP3    H213834   8.866   5.137   2.017
 4653TIP3   OH213835   8.538   4.622   2.273
 4653TIP3    H113836   8.561   4.529   2.273
 4653TIP3    H213837   8.456   4.626   2.224
 4654TIP3   OH213838   8.573   4.256   0.489
 4654TIP3    H113839   8.624   4.231   0.567
 4654TIP3    H213840   8.625   4.325   0.448
 4655TIP3   OH213841   9.113   4.668   2.033
 4655TIP3    H113842   9.094   4.696   1.943
 4655TIP3    H213843   9.179   4.600   2.023
 4656TIP3   OH213844   8.677   4.379   2.270
 4656TIP3    H113845   8.733   4.311   2.234
 4656TIP3    H213846   8.707   4.391   2.360
 4657TIP3   OH213847   8.736   4.182   0.703
 4657TIP3    H113848   8.697   4.157   0.787
 4657TIP3    H213849   8.773   4.100   0.669
 4658TIP3   OH213850   9.013   4.349   1.960
 4658TIP3    H113851   8.918   4.357   1.951
 4658TIP3    H213852   9.045   4.335   1.871
 4659TIP3   OH213853   8.831   3.958   0.558
 4659TIP3    H113854   8.808   3.967   0.466
 4659TIP3    H213855   8.917   3.916   0.557
 4660TIP3   OH213856   9.093   4.001   2.088
 4660TIP3    H113857   9.123   3.945   2.016
 4660TIP3    H213858   9.011   4.038   2.057
 4661TIP3   OH213859   9.131   3.844   1.865
 4661TIP3    H113860   9.142   3.883   1.778
 4661TIP3    H213861   9.047   3.798   1.859
 4662TIP3   OH213862   9.118   4.343   1.707
 4662TIP3    H113863   9.091   4.266   1.657
 4662TIP3    H213864   9.077   4.416   1.662
 4663TIP3   OH213865   8.906   4.175   2.269
 4663TIP3    H113866   8.887   4.081   2.266
 4663TIP3    H213867   8.931   4.197   2.179
 4664TIP3   OH213868   8.840   3.909   2.291
 4664TIP3    H113869   8.824   3.860   2.210
 4664TIP3    H213870   8.850   3.842   2.359
 4665TIP3   OH213871   8.120   4.395   0.643
 4665TIP3    H113872   8.212   4.422   0.640
 4665TIP3    H213873   8.118   4.310   0.598
 4666TIP3   OH213874   8.033   4.934   1.111
 4666TIP3    H113875   7.965   4.892   1.059
 4666TIP3    H213876   8.088   4.862   1.141
 4667TIP3   OH213877   8.348   4.280   1.621
 4667TIP3    H113878   8.335   4.242   1.534
 4667TIP3    H213879   8.443   4.280   1.633
 4668TIP3   OH213880   8.566   3.961   2.278
 4668TIP3    H113881   8.662   3.960   2.274
 4668TIP3    H213882   8.542   3.873   2.305
 4669TIP3   OH213883   8.545   3.662   1.654
 4669TIP3    H113884   8.599   3.584   1.644
 4669TIP3    H213885   8.606   3.735   1.642
 4670TIP3   OH213886   8.337   3.917   1.698
 4670TIP3    H113887   8.368   3.924   1.608
 4670TIP3    H213888   8.413   3.938   1.752
 4671TIP3   OH213889   8.311   3.498   1.230
 4671TIP3    H113890   8.224   3.485   1.266
 4671TIP3    H213891   8.297   3.542   1.146
 4672TIP3   OH213892   8.561   3.483   2.003
 4672TIP3    H113893   8.520   3.488   2.089
 4672TIP3    H213894   8.506   3.536   1.946
 4673TIP3   OH213895   8.592   4.944   2.101
 4673TIP3    H113896   8.501   4.937   2.074
 4673TIP3    H213897   8.590   4.925   2.195
 4674TIP3   OH213898   8.797   4.974   1.642
 4674TIP3    H113899   8.736   5.043   1.615
 4674TIP3    H213900   8.876   4.992   1.592
 4675TIP3   OH213901   9.255   5.211   1.681
 4675TIP3    H113902   9.319   5.233   1.749
 4675TIP3    H213903   9.305   5.209   1.600
 4676TIP3   OH213904   8.454   5.275   1.700
 4676TIP3    H113905   8.362   5.282   1.675
 4676TIP3    H213906   8.465   5.342   1.768
 4677TIP3   OH213907   8.672   5.198   1.564
 4677TIP3    H113908   8.593   5.221   1.613
 4677TIP3    H213909   8.645   5.202   1.472
 4678TIP3   OH213910   9.105   5.203   1.291
 4678TIP3    H113911   9.020   5.215   1.249
 4678TIP3    H213912   9.151   5.285   1.277
 4679TIP3   OH213913   9.355   5.214   1.428
 4679TIP3    H113914   9.280   5.178   1.379
 4679TIP3    H213915   9.376   5.296   1.384
 4680TIP3   OH213916   8.363   5.030   1.454
 4680TIP3    H113917   8.394   4.993   1.537
 4680TIP3    H213918   8.419   4.990   1.387
 4681TIP3   OH213919   8.547   4.918   1.286
 4681TIP3    H113920   8.561   4.836   1.335
 4681TIP3    H213921   8.630   4.964   1.293
 4682TIP3   OH213922   8.818   4.984   1.300
 4682TIP3    H113923   8.828   4.891   1.279
 4682TIP3    H213924   8.877   4.998   1.373
 4683TIP3   OH213925   8.627   3.345   1.355
 4683TIP3    H113926   8.545   3.305   1.383
 4683TIP3    H213927   8.689   3.272   1.351
 4684TIP3   OH213928   8.417   3.288   1.088
 4684TIP3    H113929   8.388   3.323   1.003
 4684TIP3    H213930   8.394   3.356   1.151
 4685TIP3   OH213931   8.159   4.719   0.763
 4685TIP3    H113932   8.066   4.731   0.743
 4685TIP3    H213933   8.179   4.785   0.828
 4686TIP3   OH213934   8.591   3.441   0.765
 4686TIP3    H113935   8.623   3.359   0.804
 4686TIP3    H213936   8.637   3.509   0.813
 4687TIP3   OH213937   8.831   3.557   2.249
 4687TIP3    H113938   8.797   3.495   2.313
 4687TIP3    H213939   8.910   3.593   2.290
 4688TIP3   OH213940   9.060   3.614   2.399
 4688TIP3    H113941   9.137   3.598   2.345
 4688TIP3    H213942   9.057   3.539   2.458
 4689TIP3   OH213943   8.215   4.849   0.526
 4689TIP3    H113944   8.207   4.787   0.598
 4689TIP3    H213945   8.287   4.816   0.473
 4690TIP3   OH213946   9.807   4.877   3.138
 4690TIP3    H113947   9.775   4.959   3.099
 4690TIP3    H213948   9.752   4.865   3.216
 4691TIP3   OH213949   0.048   4.898   3.519
 4691TIP3    H113950   0.036   4.851   3.601
 4691TIP3    H213951  -0.013   4.856   3.458
 4692TIP3   OH213952   0.268   5.210   3.203
 4692TIP3    H113953   0.267   5.140   3.269
 4692TIP3    H213954   0.290   5.289   3.252
 4693TIP3   OH213955   9.695   5.549   3.314
 4693TIP3    H113956   9.762   5.601   3.270
 4693TIP3    H213957   9.744   5.485   3.366
 4694TIP3   OH213958   9.598   5.026   3.562
 4694TIP3    H113959   9.683   4.985   3.577
 4694TIP3    H213960   9.616   5.093   3.497
 4695TIP3   OH213961   0.840   4.438   3.565
 4695TIP3    H113962   0.856   4.523   3.607
 4695TIP3    H213963   0.872   4.449   3.476
 4696TIP3   OH213964   0.204   4.608   3.600
 4696TIP3    H113965   0.237   4.520   3.620
 4696TIP3    H213966   0.180   4.604   3.507
 4697TIP3   OH213967   9.385   4.326   3.505
 4697TIP3    H113968   9.338   4.398   3.546
 4697TIP3    H213969   9.344   4.247   3.542
 4698TIP3   OH213970   0.271   4.380   3.179
 4698TIP3    H113971   0.334   4.370   3.251
 4698TIP3    H213972   0.323   4.412   3.106
 4699TIP3   OH213973   9.322   4.716   3.516
 4699TIP3    H113974   9.363   4.674   3.441
 4699TIP3    H213975   9.230   4.727   3.491
 4700TIP3   OH213976   0.892   4.657   3.732
 4700TIP3    H113977   0.806   4.700   3.723
 4700TIP3    H213978   0.930   4.697   3.810
 4701TIP3   OH213979   9.715   5.096   2.986
 4701TIP3    H113980   9.704   5.097   2.891
 4701TIP3    H213981   9.712   5.188   3.012
 4702TIP3   OH213982   0.421   4.396   3.405
 4702TIP3    H113983   0.376   4.373   3.487
 4702TIP3    H213984   0.478   4.468   3.428
 4703TIP3   OH213985   0.305   5.451   3.354
 4703TIP3    H113986   0.223   5.448   3.403
 4703TIP3    H213987   0.305   5.536   3.312
 4704TIP3   OH213988   0.639   4.325   3.728
 4704TIP3    H113989   0.555   4.354   3.691
 4704TIP3    H213990   0.704   4.353   3.664
 4705TIP3   OH213991   9.733   3.928   3.713
 4705TIP3    H113992   9.729   3.840   3.749
 4705TIP3    H213993   9.643   3.960   3.717
 4706TIP3   OH213994   0.070   5.473   3.008
 4706TIP3    H113995   0.113   5.390   2.991
 4706TIP3    H213996   0.118   5.537   2.955
 4707TIP3   OH213997   0.190   5.243   2.940
 4707TIP3    H113998   0.189   5.161   2.891
 4707TIP3    H213999   0.221   5.219   3.027
 4708TIP3   OH214000   0.569   5.320   3.699
 4708TIP3    H114001   0.547   5.255   3.632
 4708TIP3    H214002   0.548   5.404   3.659
 4709TIP3   OH214003   9.630   4.712   2.939
 4709TIP3    H114004   9.585   4.796   2.949
 4709TIP3    H214005   9.699   4.729   2.875
 4710TIP3   OH214006   9.628   4.467   2.772
 4710TIP3    H114007   9.626   4.563   2.775
 4710TIP3    H214008   9.676   4.447   2.692
 4711TIP3   OH214009   0.716   5.002   3.568
 4711TIP3    H114010   0.630   5.045   3.564
 4711TIP3    H214011   0.754   5.016   3.481
 4712TIP3   OH214012   0.197   4.842   2.943
 4712TIP3    H114013   0.137   4.854   3.016
 4712TIP3    H214014   0.279   4.814   2.983
 4713TIP3   OH214015   0.445   4.874   3.886
 4713TIP3    H114016   0.434   4.955   3.937
 4713TIP3    H214017   0.365   4.867   3.835
 4714TIP3   OH214018   9.427   4.875   3.719
 4714TIP3    H114019   9.366   4.842   3.653
 4714TIP3    H214020   9.478   4.942   3.673
 4715TIP3   OH214021   0.078   5.421   3.513
 4715TIP3    H114022   0.025   5.489   3.555
 4715TIP3    H214023   0.086   5.353   3.580
 4716TIP3   OH214024   0.041   4.701   2.767
 4716TIP3    H114025   0.102   4.763   2.808
 4716TIP3    H214026   0.063   4.702   2.675
 4717TIP3   OH214027   9.637   5.347   3.087
 4717TIP3    H114028   9.715   5.397   3.064
 4717TIP3    H214029   9.582   5.409   3.136
 4718TIP3   OH214030   0.515   3.927   2.817
 4718TIP3    H114031   0.439   3.950   2.872
 4718TIP3    H214032   0.525   4.002   2.758
 4719TIP3   OH214033   0.406   5.300   2.395
 4719TIP3    H114034   0.376   5.386   2.364
 4719TIP3    H214035   0.476   5.276   2.333
 4720TIP3   OH214036   0.774   5.724   3.775
 4720TIP3    H114037   0.784   5.629   3.780
 4720TIP3    H214038   0.692   5.742   3.821
 4721TIP3   OH214039   9.735   5.446   3.881
 4721TIP3    H114040   9.721   5.496   3.961
 4721TIP3    H214041   9.650   5.448   3.836
 4722TIP3   OH214042   9.527   5.534   2.881
 4722TIP3    H114043   9.460   5.528   2.814
 4722TIP3    H214044   9.487   5.588   2.950
 4723TIP3   OH214045   9.713   5.530   2.485
 4723TIP3    H114046   9.788   5.477   2.460
 4723TIP3    H214047   9.730   5.556   2.575
 4724TIP3   OH214048   9.751   5.606   2.745
 4724TIP3    H114049   9.673   5.587   2.797
 4724TIP3    H214050   9.815   5.638   2.808
 4725TIP3   OH214051   0.655   4.826   4.064
 4725TIP3    H114052   0.584   4.835   4.000
 4725TIP3    H214053   0.682   4.734   4.057
 4726TIP3   OH214054   9.435   4.054   3.819
 4726TIP3    H114055   9.366   4.058   3.753
 4726TIP3    H214056   9.505   4.110   3.784
 4727TIP3   OH214057   0.206   4.169   4.073
 4727TIP3    H114058   0.286   4.148   4.121
 4727TIP3    H214059   0.137   4.127   4.124
 4728TIP3   OH214060   0.427   4.600   3.962
 4728TIP3    H114061   0.386   4.587   4.047
 4728TIP3    H214062   0.405   4.689   3.937
 4729TIP3   OH214063   0.114   4.677   2.507
 4729TIP3    H114064   0.072   4.664   2.422
 4729TIP3    H214065   0.198   4.719   2.486
 4730TIP3   OH214066   9.619   4.166   2.820
 4730TIP3    H114067   9.622   4.103   2.892
 4730TIP3    H214068   9.565   4.124   2.753
 4731TIP3   OH214069   9.252   4.649   3.860
 4731TIP3    H114070   9.312   4.635   3.933
 4731TIP3    H214071   9.287   4.726   3.815
 4732TIP3   OH214072   9.171   4.502   3.312
 4732TIP3    H114073   9.186   4.593   3.288
 4732TIP3    H214074   9.223   4.451   3.250
 4733TIP3   OH214075  -0.006   4.563   3.103
 4733TIP3    H114076  -0.049   4.639   3.065
 4733TIP3    H214077   0.057   4.535   3.036
 4734TIP3   OH214078   0.202   4.808   4.198
 4734TIP3    H114079   0.170   4.737   4.253
 4734TIP3    H214080   0.296   4.811   4.215
 4735TIP3   OH214081   0.133   4.565   3.339
 4735TIP3    H114082   0.073   4.593   3.271
 4735TIP3    H214083   0.182   4.492   3.300
 4736TIP3   OH214084   9.374   4.032   2.756
 4736TIP3    H114085   9.360   4.056   2.848
 4736TIP3    H214086   9.285   4.017   2.722
 4737TIP3   OH214087   0.208   4.818   3.772
 4737TIP3    H114088   0.211   4.755   3.700
 4737TIP3    H214089   0.166   4.771   3.844
 4738TIP3   OH214090   9.607   4.290   3.348
 4738TIP3    H114091   9.525   4.283   3.397
 4738TIP3    H214092   9.659   4.354   3.397
 4739TIP3   OH214093   0.275   4.341   3.635
 4739TIP3    H114094   0.273   4.349   3.730
 4739TIP3    H214095   0.207   4.276   3.615
 4740TIP3   OH214096   9.052   4.430   2.874
 4740TIP3    H114097   9.016   4.371   2.941
 4740TIP3    H214098   9.090   4.371   2.809
 4741TIP3   OH214099   0.495   6.035   3.860
 4741TIP3    H114100   0.456   6.089   3.791
 4741TIP3    H214101   0.573   6.083   3.888
 4742TIP3   OH214102   9.723   4.473   3.512
 4742TIP3    H114103   9.795   4.516   3.466
 4742TIP3    H214104   9.746   4.478   3.605
 4743TIP3   OH214105   9.200   4.094   3.310
 4743TIP3    H114106   9.135   4.032   3.342
 4743TIP3    H214107   9.244   4.048   3.239
 4744TIP3   OH214108   9.757   4.503   3.779
 4744TIP3    H114109   9.705   4.480   3.855
 4744TIP3    H214110   9.839   4.538   3.815
 4745TIP3   OH214111   9.454   4.915   2.975
 4745TIP3    H114112   9.388   4.910   2.906
 4745TIP3    H214113   9.415   4.971   3.042
 4746TIP3   OH214114   0.488   5.142   3.512
 4746TIP3    H114115   0.522   5.194   3.440
 4746TIP3    H214116   0.408   5.102   3.477
 4747TIP3   OH214117   0.092   4.213   2.817
 4747TIP3    H114118  -0.002   4.210   2.799
 4747TIP3    H214119   0.112   4.307   2.824
 4748TIP3   OH214120   0.040   5.209   3.971
 4748TIP3    H114121   0.049   5.213   4.066
 4748TIP3    H214122  -0.009   5.288   3.948
 4749TIP3   OH214123   0.143   4.474   2.888
 4749TIP3    H114124   0.238   4.485   2.896
 4749TIP3    H214125   0.115   4.546   2.832
 4750TIP3   OH214126   9.580   5.025   2.747
 4750TIP3    H114127   9.525   5.102   2.736
 4750TIP3    H214128   9.547   4.983   2.826
 4751TIP3   OH214129  -0.018   4.994   4.286
 4751TIP3    H114130  -0.031   4.907   4.247
 4751TIP3    H214131   0.068   5.022   4.256
 4752TIP3   OH214132   0.206   5.445   3.824
 4752TIP3    H114133   0.113   5.430   3.842
 4752TIP3    H214134   0.237   5.495   3.899
 4753TIP3   OH214135   0.517   4.558   2.709
 4753TIP3    H114136   0.462   4.510   2.647
 4753TIP3    H214137   0.525   4.645   2.670
 4754TIP3   OH214138   0.800   5.453   3.787
 4754TIP3    H114139   0.712   5.419   3.803
 4754TIP3    H214140   0.825   5.414   3.703
 4755TIP3   OH214141   0.273   5.366   2.649
 4755TIP3    H114142   0.244   5.297   2.710
 4755TIP3    H214143   0.283   5.321   2.565
 4756TIP3   OH214144   0.270   5.009   3.401
 4756TIP3    H114145   0.192   4.979   3.447
 4756TIP3    H214146   0.309   4.929   3.366
 4757TIP3   OH214147   9.242   5.035   3.137
 4757TIP3    H114148   9.279   5.034   3.225
 4757TIP3    H214149   9.212   4.946   3.123
 4758TIP3   OH214150   0.061   5.181   3.696
 4758TIP3    H114151   0.076   5.185   3.790
 4758TIP3    H214152   0.124   5.116   3.664
 4759TIP3   OH214153   0.064   5.113   2.529
 4759TIP3    H114154   0.103   5.084   2.612
 4759TIP3    H214155  -0.014   5.059   2.519
 4760TIP3   OH214156   0.303   5.723   3.654
 4760TIP3    H114157   0.218   5.701   3.617
 4760TIP3    H214158   0.330   5.802   3.607
 4761TIP3   OH214159   0.369   5.570   2.323
 4761TIP3    H114160   0.372   5.619   2.241
 4761TIP3    H214161   0.293   5.606   2.370
 4762TIP3   OH214162   0.214   5.036   2.752
 4762TIP3    H114163   0.201   4.966   2.816
 4762TIP3    H214164   0.308   5.032   2.732
 4763TIP3   OH214165   9.187   5.042   2.516
 4763TIP3    H114166   9.175   4.947   2.516
 4763TIP3    H214167   9.145   5.071   2.598
 4764TIP3   OH214168   0.264   4.376   3.904
 4764TIP3    H114169   0.341   4.419   3.941
 4764TIP3    H214170   0.242   4.308   3.968
 4765TIP3   OH214171   0.121   4.168   3.089
 4765TIP3    H114172   0.112   4.183   2.995
 4765TIP3    H214173   0.169   4.244   3.121
 4766TIP3   OH214174   9.372   5.211   2.747
 4766TIP3    H114175   9.363   5.230   2.841
 4766TIP3    H214176   9.386   5.297   2.707
 4767TIP3   OH214177   9.631   4.349   3.083
 4767TIP3    H114178   9.691   4.424   3.084
 4767TIP3    H214179   9.617   4.328   3.175
 4768TIP3   OH214180   0.133   4.622   3.949
 4768TIP3    H114181   0.067   4.588   4.010
 4768TIP3    H214182   0.198   4.551   3.942
 4769TIP3   OH214183   9.765   4.065   3.290
 4769TIP3    H114184   9.724   4.145   3.323
 4769TIP3    H214185   9.833   4.096   3.231
 4770TIP3   OH214186   9.316   3.945   3.120
 4770TIP3    H114187   9.243   3.943   3.058
 4770TIP3    H214188   9.384   3.891   3.080
 4771TIP3   OH214189   0.693   4.564   3.953
 4771TIP3    H114190   0.597   4.565   3.958
 4771TIP3    H214191   0.712   4.527   3.867
 4772TIP3   OH214192   0.355   4.748   3.332
 4772TIP3    H114193   0.277   4.694   3.345
 4772TIP3    H214194   0.421   4.709   3.389
 4773TIP3   OH214195   0.355   5.713   3.257
 4773TIP3    H114196   0.316   5.771   3.191
 4773TIP3    H214197   0.449   5.729   3.251
 4774TIP3   OH214198   9.294   5.293   2.456
 4774TIP3    H114199   9.270   5.217   2.510
 4774TIP3    H214200   9.389   5.302   2.469
 4775TIP3   OH214201   0.268   5.607   4.035
 4775TIP3    H114202   0.257   5.561   4.118
 4775TIP3    H214203   0.326   5.681   4.055
 4776TIP3   OH214204   0.083   5.345   2.383
 4776TIP3    H114205   0.068   5.264   2.430
 4776TIP3    H214206   0.085   5.319   2.291
 4777TIP3   OH214207   9.469   5.289   4.293
 4777TIP3    H114208   9.490   5.205   4.252
 4777TIP3    H214209   9.526   5.292   4.371
 4778TIP3   OH214210   9.636   4.958   2.491
 4778TIP3    H114211   9.623   4.981   2.583
 4778TIP3    H214212   9.551   4.923   2.463
 4779TIP3   OH214213   0.343   5.213   3.818
 4779TIP3    H114214   0.423   5.246   3.776
 4779TIP3    H214215   0.283   5.288   3.817
 4780TIP3   OH214216   9.271   4.597   2.859
 4780TIP3    H114217   9.192   4.544   2.863
 4780TIP3    H214218   9.300   4.590   2.767
 4781TIP3   OH214219   9.405   4.853   3.994
 4781TIP3    H114220   9.466   4.917   4.031
 4781TIP3    H214221   9.415   4.863   3.899
 4782TIP3   OH214222   0.228   5.113   4.234
 4782TIP3    H114223   0.291   5.106   4.163
 4782TIP3    H214224   0.267   5.065   4.307
 4783TIP3   OH214225   0.322   4.810   2.376
 4783TIP3    H114226   0.305   4.769   2.292
 4783TIP3    H214227   0.303   4.903   2.361
 4784TIP3   OH214228   9.520   4.500   4.339
 4784TIP3    H114229   9.448   4.444   4.367
 4784TIP3    H214230   9.490   4.539   4.258
 4785TIP3   OH214231   9.648   4.240   3.993
 4785TIP3    H114232   9.699   4.318   4.018
 4785TIP3    H214233   9.574   4.276   3.944
 4786TIP3   OH214234   9.674   4.948   3.935
 4786TIP3    H114235   9.697   4.900   3.856
 4786TIP3    H214236   9.680   5.040   3.910
 4787TIP3   OH214237   0.471   4.796   4.285
 4787TIP3    H114238   0.501   4.710   4.315
 4787TIP3    H214239   0.539   4.826   4.226
 4788TIP3   OH214240   0.442   5.109   4.043
 4788TIP3    H114241   0.387   5.149   3.975
 4788TIP3    H214242   0.531   5.122   4.012
 4789TIP3   OH214243   9.755   4.032   4.124
 4789TIP3    H114244   9.727   4.107   4.070
 4789TIP3    H214245   9.693   3.963   4.102
 4790TIP3   OH214246   0.097   4.603   4.345
 4790TIP3    H114247   0.137   4.592   4.432
 4790TIP3    H214248   0.046   4.522   4.333
 4791TIP3   OH214249   0.321   4.517   4.195
 4791TIP3    H114250   0.244   4.534   4.249
 4791TIP3    H214251   0.393   4.509   4.257
 4792TIP3   OH214252   0.539   4.523   4.367
 4792TIP3    H114253   0.557   4.429   4.372
 4792TIP3    H214254   0.531   4.550   4.459
 4793TIP3   OH214255   0.027   4.060   4.383
 4793TIP3    H114256   0.102   4.000   4.382
 4793TIP3    H214257  -0.009   4.055   4.294
 4794TIP3   OH214258   0.130   4.288   4.509
 4794TIP3    H114259   0.140   4.200   4.474
 4794TIP3    H214260   0.074   4.277   4.586
 4795TIP3   OH214261   0.613   5.792   3.278
 4795TIP3    H114262   0.624   5.791   3.373
 4795TIP3    H214263   0.631   5.883   3.253
 4796TIP3   OH214264   0.616   5.790   3.553
 4796TIP3    H114265   0.572   5.706   3.551
 4796TIP3    H214266   0.684   5.780   3.619
 4797TIP3   OH214267   0.672   5.506   4.091
 4797TIP3    H114268   0.601   5.511   4.155
 4797TIP3    H214269   0.720   5.588   4.102
 4798TIP3   OH214270   0.489   5.014   2.724
 4798TIP3    H114271   0.550   5.079   2.690
 4798TIP3    H214272   0.534   4.975   2.799
 4799TIP3   OH214273   0.618   4.882   2.928
 4799TIP3    H114274   0.554   4.842   2.987
 4799TIP3    H214275   0.686   4.917   2.986
 4800TIP3   OH214276   0.660   5.292   3.356
 4800TIP3    H114277   0.714   5.224   3.317
 4800TIP3    H214278   0.667   5.366   3.296
 4801TIP3   OH214279   0.483   5.542   3.554
 4801TIP3    H114280   0.412   5.588   3.598
 4801TIP3    H214281   0.442   5.500   3.479
 4802TIP3   OH214282   0.520   4.792   2.564
 4802TIP3    H114283   0.451   4.794   2.498
 4802TIP3    H214284   0.504   4.870   2.617
 4803TIP3   OH214285   0.383   4.440   2.504
 4803TIP3    H114286   0.407   4.477   2.419
 4803TIP3    H214287   0.365   4.347   2.486
 4804TIP3   OH214288   0.422   4.738   3.065
 4804TIP3    H114289   0.430   4.644   3.049
 4804TIP3    H214290   0.406   4.745   3.159
 4805TIP3   OH214291   0.683   5.153   3.916
 4805TIP3    H114292   0.749   5.088   3.893
 4805TIP3    H214293   0.665   5.199   3.833
 4806TIP3   OH214294   0.860   4.939   3.914
 4806TIP3    H114295   0.792   4.904   3.971
 4806TIP3    H214296   0.937   4.886   3.933
 4807TIP3   OH214297   0.346   4.165   2.459
 4807TIP3    H114298   0.410   4.149   2.528
 4807TIP3    H214299   0.263   4.135   2.495
 4808TIP3   OH214300   0.420   4.469   2.955
 4808TIP3    H114301   0.462   4.384   2.967
 4808TIP3    H214302   0.459   4.504   2.874
 4809TIP3   OH214303   0.560   4.626   3.479
 4809TIP3    H114304   0.639   4.644   3.428
 4809TIP3    H214305   0.576   4.666   3.564
 4810TIP3   OH214306   0.639   4.775   3.703
 4810TIP3    H114307   0.572   4.805   3.764
 4810TIP3    H214308   0.668   4.854   3.658
 4811TIP3   OH214309   1.091   4.377   4.240
 4811TIP3    H114310   1.157   4.319   4.201
 4811TIP3    H214311   1.055   4.425   4.165
 4812TIP3   OH214312   0.518   4.214   3.002
 4812TIP3    H114313   0.563   4.199   3.085
 4812TIP3    H214314   0.456   4.141   2.994
 4813TIP3   OH214315   0.943   4.485   4.037
 4813TIP3    H114316   0.858   4.527   4.051
 4813TIP3    H214317   0.923   4.405   3.989
 4814TIP3   OH214318   0.555   4.128   2.634
 4814TIP3    H114319   0.601   4.068   2.576
 4814TIP3    H214320   0.614   4.204   2.640
 4815TIP3   OH214321   0.181   5.685   2.880
 4815TIP3    H114322   0.240   5.673   2.806
 4815TIP3    H214323   0.170   5.780   2.887
 4816TIP3   OH214324   9.526   5.715   3.908
 4816TIP3    H114325   9.589   5.683   3.972
 4816TIP3    H214326   9.580   5.757   3.841
 4817TIP3   OH214327   0.135   5.953   3.749
 4817TIP3    H114328   0.116   5.860   3.734
 4817TIP3    H214329   0.175   5.955   3.836
 4818TIP3   OH214330   0.853   4.241   3.938
 4818TIP3    H114331   0.767   4.235   3.896
 4818TIP3    H214332   0.887   4.151   3.935
 4819TIP3   OH214333   9.587   5.813   3.474
 4819TIP3    H114334   9.494   5.822   3.452
 4819TIP3    H214335   9.594   5.848   3.562
 4820TIP3   OH214336   0.069   5.758   3.504
 4820TIP3    H114337  -0.022   5.772   3.481
 4820TIP3    H214338   0.118   5.825   3.456
 4821TIP3   OH214339   0.313   5.909   3.446
 4821TIP3    H114340   0.253   5.966   3.397
 4821TIP3    H214341   0.333   5.838   3.385
 4822TIP3   OH214342   0.073   4.145   3.586
 4822TIP3    H114343   0.044   4.063   3.627
 4822TIP3    H214344   0.134   4.118   3.518
 4823TIP3   OH214345   0.562   4.087   3.464
 4823TIP3    H114346   0.603   4.133   3.390
 4823TIP3    H214347   0.471   4.117   3.463
 4824TIP3   OH214348   0.672   4.164   3.226
 4824TIP3    H114349   0.736   4.100   3.195
 4824TIP3    H214350   0.713   4.249   3.211
 4825TIP3   OH214351   9.739   3.845   3.443
 4825TIP3    H114352   9.746   3.932   3.402
 4825TIP3    H214353   9.751   3.863   3.536
 4826TIP3   OH214354   0.276   4.040   3.427
 4826TIP3    H114355   0.318   4.003   3.349
 4826TIP3    H214356   0.277   3.970   3.491
 4827TIP3   OH214357   0.332   4.004   3.008
 4827TIP3    H114358   0.254   4.051   3.037
 4827TIP3    H214359   0.321   3.916   3.044
 4828TIP3   OH214360   9.597   4.070   3.072
 4828TIP3    H114361   9.642   4.025   3.144
 4828TIP3    H214362   9.619   4.162   3.083
 4829TIP3   OH214363   9.373   5.482   2.662
 4829TIP3    H114364   9.411   5.516   2.581
 4829TIP3    H214365   9.284   5.457   2.638
 4830TIP3   OH214366   0.325   5.631   2.652
 4830TIP3    H114367   0.307   5.537   2.651
 4830TIP3    H214368   0.275   5.665   2.577
 4831TIP3   OH214369   9.596   4.155   4.496
 4831TIP3    H114370   9.683   4.127   4.467
 4831TIP3    H214371   9.585   4.114   4.582
 4832TIP3   OH214372   0.607   4.256   4.367
 4832TIP3    H114373   0.621   4.222   4.456
 4832TIP3    H214374   0.692   4.248   4.325
 4833TIP3   OH214375   0.516   5.762   3.864
 4833TIP3    H114376   0.442   5.729   3.815
 4833TIP3    H214377   0.505   5.858   3.862
 4834TIP3   OH214378   1.822   5.154   2.647
 4834TIP3    H114379   1.769   5.225   2.611
 4834TIP3    H214380   1.760   5.084   2.667
 4835TIP3   OH214381   1.790   5.173   3.035
 4835TIP3    H114382   1.847   5.146   3.107
 4835TIP3    H214383   1.745   5.092   3.008
 4836TIP3   OH214384   1.076   5.011   3.381
 4836TIP3    H114385   1.116   4.958   3.450
 4836TIP3    H214386   1.150   5.039   3.327
 4837TIP3   OH214387   2.043   5.474   2.708
 4837TIP3    H114388   2.039   5.403   2.772
 4837TIP3    H214389   2.067   5.551   2.759
 4838TIP3   OH214390   1.081   5.437   3.043
 4838TIP3    H114391   1.060   5.345   3.055
 4838TIP3    H214392   1.177   5.440   3.042
 4839TIP3   OH214393   0.757   4.652   2.841
 4839TIP3    H114394   0.720   4.736   2.868
 4839TIP3    H214395   0.684   4.605   2.801
 4840TIP3   OH214396   0.844   4.965   3.070
 4840TIP3    H114397   0.893   4.886   3.092
 4840TIP3    H214398   0.911   5.030   3.049
 4841TIP3   OH214399   1.721   5.874   2.738
 4841TIP3    H114400   1.735   5.816   2.663
 4841TIP3    H214401   1.748   5.824   2.814
 4842TIP3   OH214402   1.593   5.379   3.040
 4842TIP3    H114403   1.641   5.300   3.016
 4842TIP3    H214404   1.661   5.442   3.067
 4843TIP3   OH214405   2.629   4.698   3.056
 4843TIP3    H114406   2.644   4.783   3.099
 4843TIP3    H214407   2.652   4.713   2.964
 4844TIP3   OH214408   1.982   4.870   3.060
 4844TIP3    H114409   2.015   4.784   3.085
 4844TIP3    H214410   1.950   4.857   2.970
 4845TIP3   OH214411   1.346   4.520   3.039
 4845TIP3    H114412   1.335   4.596   2.982
 4845TIP3    H214413   1.290   4.453   3.001
 4846TIP3   OH214414   2.067   4.632   2.679
 4846TIP3    H114415   2.126   4.627   2.754
 4846TIP3    H214416   2.122   4.668   2.608
 4847TIP3   OH214417   0.978   4.735   3.148
 4847TIP3    H114418   1.060   4.716   3.193
 4847TIP3    H214419   0.986   4.690   3.063
 4848TIP3   OH214420   1.380   4.953   2.981
 4848TIP3    H114421   1.475   4.952   2.975
 4848TIP3    H214422   1.352   4.869   2.946
 4849TIP3   OH214423   2.682   4.922   3.215
 4849TIP3    H114424   2.593   4.955   3.213
 4849TIP3    H214425   2.718   4.955   3.298
 4850TIP3   OH214426   1.331   4.525   3.483
 4850TIP3    H114427   1.283   4.564   3.410
 4850TIP3    H214428   1.276   4.542   3.559
 4851TIP3   OH214429   1.670   5.335   2.491
 4851TIP3    H114430   1.631   5.251   2.468
 4851TIP3    H214431   1.597   5.397   2.487
 4852TIP3   OH214432   1.437   5.300   3.256
 4852TIP3    H114433   1.382   5.373   3.285
 4852TIP3    H214434   1.486   5.335   3.182
 4853TIP3   OH214435   2.219   4.644   2.906
 4853TIP3    H114436   2.169   4.630   2.986
 4853TIP3    H214437   2.269   4.725   2.922
 4854TIP3   OH214438   1.219   4.636   3.254
 4854TIP3    H114439   1.274   4.711   3.275
 4854TIP3    H214440   1.266   4.590   3.184
 4855TIP3   OH214441   1.277   5.507   3.349
 4855TIP3    H114442   1.264   5.597   3.319
 4855TIP3    H214443   1.200   5.487   3.402
 4856TIP3   OH214444   0.645   5.204   2.581
 4856TIP3    H114445   0.567   5.225   2.529
 4856TIP3    H214446   0.663   5.284   2.631
 4857TIP3   OH214447   2.077   5.722   2.851
 4857TIP3    H114448   1.988   5.720   2.886
 4857TIP3    H214449   2.082   5.806   2.805
 4858TIP3   OH214450   2.426   4.590   3.223
 4858TIP3    H114451   2.342   4.612   3.184
 4858TIP3    H214452   2.490   4.617   3.157
 4859TIP3   OH214453   1.675   4.220   3.221
 4859TIP3    H114454   1.668   4.127   3.245
 4859TIP3    H214455   1.597   4.260   3.258
 4860TIP3   OH214456   1.782   5.740   2.499
 4860TIP3    H114457   1.830   5.658   2.491
 4860TIP3    H214458   1.846   5.807   2.474
 4861TIP3   OH214459   1.900   5.499   2.473
 4861TIP3    H114460   1.834   5.430   2.475
 4861TIP3    H214461   1.958   5.480   2.547
 4862TIP3   OH214462   2.318   5.604   3.185
 4862TIP3    H114463   2.301   5.528   3.130
 4862TIP3    H214464   2.308   5.679   3.126
 4863TIP3   OH214465   1.608   5.065   2.453
 4863TIP3    H114466   1.590   5.007   2.527
 4863TIP3    H214467   1.663   5.013   2.394
 4864TIP3   OH214468   1.569   4.793   2.196
 4864TIP3    H114469   1.635   4.843   2.244
 4864TIP3    H214470   1.617   4.751   2.124
 4865TIP3   OH214471   2.501   5.264   3.061
 4865TIP3    H114472   2.416   5.308   3.058
 4865TIP3    H214473   2.536   5.275   2.973
 4866TIP3   OH214474   1.974   5.095   2.423
 4866TIP3    H114475   1.924   5.121   2.501
 4866TIP3    H214476   2.060   5.070   2.458
 4867TIP3   OH214477   2.204   5.123   3.370
 4867TIP3    H114478   2.198   5.207   3.415
 4867TIP3    H214479   2.124   5.119   3.317
 4868TIP3   OH214480   1.193   5.077   2.816
 4868TIP3    H114481   1.158   5.012   2.755
 4868TIP3    H214482   1.266   5.033   2.859
 4869TIP3   OH214483   1.347   5.493   2.963
 4869TIP3    H114484   1.327   5.476   2.871
 4869TIP3    H214485   1.432   5.452   2.977
 4870TIP3   OH214486   1.285   5.076   3.205
 4870TIP3    H114487   1.322   5.038   3.125
 4870TIP3    H214488   1.340   5.153   3.223
 4871TIP3   OH214489   1.830   5.736   2.975
 4871TIP3    H114490   1.831   5.808   3.038
 4871TIP3    H214491   1.824   5.657   3.029
 4872TIP3   OH214492   1.474   5.606   3.520
 4872TIP3    H114493   1.411   5.661   3.567
 4872TIP3    H214494   1.420   5.553   3.462
 4873TIP3   OH214495   1.807   4.926   2.279
 4873TIP3    H114496   1.864   4.988   2.326
 4873TIP3    H214497   1.833   4.935   2.187
 4874TIP3   OH214498   1.223   5.168   3.677
 4874TIP3    H114499   1.221   5.263   3.690
 4874TIP3    H214500   1.131   5.143   3.666
 4875TIP3   OH214501   1.530   5.625   2.459
 4875TIP3    H114502   1.619   5.648   2.486
 4875TIP3    H214503   1.489   5.709   2.438
 4876TIP3   OH214504   1.264   5.762   3.607
 4876TIP3    H114505   1.234   5.769   3.517
 4876TIP3    H214506   1.184   5.745   3.658
 4877TIP3   OH214507   2.300   4.188   2.308
 4877TIP3    H114508   2.224   4.212   2.361
 4877TIP3    H214509   2.313   4.263   2.250
 4878TIP3   OH214510   1.062   4.894   2.641
 4878TIP3    H114511   0.980   4.931   2.608
 4878TIP3    H214512   1.039   4.806   2.671
 4879TIP3   OH214513   2.140   5.557   1.870
 4879TIP3    H114514   2.133   5.650   1.846
 4879TIP3    H214515   2.229   5.533   1.845
 4880TIP3   OH214516   0.864   5.328   3.552
 4880TIP3    H114517   0.792   5.308   3.492
 4880TIP3    H214518   0.894   5.243   3.583
 4881TIP3   OH214519   0.708   5.534   3.212
 4881TIP3    H114520   0.798   5.553   3.240
 4881TIP3    H214521   0.659   5.612   3.236
 4882TIP3   OH214522   2.551   5.951   3.263
 4882TIP3    H114523   2.555   5.857   3.280
 4882TIP3    H214524   2.473   5.980   3.310
 4883TIP3   OH214525   1.661   5.756   3.389
 4883TIP3    H114526   1.650   5.846   3.420
 4883TIP3    H214527   1.595   5.706   3.437
 4884TIP3   OH214528   1.441   5.860   2.335
 4884TIP3    H114529   1.398   5.837   2.253
 4884TIP3    H214530   1.401   5.944   2.360
 4885TIP3   OH214531   0.863   5.709   2.745
 4885TIP3    H114532   0.929   5.708   2.815
 4885TIP3    H214533   0.792   5.654   2.779
 4886TIP3   OH214534   1.636   5.781   1.962
 4886TIP3    H114535   1.685   5.706   1.928
 4886TIP3    H214536   1.673   5.796   2.049
 4887TIP3   OH214537   1.694   5.827   2.231
 4887TIP3    H114538   1.608   5.834   2.272
 4887TIP3    H214539   1.749   5.784   2.297
 4888TIP3   OH214540   2.446   5.077   3.527
 4888TIP3    H114541   2.363   5.085   3.480
 4888TIP3    H214542   2.464   4.983   3.528
 4889TIP3   OH214543   1.059   5.518   3.520
 4889TIP3    H114544   1.109   5.508   3.602
 4889TIP3    H214545   0.989   5.454   3.526
 4890TIP3   OH214546   1.435   4.307   3.342
 4890TIP3    H114547   1.350   4.275   3.310
 4890TIP3    H214548   1.414   4.390   3.386
 4891TIP3   OH214549   1.980   4.440   3.542
 4891TIP3    H114550   2.050   4.415   3.602
 4891TIP3    H214551   1.900   4.420   3.589
 4892TIP3   OH214552   2.205   4.860   3.465
 4892TIP3    H114553   2.164   4.855   3.551
 4892TIP3    H214554   2.188   4.949   3.435
 4893TIP3   OH214555   1.878   4.919   2.004
 4893TIP3    H114556   1.835   4.922   1.919
 4893TIP3    H214557   1.959   4.968   1.992
 4894TIP3   OH214558   1.608   4.353   2.327
 4894TIP3    H114559   1.568   4.375   2.411
 4894TIP3    H214560   1.570   4.269   2.303
 4895TIP3   OH214561   1.374   4.848   3.337
 4895TIP3    H114562   1.334   4.854   3.423
 4895TIP3    H214563   1.350   4.930   3.293
 4896TIP3   OH214564   1.270   4.725   2.874
 4896TIP3    H114565   1.180   4.693   2.873
 4896TIP3    H214566   1.305   4.699   2.789
 4897TIP3   OH214567   1.924   5.065   3.669
 4897TIP3    H114568   1.896   4.997   3.730
 4897TIP3    H214569   2.017   5.079   3.689
 4898TIP3   OH214570   1.912   4.830   2.798
 4898TIP3    H114571   1.825   4.841   2.760
 4898TIP3    H214572   1.949   4.755   2.752
 4899TIP3   OH214573   1.210   4.848   3.564
 4899TIP3    H114574   1.274   4.897   3.615
 4899TIP3    H214575   1.195   4.768   3.615
 4900TIP3   OH214576   1.275   4.341   2.265
 4900TIP3    H114577   1.262   4.346   2.360
 4900TIP3    H214578   1.198   4.384   2.228
 4901TIP3   OH214579   0.812   4.381   3.148
 4901TIP3    H114580   0.879   4.417   3.206
 4901TIP3    H214581   0.858   4.358   3.068
 4902TIP3   OH214582   0.706   4.361   2.652
 4902TIP3    H114583   0.753   4.397   2.576
 4902TIP3    H214584   0.642   4.428   2.675
 4903TIP3   OH214585   1.959   5.070   3.239
 4903TIP3    H114586   1.977   5.004   3.172
 4903TIP3    H214587   1.914   5.022   3.308
 4904TIP3   OH214588   1.615   4.462   2.952
 4904TIP3    H114589   1.533   4.486   2.994
 4904TIP3    H214590   1.683   4.493   3.012
 4905TIP3   OH214591   1.022   4.606   2.905
 4905TIP3    H114592   0.930   4.607   2.875
 4905TIP3    H214593   1.047   4.514   2.900
 4906TIP3   OH214594   1.387   4.646   2.637
 4906TIP3    H114595   1.458   4.710   2.644
 4906TIP3    H214596   1.345   4.667   2.553
 4907TIP3   OH214597   2.067   4.617   3.138
 4907TIP3    H114598   2.047   4.639   3.229
 4907TIP3    H214599   2.002   4.551   3.115
 4908TIP3   OH214600   1.173   4.597   2.410
 4908TIP3    H114601   1.102   4.561   2.356
 4908TIP3    H214602   1.222   4.654   2.351
 4909TIP3   OH214603   2.269   6.307   3.351
 4909TIP3    H114604   2.270   6.313   3.256
 4909TIP3    H214605   2.350   6.350   3.378
 4910TIP3   OH214606   1.207   5.434   3.757
 4910TIP3    H114607   1.289   5.449   3.803
 4910TIP3    H214608   1.140   5.440   3.825
 4911TIP3   OH214609   1.658   4.928   2.988
 4911TIP3    H114610   1.652   4.907   2.895
 4911TIP3    H214611   1.696   4.850   3.028
 4912TIP3   OH214612   1.152   4.355   2.913
 4912TIP3    H114613   1.124   4.280   2.965
 4912TIP3    H214614   1.179   4.317   2.829
 4913TIP3   OH214615   1.638   4.758   3.319
 4913TIP3    H114616   1.553   4.801   3.315
 4913TIP3    H214617   1.699   4.827   3.346
 4914TIP3   OH214618   1.264   5.197   2.371
 4914TIP3    H114619   1.239   5.104   2.374
 4914TIP3    H214620   1.301   5.214   2.458
 4915TIP3   OH214621   2.266   5.400   3.008
 4915TIP3    H114622   2.302   5.447   2.933
 4915TIP3    H214623   2.188   5.356   2.973
 4916TIP3   OH214624   1.807   4.494   2.203
 4916TIP3    H114625   1.736   4.450   2.250
 4916TIP3    H214626   1.848   4.550   2.268
 4917TIP3   OH214627   1.796   5.491   3.413
 4917TIP3    H114628   1.849   5.471   3.491
 4917TIP3    H214629   1.754   5.575   3.433
 4918TIP3   OH214630   1.917   4.673   2.377
 4918TIP3    H114631   2.007   4.696   2.402
 4918TIP3    H214632   1.873   4.757   2.365
 4919TIP3   OH214633   1.061   5.150   3.047
 4919TIP3    H114634   1.100   5.133   2.962
 4919TIP3    H214635   1.128   5.123   3.110
 4920TIP3   OH214636   0.948   5.101   3.693
 4920TIP3    H114637   0.958   5.073   3.784
 4920TIP3    H214638   0.879   5.045   3.658
 4921TIP3   OH214639   1.707   5.239   3.689
 4921TIP3    H114640   1.655   5.215   3.612
 4921TIP3    H214641   1.789   5.189   3.680
 4922TIP3   OH214642   1.928   5.785   3.306
 4922TIP3    H114643   1.835   5.764   3.313
 4922TIP3    H214644   1.952   5.815   3.394
 4923TIP3   OH214645   2.316   4.814   2.203
 4923TIP3    H114646   2.263   4.766   2.140
 4923TIP3    H214647   2.320   4.903   2.169
 4924TIP3   OH214648   2.563   5.671   3.283
 4924TIP3    H114649   2.469   5.659   3.271
 4924TIP3    H214650   2.602   5.648   3.199
 4925TIP3   OH214651   2.054   5.621   2.132
 4925TIP3    H114652   2.028   5.547   2.187
 4925TIP3    H214653   2.078   5.582   2.048
 4926TIP3   OH214654   2.040   5.265   2.901
 4926TIP3    H114655   1.949   5.243   2.924
 4926TIP3    H214656   2.074   5.185   2.861
 4927TIP3   OH214657   1.195   5.495   2.721
 4927TIP3    H114658   1.177   5.558   2.651
 4927TIP3    H214659   1.113   5.491   2.770
 4928TIP3   OH214660   0.748   4.775   2.407
 4928TIP3    H114661   0.795   4.855   2.430
 4928TIP3    H214662   0.670   4.776   2.463
 4929TIP3   OH214663   1.311   5.258   2.636
 4929TIP3    H114664   1.279   5.344   2.662
 4929TIP3    H214665   1.278   5.198   2.703
 4930TIP3   OH214666   1.483   5.826   3.183
 4930TIP3    H114667   1.521   5.901   3.137
 4930TIP3    H214668   1.555   5.792   3.236
 4931TIP3   OH214669   1.063   5.704   2.558
 4931TIP3    H114670   1.000   5.723   2.628
 4931TIP3    H214671   1.119   5.782   2.555
 4932TIP3   OH214672   1.825   5.502   3.137
 4932TIP3    H114673   1.817   5.496   3.232
 4932TIP3    H214674   1.889   5.435   3.114
 4933TIP3   OH214675   1.828   5.370   2.033
 4933TIP3    H114676   1.892   5.341   2.098
 4933TIP3    H214677   1.743   5.349   2.071
 4934TIP3   OH214678   2.093   5.975   3.186
 4934TIP3    H114679   2.027   5.914   3.217
 4934TIP3    H214680   2.047   6.031   3.123
 4935TIP3   OH214681   2.129   5.829   1.819
 4935TIP3    H114682   2.139   5.884   1.742
 4935TIP3    H214683   2.061   5.873   1.871
 4936TIP3   OH214684   1.167   4.599   3.694
 4936TIP3    H114685   1.072   4.607   3.701
 4936TIP3    H214686   1.193   4.548   3.771
 4937TIP3   OH214687   2.010   5.278   2.211
 4937TIP3    H114688   1.989   5.223   2.287
 4937TIP3    H214689   2.106   5.281   2.210
 4938TIP3   OH214690   0.916   5.703   3.332
 4938TIP3    H114691   0.969   5.646   3.388
 4938TIP3    H214692   0.925   5.790   3.371
 4939TIP3   OH214693   1.188   5.294   1.997
 4939TIP3    H114694   1.100   5.331   2.001
 4939TIP3    H214695   1.215   5.284   2.088
 4940TIP3   OH214696   1.116   5.391   2.257
 4940TIP3    H114697   1.158   5.319   2.303
 4940TIP3    H214698   1.179   5.463   2.264
 4941TIP3   OH214699   0.849   5.020   2.506
 4941TIP3    H114700   0.783   5.080   2.540
 4941TIP3    H214701   0.913   5.076   2.463
 4942TIP3   OH214702   2.004   4.677   3.400
 4942TIP3    H114703   2.084   4.718   3.433
 4942TIP3    H214704   1.994   4.597   3.452
 4943TIP3   OH214705   1.898   4.444   2.577
 4943TIP3    H114706   1.862   4.498   2.506
 4943TIP3    H214707   1.954   4.504   2.626
 4944TIP3   OH214708   1.331   5.558   2.276
 4944TIP3    H114709   1.395   5.557   2.347
 4944TIP3    H214710   1.364   5.624   2.215
 4945TIP3   OH214711   1.847   4.913   3.434
 4945TIP3    H114712   1.872   4.950   3.519
 4945TIP3    H214713   1.893   4.829   3.431
 4946TIP3   OH214714   1.709   4.315   2.742
 4946TIP3    H114715   1.689   4.379   2.810
 4946TIP3    H214716   1.777   4.357   2.689
 4947TIP3   OH214717   1.219   4.349   2.541
 4947TIP3    H114718   1.199   4.442   2.529
 4947TIP3    H214719   1.312   4.347   2.563
 4948TIP3   OH214720   2.466   4.796   3.433
 4948TIP3    H114721   2.372   4.809   3.448
 4948TIP3    H214722   2.470   4.734   3.361
 4949TIP3   OH214723   2.130   5.009   2.813
 4949TIP3    H114724   2.051   4.955   2.815
 4949TIP3    H214725   2.191   4.965   2.873
 4950TIP3   OH214726   0.793   4.500   2.433
 4950TIP3    H114727   0.788   4.596   2.428
 4950TIP3    H214728   0.810   4.472   2.343
 4951TIP3   OH214729   2.108   5.988   2.771
 4951TIP3    H114730   2.062   6.038   2.704
 4951TIP3    H214731   2.200   6.007   2.756
 4952TIP3   OH214732   1.169   4.228   3.304
 4952TIP3    H114733   1.138   4.195   3.220
 4952TIP3    H214734   1.164   4.153   3.363
 4953TIP3   OH214735   0.667   5.455   2.698
 4953TIP3    H114736   0.651   5.487   2.786
 4953TIP3    H214737   0.619   5.516   2.641
 4954TIP3   OH214738   0.914   6.005   3.757
 4954TIP3    H114739   0.997   6.004   3.805
 4954TIP3    H214740   0.888   5.913   3.751
 4955TIP3   OH214741   1.374   5.928   3.796
 4955TIP3    H114742   1.463   5.894   3.809
 4955TIP3    H214743   1.338   5.873   3.726
 4956TIP3   OH214744   1.351   5.523   1.944
 4956TIP3    H114745   1.304   5.447   1.979
 4956TIP3    H214746   1.424   5.485   1.895
 4957TIP3   OH214747   1.985   5.870   3.560
 4957TIP3    H114748   1.999   5.797   3.621
 4957TIP3    H214749   2.060   5.928   3.573
 4958TIP3   OH214750   1.768   5.568   1.848
 4958TIP3    H114751   1.809   5.508   1.910
 4958TIP3    H214752   1.825   5.565   1.771
 4959TIP3   OH214753   1.013   5.422   3.956
 4959TIP3    H114754   1.027   5.327   3.966
 4959TIP3    H214755   0.931   5.428   3.909
 4960TIP3   OH214756   0.982   5.021   2.149
 4960TIP3    H114757   1.022   4.996   2.232
 4960TIP3    H214758   1.056   5.032   2.090
 4961TIP3   OH214759   1.628   5.507   3.727
 4961TIP3    H114760   1.583   5.526   3.645
 4961TIP3    H214761   1.669   5.422   3.713
 4962TIP3   OH214762   2.103   5.560   3.352
 4962TIP3    H114763   2.179   5.582   3.298
 4962TIP3    H214764   2.037   5.625   3.329
 4963TIP3   OH214765   1.116   5.160   3.956
 4963TIP3    H114766   1.190   5.148   3.896
 4963TIP3    H214767   1.158   5.180   4.040
 4964TIP3   OH214768   1.139   4.947   2.372
 4964TIP3    H114769   1.133   4.916   2.463
 4964TIP3    H214770   1.197   4.884   2.329
 4965TIP3   OH214771   1.436   5.011   3.604
 4965TIP3    H114772   1.371   5.075   3.633
 4965TIP3    H214773   1.493   5.060   3.545
 4966TIP3   OH214774   1.298   4.768   2.235
 4966TIP3    H114775   1.273   4.761   2.143
 4966TIP3    H214776   1.393   4.780   2.232
 4967TIP3   OH214777   1.984   5.420   3.686
 4967TIP3    H114778   2.055   5.384   3.633
 4967TIP3    H214779   1.982   5.365   3.764
 4968TIP3   OH214780   2.091   5.062   1.894
 4968TIP3    H114781   2.084   5.025   1.806
 4968TIP3    H214782   2.069   5.155   1.883
 4969TIP3   OH214783   1.582   4.813   3.728
 4969TIP3    H114784   1.587   4.736   3.670
 4969TIP3    H214785   1.537   4.879   3.676
 4970TIP3   OH214786   1.587   4.604   3.540
 4970TIP3    H114787   1.618   4.646   3.459
 4970TIP3    H214788   1.498   4.576   3.520
 4971TIP3   OH214789   1.596   5.165   3.441
 4971TIP3    H114790   1.678   5.148   3.393
 4971TIP3    H214791   1.542   5.215   3.380
 4972TIP3   OH214792   2.191   5.100   3.768
 4972TIP3    H114793   2.226   5.011   3.777
 4972TIP3    H214794   2.268   5.155   3.757
 4973TIP3   OH214795   2.221   5.371   3.508
 4973TIP3    H114796   2.170   5.437   3.460
 4973TIP3    H214797   2.310   5.383   3.477
 4974TIP3   OH214798   1.470   4.898   3.970
 4974TIP3    H114799   1.402   4.834   3.990
 4974TIP3    H214800   1.500   4.875   3.882
 4975TIP3   OH214801   1.719   4.378   3.625
 4975TIP3    H114802   1.677   4.458   3.596
 4975TIP3    H214803   1.654   4.309   3.610
 4976TIP3   OH214804   1.839   4.857   3.826
 4976TIP3    H114805   1.830   4.843   3.921
 4976TIP3    H214806   1.753   4.836   3.790
 4977TIP3   OH214807   2.090   4.815   3.704
 4977TIP3    H114808   2.010   4.811   3.756
 4977TIP3    H214809   2.159   4.785   3.763
 4978TIP3   OH214810   2.325   4.775   3.849
 4978TIP3    H114811   2.339   4.681   3.857
 4978TIP3    H214812   2.320   4.806   3.939
 4979TIP3   OH214813   1.303   4.679   4.032
 4979TIP3    H114814   1.310   4.591   3.995
 4979TIP3    H214815   1.343   4.671   4.119
 4980TIP3   OH214816   1.781   4.361   3.891
 4980TIP3    H114817   1.850   4.295   3.887
 4980TIP3    H214818   1.752   4.372   3.800
 4981TIP3   OH214819   1.879   4.578   4.031
 4981TIP3    H114820   1.848   4.505   3.977
 4981TIP3    H214821   1.806   4.639   4.033
 4982TIP3   OH214822   1.097   5.737   2.055
 4982TIP3    H114823   1.185   5.740   2.092
 4982TIP3    H214824   1.089   5.817   2.003
 4983TIP3   OH214825   0.624   5.200   2.257
 4983TIP3    H114826   0.707   5.183   2.301
 4983TIP3    H214827   0.593   5.114   2.231
 4984TIP3   OH214828   0.533   5.772   2.751
 4984TIP3    H114829   0.464   5.721   2.710
 4984TIP3    H214830   0.565   5.717   2.822
 4985TIP3   OH214831   0.668   5.618   2.940
 4985TIP3    H114832   0.659   5.554   3.011
 4985TIP3    H214833   0.711   5.693   2.981
 4986TIP3   OH214834   2.368   6.069   2.751
 4986TIP3    H114835   2.407   6.075   2.838
 4986TIP3    H214836   2.442   6.082   2.691
 4987TIP3   OH214837   2.419   6.055   3.034
 4987TIP3    H114838   2.369   5.974   3.021
 4987TIP3    H214839   2.483   6.034   3.102
 4988TIP3   OH214840   2.453   5.766   3.609
 4988TIP3    H114841   2.382   5.774   3.672
 4988TIP3    H214842   2.501   5.849   3.615
 4989TIP3   OH214843   2.288   5.277   2.213
 4989TIP3    H114844   2.343   5.349   2.184
 4989TIP3    H214845   2.334   5.240   2.288
 4990TIP3   OH214846   2.414   5.137   2.416
 4990TIP3    H114847   2.346   5.099   2.472
 4990TIP3    H214848   2.478   5.174   2.478
 4991TIP3   OH214849   2.451   5.539   2.848
 4991TIP3    H114850   2.503   5.465   2.814
 4991TIP3    H214851   2.466   5.609   2.784
 4992TIP3   OH214852   2.264   5.825   3.030
 4992TIP3    H114853   2.201   5.872   3.084
 4992TIP3    H214854   2.212   5.785   2.961
 4993TIP3   OH214855   2.308   5.050   2.061
 4993TIP3    H114856   2.233   5.049   2.003
 4993TIP3    H214857   2.298   5.129   2.113
 4994TIP3   OH214858   2.184   4.699   1.994
 4994TIP3    H114859   2.165   4.746   1.913
 4994TIP3    H214860   2.168   4.607   1.973
 4995TIP3   OH214861   2.208   5.000   2.547
 4995TIP3    H114862   2.208   4.905   2.533
 4995TIP3    H214863   2.185   5.011   2.639
 4996TIP3   OH214864   0.819   5.066   3.323
 4996TIP3    H114865   0.810   5.031   3.234
 4996TIP3    H214866   0.912   5.057   3.343
 4997TIP3   OH214867   2.480   5.411   3.415
 4997TIP3    H114868   2.546   5.343   3.400
 4997TIP3    H214869   2.504   5.481   3.353
 4998TIP3   OH214870   2.658   5.200   3.405
 4998TIP3    H114871   2.584   5.157   3.448
 4998TIP3    H214872   2.733   5.143   3.425
 4999TIP3   OH214873   2.131   4.428   1.954
 4999TIP3    H114874   2.188   4.407   2.028
 4999TIP3    H214875   2.047   4.389   1.977
 5000TIP3   OH214876   2.201   4.723   2.446
 5000TIP3    H114877   2.246   4.639   2.455
 5000TIP3    H214878   2.238   4.762   2.367
 5001TIP3   OH214879   2.343   4.886   2.963
 5001TIP3    H114880   2.423   4.904   2.913
 5001TIP3    H214881   2.358   4.926   3.048
 5002TIP3   OH214882   2.421   5.033   3.191
 5002TIP3    H114883   2.349   5.060   3.248
 5002TIP3    H214884   2.450   5.114   3.150
 5003TIP3   OH214885   1.040   4.734   3.964
 5003TIP3    H114886   1.134   4.734   3.983
 5003TIP3    H214887   1.008   4.653   4.002
 5004TIP3   OH214888   2.882   4.630   3.728
 5004TIP3    H114889   2.948   4.574   3.688
 5004TIP3    H214890   2.844   4.679   3.655
 5005TIP3   OH214891   2.310   4.471   2.485
 5005TIP3    H114892   2.355   4.454   2.568
 5005TIP3    H214893   2.241   4.404   2.482
 5006TIP3   OH214894   1.012   4.454   3.330
 5006TIP3    H114895   1.065   4.375   3.331
 5006TIP3    H214896   1.073   4.524   3.309
 5007TIP3   OH214897   0.796   4.718   3.368
 5007TIP3    H114898   0.844   4.705   3.287
 5007TIP3    H214899   0.837   4.795   3.408
 5008TIP3   OH214900   2.732   4.746   3.530
 5008TIP3    H114901   2.650   4.785   3.560
 5008TIP3    H214902   2.704   4.672   3.476
 5009TIP3   OH214903   2.346   4.384   2.122
 5009TIP3    H114904   2.396   4.325   2.065
 5009TIP3    H214905   2.401   4.462   2.129
 5010TIP3   OH214906   0.781   4.216   2.872
 5010TIP3    H114907   0.696   4.210   2.917
 5010TIP3    H214908   0.765   4.275   2.798
 5011TIP3   OH214909   1.945   5.934   2.405
 5011TIP3    H114910   1.996   5.922   2.325
 5011TIP3    H214911   1.993   6.000   2.454
 5012TIP3   OH214912   1.014   4.273   3.706
 5012TIP3    H114913   0.962   4.269   3.786
 5012TIP3    H214914   0.959   4.323   3.645
 5013TIP3   OH214915   1.050   5.731   3.784
 5013TIP3    H114916   0.956   5.717   3.774
 5013TIP3    H214917   1.067   5.720   3.877
 5014TIP3   OH214918   1.250   5.783   3.324
 5014TIP3    H114919   1.199   5.858   3.292
 5014TIP3    H214920   1.336   5.794   3.284
 5015TIP3   OH214921   1.639   6.024   3.463
 5015TIP3    H114922   1.679   6.015   3.550
 5015TIP3    H214923   1.701   6.080   3.415
 5016TIP3   OH214924   1.819   6.184   3.325
 5016TIP3    H114925   1.864   6.126   3.263
 5016TIP3    H214926   1.890   6.225   3.374
 5017TIP3   OH214927   2.645   4.497   3.424
 5017TIP3    H114928   2.558   4.490   3.385
 5017TIP3    H214929   2.680   4.408   3.422
 5018TIP3   OH214930   0.915   6.024   3.371
 5018TIP3    H114931   0.825   6.037   3.341
 5018TIP3    H214932   0.928   6.091   3.438
 5019TIP3   OH214933   1.145   6.017   3.223
 5019TIP3    H114934   1.063   6.020   3.274
 5019TIP3    H214935   1.118   6.040   3.134
 5020TIP3   OH214936   1.545   6.047   3.026
 5020TIP3    H114937   1.500   6.026   2.944
 5020TIP3    H214938   1.489   6.114   3.067
 5021TIP3   OH214939   1.818   6.011   3.078
 5021TIP3    H114940   1.726   6.022   3.054
 5021TIP3    H214941   1.866   6.064   3.014
 5022TIP3   OH214942   2.035   6.167   2.968
 5022TIP3    H114943   2.027   6.249   2.919
 5022TIP3    H214944   2.061   6.103   2.902
 5023TIP3   OH214945   0.832   5.805   3.070
 5023TIP3    H114946   0.834   5.782   3.163
 5023TIP3    H214947   0.913   5.769   3.034
 5024TIP3   OH214948   1.044   5.688   2.948
 5024TIP3    H114949   1.050   5.601   2.987
 5024TIP3    H214950   1.132   5.725   2.956
 5025TIP3   OH214951   1.307   5.768   2.978
 5025TIP3    H114952   1.326   5.675   2.962
 5025TIP3    H214953   1.361   5.791   3.054
 5026TIP3   OH214954   1.874   4.424   3.080
 5026TIP3    H114955   1.822   4.352   3.116
 5026TIP3    H214956   1.935   4.382   3.019
 5027TIP3   OH214957   2.353   4.333   2.940
 5027TIP3    H114958   2.390   4.385   2.869
 5027TIP3    H214959   2.262   4.360   2.946
 5028TIP3   OH214960   2.467   4.416   2.705
 5028TIP3    H114961   2.535   4.353   2.679
 5028TIP3    H214962   2.509   4.502   2.693
 5029TIP3   OH214963   1.076   4.133   3.060
 5029TIP3    H114964   0.989   4.094   3.067
 5029TIP3    H214965   1.136   4.058   3.058
 5030TIP3   OH214966   0.878   4.010   2.704
 5030TIP3    H114967   0.921   4.060   2.635
 5030TIP3    H214968   0.853   4.076   2.769
 5031TIP3   OH214969   1.575   4.158   2.957
 5031TIP3    H114970   1.601   4.222   2.890
 5031TIP3    H214971   1.610   4.193   3.039
 5032TIP3   OH214972   2.065   4.298   2.926
 5032TIP3    H114973   2.075   4.264   2.837
 5032TIP3    H214974   2.074   4.221   2.983
 5033TIP3   OH214975   2.108   4.276   2.490
 5033TIP3    H114976   2.030   4.326   2.512
 5033TIP3    H214977   2.094   4.191   2.532
 5034TIP3   OH214978   0.606   5.614   2.471
 5034TIP3    H114979   0.529   5.569   2.436
 5034TIP3    H214980   0.588   5.707   2.460
 5035TIP3   OH214981   1.017   4.157   2.496
 5035TIP3    H114982   1.060   4.094   2.439
 5035TIP3    H214983   1.086   4.219   2.520
 5036TIP3   OH214984   1.490   4.391   2.579
 5036TIP3    H114985   1.557   4.356   2.637
 5036TIP3    H214986   1.473   4.479   2.613
 5037TIP3   OH214987   1.383   5.755   2.080
 5037TIP3    H114988   1.462   5.792   2.040
 5037TIP3    H214989   1.364   5.676   2.029
 5038TIP3   OH214990   2.085   5.891   2.170
 5038TIP3    H114991   2.079   5.795   2.161
 5038TIP3    H214992   2.044   5.925   2.091
 5039TIP3   OH214993   1.319   4.411   3.938
 5039TIP3    H114994   1.286   4.345   4.000
 5039TIP3    H214995   1.412   4.419   3.960
 5040TIP3   OH214996   1.565   4.414   4.063
 5040TIP3    H114997   1.643   4.393   4.011
 5040TIP3    H214998   1.562   4.346   4.130
 5041TIP3   OH214999   0.770   5.652   2.229
 5041TIP3    H115000   0.716   5.722   2.192
 5041TIP3    H215001   0.812   5.611   2.154
 5042TIP3   OH215002   2.388   4.504   3.853
 5042TIP3    H115003   2.405   4.475   3.943
 5042TIP3    H215004   2.473   4.498   3.810
 5043TIP3   OH215005   2.305   6.033   3.359
 5043TIP3    H115006   2.234   6.003   3.302
 5043TIP3    H215007   2.292   6.127   3.368
 5044TIP3   OH215008   3.584   5.424   2.090
 5044TIP3    H115009   3.553   5.511   2.065
 5044TIP3    H215010   3.513   5.365   2.065
 5045TIP3   OH215011   3.578   5.416   2.522
 5045TIP3    H115012   3.634   5.400   2.598
 5045TIP3    H215013   3.534   5.333   2.506
 5046TIP3   OH215014   2.876   5.272   2.865
 5046TIP3    H115015   2.917   5.221   2.936
 5046TIP3    H215016   2.949   5.297   2.808
 5047TIP3   OH215017   3.848   5.725   2.195
 5047TIP3    H115018   3.838   5.658   2.262
 5047TIP3    H215019   3.869   5.805   2.243
 5048TIP3   OH215020   2.857   5.698   2.552
 5048TIP3    H115021   2.844   5.603   2.551
 5048TIP3    H215022   2.952   5.709   2.546
 5049TIP3   OH215023   2.556   4.910   2.330
 5049TIP3    H115024   2.520   4.994   2.357
 5049TIP3    H215025   2.482   4.861   2.294
 5050TIP3   OH215026   2.638   5.225   2.562
 5050TIP3    H115027   2.688   5.147   2.587
 5050TIP3    H215028   2.705   5.289   2.538
 5051TIP3   OH215029   3.518   6.144   2.215
 5051TIP3    H115030   3.539   6.082   2.145
 5051TIP3    H215031   3.532   6.094   2.295
 5052TIP3   OH215032   3.387   5.638   2.525
 5052TIP3    H115033   3.434   5.558   2.498
 5052TIP3    H215034   3.456   5.697   2.556
 5053TIP3   OH215035   4.429   4.957   2.543
 5053TIP3    H115036   4.442   5.041   2.586
 5053TIP3    H215037   4.461   4.971   2.454
 5054TIP3   OH215038   3.790   5.124   2.557
 5054TIP3    H115039   3.820   5.038   2.587
 5054TIP3    H215040   3.753   5.108   2.470
 5055TIP3   OH215041   3.150   4.782   2.514
 5055TIP3    H115042   3.129   4.855   2.457
 5055TIP3    H215043   3.093   4.711   2.484
 5056TIP3   OH215044   3.849   4.886   2.157
 5056TIP3    H115045   3.912   4.879   2.229
 5056TIP3    H215046   3.899   4.923   2.085
 5057TIP3   OH215047   2.775   5.000   2.649
 5057TIP3    H115048   2.858   4.981   2.692
 5057TIP3    H215049   2.777   4.949   2.568
 5058TIP3   OH215050   3.190   5.199   2.465
 5058TIP3    H115051   3.285   5.185   2.472
 5058TIP3    H215052   3.156   5.117   2.431
 5059TIP3   OH215053   4.478   5.180   2.703
 5059TIP3    H115054   4.389   5.216   2.699
 5059TIP3    H215055   4.515   5.218   2.783
 5060TIP3   OH215056   3.131   4.788   2.968
 5060TIP3    H115057   3.081   4.824   2.895
 5060TIP3    H215058   3.076   4.804   3.045
 5061TIP3   OH215059   3.478   5.643   1.956
 5061TIP3    H115060   3.440   5.612   1.874
 5061TIP3    H215061   3.425   5.719   1.980
 5062TIP3   OH215062   3.218   5.563   2.730
 5062TIP3    H115063   3.167   5.637   2.764
 5062TIP3    H215064   3.270   5.601   2.659
 5063TIP3   OH215065   4.005   4.904   2.381
 5063TIP3    H115066   3.958   4.885   2.462
 5063TIP3    H215067   4.059   4.981   2.402
 5064TIP3   OH215068   3.023   4.895   2.736
 5064TIP3    H115069   3.078   4.970   2.759
 5064TIP3    H215070   3.070   4.852   2.665
 5065TIP3   OH215071   3.067   5.770   2.838
 5065TIP3    H115072   3.056   5.861   2.810
 5065TIP3    H215073   2.989   5.751   2.890
 5066TIP3   OH215074   2.450   5.473   2.095
 5066TIP3    H115075   2.415   5.491   2.008
 5066TIP3    H215076   2.471   5.560   2.130
 5067TIP3   OH215077   3.878   5.972   2.334
 5067TIP3    H115078   3.789   5.966   2.370
 5067TIP3    H215079   3.879   6.056   2.287
 5068TIP3   OH215080   4.230   4.843   2.708
 5068TIP3    H115081   4.145   4.869   2.671
 5068TIP3    H215082   4.294   4.872   2.643
 5069TIP3   OH215083   3.472   4.480   2.704
 5069TIP3    H115084   3.468   4.388   2.730
 5069TIP3    H215085   3.394   4.519   2.743
 5070TIP3   OH215086   3.593   6.002   1.988
 5070TIP3    H115087   3.646   5.923   1.977
 5070TIP3    H215088   3.649   6.073   1.959
 5071TIP3   OH215089   3.729   5.770   1.950
 5071TIP3    H115090   3.655   5.709   1.950
 5071TIP3    H215091   3.780   5.747   2.028
 5072TIP3   OH215092   4.114   5.862   2.674
 5072TIP3    H115093   4.099   5.786   2.617
 5072TIP3    H215094   4.101   5.938   2.617
 5073TIP3   OH215095   3.409   5.261   1.946
 5073TIP3    H115096   3.325   5.303   1.927
 5073TIP3    H215097   3.455   5.262   1.862
 5074TIP3   OH215098   3.374   5.076   1.633
 5074TIP3    H115099   3.440   5.124   1.683
 5074TIP3    H215100   3.423   5.007   1.588
 5075TIP3   OH215101   4.298   5.518   2.546
 5075TIP3    H115102   4.214   5.564   2.546
 5075TIP3    H215103   4.334   5.532   2.458
 5076TIP3   OH215104   3.771   5.348   1.904
 5076TIP3    H115105   3.716   5.378   1.977
 5076TIP3    H215106   3.855   5.327   1.945
 5077TIP3   OH215107   3.998   5.378   2.859
 5077TIP3    H115108   3.995   5.464   2.903
 5077TIP3    H215109   3.917   5.375   2.808
 5078TIP3   OH215110   2.994   5.331   2.309
 5078TIP3    H115111   2.959   5.268   2.245
 5078TIP3    H215112   3.067   5.284   2.350
 5079TIP3   OH215113   3.126   5.751   2.457
 5079TIP3    H115114   3.103   5.739   2.365
 5079TIP3    H215115   3.214   5.715   2.465
 5080TIP3   OH215116   3.085   5.327   2.687
 5080TIP3    H115117   3.126   5.290   2.608
 5080TIP3    H215118   3.134   5.409   2.702
 5081TIP3   OH215119   3.634   5.967   2.457
 5081TIP3    H115120   3.626   6.048   2.509
 5081TIP3    H215121   3.622   5.897   2.521
 5082TIP3   OH215122   3.268   5.862   3.008
 5082TIP3    H115123   3.206   5.918   3.056
 5082TIP3    H215124   3.213   5.811   2.949
 5083TIP3   OH215125   3.599   5.212   1.736
 5083TIP3    H115126   3.659   5.269   1.783
 5083TIP3    H215127   3.629   5.215   1.645
 5084TIP3   OH215128   3.019   5.408   3.158
 5084TIP3    H115129   3.023   5.502   3.173
 5084TIP3    H215130   2.926   5.389   3.150
 5085TIP3   OH215131   3.344   5.884   1.990
 5085TIP3    H115132   3.426   5.931   1.999
 5085TIP3    H215133   3.286   5.944   1.943
 5086TIP3   OH215134   3.054   6.018   3.093
 5086TIP3    H115135   3.034   6.032   3.000
 5086TIP3    H215136   2.968   6.010   3.134
 5087TIP3   OH215137   4.101   4.435   1.786
 5087TIP3    H115138   4.031   4.461   1.846
 5087TIP3    H215139   4.114   4.511   1.730
 5088TIP3   OH215140   2.869   5.169   2.111
 5088TIP3    H115141   2.790   5.216   2.083
 5088TIP3    H215142   2.838   5.080   2.129
 5089TIP3   OH215143   3.935   5.814   1.356
 5089TIP3    H115144   3.927   5.907   1.334
 5089TIP3    H215145   4.024   5.791   1.331
 5090TIP3   OH215146   2.653   5.579   3.043
 5090TIP3    H115147   2.583   5.560   2.981
 5090TIP3    H215148   2.687   5.494   3.069
 5091TIP3   OH215149   2.560   5.749   2.684
 5091TIP3    H115150   2.646   5.728   2.646
 5091TIP3    H215151   2.578   5.821   2.744
 5092TIP3   OH215152   4.344   6.213   2.749
 5092TIP3    H115153   4.348   6.119   2.765
 5092TIP3    H215154   4.266   6.242   2.796
 5093TIP3   OH215155   3.456   6.011   2.873
 5093TIP3    H115156   3.445   6.102   2.901
 5093TIP3    H215157   3.390   5.963   2.922
 5094TIP3   OH215158   3.236   6.100   1.826
 5094TIP3    H115159   3.193   6.081   1.742
 5094TIP3    H215160   3.199   6.184   1.853
 5095TIP3   OH215161   2.668   5.965   2.205
 5095TIP3    H115162   2.712   5.955   2.289
 5095TIP3    H215163   2.619   5.883   2.194
 5096TIP3   OH215164   3.437   6.040   1.451
 5096TIP3    H115165   3.487   5.967   1.416
 5096TIP3    H215166   3.473   6.054   1.538
 5097TIP3   OH215167   3.491   6.082   1.720
 5097TIP3    H115168   3.405   6.084   1.763
 5097TIP3    H215169   3.550   6.047   1.786
 5098TIP3   OH215170   4.242   5.335   3.016
 5098TIP3    H115171   4.158   5.346   2.972
 5098TIP3    H215172   4.259   5.241   3.011
 5099TIP3   OH215173   2.849   5.770   3.009
 5099TIP3    H115174   2.902   5.756   3.087
 5099TIP3    H215175   2.778   5.706   3.016
 5100TIP3   OH215176   3.234   4.569   2.828
 5100TIP3    H115177   3.150   4.535   2.797
 5100TIP3    H215178   3.212   4.650   2.873
 5101TIP3   OH215179   3.776   4.696   3.032
 5101TIP3    H115180   3.846   4.671   3.093
 5101TIP3    H215181   3.695   4.680   3.081
 5102TIP3   OH215182   3.993   5.111   2.944
 5102TIP3    H115183   3.955   5.107   3.032
 5102TIP3    H215184   3.980   5.203   2.918
 5103TIP3   OH215185   3.675   5.177   1.471
 5103TIP3    H115186   3.631   5.188   1.386
 5103TIP3    H215187   3.758   5.224   1.461
 5104TIP3   OH215188   3.388   4.609   1.799
 5104TIP3    H115189   3.350   4.617   1.886
 5104TIP3    H215190   3.351   4.527   1.764
 5105TIP3   OH215191   3.173   5.107   2.834
 5105TIP3    H115192   3.129   5.113   2.919
 5105TIP3    H215193   3.150   5.189   2.789
 5106TIP3   OH215194   3.053   4.984   2.356
 5106TIP3    H115195   2.964   4.961   2.382
 5106TIP3    H215196   3.061   4.951   2.266
 5107TIP3   OH215197   3.529   5.056   2.083
 5107TIP3    H115198   3.483   5.129   2.043
 5107TIP3    H215199   3.588   5.024   2.015
 5108TIP3   OH215200   3.720   5.320   3.155
 5108TIP3    H115201   3.694   5.253   3.218
 5108TIP3    H215202   3.812   5.338   3.175
 5109TIP3   OH215203   3.698   5.070   2.305
 5109TIP3    H115204   3.629   5.090   2.242
 5109TIP3    H215205   3.746   4.997   2.266
 5110TIP3   OH215206   3.014   5.120   3.058
 5110TIP3    H115207   3.029   5.183   3.128
 5110TIP3    H215208   2.996   5.038   3.103
 5111TIP3   OH215209   3.054   4.591   1.775
 5111TIP3    H115210   3.044   4.595   1.870
 5111TIP3    H215211   2.977   4.635   1.740
 5112TIP3   OH215212   2.610   4.634   2.635
 5112TIP3    H115213   2.676   4.673   2.692
 5112TIP3    H215214   2.655   4.616   2.553
 5113TIP3   OH215215   2.501   4.616   2.138
 5113TIP3    H115216   2.545   4.652   2.061
 5113TIP3    H215217   2.440   4.684   2.166
 5114TIP3   OH215218   3.748   5.326   2.733
 5114TIP3    H115219   3.771   5.259   2.668
 5114TIP3    H215220   3.703   5.278   2.802
 5115TIP3   OH215221   3.418   4.772   2.407
 5115TIP3    H115222   3.339   4.771   2.462
 5115TIP3    H215223   3.490   4.761   2.469
 5116TIP3   OH215224   2.814   4.861   2.416
 5116TIP3    H115225   2.726   4.866   2.378
 5116TIP3    H215226   2.843   4.772   2.400
 5117TIP3   OH215227   3.064   4.860   2.111
 5117TIP3    H115228   3.159   4.870   2.102
 5117TIP3    H215229   3.029   4.877   2.023
 5118TIP3   OH215230   3.853   4.860   2.613
 5118TIP3    H115231   3.837   4.876   2.706
 5118TIP3    H215232   3.785   4.798   2.587
 5119TIP3   OH215233   2.956   4.882   1.860
 5119TIP3    H115234   2.894   4.832   1.807
 5119TIP3    H215235   3.009   4.929   1.796
 5120TIP3   OH215236   4.064   6.565   2.840
 5120TIP3    H115237   4.059   6.582   2.746
 5120TIP3    H215238   4.144   6.609   2.869
 5121TIP3   OH215239   3.001   5.679   3.242
 5121TIP3    H115240   3.082   5.697   3.289
 5121TIP3    H215241   2.932   5.687   3.308
 5122TIP3   OH215242   3.463   5.147   2.514
 5122TIP3    H115243   3.530   5.098   2.466
 5122TIP3    H215244   3.461   5.107   2.601
 5123TIP3   OH215245   2.951   4.613   2.400
 5123TIP3    H115246   2.921   4.540   2.454
 5123TIP3    H215247   2.972   4.574   2.315
 5124TIP3   OH215248   3.439   5.050   2.777
 5124TIP3    H115249   3.352   5.082   2.802
 5124TIP3    H215250   3.500   5.101   2.831
 5125TIP3   OH215251   3.169   5.391   1.891
 5125TIP3    H115252   3.094   5.339   1.865
 5125TIP3    H215253   3.142   5.436   1.971
 5126TIP3   OH215254   4.063   5.656   2.497
 5126TIP3    H115255   4.101   5.705   2.423
 5126TIP3    H215256   3.985   5.615   2.461
 5127TIP3   OH215257   3.639   4.716   1.801
 5127TIP3    H115258   3.546   4.694   1.799
 5127TIP3    H215259   3.641   4.811   1.813
 5128TIP3   OH215260   3.582   5.741   2.916
 5128TIP3    H115261   3.637   5.728   2.992
 5128TIP3    H215262   3.547   5.829   2.925
 5129TIP3   OH215263   3.695   4.982   1.869
 5129TIP3    H115264   3.790   4.988   1.882
 5129TIP3    H215265   3.673   5.060   1.818
 5130TIP3   OH215266   2.858   5.412   2.536
 5130TIP3    H115267   2.897   5.393   2.450
 5130TIP3    H215268   2.924   5.383   2.599
 5131TIP3   OH215269   3.324   5.555   1.736
 5131TIP3    H115270   3.275   5.637   1.732
 5131TIP3    H215271   3.268   5.497   1.789
 5132TIP3   OH215272   2.743   5.347   3.177
 5132TIP3    H115273   2.747   5.320   3.269
 5132TIP3    H215274   2.667   5.300   3.142
 5133TIP3   OH215275   3.489   5.478   3.196
 5133TIP3    H115276   3.420   5.417   3.169
 5133TIP3    H215277   3.570   5.435   3.167
 5134TIP3   OH215278   3.726   6.030   2.795
 5134TIP3    H115279   3.631   6.020   2.801
 5134TIP3    H215280   3.752   6.065   2.880
 5135TIP3   OH215281   4.102   5.078   1.688
 5135TIP3    H115282   4.046   5.035   1.623
 5135TIP3    H215283   4.112   5.167   1.655
 5136TIP3   OH215284   4.359   5.929   2.772
 5136TIP3    H115285   4.265   5.919   2.759
 5136TIP3    H215286   4.398   5.907   2.687
 5137TIP3   OH215287   3.849   5.886   1.619
 5137TIP3    H115288   3.824   5.816   1.679
 5137TIP3    H215289   3.871   5.842   1.537
 5138TIP3   OH215290   3.834   5.521   2.392
 5138TIP3    H115291   3.745   5.500   2.419
 5138TIP3    H215292   3.868   5.440   2.355
 5139TIP3   OH215293   2.990   5.758   2.211
 5139TIP3    H115294   2.990   5.834   2.153
 5139TIP3    H215295   2.898   5.745   2.234
 5140TIP3   OH215296   2.546   5.040   1.922
 5140TIP3    H115297   2.589   5.122   1.945
 5140TIP3    H215298   2.465   5.040   1.973
 5141TIP3   OH215299   3.065   5.513   2.108
 5141TIP3    H115300   3.054   5.602   2.141
 5141TIP3    H215301   3.042   5.457   2.182
 5142TIP3   OH215302   3.274   6.078   2.664
 5142TIP3    H115303   3.308   6.153   2.614
 5142TIP3    H215304   3.348   6.046   2.714
 5143TIP3   OH215305   2.904   5.979   2.061
 5143TIP3    H115306   2.817   5.988   2.099
 5143TIP3    H215307   2.941   6.067   2.066
 5144TIP3   OH215308   3.618   5.749   2.640
 5144TIP3    H115309   3.603   5.745   2.734
 5144TIP3    H215310   3.702   5.705   2.627
 5145TIP3   OH215311   3.619   5.622   1.505
 5145TIP3    H115312   3.671   5.592   1.580
 5145TIP3    H215313   3.536   5.576   1.513
 5146TIP3   OH215314   3.878   6.238   2.677
 5146TIP3    H115315   3.809   6.175   2.698
 5146TIP3    H215316   3.842   6.291   2.606
 5147TIP3   OH215317   3.929   6.086   1.316
 5147TIP3    H115318   3.965   6.154   1.259
 5147TIP3    H215319   3.855   6.128   1.359
 5148TIP3   OH215320   2.959   4.867   3.174
 5148TIP3    H115321   2.864   4.876   3.178
 5148TIP3    H215322   2.982   4.816   3.251
 5149TIP3   OH215323   3.796   5.529   1.693
 5149TIP3    H115324   3.781   5.477   1.772
 5149TIP3    H215325   3.891   5.541   1.690
 5150TIP3   OH215326   2.689   5.970   2.834
 5150TIP3    H115327   2.744   5.913   2.887
 5150TIP3    H215328   2.702   6.058   2.871
 5151TIP3   OH215329   2.969   5.584   1.524
 5151TIP3    H115330   2.979   5.492   1.498
 5151TIP3    H215331   2.956   5.580   1.619
 5152TIP3   OH215332   2.909   5.601   1.797
 5152TIP3    H115333   2.971   5.577   1.866
 5152TIP3    H215334   2.907   5.697   1.799
 5153TIP3   OH215335   2.642   5.291   2.005
 5153TIP3    H115336   2.579   5.341   2.056
 5153TIP3    H215337   2.663   5.347   1.931
 5154TIP3   OH215338   3.804   4.921   2.876
 5154TIP3    H115339   3.880   4.969   2.908
 5154TIP3    H215340   3.796   4.846   2.935
 5155TIP3   OH215341   3.705   4.666   2.068
 5155TIP3    H115342   3.682   4.686   1.977
 5155TIP3    H215343   3.747   4.745   2.100
 5156TIP3   OH215344   3.176   5.782   1.727
 5156TIP3    H115345   3.093   5.808   1.766
 5156TIP3    H215346   3.203   5.857   1.674
 5157TIP3   OH215347   3.343   4.866   2.156
 5157TIP3    H115348   3.404   4.934   2.130
 5157TIP3    H215349   3.367   4.846   2.247
 5158TIP3   OH215350   3.645   5.161   2.929
 5158TIP3    H115351   3.670   5.204   3.011
 5158TIP3    H215352   3.695   5.079   2.929
 5159TIP3   OH215353   3.514   4.565   2.242
 5159TIP3    H115354   3.490   4.642   2.293
 5159TIP3    H215355   3.585   4.594   2.184
 5160TIP3   OH215356   2.929   5.874   1.809
 5160TIP3    H115357   2.911   5.946   1.748
 5160TIP3    H215358   2.919   5.913   1.896
 5161TIP3   OH215359   3.020   4.585   2.054
 5161TIP3    H115360   3.008   4.676   2.081
 5161TIP3    H215361   3.115   4.570   2.061
 5162TIP3   OH215362   4.258   5.061   2.926
 5162TIP3    H115363   4.164   5.068   2.937
 5162TIP3    H215364   4.270   5.005   2.849
 5163TIP3   OH215365   3.925   5.262   2.306
 5163TIP3    H115366   3.847   5.207   2.318
 5163TIP3    H215367   3.991   5.223   2.363
 5164TIP3   OH215368   2.668   5.465   1.787
 5164TIP3    H115369   2.739   5.528   1.796
 5164TIP3    H215370   2.699   5.403   1.721
 5165TIP3   OH215371   2.571   4.762   1.917
 5165TIP3    H115372   2.583   4.856   1.928
 5165TIP3    H215373   2.521   4.753   1.836
 5166TIP3   OH215374   3.906   6.236   2.246
 5166TIP3    H115375   3.866   6.290   2.177
 5166TIP3    H215376   4.000   6.247   2.234
 5167TIP3   OH215377   2.971   4.486   2.791
 5167TIP3    H115378   2.936   4.454   2.708
 5167TIP3    H215379   2.963   4.411   2.850
 5168TIP3   OH215380   2.492   5.744   2.179
 5168TIP3    H115381   2.448   5.778   2.257
 5168TIP3    H215382   2.446   5.786   2.106
 5169TIP3   OH215383   2.715   6.284   3.247
 5169TIP3    H115384   2.792   6.298   3.302
 5169TIP3    H215385   2.716   6.191   3.225
 5170TIP3   OH215386   3.160   6.182   3.289
 5170TIP3    H115387   3.253   6.160   3.299
 5170TIP3    H215388   3.130   6.127   3.216
 5171TIP3   OH215389   3.120   5.787   1.411
 5171TIP3    H115390   3.074   5.716   1.457
 5171TIP3    H215391   3.195   5.744   1.370
 5172TIP3   OH215392   3.793   6.123   3.043
 5172TIP3    H115393   3.807   6.055   3.108
 5172TIP3    H215394   3.861   6.188   3.060
 5173TIP3   OH215395   3.563   5.828   1.333
 5173TIP3    H115396   3.599   5.764   1.395
 5173TIP3    H215397   3.621   5.822   1.257
 5174TIP3   OH215398   2.797   5.682   3.434
 5174TIP3    H115399   2.820   5.590   3.447
 5174TIP3    H215400   2.709   5.679   3.396
 5175TIP3   OH215401   2.787   5.276   1.630
 5175TIP3    H115402   2.838   5.252   1.708
 5175TIP3    H215403   2.853   5.291   1.562
 5176TIP3   OH215404   3.419   5.753   3.214
 5176TIP3    H115405   3.378   5.776   3.130
 5176TIP3    H215406   3.457   5.667   3.199
 5177TIP3   OH215407   3.368   5.498   1.472
 5177TIP3    H115408   3.343   5.509   1.564
 5177TIP3    H215409   3.345   5.408   1.451
 5178TIP3   OH215410   3.890   5.803   2.824
 5178TIP3    H115411   3.969   5.830   2.777
 5178TIP3    H215412   3.828   5.875   2.811
 5179TIP3   OH215413   2.912   5.429   3.444
 5179TIP3    H115414   2.988   5.407   3.389
 5179TIP3    H215415   2.949   5.443   3.531
 5180TIP3   OH215416   2.957   5.219   1.844
 5180TIP3    H115417   2.938   5.189   1.933
 5180TIP3    H215418   3.007   5.147   1.805
 5181TIP3   OH215419   3.279   5.305   3.103
 5181TIP3    H115420   3.194   5.346   3.115
 5181TIP3    H215421   3.309   5.334   3.017
 5182TIP3   OH215422   3.104   5.039   1.691
 5182TIP3    H115423   3.074   5.043   1.600
 5182TIP3    H215424   3.199   5.050   1.685
 5183TIP3   OH215425   3.773   5.679   3.175
 5183TIP3    H115426   3.845   5.645   3.122
 5183TIP3    H215427   3.772   5.624   3.253
 5184TIP3   OH215428   3.892   5.320   1.376
 5184TIP3    H115429   3.881   5.282   1.289
 5184TIP3    H215430   3.870   5.413   1.365
 5185TIP3   OH215431   3.381   5.072   3.210
 5185TIP3    H115432   3.385   5.002   3.144
 5185TIP3    H215433   3.348   5.148   3.162
 5186TIP3   OH215434   3.390   4.876   3.005
 5186TIP3    H115435   3.418   4.912   2.921
 5186TIP3    H215436   3.300   4.847   2.990
 5187TIP3   OH215437   3.389   5.404   2.876
 5187TIP3    H115438   3.476   5.442   2.868
 5187TIP3    H215439   3.333   5.462   2.824
 5188TIP3   OH215440   3.987   5.365   3.253
 5188TIP3    H115441   4.039   5.284   3.259
 5188TIP3    H215442   4.052   5.435   3.250
 5189TIP3   OH215443   4.016   5.628   2.990
 5189TIP3    H115444   3.962   5.689   2.939
 5189TIP3    H215445   4.105   5.644   2.960
 5190TIP3   OH215446   3.267   5.151   3.454
 5190TIP3    H115447   3.198   5.089   3.474
 5190TIP3    H215448   3.296   5.128   3.366
 5191TIP3   OH215449   3.511   4.646   3.112
 5191TIP3    H115450   3.471   4.726   3.078
 5191TIP3    H215451   3.445   4.578   3.099
 5192TIP3   OH215452   3.637   5.111   3.314
 5192TIP3    H115453   3.628   5.097   3.408
 5192TIP3    H215454   3.551   5.090   3.278
 5193TIP3   OH215455   3.886   5.067   3.187
 5193TIP3    H115456   3.807   5.066   3.242
 5193TIP3    H215457   3.957   5.044   3.247
 5194TIP3   OH215458   4.121   5.030   3.337
 5194TIP3    H115459   4.134   4.935   3.347
 5194TIP3    H215460   4.116   5.063   3.427
 5195TIP3   OH215461   3.097   4.934   3.517
 5195TIP3    H115462   3.104   4.846   3.480
 5195TIP3    H215463   3.136   4.928   3.604
 5196TIP3   OH215464   3.576   4.618   3.378
 5196TIP3    H115465   3.646   4.554   3.373
 5196TIP3    H215466   3.547   4.630   3.287
 5197TIP3   OH215467   3.675   4.830   3.524
 5197TIP3    H115468   3.643   4.758   3.470
 5197TIP3    H215469   3.602   4.893   3.526
 5198TIP3   OH215470   2.930   6.085   1.628
 5198TIP3    H115471   3.019   6.063   1.600
 5198TIP3    H215472   2.892   6.129   1.552
 5199TIP3   OH215473   2.394   5.469   1.802
 5199TIP3    H115474   2.489   5.478   1.799
 5199TIP3    H215475   2.377   5.383   1.762
 5200TIP3   OH215476   2.284   6.047   2.276
 5200TIP3    H115477   2.225   5.991   2.226
 5200TIP3    H215478   2.332   5.986   2.332
 5201TIP3   OH215479   2.437   5.879   2.437
 5201TIP3    H115480   2.433   5.807   2.501
 5201TIP3    H215481   2.488   5.947   2.481
 5202TIP3   OH215482   4.178   6.283   2.243
 5202TIP3    H115483   4.197   6.312   2.332
 5202TIP3    H215484   4.233   6.339   2.187
 5203TIP3   OH215485   4.193   6.320   2.524
 5203TIP3    H115486   4.146   6.237   2.518
 5203TIP3    H215487   4.262   6.304   2.588
 5204TIP3   OH215488   4.251   6.016   3.097
 5204TIP3    H115489   4.178   6.028   3.157
 5204TIP3    H215490   4.298   6.099   3.099
 5205TIP3   OH215491   4.076   5.537   1.701
 5205TIP3    H115492   4.132   5.609   1.671
 5205TIP3    H215493   4.124   5.499   1.776
 5206TIP3   OH215494   4.210   5.393   1.902
 5206TIP3    H115495   4.142   5.359   1.960
 5206TIP3    H215496   4.274   5.432   1.960
 5207TIP3   OH215497   4.247   5.795   2.338
 5207TIP3    H115498   4.300   5.727   2.296
 5207TIP3    H215499   4.250   5.869   2.278
 5208TIP3   OH215500   4.050   6.082   2.524
 5208TIP3    H115501   3.985   6.127   2.577
 5208TIP3    H215502   4.000   6.042   2.453
 5209TIP3   OH215503   4.108   5.313   1.546
 5209TIP3    H115504   4.034   5.311   1.486
 5209TIP3    H215505   4.094   5.392   1.598
 5210TIP3   OH215506   3.958   4.966   1.484
 5210TIP3    H115507   3.912   4.997   1.406
 5210TIP3    H215508   3.949   4.871   1.480
 5211TIP3   OH215509   4.001   5.259   2.038
 5211TIP3    H115510   4.004   5.164   2.025
 5211TIP3    H215511   3.980   5.269   2.131
 5212TIP3   OH215512   2.613   5.317   2.818
 5212TIP3    H115513   2.604   5.284   2.728
 5212TIP3    H215514   2.707   5.310   2.836
 5213TIP3   OH215515   4.276   5.673   2.902
 5213TIP3    H115516   4.342   5.605   2.884
 5213TIP3    H215517   4.302   5.746   2.846
 5214TIP3   OH215518   4.451   5.459   2.890
 5214TIP3    H115519   4.378   5.417   2.936
 5214TIP3    H215520   4.527   5.405   2.911
 5215TIP3   OH215521   3.932   4.696   1.470
 5215TIP3    H115522   4.001   4.651   1.519
 5215TIP3    H215523   3.852   4.650   1.495
 5216TIP3   OH215524   3.986   4.979   1.927
 5216TIP3    H115525   4.033   4.896   1.936
 5216TIP3    H215526   4.025   5.020   1.850
 5217TIP3   OH215527   4.139   5.140   2.449
 5217TIP3    H115528   4.219   5.158   2.400
 5217TIP3    H215529   4.154   5.181   2.534
 5218TIP3   OH215530   4.214   5.289   2.677
 5218TIP3    H115531   4.144   5.317   2.736
 5218TIP3    H215532   4.245   5.369   2.636
 5219TIP3   OH215533   2.834   4.991   3.451
 5219TIP3    H115534   2.927   4.989   3.471
 5219TIP3    H215535   2.799   4.910   3.489
 5220TIP3   OH215536   4.657   4.896   3.211
 5220TIP3    H115537   4.730   4.840   3.184
 5220TIP3    H215538   4.632   4.943   3.132
 5221TIP3   OH215539   4.106   4.728   1.971
 5221TIP3    H115540   4.154   4.715   2.053
 5221TIP3    H215541   4.043   4.656   1.969
 5222TIP3   OH215542   2.813   4.713   2.807
 5222TIP3    H115543   2.865   4.633   2.814
 5222TIP3    H215544   2.876   4.782   2.787
 5223TIP3   OH215545   2.588   4.969   2.863
 5223TIP3    H115546   2.639   4.962   2.782
 5223TIP3    H215547   2.624   5.047   2.907
 5224TIP3   OH215548   4.527   5.008   2.998
 5224TIP3    H115549   4.443   5.045   3.025
 5224TIP3    H215550   4.504   4.928   2.951
 5225TIP3   OH215551   4.175   4.626   1.598
 5225TIP3    H115552   4.260   4.583   1.594
 5225TIP3    H215553   4.195   4.719   1.606
 5226TIP3   OH215554   2.572   4.468   2.357
 5226TIP3    H115555   2.489   4.465   2.404
 5226TIP3    H215556   2.557   4.529   2.284
 5227TIP3   OH215557   3.730   6.207   1.883
 5227TIP3    H115558   3.786   6.196   1.806
 5227TIP3    H215559   3.773   6.275   1.935
 5228TIP3   OH215560   2.806   4.531   3.191
 5228TIP3    H115561   2.755   4.527   3.272
 5228TIP3    H215562   2.750   4.582   3.132
 5229TIP3   OH215563   2.819   6.012   3.249
 5229TIP3    H115564   2.729   5.980   3.249
 5229TIP3    H215565   2.850   5.996   3.339
 5230TIP3   OH215566   3.045   6.046   2.812
 5230TIP3    H115567   2.996   6.122   2.781
 5230TIP3    H215568   3.130   6.054   2.769
 5231TIP3   OH215569   3.437   6.278   2.948
 5231TIP3    H115570   3.476   6.264   3.034
 5231TIP3    H215571   3.501   6.332   2.901
 5232TIP3   OH215572   3.633   6.430   2.826
 5232TIP3    H115573   3.697   6.377   2.779
 5232TIP3    H215574   3.686   6.486   2.884
 5233TIP3   OH215575   4.439   4.759   2.903
 5233TIP3    H115576   4.355   4.757   2.856
 5233TIP3    H215577   4.469   4.668   2.900
 5234TIP3   OH215578   2.701   6.277   2.865
 5234TIP3    H115579   2.610   6.302   2.848
 5234TIP3    H215580   2.732   6.342   2.928
 5235TIP3   OH215581   2.932   6.277   2.712
 5235TIP3    H115582   2.848   6.278   2.757
 5235TIP3    H215583   2.911   6.299   2.621
 5236TIP3   OH215584   3.345   6.293   2.506
 5236TIP3    H115585   3.274   6.307   2.443
 5236TIP3    H215586   3.357   6.379   2.546
 5237TIP3   OH215587   3.608   6.225   2.551
 5237TIP3    H115588   3.517   6.248   2.531
 5237TIP3    H215589   3.660   6.292   2.506
 5238TIP3   OH215590   3.808   6.392   2.450
 5238TIP3    H115591   3.814   6.481   2.414
 5238TIP3    H215592   3.840   6.336   2.380
 5239TIP3   OH215593   2.609   6.058   2.582
 5239TIP3    H115594   2.637   6.035   2.671
 5239TIP3    H215595   2.679   6.028   2.525
 5240TIP3   OH215596   2.813   5.946   2.441
 5240TIP3    H115597   2.826   5.860   2.481
 5240TIP3    H215598   2.900   5.987   2.444
 5241TIP3   OH215599   3.083   6.029   2.465
 5241TIP3    H115600   3.102   5.936   2.449
 5241TIP3    H215601   3.141   6.054   2.537
 5242TIP3   OH215602   3.640   4.676   2.550
 5242TIP3    H115603   3.601   4.607   2.603
 5242TIP3    H215604   3.709   4.633   2.500
 5243TIP3   OH215605   4.151   4.595   2.422
 5243TIP3    H115606   4.188   4.648   2.351
 5243TIP3    H215607   4.061   4.628   2.431
 5244TIP3   OH215608   4.270   4.676   2.186
 5244TIP3    H115609   4.337   4.611   2.163
 5244TIP3    H215610   4.314   4.760   2.176
 5245TIP3   OH215611   2.870   4.395   2.548
 5245TIP3    H115612   2.785   4.353   2.557
 5245TIP3    H215613   2.933   4.322   2.546
 5246TIP3   OH215614   2.670   4.270   2.183
 5246TIP3    H115615   2.710   4.321   2.113
 5246TIP3    H215616   2.644   4.335   2.248
 5247TIP3   OH215617   3.379   4.417   2.441
 5247TIP3    H115618   3.424   4.470   2.376
 5247TIP3    H215619   3.415   4.447   2.525
 5248TIP3   OH215620   3.855   4.558   2.422
 5248TIP3    H115621   3.870   4.522   2.334
 5248TIP3    H215622   3.866   4.484   2.481
 5249TIP3   OH215623   3.922   4.514   1.980
 5249TIP3    H115624   3.845   4.563   2.007
 5249TIP3    H215625   3.911   4.428   2.022
 5250TIP3   OH215626   2.368   5.865   1.965
 5250TIP3    H115627   2.287   5.833   1.925
 5250TIP3    H215628   2.377   5.955   1.933
 5251TIP3   OH215629   2.810   4.412   1.967
 5251TIP3    H115630   2.858   4.350   1.912
 5251TIP3    H215631   2.877   4.470   2.003
 5252TIP3   OH215632   3.296   4.613   2.061
 5252TIP3    H115633   3.356   4.561   2.115
 5252TIP3    H215634   3.311   4.704   2.090
 5253TIP3   OH215635   3.184   6.008   1.557
 5253TIP3    H115636   3.267   6.036   1.518
 5253TIP3    H215637   3.153   5.938   1.499
 5254TIP3   OH215638   3.882   6.155   1.656
 5254TIP3    H115639   3.876   6.060   1.648
 5254TIP3    H215640   3.841   6.189   1.576
 5255TIP3   OH215641   3.115   4.665   3.427
 5255TIP3    H115642   3.081   4.599   3.488
 5255TIP3    H215643   3.207   4.674   3.451
 5256TIP3   OH215644   3.361   4.671   3.552
 5256TIP3    H115645   3.438   4.649   3.500
 5256TIP3    H215646   3.356   4.602   3.618
 5257TIP3   OH215647   2.497   5.853   1.612
 5257TIP3    H115648   2.501   5.865   1.707
 5257TIP3    H215649   2.576   5.804   1.591
 5258TIP3   OH215650   4.186   4.757   3.347
 5258TIP3    H115651   4.209   4.722   3.433
 5258TIP3    H215652   4.268   4.756   3.298
 5259TIP3   OH215653   4.097   6.291   2.847
 5259TIP3    H115654   4.023   6.262   2.794
 5259TIP3    H215655   4.086   6.386   2.854
 5260TIP3   OH215656   5.376   5.679   1.586
 5260TIP3    H115657   5.343   5.765   1.558
 5260TIP3    H215658   5.305   5.618   1.564
 5261TIP3   OH215659   5.377   5.671   2.008
 5261TIP3    H115660   5.431   5.655   2.085
 5261TIP3    H215661   5.332   5.588   1.992
 5262TIP3   OH215662   4.673   5.525   2.350
 5262TIP3    H115663   4.714   5.477   2.422
 5262TIP3    H215664   4.746   5.553   2.295
 5263TIP3   OH215665   5.647   5.976   1.683
 5263TIP3    H115666   5.635   5.909   1.750
 5263TIP3    H215667   5.666   6.056   1.732
 5264TIP3   OH215668   4.668   5.953   2.025
 5264TIP3    H115669   4.649   5.859   2.034
 5264TIP3    H215670   4.763   5.958   2.020
 5265TIP3   OH215671   4.348   5.159   1.822
 5265TIP3    H115672   4.316   5.246   1.847
 5265TIP3    H215673   4.272   5.118   1.781
 5266TIP3   OH215674   4.434   5.481   2.045
 5266TIP3    H115675   4.485   5.404   2.071
 5266TIP3    H215676   4.500   5.547   2.023
 5267TIP3   OH215677   5.307   6.387   1.712
 5267TIP3    H115678   5.332   6.326   1.643
 5267TIP3    H215679   5.328   6.341   1.794
 5268TIP3   OH215680   5.187   5.891   2.010
 5268TIP3    H115681   5.234   5.812   1.984
 5268TIP3    H215682   5.255   5.951   2.042
 5269TIP3   OH215683   6.230   5.212   2.030
 5269TIP3    H115684   6.231   5.304   2.059
 5269TIP3    H215685   6.261   5.215   1.939
 5270TIP3   OH215686   5.586   5.377   2.047
 5270TIP3    H115687   5.619   5.292   2.075
 5270TIP3    H215688   5.550   5.362   1.960
 5271TIP3   OH215689   4.945   5.037   2.006
 5271TIP3    H115690   4.926   5.111   1.948
 5271TIP3    H215691   4.889   4.966   1.975
 5272TIP3   OH215692   5.640   5.136   1.650
 5272TIP3    H115693   5.705   5.131   1.720
 5272TIP3    H215694   5.689   5.172   1.576
 5273TIP3   OH215695   4.569   5.255   2.136
 5273TIP3    H115696   4.653   5.239   2.179
 5273TIP3    H215697   4.575   5.205   2.054
 5274TIP3   OH215698   4.988   5.456   1.951
 5274TIP3    H115699   5.082   5.442   1.957
 5274TIP3    H215700   4.953   5.373   1.917
 5275TIP3   OH215701   6.265   5.450   2.184
 5275TIP3    H115702   6.174   5.481   2.179
 5275TIP3    H215703   6.296   5.482   2.269
 5276TIP3   OH215704   4.927   5.044   2.456
 5276TIP3    H115705   4.878   5.082   2.383
 5276TIP3    H215706   4.873   5.061   2.533
 5277TIP3   OH215707   5.269   5.895   1.447
 5277TIP3    H115708   5.231   5.868   1.364
 5277TIP3    H215709   5.216   5.969   1.476
 5278TIP3   OH215710   5.014   5.820   2.215
 5278TIP3    H115711   4.963   5.893   2.249
 5278TIP3    H215712   5.065   5.857   2.143
 5279TIP3   OH215713   5.800   5.161   1.870
 5279TIP3    H115714   5.757   5.141   1.953
 5279TIP3    H215715   5.856   5.237   1.889
 5280TIP3   OH215716   4.817   5.152   2.226
 5280TIP3    H115717   4.872   5.228   2.248
 5280TIP3    H215718   4.864   5.109   2.155
 5281TIP3   OH215719   4.864   6.025   2.324
 5281TIP3    H115720   4.853   6.116   2.295
 5281TIP3    H215721   4.787   6.007   2.377
 5282TIP3   OH215722   4.243   5.728   1.583
 5282TIP3    H115723   4.210   5.749   1.496
 5282TIP3    H215724   4.266   5.812   1.621
 5283TIP3   OH215725   5.676   6.218   1.829
 5283TIP3    H115726   5.586   6.216   1.862
 5283TIP3    H215727   5.682   6.301   1.781
 5284TIP3   OH215728   6.028   5.101   2.194
 5284TIP3    H115729   5.944   5.116   2.151
 5284TIP3    H215730   6.093   5.127   2.129
 5285TIP3   OH215731   5.269   4.733   2.192
 5285TIP3    H115732   5.262   4.641   2.218
 5285TIP3    H215733   5.191   4.775   2.230
 5286TIP3   OH215734   5.387   6.237   1.492
 5286TIP3    H115735   5.445   6.163   1.476
 5286TIP3    H215736   5.440   6.314   1.471
 5287TIP3   OH215737   5.532   6.010   1.435
 5287TIP3    H115738   5.458   5.950   1.438
 5287TIP3    H215739   5.582   5.991   1.515
 5288TIP3   OH215740   5.929   6.096   2.174
 5288TIP3    H115741   5.904   6.026   2.113
 5288TIP3    H215742   5.911   6.177   2.125
 5289TIP3   OH215743   5.196   5.513   1.451
 5289TIP3    H115744   5.116   5.559   1.424
 5289TIP3    H215745   5.248   5.508   1.371
 5290TIP3   OH215746   5.170   5.318   1.133
 5290TIP3    H115747   5.234   5.367   1.185
 5290TIP3    H215748   5.221   5.251   1.089
 5291TIP3   OH215749   6.091   5.779   2.030
 5291TIP3    H115750   6.006   5.824   2.026
 5291TIP3    H215751   6.128   5.790   1.943
 5292TIP3   OH215752   5.566   5.609   1.401
 5292TIP3    H115753   5.513   5.638   1.475
 5292TIP3    H215754   5.649   5.582   1.439
 5293TIP3   OH215755   5.792   5.635   2.345
 5293TIP3    H115756   5.786   5.718   2.392
 5293TIP3    H215757   5.711   5.630   2.294
 5294TIP3   OH215758   4.794   5.589   1.793
 5294TIP3    H115759   4.760   5.527   1.729
 5294TIP3    H215760   4.867   5.543   1.834
 5295TIP3   OH215761   4.933   6.005   1.940
 5295TIP3    H115762   4.911   5.994   1.847
 5295TIP3    H215763   5.021   5.969   1.948
 5296TIP3   OH215764   4.883   5.583   2.173
 5296TIP3    H115765   4.923   5.547   2.094
 5296TIP3    H215766   4.930   5.666   2.188
 5297TIP3   OH215767   5.428   6.223   1.945
 5297TIP3    H115768   5.421   6.303   1.997
 5297TIP3    H215769   5.415   6.152   2.007
 5298TIP3   OH215770   5.061   6.118   2.498
 5298TIP3    H115771   5.000   6.174   2.545
 5298TIP3    H215772   5.007   6.068   2.437
 5299TIP3   OH215773   5.382   5.468   1.252
 5299TIP3    H115774   5.447   5.526   1.294
 5299TIP3    H215775   5.406   5.468   1.160
 5300TIP3   OH215776   4.816   5.663   2.644
 5300TIP3    H115777   4.821   5.757   2.660
 5300TIP3    H215778   4.723   5.645   2.636
 5301TIP3   OH215779   5.130   6.130   1.497
 5301TIP3    H115780   5.213   6.177   1.509
 5301TIP3    H215781   5.072   6.194   1.457
 5302TIP3   OH215782   4.849   6.274   2.584
 5302TIP3    H115783   4.828   6.289   2.492
 5302TIP3    H215784   4.764   6.264   2.627
 5303TIP3   OH215785   5.899   4.690   1.285
 5303TIP3    H115786   5.824   4.716   1.338
 5303TIP3    H215787   5.914   4.763   1.225
 5304TIP3   OH215788   4.669   5.428   1.595
 5304TIP3    H115789   4.592   5.478   1.568
 5304TIP3    H215790   4.638   5.339   1.608
 5305TIP3   OH215791   5.704   6.063   0.943
 5305TIP3    H115792   5.700   6.156   0.921
 5305TIP3    H215793   5.793   6.038   0.921
 5306TIP3   OH215794   4.449   5.838   2.532
 5306TIP3    H115795   4.379   5.819   2.469
 5306TIP3    H215796   4.483   5.752   2.556
 5307TIP3   OH215797   4.293   6.030   2.189
 5307TIP3    H115798   4.384   6.055   2.205
 5307TIP3    H215799   4.242   6.107   2.217
 5308TIP3   OH215800   6.151   6.498   2.238
 5308TIP3    H115801   6.154   6.403   2.246
 5308TIP3    H215802   6.070   6.523   2.283
 5309TIP3   OH215803   5.252   6.264   2.363
 5309TIP3    H115804   5.243   6.356   2.390
 5309TIP3    H215805   5.184   6.218   2.412
 5310TIP3   OH215806   5.004   6.343   1.342
 5310TIP3    H115807   4.956   6.321   1.262
 5310TIP3    H215808   4.975   6.431   1.364
 5311TIP3   OH215809   4.462   6.218   1.694
 5311TIP3    H115810   4.510   6.210   1.776
 5311TIP3    H215811   4.416   6.135   1.684
 5312TIP3   OH215812   5.196   6.319   0.995
 5312TIP3    H115813   5.226   6.234   0.962
 5312TIP3    H215814   5.227   6.322   1.085
 5313TIP3   OH215815   5.262   6.320   1.257
 5313TIP3    H115816   5.174   6.325   1.296
 5313TIP3    H215817   5.316   6.279   1.325
 5314TIP3   OH215818   6.042   5.580   2.493
 5314TIP3    H115819   5.958   5.595   2.451
 5314TIP3    H215820   6.057   5.486   2.482
 5315TIP3   OH215821   4.649   6.025   2.497
 5315TIP3    H115822   4.700   6.011   2.577
 5315TIP3    H215823   4.576   5.964   2.505
 5316TIP3   OH215824   5.029   4.825   2.316
 5316TIP3    H115825   4.945   4.793   2.284
 5316TIP3    H215826   5.008   4.907   2.361
 5317TIP3   OH215827   5.570   4.953   2.516
 5317TIP3    H115828   5.639   4.929   2.578
 5317TIP3    H215829   5.488   4.938   2.564
 5318TIP3   OH215830   5.799   5.369   2.436
 5318TIP3    H115831   5.758   5.364   2.522
 5318TIP3    H215832   5.781   5.458   2.405
 5319TIP3   OH215833   5.441   5.427   0.993
 5319TIP3    H115834   5.396   5.439   0.909
 5319TIP3    H215835   5.529   5.462   0.979
 5320TIP3   OH215836   5.176   4.873   1.283
 5320TIP3    H115837   5.141   4.880   1.371
 5320TIP3    H215838   5.144   4.789   1.250
 5321TIP3   OH215839   4.969   5.364   2.321
 5321TIP3    H115840   4.926   5.371   2.406
 5321TIP3    H215841   4.947   5.445   2.276
 5322TIP3   OH215842   4.849   5.238   1.846
 5322TIP3    H115843   4.759   5.216   1.871
 5322TIP3    H215844   4.858   5.207   1.756
 5323TIP3   OH215845   5.325   5.306   1.575
 5323TIP3    H115846   5.278   5.380   1.537
 5323TIP3    H215847   5.384   5.277   1.505
 5324TIP3   OH215848   5.515   5.576   2.641
 5324TIP3    H115849   5.489   5.509   2.704
 5324TIP3    H215850   5.606   5.595   2.661
 5325TIP3   OH215851   5.494   5.324   1.796
 5325TIP3    H115852   5.426   5.343   1.732
 5325TIP3    H215853   5.542   5.251   1.758
 5326TIP3   OH215854   4.811   5.377   2.546
 5326TIP3    H115855   4.823   5.443   2.615
 5326TIP3    H215856   4.793   5.296   2.593
 5327TIP3   OH215857   4.842   4.846   1.264
 5327TIP3    H115858   4.835   4.853   1.359
 5327TIP3    H215859   4.766   4.894   1.230
 5328TIP3   OH215860   4.413   4.896   2.126
 5328TIP3    H115861   4.473   4.933   2.192
 5328TIP3    H215862   4.453   4.919   2.042
 5329TIP3   OH215863   4.285   4.881   1.622
 5329TIP3    H115864   4.328   4.917   1.545
 5329TIP3    H215865   4.224   4.949   1.650
 5330TIP3   OH215866   5.545   5.581   2.220
 5330TIP3    H115867   5.567   5.514   2.155
 5330TIP3    H215868   5.497   5.534   2.288
 5331TIP3   OH215869   5.215   5.022   1.896
 5331TIP3    H115870   5.139   5.023   1.953
 5331TIP3    H215871   5.290   5.015   1.955
 5332TIP3   OH215872   4.608   5.113   1.905
 5332TIP3    H115873   4.522   5.118   1.863
 5332TIP3    H215874   4.640   5.025   1.885
 5333TIP3   OH215875   4.859   5.117   1.599
 5333TIP3    H115876   4.954   5.126   1.592
 5333TIP3    H215877   4.827   5.135   1.511
 5334TIP3   OH215878   5.656   5.116   2.106
 5334TIP3    H115879   5.637   5.134   2.198
 5334TIP3    H215880   5.588   5.054   2.079
 5335TIP3   OH215881   4.753   5.140   1.348
 5335TIP3    H115882   4.690   5.093   1.293
 5335TIP3    H215883   4.806   5.189   1.285
 5336TIP3   OH215884   5.850   6.840   2.327
 5336TIP3    H115885   5.819   6.892   2.253
 5336TIP3    H215886   5.936   6.876   2.348
 5337TIP3   OH215887   4.799   5.932   2.731
 5337TIP3    H115888   4.880   5.952   2.778
 5337TIP3    H215889   4.730   5.944   2.796
 5338TIP3   OH215890   5.261   5.403   2.000
 5338TIP3    H115891   5.329   5.356   1.951
 5338TIP3    H215892   5.260   5.361   2.086
 5339TIP3   OH215893   4.747   4.866   1.889
 5339TIP3    H115894   4.722   4.789   1.940
 5339TIP3    H215895   4.774   4.830   1.804
 5340TIP3   OH215896   5.234   5.304   2.264
 5340TIP3    H115897   5.148   5.337   2.287
 5340TIP3    H215898   5.295   5.356   2.316
 5341TIP3   OH215899   4.973   5.654   1.367
 5341TIP3    H115900   4.897   5.603   1.340
 5341TIP3    H215901   4.945   5.699   1.447
 5342TIP3   OH215902   5.855   5.911   1.985
 5342TIP3    H115903   5.891   5.962   1.912
 5342TIP3    H215904   5.777   5.870   1.949
 5343TIP3   OH215905   5.434   4.970   1.287
 5343TIP3    H115906   5.340   4.950   1.281
 5343TIP3    H215907   5.438   5.064   1.298
 5344TIP3   OH215908   5.375   5.997   2.401
 5344TIP3    H115909   5.430   5.989   2.479
 5344TIP3    H215910   5.339   6.085   2.406
 5345TIP3   OH215911   5.493   5.233   1.361
 5345TIP3    H115912   5.589   5.234   1.368
 5345TIP3    H215913   5.472   5.311   1.311
 5346TIP3   OH215914   4.654   5.661   2.021
 5346TIP3    H115915   4.694   5.647   1.935
 5346TIP3    H215916   4.722   5.636   2.083
 5347TIP3   OH215917   5.134   5.809   1.207
 5347TIP3    H115918   5.083   5.890   1.207
 5347TIP3    H215919   5.082   5.747   1.257
 5348TIP3   OH215920   4.540   5.603   2.662
 5348TIP3    H115921   4.544   5.579   2.754
 5348TIP3    H215922   4.464   5.556   2.628
 5349TIP3   OH215923   5.285   5.735   2.684
 5349TIP3    H115924   5.215   5.676   2.656
 5349TIP3    H215925   5.366   5.693   2.653
 5350TIP3   OH215926   5.524   6.282   2.291
 5350TIP3    H115927   5.429   6.274   2.291
 5350TIP3    H215928   5.545   6.321   2.377
 5351TIP3   OH215929   5.918   5.295   1.193
 5351TIP3    H115930   5.849   5.253   1.142
 5351TIP3    H215931   5.919   5.386   1.161
 5352TIP3   OH215932   6.167   6.221   2.250
 5352TIP3    H115933   6.077   6.190   2.257
 5352TIP3    H215934   6.199   6.183   2.169
 5353TIP3   OH215935   5.608   6.142   1.199
 5353TIP3    H115936   5.586   6.081   1.269
 5353TIP3    H215937   5.626   6.086   1.123
 5354TIP3   OH215938   5.630   5.774   1.881
 5354TIP3    H115939   5.540   5.753   1.907
 5354TIP3    H215940   5.663   5.692   1.844
 5355TIP3   OH215941   4.792   6.011   1.698
 5355TIP3    H115942   4.787   6.088   1.641
 5355TIP3    H215943   4.704   6.003   1.735
 5356TIP3   OH215944   4.349   5.299   1.412
 5356TIP3    H115945   4.392   5.382   1.434
 5356TIP3    H215946   4.267   5.301   1.461
 5357TIP3   OH215947   4.861   5.769   1.585
 5357TIP3    H115948   4.851   5.858   1.619
 5357TIP3    H215949   4.840   5.713   1.660
 5358TIP3   OH215950   5.071   6.331   2.153
 5358TIP3    H115951   5.104   6.404   2.101
 5358TIP3    H215952   5.146   6.301   2.204
 5359TIP3   OH215953   4.700   6.233   1.555
 5359TIP3    H115954   4.612   6.240   1.591
 5359TIP3    H215955   4.735   6.322   1.560
 5360TIP3   OH215956   5.415   6.005   2.126
 5360TIP3    H115957   5.400   6.001   2.220
 5360TIP3    H215958   5.498   5.961   2.113
 5361TIP3   OH215959   5.363   5.854   1.046
 5361TIP3    H115960   5.444   5.837   1.093
 5361TIP3    H215961   5.293   5.836   1.109
 5362TIP3   OH215962   5.681   6.487   2.167
 5362TIP3    H115963   5.607   6.432   2.190
 5362TIP3    H215964   5.648   6.542   2.095
 5363TIP3   OH215965   5.733   6.327   0.873
 5363TIP3    H115966   5.777   6.379   0.806
 5363TIP3    H215967   5.657   6.380   0.899
 5364TIP3   OH215968   4.756   5.122   2.664
 5364TIP3    H115969   4.661   5.131   2.669
 5364TIP3    H215970   4.780   5.072   2.742
 5365TIP3   OH215971   5.587   5.793   1.193
 5365TIP3    H115972   5.575   5.736   1.269
 5365TIP3    H215973   5.682   5.803   1.185
 5366TIP3   OH215974   4.496   6.239   2.312
 5366TIP3    H115975   4.550   6.182   2.368
 5366TIP3    H215976   4.510   6.327   2.347
 5367TIP3   OH215977   4.757   5.836   1.019
 5367TIP3    H115978   4.778   5.747   0.989
 5367TIP3    H215979   4.749   5.828   1.114
 5368TIP3   OH215980   4.708   5.842   1.293
 5368TIP3    H115981   4.768   5.816   1.362
 5368TIP3    H215982   4.706   5.938   1.298
 5369TIP3   OH215983   4.441   5.550   1.494
 5369TIP3    H115984   4.376   5.599   1.545
 5369TIP3    H215985   4.460   5.606   1.419
 5370TIP3   OH215986   5.602   5.183   2.367
 5370TIP3    H115987   5.681   5.227   2.399
 5370TIP3    H215988   5.593   5.106   2.424
 5371TIP3   OH215989   5.492   4.920   1.556
 5371TIP3    H115990   5.473   4.940   1.464
 5371TIP3    H215991   5.536   4.999   1.588
 5372TIP3   OH215992   4.974   6.025   1.227
 5372TIP3    H115993   4.892   6.044   1.273
 5372TIP3    H215994   4.989   6.101   1.171
 5373TIP3   OH215995   5.137   5.119   1.647
 5373TIP3    H115996   5.200   5.186   1.619
 5373TIP3    H215997   5.163   5.097   1.736
 5374TIP3   OH215998   5.440   5.416   2.415
 5374TIP3    H115999   5.465   5.460   2.496
 5374TIP3    H216000   5.491   5.335   2.413
 5375TIP3   OH216001   5.305   4.814   1.728
 5375TIP3    H116002   5.282   4.891   1.780
 5375TIP3    H216003   5.375   4.844   1.670
 5376TIP3   OH216004   4.724   6.112   1.312
 5376TIP3    H116005   4.693   6.176   1.248
 5376TIP3    H216006   4.716   6.156   1.397
 5377TIP3   OH216007   4.814   4.844   1.546
 5377TIP3    H116008   4.805   4.936   1.571
 5377TIP3    H216009   4.909   4.827   1.549
 5378TIP3   OH216010   6.060   5.302   2.398
 5378TIP3    H116011   5.967   5.317   2.415
 5378TIP3    H216012   6.062   5.242   2.323
 5379TIP3   OH216013   5.720   5.515   1.797
 5379TIP3    H116014   5.643   5.458   1.807
 5379TIP3    H216015   5.787   5.475   1.852
 5380TIP3   OH216016   4.460   5.720   1.274
 5380TIP3    H116017   4.533   5.782   1.285
 5380TIP3    H216018   4.491   5.659   1.207
 5381TIP3   OH216019   4.356   5.020   1.396
 5381TIP3    H116020   4.380   5.112   1.414
 5381TIP3    H216021   4.300   5.025   1.319
 5382TIP3   OH216022   5.702   6.476   1.734
 5382TIP3    H116023   5.654   6.536   1.676
 5382TIP3    H216024   5.794   6.500   1.722
 5383TIP3   OH216025   4.765   4.743   2.274
 5383TIP3    H116026   4.736   4.710   2.189
 5383TIP3    H216027   4.758   4.667   2.332
 5384TIP3   OH216028   4.291   5.993   1.673
 5384TIP3    H116029   4.251   6.031   1.751
 5384TIP3    H216030   4.246   6.036   1.600
 5385TIP3   OH216031   4.504   6.536   2.734
 5385TIP3    H116032   4.583   6.546   2.786
 5385TIP3    H216033   4.499   6.442   2.716
 5386TIP3   OH216034   4.960   6.433   2.781
 5386TIP3    H116035   5.052   6.407   2.787
 5386TIP3    H216036   4.925   6.381   2.708
 5387TIP3   OH216037   4.912   6.037   0.909
 5387TIP3    H116038   4.868   5.965   0.955
 5387TIP3    H216039   4.985   5.995   0.864
 5388TIP3   OH216040   5.576   6.381   2.542
 5388TIP3    H116041   5.595   6.312   2.606
 5388TIP3    H216042   5.648   6.443   2.551
 5389TIP3   OH216043   5.283   6.076   0.904
 5389TIP3    H116044   5.318   6.003   0.955
 5389TIP3    H216045   5.359   6.114   0.860
 5390TIP3   OH216046   4.593   5.935   2.921
 5390TIP3    H116047   4.614   5.843   2.934
 5390TIP3    H216048   4.505   5.935   2.884
 5391TIP3   OH216049   4.580   5.531   1.118
 5391TIP3    H116050   4.631   5.510   1.196
 5391TIP3    H216051   4.646   5.546   1.050
 5392TIP3   OH216052   5.218   6.013   2.701
 5392TIP3    H116053   5.174   6.036   2.619
 5392TIP3    H216054   5.254   5.926   2.685
 5393TIP3   OH216055   5.078   5.744   0.932
 5393TIP3    H116056   5.098   5.758   1.025
 5393TIP3    H216057   5.085   5.649   0.921
 5394TIP3   OH216058   5.689   6.057   2.314
 5394TIP3    H116059   5.768   6.084   2.267
 5394TIP3    H216060   5.628   6.129   2.302
 5395TIP3   OH216061   4.706   5.679   2.931
 5395TIP3    H116062   4.782   5.666   2.874
 5395TIP3    H216063   4.744   5.697   3.017
 5396TIP3   OH216064   4.758   5.481   1.328
 5396TIP3    H116065   4.742   5.451   1.418
 5396TIP3    H216066   4.807   5.410   1.287
 5397TIP3   OH216067   5.077   5.562   2.589
 5397TIP3    H116068   4.991   5.603   2.601
 5397TIP3    H216069   5.107   5.593   2.504
 5398TIP3   OH216070   4.897   5.296   1.175
 5398TIP3    H116071   4.870   5.298   1.083
 5398TIP3    H216072   4.993   5.301   1.172
 5399TIP3   OH216073   5.571   5.934   2.663
 5399TIP3    H116074   5.640   5.897   2.609
 5399TIP3    H216075   5.568   5.878   2.741
 5400TIP3   OH216076   5.674   5.525   0.901
 5400TIP3    H116077   5.664   5.498   0.809
 5400TIP3    H216078   5.667   5.621   0.898
 5401TIP3   OH216079   5.178   5.329   2.695
 5401TIP3    H116080   5.182   5.260   2.629
 5401TIP3    H216081   5.145   5.405   2.648
 5402TIP3   OH216082   5.186   5.132   2.491
 5402TIP3    H116083   5.213   5.170   2.407
 5402TIP3    H216084   5.096   5.104   2.477
 5403TIP3   OH216085   5.186   5.666   2.363
 5403TIP3    H116086   5.272   5.707   2.356
 5403TIP3    H216087   5.128   5.721   2.311
 5404TIP3   OH216088   5.782   5.623   2.739
 5404TIP3    H116089   5.832   5.542   2.742
 5404TIP3    H216090   5.848   5.692   2.735
 5405TIP3   OH216091   5.806   5.881   2.484
 5405TIP3    H116092   5.753   5.942   2.432
 5405TIP3    H216093   5.895   5.894   2.453
 5406TIP3   OH216094   5.066   5.408   2.940
 5406TIP3    H116095   4.995   5.347   2.959
 5406TIP3    H216096   5.093   5.385   2.851
 5407TIP3   OH216097   5.307   4.903   2.598
 5407TIP3    H116098   5.266   4.983   2.563
 5407TIP3    H216099   5.240   4.835   2.584
 5408TIP3   OH216100   5.434   5.366   2.800
 5408TIP3    H116101   5.423   5.353   2.894
 5408TIP3    H216102   5.348   5.346   2.763
 5409TIP3   OH216103   5.683   5.326   2.675
 5409TIP3    H116104   5.604   5.325   2.728
 5409TIP3    H216105   5.753   5.303   2.737
 5410TIP3   OH216106   5.920   5.291   2.824
 5410TIP3    H116107   5.931   5.196   2.830
 5410TIP3    H216108   5.913   5.320   2.915
 5411TIP3   OH216109   4.894   5.193   3.002
 5411TIP3    H116110   4.900   5.104   2.966
 5411TIP3    H216111   4.931   5.185   3.090
 5412TIP3   OH216112   5.372   4.874   2.862
 5412TIP3    H116113   5.440   4.807   2.855
 5412TIP3    H216114   5.343   4.889   2.772
 5413TIP3   OH216115   5.470   5.085   3.012
 5413TIP3    H116116   5.439   5.014   2.955
 5413TIP3    H216117   5.398   5.149   3.012
 5414TIP3   OH216118   4.674   6.305   1.125
 5414TIP3    H116119   4.767   6.301   1.101
 5414TIP3    H216120   4.632   6.342   1.047
 5415TIP3   OH216121   4.188   5.726   1.288
 5415TIP3    H116122   4.283   5.736   1.285
 5415TIP3    H216123   4.171   5.640   1.249
 5416TIP3   OH216124   4.091   6.304   1.754
 5416TIP3    H116125   4.026   6.250   1.708
 5416TIP3    H216126   4.136   6.242   1.812
 5417TIP3   OH216127   4.237   6.134   1.920
 5417TIP3    H116128   4.230   6.067   1.988
 5417TIP3    H216129   4.290   6.203   1.960
 5418TIP3   OH216130   5.967   6.555   1.740
 5418TIP3    H116131   5.977   6.562   1.835
 5418TIP3    H216132   5.996   6.640   1.707
 5419TIP3   OH216133   5.985   6.556   2.011
 5419TIP3    H116134   5.943   6.471   2.018
 5419TIP3    H216135   6.054   6.554   2.077
 5420TIP3   OH216136   6.057   6.272   2.579
 5420TIP3    H116137   5.982   6.283   2.638
 5420TIP3    H216138   6.103   6.356   2.582
 5421TIP3   OH216139   5.867   5.787   1.191
 5421TIP3    H116140   5.927   5.859   1.173
 5421TIP3    H216141   5.906   5.740   1.265
 5422TIP3   OH216142   5.991   5.642   1.390
 5422TIP3    H116143   5.925   5.603   1.448
 5422TIP3    H216144   6.057   5.678   1.449
 5423TIP3   OH216145   6.045   6.051   1.831
 5423TIP3    H116146   6.095   5.987   1.779
 5423TIP3    H216147   6.048   6.131   1.779
 5424TIP3   OH216148   5.847   6.314   2.030
 5424TIP3    H116149   5.782   6.368   2.077
 5424TIP3    H216150   5.798   6.278   1.956
 5425TIP3   OH216151   5.883   5.534   1.078
 5425TIP3    H116152   5.812   5.526   1.014
 5425TIP3    H216153   5.879   5.625   1.108
 5426TIP3   OH216154   5.715   5.220   1.027
 5426TIP3    H116155   5.705   5.283   0.955
 5426TIP3    H216156   5.713   5.134   0.983
 5427TIP3   OH216157   5.791   5.504   1.529
 5427TIP3    H116158   5.797   5.410   1.515
 5427TIP3    H216159   5.772   5.514   1.622
 5428TIP3   OH216160   4.410   5.571   2.303
 5428TIP3    H116161   4.401   5.541   2.212
 5428TIP3    H216162   4.504   5.565   2.321
 5429TIP3   OH216163   6.061   5.919   2.383
 5429TIP3    H116164   6.133   5.859   2.362
 5429TIP3    H216165   6.050   5.971   2.303
 5430TIP3   OH216166   6.253   5.710   2.378
 5430TIP3    H116167   6.179   5.668   2.421
 5430TIP3    H216168   6.329   5.657   2.402
 5431TIP3   OH216169   5.734   4.953   0.942
 5431TIP3    H116170   5.793   4.918   1.010
 5431TIP3    H216171   5.648   4.916   0.963
 5432TIP3   OH216172   5.786   5.226   1.428
 5432TIP3    H116173   5.830   5.142   1.442
 5432TIP3    H216174   5.829   5.263   1.351
 5433TIP3   OH216175   5.936   5.395   1.939
 5433TIP3    H116176   6.016   5.414   1.889
 5433TIP3    H216177   5.949   5.439   2.023
 5434TIP3   OH216178   6.003   5.552   2.162
 5434TIP3    H116179   5.931   5.582   2.218
 5434TIP3    H216180   6.033   5.632   2.118
 5435TIP3   OH216181   4.632   5.255   2.935
 5435TIP3    H116182   4.726   5.252   2.956
 5435TIP3    H216183   4.597   5.173   2.970
 5436TIP3   OH216184   6.480   5.133   2.702
 5436TIP3    H116185   6.539   5.073   2.656
 5436TIP3    H216186   6.442   5.186   2.632
 5437TIP3   OH216187   5.900   4.978   1.475
 5437TIP3    H116188   5.945   4.960   1.558
 5437TIP3    H216189   5.838   4.906   1.465
 5438TIP3   OH216190   4.609   4.971   2.308
 5438TIP3    H116191   4.662   4.891   2.308
 5438TIP3    H216192   4.670   5.041   2.285
 5439TIP3   OH216193   4.381   5.232   2.346
 5439TIP3    H116194   4.436   5.226   2.268
 5439TIP3    H216195   4.406   5.314   2.387
 5440TIP3   OH216196   6.323   5.272   2.524
 5440TIP3    H116197   6.261   5.313   2.583
 5440TIP3    H216198   6.269   5.228   2.458
 5441TIP3   OH216199   5.950   4.885   1.100
 5441TIP3    H116200   5.993   4.823   1.041
 5441TIP3    H216201   6.012   4.957   1.109
 5442TIP3   OH216202   4.367   4.720   1.830
 5442TIP3    H116203   4.290   4.721   1.888
 5442TIP3    H216204   4.349   4.788   1.765
 5443TIP3   OH216205   5.508   6.466   1.416
 5443TIP3    H116206   5.576   6.455   1.349
 5443TIP3    H216207   5.541   6.534   1.474
 5444TIP3   OH216208   4.603   4.783   2.672
 5444TIP3    H116209   4.555   4.781   2.755
 5444TIP3    H216210   4.549   4.838   2.615
 5445TIP3   OH216211   4.617   6.259   2.744
 5445TIP3    H116212   4.525   6.233   2.741
 5445TIP3    H216213   4.641   6.251   2.837
 5446TIP3   OH216214   4.842   6.302   2.302
 5446TIP3    H116215   4.792   6.377   2.270
 5446TIP3    H216216   4.927   6.310   2.259
 5447TIP3   OH216217   5.236   6.532   2.437
 5447TIP3    H116218   5.274   6.526   2.525
 5447TIP3    H216219   5.296   6.588   2.388
 5448TIP3   OH216220   5.418   6.698   2.313
 5448TIP3    H116221   5.480   6.662   2.249
 5448TIP3    H216222   5.471   6.758   2.365
 5449TIP3   OH216223   6.237   5.009   2.396
 5449TIP3    H116224   6.154   5.011   2.349
 5449TIP3    H216225   6.268   4.919   2.388
 5450TIP3   OH216226   4.500   6.530   2.352
 5450TIP3    H116227   4.409   6.548   2.329
 5450TIP3    H216228   4.523   6.599   2.415
 5451TIP3   OH216229   4.729   6.531   2.199
 5451TIP3    H116230   4.646   6.533   2.246
 5451TIP3    H216231   4.707   6.554   2.109
 5452TIP3   OH216232   5.142   6.540   1.990
 5452TIP3    H116233   5.075   6.553   1.923
 5452TIP3    H216234   5.154   6.626   2.030
 5453TIP3   OH216235   5.403   6.475   2.049
 5453TIP3    H116236   5.314   6.499   2.024
 5453TIP3    H216237   5.459   6.539   2.002
 5454TIP3   OH216238   5.603   6.632   1.943
 5454TIP3    H116239   5.608   6.722   1.911
 5454TIP3    H216240   5.636   6.579   1.871
 5455TIP3   OH216241   4.410   6.315   2.059
 5455TIP3    H116242   4.436   6.294   2.149
 5455TIP3    H216243   4.483   6.282   2.006
 5456TIP3   OH216244   4.615   6.199   1.922
 5456TIP3    H116245   4.626   6.114   1.964
 5456TIP3    H216246   4.701   6.240   1.928
 5457TIP3   OH216247   4.882   6.282   1.953
 5457TIP3    H116248   4.903   6.190   1.936
 5457TIP3    H216249   4.938   6.307   2.026
 5458TIP3   OH216250   5.444   4.932   2.035
 5458TIP3    H116251   5.405   4.861   2.086
 5458TIP3    H216252   5.512   4.891   1.983
 5459TIP3   OH216253   5.944   4.862   1.935
 5459TIP3    H116254   5.981   4.907   1.858
 5459TIP3    H216255   5.850   4.880   1.929
 5460TIP3   OH216256   6.061   4.923   1.694
 5460TIP3    H116257   6.129   4.862   1.662
 5460TIP3    H216258   6.099   5.010   1.681
 5461TIP3   OH216259   4.680   4.635   2.032
 5461TIP3    H116260   4.591   4.600   2.045
 5461TIP3    H216261   4.736   4.558   2.028
 5462TIP3   OH216262   4.440   4.534   1.640
 5462TIP3    H116263   4.501   4.576   1.578
 5462TIP3    H216264   4.431   4.597   1.711
 5463TIP3   OH216265   5.162   4.676   1.931
 5463TIP3    H116266   5.210   4.720   1.861
 5463TIP3    H216267   5.205   4.705   2.012
 5464TIP3   OH216268   5.658   4.812   1.907
 5464TIP3    H116269   5.678   4.777   1.820
 5464TIP3    H216270   5.666   4.736   1.965
 5465TIP3   OH216271   5.714   4.772   1.472
 5465TIP3    H116272   5.633   4.818   1.497
 5465TIP3    H216273   5.703   4.684   1.510
 5466TIP3   OH216274   4.169   6.110   1.458
 5466TIP3    H116275   4.086   6.074   1.426
 5466TIP3    H216276   4.171   6.200   1.426
 5467TIP3   OH216277   4.607   4.673   1.456
 5467TIP3    H116278   4.655   4.619   1.393
 5467TIP3    H216279   4.673   4.731   1.493
 5468TIP3   OH216280   5.090   4.869   1.547
 5468TIP3    H116281   5.151   4.816   1.597
 5468TIP3    H216282   5.106   4.959   1.576
 5469TIP3   OH216283   4.941   6.254   1.072
 5469TIP3    H116284   5.018   6.300   1.038
 5469TIP3    H216285   4.923   6.186   1.007
 5470TIP3   OH216286   5.679   6.402   1.207
 5470TIP3    H116287   5.664   6.307   1.214
 5470TIP3    H216288   5.636   6.427   1.126
 5471TIP3   OH216289   4.906   4.924   2.910
 5471TIP3    H116290   4.871   4.862   2.974
 5471TIP3    H216291   4.999   4.932   2.933
 5472TIP3   OH216292   5.154   4.931   3.030
 5472TIP3    H116293   5.232   4.908   2.979
 5472TIP3    H216294   5.147   4.862   3.095
 5473TIP3   OH216295   4.283   6.107   1.113
 5473TIP3    H116296   4.287   6.114   1.208
 5473TIP3    H216297   4.362   6.058   1.089
 5474TIP3   OH216298   5.980   5.018   2.824
 5474TIP3    H116299   5.997   4.988   2.913
 5474TIP3    H216300   6.064   5.012   2.779
 5475TIP3   OH216301   5.896   6.564   2.328
 5475TIP3    H116302   5.824   6.529   2.276
 5475TIP3    H216303   5.880   6.658   2.332
 5476TIP3   OH216304   7.174   5.888   1.156
 5476TIP3    H116305   7.138   5.968   1.196
 5476TIP3    H216306   7.119   5.873   1.079
 5477TIP3   OH216307   7.152   5.920   1.512
 5477TIP3    H116308   7.202   5.908   1.592
 5477TIP3    H216309   7.109   5.835   1.497
 5478TIP3   OH216310   6.469   5.788   1.842
 5478TIP3    H116311   6.507   5.734   1.911
 5478TIP3    H216312   6.543   5.812   1.786
 5479TIP3   OH216313   7.383   6.171   1.200
 5479TIP3    H116314   7.390   6.129   1.286
 5479TIP3    H216315   7.474   6.184   1.173
 5480TIP3   OH216316   6.472   6.216   1.553
 5480TIP3    H116317   6.448   6.123   1.550
 5480TIP3    H216318   6.565   6.217   1.528
 5481TIP3   OH216319   6.143   5.407   1.334
 5481TIP3    H116320   6.104   5.494   1.343
 5481TIP3    H216321   6.078   5.357   1.284
 5482TIP3   OH216322   6.218   5.725   1.531
 5482TIP3    H116323   6.270   5.649   1.556
 5482TIP3    H216324   6.281   5.787   1.494
 5483TIP3   OH216325   6.993   6.592   1.295
 5483TIP3    H116326   6.954   6.636   1.220
 5483TIP3    H216327   6.957   6.638   1.371
 5484TIP3   OH216328   6.974   6.145   1.498
 5484TIP3    H116329   7.014   6.063   1.470
 5484TIP3    H216330   7.047   6.196   1.534
 5485TIP3   OH216331   7.955   5.468   1.567
 5485TIP3    H116332   7.991   5.550   1.600
 5485TIP3    H216333   7.999   5.454   1.483
 5486TIP3   OH216334   7.425   5.640   1.588
 5486TIP3    H116335   7.467   5.558   1.613
 5486TIP3    H216336   7.371   5.617   1.512
 5487TIP3   OH216337   6.734   5.282   1.505
 5487TIP3    H116338   6.719   5.357   1.448
 5487TIP3    H216339   6.679   5.212   1.469
 5488TIP3   OH216340   7.404   5.390   1.202
 5488TIP3    H116341   7.482   5.379   1.256
 5488TIP3    H216342   7.437   5.407   1.114
 5489TIP3   OH216343   6.363   5.509   1.628
 5489TIP3    H116344   6.447   5.494   1.670
 5489TIP3    H216345   6.367   5.459   1.547
 5490TIP3   OH216346   6.795   5.700   1.465
 5490TIP3    H116347   6.890   5.688   1.471
 5490TIP3    H216348   6.764   5.618   1.426
 5491TIP3   OH216349   8.052   5.687   1.704
 5491TIP3    H116350   7.970   5.736   1.692
 5491TIP3    H216351   8.094   5.730   1.778
 5492TIP3   OH216352   6.718   5.299   1.946
 5492TIP3    H116353   6.675   5.335   1.869
 5492TIP3    H216354   6.658   5.317   2.018
 5493TIP3   OH216355   7.004   6.110   1.157
 5493TIP3    H116356   6.912   6.086   1.164
 5493TIP3    H216357   7.003   6.201   1.128
 5494TIP3   OH216358   6.816   6.072   1.711
 5494TIP3    H116359   6.763   6.144   1.745
 5494TIP3    H216360   6.863   6.111   1.637
 5495TIP3   OH216361   7.613   5.400   1.376
 5495TIP3    H116362   7.571   5.380   1.459
 5495TIP3    H216363   7.662   5.480   1.392
 5496TIP3   OH216364   6.611   5.408   1.717
 5496TIP3    H116365   6.667   5.483   1.736
 5496TIP3    H216366   6.654   5.363   1.645
 5497TIP3   OH216367   6.662   6.271   1.820
 5497TIP3    H116368   6.651   6.361   1.789
 5497TIP3    H216369   6.581   6.252   1.867
 5498TIP3   OH216370   6.047   5.987   1.128
 5498TIP3    H116371   6.012   6.011   1.042
 5498TIP3    H216372   6.039   6.067   1.180
 5499TIP3   OH216373   7.498   6.430   1.441
 5499TIP3    H116374   7.405   6.432   1.465
 5499TIP3    H216375   7.499   6.438   1.346
 5500TIP3   OH216376   7.764   5.331   1.708
 5500TIP3    H116377   7.679   5.346   1.667
 5500TIP3    H216378   7.826   5.375   1.650
 5501TIP3   OH216379   7.070   4.989   1.685
 5501TIP3    H116380   7.062   4.898   1.711
 5501TIP3    H216381   6.993   5.032   1.722
 5502TIP3   OH216382   7.187   6.568   0.945
 5502TIP3    H116383   7.252   6.501   0.925
 5502TIP3    H216384   7.219   6.647   0.900
 5503TIP3   OH216385   7.357   6.364   0.909
 5503TIP3    H116386   7.293   6.293   0.910
 5503TIP3    H216387   7.438   6.325   0.943
 5504TIP3   OH216388   7.723   6.343   1.693
 5504TIP3    H116389   7.693   6.283   1.625
 5504TIP3    H216390   7.712   6.430   1.654
 5505TIP3   OH216391   7.000   5.849   0.952
 5505TIP3    H116392   6.913   5.887   0.945
 5505TIP3    H216393   7.047   5.881   0.875
 5506TIP3   OH216394   6.964   5.624   0.668
 5506TIP3    H116395   7.059   5.619   0.655
 5506TIP3    H216396   6.928   5.560   0.607
 5507TIP3   OH216397   7.876   6.034   1.575
 5507TIP3    H116398   7.792   6.079   1.567
 5507TIP3    H216399   7.905   6.022   1.484
 5508TIP3   OH216400   7.347   5.758   0.841
 5508TIP3    H116401   7.317   5.848   0.855
 5508TIP3    H216402   7.442   5.766   0.831
 5509TIP3   OH216403   7.573   5.889   1.842
 5509TIP3    H116404   7.571   5.971   1.892
 5509TIP3    H216405   7.490   5.889   1.793
 5510TIP3   OH216406   6.571   5.797   1.329
 5510TIP3    H116407   6.531   5.734   1.269
 5510TIP3    H216408   6.645   5.751   1.367
 5511TIP3   OH216409   6.724   6.252   1.427
 5511TIP3    H116410   6.695   6.219   1.342
 5511TIP3    H216411   6.812   6.215   1.438
 5512TIP3   OH216412   6.681   5.840   1.672
 5512TIP3    H116413   6.721   5.800   1.594
 5512TIP3    H216414   6.730   5.921   1.684
 5513TIP3   OH216415   7.231   6.456   1.471
 5513TIP3    H116416   7.206   6.539   1.513
 5513TIP3    H216417   7.201   6.389   1.532
 5514TIP3   OH216418   6.856   6.371   1.991
 5514TIP3    H116419   6.794   6.429   2.035
 5514TIP3    H216420   6.801   6.319   1.931
 5515TIP3   OH216421   7.242   5.608   0.643
 5515TIP3    H116422   7.279   5.653   0.719
 5515TIP3    H216423   7.259   5.666   0.569
 5516TIP3   OH216424   6.608   5.912   2.146
 5516TIP3    H116425   6.614   6.007   2.155
 5516TIP3    H216426   6.515   5.895   2.133
 5517TIP3   OH216427   7.027   6.362   1.039
 5517TIP3    H116428   7.089   6.433   1.025
 5517TIP3    H216429   6.943   6.405   1.053
 5518TIP3   OH216430   6.648   6.531   2.077
 5518TIP3    H116431   6.623   6.539   1.985
 5518TIP3    H216432   6.566   6.515   2.123
 5519TIP3   OH216433   7.662   4.882   0.678
 5519TIP3    H116434   7.612   4.892   0.759
 5519TIP3    H216435   7.687   4.971   0.654
 5520TIP3   OH216436   6.449   5.625   1.147
 5520TIP3    H116437   6.385   5.693   1.129
 5520TIP3    H216438   6.403   5.543   1.130
 5521TIP3   OH216439   6.246   6.089   2.024
 5521TIP3    H116440   6.176   6.073   1.961
 5521TIP3    H216441   6.280   6.002   2.046
 5522TIP3   OH216442   6.085   6.303   1.709
 5522TIP3    H116443   6.174   6.331   1.729
 5522TIP3    H216444   6.031   6.379   1.729
 5523TIP3   OH216445   7.946   6.741   1.771
 5523TIP3    H116446   7.946   6.645   1.770
 5523TIP3    H216447   7.858   6.765   1.800
 5524TIP3   OH216448   7.043   6.516   1.853
 5524TIP3    H116449   7.032   6.607   1.881
 5524TIP3    H216450   6.976   6.468   1.901
 5525TIP3   OH216451   6.737   6.645   0.843
 5525TIP3    H116452   6.810   6.607   0.793
 5525TIP3    H216453   6.757   6.739   0.847
 5526TIP3   OH216454   6.247   6.452   1.237
 5526TIP3    H116455   6.305   6.446   1.313
 5526TIP3    H216456   6.209   6.365   1.228
 5527TIP3   OH216457   6.989   6.571   0.755
 5527TIP3    H116458   6.954   6.483   0.743
 5527TIP3    H216459   7.062   6.560   0.815
 5528TIP3   OH216460   7.814   5.851   2.010
 5528TIP3    H116461   7.738   5.854   1.952
 5528TIP3    H216462   7.841   5.759   2.008
 5529TIP3   OH216463   6.442   6.281   1.988
 5529TIP3    H116464   6.492   6.268   2.069
 5529TIP3    H216465   6.370   6.218   1.993
 5530TIP3   OH216466   6.831   5.084   1.801
 5530TIP3    H116467   6.750   5.052   1.762
 5530TIP3    H216468   6.807   5.167   1.842
 5531TIP3   OH216469   7.366   5.211   2.005
 5531TIP3    H116470   7.435   5.183   2.065
 5531TIP3    H216471   7.285   5.187   2.051
 5532TIP3   OH216472   7.590   5.622   1.921
 5532TIP3    H116473   7.552   5.619   2.009
 5532TIP3    H216474   7.571   5.710   1.890
 5533TIP3   OH216475   7.033   4.981   0.836
 5533TIP3    H116476   6.995   5.024   0.913
 5533TIP3    H216477   6.964   4.923   0.805
 5534TIP3   OH216478   6.762   5.618   1.817
 5534TIP3    H116479   6.714   5.626   1.899
 5534TIP3    H216480   6.742   5.699   1.770
 5535TIP3   OH216481   6.651   5.494   1.356
 5535TIP3    H116482   6.558   5.477   1.373
 5535TIP3    H216483   6.667   5.456   1.269
 5536TIP3   OH216484   7.090   5.629   1.207
 5536TIP3    H116485   7.101   5.724   1.210
 5536TIP3    H216486   7.138   5.602   1.128
 5537TIP3   OH216487   7.311   5.837   2.132
 5537TIP3    H116488   7.286   5.768   2.194
 5537TIP3    H216489   7.404   5.853   2.150
 5538TIP3   OH216490   7.270   5.540   1.386
 5538TIP3    H116491   7.204   5.571   1.324
 5538TIP3    H216492   7.321   5.476   1.336
 5539TIP3   OH216493   6.601   5.633   2.037
 5539TIP3    H116494   6.602   5.700   2.106
 5539TIP3    H216495   6.578   5.552   2.082
 5540TIP3   OH216496   6.483   5.104   0.842
 5540TIP3    H116497   6.497   5.124   0.935
 5540TIP3    H216498   6.569   5.116   0.802
 5541TIP3   OH216499   6.190   5.149   1.627
 5541TIP3    H116500   6.263   5.188   1.676
 5541TIP3    H216501   6.221   5.146   1.537
 5542TIP3   OH216502   6.112   5.108   1.132
 5542TIP3    H116503   6.162   5.141   1.058
 5542TIP3    H216504   6.047   5.176   1.150
 5543TIP3   OH216505   7.319   5.847   1.723
 5543TIP3    H116506   7.360   5.782   1.668
 5543TIP3    H216507   7.274   5.797   1.792
 5544TIP3   OH216508   7.004   5.272   1.406
 5544TIP3    H116509   6.927   5.275   1.464
 5544TIP3    H216510   7.078   5.279   1.466
 5545TIP3   OH216511   6.407   5.369   1.399
 5545TIP3    H116512   6.318   5.373   1.363
 5545TIP3    H216513   6.437   5.281   1.379
 5546TIP3   OH216514   6.664   5.343   1.128
 5546TIP3    H116515   6.751   5.372   1.100
 5546TIP3    H216516   6.606   5.370   1.057
 5547TIP3   OH216517   7.475   5.358   1.614
 5547TIP3    H116518   7.441   5.382   1.701
 5547TIP3    H216519   7.406   5.305   1.575
 5548TIP3   OH216520   6.462   5.381   0.952
 5548TIP3    H116521   6.397   5.313   0.931
 5548TIP3    H216522   6.433   5.458   0.903
 5549TIP3   OH216523   7.649   7.102   1.859
 5549TIP3    H116524   7.649   7.091   1.764
 5549TIP3    H216525   7.732   7.145   1.879
 5550TIP3   OH216526   6.596   6.181   2.224
 5550TIP3    H116527   6.676   6.206   2.269
 5550TIP3    H216528   6.526   6.199   2.287
 5551TIP3   OH216529   7.062   5.654   1.528
 5551TIP3    H116530   7.133   5.607   1.485
 5551TIP3    H216531   7.051   5.610   1.612
 5552TIP3   OH216532   6.540   5.119   1.379
 5552TIP3    H116533   6.513   5.040   1.426
 5552TIP3    H216534   6.559   5.089   1.291
 5553TIP3   OH216535   7.024   5.547   1.779
 5553TIP3    H116536   6.938   5.586   1.795
 5553TIP3    H216537   7.085   5.605   1.826
 5554TIP3   OH216538   6.731   5.910   0.921
 5554TIP3    H116539   6.715   5.827   0.964
 5554TIP3    H216540   6.720   5.976   0.990
 5555TIP3   OH216541   7.638   6.157   1.514
 5555TIP3    H116542   7.652   6.206   1.433
 5555TIP3    H216543   7.550   6.120   1.504
 5556TIP3   OH216544   7.272   5.097   0.793
 5556TIP3    H116545   7.190   5.051   0.809
 5556TIP3    H216546   7.248   5.190   0.790
 5557TIP3   OH216547   7.170   6.242   1.901
 5557TIP3    H116548   7.227   6.234   1.978
 5557TIP3    H216549   7.134   6.330   1.906
 5558TIP3   OH216550   7.291   5.371   0.783
 5558TIP3    H116551   7.305   5.406   0.871
 5558TIP3    H216552   7.275   5.448   0.729
 5559TIP3   OH216553   6.450   5.934   1.532
 5559TIP3    H116554   6.482   5.899   1.449
 5559TIP3    H216555   6.514   5.905   1.596
 5560TIP3   OH216556   6.946   6.127   0.828
 5560TIP3    H116557   6.906   6.194   0.772
 5560TIP3    H216558   6.897   6.133   0.910
 5561TIP3   OH216559   6.335   5.847   2.149
 5561TIP3    H116560   6.330   5.816   2.239
 5561TIP3    H216561   6.260   5.807   2.105
 5562TIP3   OH216562   7.083   5.995   2.175
 5562TIP3    H116563   7.013   5.937   2.145
 5562TIP3    H216564   7.164   5.954   2.142
 5563TIP3   OH216565   7.314   6.522   1.795
 5563TIP3    H116566   7.218   6.518   1.791
 5563TIP3    H216567   7.333   6.558   1.881
 5564TIP3   OH216568   7.842   5.551   0.653
 5564TIP3    H116569   7.808   5.472   0.613
 5564TIP3    H216570   7.781   5.620   0.627
 5565TIP3   OH216571   7.965   6.466   1.765
 5565TIP3    H116572   7.878   6.437   1.790
 5565TIP3    H216573   7.981   6.425   1.680
 5566TIP3   OH216574   7.395   6.040   1.442
 5566TIP3    H116575   7.305   6.009   1.456
 5566TIP3    H216576   7.445   5.960   1.421
 5567TIP3   OH216577   6.549   6.219   1.188
 5567TIP3    H116578   6.547   6.312   1.167
 5567TIP3    H216579   6.463   6.186   1.165
 5568TIP3   OH216580   6.177   5.493   1.020
 5568TIP3    H116581   6.238   5.544   0.966
 5568TIP3    H216582   6.106   5.554   1.040
 5569TIP3   OH216583   6.711   5.998   1.206
 5569TIP3    H116584   6.644   6.065   1.209
 5569TIP3    H216585   6.671   5.922   1.249
 5570TIP3   OH216586   6.870   6.591   1.642
 5570TIP3    H116587   6.903   6.674   1.606
 5570TIP3    H216588   6.943   6.558   1.694
 5571TIP3   OH216589   6.468   6.459   1.069
 5571TIP3    H116590   6.378   6.443   1.096
 5571TIP3    H216591   6.491   6.542   1.111
 5572TIP3   OH216592   7.205   6.232   1.628
 5572TIP3    H116593   7.196   6.229   1.723
 5572TIP3    H216594   7.287   6.187   1.610
 5573TIP3   OH216595   7.227   6.105   0.500
 5573TIP3    H116596   7.294   6.134   0.562
 5573TIP3    H216597   7.147   6.147   0.530
 5574TIP3   OH216598   7.461   6.743   1.722
 5574TIP3    H116599   7.400   6.671   1.733
 5574TIP3    H216600   7.434   6.785   1.641
 5575TIP3   OH216601   6.523   5.366   2.132
 5575TIP3    H116602   6.436   5.406   2.137
 5575TIP3    H216603   6.511   5.278   2.166
 5576TIP3   OH216604   7.384   6.091   0.742
 5576TIP3    H116605   7.368   6.098   0.836
 5576TIP3    H216606   7.478   6.075   0.734
 5577TIP3   OH216607   6.292   6.485   1.808
 5577TIP3    H116608   6.350   6.430   1.861
 5577TIP3    H216609   6.302   6.572   1.845
 5578TIP3   OH216610   6.474   6.119   0.474
 5578TIP3    H116611   6.533   6.092   0.403
 5578TIP3    H216612   6.528   6.116   0.553
 5579TIP3   OH216613   6.430   6.094   0.829
 5579TIP3    H116614   6.515   6.066   0.795
 5579TIP3    H216615   6.434   6.190   0.828
 5580TIP3   OH216616   6.271   5.822   1.092
 5580TIP3    H116617   6.197   5.867   1.132
 5580TIP3    H216618   6.269   5.847   1.000
 5581TIP3   OH216619   7.390   5.443   1.862
 5581TIP3    H116620   7.472   5.484   1.888
 5581TIP3    H216621   7.384   5.364   1.916
 5582TIP3   OH216622   7.206   5.226   1.085
 5582TIP3    H116623   7.284   5.183   1.048
 5582TIP3    H216624   7.241   5.302   1.132
 5583TIP3   OH216625   6.839   6.354   0.725
 5583TIP3    H116626   6.760   6.360   0.778
 5583TIP3    H216627   6.808   6.362   0.635
 5584TIP3   OH216628   6.935   5.394   1.165
 5584TIP3    H116629   6.972   5.481   1.170
 5584TIP3    H216630   6.963   5.351   1.245
 5585TIP3   OH216631   7.230   5.671   1.914
 5585TIP3    H116632   7.263   5.713   1.993
 5585TIP3    H216633   7.284   5.592   1.905
 5586TIP3   OH216634   7.076   5.060   1.250
 5586TIP3    H116635   7.051   5.130   1.311
 5586TIP3    H216636   7.133   5.103   1.186
 5587TIP3   OH216637   6.597   6.338   0.837
 5587TIP3    H116638   6.552   6.378   0.763
 5587TIP3    H216639   6.551   6.371   0.914
 5588TIP3   OH216640   6.613   5.077   1.106
 5588TIP3    H116641   6.618   5.171   1.120
 5588TIP3    H216642   6.703   5.051   1.086
 5589TIP3   OH216643   7.860   5.585   1.917
 5589TIP3    H116644   7.765   5.577   1.918
 5589TIP3    H216645   7.884   5.574   1.825
 5590TIP3   OH216646   7.531   5.818   1.366
 5590TIP3    H116647   7.495   5.769   1.293
 5590TIP3    H216648   7.580   5.754   1.417
 5591TIP3   OH216649   6.226   5.918   0.835
 5591TIP3    H116650   6.294   5.984   0.852
 5591TIP3    H216651   6.232   5.903   0.740
 5592TIP3   OH216652   6.217   5.244   0.922
 5592TIP3    H116653   6.197   5.330   0.959
 5592TIP3    H216654   6.151   5.231   0.854
 5593TIP3   OH216655   7.525   6.749   1.292
 5593TIP3    H116656   7.478   6.712   1.217
 5593TIP3    H216657   7.594   6.686   1.310
 5594TIP3   OH216658   6.568   4.997   1.759
 5594TIP3    H116659   6.538   4.967   1.673
 5594TIP3    H216660   6.556   4.921   1.816
 5595TIP3   OH216661   6.054   6.233   1.243
 5595TIP3    H116662   6.036   6.284   1.322
 5595TIP3    H216663   6.011   6.282   1.173
 5596TIP3   OH216664   6.290   6.781   2.222
 5596TIP3    H116665   6.374   6.777   2.268
 5596TIP3    H216666   6.263   6.689   2.215
 5597TIP3   OH216667   6.764   6.691   2.268
 5597TIP3    H116668   6.853   6.657   2.275
 5597TIP3    H216669   6.725   6.640   2.197
 5598TIP3   OH216670   7.373   6.632   2.037
 5598TIP3    H116671   7.393   6.563   2.100
 5598TIP3    H216672   7.445   6.695   2.047
 5599TIP3   OH216673   6.390   6.191   2.413
 5599TIP3    H116674   6.400   6.096   2.426
 5599TIP3    H216675   6.305   6.200   2.369
 5600TIP3   OH216676   6.351   5.870   0.595
 5600TIP3    H116677   6.411   5.844   0.665
 5600TIP3    H216678   6.406   5.876   0.517
 5601TIP3   OH216679   7.016   6.270   2.190
 5601TIP3    H116680   6.970   6.292   2.109
 5601TIP3    H216681   7.052   6.183   2.175
 5602TIP3   OH216682   6.928   6.107   0.523
 5602TIP3    H116683   6.914   6.036   0.586
 5602TIP3    H216684   6.929   6.064   0.438
 5603TIP3   OH216685   7.475   6.298   1.811
 5603TIP3    H116686   7.556   6.327   1.769
 5603TIP3    H216687   7.414   6.370   1.798
 5604TIP3   OH216688   6.501   5.930   2.426
 5604TIP3    H116689   6.569   5.931   2.358
 5604TIP3    H216690   6.547   5.956   2.506
 5605TIP3   OH216691   6.681   5.657   0.999
 5605TIP3    H116692   6.603   5.639   1.051
 5605TIP3    H216693   6.675   5.600   0.923
 5606TIP3   OH216694   6.874   5.820   2.087
 5606TIP3    H116695   6.786   5.857   2.094
 5606TIP3    H216696   6.904   5.847   2.000
 5607TIP3   OH216697   6.687   5.494   0.770
 5607TIP3    H116698   6.620   5.439   0.729
 5607TIP3    H216699   6.752   5.432   0.802
 5608TIP3   OH216700   7.366   6.186   2.152
 5608TIP3    H116701   7.438   6.153   2.099
 5608TIP3    H216702   7.366   6.130   2.230
 5609TIP3   OH216703   6.961   5.582   2.194
 5609TIP3    H116704   6.968   5.512   2.129
 5609TIP3    H216705   6.936   5.660   2.144
 5610TIP3   OH216706   6.975   5.381   1.995
 5610TIP3    H116707   7.006   5.423   1.915
 5610TIP3    H216708   6.885   5.356   1.977
 5611TIP3   OH216709   6.985   5.915   1.858
 5611TIP3    H116710   7.073   5.952   1.845
 5611TIP3    H216711   6.928   5.971   1.805
 5612TIP3   OH216712   7.580   5.872   2.222
 5612TIP3    H116713   7.613   5.782   2.223
 5612TIP3    H216714   7.656   5.926   2.200
 5613TIP3   OH216715   7.595   6.131   1.984
 5613TIP3    H116716   7.543   6.189   1.929
 5613TIP3    H216717   7.685   6.143   1.953
 5614TIP3   OH216718   6.861   5.686   2.441
 5614TIP3    H116719   6.766   5.685   2.454
 5614TIP3    H216720   6.872   5.669   2.347
 5615TIP3   OH216721   7.097   5.148   2.079
 5615TIP3    H116722   7.059   5.231   2.048
 5615TIP3    H216723   7.029   5.083   2.065
 5616TIP3   OH216724   7.226   5.624   2.286
 5616TIP3    H116725   7.219   5.613   2.381
 5616TIP3    H216726   7.139   5.603   2.253
 5617TIP3   OH216727   7.481   5.590   2.166
 5617TIP3    H116728   7.401   5.584   2.218
 5617TIP3    H216729   7.550   5.559   2.225
 5618TIP3   OH216730   7.708   5.539   2.316
 5618TIP3    H116731   7.724   5.445   2.320
 5618TIP3    H216732   7.707   5.567   2.408
 5619TIP3   OH216733   6.709   5.412   2.467
 5619TIP3    H116734   6.787   5.445   2.421
 5619TIP3    H216735   6.734   5.410   2.559
 5620TIP3   OH216736   7.191   5.140   2.333
 5620TIP3    H116737   7.259   5.074   2.324
 5620TIP3    H216738   7.153   5.147   2.245
 5621TIP3   OH216739   7.268   5.348   2.494
 5621TIP3    H116740   7.247   5.281   2.429
 5621TIP3    H216741   7.193   5.407   2.492
 5622TIP3   OH216742   6.539   6.438   0.591
 5622TIP3    H116743   6.604   6.402   0.530
 5622TIP3    H216744   6.550   6.533   0.584
 5623TIP3   OH216745   5.940   5.962   0.858
 5623TIP3    H116746   6.029   5.992   0.838
 5623TIP3    H216747   5.900   5.949   0.772
 5624TIP3   OH216748   5.887   6.563   1.275
 5624TIP3    H116749   5.818   6.506   1.242
 5624TIP3    H216750   5.934   6.509   1.339
 5625TIP3   OH216751   6.026   6.409   1.456
 5625TIP3    H116752   6.024   6.350   1.530
 5625TIP3    H216753   6.083   6.481   1.484
 5626TIP3   OH216754   7.859   6.797   1.250
 5626TIP3    H116755   7.851   6.793   1.345
 5626TIP3    H216756   7.800   6.729   1.218
 5627TIP3   OH216757   7.795   6.808   1.520
 5627TIP3    H116758   7.749   6.727   1.542
 5627TIP3    H216759   7.887   6.789   1.537
 5628TIP3   OH216760   7.843   6.533   2.057
 5628TIP3    H116761   7.772   6.539   2.121
 5628TIP3    H216762   7.889   6.617   2.064
 5629TIP3   OH216763   7.658   6.081   0.723
 5629TIP3    H116764   7.696   6.164   0.753
 5629TIP3    H216765   7.703   6.014   0.775
 5630TIP3   OH216766   7.789   5.902   0.888
 5630TIP3    H116767   7.749   5.864   0.966
 5630TIP3    H216768   7.834   5.980   0.919
 5631TIP3   OH216769   7.739   6.264   1.283
 5631TIP3    H116770   7.801   6.192   1.298
 5631TIP3    H216771   7.763   6.298   1.197
 5632TIP3   OH216772   7.653   6.588   1.596
 5632TIP3    H116773   7.591   6.637   1.651
 5632TIP3    H216774   7.598   6.541   1.534
 5633TIP3   OH216775   7.714   5.830   1.140
 5633TIP3    H116776   7.635   5.777   1.131
 5633TIP3    H216777   7.721   5.846   1.234
 5634TIP3   OH216778   6.205   5.818   1.787
 5634TIP3    H116779   6.196   5.791   1.696
 5634TIP3    H216780   6.300   5.818   1.803
 5635TIP3   OH216781   7.845   6.175   1.880
 5635TIP3    H116782   7.911   6.111   1.853
 5635TIP3    H216783   7.823   6.221   1.799
 5636TIP3   OH216784   8.026   5.966   1.879
 5636TIP3    H116785   7.952   5.928   1.928
 5636TIP3    H216786   8.101   5.913   1.905
 5637TIP3   OH216787   7.579   5.238   0.460
 5637TIP3    H116788   7.596   5.203   0.547
 5637TIP3    H216789   7.491   5.275   0.466
 5638TIP3   OH216790   7.531   5.407   0.957
 5638TIP3    H116791   7.619   5.428   0.988
 5638TIP3    H216792   7.530   5.438   0.866
 5639TIP3   OH216793   7.722   5.641   1.462
 5639TIP3    H116794   7.801   5.670   1.417
 5639TIP3    H216795   7.734   5.669   1.553
 5640TIP3   OH216796   7.793   5.797   1.687
 5640TIP3    H116797   7.713   5.824   1.731
 5640TIP3    H216798   7.826   5.877   1.646
 5641TIP3   OH216799   6.437   5.505   2.426
 5641TIP3    H116800   6.531   5.487   2.431
 5641TIP3    H216801   6.397   5.427   2.464
 5642TIP3   OH216802   8.264   5.398   2.189
 5642TIP3    H116803   8.325   5.340   2.145
 5642TIP3    H216804   8.225   5.450   2.119
 5643TIP3   OH216805   7.727   5.163   0.989
 5643TIP3    H116806   7.782   5.165   1.067
 5643TIP3    H216807   7.643   5.128   1.019
 5644TIP3   OH216808   6.405   5.222   1.792
 5644TIP3    H116809   6.460   5.143   1.787
 5644TIP3    H216810   6.464   5.294   1.768
 5645TIP3   OH216811   6.176   5.493   1.838
 5645TIP3    H116812   6.230   5.478   1.761
 5645TIP3    H216813   6.189   5.585   1.860
 5646TIP3   OH216814   8.114   5.510   1.992
 5646TIP3    H116815   8.027   5.549   2.002
 5646TIP3    H216816   8.100   5.434   1.935
 5647TIP3   OH216817   7.816   5.066   0.535
 5647TIP3    H116818   7.869   5.072   0.615
 5647TIP3    H216819   7.809   5.157   0.504
 5648TIP3   OH216820   6.167   4.981   1.363
 5648TIP3    H116821   6.079   4.977   1.400
 5648TIP3    H216822   6.158   5.034   1.284
 5649TIP3   OH216823   7.415   6.679   0.802
 5649TIP3    H116824   7.445   6.642   0.719
 5649TIP3    H216825   7.387   6.768   0.780
 5650TIP3   OH216826   6.420   5.119   2.211
 5650TIP3    H116827   6.366   5.082   2.281
 5650TIP3    H216828   6.359   5.138   2.140
 5651TIP3   OH216829   6.429   6.496   2.245
 5651TIP3    H116830   6.335   6.488   2.232
 5651TIP3    H216831   6.440   6.493   2.340
 5652TIP3   OH216832   6.645   6.544   1.793
 5652TIP3    H116833   6.589   6.615   1.762
 5652TIP3    H216834   6.728   6.557   1.748
 5653TIP3   OH216835   7.028   6.781   1.929
 5653TIP3    H116836   7.067   6.772   2.016
 5653TIP3    H216837   7.091   6.834   1.880
 5654TIP3   OH216838   7.224   6.932   1.808
 5654TIP3    H116839   7.289   6.872   1.772
 5654TIP3    H216840   7.274   6.993   1.862
 5655TIP3   OH216841   8.017   5.264   1.882
 5655TIP3    H116842   7.931   5.264   1.841
 5655TIP3    H216843   8.050   5.175   1.869
 5656TIP3   OH216844   6.295   6.782   1.844
 5656TIP3    H116845   6.206   6.796   1.811
 5656TIP3    H216846   6.310   6.854   1.904
 5657TIP3   OH216847   6.527   6.767   1.699
 5657TIP3    H116848   6.445   6.775   1.748
 5657TIP3    H216849   6.507   6.804   1.613
 5658TIP3   OH216850   6.950   6.810   1.489
 5658TIP3    H116851   6.868   6.819   1.440
 5658TIP3    H216852   6.966   6.897   1.525
 5659TIP3   OH216853   7.193   6.713   1.563
 5659TIP3    H116854   7.109   6.747   1.533
 5659TIP3    H216855   7.258   6.774   1.528
 5660TIP3   OH216856   7.405   6.879   1.496
 5660TIP3    H116857   7.387   6.970   1.470
 5660TIP3    H216858   7.444   6.839   1.419
 5661TIP3   OH216859   6.215   6.594   1.558
 5661TIP3    H116860   6.225   6.567   1.649
 5661TIP3    H216861   6.290   6.554   1.513
 5662TIP3   OH216862   6.423   6.460   1.446
 5662TIP3    H116863   6.430   6.375   1.488
 5662TIP3    H216864   6.512   6.494   1.443
 5663TIP3   OH216865   6.692   6.526   1.441
 5663TIP3    H116866   6.707   6.433   1.426
 5663TIP3    H216867   6.749   6.549   1.514
 5664TIP3   OH216868   7.252   5.190   1.532
 5664TIP3    H116869   7.207   5.117   1.574
 5664TIP3    H216870   7.315   5.148   1.473
 5665TIP3   OH216871   7.739   5.110   1.437
 5665TIP3    H116872   7.787   5.155   1.367
 5665TIP3    H216873   7.648   5.137   1.424
 5666TIP3   OH216874   7.894   5.150   1.207
 5666TIP3    H116875   7.950   5.076   1.187
 5666TIP3    H216876   7.946   5.227   1.184
 5667TIP3   OH216877   6.474   4.891   1.522
 5667TIP3    H116878   6.384   4.859   1.530
 5667TIP3    H216879   6.526   4.811   1.515
 5668TIP3   OH216880   6.259   4.769   1.198
 5668TIP3    H116881   6.315   4.811   1.133
 5668TIP3    H216882   6.233   4.841   1.257
 5669TIP3   OH216883   6.944   4.918   1.445
 5669TIP3    H116884   6.986   4.960   1.370
 5669TIP3    H216885   6.992   4.950   1.521
 5670TIP3   OH216886   7.454   5.057   1.397
 5670TIP3    H116887   7.486   5.022   1.314
 5670TIP3    H216888   7.464   4.985   1.459
 5671TIP3   OH216889   7.556   4.908   0.929
 5671TIP3    H116890   7.512   4.990   0.953
 5671TIP3    H216891   7.512   4.842   0.983
 5672TIP3   OH216892   5.944   6.360   1.034
 5672TIP3    H116893   5.860   6.335   0.995
 5672TIP3    H216894   5.947   6.455   1.024
 5673TIP3   OH216895   6.432   4.877   1.014
 5673TIP3    H116896   6.470   4.859   0.928
 5673TIP3    H216897   6.490   4.943   1.053
 5674TIP3   OH216898   6.890   5.096   1.047
 5674TIP3    H116899   6.943   5.072   1.123
 5674TIP3    H216900   6.903   5.191   1.039
 5675TIP3   OH216901   6.713   5.132   2.410
 5675TIP3    H116902   6.625   5.098   2.391
 5675TIP3    H216903   6.702   5.227   2.408
 5676TIP3   OH216904   7.003   5.121   2.534
 5676TIP3    H116905   7.064   5.144   2.464
 5676TIP3    H216906   7.055   5.069   2.595
 5677TIP3   OH216907   6.143   6.397   0.594
 5677TIP3    H116908   6.192   6.395   0.676
 5677TIP3    H216909   6.205   6.366   0.528
 5678TIP3   OH216910   7.774   5.270   2.311
 5678TIP3    H116911   7.794   5.240   2.399
 5678TIP3    H216912   7.858   5.266   2.265
 5679TIP3   OH216913   7.694   6.825   1.848
 5679TIP3    H116914   7.612   6.795   1.809
 5679TIP3    H216915   7.683   6.919   1.861
 5680TIP3   OH216916   8.944   6.170   1.004
 5680TIP3    H116917   9.022   6.206   0.962
 5680TIP3    H216918   8.913   6.104   0.942
 5681TIP3   OH216919   8.259   6.078   1.364
 5681TIP3    H116920   8.261   6.027   1.445
 5681TIP3    H216921   8.320   6.034   1.306
 5682TIP3   OH216922   8.244   6.387   0.968
 5682TIP3    H116923   8.287   6.303   0.954
 5682TIP3    H216924   8.247   6.400   1.063
 5683TIP3   OH216925   7.960   5.688   0.861
 5683TIP3    H116926   7.900   5.762   0.869
 5683TIP3    H216927   7.916   5.627   0.802
 5684TIP3   OH216928   8.086   5.989   0.825
 5684TIP3    H116929   8.114   5.967   0.914
 5684TIP3    H216930   8.030   6.066   0.836
 5685TIP3   OH216931   8.813   6.416   1.031
 5685TIP3    H116932   8.797   6.335   0.984
 5685TIP3    H216933   8.908   6.427   1.030
 5686TIP3   OH216934   9.157   5.947   1.021
 5686TIP3    H116935   9.156   5.859   1.058
 5686TIP3    H216936   9.234   5.949   0.964
 5687TIP3   OH216937   8.521   5.561   0.898
 5687TIP3    H116938   8.489   5.643   0.936
 5687TIP3    H216939   8.483   5.493   0.954
 5688TIP3   OH216940   8.040   5.676   1.125
 5688TIP3    H116941   8.131   5.703   1.118
 5688TIP3    H216942   8.008   5.674   1.035
 5689TIP3   OH216943   8.723   6.068   0.761
 5689TIP3    H116944   8.803   6.019   0.782
 5689TIP3    H216945   8.663   6.002   0.728
 5690TIP3   OH216946   8.510   5.562   1.481
 5690TIP3    H116947   8.451   5.578   1.407
 5690TIP3    H216948   8.455   5.577   1.558
 5691TIP3   OH216949   8.569   6.306   1.234
 5691TIP3    H116950   8.602   6.393   1.256
 5691TIP3    H216951   8.568   6.305   1.138
 5692TIP3   OH216952   8.293   5.648   1.322
 5692TIP3    H116953   8.310   5.741   1.308
 5692TIP3    H216954   8.338   5.605   1.249
 5693TIP3   OH216955   8.472   6.549   1.452
 5693TIP3    H116956   8.446   6.591   1.370
 5693TIP3    H216957   8.389   6.526   1.494
 5694TIP3   OH216958   8.863   5.211   1.160
 5694TIP3    H116959   8.837   5.128   1.201
 5694TIP3    H216960   8.795   5.273   1.185
 5695TIP3   OH216961   8.389   6.115   0.717
 5695TIP3    H116962   8.317   6.138   0.658
 5695TIP3    H216963   8.405   6.022   0.701
 5696TIP3   OH216964   8.552   6.494   1.020
 5696TIP3    H116965   8.520   6.466   0.935
 5696TIP3    H216966   8.642   6.462   1.024
 5697TIP3   OH216967   8.627   6.041   1.227
 5697TIP3    H116968   8.589   6.009   1.145
 5697TIP3    H216969   8.595   6.131   1.234
 5698TIP3   OH216970   8.674   6.672   1.581
 5698TIP3    H116971   8.627   6.736   1.634
 5698TIP3    H216972   8.605   6.620   1.540
 5699TIP3   OH216973   8.417   6.215   1.627
 5699TIP3    H116974   8.404   6.304   1.660
 5699TIP3    H216975   8.331   6.188   1.596
 5700TIP3   OH216976   8.441   6.825   1.632
 5700TIP3    H116977   8.436   6.796   1.541
 5700TIP3    H216978   8.365   6.784   1.674
 5701TIP3   OH216979   8.030   6.326   1.540
 5701TIP3    H116980   8.025   6.309   1.446
 5701TIP3    H216981   8.066   6.245   1.577
 5702TIP3   OH216982   7.847   6.448   1.070
 5702TIP3    H116983   7.870   6.360   1.041
 5702TIP3    H216984   7.921   6.476   1.124
 5703TIP3   OH216985   8.776   6.789   1.362
 5703TIP3    H116986   8.800   6.880   1.377
 5703TIP3    H216987   8.749   6.756   1.448
 5704TIP3   OH216988   8.223   6.519   1.551
 5704TIP3    H116989   8.260   6.513   1.638
 5704TIP3    H216990   8.156   6.451   1.548
 5705TIP3   OH216991   8.582   5.230   1.312
 5705TIP3    H116992   8.486   5.232   1.303
 5705TIP3    H216993   8.611   5.314   1.277
 5706TIP3   OH216994   9.121   5.436   1.576
 5706TIP3    H116995   9.181   5.366   1.600
 5706TIP3    H216996   9.034   5.401   1.594
 5707TIP3   OH216997   8.582   5.890   1.455
 5707TIP3    H116998   8.493   5.894   1.492
 5707TIP3    H216999   8.581   5.955   1.385
 5708TIP3   OH217000   8.459   5.845   0.736
 5708TIP3    H117001   8.375   5.800   0.731
 5708TIP3    H217002   8.518   5.793   0.682
 5709TIP3   OH217003   9.122   6.101   1.677
 5709TIP3    H117004   9.121   6.019   1.726
 5709TIP3    H217005   9.214   6.127   1.675
 5710TIP3   OH217006   8.328   5.887   1.566
 5710TIP3    H117007   8.287   5.930   1.642
 5710TIP3    H217008   8.328   5.794   1.590
 5711TIP3   OH217009   8.040   5.371   1.123
 5711TIP3    H117010   8.062   5.396   1.213
 5711TIP3    H217011   8.097   5.426   1.069
 5712TIP3   OH217012   8.110   5.500   0.640
 5712TIP3    H117013   8.145   5.554   0.569
 5712TIP3    H217014   8.017   5.524   0.643
 5713TIP3   OH217015   9.162   6.142   1.221
 5713TIP3    H117016   9.143   6.088   1.144
 5713TIP3    H217017   9.075   6.165   1.255
 5714TIP3   OH217018   8.777   5.456   0.931
 5714TIP3    H117019   8.694   5.488   0.897
 5714TIP3    H217020   8.841   5.522   0.905
 5715TIP3   OH217021   8.203   5.478   0.922
 5715TIP3    H117022   8.190   5.489   0.828
 5715TIP3    H217023   8.270   5.410   0.929
 5716TIP3   OH217024   9.166   5.681   1.114
 5716TIP3    H117025   9.197   5.725   1.193
 5716TIP3    H217026   9.091   5.629   1.142
 5717TIP3   OH217027   8.392   6.452   1.760
 5717TIP3    H117028   8.477   6.471   1.800
 5717TIP3    H217029   8.329   6.461   1.832
 5718TIP3   OH217030   8.946   5.944   0.845
 5718TIP3    H117031   8.947   5.852   0.817
 5718TIP3    H217032   9.028   5.954   0.894
 5719TIP3   OH217033   8.403   5.287   0.952
 5719TIP3    H117034   8.364   5.211   0.995
 5719TIP3    H217035   8.382   5.276   0.859
 5720TIP3   OH217036   8.812   5.780   1.374
 5720TIP3    H117037   8.740   5.830   1.413
 5720TIP3    H217038   8.871   5.846   1.339
 5721TIP3   OH217039   8.992   6.629   1.316
 5721TIP3    H117040   8.988   6.561   1.383
 5721TIP3    H217041   8.914   6.682   1.331
 5722TIP3   OH217042   8.355   6.140   0.986
 5722TIP3    H117043   8.359   6.114   0.894
 5722TIP3    H217044   8.294   6.078   1.026
 5723TIP3   OH217045   8.145   6.111   1.666
 5723TIP3    H117046   8.168   6.115   1.759
 5723TIP3    H217047   8.065   6.058   1.663
 5724TIP3   OH217048   8.909   6.269   1.699
 5724TIP3    H117049   8.836   6.236   1.647
 5724TIP3    H217050   8.978   6.203   1.687
 5725TIP3   OH217051   9.177   6.723   1.142
 5725TIP3    H117052   9.113   6.687   1.203
 5725TIP3    H217053   9.235   6.776   1.196
 5726TIP3   OH217054   8.681   6.991   1.138
 5726TIP3    H117055   8.681   7.037   1.055
 5726TIP3    H217056   8.666   6.899   1.115
 5727TIP3   OH217057   9.082   6.453   1.047
 5727TIP3    H117058   9.134   6.456   1.127
 5727TIP3    H217059   9.146   6.439   0.977
 5728TIP3   OH217060   8.326   5.622   1.679
 5728TIP3    H117061   8.231   5.622   1.670
 5728TIP3    H217062   8.344   5.550   1.740
 5729TIP3   OH217063   8.050   6.707   1.459
 5729TIP3    H117064   8.120   6.655   1.497
 5729TIP3    H217065   8.089   6.793   1.442
 5730TIP3   OH217066   9.089   5.662   1.435
 5730TIP3    H117067   9.177   5.700   1.431
 5730TIP3    H217068   9.099   5.583   1.488
 5731TIP3   OH217069   9.034   5.941   1.470
 5731TIP3    H117070   9.072   5.989   1.544
 5731TIP3    H217071   9.028   5.850   1.501
 5732TIP3   OH217072   8.304   5.228   1.280
 5732TIP3    H117073   8.279   5.179   1.202
 5732TIP3    H217074   8.313   5.162   1.349
 5733TIP3   OH217075   8.050   6.996   1.785
 5733TIP3    H117076   8.126   6.986   1.843
 5733TIP3    H217077   8.012   6.909   1.780
 5734TIP3   OH217078   8.531   7.011   1.815
 5734TIP3    H117079   8.626   7.018   1.823
 5734TIP3    H217080   8.518   6.940   1.752
 5735TIP3   OH217081   9.270   7.027   1.581
 5735TIP3    H117082   9.210   6.979   1.523
 5735TIP3    H217083   9.349   6.973   1.585
 5736TIP3   OH217084   8.179   6.438   1.935
 5736TIP3    H117085   8.190   6.343   1.940
 5736TIP3    H217086   8.099   6.451   1.885
 5737TIP3   OH217087   8.861   6.544   1.731
 5737TIP3    H117088   8.805   6.566   1.657
 5737TIP3    H217089   8.877   6.450   1.722
 5738TIP3   OH217090   8.297   6.178   1.904
 5738TIP3    H117091   8.372   6.182   1.845
 5738TIP3    H217092   8.334   6.199   1.990
 5739TIP3   OH217093   8.630   6.058   1.693
 5739TIP3    H117094   8.552   6.107   1.668
 5739TIP3    H217095   8.688   6.064   1.618
 5740TIP3   OH217096   9.187   6.449   1.690
 5740TIP3    H117097   9.146   6.406   1.615
 5740TIP3    H217098   9.182   6.385   1.761
 5741TIP3   OH217099   8.808   5.817   1.701
 5741TIP3    H117100   8.784   5.734   1.660
 5741TIP3    H217101   8.736   5.876   1.681
 5742TIP3   OH217102   8.769   5.582   1.556
 5742TIP3    H117103   8.802   5.638   1.486
 5742TIP3    H217104   8.678   5.564   1.532
 5743TIP3   OH217105   8.813   6.095   1.493
 5743TIP3    H117106   8.885   6.035   1.479
 5743TIP3    H217107   8.812   6.150   1.414
 5744TIP3   OH217108   9.386   6.161   1.719
 5744TIP3    H117109   9.456   6.100   1.741
 5744TIP3    H217110   9.401   6.182   1.626
 5745TIP3   OH217111   8.643   5.950   1.942
 5745TIP3    H117112   8.580   5.878   1.944
 5745TIP3    H217113   8.636   5.986   1.854
 5746TIP3   OH217114   8.875   5.354   1.660
 5746TIP3    H117115   8.837   5.437   1.631
 5746TIP3    H217116   8.813   5.287   1.630
 5747TIP3   OH217117   9.076   5.841   1.754
 5747TIP3    H117118   9.091   5.855   1.847
 5747TIP3    H217119   8.981   5.836   1.744
 5748TIP3   OH217120   9.305   5.769   1.604
 5748TIP3    H117121   9.229   5.786   1.660
 5748TIP3    H217122   9.378   5.761   1.664
 5749TIP3   OH217123   9.526   5.743   1.777
 5749TIP3    H117124   9.517   5.671   1.840
 5749TIP3    H217125   9.512   5.821   1.829
 5750TIP3   OH217126   8.473   5.729   1.980
 5750TIP3    H117127   8.470   5.642   1.939
 5750TIP3    H217128   8.508   5.713   2.068
 5751TIP3   OH217129   9.060   5.306   1.859
 5751TIP3    H117130   9.129   5.275   1.801
 5751TIP3    H217131   8.987   5.326   1.800
 5752TIP3   OH217132   8.920   5.591   1.883
 5752TIP3    H117133   8.965   5.594   1.799
 5752TIP3    H217134   8.904   5.683   1.905
 5753TIP3   OH217135   7.832   6.585   0.839
 5753TIP3    H117136   7.844   6.525   0.912
 5753TIP3    H217137   7.920   6.609   0.811
 5754TIP3   OH217138   7.917   6.040   1.296
 5754TIP3    H117139   7.890   6.026   1.206
 5754TIP3    H217140   7.979   6.113   1.292
 5755TIP3   OH217141   8.205   5.767   1.929
 5755TIP3    H117142   8.301   5.767   1.937
 5755TIP3    H217143   8.178   5.682   1.964
 5756TIP3   OH217144   8.142   5.429   1.374
 5756TIP3    H117145   8.205   5.361   1.349
 5756TIP3    H217146   8.189   5.511   1.363
 5757TIP3   OH217147   7.940   5.767   1.361
 5757TIP3    H117148   7.980   5.724   1.286
 5757TIP3    H217149   7.947   5.861   1.343
 5758TIP3   OH217150   7.947   5.334   0.859
 5758TIP3    H117151   7.997   5.328   0.940
 5758TIP3    H217152   8.013   5.346   0.791
 5759TIP3   OH217153   8.193   5.345   1.676
 5759TIP3    H117154   8.128   5.316   1.741
 5759TIP3    H217155   8.141   5.366   1.599
 5760TIP3   OH217156   8.223   6.730   1.768
 5760TIP3    H117157   8.129   6.730   1.750
 5760TIP3    H217158   8.229   6.736   1.863
 5761TIP3   OH217159   8.508   6.862   1.345
 5761TIP3    H117160   8.478   6.931   1.286
 5761TIP3    H217161   8.601   6.851   1.325
 5762TIP3   OH217162   8.837   7.041   1.427
 5762TIP3    H117163   8.901   7.019   1.495
 5762TIP3    H217164   8.886   7.094   1.365
 5763TIP3   OH217165   9.010   7.198   1.275
 5763TIP3    H117166   9.088   7.163   1.232
 5763TIP3    H217167   9.039   7.219   1.364
 5764TIP3   OH217168   8.126   6.964   1.400
 5764TIP3    H117169   8.061   6.997   1.338
 5764TIP3    H217170   8.135   7.034   1.465
 5765TIP3   OH217171   8.313   7.003   1.195
 5765TIP3    H117172   8.255   6.977   1.266
 5765TIP3    H217173   8.259   6.997   1.116
 5766TIP3   OH217174   7.911   6.885   0.973
 5766TIP3    H117175   7.852   6.832   1.026
 5766TIP3    H217176   7.963   6.822   0.924
 5767TIP3   OH217177   8.079   6.706   0.851
 5767TIP3    H117178   8.154   6.677   0.904
 5767TIP3    H217179   8.119   6.746   0.774
 5768TIP3   OH217180   8.464   6.876   0.887
 5768TIP3    H117181   8.427   6.795   0.922
 5768TIP3    H217182   8.459   6.937   0.960
 5769TIP3   OH217183   9.094   5.373   0.973
 5769TIP3    H117184   9.009   5.359   1.015
 5769TIP3    H217185   9.075   5.369   0.879
 5770TIP3   OH217186   8.259   5.081   1.055
 5770TIP3    H117187   8.172   5.040   1.062
 5770TIP3    H217188   8.318   5.009   1.036
 5771TIP3   OH217189   8.191   5.036   0.732
 5771TIP3    H117190   8.197   4.984   0.651
 5771TIP3    H217191   8.097   5.049   0.745
 5772TIP3   OH217192   8.757   5.173   0.904
 5772TIP3    H117193   8.752   5.265   0.881
 5772TIP3    H217194   8.804   5.171   0.987
 5773TIP3   OH217195   8.459   5.453   1.912
 5773TIP3    H117196   8.429   5.374   1.956
 5773TIP3    H217197   8.551   5.461   1.938
 5774TIP3   OH217198   8.711   5.466   2.013
 5774TIP3    H117199   8.784   5.491   1.956
 5774TIP3    H217200   8.737   5.383   2.051
 5775TIP3   OH217201   9.698   7.066   2.863
 5775TIP3    H117202   9.734   6.997   2.918
 5775TIP3    H217203   9.664   7.131   2.925
 5776TIP3   OH217204   0.504   6.259   3.173
 5776TIP3    H117205   0.518   6.347   3.209
 5776TIP3    H217206   0.539   6.264   3.084
 5777TIP3   OH217207   9.671   6.481   3.156
 5777TIP3    H117208   9.666   6.436   3.240
 5777TIP3    H217209   9.633   6.420   3.094
 5778TIP3   OH217210  -0.009   6.293   2.821
 5778TIP3    H117211   0.043   6.241   2.881
 5778TIP3    H217212   0.018   6.264   2.734
 5779TIP3   OH217213   0.540   6.486   3.332
 5779TIP3    H117214   0.475   6.540   3.287
 5779TIP3    H217215   0.496   6.457   3.412
 5780TIP3   OH217216   0.141   6.168   3.048
 5780TIP3    H117217   0.052   6.170   3.084
 5780TIP3    H217218   0.174   6.257   3.060
 5781TIP3   OH217219   0.299   6.197   3.352
 5781TIP3    H117220   0.218   6.167   3.311
 5781TIP3    H217221   0.359   6.211   3.279
 5782TIP3   OH217222   0.164   7.227   3.347
 5782TIP3    H117223   0.150   7.148   3.295
 5782TIP3    H217224   0.129   7.298   3.293
 5783TIP3   OH217225   0.356   6.835   3.201
 5783TIP3    H117226   0.281   6.893   3.211
 5783TIP3    H217227   0.383   6.847   3.110
 5784TIP3   OH217228   9.610   6.573   2.514
 5784TIP3    H117229   9.543   6.604   2.454
 5784TIP3    H217230   9.672   6.646   2.521
 5785TIP3   OH217231   9.765   6.831   3.333
 5785TIP3    H117232   9.815   6.889   3.390
 5785TIP3    H217233   9.783   6.743   3.365
 5786TIP3   OH217234   0.182   5.738   2.440
 5786TIP3    H117235   0.101   5.759   2.486
 5786TIP3    H217236   0.197   5.814   2.384
 5787TIP3   OH217237   0.410   7.535   3.383
 5787TIP3    H117238   0.418   7.441   3.396
 5787TIP3    H217239   0.332   7.560   3.431
 5788TIP3   OH217240   0.248   6.657   3.576
 5788TIP3    H117241   0.227   6.722   3.642
 5788TIP3    H217242   0.255   6.575   3.623
 5789TIP3   OH217243   9.650   5.881   3.731
 5789TIP3    H117244   9.729   5.934   3.716
 5789TIP3    H217245   9.583   5.944   3.756
 5790TIP3   OH217246   0.069   6.330   3.531
 5790TIP3    H117247   0.156   6.325   3.568
 5790TIP3    H217248   0.017   6.377   3.596
 5791TIP3   OH217249   9.517   6.331   2.994
 5791TIP3    H117250   9.528   6.390   2.919
 5791TIP3    H217251   9.506   6.244   2.955
 5792TIP3   OH217252   0.067   6.022   3.356
 5792TIP3    H117253   0.010   6.036   3.432
 5792TIP3    H217254   0.012   6.042   3.281
 5793TIP3   OH217255   0.149   7.014   3.175
 5793TIP3    H117256   0.187   7.053   3.096
 5793TIP3    H217257   0.075   6.962   3.143
 5794TIP3   OH217258   9.452   6.108   2.477
 5794TIP3    H117259   9.392   6.125   2.405
 5794TIP3    H217260   9.529   6.070   2.435
 5795TIP3   OH217261   9.683   6.326   2.404
 5795TIP3    H117262   9.750   6.315   2.472
 5795TIP3    H217263   9.643   6.411   2.424
 5796TIP3   OH217264   0.207   6.381   2.335
 5796TIP3    H117265   0.146   6.337   2.276
 5796TIP3    H217266   0.206   6.472   2.306
 5797TIP3   OH217267   0.422   7.250   3.422
 5797TIP3    H117268   0.327   7.246   3.413
 5797TIP3    H217269   0.455   7.218   3.338
 5798TIP3   OH217270   9.758   6.865   3.037
 5798TIP3    H117271   9.687   6.851   3.099
 5798TIP3    H217272   9.787   6.776   3.014
 5799TIP3   OH217273   9.726   6.108   3.583
 5799TIP3    H117274   9.791   6.175   3.565
 5799TIP3    H217275   9.688   6.133   3.667
 5800TIP3   OH217276   9.648   6.066   2.668
 5800TIP3    H117277   9.569   6.087   2.619
 5800TIP3    H217278   9.629   6.094   2.758
 5801TIP3   OH217279   0.383   6.393   3.532
 5801TIP3    H117280   0.347   6.371   3.618
 5801TIP3    H217281   0.353   6.323   3.475
 5802TIP3   OH217282   0.044   6.602   2.986
 5802TIP3    H117283  -0.020   6.565   3.047
 5802TIP3    H217284   0.123   6.550   3.001
 5803TIP3   OH217285   9.762   7.414   2.939
 5803TIP3    H117286   9.683   7.361   2.951
 5803TIP3    H217287   9.766   7.428   2.844
 5804TIP3   OH217288   9.762   6.656   3.879
 5804TIP3    H117289   9.805   6.590   3.933
 5804TIP3    H217290   9.832   6.715   3.851
 5805TIP3   OH217291   0.077   6.977   3.537
 5805TIP3    H117292   0.019   7.053   3.528
 5805TIP3    H217293   0.165   7.014   3.537
 5806TIP3   OH217294   9.720   6.427   3.730
 5806TIP3    H117295   9.677   6.352   3.771
 5806TIP3    H217296   9.702   6.500   3.789
 5807TIP3   OH217297   0.297   6.237   3.990
 5807TIP3    H117298   0.223   6.181   4.012
 5807TIP3    H217299   0.308   6.294   4.066
 5808TIP3   OH217300   0.292   7.772   2.913
 5808TIP3    H117301   0.267   7.711   2.982
 5808TIP3    H217302   0.309   7.716   2.837
 5809TIP3   OH217303   0.255   7.629   3.154
 5809TIP3    H117304   0.201   7.550   3.159
 5809TIP3    H217305   0.328   7.613   3.213
 5810TIP3   OH217306   0.235   7.337   3.813
 5810TIP3    H117307   0.162   7.367   3.867
 5810TIP3    H217308   0.291   7.414   3.804
 5811TIP3   OH217309   0.147   6.832   2.351
 5811TIP3    H117310   0.197   6.910   2.328
 5811TIP3    H217311   0.190   6.797   2.428
 5812TIP3   OH217312   0.274   6.695   2.556
 5812TIP3    H117313   0.207   6.657   2.614
 5812TIP3    H217314   0.336   6.737   2.616
 5813TIP3   OH217315   0.319   7.111   2.982
 5813TIP3    H117316   0.359   7.033   2.945
 5813TIP3    H217317   0.339   7.181   2.919
 5814TIP3   OH217318   0.052   7.435   3.192
 5814TIP3    H117319   0.003   7.515   3.212
 5814TIP3    H217320   0.034   7.417   3.100
 5815TIP3   OH217321   0.169   6.613   2.196
 5815TIP3    H117322   0.100   6.611   2.130
 5815TIP3    H217323   0.153   6.692   2.247
 5816TIP3   OH217324   9.822   6.280   2.166
 5816TIP3    H117325   9.749   6.290   2.227
 5816TIP3    H217326   9.817   6.189   2.137
 5817TIP3   OH217327   0.093   6.561   2.711
 5817TIP3    H117328   0.080   6.467   2.707
 5817TIP3    H217329   0.061   6.586   2.798
 5818TIP3   OH217330   0.355   7.006   3.558
 5818TIP3    H117331   0.413   6.931   3.550
 5818TIP3    H217332   0.395   7.073   3.502
 5819TIP3   OH217333   0.506   6.770   3.543
 5819TIP3    H117334   0.427   6.716   3.551
 5819TIP3    H217335   0.576   6.716   3.581
 5820TIP3   OH217336   0.015   6.013   2.107
 5820TIP3    H117337   0.084   5.995   2.171
 5820TIP3    H217338  -0.058   5.957   2.135
 5821TIP3   OH217339   0.097   6.273   2.568
 5821TIP3    H117340   0.139   6.187   2.580
 5821TIP3    H217341   0.150   6.315   2.500
 5822TIP3   OH217342   0.233   6.425   3.094
 5822TIP3    H117343   0.317   6.448   3.054
 5822TIP3    H217344   0.233   6.472   3.177
 5823TIP3   OH217345   0.275   6.596   3.305
 5823TIP3    H117346   0.270   6.613   3.399
 5823TIP3    H217347   0.294   6.681   3.267
 5824TIP3   OH217348   0.749   6.186   3.870
 5824TIP3    H117349   0.808   6.122   3.830
 5824TIP3    H217350   0.722   6.242   3.798
 5825TIP3   OH217351   0.193   6.020   2.620
 5825TIP3    H117352   0.228   6.000   2.707
 5825TIP3    H217353   0.124   5.955   2.606
 5826TIP3   OH217354   0.638   6.319   3.658
 5826TIP3    H117355   0.565   6.346   3.713
 5826TIP3    H217356   0.606   6.244   3.610
 5827TIP3   OH217357   0.237   5.944   2.264
 5827TIP3    H117358   0.288   5.886   2.206
 5827TIP3    H217359   0.291   6.023   2.270
 5828TIP3   OH217360   0.547   6.070   3.561
 5828TIP3    H117361   0.451   6.075   3.564
 5828TIP3    H217362   0.565   5.976   3.565
 5829TIP3   OH217363   9.449   6.010   3.143
 5829TIP3    H117364   9.378   6.026   3.205
 5829TIP3    H217365   9.509   5.952   3.190
 5830TIP3   OH217366   0.240   5.907   3.090
 5830TIP3    H117367   0.287   5.910   3.007
 5830TIP3    H217368   0.195   5.992   3.096
 5831TIP3   OH217369   0.340   5.945   2.842
 5831TIP3    H117370   0.413   5.894   2.807
 5831TIP3    H217371   0.370   6.036   2.837
 5832TIP3   OH217372   9.712   5.853   2.918
 5832TIP3    H117373   9.627   5.845   2.874
 5832TIP3    H217374   9.691   5.883   3.006
 5833TIP3   OH217375   9.785   5.839   2.604
 5833TIP3    H117376   9.728   5.908   2.640
 5833TIP3    H217377   9.761   5.760   2.652
 5834TIP3   OH217378   0.268   5.944   3.998
 5834TIP3    H117379   0.288   5.945   4.092
 5834TIP3    H217380   0.344   5.983   3.956
 5835TIP3   OH217381   0.178   7.580   3.525
 5835TIP3    H117382   0.148   7.501   3.570
 5835TIP3    H217383   0.185   7.646   3.593
 5836TIP3   OH217384   1.421   6.980   2.255
 5836TIP3    H117385   1.389   7.068   2.235
 5836TIP3    H217386   1.351   6.922   2.226
 5837TIP3   OH217387   1.417   6.978   2.648
 5837TIP3    H117388   1.436   6.966   2.741
 5837TIP3    H217389   1.379   6.894   2.620
 5838TIP3   OH217390   0.724   6.836   3.011
 5838TIP3    H117391   0.761   6.786   3.084
 5838TIP3    H217392   0.800   6.861   2.958
 5839TIP3   OH217393   1.698   7.275   2.338
 5839TIP3    H117394   1.676   7.213   2.408
 5839TIP3    H217395   1.712   7.358   2.383
 5840TIP3   OH217396   0.700   7.254   2.717
 5840TIP3    H117397   0.689   7.159   2.711
 5840TIP3    H217398   0.794   7.268   2.707
 5841TIP3   OH217399   0.418   6.465   2.493
 5841TIP3    H117400   0.380   6.550   2.517
 5841TIP3    H217401   0.353   6.425   2.436
 5842TIP3   OH217402   0.493   6.784   2.702
 5842TIP3    H117403   0.544   6.707   2.728
 5842TIP3    H217404   0.558   6.850   2.680
 5843TIP3   OH217405   1.353   7.701   2.357
 5843TIP3    H117406   1.386   7.642   2.290
 5843TIP3    H217407   1.336   7.645   2.433
 5844TIP3   OH217408   1.225   7.200   2.672
 5844TIP3    H117409   1.268   7.130   2.623
 5844TIP3    H217410   1.296   7.251   2.710
 5845TIP3   OH217411   2.267   6.510   2.686
 5845TIP3    H117412   2.277   6.595   2.729
 5845TIP3    H217413   2.309   6.521   2.601
 5846TIP3   OH217414   0.992   6.336   2.661
 5846TIP3    H117415   0.974   6.412   2.606
 5846TIP3    H217416   0.937   6.267   2.625
 5847TIP3   OH217417   1.694   6.443   2.318
 5847TIP3    H117418   1.765   6.436   2.381
 5847TIP3    H217419   1.735   6.479   2.239
 5848TIP3   OH217420   0.631   6.562   2.796
 5848TIP3    H117421   0.712   6.539   2.840
 5848TIP3    H217422   0.631   6.511   2.716
 5849TIP3   OH217423   1.051   6.753   2.622
 5849TIP3    H117424   1.145   6.743   2.612
 5849TIP3    H217425   1.014   6.674   2.583
 5850TIP3   OH217426   2.298   6.721   2.871
 5850TIP3    H117427   2.227   6.780   2.848
 5850TIP3    H217428   2.355   6.772   2.928
 5851TIP3   OH217429   0.978   6.349   3.125
 5851TIP3    H117430   0.924   6.377   3.051
 5851TIP3    H217431   0.924   6.367   3.202
 5852TIP3   OH217432   1.292   7.193   2.142
 5852TIP3    H117433   1.273   7.175   2.050
 5852TIP3    H217434   1.252   7.279   2.158
 5853TIP3   OH217435   1.081   7.113   2.892
 5853TIP3    H117436   1.025   7.182   2.927
 5853TIP3    H217437   1.124   7.153   2.816
 5854TIP3   OH217438   1.909   6.459   2.491
 5854TIP3    H117439   1.991   6.421   2.461
 5854TIP3    H217440   1.934   6.543   2.530
 5855TIP3   OH217441   0.868   6.439   2.885
 5855TIP3    H117442   0.921   6.516   2.907
 5855TIP3    H217443   0.913   6.399   2.811
 5856TIP3   OH217444   0.916   7.314   2.991
 5856TIP3    H117445   0.907   7.404   2.958
 5856TIP3    H217446   0.836   7.299   3.042
 5857TIP3   OH217447   0.315   7.035   2.254
 5857TIP3    H117448   0.301   7.056   2.162
 5857TIP3    H217449   0.332   7.120   2.295
 5858TIP3   OH217450   1.720   7.523   2.479
 5858TIP3    H117451   1.634   7.517   2.520
 5858TIP3    H217452   1.718   7.607   2.432
 5859TIP3   OH217453   2.046   6.416   2.834
 5859TIP3    H117454   1.976   6.419   2.770
 5859TIP3    H217455   2.125   6.439   2.784
 5860TIP3   OH217456   1.309   6.017   2.848
 5860TIP3    H117457   1.305   5.928   2.882
 5860TIP3    H217458   1.234   6.061   2.888
 5861TIP3   OH217459   1.450   7.549   2.149
 5861TIP3    H117460   1.497   7.468   2.130
 5861TIP3    H217461   1.506   7.618   2.114
 5862TIP3   OH217462   1.600   7.332   2.082
 5862TIP3    H117463   1.599   7.254   2.026
 5862TIP3    H217464   1.637   7.302   2.165
 5863TIP3   OH217465   1.957   7.414   2.824
 5863TIP3    H117466   1.943   7.341   2.765
 5863TIP3    H217467   1.941   7.492   2.770
 5864TIP3   OH217468   1.242   6.827   2.102
 5864TIP3    H117469   1.163   6.879   2.085
 5864TIP3    H217470   1.290   6.829   2.019
 5865TIP3   OH217471   1.238   6.609   1.815
 5865TIP3    H117472   1.301   6.664   1.861
 5865TIP3    H217473   1.291   6.550   1.761
 5866TIP3   OH217474   2.141   7.086   2.703
 5866TIP3    H117475   2.057   7.131   2.696
 5866TIP3    H217476   2.180   7.094   2.616
 5867TIP3   OH217477   1.612   6.913   2.071
 5867TIP3    H117478   1.556   6.941   2.143
 5867TIP3    H217479   1.695   6.889   2.113
 5868TIP3   OH217480   1.849   6.990   2.964
 5868TIP3    H117481   1.845   7.050   3.039
 5868TIP3    H217482   1.831   7.045   2.888
 5869TIP3   OH217483   0.834   6.870   2.474
 5869TIP3    H117484   0.800   6.809   2.410
 5869TIP3    H217485   0.912   6.827   2.509
 5870TIP3   OH217486   0.962   7.307   2.620
 5870TIP3    H117487   0.933   7.293   2.530
 5870TIP3    H217488   1.051   7.273   2.623
 5871TIP3   OH217489   0.940   6.883   2.839
 5871TIP3    H117490   0.980   6.848   2.759
 5871TIP3    H217491   0.989   6.964   2.856
 5872TIP3   OH217492   1.489   7.518   2.623
 5872TIP3    H117493   1.477   7.602   2.668
 5872TIP3    H217494   1.465   7.452   2.688
 5873TIP3   OH217495   1.110   7.412   3.164
 5873TIP3    H117496   1.051   7.473   3.208
 5873TIP3    H217497   1.054   7.362   3.105
 5874TIP3   OH217498   1.444   6.772   1.907
 5874TIP3    H117499   1.501   6.829   1.958
 5874TIP3    H217500   1.472   6.783   1.817
 5875TIP3   OH217501   0.871   6.963   3.303
 5875TIP3    H117502   0.876   7.057   3.322
 5875TIP3    H217503   0.777   6.945   3.298
 5876TIP3   OH217504   1.192   7.454   2.166
 5876TIP3    H117505   1.281   7.488   2.165
 5876TIP3    H217506   1.141   7.518   2.116
 5877TIP3   OH217507   0.909   7.580   3.245
 5877TIP3    H117508   0.882   7.591   3.154
 5877TIP3    H217509   0.827   7.562   3.292
 5878TIP3   OH217510   1.951   5.996   1.950
 5878TIP3    H117511   1.875   6.018   2.004
 5878TIP3    H217512   1.961   6.070   1.891
 5879TIP3   OH217513   0.719   6.702   2.280
 5879TIP3    H117514   0.647   6.757   2.251
 5879TIP3    H217515   0.682   6.613   2.282
 5880TIP3   OH217516   1.774   7.376   1.499
 5880TIP3    H117517   1.772   7.469   1.474
 5880TIP3    H217518   1.863   7.348   1.477
 5881TIP3   OH217519   0.504   7.137   3.190
 5881TIP3    H117520   0.438   7.124   3.121
 5881TIP3    H217521   0.537   7.049   3.208
 5882TIP3   OH217522   0.441   7.307   2.824
 5882TIP3    H117523   0.525   7.286   2.784
 5882TIP3    H217524   0.460   7.379   2.884
 5883TIP3   OH217525   2.196   7.767   2.906
 5883TIP3    H117526   2.198   7.673   2.923
 5883TIP3    H217527   2.115   7.797   2.948
 5884TIP3   OH217528   1.302   7.554   3.029
 5884TIP3    H117529   1.293   7.646   3.056
 5884TIP3    H217530   1.232   7.508   3.075
 5885TIP3   OH217531   1.101   7.668   2.000
 5885TIP3    H117532   1.039   7.650   1.930
 5885TIP3    H217533   1.086   7.760   2.023
 5886TIP3   OH217534   0.514   7.535   2.388
 5886TIP3    H117535   0.567   7.527   2.467
 5886TIP3    H217536   0.462   7.455   2.385
 5887TIP3   OH217537   1.286   7.586   1.603
 5887TIP3    H117538   1.348   7.525   1.563
 5887TIP3    H217539   1.323   7.605   1.689
 5888TIP3   OH217540   1.346   7.637   1.871
 5888TIP3    H117541   1.263   7.639   1.919
 5888TIP3    H217542   1.412   7.615   1.938
 5889TIP3   OH217543   2.067   6.875   3.156
 5889TIP3    H117544   1.986   6.895   3.110
 5889TIP3    H217545   2.077   6.780   3.146
 5890TIP3   OH217546   0.694   7.331   3.156
 5890TIP3    H117547   0.741   7.328   3.239
 5890TIP3    H217548   0.626   7.265   3.164
 5891TIP3   OH217549   1.080   6.129   2.980
 5891TIP3    H117550   0.996   6.097   2.946
 5891TIP3    H217551   1.059   6.210   3.026
 5892TIP3   OH217552   1.604   6.319   3.222
 5892TIP3    H117553   1.676   6.265   3.255
 5892TIP3    H217554   1.526   6.263   3.229
 5893TIP3   OH217555   1.537   6.783   1.655
 5893TIP3    H117556   1.493   6.764   1.572
 5893TIP3    H217557   1.618   6.827   1.629
 5894TIP3   OH217558   1.234   6.173   1.953
 5894TIP3    H117559   1.193   6.177   2.039
 5894TIP3    H217560   1.199   6.092   1.914
 5895TIP3   OH217561   1.006   6.654   2.979
 5895TIP3    H117562   0.962   6.663   3.063
 5895TIP3    H217563   0.985   6.734   2.931
 5896TIP3   OH217564   0.907   6.547   2.509
 5896TIP3    H117565   0.818   6.525   2.535
 5896TIP3    H217566   0.913   6.518   2.418
 5897TIP3   OH217567   1.371   6.616   2.225
 5897TIP3    H117568   1.323   6.690   2.187
 5897TIP3    H217569   1.428   6.585   2.155
 5898TIP3   OH217570   1.570   6.870   3.294
 5898TIP3    H117571   1.539   6.813   3.364
 5898TIP3    H217572   1.659   6.893   3.318
 5899TIP3   OH217573   1.531   6.627   2.452
 5899TIP3    H117574   1.471   6.643   2.378
 5899TIP3    H217575   1.582   6.551   2.425
 5900TIP3   OH217576   0.860   6.684   3.208
 5900TIP3    H117577   0.863   6.753   3.274
 5900TIP3    H217578   0.840   6.604   3.257
 5901TIP3   OH217579   0.890   6.143   1.929
 5901TIP3    H117580   0.883   6.159   2.023
 5901TIP3    H217581   0.815   6.187   1.891
 5902TIP3   OH217582   0.445   6.186   2.785
 5902TIP3    H117583   0.514   6.229   2.836
 5902TIP3    H217584   0.473   6.196   2.694
 5903TIP3   OH217585   0.384   6.177   2.285
 5903TIP3    H117586   0.428   6.210   2.206
 5903TIP3    H217587   0.323   6.246   2.309
 5904TIP3   OH217588   1.530   6.905   2.900
 5904TIP3    H117589   1.581   6.850   2.840
 5904TIP3    H217590   1.595   6.936   2.964
 5905TIP3   OH217591   1.251   6.330   2.549
 5905TIP3    H117592   1.172   6.326   2.603
 5905TIP3    H217593   1.322   6.306   2.609
 5906TIP3   OH217594   0.673   6.415   2.571
 5906TIP3    H117595   0.586   6.423   2.533
 5906TIP3    H217596   0.702   6.327   2.547
 5907TIP3   OH217597   0.908   6.419   2.265
 5907TIP3    H117598   1.002   6.430   2.254
 5907TIP3    H217599   0.872   6.434   2.177
 5908TIP3   OH217600   0.802   6.430   2.016
 5908TIP3    H117601   0.734   6.387   1.963
 5908TIP3    H217602   0.856   6.476   1.952
 5909TIP3   OH217603   1.911   8.114   2.990
 5909TIP3    H117604   1.905   8.132   2.896
 5909TIP3    H217605   1.986   8.164   3.020
 5910TIP3   OH217606   0.854   7.228   3.393
 5910TIP3    H117607   0.934   7.252   3.441
 5910TIP3    H217608   0.783   7.245   3.455
 5911TIP3   OH217609   1.332   6.704   2.634
 5911TIP3    H117610   1.397   6.676   2.570
 5911TIP3    H217611   1.337   6.639   2.703
 5912TIP3   OH217612   0.805   6.170   2.532
 5912TIP3    H117613   0.778   6.094   2.584
 5912TIP3    H217614   0.818   6.136   2.444
 5913TIP3   OH217615   1.278   6.653   2.984
 5913TIP3    H117616   1.185   6.636   2.969
 5913TIP3    H217617   1.286   6.748   2.980
 5914TIP3   OH217618   1.004   6.979   2.046
 5914TIP3    H117619   0.943   6.907   2.033
 5914TIP3    H217620   0.987   7.009   2.136
 5915TIP3   OH217621   1.900   7.208   2.649
 5915TIP3    H117622   1.939   7.258   2.576
 5915TIP3    H217623   1.821   7.169   2.611
 5916TIP3   OH217624   1.488   6.268   1.962
 5916TIP3    H117625   1.395   6.248   1.953
 5916TIP3    H217626   1.493   6.363   1.964
 5917TIP3   OH217627   1.430   7.295   3.077
 5917TIP3    H117628   1.479   7.286   3.159
 5917TIP3    H217629   1.390   7.381   3.082
 5918TIP3   OH217630   1.544   6.536   2.019
 5918TIP3    H117631   1.639   6.541   2.029
 5918TIP3    H217632   1.521   6.613   1.967
 5919TIP3   OH217633   0.708   6.972   2.694
 5919TIP3    H117634   0.743   6.948   2.608
 5919TIP3    H217635   0.774   6.944   2.756
 5920TIP3   OH217636   1.186   7.107   1.889
 5920TIP3    H117637   1.150   7.196   1.882
 5920TIP3    H217638   1.121   7.059   1.940
 5921TIP3   OH217639   0.600   6.897   3.316
 5921TIP3    H117640   0.596   6.870   3.408
 5921TIP3    H217641   0.522   6.859   3.276
 5922TIP3   OH217642   1.338   7.036   3.347
 5922TIP3    H117643   1.266   6.980   3.316
 5922TIP3    H217644   1.416   6.996   3.309
 5923TIP3   OH217645   1.571   7.575   2.953
 5923TIP3    H117646   1.476   7.563   2.959
 5923TIP3    H217647   1.595   7.617   3.035
 5924TIP3   OH217648   1.947   6.628   1.841
 5924TIP3    H117649   1.890   6.582   1.779
 5924TIP3    H217650   1.955   6.717   1.807
 5925TIP3   OH217651   2.201   7.484   2.924
 5925TIP3    H117652   2.107   7.473   2.909
 5925TIP3    H217653   2.241   7.464   2.839
 5926TIP3   OH217654   1.707   7.458   1.762
 5926TIP3    H117655   1.673   7.391   1.822
 5926TIP3    H217656   1.720   7.412   1.679
 5927TIP3   OH217657   1.673   7.071   2.552
 5927TIP3    H117658   1.580   7.056   2.570
 5927TIP3    H217659   1.703   6.990   2.511
 5928TIP3   OH217660   0.821   7.294   2.381
 5928TIP3    H117661   0.822   7.372   2.326
 5928TIP3    H217662   0.728   7.271   2.389
 5929TIP3   OH217663   0.424   6.593   2.096
 5929TIP3    H117664   0.462   6.679   2.114
 5929TIP3    H217665   0.336   6.597   2.132
 5930TIP3   OH217666   0.931   7.057   2.293
 5930TIP3    H117667   0.906   7.145   2.319
 5930TIP3    H217668   0.895   7.000   2.361
 5931TIP3   OH217669   1.124   7.634   2.820
 5931TIP3    H117670   1.157   7.711   2.774
 5931TIP3    H217671   1.198   7.602   2.871
 5932TIP3   OH217672   0.745   7.517   2.237
 5932TIP3    H117673   0.656   7.528   2.269
 5932TIP3    H217674   0.786   7.602   2.248
 5933TIP3   OH217675   1.454   7.298   2.801
 5933TIP3    H117676   1.441   7.293   2.895
 5933TIP3    H217677   1.545   7.271   2.787
 5934TIP3   OH217678   1.484   7.163   1.658
 5934TIP3    H117679   1.521   7.146   1.744
 5934TIP3    H217680   1.398   7.120   1.660
 5935TIP3   OH217681   1.725   7.795   2.823
 5935TIP3    H117682   1.649   7.739   2.838
 5935TIP3    H217683   1.697   7.855   2.754
 5936TIP3   OH217684   1.786   7.648   1.454
 5936TIP3    H117685   1.832   7.712   1.399
 5936TIP3    H217686   1.703   7.690   1.477
 5937TIP3   OH217687   0.809   6.433   3.334
 5937TIP3    H117688   0.715   6.449   3.332
 5937TIP3    H217689   0.824   6.385   3.415
 5938TIP3   OH217690   1.636   7.120   1.890
 5938TIP3    H117691   1.621   7.046   1.949
 5938TIP3    H217692   1.729   7.117   1.871
 5939TIP3   OH217693   0.538   7.521   2.985
 5939TIP3    H117694   0.596   7.469   3.041
 5939TIP3    H217695   0.553   7.611   3.013
 5940TIP3   OH217696   0.854   7.144   1.675
 5940TIP3    H117697   0.838   7.052   1.655
 5940TIP3    H217698   0.835   7.152   1.769
 5941TIP3   OH217699   0.804   7.171   1.949
 5941TIP3    H117700   0.878   7.121   1.984
 5941TIP3    H217701   0.824   7.262   1.972
 5942TIP3   OH217702   0.508   6.847   2.181
 5942TIP3    H117703   0.439   6.893   2.229
 5942TIP3    H217704   0.537   6.909   2.114
 5943TIP3   OH217705   1.542   6.224   2.229
 5943TIP3    H117706   1.522   6.242   2.138
 5943TIP3    H217707   1.586   6.303   2.260
 5944TIP3   OH217708   1.073   7.351   1.885
 5944TIP3    H117709   0.999   7.381   1.938
 5944TIP3    H217710   1.089   7.423   1.824
 5945TIP3   OH217711   1.185   6.427   2.298
 5945TIP3    H117712   1.247   6.494   2.270
 5945TIP3    H217713   1.211   6.406   2.388
 5946TIP3   OH217714   1.517   6.645   3.130
 5946TIP3    H117715   1.441   6.648   3.072
 5946TIP3    H217716   1.524   6.734   3.164
 5947TIP3   OH217717   1.346   6.117   2.391
 5947TIP3    H117718   1.321   6.192   2.447
 5947TIP3    H217719   1.418   6.149   2.338
 5948TIP3   OH217720   0.838   7.441   1.991
 5948TIP3    H117721   0.781   7.490   1.932
 5948TIP3    H217722   0.810   7.469   2.079
 5949TIP3   OH217723   0.862   6.144   2.214
 5949TIP3    H117724   0.848   6.237   2.235
 5949TIP3    H217725   0.957   6.133   2.216
 5950TIP3   OH217726   2.098   6.613   3.042
 5950TIP3    H117727   2.059   6.541   2.993
 5950TIP3    H217728   2.167   6.647   2.985
 5951TIP3   OH217729   1.753   6.808   2.470
 5951TIP3    H117730   1.679   6.748   2.475
 5951TIP3    H217731   1.823   6.765   2.518
 5952TIP3   OH217732   0.559   7.056   2.001
 5952TIP3    H117733   0.643   7.101   1.993
 5952TIP3    H217734   0.562   6.986   1.935
 5953TIP3   OH217735   0.453   6.320   2.066
 5953TIP3    H117736   0.456   6.415   2.078
 5953TIP3    H217737   0.409   6.308   1.981
 5954TIP3   OH217738   1.744   7.792   2.400
 5954TIP3    H117739   1.702   7.837   2.326
 5954TIP3    H217740   1.838   7.802   2.384
 5955TIP3   OH217741   0.822   6.044   2.929
 5955TIP3    H117742   0.793   6.015   2.843
 5955TIP3    H217743   0.815   5.966   2.984
 5956TIP3   OH217744   0.342   7.300   2.339
 5956TIP3    H117745   0.308   7.331   2.423
 5956TIP3    H217746   0.299   7.356   2.274
 5957TIP3   OH217747   0.521   7.829   3.396
 5957TIP3    H117748   0.603   7.827   3.445
 5957TIP3    H217749   0.491   7.738   3.395
 5958TIP3   OH217750   1.004   7.742   3.450
 5958TIP3    H117751   1.097   7.719   3.457
 5958TIP3    H217752   0.973   7.690   3.375
 5959TIP3   OH217753   0.937   7.386   1.572
 5959TIP3    H117754   0.897   7.305   1.603
 5959TIP3    H217755   1.017   7.358   1.529
 5960TIP3   OH217756   1.626   7.681   3.200
 5960TIP3    H117757   1.642   7.613   3.266
 5960TIP3    H217758   1.699   7.742   3.211
 5961TIP3   OH217759   1.441   7.386   1.505
 5961TIP3    H117760   1.470   7.315   1.562
 5961TIP3    H217761   1.509   7.391   1.437
 5962TIP3   OH217762   0.650   7.240   3.582
 5962TIP3    H117763   0.663   7.147   3.599
 5962TIP3    H217764   0.564   7.245   3.539
 5963TIP3   OH217765   0.640   6.845   1.853
 5963TIP3    H117766   0.707   6.813   1.914
 5963TIP3    H217767   0.686   6.860   1.771
 5964TIP3   OH217768   1.269   7.314   3.365
 5964TIP3    H117769   1.222   7.335   3.285
 5964TIP3    H217770   1.305   7.226   3.349
 5965TIP3   OH217771   1.223   7.058   1.623
 5965TIP3    H117772   1.201   7.071   1.715
 5965TIP3    H217773   1.218   6.963   1.610
 5966TIP3   OH217774   1.730   7.344   2.962
 5966TIP3    H117775   1.809   7.377   2.917
 5966TIP3    H217776   1.669   7.417   2.959
 5967TIP3   OH217777   0.760   6.981   3.598
 5967TIP3    H117778   0.837   6.971   3.542
 5967TIP3    H217779   0.797   7.002   3.684
 5968TIP3   OH217780   0.840   6.762   2.027
 5968TIP3    H117781   0.811   6.724   2.110
 5968TIP3    H217782   0.881   6.690   1.980
 5969TIP3   OH217783   1.135   6.872   3.239
 5969TIP3    H117784   1.046   6.907   3.251
 5969TIP3    H217785   1.158   6.895   3.150
 5970TIP3   OH217786   0.963   6.581   1.853
 5970TIP3    H117787   0.936   6.600   1.763
 5970TIP3    H217788   1.059   6.585   1.850
 5971TIP3   OH217789   1.614   7.235   3.323
 5971TIP3    H117790   1.691   7.207   3.274
 5971TIP3    H217791   1.614   7.180   3.401
 5972TIP3   OH217792   1.755   6.893   1.524
 5972TIP3    H117793   1.744   6.845   1.442
 5972TIP3    H217794   1.729   6.983   1.503
 5973TIP3   OH217795   1.228   6.644   3.362
 5973TIP3    H117796   1.224   6.569   3.302
 5973TIP3    H217797   1.194   6.718   3.312
 5974TIP3   OH217798   1.235   6.437   3.167
 5974TIP3    H117799   1.255   6.495   3.094
 5974TIP3    H217800   1.145   6.409   3.152
 5975TIP3   OH217801   1.260   6.928   2.995
 5975TIP3    H117802   1.350   6.950   2.969
 5975TIP3    H217803   1.207   6.999   2.960
 5976TIP3   OH217804   1.834   6.912   3.407
 5976TIP3    H117805   1.888   6.834   3.415
 5976TIP3    H217806   1.897   6.984   3.398
 5977TIP3   OH217807   1.859   7.198   3.151
 5977TIP3    H117808   1.805   7.255   3.096
 5977TIP3    H217809   1.948   7.213   3.121
 5978TIP3   OH217810   1.112   6.713   3.607
 5978TIP3    H117811   1.043   6.650   3.627
 5978TIP3    H217812   1.139   6.693   3.518
 5979TIP3   OH217813   1.359   6.194   3.231
 5979TIP3    H117814   1.311   6.274   3.212
 5979TIP3    H217815   1.292   6.125   3.231
 5980TIP3   OH217816   1.479   6.680   3.472
 5980TIP3    H117817   1.471   6.666   3.566
 5980TIP3    H217818   1.391   6.664   3.438
 5981TIP3   OH217819   1.717   6.578   3.363
 5981TIP3    H117820   1.661   6.615   3.431
 5981TIP3    H217821   1.805   6.581   3.399
 5982TIP3   OH217822   1.967   6.588   3.481
 5982TIP3    H117823   1.982   6.493   3.488
 5982TIP3    H217824   1.962   6.618   3.571
 5983TIP3   OH217825   0.950   6.491   3.669
 5983TIP3    H117826   0.944   6.403   3.632
 5983TIP3    H217827   0.991   6.479   3.755
 5984TIP3   OH217828   1.412   6.180   3.512
 5984TIP3    H117829   1.482   6.114   3.511
 5984TIP3    H217830   1.383   6.185   3.421
 5985TIP3   OH217831   1.513   6.388   3.666
 5985TIP3    H117832   1.480   6.317   3.610
 5985TIP3    H217833   1.441   6.450   3.672
 5986TIP3   OH217834   0.305   7.409   2.590
 5986TIP3    H117835   0.327   7.351   2.663
 5986TIP3    H217836   0.326   7.497   2.622
 5987TIP3   OH217837   2.018   7.834   2.392
 5987TIP3    H117838   2.044   7.854   2.482
 5987TIP3    H217839   2.062   7.900   2.338
 5988TIP3   OH217840   2.057   7.847   2.670
 5988TIP3    H117841   2.006   7.766   2.666
 5988TIP3    H217842   2.124   7.829   2.737
 5989TIP3   OH217843   2.101   7.571   3.247
 5989TIP3    H117844   2.027   7.583   3.307
 5989TIP3    H217845   2.146   7.655   3.249
 5990TIP3   OH217846   1.912   7.094   1.860
 5990TIP3    H117847   1.969   7.164   1.827
 5990TIP3    H217848   1.961   7.056   1.933
 5991TIP3   OH217849   2.045   6.948   2.058
 5991TIP3    H117850   1.978   6.914   2.118
 5991TIP3    H217851   2.111   6.987   2.116
 5992TIP3   OH217852   2.090   7.347   2.493
 5992TIP3    H117853   2.139   7.280   2.445
 5992TIP3    H217854   2.090   7.423   2.435
 5993TIP3   OH217855   1.890   7.629   2.673
 5993TIP3    H117856   1.825   7.680   2.722
 5993TIP3    H217857   1.840   7.592   2.600
 5994TIP3   OH217858   1.953   6.868   1.708
 5994TIP3    H117859   1.885   6.870   1.641
 5994TIP3    H217860   1.937   6.946   1.761
 5995TIP3   OH217861   1.799   6.514   1.645
 5995TIP3    H117862   1.760   6.551   1.566
 5995TIP3    H217863   1.787   6.419   1.636
 5996TIP3   OH217864   1.839   6.814   2.202
 5996TIP3    H117865   1.842   6.720   2.182
 5996TIP3    H217866   1.814   6.818   2.294
 5997TIP3   OH217867   0.463   6.875   2.956
 5997TIP3    H117868   0.454   6.846   2.865
 5997TIP3    H217869   0.557   6.872   2.973
 5998TIP3   OH217870   2.118   7.228   3.054
 5998TIP3    H117871   2.179   7.157   3.036
 5998TIP3    H217872   2.146   7.300   2.997
 5999TIP3   OH217873   2.282   7.006   3.043
 5999TIP3    H117874   2.210   6.960   3.086
 5999TIP3    H217875   2.360   6.955   3.065
 6000TIP3   OH217876   1.754   6.246   1.612
 6000TIP3    H117877   1.824   6.215   1.669
 6000TIP3    H217878   1.676   6.200   1.643
 6001TIP3   OH217879   1.830   6.536   2.083
 6001TIP3    H117880   1.876   6.453   2.094
 6001TIP3    H217881   1.869   6.575   2.005
 6002TIP3   OH217882   1.986   6.703   2.598
 6002TIP3    H117883   2.063   6.729   2.547
 6002TIP3    H217884   2.000   6.742   2.684
 6003TIP3   OH217885   2.058   6.855   2.823
 6003TIP3    H117886   1.987   6.887   2.879
 6003TIP3    H217887   2.092   6.934   2.781
 6004TIP3   OH217888   0.694   6.596   3.659
 6004TIP3    H117889   0.788   6.580   3.662
 6004TIP3    H217890   0.655   6.509   3.649
 6005TIP3   OH217891   2.521   6.439   3.362
 6005TIP3    H117892   2.590   6.386   3.321
 6005TIP3    H217893   2.483   6.489   3.290
 6006TIP3   OH217894   1.948   6.286   2.132
 6006TIP3    H117895   1.991   6.267   2.215
 6006TIP3    H217896   1.885   6.215   2.121
 6007TIP3   OH217897   0.659   6.266   2.942
 6007TIP3    H117898   0.712   6.186   2.946
 6007TIP3    H217899   0.722   6.335   2.922
 6008TIP3   OH217900   0.467   6.555   3.022
 6008TIP3    H117901   0.516   6.543   2.940
 6008TIP3    H217902   0.467   6.649   3.036
 6009TIP3   OH217903   2.364   6.565   3.175
 6009TIP3    H117904   2.297   6.605   3.231
 6009TIP3    H217905   2.316   6.502   3.122
 6010TIP3   OH217906   1.987   6.194   1.763
 6010TIP3    H117907   2.036   6.136   1.704
 6010TIP3    H217908   2.039   6.274   1.766
 6011TIP3   OH217909   0.450   6.050   2.515
 6011TIP3    H117910   0.363   6.033   2.552
 6011TIP3    H217911   0.434   6.102   2.437
 6012TIP3   OH217912   1.588   7.741   2.023
 6012TIP3    H117913   1.642   7.749   1.944
 6012TIP3    H217914   1.614   7.817   2.076
 6013TIP3   OH217915   0.651   6.069   3.306
 6013TIP3    H117916   0.612   6.077   3.393
 6013TIP3    H217917   0.602   6.132   3.252
 6014TIP3   OH217918   0.689   7.535   3.405
 6014TIP3    H117919   0.594   7.535   3.390
 6014TIP3    H217920   0.699   7.554   3.499
 6015TIP3   OH217921   0.893   7.590   2.962
 6015TIP3    H117922   0.838   7.661   2.929
 6015TIP3    H217923   0.978   7.603   2.920
 6016TIP3   OH217924   1.287   7.819   3.097
 6016TIP3    H117925   1.324   7.819   3.186
 6016TIP3    H217926   1.346   7.876   3.047
 6017TIP3   OH217927   1.468   7.979   2.968
 6017TIP3    H117928   1.522   7.932   2.904
 6017TIP3    H217929   1.532   8.023   3.025
 6018TIP3   OH217930   2.277   6.291   3.070
 6018TIP3    H117931   2.190   6.262   3.044
 6018TIP3    H217932   2.332   6.212   3.062
 6019TIP3   OH217933   0.549   7.811   3.009
 6019TIP3    H117934   0.459   7.819   2.977
 6019TIP3    H217935   0.559   7.885   3.069
 6020TIP3   OH217936   0.777   7.815   2.856
 6020TIP3    H117937   0.695   7.819   2.905
 6020TIP3    H217938   0.754   7.844   2.768
 6021TIP3   OH217939   1.200   7.848   2.663
 6021TIP3    H117940   1.125   7.855   2.603
 6021TIP3    H217941   1.207   7.935   2.702
 6022TIP3   OH217942   1.463   7.786   2.702
 6022TIP3    H117943   1.370   7.802   2.685
 6022TIP3    H217944   1.509   7.846   2.643
 6023TIP3   OH217945   1.675   7.963   2.603
 6023TIP3    H117946   1.663   8.048   2.561
 6023TIP3    H217947   1.696   7.903   2.532
 6024TIP3   OH217948   0.446   7.613   2.735
 6024TIP3    H117949   0.467   7.588   2.825
 6024TIP3    H217950   0.522   7.585   2.684
 6025TIP3   OH217951   0.668   7.512   2.614
 6025TIP3    H117952   0.682   7.425   2.651
 6025TIP3    H217953   0.755   7.552   2.612
 6026TIP3   OH217954   0.937   7.588   2.619
 6026TIP3    H117955   0.953   7.495   2.604
 6026TIP3    H217956   0.995   7.611   2.692
 6027TIP3   OH217957   1.451   6.213   2.692
 6027TIP3    H117958   1.421   6.139   2.745
 6027TIP3    H217959   1.537   6.187   2.661
 6028TIP3   OH217960   1.978   6.154   2.597
 6028TIP3    H117961   2.012   6.197   2.519
 6028TIP3    H217962   1.883   6.165   2.593
 6029TIP3   OH217963   2.098   6.234   2.362
 6029TIP3    H117964   2.160   6.165   2.338
 6029TIP3    H217965   2.145   6.316   2.342
 6030TIP3   OH217966   0.739   5.948   2.683
 6030TIP3    H117967   0.649   5.917   2.686
 6030TIP3    H217968   0.792   5.868   2.692
 6031TIP3   OH217969   0.606   5.867   2.381
 6031TIP3    H117970   0.616   5.906   2.295
 6031TIP3    H217971   0.556   5.931   2.431
 6032TIP3   OH217972   1.203   5.949   2.585
 6032TIP3    H117973   1.248   6.001   2.519
 6032TIP3    H217974   1.243   5.975   2.668
 6033TIP3   OH217975   1.694   6.107   2.591
 6033TIP3    H117976   1.695   6.071   2.502
 6033TIP3    H217977   1.705   6.030   2.647
 6034TIP3   OH217978   1.763   6.076   2.136
 6034TIP3    H117979   1.683   6.123   2.162
 6034TIP3    H217980   1.751   5.988   2.172
 6035TIP3   OH217981   0.681   5.949   2.122
 6035TIP3    H117982   0.722   5.910   2.045
 6035TIP3    H217983   0.742   6.018   2.150
 6036TIP3   OH217984   1.136   6.171   2.214
 6036TIP3    H117985   1.200   6.125   2.268
 6036TIP3    H217986   1.149   6.264   2.234
 6037TIP3   OH217987   1.043   7.583   1.725
 6037TIP3    H117988   1.126   7.581   1.677
 6037TIP3    H217989   0.986   7.524   1.675
 6038TIP3   OH217990   1.724   7.731   1.778
 6038TIP3    H117991   1.722   7.635   1.777
 6038TIP3    H217992   1.686   7.757   1.695
 6039TIP3   OH217993   0.960   6.217   3.580
 6039TIP3    H117994   0.926   6.147   3.637
 6039TIP3    H217995   1.051   6.227   3.607
 6040TIP3   OH217996   1.206   6.226   3.707
 6040TIP3    H117997   1.281   6.202   3.652
 6040TIP3    H217998   1.201   6.155   3.771
 6041TIP3   OH217999   2.022   6.313   3.478
 6041TIP3    H118000   2.037   6.284   3.568
 6041TIP3    H218001   2.108   6.309   3.437
 6042TIP3   OH218002   1.944   7.841   2.991
 6042TIP3    H118003   1.869   7.814   2.938
 6042TIP3    H218004   1.935   7.936   2.998
 6043TIP3   OH218005   3.220   7.235   1.729
 6043TIP3    H118006   3.185   7.322   1.708
 6043TIP3    H218007   3.149   7.175   1.706
 6044TIP3   OH218008   3.216   7.229   2.160
 6044TIP3    H118009   3.273   7.211   2.235
 6044TIP3    H218010   3.174   7.145   2.142
 6045TIP3   OH218011   2.516   7.082   2.508
 6045TIP3    H118012   2.555   7.026   2.576
 6045TIP3    H218013   2.590   7.109   2.454
 6046TIP3   OH218014   3.488   7.540   1.827
 6046TIP3    H118015   3.476   7.473   1.894
 6046TIP3    H218016   3.507   7.620   1.877
 6047TIP3   OH218017   2.511   7.512   2.178
 6047TIP3    H118018   2.492   7.418   2.187
 6047TIP3    H218019   2.606   7.516   2.171
 6048TIP3   OH218020   2.186   6.717   1.976
 6048TIP3    H118021   2.150   6.803   1.999
 6048TIP3    H218022   2.114   6.672   1.932
 6049TIP3   OH218023   2.274   7.038   2.197
 6049TIP3    H118024   2.325   6.960   2.218
 6049TIP3    H218025   2.339   7.103   2.173
 6050TIP3   OH218026   3.158   7.954   1.850
 6050TIP3    H118027   3.177   7.891   1.779
 6050TIP3    H218028   3.168   7.903   1.930
 6051TIP3   OH218029   3.026   7.446   2.167
 6051TIP3    H118030   3.075   7.368   2.140
 6051TIP3    H218031   3.094   7.507   2.196
 6052TIP3   OH218032   4.065   6.768   2.179
 6052TIP3    H118033   4.080   6.852   2.220
 6052TIP3    H218034   4.095   6.780   2.088
 6053TIP3   OH218035   3.425   6.938   2.195
 6053TIP3    H118036   3.458   6.853   2.225
 6053TIP3    H218037   3.390   6.921   2.108
 6054TIP3   OH218038   2.783   6.592   2.154
 6054TIP3    H118039   2.764   6.666   2.096
 6054TIP3    H218040   2.728   6.521   2.121
 6055TIP3   OH218041   3.485   6.699   1.793
 6055TIP3    H118042   3.548   6.694   1.865
 6055TIP3    H218043   3.535   6.733   1.719
 6056TIP3   OH218044   2.409   6.810   2.284
 6056TIP3    H118045   2.493   6.792   2.326
 6056TIP3    H218046   2.413   6.760   2.202
 6057TIP3   OH218047   2.827   7.011   2.104
 6057TIP3    H118048   2.922   6.997   2.109
 6057TIP3    H218049   2.792   6.929   2.070
 6058TIP3   OH218050   4.115   6.990   2.340
 6058TIP3    H118051   4.026   7.025   2.337
 6058TIP3    H218052   4.153   7.026   2.420
 6059TIP3   OH218053   2.770   6.600   2.605
 6059TIP3    H118054   2.718   6.638   2.535
 6059TIP3    H218055   2.717   6.613   2.684
 6060TIP3   OH218056   3.085   7.444   1.612
 6060TIP3    H118057   3.058   7.425   1.522
 6060TIP3    H218058   3.044   7.528   1.632
 6061TIP3   OH218059   2.866   7.370   2.381
 6061TIP3    H118060   2.812   7.443   2.410
 6061TIP3    H218061   2.916   7.405   2.308
 6062TIP3   OH218062   3.639   6.723   2.018
 6062TIP3    H118063   3.595   6.702   2.100
 6062TIP3    H218064   3.695   6.797   2.038
 6063TIP3   OH218065   2.655   6.704   2.375
 6063TIP3    H118066   2.711   6.779   2.395
 6063TIP3    H218067   2.701   6.660   2.303
 6064TIP3   OH218068   2.709   7.578   2.475
 6064TIP3    H118069   2.698   7.668   2.443
 6064TIP3    H218070   2.630   7.562   2.527
 6065TIP3   OH218071   2.081   7.281   1.736
 6065TIP3    H118072   2.046   7.300   1.649
 6065TIP3    H218073   2.105   7.366   1.772
 6066TIP3   OH218074   3.513   7.787   1.970
 6066TIP3    H118075   3.425   7.781   2.007
 6066TIP3    H218076   3.515   7.871   1.925
 6067TIP3   OH218077   3.869   6.656   2.348
 6067TIP3    H118078   3.784   6.681   2.312
 6067TIP3    H218079   3.932   6.683   2.282
 6068TIP3   OH218080   3.109   6.291   2.342
 6068TIP3    H118081   3.103   6.199   2.367
 6068TIP3    H218082   3.030   6.332   2.379
 6069TIP3   OH218083   3.230   7.811   1.620
 6069TIP3    H118084   3.284   7.732   1.609
 6069TIP3    H218085   3.287   7.883   1.594
 6070TIP3   OH218086   3.390   7.596   1.574
 6070TIP3    H118087   3.388   7.516   1.523
 6070TIP3    H218088   3.427   7.570   1.658
 6071TIP3   OH218089   3.753   7.673   2.311
 6071TIP3    H118090   3.736   7.598   2.255
 6071TIP3    H218091   3.739   7.749   2.254
 6072TIP3   OH218092   3.044   7.071   1.586
 6072TIP3    H118093   2.963   7.118   1.568
 6072TIP3    H218094   3.091   7.071   1.502
 6073TIP3   OH218095   3.012   6.888   1.267
 6073TIP3    H118096   3.077   6.935   1.319
 6073TIP3    H218097   3.061   6.819   1.224
 6074TIP3   OH218098   3.935   7.334   2.186
 6074TIP3    H118099   3.850   7.379   2.183
 6074TIP3    H218100   3.972   7.346   2.098
 6075TIP3   OH218101   3.404   7.163   1.542
 6075TIP3    H118102   3.350   7.191   1.615
 6075TIP3    H218103   3.488   7.138   1.582
 6076TIP3   OH218104   3.635   7.195   2.495
 6076TIP3    H118105   3.633   7.279   2.541
 6076TIP3    H218106   3.554   7.193   2.445
 6077TIP3   OH218107   2.631   7.143   1.947
 6077TIP3    H118108   2.596   7.082   1.883
 6077TIP3    H218109   2.705   7.097   1.986
 6078TIP3   OH218110   2.775   7.562   2.092
 6078TIP3    H118111   2.754   7.551   1.999
 6078TIP3    H218112   2.862   7.524   2.102
 6079TIP3   OH218113   2.725   7.141   2.326
 6079TIP3    H118114   2.764   7.106   2.246
 6079TIP3    H218115   2.775   7.220   2.344
 6080TIP3   OH218116   3.271   7.787   2.097
 6080TIP3    H118117   3.265   7.866   2.151
 6080TIP3    H218118   3.259   7.715   2.160
 6081TIP3   OH218119   2.904   7.676   2.647
 6081TIP3    H118120   2.843   7.733   2.693
 6081TIP3    H218121   2.849   7.625   2.588
 6082TIP3   OH218122   3.233   7.023   1.377
 6082TIP3    H118123   3.294   7.081   1.424
 6082TIP3    H218124   3.264   7.025   1.287
 6083TIP3   OH218125   2.656   7.237   2.807
 6083TIP3    H118126   2.655   7.332   2.817
 6083TIP3    H218127   2.565   7.213   2.792
 6084TIP3   OH218128   2.977   7.700   1.633
 6084TIP3    H118129   3.063   7.742   1.637
 6084TIP3    H218130   2.922   7.762   1.585
 6085TIP3   OH218131   2.694   7.834   2.733
 6085TIP3    H118132   2.671   7.846   2.641
 6085TIP3    H218133   2.611   7.819   2.778
 6086TIP3   OH218134   3.744   6.253   1.435
 6086TIP3    H118135   3.668   6.275   1.489
 6086TIP3    H218136   3.756   6.329   1.377
 6087TIP3   OH218137   2.506   6.982   1.750
 6087TIP3    H118138   2.429   7.032   1.721
 6087TIP3    H218139   2.474   6.893   1.761
 6088TIP3   OH218140   3.549   7.624   0.999
 6088TIP3    H118141   3.548   7.715   0.970
 6088TIP3    H218142   3.639   7.595   0.984
 6089TIP3   OH218143   2.292   7.399   2.682
 6089TIP3    H118144   2.223   7.379   2.619
 6089TIP3    H218145   2.327   7.314   2.708
 6090TIP3   OH218146   2.132   7.584   2.344
 6090TIP3    H118147   2.222   7.612   2.360
 6090TIP3    H218148   2.079   7.660   2.365
 6091TIP3   OH218149   3.984   8.025   2.386
 6091TIP3    H118150   3.989   7.931   2.402
 6091TIP3    H218151   3.905   8.053   2.433
 6092TIP3   OH218152   3.095   7.817   2.509
 6092TIP3    H118153   3.086   7.908   2.539
 6092TIP3    H218154   3.027   7.770   2.557
 6093TIP3   OH218155   2.871   7.911   1.466
 6093TIP3    H118156   2.824   7.894   1.384
 6093TIP3    H218157   2.835   7.995   1.497
 6094TIP3   OH218158   2.307   7.774   1.841
 6094TIP3    H118159   2.353   7.766   1.924
 6094TIP3    H218160   2.259   7.691   1.832
 6095TIP3   OH218161   3.075   7.853   1.091
 6095TIP3    H118162   3.124   7.779   1.057
 6095TIP3    H218163   3.108   7.865   1.180
 6096TIP3   OH218164   3.124   7.889   1.361
 6096TIP3    H118165   3.037   7.893   1.402
 6096TIP3    H218166   3.180   7.851   1.428
 6097TIP3   OH218167   3.875   7.149   2.657
 6097TIP3    H118168   3.794   7.158   2.607
 6097TIP3    H218169   3.896   7.056   2.655
 6098TIP3   OH218170   2.491   7.587   2.646
 6098TIP3    H118171   2.540   7.577   2.727
 6098TIP3    H218172   2.418   7.525   2.653
 6099TIP3   OH218173   2.868   6.380   2.464
 6099TIP3    H118174   2.784   6.348   2.432
 6099TIP3    H218175   2.848   6.463   2.508
 6100TIP3   OH218176   3.414   6.508   2.667
 6100TIP3    H118177   3.485   6.487   2.727
 6100TIP3    H218178   3.334   6.493   2.718
 6101TIP3   OH218179   3.632   6.927   2.571
 6101TIP3    H118180   3.594   6.920   2.658
 6101TIP3    H218181   3.621   7.019   2.547
 6102TIP3   OH218182   3.313   6.993   1.115
 6102TIP3    H118183   3.264   6.999   1.033
 6102TIP3    H218184   3.395   7.039   1.098
 6103TIP3   OH218185   3.022   6.425   1.435
 6103TIP3    H118186   2.984   6.432   1.523
 6103TIP3    H218187   2.987   6.343   1.401
 6104TIP3   OH218188   2.811   6.915   2.463
 6104TIP3    H118189   2.769   6.921   2.549
 6104TIP3    H218190   2.787   6.996   2.419
 6105TIP3   OH218191   2.688   6.796   1.996
 6105TIP3    H118192   2.599   6.772   2.020
 6105TIP3    H218193   2.698   6.765   1.906
 6106TIP3   OH218194   3.166   6.867   1.722
 6106TIP3    H118195   3.119   6.940   1.682
 6106TIP3    H218196   3.225   6.836   1.654
 6107TIP3   OH218197   3.363   7.134   2.794
 6107TIP3    H118198   3.334   7.066   2.854
 6107TIP3    H218199   3.455   7.147   2.815
 6108TIP3   OH218200   3.334   6.882   1.944
 6108TIP3    H118201   3.266   6.902   1.879
 6108TIP3    H218202   3.384   6.810   1.906
 6109TIP3   OH218203   2.649   6.910   2.691
 6109TIP3    H118204   2.711   6.963   2.740
 6109TIP3    H218205   2.633   6.834   2.746
 6110TIP3   OH218206   2.691   6.405   1.413
 6110TIP3    H118207   2.681   6.412   1.508
 6110TIP3    H218208   2.613   6.447   1.377
 6111TIP3   OH218209   2.232   6.454   2.289
 6111TIP3    H118210   2.306   6.491   2.338
 6111TIP3    H218211   2.263   6.446   2.199
 6112TIP3   OH218212   2.134   6.430   1.775
 6112TIP3    H118213   2.179   6.466   1.699
 6112TIP3    H218214   2.070   6.497   1.799
 6113TIP3   OH218215   3.384   7.138   2.372
 6113TIP3    H118216   3.408   7.072   2.307
 6113TIP3    H218217   3.341   7.089   2.442
 6114TIP3   OH218218   3.054   6.581   2.044
 6114TIP3    H118219   2.977   6.581   2.101
 6114TIP3    H218220   3.128   6.572   2.104
 6115TIP3   OH218221   2.448   6.669   2.052
 6115TIP3    H118222   2.360   6.674   2.014
 6115TIP3    H218223   2.477   6.580   2.035
 6116TIP3   OH218224   2.700   6.676   1.748
 6116TIP3    H118225   2.795   6.685   1.740
 6116TIP3    H218226   2.666   6.692   1.660
 6117TIP3   OH218227   3.492   6.675   2.252
 6117TIP3    H118228   3.475   6.691   2.344
 6117TIP3    H218229   3.425   6.612   2.225
 6118TIP3   OH218230   2.593   6.695   1.497
 6118TIP3    H118231   2.531   6.646   1.444
 6118TIP3    H218232   2.647   6.742   1.434
 6119TIP3   OH218233   3.706   8.373   2.476
 6119TIP3    H118234   3.703   8.388   2.381
 6119TIP3    H218235   3.782   8.422   2.506
 6120TIP3   OH218236   2.635   7.504   2.884
 6120TIP3    H118237   2.717   7.521   2.930
 6120TIP3    H218238   2.567   7.515   2.951
 6121TIP3   OH218239   3.102   6.960   2.150
 6121TIP3    H118240   3.168   6.914   2.099
 6121TIP3    H218241   3.103   6.916   2.235
 6122TIP3   OH218242   2.588   6.420   2.038
 6122TIP3    H118243   2.559   6.345   2.091
 6122TIP3    H218244   2.608   6.383   1.952
 6123TIP3   OH218245   3.079   6.858   2.413
 6123TIP3    H118246   2.991   6.888   2.436
 6123TIP3    H218247   3.137   6.909   2.469
 6124TIP3   OH218248   2.810   7.209   1.528
 6124TIP3    H118249   2.735   7.155   1.503
 6124TIP3    H218250   2.782   7.254   1.607
 6125TIP3   OH218251   3.699   7.470   2.133
 6125TIP3    H118252   3.738   7.518   2.060
 6125TIP3    H218253   3.621   7.428   2.097
 6126TIP3   OH218254   3.275   6.529   1.441
 6126TIP3    H118255   3.182   6.507   1.436
 6126TIP3    H218256   3.277   6.624   1.452
 6127TIP3   OH218257   3.224   7.552   2.552
 6127TIP3    H118258   3.282   7.541   2.627
 6127TIP3    H218259   3.188   7.641   2.562
 6128TIP3   OH218260   3.332   6.794   1.508
 6128TIP3    H118261   3.427   6.798   1.518
 6128TIP3    H218262   3.310   6.872   1.456
 6129TIP3   OH218263   2.495   7.220   2.176
 6129TIP3    H118264   2.534   7.204   2.089
 6129TIP3    H218265   2.563   7.194   2.238
 6130TIP3   OH218266   2.960   7.370   1.367
 6130TIP3    H118267   2.912   7.452   1.365
 6130TIP3    H218268   2.907   7.312   1.422
 6131TIP3   OH218269   2.381   7.172   2.822
 6131TIP3    H118270   2.393   7.145   2.913
 6131TIP3    H218271   2.306   7.121   2.791
 6132TIP3   OH218272   3.144   7.307   2.816
 6132TIP3    H118273   3.094   7.287   2.737
 6132TIP3    H218274   3.226   7.259   2.805
 6133TIP3   OH218275   3.364   7.847   2.433
 6133TIP3    H118276   3.269   7.831   2.437
 6133TIP3    H218277   3.386   7.882   2.519
 6134TIP3   OH218278   3.747   6.880   1.320
 6134TIP3    H118279   3.691   6.836   1.256
 6134TIP3    H218280   3.747   6.972   1.292
 6135TIP3   OH218281   3.997   7.746   2.407
 6135TIP3    H118282   3.903   7.732   2.395
 6135TIP3    H218283   4.035   7.722   2.322
 6136TIP3   OH218284   3.483   7.703   1.258
 6136TIP3    H118285   3.462   7.632   1.318
 6136TIP3    H218286   3.502   7.660   1.175
 6137TIP3   OH218287   3.471   7.336   2.027
 6137TIP3    H118288   3.381   7.315   2.052
 6137TIP3    H218289   3.505   7.254   1.991
 6138TIP3   OH218290   2.631   7.571   1.850
 6138TIP3    H118291   2.627   7.646   1.790
 6138TIP3    H218292   2.543   7.567   1.888
 6139TIP3   OH218293   2.189   6.855   1.566
 6139TIP3    H118294   2.231   6.939   1.586
 6139TIP3    H218295   2.109   6.855   1.618
 6140TIP3   OH218296   2.697   7.326   1.743
 6140TIP3    H118297   2.687   7.415   1.777
 6140TIP3    H218298   2.675   7.270   1.818
 6141TIP3   OH218299   2.912   7.892   2.302
 6141TIP3    H118300   2.947   7.965   2.250
 6141TIP3    H218301   2.988   7.860   2.351
 6142TIP3   OH218302   2.542   7.790   1.698
 6142TIP3    H118303   2.455   7.797   1.736
 6142TIP3    H218304   2.578   7.878   1.705
 6143TIP3   OH218305   3.256   7.565   2.276
 6143TIP3    H118306   3.243   7.559   2.370
 6143TIP3    H218307   3.337   7.516   2.259
 6144TIP3   OH218308   3.256   7.434   1.158
 6144TIP3    H118309   3.300   7.419   1.241
 6144TIP3    H218310   3.171   7.391   1.167
 6145TIP3   OH218311   3.521   8.049   2.312
 6145TIP3    H118312   3.451   7.987   2.336
 6145TIP3    H218313   3.482   8.103   2.244
 6146TIP3   OH218314   3.553   7.897   0.950
 6146TIP3    H118315   3.569   7.952   0.874
 6146TIP3    H218316   3.485   7.943   1.000
 6147TIP3   OH218317   2.612   6.657   2.829
 6147TIP3    H118318   2.518   6.640   2.836
 6147TIP3    H218319   2.651   6.604   2.900
 6148TIP3   OH218320   3.425   7.384   1.377
 6148TIP3    H118321   3.408   7.308   1.433
 6148TIP3    H218322   3.520   7.381   1.361
 6149TIP3   OH218323   2.337   7.783   2.457
 6149TIP3    H118324   2.395   7.731   2.514
 6149TIP3    H218325   2.348   7.873   2.487
 6150TIP3   OH218326   2.611   7.399   1.167
 6150TIP3    H118327   2.624   7.307   1.142
 6150TIP3    H218328   2.597   7.395   1.262
 6151TIP3   OH218329   2.545   7.417   1.439
 6151TIP3    H118330   2.603   7.393   1.511
 6151TIP3    H218331   2.545   7.513   1.440
 6152TIP3   OH218332   2.281   7.107   1.644
 6152TIP3    H118333   2.215   7.155   1.695
 6152TIP3    H218334   2.300   7.165   1.570
 6153TIP3   OH218335   3.437   6.737   2.513
 6153TIP3    H118336   3.515   6.784   2.543
 6153TIP3    H218337   3.431   6.661   2.572
 6154TIP3   OH218338   3.336   6.480   1.708
 6154TIP3    H118339   3.315   6.498   1.617
 6154TIP3    H218340   3.380   6.559   1.739
 6155TIP3   OH218341   2.815   7.598   1.364
 6155TIP3    H118342   2.731   7.623   1.404
 6155TIP3    H218343   2.842   7.675   1.314
 6156TIP3   OH218344   2.979   6.680   1.795
 6156TIP3    H118345   3.041   6.747   1.768
 6156TIP3    H218346   3.004   6.658   1.885
 6157TIP3   OH218347   3.280   6.974   2.569
 6157TIP3    H118348   3.309   7.016   2.650
 6157TIP3    H218349   3.330   6.892   2.566
 6158TIP3   OH218350   3.148   6.372   1.879
 6158TIP3    H118351   3.124   6.449   1.931
 6158TIP3    H218352   3.219   6.402   1.822
 6159TIP3   OH218353   2.568   7.691   1.444
 6159TIP3    H118354   2.549   7.764   1.386
 6159TIP3    H218355   2.558   7.727   1.532
 6160TIP3   OH218356   2.659   6.402   1.693
 6160TIP3    H118357   2.647   6.493   1.719
 6160TIP3    H218358   2.753   6.387   1.699
 6161TIP3   OH218359   3.899   6.876   2.557
 6161TIP3    H118360   3.804   6.883   2.566
 6161TIP3    H218361   3.912   6.816   2.484
 6162TIP3   OH218362   3.561   7.075   1.944
 6162TIP3    H118363   3.485   7.019   1.958
 6162TIP3    H218364   3.629   7.037   2.000
 6163TIP3   OH218365   2.303   7.281   1.425
 6163TIP3    H118366   2.372   7.346   1.435
 6163TIP3    H218367   2.337   7.219   1.361
 6164TIP3   OH218368   2.208   6.577   1.557
 6164TIP3    H118369   2.221   6.671   1.567
 6164TIP3    H218370   2.163   6.567   1.473
 6165TIP3   OH218371   3.544   8.053   1.888
 6165TIP3    H118372   3.504   8.106   1.819
 6165TIP3    H218373   3.638   8.062   1.873
 6166TIP3   OH218374   2.603   6.298   2.428
 6166TIP3    H118375   2.573   6.266   2.343
 6166TIP3    H218376   2.594   6.222   2.486
 6167TIP3   OH218377   2.135   7.548   1.823
 6167TIP3    H118378   2.092   7.586   1.900
 6167TIP3    H218379   2.092   7.589   1.748
 6168TIP3   OH218380   2.328   8.079   2.892
 6168TIP3    H118381   2.412   8.087   2.937
 6168TIP3    H218382   2.313   7.985   2.884
 6169TIP3   OH218383   2.803   7.991   2.933
 6169TIP3    H118384   2.894   7.963   2.940
 6169TIP3    H218385   2.768   7.941   2.859
 6170TIP3   OH218386   2.761   7.601   1.050
 6170TIP3    H118387   2.714   7.533   1.097
 6170TIP3    H218388   2.836   7.557   1.011
 6171TIP3   OH218389   3.419   7.941   2.684
 6171TIP3    H118390   3.434   7.869   2.746
 6171TIP3    H218391   3.493   8.000   2.697
 6172TIP3   OH218392   3.203   7.639   0.980
 6172TIP3    H118393   3.239   7.577   1.043
 6172TIP3    H218394   3.261   7.632   0.904
 6173TIP3   OH218395   2.433   7.492   3.078
 6173TIP3    H118396   2.455   7.399   3.087
 6173TIP3    H218397   2.345   7.491   3.038
 6174TIP3   OH218398   2.433   7.093   1.276
 6174TIP3    H118399   2.483   7.070   1.354
 6174TIP3    H218400   2.499   7.107   1.208
 6175TIP3   OH218401   3.059   7.575   2.853
 6175TIP3    H118402   3.016   7.596   2.770
 6175TIP3    H218403   3.103   7.492   2.837
 6176TIP3   OH218404   3.002   7.310   1.104
 6176TIP3    H118405   2.976   7.320   1.196
 6176TIP3    H218406   2.980   7.219   1.083
 6177TIP3   OH218407   3.532   7.622   2.468
 6177TIP3    H118408   3.610   7.646   2.419
 6177TIP3    H218409   3.470   7.692   2.452
 6178TIP3   OH218410   2.545   7.235   3.080
 6178TIP3    H118411   2.615   7.228   3.016
 6178TIP3    H218412   2.591   7.255   3.162
 6179TIP3   OH218413   2.602   7.032   1.486
 6179TIP3    H118414   2.582   7.002   1.574
 6179TIP3    H218415   2.650   6.960   1.446
 6180TIP3   OH218416   2.870   7.084   2.725
 6180TIP3    H118417   2.805   7.147   2.756
 6180TIP3    H218418   2.928   7.135   2.668
 6181TIP3   OH218419   2.743   6.851   1.329
 6181TIP3    H118420   2.712   6.854   1.238
 6181TIP3    H218421   2.838   6.862   1.322
 6182TIP3   OH218422   3.416   7.491   2.806
 6182TIP3    H118423   3.490   7.458   2.756
 6182TIP3    H218424   3.414   7.438   2.886
 6183TIP3   OH218425   3.527   7.135   1.006
 6183TIP3    H118426   3.506   7.093   0.923
 6183TIP3    H218427   3.496   7.225   0.996
 6184TIP3   OH218428   3.014   6.886   2.850
 6184TIP3    H118429   3.024   6.813   2.789
 6184TIP3    H218430   2.971   6.955   2.800
 6185TIP3   OH218431   3.027   6.689   2.645
 6185TIP3    H118432   3.058   6.724   2.562
 6185TIP3    H218433   2.938   6.661   2.628
 6186TIP3   OH218434   3.032   7.244   2.566
 6186TIP3    H118435   3.117   7.249   2.523
 6186TIP3    H218436   2.973   7.291   2.507
 6187TIP3   OH218437   3.620   7.164   2.903
 6187TIP3    H118438   3.644   7.104   2.973
 6187TIP3    H218439   3.704   7.196   2.869
 6188TIP3   OH218440   3.654   7.442   2.633
 6188TIP3    H118441   3.603   7.505   2.582
 6188TIP3    H218442   3.744   7.455   2.603
 6189TIP3   OH218443   2.906   6.968   3.099
 6189TIP3    H118444   2.838   6.901   3.115
 6189TIP3    H218445   2.937   6.949   3.011
 6190TIP3   OH218446   3.147   6.459   2.748
 6190TIP3    H118447   3.108   6.539   2.714
 6190TIP3    H218448   3.080   6.392   2.734
 6191TIP3   OH218449   3.275   6.924   2.947
 6191TIP3    H118450   3.266   6.909   3.041
 6191TIP3    H218451   3.188   6.907   2.911
 6192TIP3   OH218452   3.513   6.867   2.804
 6192TIP3    H118453   3.440   6.872   2.867
 6192TIP3    H218454   3.590   6.851   2.858
 6193TIP3   OH218455   3.757   6.834   2.939
 6193TIP3    H118456   3.770   6.743   2.966
 6193TIP3    H218457   3.739   6.882   3.020
 6194TIP3   OH218458   2.735   6.752   3.163
 6194TIP3    H118459   2.741   6.666   3.121
 6194TIP3    H218460   2.780   6.742   3.246
 6195TIP3   OH218461   3.213   6.433   3.012
 6195TIP3    H118462   3.283   6.369   3.006
 6195TIP3    H218463   3.185   6.446   2.922
 6196TIP3   OH218464   3.316   6.643   3.159
 6196TIP3    H118465   3.286   6.571   3.103
 6196TIP3    H218466   3.247   6.708   3.154
 6197TIP3   OH218467   2.568   7.907   1.268
 6197TIP3    H118468   2.656   7.883   1.238
 6197TIP3    H218469   2.528   7.951   1.193
 6198TIP3   OH218470   2.029   7.277   1.446
 6198TIP3    H118471   2.124   7.285   1.442
 6198TIP3    H218472   2.010   7.194   1.403
 6199TIP3   OH218473   1.931   7.867   1.901
 6199TIP3    H118474   1.866   7.819   1.849
 6199TIP3    H218475   1.970   7.801   1.958
 6200TIP3   OH218476   2.072   7.690   2.067
 6200TIP3    H118477   2.063   7.622   2.133
 6200TIP3    H218478   2.126   7.757   2.109
 6201TIP3   OH218479   3.818   8.094   1.879
 6201TIP3    H118480   3.842   8.119   1.968
 6201TIP3    H218481   3.876   8.145   1.822
 6202TIP3   OH218482   3.844   8.121   2.159
 6202TIP3    H118483   3.793   8.040   2.152
 6202TIP3    H218484   3.910   8.102   2.225
 6203TIP3   OH218485   3.886   7.835   2.734
 6203TIP3    H118486   3.818   7.843   2.800
 6203TIP3    H218487   3.934   7.918   2.737
 6204TIP3   OH218488   3.700   7.344   1.363
 6204TIP3    H118489   3.758   7.416   1.340
 6204TIP3    H218490   3.746   7.296   1.431
 6205TIP3   OH218491   3.845   7.196   1.546
 6205TIP3    H118492   3.778   7.162   1.606
 6205TIP3    H218493   3.909   7.238   1.603
 6206TIP3   OH218494   3.882   7.607   1.975
 6206TIP3    H118495   3.936   7.537   1.936
 6206TIP3    H218496   3.887   7.679   1.912
 6207TIP3   OH218497   3.690   7.892   2.159
 6207TIP3    H118498   3.625   7.939   2.211
 6207TIP3    H218499   3.639   7.852   2.088
 6208TIP3   OH218500   3.725   7.125   1.198
 6208TIP3    H118501   3.653   7.126   1.134
 6208TIP3    H218502   3.712   7.204   1.249
 6209TIP3   OH218503   3.597   6.772   1.119
 6209TIP3    H118504   3.540   6.804   1.048
 6209TIP3    H218505   3.591   6.677   1.113
 6210TIP3   OH218506   3.631   7.067   1.676
 6210TIP3    H118507   3.637   6.972   1.662
 6210TIP3    H218508   3.611   7.076   1.769
 6211TIP3   OH218509   2.252   7.113   2.458
 6211TIP3    H118510   2.245   7.092   2.365
 6211TIP3    H218511   2.347   7.113   2.475
 6212TIP3   OH218512   3.913   7.482   2.538
 6212TIP3    H118513   3.978   7.413   2.522
 6212TIP3    H218514   3.936   7.550   2.475
 6213TIP3   OH218515   4.088   7.269   2.528
 6213TIP3    H118516   4.015   7.227   2.575
 6213TIP3    H218517   4.163   7.213   2.547
 6214TIP3   OH218518   3.557   6.502   1.096
 6214TIP3    H118519   3.623   6.473   1.158
 6214TIP3    H218520   3.476   6.463   1.127
 6215TIP3   OH218521   3.624   6.790   1.561
 6215TIP3    H118522   3.669   6.707   1.574
 6215TIP3    H218523   3.665   6.828   1.484
 6216TIP3   OH218524   3.777   6.957   2.086
 6216TIP3    H118525   3.857   6.974   2.037
 6216TIP3    H218526   3.792   6.996   2.172
 6217TIP3   OH218527   3.853   7.103   2.314
 6217TIP3    H118528   3.783   7.132   2.372
 6217TIP3    H218529   3.885   7.184   2.273
 6218TIP3   OH218530   2.470   6.805   3.084
 6218TIP3    H118531   2.563   6.804   3.105
 6218TIP3    H218532   2.436   6.723   3.121
 6219TIP3   OH218533   4.317   6.696   2.854
 6219TIP3    H118534   4.384   6.642   2.813
 6219TIP3    H218535   4.280   6.748   2.783
 6220TIP3   OH218536   3.742   6.543   1.613
 6220TIP3    H118537   3.789   6.528   1.695
 6220TIP3    H218538   3.680   6.470   1.607
 6221TIP3   OH218539   2.446   6.526   2.457
 6221TIP3    H118540   2.498   6.446   2.456
 6221TIP3    H218541   2.507   6.595   2.431
 6222TIP3   OH218542   2.220   6.806   2.493
 6222TIP3    H118543   2.277   6.785   2.419
 6222TIP3    H218544   2.235   6.899   2.509
 6223TIP3   OH218545   4.169   6.821   2.661
 6223TIP3    H118546   4.094   6.862   2.704
 6223TIP3    H218547   4.131   6.751   2.607
 6224TIP3   OH218548   3.784   6.453   1.250
 6224TIP3    H118549   3.831   6.391   1.193
 6224TIP3    H218550   3.840   6.531   1.252
 6225TIP3   OH218551   2.212   6.308   2.007
 6225TIP3    H118552   2.126   6.292   2.046
 6225TIP3    H218553   2.194   6.358   1.928
 6226TIP3   OH218554   3.364   8.025   1.523
 6226TIP3    H118555   3.419   8.011   1.446
 6226TIP3    H218556   3.411   8.090   1.575
 6227TIP3   OH218557   2.445   6.377   2.855
 6227TIP3    H118558   2.387   6.354   2.927
 6227TIP3    H218559   2.386   6.408   2.786
 6228TIP3   OH218560   2.470   7.805   2.899
 6228TIP3    H118561   2.377   7.782   2.895
 6228TIP3    H218562   2.490   7.807   2.992
 6229TIP3   OH218563   2.685   7.855   2.451
 6229TIP3    H118564   2.632   7.927   2.416
 6229TIP3    H218565   2.770   7.865   2.408
 6230TIP3   OH218566   3.077   8.081   2.587
 6230TIP3    H118567   3.114   8.077   2.675
 6230TIP3    H218568   3.137   8.137   2.538
 6231TIP3   OH218569   3.263   8.237   2.458
 6231TIP3    H118570   3.319   8.183   2.402
 6231TIP3    H218571   3.324   8.286   2.513
 6232TIP3   OH218572   4.075   6.575   2.550
 6232TIP3    H118573   3.992   6.574   2.503
 6232TIP3    H218574   4.107   6.485   2.545
 6233TIP3   OH218575   2.338   8.067   2.490
 6233TIP3    H118576   2.246   8.085   2.467
 6233TIP3    H218577   2.359   8.134   2.556
 6234TIP3   OH218578   2.569   8.078   2.340
 6234TIP3    H118579   2.484   8.079   2.385
 6234TIP3    H218580   2.548   8.103   2.250
 6235TIP3   OH218581   2.986   8.102   2.137
 6235TIP3    H118582   2.915   8.111   2.073
 6235TIP3    H218583   2.992   8.188   2.178
 6236TIP3   OH218584   3.251   8.049   2.191
 6236TIP3    H118585   3.160   8.064   2.168
 6236TIP3    H218586   3.300   8.114   2.140
 6237TIP3   OH218587   3.457   8.218   2.091
 6237TIP3    H118588   3.453   8.304   2.049
 6237TIP3    H218589   3.485   8.159   2.021
 6238TIP3   OH218590   2.250   7.867   2.205
 6238TIP3    H118591   2.273   7.844   2.295
 6238TIP3    H218592   2.324   7.835   2.153
 6239TIP3   OH218593   2.459   7.756   2.070
 6239TIP3    H118594   2.470   7.672   2.114
 6239TIP3    H218595   2.545   7.798   2.076
 6240TIP3   OH218596   2.726   7.840   2.100
 6240TIP3    H118597   2.746   7.748   2.085
 6240TIP3    H218598   2.781   7.865   2.174
 6241TIP3   OH218599   3.280   6.489   2.184
 6241TIP3    H118600   3.241   6.418   2.236
 6241TIP3    H218601   3.349   6.447   2.134
 6242TIP3   OH218602   3.788   6.412   2.070
 6242TIP3    H118603   3.825   6.461   1.997
 6242TIP3    H218604   3.697   6.442   2.074
 6243TIP3   OH218605   3.902   6.490   1.833
 6243TIP3    H118606   3.970   6.427   1.808
 6243TIP3    H218607   3.943   6.576   1.820
 6244TIP3   OH218608   2.513   6.195   2.188
 6244TIP3    H118609   2.424   6.160   2.196
 6244TIP3    H218610   2.568   6.117   2.178
 6245TIP3   OH218611   2.352   6.113   1.847
 6245TIP3    H118612   2.375   6.158   1.765
 6245TIP3    H218613   2.312   6.181   1.901
 6246TIP3   OH218614   3.007   6.231   2.080
 6246TIP3    H118615   3.054   6.277   2.011
 6246TIP3    H218616   3.048   6.261   2.162
 6247TIP3   OH218617   3.494   6.368   2.058
 6247TIP3    H118618   3.518   6.333   1.973
 6247TIP3    H218619   3.505   6.294   2.119
 6248TIP3   OH218620   3.557   6.332   1.621
 6248TIP3    H118621   3.478   6.379   1.648
 6248TIP3    H218622   3.547   6.245   1.660
 6249TIP3   OH218623   2.020   7.663   1.604
 6249TIP3    H118624   1.937   7.629   1.572
 6249TIP3    H218625   2.023   7.753   1.573
 6250TIP3   OH218626   2.454   6.230   1.602
 6250TIP3    H118627   2.500   6.170   1.543
 6250TIP3    H218628   2.522   6.288   1.636
 6251TIP3   OH218629   2.934   6.428   1.698
 6251TIP3    H118630   2.995   6.375   1.751
 6251TIP3    H218631   2.949   6.518   1.727
 6252TIP3   OH218632   2.820   7.825   1.194
 6252TIP3    H118633   2.904   7.851   1.156
 6252TIP3    H218634   2.790   7.753   1.138
 6253TIP3   OH218635   3.513   7.972   1.293
 6253TIP3    H118636   3.507   7.876   1.286
 6253TIP3    H218637   3.472   8.005   1.213
 6254TIP3   OH218638   2.753   6.487   3.059
 6254TIP3    H118639   2.719   6.421   3.119
 6254TIP3    H218640   2.846   6.493   3.081
 6255TIP3   OH218641   2.999   6.482   3.185
 6255TIP3    H118642   3.077   6.464   3.132
 6255TIP3    H218643   3.000   6.414   3.252
 6256TIP3   OH218644   2.132   7.639   1.265
 6256TIP3    H118645   2.138   7.651   1.360
 6256TIP3    H218646   2.216   7.603   1.239
 6257TIP3   OH218647   3.821   6.567   2.983
 6257TIP3    H118648   3.836   6.542   3.074
 6257TIP3    H218649   3.907   6.563   2.942
 6258TIP3   OH218650   3.737   8.099   2.482
 6258TIP3    H118651   3.663   8.072   2.428
 6258TIP3    H218652   3.726   8.194   2.490
 6259TIP3   OH218653   5.012   7.468   1.264
 6259TIP3    H118654   4.969   7.553   1.257
 6259TIP3    H218655   4.945   7.405   1.235
 6260TIP3   OH218656   5.003   7.485   1.656
 6260TIP3    H118657   5.054   7.468   1.735
 6260TIP3    H218658   4.963   7.400   1.636
 6261TIP3   OH218659   4.310   7.340   1.991
 6261TIP3    H118660   4.348   7.287   2.062
 6261TIP3    H218661   4.384   7.367   1.938
 6262TIP3   OH218662   5.228   7.785   1.368
 6262TIP3    H118663   5.233   7.706   1.422
 6262TIP3    H218664   5.263   7.854   1.424
 6263TIP3   OH218665   4.304   7.771   1.669
 6263TIP3    H118666   4.285   7.677   1.678
 6263TIP3    H218667   4.400   7.775   1.661
 6264TIP3   OH218668   3.988   6.975   1.450
 6264TIP3    H118669   3.951   7.058   1.480
 6264TIP3    H218670   3.913   6.928   1.413
 6265TIP3   OH218671   4.069   7.294   1.685
 6265TIP3    H118672   4.121   7.218   1.710
 6265TIP3    H218673   4.134   7.361   1.663
 6266TIP3   OH218674   4.958   8.221   1.381
 6266TIP3    H118675   4.947   8.152   1.315
 6266TIP3    H218676   4.986   8.174   1.459
 6267TIP3   OH218677   4.821   7.706   1.651
 6267TIP3    H118678   4.867   7.625   1.628
 6267TIP3    H218679   4.890   7.766   1.679
 6268TIP3   OH218680   5.841   7.003   1.673
 6268TIP3    H118681   5.842   7.088   1.718
 6268TIP3    H218682   5.879   7.022   1.587
 6269TIP3   OH218683   5.217   7.202   1.704
 6269TIP3    H118684   5.247   7.118   1.737
 6269TIP3    H218685   5.183   7.183   1.616
 6270TIP3   OH218686   4.576   6.844   1.647
 6270TIP3    H118687   4.556   6.921   1.592
 6270TIP3    H218688   4.521   6.775   1.611
 6271TIP3   OH218689   5.290   6.956   1.315
 6271TIP3    H118690   5.337   6.932   1.395
 6271TIP3    H218691   5.358   6.991   1.257
 6272TIP3   OH218692   4.206   7.069   1.772
 6272TIP3    H118693   4.289   7.052   1.816
 6272TIP3    H218694   4.209   7.017   1.692
 6273TIP3   OH218695   4.629   7.273   1.596
 6273TIP3    H118696   4.723   7.257   1.602
 6273TIP3    H218697   4.592   7.190   1.566
 6274TIP3   OH218698   5.857   7.213   1.856
 6274TIP3    H118699   5.790   7.275   1.828
 6274TIP3    H218700   5.818   7.167   1.930
 6275TIP3   OH218701   4.564   6.858   2.093
 6275TIP3    H118702   4.513   6.895   2.021
 6275TIP3    H218703   4.509   6.872   2.171
 6276TIP3   OH218704   4.840   7.661   1.170
 6276TIP3    H118705   4.872   7.701   1.089
 6276TIP3    H218706   4.787   7.729   1.211
 6277TIP3   OH218707   4.664   7.629   1.867
 6277TIP3    H118708   4.609   7.702   1.897
 6277TIP3    H218709   4.712   7.665   1.792
 6278TIP3   OH218710   5.437   6.941   1.546
 6278TIP3    H118711   5.381   6.934   1.624
 6278TIP3    H218712   5.490   7.019   1.562
 6279TIP3   OH218713   4.452   6.965   1.864
 6279TIP3    H118714   4.508   7.040   1.884
 6279TIP3    H218715   4.498   6.919   1.794
 6280TIP3   OH218716   4.503   7.835   1.963
 6280TIP3    H118717   4.491   7.924   1.932
 6280TIP3    H218718   4.424   7.816   2.014
 6281TIP3   OH218719   3.887   7.531   1.286
 6281TIP3    H118720   3.850   7.530   1.198
 6281TIP3    H218721   3.915   7.621   1.300
 6282TIP3   OH218722   5.310   8.019   1.504
 6282TIP3    H118723   5.220   8.034   1.533
 6282TIP3    H218724   5.310   8.044   1.412
 6283TIP3   OH218725   5.643   6.883   1.835
 6283TIP3    H118726   5.636   6.949   1.904
 6283TIP3    H218727   5.701   6.922   1.771
 6284TIP3   OH218728   4.902   6.545   1.833
 6284TIP3    H118729   4.897   6.453   1.860
 6284TIP3    H218730   4.825   6.585   1.873
 6285TIP3   OH218731   4.972   8.028   1.181
 6285TIP3    H118732   5.026   7.949   1.181
 6285TIP3    H218733   5.023   8.091   1.131
 6286TIP3   OH218734   5.140   7.823   1.117
 6286TIP3    H118735   5.168   7.746   1.067
 6286TIP3    H218736   5.170   7.807   1.206
 6287TIP3   OH218737   5.556   7.913   1.812
 6287TIP3    H118738   5.530   7.840   1.757
 6287TIP3    H218739   5.544   7.990   1.757
 6288TIP3   OH218740   4.837   7.325   1.093
 6288TIP3    H118741   4.749   7.361   1.095
 6288TIP3    H218742   4.879   7.367   1.017
 6289TIP3   OH218743   4.753   7.112   0.938
 6289TIP3    H118744   4.797   7.176   0.995
 6289TIP3    H218745   4.824   7.075   0.886
 6290TIP3   OH218746   5.732   7.585   1.662
 6290TIP3    H118747   5.645   7.625   1.666
 6290TIP3    H218748   5.764   7.605   1.574
 6291TIP3   OH218749   5.202   7.400   1.083
 6291TIP3    H118750   5.146   7.427   1.156
 6291TIP3    H218751   5.284   7.375   1.125
 6292TIP3   OH218752   5.428   7.471   1.968
 6292TIP3    H118753   5.417   7.547   2.025
 6292TIP3    H218754   5.341   7.454   1.933
 6293TIP3   OH218755   4.427   7.398   1.445
 6293TIP3    H118756   4.386   7.330   1.392
 6293TIP3    H218757   4.502   7.355   1.485
 6294TIP3   OH218758   4.569   7.822   1.579
 6294TIP3    H118759   4.549   7.810   1.486
 6294TIP3    H218760   4.656   7.784   1.589
 6295TIP3   OH218761   4.521   7.401   1.816
 6295TIP3    H118762   4.561   7.365   1.736
 6295TIP3    H218763   4.572   7.480   1.834
 6296TIP3   OH218764   5.055   8.052   1.597
 6296TIP3    H118765   5.052   8.126   1.657
 6296TIP3    H218766   5.045   7.974   1.652
 6297TIP3   OH218767   4.699   7.933   2.134
 6297TIP3    H118768   4.636   7.989   2.181
 6297TIP3    H218769   4.645   7.881   2.075
 6298TIP3   OH218770   5.074   7.222   0.924
 6298TIP3    H118771   5.115   7.289   0.980
 6298TIP3    H218772   5.131   7.218   0.847
 6299TIP3   OH218773   4.452   7.493   2.283
 6299TIP3    H118774   4.450   7.588   2.298
 6299TIP3    H218775   4.360   7.468   2.273
 6300TIP3   OH218776   4.722   7.909   1.213
 6300TIP3    H118777   4.799   7.965   1.200
 6300TIP3    H218778   4.668   7.925   1.136
 6301TIP3   OH218779   4.485   8.090   2.218
 6301TIP3    H118780   4.463   8.099   2.125
 6301TIP3    H218781   4.401   8.079   2.261
 6302TIP3   OH218782   5.543   6.490   0.987
 6302TIP3    H118783   5.466   6.509   1.040
 6302TIP3    H218784   5.579   6.577   0.966
 6303TIP3   OH218785   4.283   7.218   1.280
 6303TIP3    H118786   4.205   7.266   1.253
 6303TIP3    H218787   4.251   7.130   1.298
 6304TIP3   OH218788   4.086   7.654   2.166
 6304TIP3    H118789   4.016   7.633   2.104
 6304TIP3    H218790   4.120   7.569   2.194
 6305TIP3   OH218791   3.935   7.838   1.821
 6305TIP3    H118792   4.028   7.857   1.834
 6305TIP3    H218793   3.889   7.915   1.854
 6306TIP3   OH218794   5.777   8.290   1.887
 6306TIP3    H118795   5.783   8.195   1.896
 6306TIP3    H218796   5.698   8.314   1.935
 6307TIP3   OH218797   4.887   8.080   1.999
 6307TIP3    H118798   4.877   8.170   2.029
 6307TIP3    H218799   4.822   8.030   2.047
 6308TIP3   OH218800   4.628   8.158   1.017
 6308TIP3    H118801   4.554   8.175   1.076
 6308TIP3    H218802   4.703   8.196   1.062
 6309TIP3   OH218803   4.100   8.035   1.340
 6309TIP3    H118804   4.146   8.026   1.423
 6309TIP3    H218805   4.053   7.953   1.328
 6310TIP3   OH218806   4.852   8.100   0.596
 6310TIP3    H118807   4.878   8.013   0.567
 6310TIP3    H218808   4.930   8.136   0.638
 6311TIP3   OH218809   4.946   8.064   0.884
 6311TIP3    H118810   4.887   8.106   0.947
 6311TIP3    H218811   4.979   8.136   0.830
 6312TIP3   OH218812   5.648   7.383   2.130
 6312TIP3    H118813   5.571   7.397   2.075
 6312TIP3    H218814   5.661   7.288   2.131
 6313TIP3   OH218815   4.283   7.844   2.133
 6313TIP3    H118816   4.335   7.831   2.212
 6313TIP3    H218817   4.212   7.780   2.140
 6314TIP3   OH218818   4.664   6.638   1.954
 6314TIP3    H118819   4.581   6.606   1.920
 6314TIP3    H218820   4.643   6.720   1.998
 6315TIP3   OH218821   5.197   6.756   2.148
 6315TIP3    H118822   5.268   6.743   2.211
 6315TIP3    H218823   5.117   6.745   2.199
 6316TIP3   OH218824   5.290   7.232   0.728
 6316TIP3    H118825   5.311   7.177   0.652
 6316TIP3    H218826   5.231   7.299   0.694
 6317TIP3   OH218827   4.841   6.519   0.960
 6317TIP3    H118828   4.835   6.579   1.035
 6317TIP3    H218829   4.750   6.493   0.943
 6318TIP3   OH218830   4.608   7.175   1.953
 6318TIP3    H118831   4.567   7.181   2.039
 6318TIP3    H218832   4.585   7.256   1.909
 6319TIP3   OH218833   4.484   7.058   1.501
 6319TIP3    H118834   4.394   7.036   1.524
 6319TIP3    H218835   4.497   7.019   1.414
 6320TIP3   OH218836   4.949   7.130   1.248
 6320TIP3    H118837   4.911   7.200   1.195
 6320TIP3    H218838   5.004   7.081   1.187
 6321TIP3   OH218839   5.160   7.391   2.282
 6321TIP3    H118840   5.132   7.323   2.343
 6321TIP3    H218841   5.255   7.397   2.295
 6322TIP3   OH218842   5.131   7.143   1.452
 6322TIP3    H118843   5.060   7.158   1.390
 6322TIP3    H218844   5.181   7.071   1.415
 6323TIP3   OH218845   4.442   7.178   2.176
 6323TIP3    H118846   4.501   7.229   2.232
 6323TIP3    H218847   4.425   7.099   2.227
 6324TIP3   OH218848   4.425   6.646   0.950
 6324TIP3    H118849   4.436   6.656   1.045
 6324TIP3    H218850   4.347   6.698   0.929
 6325TIP3   OH218851   4.039   6.710   1.762
 6325TIP3    H118852   4.107   6.747   1.819
 6325TIP3    H218853   4.082   6.700   1.677
 6326TIP3   OH218854   3.937   6.687   1.254
 6326TIP3    H118855   3.986   6.724   1.180
 6326TIP3    H218856   3.875   6.756   1.279
 6327TIP3   OH218857   5.163   7.406   1.872
 6327TIP3    H118858   5.194   7.341   1.809
 6327TIP3    H218859   5.130   7.354   1.945
 6328TIP3   OH218860   4.840   6.836   1.537
 6328TIP3    H118861   4.762   6.835   1.593
 6328TIP3    H218862   4.914   6.829   1.599
 6329TIP3   OH218863   4.244   6.927   1.542
 6329TIP3    H118864   4.158   6.930   1.501
 6329TIP3    H218865   4.277   6.839   1.522
 6330TIP3   OH218866   4.492   6.913   1.270
 6330TIP3    H118867   4.582   6.927   1.239
 6330TIP3    H218868   4.437   6.930   1.194
 6331TIP3   OH218869   5.259   6.936   1.756
 6331TIP3    H118870   5.263   6.950   1.851
 6331TIP3    H218871   5.188   6.874   1.744
 6332TIP3   OH218872   4.301   6.923   1.074
 6332TIP3    H118873   4.219   6.893   1.034
 6332TIP3    H218874   4.357   6.948   1.000
 6333TIP3   OH218875   5.494   8.637   1.979
 6333TIP3    H118876   5.492   8.638   1.883
 6333TIP3    H218877   5.574   8.685   2.001
 6334TIP3   OH218878   4.432   7.760   2.367
 6334TIP3    H118879   4.514   7.775   2.414
 6334TIP3    H218880   4.364   7.766   2.435
 6335TIP3   OH218881   4.900   7.215   1.643
 6335TIP3    H118882   4.968   7.171   1.592
 6335TIP3    H218883   4.901   7.172   1.728
 6336TIP3   OH218884   4.382   6.678   1.520
 6336TIP3    H118885   4.357   6.601   1.571
 6336TIP3    H218886   4.404   6.642   1.434
 6337TIP3   OH218887   4.877   7.115   1.905
 6337TIP3    H118888   4.791   7.148   1.930
 6337TIP3    H218889   4.938   7.163   1.962
 6338TIP3   OH218890   4.586   7.428   1.049
 6338TIP3    H118891   4.512   7.370   1.033
 6338TIP3    H218892   4.557   7.485   1.121
 6339TIP3   OH218893   5.484   7.707   1.646
 6339TIP3    H118894   5.516   7.756   1.570
 6339TIP3    H218895   5.403   7.665   1.615
 6340TIP3   OH218896   5.031   6.752   0.967
 6340TIP3    H118897   4.937   6.751   0.952
 6340TIP3    H218898   5.050   6.843   0.990
 6341TIP3   OH218899   5.019   7.810   2.035
 6341TIP3    H118900   5.077   7.792   2.109
 6341TIP3    H218901   4.985   7.898   2.051
 6342TIP3   OH218902   5.097   6.995   1.061
 6342TIP3    H118903   5.193   6.994   1.059
 6342TIP3    H218904   5.073   7.069   1.004
 6343TIP3   OH218905   4.289   7.481   1.669
 6343TIP3    H118906   4.329   7.463   1.584
 6343TIP3    H218907   4.356   7.455   1.732
 6344TIP3   OH218908   4.597   7.629   0.863
 6344TIP3    H118909   4.589   7.704   0.923
 6344TIP3    H218910   4.595   7.552   0.920
 6345TIP3   OH218911   4.175   7.427   2.303
 6345TIP3    H118912   4.186   7.400   2.395
 6345TIP3    H218913   4.102   7.373   2.271
 6346TIP3   OH218914   4.939   7.561   2.304
 6346TIP3    H118915   4.886   7.533   2.229
 6346TIP3    H218916   5.022   7.515   2.293
 6347TIP3   OH218917   5.156   8.101   1.928
 6347TIP3    H118918   5.061   8.088   1.929
 6347TIP3    H218919   5.177   8.133   2.016
 6348TIP3   OH218920   5.575   7.184   0.817
 6348TIP3    H118921   5.516   7.168   0.744
 6348TIP3    H218922   5.616   7.268   0.797
 6349TIP3   OH218923   5.798   8.017   1.898
 6349TIP3    H118924   5.706   7.990   1.907
 6349TIP3    H218925   5.826   7.979   1.815
 6350TIP3   OH218926   5.423   7.888   0.746
 6350TIP3    H118927   5.334   7.906   0.776
 6350TIP3    H218928   5.422   7.796   0.719
 6351TIP3   OH218929   5.254   7.577   1.547
 6351TIP3    H118930   5.165   7.551   1.572
 6351TIP3    H218931   5.293   7.496   1.512
 6352TIP3   OH218932   4.415   7.830   1.341
 6352TIP3    H118933   4.414   7.905   1.281
 6352TIP3    H218934   4.327   7.827   1.377
 6353TIP3   OH218935   3.962   7.111   1.060
 6353TIP3    H118936   4.011   7.189   1.086
 6353TIP3    H218937   3.881   7.115   1.111
 6354TIP3   OH218938   4.480   7.584   1.243
 6354TIP3    H118939   4.473   7.673   1.277
 6354TIP3    H218940   4.460   7.528   1.318
 6355TIP3   OH218941   4.707   8.149   1.792
 6355TIP3    H118942   4.743   8.225   1.745
 6355TIP3    H218943   4.781   8.116   1.843
 6356TIP3   OH218944   4.328   8.054   1.190
 6356TIP3    H118945   4.242   8.059   1.232
 6356TIP3    H218946   4.366   8.140   1.203
 6357TIP3   OH218947   5.052   7.821   1.759
 6357TIP3    H118948   5.040   7.815   1.854
 6357TIP3    H218949   5.129   7.767   1.742
 6358TIP3   OH218950   5.075   7.692   0.733
 6358TIP3    H118951   5.150   7.690   0.793
 6358TIP3    H218952   5.003   7.725   0.787
 6359TIP3   OH218953   5.319   8.297   1.821
 6359TIP3    H118954   5.251   8.234   1.844
 6359TIP3    H218955   5.277   8.355   1.757
 6360TIP3   OH218956   4.394   6.929   2.302
 6360TIP3    H118957   4.299   6.939   2.309
 6360TIP3    H218958   4.418   6.880   2.381
 6361TIP3   OH218959   5.242   7.635   0.950
 6361TIP3    H118960   5.225   7.550   0.990
 6361TIP3    H218961   5.336   7.647   0.958
 6362TIP3   OH218962   4.135   8.048   1.954
 6362TIP3    H118963   4.187   7.989   2.008
 6362TIP3    H218964   4.150   8.135   1.992
 6363TIP3   OH218965   4.405   7.722   0.690
 6363TIP3    H118966   4.416   7.653   0.625
 6363TIP3    H218967   4.461   7.696   0.763
 6364TIP3   OH218968   4.287   7.716   1.007
 6364TIP3    H118969   4.364   7.702   1.062
 6364TIP3    H218970   4.295   7.806   0.976
 6365TIP3   OH218971   4.066   7.347   1.170
 6365TIP3    H118972   4.008   7.392   1.231
 6365TIP3    H218973   4.077   7.408   1.097
 6366TIP3   OH218974   5.245   6.997   2.026
 6366TIP3    H118975   5.294   7.041   2.096
 6366TIP3    H218976   5.226   6.910   2.061
 6367TIP3   OH218977   5.138   6.729   1.229
 6367TIP3    H118978   5.103   6.744   1.141
 6367TIP3    H218979   5.177   6.813   1.254
 6368TIP3   OH218980   4.552   7.870   0.982
 6368TIP3    H118981   4.472   7.921   0.968
 6368TIP3    H218982   4.613   7.902   0.916
 6369TIP3   OH218983   4.771   6.924   1.283
 6369TIP3    H118984   4.827   7.000   1.267
 6369TIP3    H218985   4.791   6.898   1.373
 6370TIP3   OH218986   5.078   7.227   2.063
 6370TIP3    H118987   5.108   7.272   2.142
 6370TIP3    H218988   5.134   7.150   2.057
 6371TIP3   OH218989   4.938   6.623   1.385
 6371TIP3    H118990   4.914   6.701   1.436
 6371TIP3    H218991   5.019   6.648   1.341
 6372TIP3   OH218992   4.309   7.991   0.927
 6372TIP3    H118993   4.312   8.075   0.882
 6372TIP3    H218994   4.298   8.014   1.020
 6373TIP3   OH218995   4.461   6.641   1.227
 6373TIP3    H118996   4.459   6.733   1.253
 6373TIP3    H218997   4.554   6.620   1.219
 6374TIP3   OH218998   5.351   7.329   1.463
 6374TIP3    H118999   5.272   7.274   1.468
 6374TIP3    H219000   5.414   7.284   1.519
 6375TIP3   OH219001   4.064   7.557   0.986
 6375TIP3    H119002   4.130   7.618   1.020
 6375TIP3    H219003   4.087   7.546   0.894
 6376TIP3   OH219004   4.009   6.842   1.031
 6376TIP3    H119005   4.004   6.936   1.050
 6376TIP3    H219006   3.936   6.826   0.971
 6377TIP3   OH219007   5.324   8.347   1.423
 6377TIP3    H119008   5.289   8.366   1.336
 6377TIP3    H219009   5.415   8.320   1.407
 6378TIP3   OH219010   4.401   6.555   1.911
 6378TIP3    H119011   4.373   6.523   1.825
 6378TIP3    H219012   4.395   6.478   1.968
 6379TIP3   OH219013   3.935   7.810   1.310
 6379TIP3    H119014   3.885   7.845   1.384
 6379TIP3    H219015   3.887   7.838   1.233
 6380TIP3   OH219016   4.141   8.353   2.374
 6380TIP3    H119017   4.221   8.363   2.425
 6380TIP3    H219018   4.136   8.259   2.356
 6381TIP3   OH219019   4.598   8.248   2.413
 6381TIP3    H119020   4.688   8.216   2.423
 6381TIP3    H219021   4.563   8.196   2.341
 6382TIP3   OH219022   4.579   7.884   0.550
 6382TIP3    H119023   4.504   7.832   0.581
 6382TIP3    H219024   4.609   7.838   0.472
 6383TIP3   OH219025   5.213   8.193   2.179
 6383TIP3    H119026   5.230   8.121   2.240
 6383TIP3    H219027   5.287   8.252   2.191
 6384TIP3   OH219028   4.230   7.751   2.559
 6384TIP3    H119029   4.252   7.659   2.571
 6384TIP3    H219030   4.142   7.750   2.520
 6385TIP3   OH219031   4.170   7.293   0.846
 6385TIP3    H119032   4.237   7.271   0.910
 6385TIP3    H219033   4.190   7.383   0.820
 6386TIP3   OH219034   4.856   7.831   2.339
 6386TIP3    H119035   4.812   7.851   2.256
 6386TIP3    H219036   4.899   7.747   2.324
 6387TIP3   OH219037   4.775   7.633   0.653
 6387TIP3    H119038   4.706   7.644   0.718
 6387TIP3    H219039   4.742   7.565   0.594
 6388TIP3   OH219040   5.326   7.880   1.963
 6388TIP3    H119041   5.405   7.903   1.914
 6388TIP3    H219042   5.264   7.950   1.942
 6389TIP3   OH219043   4.344   7.498   2.565
 6389TIP3    H119044   4.418   7.480   2.508
 6389TIP3    H219045   4.383   7.512   2.652
 6390TIP3   OH219046   4.378   7.249   1.023
 6390TIP3    H119047   4.349   7.240   1.114
 6390TIP3    H219048   4.417   7.164   1.002
 6391TIP3   OH219049   4.673   7.342   2.212
 6391TIP3    H119050   4.607   7.406   2.239
 6391TIP3    H219051   4.728   7.390   2.150
 6392TIP3   OH219052   4.498   7.022   0.918
 6392TIP3    H119053   4.494   7.067   0.833
 6392TIP3    H219054   4.590   7.028   0.944
 6393TIP3   OH219055   5.212   7.743   2.300
 6393TIP3    H119056   5.286   7.717   2.245
 6393TIP3    H219057   5.215   7.684   2.375
 6394TIP3   OH219058   5.289   7.426   0.479
 6394TIP3    H119059   5.343   7.422   0.400
 6394TIP3    H219060   5.203   7.393   0.450
 6395TIP3   OH219061   4.813   7.141   2.337
 6395TIP3    H119062   4.822   7.068   2.275
 6395TIP3    H219063   4.772   7.211   2.287
 6396TIP3   OH219064   4.822   6.944   2.133
 6396TIP3    H119065   4.853   6.980   2.050
 6396TIP3    H219066   4.732   6.918   2.115
 6397TIP3   OH219067   4.831   7.492   2.044
 6397TIP3    H119068   4.918   7.496   2.004
 6397TIP3    H219069   4.775   7.543   1.985
 6398TIP3   OH219070   5.432   7.391   2.372
 6398TIP3    H119071   5.457   7.302   2.397
 6398TIP3    H219072   5.504   7.423   2.319
 6399TIP3   OH219073   5.439   7.703   2.134
 6399TIP3    H119074   5.392   7.766   2.079
 6399TIP3    H219075   5.530   7.708   2.103
 6400TIP3   OH219076   4.700   7.225   2.579
 6400TIP3    H119077   4.631   7.163   2.598
 6400TIP3    H219078   4.730   7.202   2.491
 6401TIP3   OH219079   4.937   6.715   2.241
 6401TIP3    H119080   4.899   6.795   2.206
 6401TIP3    H219081   4.872   6.648   2.225
 6402TIP3   OH219082   5.075   7.180   2.434
 6402TIP3    H119083   5.072   7.167   2.529
 6402TIP3    H219084   4.986   7.160   2.404
 6403TIP3   OH219085   5.297   7.110   2.270
 6403TIP3    H119086   5.229   7.122   2.337
 6403TIP3    H219087   5.379   7.109   2.320
 6404TIP3   OH219088   5.515   7.117   2.448
 6404TIP3    H119089   5.540   7.025   2.445
 6404TIP3    H219090   5.527   7.143   2.539
 6405TIP3   OH219091   4.530   7.007   2.640
 6405TIP3    H119092   4.538   6.919   2.603
 6405TIP3    H219093   4.569   7.000   2.727
 6406TIP3   OH219094   5.009   6.686   2.503
 6406TIP3    H119095   5.079   6.621   2.494
 6406TIP3    H219096   4.978   6.701   2.414
 6407TIP3   OH219097   5.105   6.899   2.649
 6407TIP3    H119098   5.076   6.828   2.593
 6407TIP3    H219099   5.033   6.963   2.649
 6408TIP3   OH219100   4.308   8.032   0.575
 6408TIP3    H119101   4.396   8.058   0.604
 6408TIP3    H219102   4.253   8.108   0.595
 6409TIP3   OH219103   3.800   7.488   1.032
 6409TIP3    H119104   3.884   7.522   1.000
 6409TIP3    H219105   3.771   7.429   0.962
 6410TIP3   OH219106   3.724   8.112   1.394
 6410TIP3    H119107   3.657   8.060   1.350
 6410TIP3    H219108   3.767   8.051   1.453
 6411TIP3   OH219109   3.871   7.948   1.561
 6411TIP3    H119110   3.866   7.879   1.626
 6411TIP3    H219111   3.924   8.017   1.602
 6412TIP3   OH219112   5.606   8.341   1.385
 6412TIP3    H119113   5.635   8.365   1.473
 6412TIP3    H219114   5.592   8.424   1.341
 6413TIP3   OH219115   5.645   8.367   1.656
 6413TIP3    H119116   5.598   8.283   1.654
 6413TIP3    H219117   5.709   8.356   1.726
 6414TIP3   OH219118   5.680   8.095   2.213
 6414TIP3    H119119   5.613   8.100   2.282
 6414TIP3    H219120   5.727   8.178   2.220
 6415TIP3   OH219121   5.540   7.681   0.914
 6415TIP3    H119122   5.620   7.705   0.868
 6415TIP3    H219123   5.526   7.589   0.892
 6416TIP3   OH219124   5.636   7.417   1.063
 6416TIP3    H119125   5.565   7.419   1.127
 6416TIP3    H219126   5.705   7.471   1.101
 6417TIP3   OH219127   5.651   7.841   1.478
 6417TIP3    H119128   5.717   7.787   1.435
 6417TIP3    H219129   5.650   7.922   1.427
 6418TIP3   OH219130   5.490   8.141   1.670
 6418TIP3    H119131   5.428   8.189   1.724
 6418TIP3    H219132   5.436   8.098   1.603
 6419TIP3   OH219133   5.536   7.380   0.583
 6419TIP3    H119134   5.441   7.390   0.576
 6419TIP3    H219135   5.558   7.412   0.670
 6420TIP3   OH219136   5.442   7.024   0.614
 6420TIP3    H119137   5.489   7.045   0.534
 6420TIP3    H219138   5.441   6.928   0.617
 6421TIP3   OH219139   5.426   7.303   1.203
 6421TIP3    H119140   5.452   7.210   1.203
 6421TIP3    H219141   5.409   7.323   1.294
 6422TIP3   OH219142   4.047   7.387   1.942
 6422TIP3    H119143   4.038   7.354   1.852
 6422TIP3    H219144   4.141   7.380   1.960
 6423TIP3   OH219145   5.694   7.730   2.030
 6423TIP3    H119146   5.758   7.659   2.021
 6423TIP3    H219147   5.689   7.769   1.943
 6424TIP3   OH219148   5.871   7.520   2.027
 6424TIP3    H119149   5.800   7.462   2.056
 6424TIP3    H219150   5.951   7.477   2.057
 6425TIP3   OH219151   5.426   6.747   0.660
 6425TIP3    H119152   5.496   6.683   0.659
 6425TIP3    H219153   5.397   6.749   0.752
 6426TIP3   OH219154   5.508   7.040   1.153
 6426TIP3    H119155   5.515   6.945   1.157
 6426TIP3    H219156   5.599   7.070   1.155
 6427TIP3   OH219157   5.549   7.191   1.601
 6427TIP3    H119158   5.635   7.209   1.562
 6427TIP3    H219159   5.554   7.230   1.689
 6428TIP3   OH219160   5.630   7.369   1.806
 6428TIP3    H119161   5.559   7.401   1.861
 6428TIP3    H219162   5.663   7.448   1.761
 6429TIP3   OH219163   4.267   7.063   2.572
 6429TIP3    H119164   4.361   7.061   2.592
 6429TIP3    H219165   4.233   6.983   2.612
 6430TIP3   OH219166   6.115   6.952   2.340
 6430TIP3    H119167   6.178   6.895   2.297
 6430TIP3    H219168   6.087   7.013   2.272
 6431TIP3   OH219169   5.514   6.769   1.165
 6431TIP3    H119170   5.580   6.758   1.234
 6431TIP3    H219171   5.455   6.694   1.177
 6432TIP3   OH219172   4.243   6.782   1.938
 6432TIP3    H119173   4.297   6.703   1.939
 6432TIP3    H219174   4.305   6.852   1.918
 6433TIP3   OH219175   4.019   7.045   1.985
 6433TIP3    H119176   4.072   7.038   1.905
 6433TIP3    H219177   4.055   7.122   2.030
 6434TIP3   OH219178   6.003   7.098   2.138
 6434TIP3    H119179   5.911   7.122   2.150
 6434TIP3    H219180   6.000   7.019   2.083
 6435TIP3   OH219181   5.653   6.721   0.892
 6435TIP3    H119182   5.648   6.662   0.816
 6435TIP3    H219183   5.666   6.808   0.854
 6436TIP3   OH219184   4.005   6.551   1.484
 6436TIP3    H119185   3.920   6.546   1.527
 6436TIP3    H219186   3.990   6.607   1.408
 6437TIP3   OH219187   5.141   8.227   1.067
 6437TIP3    H119188   5.205   8.211   0.997
 6437TIP3    H219189   5.172   8.307   1.110
 6438TIP3   OH219190   4.238   6.599   2.316
 6438TIP3    H119191   4.190   6.601   2.399
 6438TIP3    H219192   4.184   6.652   2.257
 6439TIP3   OH219193   4.254   8.078   2.380
 6439TIP3    H119194   4.163   8.048   2.377
 6439TIP3    H219195   4.281   8.062   2.470
 6440TIP3   OH219196   4.477   8.111   1.937
 6440TIP3    H119197   4.425   8.183   1.902
 6440TIP3    H219198   4.563   8.121   1.896
 6441TIP3   OH219199   4.870   8.345   2.080
 6441TIP3    H119200   4.909   8.335   2.167
 6441TIP3    H219201   4.932   8.399   2.032
 6442TIP3   OH219202   5.060   8.501   1.954
 6442TIP3    H119203   5.117   8.446   1.901
 6442TIP3    H219204   5.120   8.552   2.008
 6443TIP3   OH219205   5.917   6.851   2.023
 6443TIP3    H119206   5.833   6.898   2.029
 6443TIP3    H219207   5.893   6.759   2.032
 6444TIP3   OH219208   4.140   8.346   1.988
 6444TIP3    H119209   4.048   8.364   1.966
 6444TIP3    H219210   4.163   8.414   2.051
 6445TIP3   OH219211   4.364   8.337   1.829
 6445TIP3    H119212   4.282   8.342   1.879
 6445TIP3    H219213   4.339   8.363   1.740
 6446TIP3   OH219214   4.778   8.367   1.635
 6446TIP3    H119215   4.706   8.374   1.573
 6446TIP3    H219216   4.783   8.454   1.675
 6447TIP3   OH219217   5.035   8.303   1.706
 6447TIP3    H119218   4.947   8.322   1.675
 6447TIP3    H219219   5.089   8.372   1.666
 6448TIP3   OH219220   5.234   8.483   1.634
 6448TIP3    H119221   5.215   8.570   1.600
 6448TIP3    H219222   5.263   8.433   1.557
 6449TIP3   OH219223   4.048   8.129   1.704
 6449TIP3    H119224   4.075   8.107   1.793
 6449TIP3    H219225   4.120   8.098   1.648
 6450TIP3   OH219226   4.255   8.017   1.567
 6450TIP3    H119227   4.264   7.931   1.607
 6450TIP3    H219228   4.342   8.057   1.573
 6451TIP3   OH219229   4.523   8.098   1.590
 6451TIP3    H119230   4.542   8.006   1.572
 6451TIP3    H219231   4.579   8.119   1.665
 6452TIP3   OH219232   5.057   6.744   1.687
 6452TIP3    H119233   5.016   6.673   1.736
 6452TIP3    H219234   5.124   6.701   1.634
 6453TIP3   OH219235   5.573   6.671   1.590
 6453TIP3    H119236   5.619   6.709   1.515
 6453TIP3    H219237   5.526   6.745   1.629
 6454TIP3   OH219238   5.699   6.741   1.364
 6454TIP3    H119239   5.775   6.691   1.332
 6454TIP3    H219240   5.728   6.832   1.362
 6455TIP3   OH219241   4.315   6.451   1.669
 6455TIP3    H119242   4.227   6.416   1.680
 6455TIP3    H219243   4.371   6.374   1.662
 6456TIP3   OH219244   4.115   6.346   1.328
 6456TIP3    H119245   4.153   6.393   1.255
 6456TIP3    H219246   4.084   6.414   1.387
 6457TIP3   OH219247   4.791   6.488   1.579
 6457TIP3    H119248   4.840   6.533   1.511
 6457TIP3    H219249   4.833   6.514   1.661
 6458TIP3   OH219250   5.249   6.604   1.551
 6458TIP3    H119251   5.323   6.603   1.490
 6458TIP3    H219252   5.267   6.532   1.612
 6459TIP3   OH219253   5.341   6.560   1.159
 6459TIP3    H119254   5.265   6.612   1.185
 6459TIP3    H219255   5.329   6.476   1.204
 6460TIP3   OH219256   3.802   7.898   1.082
 6460TIP3    H119257   3.715   7.870   1.054
 6460TIP3    H219258   3.801   7.994   1.072
 6461TIP3   OH219259   4.244   6.475   1.116
 6461TIP3    H119260   4.291   6.423   1.051
 6461TIP3    H219261   4.313   6.525   1.160
 6462TIP3   OH219262   4.741   6.662   1.192
 6462TIP3    H119263   4.802   6.628   1.258
 6462TIP3    H219264   4.750   6.757   1.197
 6463TIP3   OH219265   4.556   8.138   0.641
 6463TIP3    H119266   4.636   8.176   0.677
 6463TIP3    H219267   4.583   8.053   0.606
 6464TIP3   OH219268   5.341   8.161   0.893
 6464TIP3    H119269   5.374   8.080   0.932
 6464TIP3    H219270   5.333   8.141   0.800
 6465TIP3   OH219271   4.547   6.737   2.547
 6465TIP3    H119272   4.513   6.672   2.609
 6465TIP3    H219273   4.639   6.746   2.571
 6466TIP3   OH219274   4.792   6.741   2.674
 6466TIP3    H119275   4.870   6.720   2.623
 6466TIP3    H219276   4.788   6.673   2.741
 6467TIP3   OH219277   3.871   7.877   0.795
 6467TIP3    H119278   3.863   7.864   0.890
 6467TIP3    H219279   3.960   7.847   0.775
 6468TIP3   OH219280   5.605   6.849   2.462
 6468TIP3    H119281   5.623   6.820   2.551
 6468TIP3    H219282   5.690   6.843   2.418
 6469TIP3   OH219283   5.533   8.363   1.984
 6469TIP3    H119284   5.459   8.333   1.931
 6469TIP3    H219285   5.519   8.458   1.991
 6470TIP3   OH219286   6.678   7.746   1.248
 6470TIP3    H119287   6.765   7.785   1.255
 6470TIP3    H219288   6.692   7.666   1.197
 6471TIP3   OH219289   6.083   7.588   1.511
 6471TIP3    H119290   6.113   7.542   1.589
 6471TIP3    H219291   6.162   7.603   1.459
 6472TIP3   OH219292   5.904   7.934   1.235
 6472TIP3    H119293   5.935   7.843   1.233
 6472TIP3    H219294   5.980   7.984   1.266
 6473TIP3   OH219295   5.738   7.165   1.047
 6473TIP3    H119296   5.706   7.252   1.069
 6473TIP3    H219297   5.691   7.141   0.967
 6474TIP3   OH219298   5.855   7.531   1.171
 6474TIP3    H119299   5.895   7.455   1.214
 6474TIP3    H219300   5.930   7.587   1.147
 6475TIP3   OH219301   6.622   8.034   1.173
 6475TIP3    H119302   6.666   7.961   1.130
 6475TIP3    H219303   6.689   8.101   1.183
 6476TIP3   OH219304   7.546   7.233   1.244
 6476TIP3    H119305   7.536   7.284   1.163
 6476TIP3    H219306   7.586   7.150   1.215
 6477TIP3   OH219307   6.957   7.439   1.275
 6477TIP3    H119308   7.026   7.409   1.334
 6477TIP3    H219309   7.002   7.465   1.196
 6478TIP3   OH219310   6.323   7.080   1.264
 6478TIP3    H119311   6.316   7.093   1.169
 6478TIP3    H219312   6.269   7.003   1.281
 6479TIP3   OH219313   6.939   7.249   0.767
 6479TIP3    H119314   7.000   7.191   0.813
 6479TIP3    H219315   6.982   7.269   0.684
 6480TIP3   OH219316   5.951   7.325   1.325
 6480TIP3    H119317   6.035   7.332   1.369
 6480TIP3    H219318   5.962   7.255   1.261
 6481TIP3   OH219319   6.485   7.627   0.960
 6481TIP3    H119320   6.566   7.627   1.011
 6481TIP3    H219321   6.480   7.540   0.922
 6482TIP3   OH219322   7.748   7.533   1.303
 6482TIP3    H119323   7.655   7.533   1.323
 6482TIP3    H219324   7.791   7.537   1.388
 6483TIP3   OH219325   6.325   7.106   1.628
 6483TIP3    H119326   6.280   7.155   1.559
 6483TIP3    H219327   6.268   7.116   1.705
 6484TIP3   OH219328   6.393   7.859   1.424
 6484TIP3    H119329   6.361   7.940   1.464
 6484TIP3    H219330   6.406   7.882   1.332
 6485TIP3   OH219331   7.245   7.365   0.904
 6485TIP3    H119332   7.198   7.295   0.857
 6485TIP3    H219333   7.273   7.324   0.986
 6486TIP3   OH219334   6.196   7.251   1.428
 6486TIP3    H119335   6.257   7.321   1.453
 6486TIP3    H219336   6.241   7.204   1.358
 6487TIP3   OH219337   6.274   8.084   1.525
 6487TIP3    H119338   6.274   8.177   1.503
 6487TIP3    H219339   6.200   8.073   1.584
 6488TIP3   OH219340   5.783   7.780   0.783
 6488TIP3    H119341   5.736   7.831   0.718
 6488TIP3    H219342   5.771   7.828   0.865
 6489TIP3   OH219343   7.186   8.393   0.856
 6489TIP3    H119344   7.176   8.298   0.863
 6489TIP3    H219345   7.140   8.416   0.775
 6490TIP3   OH219346   7.391   7.147   1.454
 6490TIP3    H119347   7.300   7.159   1.428
 6490TIP3    H219348   7.442   7.174   1.377
 6491TIP3   OH219349   6.708   6.798   1.367
 6491TIP3    H119350   6.685   6.705   1.378
 6491TIP3    H219351   6.628   6.845   1.390
 6492TIP3   OH219352   7.317   8.212   1.335
 6492TIP3    H119353   7.284   8.156   1.265
 6492TIP3    H219354   7.243   8.269   1.358
 6493TIP3   OH219355   7.439   7.816   1.036
 6493TIP3    H119356   7.403   7.903   1.053
 6493TIP3    H219357   7.415   7.797   0.946
 6494TIP3   OH219358   7.158   7.670   1.545
 6494TIP3    H119359   7.178   7.756   1.582
 6494TIP3    H219360   7.085   7.686   1.485
 6495TIP3   OH219361   6.225   7.680   1.004
 6495TIP3    H119362   6.159   7.626   0.961
 6495TIP3    H219363   6.309   7.645   0.972
 6496TIP3   OH219364   6.350   8.104   1.148
 6496TIP3    H119365   6.327   8.119   1.057
 6496TIP3    H219366   6.410   8.030   1.146
 6497TIP3   OH219367   6.293   7.613   1.336
 6497TIP3    H119368   6.334   7.566   1.264
 6497TIP3    H219369   6.343   7.695   1.343
 6498TIP3   OH219370   6.832   8.131   0.945
 6498TIP3    H119371   6.831   8.155   1.037
 6498TIP3    H219372   6.868   8.042   0.943
 6499TIP3   OH219373   6.468   8.151   1.714
 6499TIP3    H119374   6.397   8.207   1.745
 6499TIP3    H219375   6.431   8.105   1.639
 6500TIP3   OH219376   6.239   7.742   1.783
 6500TIP3    H119377   6.240   7.837   1.797
 6500TIP3    H219378   6.146   7.720   1.774
 6501TIP3   OH219379   6.263   8.328   1.754
 6501TIP3    H119380   6.231   8.337   1.664
 6501TIP3    H219381   6.183   8.326   1.807
 6502TIP3   OH219382   6.041   7.561   0.848
 6502TIP3    H119383   6.066   7.623   0.780
 6502TIP3    H219384   6.106   7.491   0.842
 6503TIP3   OH219385   5.868   7.895   1.664
 6503TIP3    H119386   5.796   7.869   1.606
 6503TIP3    H219387   5.905   7.811   1.693
 6504TIP3   OH219388   5.684   8.065   1.329
 6504TIP3    H119389   5.765   8.032   1.289
 6504TIP3    H219390   5.709   8.151   1.364
 6505TIP3   OH219391   7.594   8.556   1.291
 6505TIP3    H119392   7.653   8.481   1.293
 6505TIP3    H219393   7.522   8.532   1.349
 6506TIP3   OH219394   6.570   8.366   1.563
 6506TIP3    H119395   6.661   8.391   1.579
 6506TIP3    H219396   6.552   8.299   1.629
 6507TIP3   OH219397   5.940   8.283   0.847
 6507TIP3    H119398   5.961   8.252   0.935
 6507TIP3    H219399   5.920   8.204   0.797
 6508TIP3   OH219400   7.465   7.638   1.668
 6508TIP3    H119401   7.442   7.647   1.575
 6508TIP3    H219402   7.479   7.544   1.680
 6509TIP3   OH219403   6.037   8.109   1.656
 6509TIP3    H119404   6.081   8.100   1.740
 6509TIP3    H219405   5.974   8.036   1.654
 6510TIP3   OH219406   6.463   6.894   1.467
 6510TIP3    H119407   6.372   6.872   1.447
 6510TIP3    H219408   6.458   6.981   1.507
 6511TIP3   OH219409   7.005   7.027   1.661
 6511TIP3    H119410   7.077   6.993   1.713
 6511TIP3    H219411   6.926   6.991   1.701
 6512TIP3   OH219412   7.248   7.430   1.643
 6512TIP3    H119413   7.197   7.419   1.723
 6512TIP3    H219414   7.216   7.512   1.606
 6513TIP3   OH219415   6.387   7.429   1.509
 6513TIP3    H119416   6.341   7.443   1.592
 6513TIP3    H219417   6.362   7.505   1.456
 6514TIP3   OH219418   6.222   7.369   0.813
 6514TIP3    H119419   6.239   7.287   0.859
 6514TIP3    H219420   6.302   7.384   0.761
 6515TIP3   OH219421   6.960   7.658   1.799
 6515TIP3    H119422   6.928   7.590   1.858
 6515TIP3    H219423   7.054   7.663   1.815
 6516TIP3   OH219424   6.889   7.499   0.869
 6516TIP3    H119425   6.817   7.521   0.809
 6516TIP3    H219426   6.922   7.415   0.837
 6517TIP3   OH219427   6.208   7.443   1.716
 6517TIP3    H119428   6.221   7.500   1.792
 6517TIP3    H219429   6.182   7.358   1.754
 6518TIP3   OH219430   5.785   6.992   1.314
 6518TIP3    H119431   5.867   7.016   1.356
 6518TIP3    H219432   5.811   6.950   1.232
 6519TIP3   OH219433   5.705   6.955   0.778
 6519TIP3    H119434   5.698   6.932   0.685
 6519TIP3    H219435   5.657   7.037   0.786
 6520TIP3   OH219436   6.929   7.693   1.385
 6520TIP3    H119437   6.935   7.615   1.329
 6520TIP3    H219438   6.885   7.662   1.464
 6521TIP3   OH219439   6.598   7.055   1.241
 6521TIP3    H119440   6.505   7.067   1.261
 6521TIP3    H219441   6.639   7.139   1.263
 6522TIP3   OH219442   5.995   7.120   1.145
 6522TIP3    H119443   5.900   7.112   1.133
 6522TIP3    H219444   6.033   7.068   1.074
 6523TIP3   OH219445   6.393   7.154   0.596
 6523TIP3    H119446   6.435   7.080   0.552
 6523TIP3    H219447   6.307   7.161   0.555
 6524TIP3   OH219448   7.124   7.094   1.364
 6524TIP3    H119449   7.093   7.172   1.410
 6524TIP3    H219450   7.045   7.052   1.330
 6525TIP3   OH219451   7.200   8.875   1.425
 6525TIP3    H119452   7.193   8.808   1.357
 6525TIP3    H219453   7.283   8.919   1.408
 6526TIP3   OH219454   6.220   8.012   1.866
 6526TIP3    H119455   6.304   8.028   1.909
 6526TIP3    H219456   6.156   8.016   1.936
 6527TIP3   OH219457   6.696   7.521   1.100
 6527TIP3    H119458   6.756   7.488   1.032
 6527TIP3    H219459   6.690   7.450   1.164
 6528TIP3   OH219460   6.263   6.802   0.998
 6528TIP3    H119461   6.194   6.782   1.061
 6528TIP3    H219462   6.268   6.898   0.996
 6529TIP3   OH219463   6.646   7.355   1.544
 6529TIP3    H119464   6.565   7.398   1.516
 6529TIP3    H219465   6.712   7.425   1.543
 6530TIP3   OH219466   7.303   8.033   1.124
 6530TIP3    H119467   7.261   8.076   1.050
 6530TIP3    H219468   7.241   7.964   1.150
 6531TIP3   OH219469   6.795   8.068   1.611
 6531TIP3    H119470   6.770   8.080   1.702
 6531TIP3    H219471   6.712   8.073   1.563
 6532TIP3   OH219472   6.062   7.714   1.210
 6532TIP3    H119473   6.119   7.715   1.133
 6532TIP3    H219474   6.116   7.677   1.280
 6533TIP3   OH219475   5.964   7.669   1.800
 6533TIP3    H119476   5.964   7.642   1.892
 6533TIP3    H219477   5.895   7.616   1.759
 6534TIP3   OH219478   6.717   7.802   1.826
 6534TIP3    H119479   6.649   7.747   1.788
 6534TIP3    H219480   6.799   7.766   1.792
 6535TIP3   OH219481   6.945   8.268   1.402
 6535TIP3    H119482   6.885   8.306   1.467
 6535TIP3    H219483   7.030   8.307   1.422
 6536TIP3   OH219484   7.559   8.223   1.452
 6536TIP3    H119485   7.467   8.233   1.428
 6536TIP3    H219486   7.593   8.158   1.392
 6537TIP3   OH219487   6.987   7.916   0.884
 6537TIP3    H119488   6.947   7.860   0.951
 6537TIP3    H219489   7.031   7.854   0.826
 6538TIP3   OH219490   6.236   8.174   0.906
 6538TIP3    H119491   6.259   8.156   0.815
 6538TIP3    H219492   6.163   8.115   0.925
 6539TIP3   OH219493   5.755   7.330   0.439
 6539TIP3    H119494   5.813   7.404   0.421
 6539TIP3    H219495   5.695   7.363   0.506
 6540TIP3   OH219496   6.322   7.711   0.698
 6540TIP3    H119497   6.232   7.730   0.672
 6540TIP3    H219498   6.335   7.759   0.779
 6541TIP3   OH219499   6.412   8.536   1.422
 6541TIP3    H119500   6.425   8.471   1.352
 6541TIP3    H219501   6.475   8.512   1.489
 6542TIP3   OH219502   6.904   7.956   1.188
 6542TIP3    H119503   6.921   7.966   1.281
 6542TIP3    H219504   6.973   7.897   1.157
 6543TIP3   OH219505   7.165   8.659   1.260
 6543TIP3    H119506   7.085   8.608   1.265
 6543TIP3    H219507   7.163   8.698   1.172
 6544TIP3   OH219508   6.137   7.193   1.824
 6544TIP3    H119509   6.042   7.201   1.828
 6544TIP3    H219510   6.161   7.155   1.909
 6545TIP3   OH219511   5.910   8.296   1.463
 6545TIP3    H119512   5.954   8.230   1.516
 6545TIP3    H219513   5.901   8.372   1.522
 6546TIP3   OH219514   5.832   7.612   0.570
 6546TIP3    H119515   5.811   7.659   0.651
 6546TIP3    H219516   5.865   7.680   0.511
 6547TIP3   OH219517   7.019   7.282   1.548
 6547TIP3    H119518   7.106   7.312   1.573
 6547TIP3    H219519   7.008   7.199   1.594
 6548TIP3   OH219520   6.688   7.246   0.628
 6548TIP3    H119521   6.774   7.268   0.665
 6548TIP3    H219522   6.643   7.199   0.698
 6549TIP3   OH219523   6.865   7.514   1.582
 6549TIP3    H119524   6.907   7.559   1.656
 6549TIP3    H219525   6.916   7.434   1.569
 6550TIP3   OH219526   6.836   6.906   0.823
 6550TIP3    H119527   6.777   6.929   0.895
 6550TIP3    H219528   6.789   6.931   0.744
 6551TIP3   OH219529   6.198   6.935   0.655
 6551TIP3    H119530   6.139   7.011   0.662
 6551TIP3    H219531   6.285   6.972   0.665
 6552TIP3   OH219532   7.492   7.317   1.652
 6552TIP3    H119533   7.404   7.353   1.663
 6552TIP3    H219534   7.478   7.233   1.609
 6553TIP3   OH219535   7.105   7.694   0.803
 6553TIP3    H119536   7.052   7.614   0.807
 6553TIP3    H219537   7.195   7.663   0.815
 6554TIP3   OH219538   5.891   7.095   0.432
 6554TIP3    H119539   5.840   7.176   0.427
 6554TIP3    H219540   5.829   7.026   0.408
 6555TIP3   OH219541   6.204   6.830   1.411
 6555TIP3    H119542   6.168   6.789   1.333
 6555TIP3    H219543   6.200   6.762   1.478
 6556TIP3   OH219544   5.698   7.974   0.953
 6556TIP3    H119545   5.733   8.037   1.016
 6556TIP3    H219546   5.664   8.027   0.882
 6557TIP3   OH219547   5.935   8.606   1.884
 6557TIP3    H119548   6.012   8.607   1.941
 6557TIP3    H219549   5.924   8.515   1.858
 6558TIP3   OH219550   6.386   8.488   1.941
 6558TIP3    H119551   6.480   8.467   1.938
 6558TIP3    H219552   6.348   8.438   1.869
 6559TIP3   OH219553   7.063   8.479   1.724
 6559TIP3    H119554   7.047   8.399   1.772
 6559TIP3    H219555   7.133   8.523   1.773
 6560TIP3   OH219556   6.021   8.008   2.059
 6560TIP3    H119557   6.042   7.915   2.070
 6560TIP3    H219558   5.935   8.009   2.017
 6561TIP3   OH219559   6.674   8.075   1.863
 6561TIP3    H119560   6.601   8.089   1.803
 6561TIP3    H219561   6.695   7.982   1.855
 6562TIP3   OH219562   7.175   8.152   1.624
 6562TIP3    H119563   7.210   8.235   1.591
 6562TIP3    H219564   7.080   8.161   1.616
 6563TIP3   OH219565   6.133   7.756   2.059
 6563TIP3    H119566   6.206   7.731   2.003
 6563TIP3    H219567   6.172   7.765   2.146
 6564TIP3   OH219568   6.490   7.621   1.740
 6564TIP3    H119569   6.406   7.666   1.749
 6564TIP3    H219570   6.524   7.651   1.656
 6565TIP3   OH219571   7.000   7.992   1.855
 6565TIP3    H119572   7.034   7.936   1.785
 6565TIP3    H219573   7.004   7.938   1.934
 6566TIP3   OH219574   6.609   7.394   1.836
 6566TIP3    H119575   6.607   7.320   1.775
 6566TIP3    H219576   6.569   7.466   1.788
 6567TIP3   OH219577   6.592   7.133   1.678
 6567TIP3    H119578   6.619   7.202   1.618
 6567TIP3    H219579   6.497   7.128   1.668
 6568TIP3   OH219580   6.606   7.722   1.518
 6568TIP3    H119581   6.657   7.716   1.438
 6568TIP3    H219582   6.535   7.782   1.496
 6569TIP3   OH219583   7.226   7.694   1.870
 6569TIP3    H119584   7.306   7.642   1.857
 6569TIP3    H219585   7.237   7.769   1.813
 6570TIP3   OH219586   7.240   7.903   1.696
 6570TIP3    H119587   7.203   7.988   1.674
 6570TIP3    H219588   7.327   7.904   1.657
 6571TIP3   OH219589   6.500   7.481   2.076
 6571TIP3    H119590   6.430   7.420   2.095
 6571TIP3    H219591   6.526   7.461   1.986
 6572TIP3   OH219592   6.755   6.927   1.735
 6572TIP3    H119593   6.705   7.005   1.712
 6572TIP3    H219594   6.693   6.855   1.725
 6573TIP3   OH219595   6.860   7.442   1.934
 6573TIP3    H119596   6.835   7.428   2.025
 6573TIP3    H219597   6.781   7.424   1.884
 6574TIP3   OH219598   7.107   7.352   1.859
 6574TIP3    H119599   7.019   7.379   1.884
 6574TIP3    H219600   7.114   7.261   1.889
 6575TIP3   OH219601   6.338   7.257   2.124
 6575TIP3    H119602   6.337   7.170   2.085
 6575TIP3    H219603   6.374   7.245   2.211
 6576TIP3   OH219604   6.817   6.954   2.001
 6576TIP3    H119605   6.882   6.884   1.998
 6576TIP3    H219606   6.782   6.958   1.912
 6577TIP3   OH219607   6.916   7.168   2.150
 6577TIP3    H119608   6.884   7.097   2.095
 6577TIP3    H219609   6.849   7.236   2.143
 6578TIP3   OH219610   5.475   8.395   0.917
 6578TIP3    H119611   5.433   8.309   0.923
 6578TIP3    H219612   5.516   8.407   1.002
 6579TIP3   OH219613   5.732   8.222   1.068
 6579TIP3    H119614   5.644   8.218   1.103
 6579TIP3    H219615   5.774   8.295   1.114
 6580TIP3   OH219616   7.452   8.694   1.108
 6580TIP3    H119617   7.437   8.631   1.037
 6580TIP3    H219618   7.497   8.643   1.176
 6581TIP3   OH219619   7.406   8.366   1.720
 6581TIP3    H119620   7.342   8.344   1.787
 6581TIP3    H219621   7.442   8.450   1.748
 6582TIP3   OH219622   7.261   8.442   1.121
 6582TIP3    H119623   7.246   8.527   1.161
 6582TIP3    H219624   7.234   8.452   1.030
 6583TIP3   OH219625   5.836   7.651   1.418
 6583TIP3    H119626   5.833   7.612   1.331
 6583TIP3    H219627   5.926   7.637   1.448
 6584TIP3   OH219628   7.474   7.991   1.591
 6584TIP3    H119629   7.545   7.928   1.602
 6584TIP3    H219630   7.501   8.046   1.517
 6585TIP3   OH219631   7.666   7.818   1.654
 6585TIP3    H119632   7.606   7.743   1.650
 6585TIP3    H219633   7.746   7.782   1.694
 6586TIP3   OH219634   7.522   7.421   1.048
 6586TIP3    H119635   7.562   7.470   0.976
 6586TIP3    H219636   7.471   7.487   1.096
 6587TIP3   OH219637   7.374   7.605   1.191
 6587TIP3    H119638   7.407   7.622   1.279
 6587TIP3    H219639   7.396   7.684   1.142
 6588TIP3   OH219640   6.087   7.369   2.117
 6588TIP3    H119641   6.180   7.345   2.115
 6588TIP3    H219642   6.042   7.286   2.134
 6589TIP3   OH219643   7.900   7.218   1.849
 6589TIP3    H119644   7.955   7.142   1.828
 6589TIP3    H219645   7.882   7.258   1.764
 6590TIP3   OH219646   6.018   7.033   1.458
 6590TIP3    H119647   6.084   6.964   1.454
 6590TIP3    H219648   6.068   7.115   1.455
 6591TIP3   OH219649   5.793   7.298   1.544
 6591TIP3    H119650   5.843   7.304   1.463
 6591TIP3    H219651   5.805   7.383   1.586
 6592TIP3   OH219652   7.769   7.323   1.630
 6592TIP3    H119653   7.675   7.326   1.647
 6592TIP3    H219654   7.779   7.270   1.551
 6593TIP3   OH219655   5.817   6.850   1.082
 6593TIP3    H119656   5.743   6.817   1.032
 6593TIP3    H219657   5.872   6.893   1.017
 6594TIP3   OH219658   6.032   6.833   1.777
 6594TIP3    H119659   6.000   6.836   1.867
 6594TIP3    H219660   5.972   6.889   1.728
 6595TIP3   OH219661   6.044   8.329   1.914
 6595TIP3    H119662   5.951   8.308   1.900
 6595TIP3    H219663   6.058   8.315   2.007
 6596TIP3   OH219664   6.225   8.346   1.480
 6596TIP3    H119665   6.155   8.386   1.430
 6596TIP3    H219666   6.297   8.408   1.475
 6597TIP3   OH219667   6.655   8.672   1.622
 6597TIP3    H119668   6.701   8.627   1.692
 6597TIP3    H219669   6.724   8.704   1.564
 6598TIP3   OH219670   6.891   8.704   1.486
 6598TIP3    H119671   6.952   8.687   1.413
 6598TIP3    H219672   6.936   8.770   1.539
 6599TIP3   OH219673   7.638   7.016   1.598
 6599TIP3    H119674   7.551   6.985   1.572
 6599TIP3    H219675   7.696   6.943   1.580
 6600TIP3   OH219676   5.900   8.563   1.567
 6600TIP3    H119677   5.827   8.588   1.510
 6600TIP3    H219678   5.916   8.641   1.621
 6601TIP3   OH219679   6.072   8.544   1.359
 6601TIP3    H119680   6.026   8.557   1.443
 6601TIP3    H219681   6.003   8.518   1.298
 6602TIP3   OH219682   6.623   8.686   0.984
 6602TIP3    H119683   6.544   8.654   0.941
 6602TIP3    H219684   6.596   8.700   1.075
 6603TIP3   OH219685   6.889   8.672   0.970
 6603TIP3    H119686   6.793   8.674   0.972
 6603TIP3    H219687   6.916   8.732   1.039
 6604TIP3   OH219688   7.181   8.689   0.982
 6604TIP3    H119689   7.249   8.722   0.924
 6604TIP3    H219690   7.118   8.646   0.924
 6605TIP3   OH219691   5.865   8.424   1.216
 6605TIP3    H119692   5.858   8.380   1.301
 6605TIP3    H219693   5.927   8.371   1.166
 6606TIP3   OH219694   6.022   8.231   1.109
 6606TIP3    H119695   6.046   8.179   1.186
 6606TIP3    H219696   6.097   8.290   1.096
 6607TIP3   OH219697   6.219   8.409   1.107
 6607TIP3    H119698   6.303   8.371   1.133
 6607TIP3    H219699   6.231   8.503   1.117
 6608TIP3   OH219700   6.893   6.998   1.252
 6608TIP3    H119701   6.805   6.970   1.276
 6608TIP3    H219702   6.923   6.933   1.189
 6609TIP3   OH219703   7.359   6.965   0.939
 6609TIP3    H119704   7.453   6.948   0.929
 6609TIP3    H219705   7.345   6.966   1.034
 6610TIP3   OH219706   7.647   7.075   0.667
 6610TIP3    H119707   7.665   6.997   0.719
 6610TIP3    H219708   7.589   7.128   0.722
 6611TIP3   OH219709   6.115   6.692   1.199
 6611TIP3    H119710   6.025   6.664   1.214
 6611TIP3    H219711   6.166   6.611   1.195
 6612TIP3   OH219712   5.930   6.622   0.963
 6612TIP3    H119713   5.907   6.659   0.877
 6612TIP3    H219714   5.893   6.684   1.026
 6613TIP3   OH219715   6.478   6.722   1.143
 6613TIP3    H119716   6.404   6.745   1.087
 6613TIP3    H219717   6.459   6.765   1.227
 6614TIP3   OH219718   7.089   6.914   1.046
 6614TIP3    H119719   7.115   6.895   0.956
 6614TIP3    H219720   7.144   6.857   1.100
 6615TIP3   OH219721   6.002   6.779   0.450
 6615TIP3    H119722   5.994   6.684   0.437
 6615TIP3    H219723   6.023   6.788   0.543
 6616TIP3   OH219724   6.454   6.869   0.766
 6616TIP3    H119725   6.440   6.777   0.790
 6616TIP3    H219726   6.398   6.918   0.827
 6617TIP3   OH219727   6.343   6.984   2.042
 6617TIP3    H119728   6.311   6.917   2.101
 6617TIP3    H219729   6.435   6.994   2.065
 6618TIP3   OH219730   6.592   6.995   2.167
 6618TIP3    H119731   6.671   6.977   2.117
 6618TIP3    H219732   6.584   6.922   2.227
 6619TIP3   OH219733   7.393   7.083   1.961
 6619TIP3    H119734   7.410   7.061   2.052
 6619TIP3    H219735   7.479   7.099   1.923
 6620TIP3   OH219736   7.361   8.579   1.432
 6620TIP3    H119737   7.302   8.617   1.367
 6620TIP3    H219738   7.367   8.645   1.501
 6621TIP3   OH219739   8.116   7.283   1.095
 6621TIP3    H119740   8.105   7.296   1.001
 6621TIP3    H219741   8.032   7.307   1.133
 6622TIP3   OH219742   8.030   8.010   1.239
 6622TIP3    H119743   8.058   8.099   1.258
 6622TIP3    H219744   8.013   8.010   1.144
 6623TIP3   OH219745   7.783   8.134   1.132
 6623TIP3    H119746   7.718   8.129   1.062
 6623TIP3    H219747   7.791   8.044   1.164
 6624TIP3   OH219748   7.971   8.315   1.056
 6624TIP3    H119749   8.059   8.293   1.088
 6624TIP3    H219750   7.917   8.240   1.080
 6625TIP3   OH219751   8.888   7.333   1.074
 6625TIP3    H119752   8.935   7.288   1.144
 6625TIP3    H219753   8.844   7.264   1.026
 6626TIP3   OH219754   7.995   7.763   1.083
 6626TIP3    H119755   8.013   7.804   1.168
 6626TIP3    H219756   8.001   7.669   1.100
 6627TIP3   OH219757   8.054   8.248   1.376
 6627TIP3    H119758   8.097   8.236   1.460
 6627TIP3    H219759   7.961   8.234   1.394
 6628TIP3   OH219760   7.760   7.871   1.225
 6628TIP3    H119761   7.808   7.832   1.298
 6628TIP3    H219762   7.754   7.801   1.160
 6629TIP3   OH219763   8.023   7.536   1.244
 6629TIP3    H119764   7.928   7.550   1.252
 6629TIP3    H219765   8.038   7.452   1.286
 6630TIP3   OH219766   7.918   7.103   0.811
 6630TIP3    H119767   7.941   7.060   0.728
 6630TIP3    H219768   7.913   7.032   0.874
 6631TIP3   OH219769   7.696   8.972   1.403
 6631TIP3    H119770   7.749   8.969   1.324
 6631TIP3    H219771   7.689   8.881   1.432
 6632TIP3   OH219772   7.829   8.233   1.673
 6632TIP3    H119773   7.858   8.145   1.648
 6632TIP3    H219774   7.734   8.225   1.682
 6633TIP3   OH219775   7.926   7.971   1.659
 6633TIP3    H119776   8.005   7.987   1.606
 6633TIP3    H219777   7.951   7.997   1.747
 6634TIP3   OH219778   8.259   7.905   1.057
 6634TIP3    H119779   8.233   7.882   1.146
 6634TIP3    H219780   8.205   7.848   1.002
 6635TIP3   OH219781   8.398   7.581   1.311
 6635TIP3    H119782   8.473   7.590   1.369
 6635TIP3    H219783   8.358   7.668   1.311
 6636TIP3   OH219784   8.558   7.417   1.101
 6636TIP3    H119785   8.613   7.492   1.123
 6636TIP3    H219786   8.469   7.444   1.124
 6637TIP3   OH219787   8.420   7.861   1.571
 6637TIP3    H119788   8.346   7.811   1.536
 6637TIP3    H219789   8.484   7.862   1.500
 6638TIP3   OH219790   8.595   7.203   1.286
 6638TIP3    H119791   8.556   7.257   1.217
 6638TIP3    H219792   8.628   7.125   1.240
 6639TIP3   OH219793   8.617   7.821   1.388
 6639TIP3    H119794   8.699   7.861   1.414
 6639TIP3    H219795   8.626   7.728   1.410
 6640TIP3   OH219796   8.071   7.495   1.773
 6640TIP3    H119797   8.117   7.468   1.693
 6640TIP3    H219798   8.137   7.484   1.843
 6641TIP3   OH219799   8.670   7.213   1.554
 6641TIP3    H119800   8.732   7.145   1.527
 6641TIP3    H219801   8.616   7.228   1.476
 6642TIP3   OH219802   8.602   7.403   1.750
 6642TIP3    H119803   8.596   7.335   1.683
 6642TIP3    H219804   8.531   7.464   1.729
 6643TIP3   OH219805   7.853   7.660   1.784
 6643TIP3    H119806   7.927   7.600   1.775
 6643TIP3    H219807   7.783   7.605   1.821
 6644TIP3   OH219808   7.781   7.339   0.700
 6644TIP3    H119809   7.769   7.248   0.672
 6644TIP3    H219810   7.860   7.367   0.656
 6645TIP3   OH219811   7.612   7.529   0.800
 6645TIP3    H119812   7.666   7.456   0.769
 6645TIP3    H219813   7.663   7.607   0.779
 6646TIP3   OH219814   7.783   7.159   1.413
 6646TIP3    H119815   7.736   7.101   1.474
 6646TIP3    H219816   7.759   7.127   1.326
 6647TIP3   OH219817   7.916   8.566   1.406
 6647TIP3    H119818   7.855   8.501   1.372
 6647TIP3    H219819   7.952   8.527   1.485
 6648TIP3   OH219820   8.126   7.167   1.592
 6648TIP3    H119821   8.089   7.107   1.657
 6648TIP3    H219822   8.212   7.191   1.627
 6649TIP3   OH219823   8.348   7.215   1.765
 6649TIP3    H119824   8.431   7.168   1.764
 6649TIP3    H219825   8.294   7.170   1.829
 6650TIP3   OH219826   9.276   7.254   1.425
 6650TIP3    H119827   9.298   7.167   1.458
 6650TIP3    H219828   9.205   7.285   1.483
 6651TIP3   OH219829   0.377   8.037   3.517
 6651TIP3    H119830   0.425   7.965   3.478
 6651TIP3    H219831   0.314   8.065   3.450
 6652TIP3   OH219832   0.185   8.106   3.329
 6652TIP3    H119833   0.102   8.132   3.368
 6652TIP3    H219834   0.165   8.028   3.278
 6653TIP3   OH219835   0.118   7.878   3.187
 6653TIP3    H119836   0.028   7.848   3.180
 6653TIP3    H219837   0.171   7.799   3.176
 6654TIP3   OH219838   1.911   8.302   2.319
 6654TIP3    H119839   1.931   8.386   2.360
 6654TIP3    H219840   1.944   8.311   2.230
 6655TIP3   OH219841   1.264   8.496   2.373
 6655TIP3    H119842   1.306   8.414   2.400
 6655TIP3    H219843   1.225   8.476   2.288
 6656TIP3   OH219844   1.332   8.237   1.977
 6656TIP3    H119845   1.392   8.214   2.049
 6656TIP3    H219846   1.387   8.283   1.914
 6657TIP3   OH219847   1.969   8.517   2.489
 6657TIP3    H119848   1.877   8.540   2.477
 6657TIP3    H219849   1.996   8.564   2.568
 6658TIP3   OH219850   0.602   8.152   2.733
 6658TIP3    H119851   0.538   8.164   2.662
 6658TIP3    H219852   0.552   8.164   2.813
 6659TIP3   OH219853   1.501   8.221   2.189
 6659TIP3    H119854   1.452   8.228   2.271
 6659TIP3    H219855   1.559   8.297   2.190
 6660TIP3   OH219856   0.506   8.241   2.473
 6660TIP3    H119857   0.556   8.317   2.501
 6660TIP3    H219858   0.516   8.238   2.378
 6661TIP3   OH219859   1.693   8.216   2.481
 6661TIP3    H119860   1.610   8.235   2.437
 6661TIP3    H219861   1.760   8.239   2.416
 6662TIP3   OH219862   0.966   7.856   2.511
 6662TIP3    H119863   0.954   7.762   2.525
 6662TIP3    H219864   0.885   7.895   2.544
 6663TIP3   OH219865   1.489   8.832   2.532
 6663TIP3    H119866   1.580   8.856   2.550
 6663TIP3    H219867   1.461   8.891   2.462
 6664TIP3   OH219868   1.578   7.814   1.531
 6664TIP3    H119869   1.508   7.838   1.592
 6664TIP3    H219870   1.598   7.896   1.485
 6665TIP3   OH219871   1.713   8.652   2.707
 6665TIP3    H119872   1.636   8.668   2.761
 6665TIP3    H219873   1.738   8.562   2.726
 6666TIP3   OH219874   0.714   7.928   2.612
 6666TIP3    H119875   0.636   7.890   2.572
 6666TIP3    H219876   0.685   8.012   2.647
 6667TIP3   OH219877   1.248   8.070   2.821
 6667TIP3    H119878   1.319   8.044   2.881
 6667TIP3    H219879   1.168   8.046   2.868
 6668TIP3   OH219880   1.491   8.440   2.771
 6668TIP3    H119881   1.460   8.454   2.861
 6668TIP3    H219882   1.446   8.507   2.720
 6669TIP3   OH219883   0.607   8.486   2.588
 6669TIP3    H119884   0.553   8.467   2.665
 6669TIP3    H219885   0.551   8.541   2.533
 6670TIP3   OH219886   1.221   8.651   2.906
 6670TIP3    H119887   1.231   8.577   2.965
 6670TIP3    H219888   1.311   8.681   2.890
 6671TIP3   OH219889   1.155   8.397   2.145
 6671TIP3    H119890   1.106   8.457   2.088
 6671TIP3    H219891   1.202   8.340   2.084
 6672TIP3   OH219892   0.480   8.453   2.838
 6672TIP3    H119893   0.404   8.500   2.872
 6672TIP3    H219894   0.478   8.369   2.884
 6673TIP3   OH219895   1.078   8.679   2.487
 6673TIP3    H119896   1.140   8.635   2.428
 6673TIP3    H219897   1.079   8.626   2.567
 6674TIP3   OH219898   0.943   8.119   2.189
 6674TIP3    H119899   0.905   8.207   2.202
 6674TIP3    H219900   1.007   8.110   2.259
 6675TIP3   OH219901   1.355   8.236   2.426
 6675TIP3    H119902   1.332   8.255   2.517
 6675TIP3    H219903   1.287   8.176   2.396
 6676TIP3   OH219904   0.907   8.374   2.300
 6676TIP3    H119905   0.997   8.394   2.272
 6676TIP3    H219906   0.912   8.377   2.396
 6677TIP3   OH219907   0.875   8.387   2.574
 6677TIP3    H119908   0.789   8.429   2.580
 6677TIP3    H219909   0.933   8.445   2.624
 6678TIP3   OH219910   1.039   8.815   3.041
 6678TIP3    H119911   0.968   8.824   2.978
 6678TIP3    H219912   1.107   8.767   2.993
 6679TIP3   OH219913   0.475   8.210   2.972
 6679TIP3    H119914   0.393   8.160   2.975
 6679TIP3    H219915   0.524   8.181   3.049
 6680TIP3   OH219916   1.268   8.302   2.679
 6680TIP3    H119917   1.349   8.338   2.716
 6680TIP3    H219918   1.252   8.222   2.729
 6681TIP3   OH219919   1.153   8.114   1.819
 6681TIP3    H119920   1.201   8.098   1.738
 6681TIP3    H219921   1.215   8.163   1.874
 6682TIP3   OH219922   1.079   8.514   2.709
 6682TIP3    H119923   1.119   8.563   2.781
 6682TIP3    H219924   1.139   8.441   2.693
 6683TIP3   OH219925   1.096   7.948   2.035
 6683TIP3    H119926   1.041   8.001   2.092
 6683TIP3    H219927   1.120   8.006   1.963
 6684TIP3   OH219928   1.745   8.374   2.709
 6684TIP3    H119929   1.654   8.384   2.740
 6684TIP3    H219930   1.737   8.323   2.629
 6685TIP3   OH219931   1.402   8.525   2.010
 6685TIP3    H119932   1.408   8.483   2.096
 6685TIP3    H219933   1.475   8.586   2.009
 6686TIP3   OH219934   0.466   7.820   2.542
 6686TIP3    H119935   0.459   7.767   2.462
 6686TIP3    H219936   0.444   7.759   2.613
 6687TIP3   OH219937   0.501   8.758   3.214
 6687TIP3    H119938   0.527   8.669   3.194
 6687TIP3    H219939   0.420   8.749   3.263
 6688TIP3   OH219940   0.730   8.565   2.833
 6688TIP3    H119941   0.645   8.527   2.856
 6688TIP3    H219942   0.726   8.575   2.738
 6689TIP3   OH219943   0.865   8.373   2.989
 6689TIP3    H119944   0.862   8.302   2.925
 6689TIP3    H219945   0.826   8.448   2.944
 6690TIP3   OH219946   0.865   8.197   2.775
 6690TIP3    H119947   0.889   8.248   2.697
 6690TIP3    H219948   0.772   8.178   2.764
 6691TIP3   OH219949   1.472   8.667   3.167
 6691TIP3    H119950   1.438   8.592   3.118
 6691TIP3    H219951   1.556   8.687   3.126
 6692TIP3   OH219952   0.622   8.520   3.180
 6692TIP3    H119953   0.607   8.431   3.212
 6692TIP3    H219954   0.717   8.528   3.174
 6693TIP3   OH219955   0.993   7.988   2.895
 6693TIP3    H119956   0.953   8.065   2.854
 6693TIP3    H219957   0.928   7.918   2.883
 6694TIP3   OH219958   1.132   8.394   3.045
 6694TIP3    H119959   1.125   8.455   3.118
 6694TIP3    H219960   1.041   8.375   3.020
 6695TIP3   OH219961   1.395   8.446   3.024
 6695TIP3    H119962   1.313   8.399   3.036
 6695TIP3    H219963   1.461   8.392   3.069
 6696TIP3   OH219964   1.618   8.353   3.155
 6696TIP3    H119965   1.631   8.258   3.154
 6696TIP3    H219966   1.610   8.375   3.248
 6697TIP3   OH219967   0.584   8.272   3.294
 6697TIP3    H119968   0.586   8.183   3.259
 6697TIP3    H219969   0.623   8.264   3.381
 6698TIP3   OH219970   1.058   7.962   3.159
 6698TIP3    H119971   1.128   7.898   3.147
 6698TIP3    H219972   1.025   7.979   3.071
 6699TIP3   OH219973   1.152   8.171   3.311
 6699TIP3    H119974   1.129   8.098   3.254
 6699TIP3    H219975   1.076   8.228   3.309
 6700TIP3   OH219976   1.568   8.555   1.737
 6700TIP3    H119977   1.514   8.477   1.748
 6700TIP3    H219978   1.563   8.601   1.820
 6701TIP3   OH219979   1.972   8.964   2.684
 6701TIP3    H119980   1.886   8.966   2.640
 6701TIP3    H219981   2.033   8.937   2.615
 6702TIP3   OH219982   1.433   8.312   1.705
 6702TIP3    H119983   1.488   8.234   1.706
 6702TIP3    H219984   1.419   8.330   1.612
 6703TIP3   OH219985   1.648   8.448   2.205
 6703TIP3    H119986   1.720   8.486   2.155
 6703TIP3    H219987   1.662   8.479   2.295
 6704TIP3   OH219988   1.697   8.574   2.443
 6704TIP3    H119989   1.664   8.596   2.530
 6704TIP3    H219990   1.671   8.648   2.388
 6705TIP3   OH219991   0.320   8.350   3.297
 6705TIP3    H119992   0.409   8.322   3.278
 6705TIP3    H219993   0.268   8.270   3.297
 6706TIP3   OH219994   2.152   8.263   2.997
 6706TIP3    H119995   2.218   8.200   2.968
 6706TIP3    H219996   2.116   8.300   2.917
 6707TIP3   OH219997   1.583   8.079   1.754
 6707TIP3    H119998   1.623   8.070   1.841
 6707TIP3    H219999   1.519   8.009   1.750
 6708TIP3   OH220000   0.345   8.064   2.623
 6708TIP3    H120001   0.376   7.980   2.591
 6708TIP3    H220002   0.372   8.127   2.555
 6709TIP3   OH220003   2.003   8.332   2.778
 6709TIP3    H120004   1.914   8.364   2.770
 6709TIP3    H220005   2.002   8.246   2.735
 6710TIP3   OH220006   1.661   8.026   1.361
 6710TIP3    H120007   1.708   7.966   1.302
 6710TIP3    H220008   1.720   8.100   1.373
 6711TIP3   OH220009   0.271   8.033   3.003
 6711TIP3    H120010   0.210   8.003   3.071
 6711TIP3    H220011   0.271   7.964   2.938
 6712TIP3   OH220012   1.924   8.083   2.695
 6712TIP3    H120013   1.834   8.060   2.670
 6712TIP3    H220014   1.972   8.000   2.693
 6713TIP3   OH220015   1.142   8.055   2.372
 6713TIP3    H120016   1.094   7.985   2.417
 6713TIP3    H220017   1.207   8.009   2.319
 6714TIP3   OH220018   1.626   7.949   2.207
 6714TIP3    H120019   1.664   8.009   2.143
 6714TIP3    H220020   1.535   7.977   2.216
 6715TIP3   OH220021   1.744   8.058   1.981
 6715TIP3    H120022   1.815   7.998   1.957
 6715TIP3    H220023   1.778   8.145   1.962
 6716TIP3   OH220024   0.832   7.768   2.273
 6716TIP3    H120025   0.797   7.831   2.210
 6716TIP3    H220026   0.885   7.821   2.333
 6717TIP3   OH220027   1.333   7.935   2.218
 6717TIP3    H120028   1.283   7.914   2.139
 6717TIP3    H220029   1.344   7.851   2.262
 6718TIP3   OH220030   1.398   7.873   1.736
 6718TIP3    H120031   1.305   7.875   1.712
 6718TIP3    H220032   1.405   7.798   1.796
 6719TIP3   OH220033   0.595   8.012   3.201
 6719TIP3    H120034   0.553   7.955   3.265
 6719TIP3    H220035   0.687   8.016   3.229
 6720TIP3   OH220036   0.840   8.013   3.326
 6720TIP3    H120037   0.920   7.995   3.276
 6720TIP3    H220038   0.836   7.942   3.390
 6721TIP3   OH220039   1.670   8.086   3.125
 6721TIP3    H120040   1.690   8.062   3.215
 6721TIP3    H220041   1.755   8.092   3.082
 6722TIP3   OH220042   1.815   8.446   1.634
 6722TIP3    H120043   1.753   8.518   1.620
 6722TIP3    H220044   1.796   8.415   1.723
 6723TIP3   OH220045   3.700   8.578   1.818
 6723TIP3    H120046   3.722   8.662   1.857
 6723TIP3    H220047   3.739   8.581   1.731
 6724TIP3   OH220048   3.071   8.769   1.831
 6724TIP3    H120049   3.098   8.680   1.856
 6724TIP3    H220050   3.029   8.758   1.746
 6725TIP3   OH220051   2.424   8.399   1.781
 6725TIP3    H120052   2.402   8.479   1.733
 6725TIP3    H220053   2.364   8.333   1.748
 6726TIP3   OH220054   3.112   8.505   1.439
 6726TIP3    H120055   3.176   8.494   1.510
 6726TIP3    H220056   3.164   8.539   1.366
 6727TIP3   OH220057   2.050   8.589   1.941
 6727TIP3    H120058   2.141   8.580   1.967
 6727TIP3    H220059   2.049   8.567   1.848
 6728TIP3   OH220060   2.490   8.791   1.753
 6728TIP3    H120061   2.577   8.753   1.742
 6728TIP3    H220062   2.432   8.736   1.700
 6729TIP3   OH220063   3.771   8.801   1.971
 6729TIP3    H120064   3.682   8.835   1.964
 6729TIP3    H220065   3.802   8.832   2.056
 6730TIP3   OH220066   2.406   8.394   2.246
 6730TIP3    H120067   2.356   8.436   2.176
 6730TIP3    H220068   2.349   8.400   2.323
 6731TIP3   OH220069   3.275   8.513   1.658
 6731TIP3    H120070   3.227   8.506   1.741
 6731TIP3    H220071   3.334   8.587   1.670
 6732TIP3   OH220072   2.303   8.498   2.012
 6732TIP3    H120073   2.355   8.577   2.022
 6732TIP3    H220074   2.345   8.450   1.940
 6733TIP3   OH220075   3.494   8.480   1.981
 6733TIP3    H120076   3.412   8.497   1.935
 6733TIP3    H220077   3.562   8.503   1.918
 6734TIP3   OH220078   2.750   8.102   1.977
 6734TIP3    H120079   2.743   8.010   2.002
 6734TIP3    H220080   2.671   8.143   2.013
 6735TIP3   OH220081   2.637   8.720   0.967
 6735TIP3    H120082   2.722   8.690   0.999
 6735TIP3    H220083   2.628   8.677   0.881
 6736TIP3   OH220084   3.319   9.044   2.061
 6736TIP3    H120085   3.296   9.135   2.084
 6736TIP3    H220086   3.234   8.999   2.056
 6737TIP3   OH220087   3.378   8.072   1.070
 6737TIP3    H120088   3.301   8.091   1.123
 6737TIP3    H220089   3.389   8.150   1.015
 6738TIP3   OH220090   3.526   8.962   2.232
 6738TIP3    H120091   3.462   8.980   2.164
 6738TIP3    H220092   3.542   8.868   2.226
 6739TIP3   OH220093   2.509   8.187   2.094
 6739TIP3    H120094   2.425   8.155   2.060
 6739TIP3    H220095   2.487   8.267   2.141
 6740TIP3   OH220096   3.044   8.316   2.303
 6740TIP3    H120097   3.114   8.293   2.364
 6740TIP3    H220098   2.963   8.296   2.350
 6741TIP3   OH220099   3.283   8.763   2.218
 6741TIP3    H120100   3.249   8.735   2.302
 6741TIP3    H220101   3.212   8.813   2.178
 6742TIP3   OH220102   2.647   8.253   1.057
 6742TIP3    H120103   2.625   8.260   1.150
 6742TIP3    H220104   2.619   8.165   1.032
 6743TIP3   OH220105   2.465   8.719   2.012
 6743TIP3    H120106   2.421   8.787   2.063
 6743TIP3    H220107   2.469   8.754   1.923
 6744TIP3   OH220108   2.325   8.605   1.629
 6744TIP3    H120109   2.233   8.590   1.653
 6744TIP3    H220110   2.334   8.566   1.542
 6745TIP3   OH220111   2.816   8.696   1.345
 6745TIP3    H120112   2.773   8.776   1.313
 6745TIP3    H220113   2.874   8.670   1.274
 6746TIP3   OH220114   3.033   8.902   2.415
 6746TIP3    H120115   3.010   8.842   2.486
 6746TIP3    H220116   3.126   8.918   2.425
 6747TIP3   OH220117   2.968   8.693   1.586
 6747TIP3    H120118   2.902   8.714   1.519
 6747TIP3    H220119   3.017   8.619   1.549
 6748TIP3   OH220120   2.255   8.682   2.334
 6748TIP3    H120121   2.204   8.739   2.392
 6748TIP3    H220122   2.258   8.598   2.378
 6749TIP3   OH220123   2.308   8.219   1.025
 6749TIP3    H120124   2.317   8.221   1.121
 6749TIP3    H220125   2.214   8.212   1.010
 6750TIP3   OH220126   1.869   8.284   1.881
 6750TIP3    H120127   1.935   8.308   1.946
 6750TIP3    H220128   1.917   8.236   1.814
 6751TIP3   OH220129   1.801   8.275   1.419
 6751TIP3    H120130   1.848   8.320   1.348
 6751TIP3    H220131   1.801   8.338   1.491
 6752TIP3   OH220132   3.075   8.910   2.065
 6752TIP3    H120133   3.075   8.874   1.976
 6752TIP3    H220134   3.004   8.864   2.109
 6753TIP3   OH220135   2.687   8.381   1.674
 6753TIP3    H120136   2.605   8.387   1.723
 6753TIP3    H220137   2.755   8.401   1.737
 6754TIP3   OH220138   2.085   8.481   1.687
 6754TIP3    H120139   1.996   8.471   1.654
 6754TIP3    H220140   2.124   8.394   1.677
 6755TIP3   OH220141   2.351   8.471   1.392
 6755TIP3    H120142   2.443   8.494   1.376
 6755TIP3    H220143   2.306   8.497   1.312
 6756TIP3   OH220144   3.127   8.505   1.894
 6756TIP3    H120145   3.115   8.517   1.989
 6756TIP3    H220146   3.059   8.442   1.870
 6757TIP3   OH220147   2.196   8.485   1.162
 6757TIP3    H120148   2.180   8.411   1.104
 6757TIP3    H220149   2.256   8.541   1.113
 6758TIP3   OH220150   2.738   8.671   1.767
 6758TIP3    H120151   2.826   8.675   1.731
 6758TIP3    H220152   2.750   8.650   1.859
 6759TIP3   OH220153   2.223   8.235   1.673
 6759TIP3    H120154   2.197   8.158   1.725
 6759TIP3    H220155   2.248   8.199   1.588
 6760TIP3   OH220156   2.722   8.627   2.048
 6760TIP3    H120157   2.634   8.665   2.042
 6760TIP3    H220158   2.771   8.689   2.101
 6761TIP3   OH220159   2.901   8.358   1.087
 6761TIP3    H120160   2.808   8.338   1.073
 6761TIP3    H220161   2.905   8.454   1.085
 6762TIP3   OH220162   2.977   8.631   1.121
 6762TIP3    H120163   3.062   8.608   1.159
 6762TIP3    H220164   2.999   8.673   1.038
 6763TIP3   OH220165   2.832   9.085   2.447
 6763TIP3    H120166   2.787   9.049   2.524
 6763TIP3    H220167   2.907   9.028   2.434
 6764TIP3   OH220168   3.370   8.698   0.990
 6764TIP3    H120169   3.318   8.673   0.913
 6764TIP3    H220170   3.397   8.788   0.973
 6765TIP3   OH220171   2.239   8.432   2.464
 6765TIP3    H120172   2.145   8.446   2.474
 6765TIP3    H220173   2.264   8.380   2.540
 6766TIP3   OH220174   3.090   8.545   2.165
 6766TIP3    H120175   3.163   8.580   2.216
 6766TIP3    H220176   3.067   8.464   2.210
 6767TIP3   OH220177   2.970   8.288   1.346
 6767TIP3    H120178   2.945   8.313   1.257
 6767TIP3    H220179   3.013   8.365   1.382
 6768TIP3   OH220180   2.634   8.498   1.424
 6768TIP3    H120181   2.696   8.568   1.403
 6768TIP3    H220182   2.652   8.476   1.515
 6769TIP3   OH220183   2.906   8.753   2.211
 6769TIP3    H120184   2.933   8.792   2.295
 6769TIP3    H220185   2.958   8.673   2.205
 6770TIP3   OH220186   2.787   8.177   1.519
 6770TIP3    H120187   2.760   8.252   1.572
 6770TIP3    H220188   2.858   8.210   1.464
 6771TIP3   OH220189   2.321   8.206   1.307
 6771TIP3    H120190   2.307   8.293   1.345
 6771TIP3    H220191   2.415   8.191   1.315
 6772TIP3   OH220192   3.540   8.680   2.186
 6772TIP3    H120193   3.448   8.702   2.203
 6772TIP3    H220194   3.536   8.613   2.117
 6773TIP3   OH220195   3.221   8.842   1.536
 6773TIP3    H120196   3.135   8.814   1.566
 6773TIP3    H220197   3.281   8.813   1.605
 6774TIP3   OH220198   2.246   8.104   2.055
 6774TIP3    H120199   2.217   8.073   1.970
 6774TIP3    H220200   2.237   8.029   2.113
 6775TIP3   OH220201   2.342   9.024   2.765
 6775TIP3    H120202   2.341   8.975   2.683
 6775TIP3    H220203   2.251   9.026   2.793
 6776TIP3   OH220204   2.574   8.884   2.283
 6776TIP3    H120205   2.491   8.882   2.235
 6776TIP3    H220206   2.623   8.956   2.243
 6777TIP3   OH220207   2.382   8.613   1.015
 6777TIP3    H120208   2.347   8.607   0.926
 6777TIP3    H220209   2.467   8.656   1.004
 6778TIP3   OH220210   2.661   8.689   2.455
 6778TIP3    H120211   2.663   8.609   2.403
 6778TIP3    H220212   2.635   8.757   2.394
 6779TIP3   OH220213   2.664   8.476   2.277
 6779TIP3    H120214   2.690   8.513   2.192
 6779TIP3    H220215   2.573   8.451   2.265
 6780TIP3   OH220216   3.407   8.955   2.644
 6780TIP3    H120217   3.484   8.905   2.616
 6780TIP3    H220218   3.370   8.990   2.563
 6781TIP3   OH220219   2.521   8.712   2.695
 6781TIP3    H120220   2.445   8.655   2.712
 6781TIP3    H220221   2.539   8.699   2.602
 6782TIP3   OH220222   2.784   8.252   2.379
 6782TIP3    H120223   2.745   8.333   2.345
 6782TIP3    H220224   2.717   8.185   2.364
 6783TIP3   OH220225   2.927   8.675   2.549
 6783TIP3    H120226   2.919   8.678   2.645
 6783TIP3    H220227   2.837   8.667   2.518
 6784TIP3   OH220228   3.185   8.650   2.441
 6784TIP3    H120229   3.103   8.643   2.491
 6784TIP3    H220230   3.253   8.640   2.507
 6785TIP3   OH220231   3.412   8.629   2.605
 6785TIP3    H120232   3.424   8.534   2.609
 6785TIP3    H220233   3.399   8.655   2.696
 6786TIP3   OH220234   2.340   8.521   2.776
 6786TIP3    H120235   2.350   8.431   2.746
 6786TIP3    H220236   2.376   8.521   2.865
 6787TIP3   OH220237   2.840   8.214   2.643
 6787TIP3    H120238   2.913   8.153   2.635
 6787TIP3    H220239   2.814   8.231   2.552
 6788TIP3   OH220240   2.941   8.413   2.799
 6788TIP3    H120241   2.912   8.343   2.742
 6788TIP3    H220242   2.875   8.482   2.788
 6789TIP3   OH220243   3.221   8.611   0.780
 6789TIP3    H120244   3.173   8.642   0.703
 6789TIP3    H220245   3.220   8.516   0.773
 6790TIP3   OH220246   3.345   8.829   1.290
 6790TIP3    H120247   3.302   8.745   1.274
 6790TIP3    H220248   3.310   8.858   1.375
 6791TIP3   OH220249   3.767   9.097   2.257
 6791TIP3    H120250   3.678   9.068   2.236
 6791TIP3    H220251   3.823   9.023   2.234
 6792TIP3   OH220252   3.192   8.335   0.742
 6792TIP3    H120253   3.268   8.305   0.792
 6792TIP3    H220254   3.118   8.288   0.779
 6793TIP3   OH220255   3.242   8.578   1.201
 6793TIP3    H120256   3.290   8.496   1.218
 6793TIP3    H220257   3.287   8.617   1.126
 6794TIP3   OH220258   3.417   8.743   1.714
 6794TIP3    H120259   3.492   8.775   1.664
 6794TIP3    H220260   3.434   8.773   1.803
 6795TIP3   OH220261   3.515   8.904   1.923
 6795TIP3    H120262   3.444   8.953   1.964
 6795TIP3    H220263   3.534   8.954   1.843
 6796TIP3   OH220264   2.074   8.592   2.737
 6796TIP3    H120265   2.168   8.601   2.753
 6796TIP3    H220266   2.055   8.501   2.758
 6797TIP3   OH220267   3.950   8.518   2.483
 6797TIP3    H120268   4.018   8.462   2.444
 6797TIP3    H220269   3.910   8.563   2.409
 6798TIP3   OH220270   3.370   8.344   1.264
 6798TIP3    H120271   3.419   8.331   1.345
 6798TIP3    H220272   3.310   8.269   1.259
 6799TIP3   OH220273   2.067   8.316   2.081
 6799TIP3    H120274   2.132   8.245   2.081
 6799TIP3    H220275   2.118   8.395   2.063
 6800TIP3   OH220276   1.865   8.615   2.140
 6800TIP3    H120277   1.923   8.601   2.065
 6800TIP3    H220278   1.906   8.685   2.190
 6801TIP3   OH220279   3.793   8.616   2.278
 6801TIP3    H120280   3.706   8.655   2.270
 6801TIP3    H220281   3.785   8.531   2.234
 6802TIP3   OH220282   3.426   8.275   0.883
 6802TIP3    H120283   3.478   8.215   0.828
 6802TIP3    H220284   3.482   8.352   0.894
 6803TIP3   OH220285   1.844   8.099   1.636
 6803TIP3    H120286   1.758   8.087   1.675
 6803TIP3    H220287   1.828   8.160   1.563
 6804TIP3   OH220288   2.073   8.129   2.459
 6804TIP3    H120289   2.019   8.122   2.537
 6804TIP3    H220290   2.023   8.185   2.399
 6805TIP3   OH220291   3.718   8.364   2.186
 6805TIP3    H120292   3.629   8.349   2.156
 6805TIP3    H220293   3.760   8.278   2.182
 6806TIP3   OH220294   2.933   8.314   1.822
 6806TIP3    H120295   2.887   8.244   1.867
 6806TIP3    H220296   2.998   8.269   1.768
 6807TIP3   OH220297   3.424   8.228   1.714
 6807TIP3    H120298   3.462   8.277   1.641
 6807TIP3    H220299   3.332   8.252   1.713
 6808TIP3   OH220300   3.540   8.302   1.476
 6808TIP3    H120301   3.608   8.240   1.449
 6808TIP3    H220302   3.580   8.388   1.464
 6809TIP3   OH220303   2.157   8.005   1.814
 6809TIP3    H120304   2.069   7.970   1.827
 6809TIP3    H220305   2.213   7.928   1.807
 6810TIP3   OH220306   1.975   7.904   1.481
 6810TIP3    H120307   2.012   7.954   1.409
 6810TIP3    H220308   1.935   7.970   1.538
 6811TIP3   OH220309   2.640   8.042   1.720
 6811TIP3    H120310   2.687   8.088   1.650
 6811TIP3    H220311   2.681   8.074   1.801
 6812TIP3   OH220312   3.136   8.176   1.690
 6812TIP3    H120313   3.164   8.139   1.607
 6812TIP3    H220314   3.143   8.104   1.752
 6813TIP3   OH220315   3.187   8.137   1.259
 6813TIP3    H120316   3.108   8.184   1.286
 6813TIP3    H220317   3.178   8.050   1.298
 6814TIP3   OH220318   2.105   8.034   1.268
 6814TIP3    H120319   2.133   7.968   1.205
 6814TIP3    H220320   2.184   8.083   1.289
 6815TIP3   OH220321   2.594   8.246   1.325
 6815TIP3    H120322   2.648   8.192   1.383
 6815TIP3    H220323   2.605   8.335   1.358
 6816TIP3   OH220324   2.376   8.260   2.690
 6816TIP3    H120325   2.346   8.198   2.756
 6816TIP3    H220326   2.469   8.273   2.710
 6817TIP3   OH220327   2.625   8.279   2.807
 6817TIP3    H120328   2.702   8.257   2.755
 6817TIP3    H220329   2.621   8.213   2.875
 6818TIP3   OH220330   3.462   8.359   2.608
 6818TIP3    H120331   3.480   8.336   2.699
 6818TIP3    H220332   3.549   8.360   2.567
 6819TIP3   OH220333   3.600   8.776   1.160
 6819TIP3    H120334   3.581   8.840   1.229
 6819TIP3    H220335   3.515   8.737   1.140
 6820TIP3   OH220336   5.451   8.857   1.429
 6820TIP3    H120337   5.509   8.923   1.466
 6820TIP3    H220338   5.389   8.907   1.375
 6821TIP3   OH220339   4.833   9.002   1.373
 6821TIP3    H120340   4.858   8.911   1.388
 6821TIP3    H220341   4.768   8.997   1.303
 6822TIP3   OH220342   4.187   8.711   1.328
 6822TIP3    H120343   4.161   8.772   1.259
 6822TIP3    H220344   4.204   8.629   1.282
 6823TIP3   OH220345   4.881   8.837   1.051
 6823TIP3    H120346   4.953   8.782   1.080
 6823TIP3    H220347   4.890   8.840   0.956
 6824TIP3   OH220348   3.823   8.857   1.432
 6824TIP3    H120349   3.911   8.851   1.471
 6824TIP3    H220350   3.834   8.824   1.343
 6825TIP3   OH220351   4.212   9.063   1.313
 6825TIP3    H120352   4.306   9.075   1.299
 6825TIP3    H220353   4.182   9.017   1.234
 6826TIP3   OH220354   5.576   9.098   1.504
 6826TIP3    H120355   5.487   9.134   1.503
 6826TIP3    H220356   5.616   9.134   1.583
 6827TIP3   OH220357   4.203   8.655   1.740
 6827TIP3    H120358   4.153   8.701   1.673
 6827TIP3    H220359   4.153   8.668   1.821
 6828TIP3   OH220360   5.109   8.772   1.211
 6828TIP3    H120361   5.041   8.756   1.276
 6828TIP3    H220362   5.155   8.849   1.243
 6829TIP3   OH220363   4.071   8.801   1.551
 6829TIP3    H120364   4.124   8.877   1.571
 6829TIP3    H220365   4.110   8.764   1.472
 6830TIP3   OH220366   5.215   8.724   1.515
 6830TIP3    H120367   5.137   8.756   1.470
 6830TIP3    H220368   5.288   8.756   1.462
 6831TIP3   OH220369   4.538   8.355   1.477
 6831TIP3    H120370   4.536   8.265   1.509
 6831TIP3    H220371   4.459   8.394   1.512
 6832TIP3   OH220372   8.361   0.047   1.592
 6832TIP3    H120373   8.365   0.143   1.594
 6832TIP3    H220374   8.272   0.027   1.562
 6833TIP3   OH220375   5.250   8.390   0.523
 6833TIP3    H120376   5.179   8.379   0.460
 6833TIP3    H220377   5.284   8.478   0.506
 6834TIP3   OH220378   5.316   9.235   1.765
 6834TIP3    H120379   5.241   9.246   1.707
 6834TIP3    H220380   5.338   9.142   1.759
 6835TIP3   OH220381   4.300   8.448   1.584
 6835TIP3    H120382   4.214   8.418   1.555
 6835TIP3    H220383   4.283   8.529   1.631
 6836TIP3   OH220384   4.843   8.584   1.801
 6836TIP3    H120385   4.915   8.556   1.857
 6836TIP3    H220386   4.764   8.555   1.847
 6837TIP3   OH220387   5.077   9.004   1.706
 6837TIP3    H120388   5.046   9.004   1.796
 6837TIP3    H220389   5.056   9.092   1.673
 6838TIP3   OH220390   4.653   8.492   0.493
 6838TIP3    H120391   4.561   8.465   0.494
 6838TIP3    H220392   4.697   8.423   0.443
 6839TIP3   OH220393   4.240   9.027   1.580
 6839TIP3    H120394   4.170   9.079   1.619
 6839TIP3    H220395   4.234   9.046   1.486
 6840TIP3   OH220396   4.103   8.874   1.122
 6840TIP3    H120397   4.013   8.855   1.149
 6840TIP3    H220398   4.112   8.832   1.036
 6841TIP3   OH220399   4.628   8.925   0.867
 6841TIP3    H120400   4.583   9.010   0.868
 6841TIP3    H220401   4.688   8.931   0.792
 6842TIP3   OH220402   4.784   9.195   1.913
 6842TIP3    H120403   4.774   9.125   1.976
 6842TIP3    H220404   4.868   9.236   1.936
 6843TIP3   OH220405   4.676   8.985   1.155
 6843TIP3    H120406   4.604   9.002   1.094
 6843TIP3    H220407   4.737   8.931   1.106
 6844TIP3   OH220408   4.100   9.000   1.861
 6844TIP3    H120409   4.010   9.028   1.876
 6844TIP3    H220410   4.102   8.908   1.889
 6845TIP3   OH220411   4.129   8.552   0.475
 6845TIP3    H120412   4.080   8.632   0.491
 6845TIP3    H220413   4.109   8.529   0.384
 6846TIP3   OH220414   3.672   8.528   1.414
 6846TIP3    H120415   3.742   8.566   1.468
 6846TIP3    H220416   3.709   8.527   1.325
 6847TIP3   OH220417   3.566   8.517   0.924
 6847TIP3    H120418   3.615   8.571   0.862
 6847TIP3    H220419   3.498   8.575   0.958
 6848TIP3   OH220420   4.837   9.223   1.523
 6848TIP3    H120421   4.840   9.143   1.470
 6848TIP3    H220422   4.765   9.210   1.584
 6849TIP3   OH220423   4.472   8.748   1.216
 6849TIP3    H120424   4.397   8.702   1.254
 6849TIP3    H220425   4.543   8.734   1.279
 6850TIP3   OH220426   3.871   8.742   1.186
 6850TIP3    H120427   3.780   8.746   1.157
 6850TIP3    H220428   3.899   8.652   1.168
 6851TIP3   OH220429   4.114   8.720   0.892
 6851TIP3    H120430   4.161   8.637   0.896
 6851TIP3    H220431   4.073   8.719   0.805
 6852TIP3   OH220432   4.928   8.745   1.418
 6852TIP3    H120433   4.898   8.763   1.507
 6852TIP3    H220434   4.876   8.669   1.391
 6853TIP3   OH220435   4.071   8.790   0.618
 6853TIP3    H120436   4.044   8.876   0.650
 6853TIP3    H220437   4.162   8.801   0.591
 6854TIP3   OH220438   4.487   9.060   1.349
 6854TIP3    H120439   4.553   9.059   1.280
 6854TIP3    H220440   4.512   8.989   1.408
 6855TIP3   OH220441   3.959   8.483   1.153
 6855TIP3    H120442   3.945   8.413   1.217
 6855TIP3    H220443   4.022   8.446   1.091
 6856TIP3   OH220444   4.490   8.897   1.578
 6856TIP3    H120445   4.407   8.945   1.576
 6856TIP3    H220446   4.553   8.959   1.615
 6857TIP3   OH220447   7.798   0.037   2.002
 6857TIP3    H120448   7.731  -0.006   1.949
 6857TIP3    H220449   7.880   0.019   1.956
 6858TIP3   OH220450   4.047   8.733   1.952
 6858TIP3    H120451   3.952   8.743   1.953
 6858TIP3    H220452   4.067   8.679   2.029
 6859TIP3   OH220453   4.860   8.826   1.672
 6859TIP3    H120454   4.945   8.863   1.694
 6859TIP3    H220455   4.854   8.746   1.725
 6860TIP3   OH220456   4.587   8.730   0.639
 6860TIP3    H120457   4.611   8.659   0.580
 6860TIP3    H220458   4.668   8.752   0.685
 6861TIP3   OH220459   4.477   8.706   0.945
 6861TIP3    H120460   4.521   8.779   0.901
 6861TIP3    H220461   4.471   8.733   1.036
 6862TIP3   OH220462   4.686   9.046   1.699
 6862TIP3    H120463   4.719   9.095   1.774
 6862TIP3    H220464   4.745   8.972   1.691
 6863TIP3   OH220465   4.590   8.496   1.086
 6863TIP3    H120466   4.602   8.553   1.162
 6863TIP3    H220467   4.542   8.549   1.023
 6864TIP3   OH220468   4.002   8.420   0.823
 6864TIP3    H120469   3.959   8.499   0.791
 6864TIP3    H220470   4.094   8.446   0.835
 6865TIP3   OH220471   5.346   8.948   1.696
 6865TIP3    H120472   5.251   8.955   1.703
 6865TIP3    H220473   5.361   8.881   1.629
 6866TIP3   OH220474   8.188   0.109   1.069
 6866TIP3    H120475   8.164   0.043   1.004
 6866TIP3    H220476   8.282   0.098   1.081
 6867TIP3   OH220477   3.634   8.739   0.754
 6867TIP3    H120478   3.655   8.830   0.779
 6867TIP3    H220479   3.577   8.748   0.678
 6868TIP3   OH220480   4.036   8.370   1.555
 6868TIP3    H120481   4.004   8.340   1.471
 6868TIP3    H220482   4.029   8.294   1.612
 6869TIP3   OH220483   7.302   0.008   2.230
 6869TIP3    H120484   7.324   0.024   2.138
 6869TIP3    H220485   7.208   0.027   2.236
 6870TIP3   OH220486   4.351   9.122   1.836
 6870TIP3    H120487   4.262   9.089   1.853
 6870TIP3    H220488   4.359   9.122   1.741
 6871TIP3   OH220489   4.473   8.928   1.986
 6871TIP3    H120490   4.473   8.851   1.930
 6871TIP3    H220491   4.441   8.999   1.930
 6872TIP3   OH220492   4.460   8.729   1.791
 6872TIP3    H120493   4.484   8.777   1.712
 6872TIP3    H220494   4.369   8.703   1.777
 6873TIP3   OH220495   5.060   9.235   2.021
 6873TIP3    H120496   5.048   9.141   2.007
 6873TIP3    H220497   5.148   9.253   1.988
 6874TIP3   OH220498   4.341   9.022   2.218
 6874TIP3    H120499   4.265   8.965   2.233
 6874TIP3    H220500   4.374   8.996   2.132
 6875TIP3   OH220501   4.586   8.502   1.873
 6875TIP3    H120502   4.545   8.584   1.844
 6875TIP3    H220503   4.519   8.435   1.858
 6876TIP3   OH220504   4.732   8.980   2.075
 6876TIP3    H120505   4.728   8.976   2.170
 6876TIP3    H220506   4.645   8.956   2.045
 6877TIP3   OH220507   4.989   8.975   1.961
 6877TIP3    H120508   4.906   8.954   2.004
 6877TIP3    H220509   5.055   8.933   2.015
 6878TIP3   OH220510   5.201   8.904   2.116
 6878TIP3    H120511   5.215   8.809   2.121
 6878TIP3    H220512   5.195   8.932   2.207
 6879TIP3   OH220513   4.162   8.813   2.284
 6879TIP3    H120514   4.171   8.726   2.244
 6879TIP3    H220515   4.207   8.805   2.368
 6880TIP3   OH220516   4.643   8.495   2.139
 6880TIP3    H120517   4.713   8.430   2.138
 6880TIP3    H220518   4.615   8.502   2.048
 6881TIP3   OH220519   4.746   8.706   2.281
 6881TIP3    H120520   4.712   8.635   2.227
 6881TIP3    H220521   4.676   8.772   2.282
 6882TIP3   OH220522   5.170   9.134   0.868
 6882TIP3    H120523   5.197   9.055   0.914
 6882TIP3    H220524   5.075   9.140   0.882
 6883TIP3   OH220525   8.818   0.147   1.809
 6883TIP3    H120526   8.732   0.120   1.776
 6883TIP3    H220527   8.878   0.080   1.778
 6884TIP3   OH220528   5.010   8.890   0.804
 6884TIP3    H120529   5.058   8.815   0.839
 6884TIP3    H220530   5.058   8.914   0.725
 6885TIP3   OH220531   5.263   8.986   1.288
 6885TIP3    H120532   5.297   9.026   1.208
 6885TIP3    H220533   5.260   9.058   1.351
 6886TIP3   OH220534   5.319   9.194   1.454
 6886TIP3    H120535   5.241   9.229   1.496
 6886TIP3    H220536   5.345   9.260   1.391
 6887TIP3   OH220537   3.900   8.862   2.211
 6887TIP3    H120538   3.993   8.866   2.234
 6887TIP3    H220539   3.870   8.779   2.248
 6888TIP3   OH220540   5.742   8.771   1.987
 6888TIP3    H120541   5.808   8.718   1.942
 6888TIP3    H220542   5.706   8.827   1.918
 6889TIP3   OH220543   5.144   8.683   0.643
 6889TIP3    H120544   5.237   8.675   0.624
 6889TIP3    H220545   5.131   8.632   0.723
 6890TIP3   OH220546   3.875   8.593   1.598
 6890TIP3    H120547   3.933   8.518   1.589
 6890TIP3    H220548   3.932   8.669   1.585
 6891TIP3   OH220549   3.637   8.894   1.630
 6891TIP3    H120550   3.692   8.854   1.563
 6891TIP3    H220551   3.654   8.988   1.621
 6892TIP3   OH220552   5.599   8.923   1.809
 6892TIP3    H120553   5.505   8.935   1.798
 6892TIP3    H220554   5.626   8.876   1.730
 6893TIP3   OH220555   3.627   8.366   1.148
 6893TIP3    H120556   3.539   8.361   1.186
 6893TIP3    H220557   3.618   8.425   1.073
 6894TIP3   OH220558   3.878   8.419   1.959
 6894TIP3    H120559   3.823   8.405   2.036
 6894TIP3    H220560   3.822   8.467   1.898
 6895TIP3   OH220561   5.491   8.589   1.706
 6895TIP3    H120562   5.402   8.563   1.684
 6895TIP3    H220563   5.544   8.510   1.689
 6896TIP3   OH220564   4.673   8.571   1.344
 6896TIP3    H120565   4.629   8.503   1.396
 6896TIP3    H220566   4.756   8.531   1.318
 6897TIP3   OH220567   5.213   8.461   1.189
 6897TIP3    H120568   5.248   8.523   1.125
 6897TIP3    H220569   5.140   8.507   1.230
 6898TIP3   OH220570   5.330   8.617   1.001
 6898TIP3    H120571   5.405   8.613   0.943
 6898TIP3    H220572   5.306   8.710   1.004
 6899TIP3   OH220573   3.943   8.263   1.320
 6899TIP3    H120574   3.857   8.224   1.333
 6899TIP3    H220575   4.002   8.189   1.308
 6900TIP3   OH220576   3.765   8.165   1.027
 6900TIP3    H120577   3.741   8.197   0.940
 6900TIP3    H220578   3.721   8.225   1.087
 6901TIP3   OH220579   4.463   8.292   1.213
 6901TIP3    H120580   4.511   8.357   1.162
 6901TIP3    H220581   4.493   8.305   1.303
 6902TIP3   OH220582   4.916   8.469   1.271
 6902TIP3    H120583   4.899   8.441   1.181
 6902TIP3    H220584   4.937   8.388   1.318
 6903TIP3   OH220585   4.881   8.444   0.637
 6903TIP3    H120586   4.814   8.477   0.577
 6903TIP3    H220587   4.833   8.390   0.700
 6904TIP3   OH220588   3.742   8.285   0.777
 6904TIP3    H120589   3.774   8.221   0.713
 6904TIP3    H220590   3.819   8.339   0.796
 6905TIP3   OH220591   4.270   8.492   0.896
 6905TIP3    H120592   4.300   8.404   0.877
 6905TIP3    H220593   4.346   8.548   0.881
 6906TIP3   OH220594   4.183   8.550   2.183
 6906TIP3    H120595   4.150   8.484   2.245
 6906TIP3    H220596   4.275   8.559   2.205
 6907TIP3   OH220597   4.429   8.554   2.309
 6907TIP3    H120598   4.506   8.532   2.257
 6907TIP3    H220599   4.425   8.486   2.376
 6908TIP3   OH220600   5.251   8.633   2.107
 6908TIP3    H120601   5.270   8.603   2.196
 6908TIP3    H220602   5.337   8.634   2.064
 6909TIP3   OH220603   5.535   9.142   0.852
 6909TIP3    H120604   5.600   9.212   0.854
 6909TIP3    H220605   5.584   9.062   0.869
 6910TIP3   OH220606   6.054   8.863   1.371
 6910TIP3    H120607   5.987   8.827   1.312
 6910TIP3    H220608   6.003   8.902   1.442
 6911TIP3   OH220609   5.843   9.096   1.019
 6911TIP3    H120610   5.875   9.186   1.022
 6911TIP3    H220611   5.910   9.048   0.972
 6912TIP3   OH220612   6.375   8.618   0.914
 6912TIP3    H120613   6.310   8.579   0.854
 6912TIP3    H220614   6.340   8.705   0.934
 6913TIP3   OH220615   6.016   8.789   1.085
 6913TIP3    H120616   6.007   8.731   1.009
 6913TIP3    H220617   6.052   8.870   1.050
 6914TIP3   OH220618   6.711   8.920   1.260
 6914TIP3    H120619   6.776   8.909   1.329
 6914TIP3    H220620   6.656   8.842   1.266
 6915TIP3   OH220621   0.390   0.177   1.076
 6915TIP3    H120622   0.368   0.123   1.152
 6915TIP3    H220623   0.345   0.260   1.092
 6916TIP3   OH220624   9.249   0.103   1.009
 6916TIP3    H120625   9.283   0.139   1.091
 6916TIP3    H220626   9.305   0.140   0.941
 6917TIP3   OH220627   0.004   0.262   1.509
 6917TIP3    H120628   0.005   0.188   1.569
 6917TIP3    H220629   0.055   0.232   1.434
 6918TIP3   OH220630   9.085   0.041   1.272
 6918TIP3    H120631   9.101   0.037   1.366
 6918TIP3    H220632   9.148  -0.020   1.234
 6919TIP3   OH220633   5.525   8.707   0.826
 6919TIP3    H120634   5.568   8.785   0.861
 6919TIP3    H220635   5.583   8.675   0.757
 6920TIP3   OH220636   9.561   0.003   1.132
 6920TIP3    H120637   9.552  -0.010   1.037
 6920TIP3    H220638   9.616   0.080   1.140
 6921TIP3   OH220639   9.553   0.246   1.620
 6921TIP3    H120640   9.486   0.301   1.579
 6921TIP3    H220641   9.619   0.233   1.552
 6922TIP3   OH220642   5.857   8.998   1.525
 6922TIP3    H120643   5.765   9.007   1.501
 6922TIP3    H220644   5.859   8.924   1.586
 6923TIP3   OH220645   6.579   9.104   1.104
 6923TIP3    H120646   6.617   9.187   1.075
 6923TIP3    H220647   6.644   9.066   1.162
 6924TIP3   OH220648   9.744   0.204   1.165
 6924TIP3    H120649   9.816   0.201   1.228
 6924TIP3    H220650   9.786   0.183   1.081
 6925TIP3   OH220651   0.646   0.003   1.172
 6925TIP3    H120652   0.573   0.032   1.227
 6925TIP3    H220653   0.639   0.055   1.092
 6926TIP3   OH220654   5.739   8.670   1.052
 6926TIP3    H120655   5.709   8.608   0.986
 6926TIP3    H220656   5.810   8.625   1.097
 6927TIP3   OH220657   9.164   0.257   1.656
 6927TIP3    H120658   9.150   0.232   1.747
 6927TIP3    H220659   9.085   0.305   1.632
 6928TIP3   OH220660   9.320   0.212   1.253
 6928TIP3    H120661   9.251   0.161   1.296
 6928TIP3    H220662   9.342   0.279   1.318
 6929TIP3   OH220663   6.191   9.076   1.551
 6929TIP3    H120664   6.257   9.006   1.546
 6929TIP3    H220665   6.229   9.148   1.500
 6930TIP3   OH220666   6.317   8.975   1.236
 6930TIP3    H120667   6.297   9.065   1.212
 6930TIP3    H220668   6.237   8.943   1.278
 6931TIP3   OH220669   0.303   0.311   1.580
 6931TIP3    H120670   0.380   0.263   1.610
 6931TIP3    H220671   0.329   0.347   1.495
 6932TIP3   OH220672   9.385   0.054   1.775
 6932TIP3    H120673   9.318  -0.013   1.782
 6932TIP3    H220674   9.396   0.068   1.681
 6933TIP3   OH220675   6.292   8.778   1.471
 6933TIP3    H120676   6.204   8.789   1.434
 6933TIP3    H220677   6.321   8.693   1.439
 6934TIP3   OH220678   6.521   9.252   1.629
 6934TIP3    H120679   6.461   9.221   1.696
 6934TIP3    H220680   6.495   9.206   1.549
 6935TIP3   OH220681   6.780   9.230   1.519
 6935TIP3    H120682   6.694   9.208   1.554
 6935TIP3    H220683   6.841   9.187   1.579
 6936TIP3   OH220684   6.972   9.136   1.698
 6936TIP3    H120685   6.994   9.045   1.680
 6936TIP3    H220686   6.908   9.133   1.769
 6937TIP3   OH220687   5.950   9.080   1.809
 6937TIP3    H120688   5.962   9.002   1.755
 6937TIP3    H220689   5.998   9.062   1.890
 6938TIP3   OH220690   6.411   8.740   1.709
 6938TIP3    H120691   6.496   8.703   1.685
 6938TIP3    H220692   6.364   8.748   1.626
 6939TIP3   OH220693   6.533   8.967   1.800
 6939TIP3    H120694   6.495   8.892   1.755
 6939TIP3    H220695   6.464   9.032   1.802
 6940TIP3   OH220696   5.699   9.167   1.741
 6940TIP3    H120697   5.791   9.159   1.764
 6940TIP3    H220698   5.657   9.091   1.782
 6941TIP3   OH220699   7.430   9.013   1.380
 6941TIP3    H120700   7.521   8.984   1.376
 6941TIP3    H220701   7.431   9.101   1.343
 6942TIP3   OH220702   5.664   8.911   0.944
 6942TIP3    H120703   5.709   8.831   0.972
 6942TIP3    H220704   5.722   8.982   0.971
 6943TIP3   OH220705   5.397   9.110   1.081
 6943TIP3    H120706   5.425   9.128   0.991
 6943TIP3    H220707   5.478   9.103   1.131
 6944TIP3   OH220708   5.671   8.766   1.602
 6944TIP3    H120709   5.607   8.706   1.639
 6944TIP3    H220710   5.681   8.738   1.511
 6945TIP3   OH220711   7.282   8.902   1.146
 6945TIP3    H120712   7.243   8.930   1.063
 6945TIP3    H220713   7.327   8.820   1.124
 6946TIP3   OH220714   5.688   8.604   0.624
 6946TIP3    H120715   5.716   8.557   0.703
 6946TIP3    H220716   5.715   8.548   0.552
 6947TIP3   OH220717   5.977   8.811   1.707
 6947TIP3    H120718   5.950   8.746   1.772
 6947TIP3    H220719   6.070   8.827   1.727
 6948TIP3   OH220720   6.207   8.819   1.866
 6948TIP3    H120721   6.285   8.792   1.818
 6948TIP3    H220722   6.192   8.750   1.930
 6949TIP3   OH220723   7.043   8.871   1.648
 6949TIP3    H120724   7.075   8.843   1.734
 6949TIP3    H220725   7.119   8.863   1.591
 6950TIP3   OH220726   1.753   0.265   6.081
 6950TIP3    H120727   1.677   0.229   6.128
 6950TIP3    H220728   1.777   0.343   6.131
 6951TIP3   OH220729   1.411   0.654   6.068
 6951TIP3    H120730   1.443   0.582   6.014
 6951TIP3    H220731   1.424   0.624   6.158
 6952TIP3   OH220732   1.781   0.494   6.252
 6952TIP3    H120733   1.710   0.530   6.305
 6952TIP3    H220734   1.809   0.567   6.197
 6953TIP3   OH220735   1.541   0.485   5.890
 6953TIP3    H120736   1.587   0.405   5.867
 6953TIP3    H220737   1.602   0.556   5.869
 6954TIP3   OH220738   1.709   0.282   5.805
 6954TIP3    H120739   1.705   0.195   5.765
 6954TIP3    H220740   1.740   0.266   5.894
 6955TIP3   OH220741   2.096   0.325   6.585
 6955TIP3    H120742   2.064   0.255   6.527
 6955TIP3    H220743   2.068   0.406   6.542
 6956TIP3   OH220744   2.264  -0.000   6.402
 6956TIP3    H120745   2.174   0.027   6.415
 6956TIP3    H220746   2.284   0.024   6.311
 6957TIP3   OH220747   1.919   0.363   5.223
 6957TIP3    H120748   1.925   0.458   5.233
 6957TIP3    H220749   2.003   0.330   5.254
 6958TIP3   OH220750   2.300   0.743   6.641
 6958TIP3    H120751   2.308   0.648   6.645
 6958TIP3    H220752   2.219   0.762   6.690
 6959TIP3   OH220753   1.170   0.659   5.719
 6959TIP3    H120754   1.090   0.608   5.703
 6959TIP3    H220755   1.139   0.742   5.756
 6960TIP3   OH220756   1.321   0.579   5.395
 6960TIP3    H120757   1.386   0.568   5.325
 6960TIP3    H220758   1.373   0.593   5.474
 6961TIP3   OH220759   1.420   0.580   5.659
 6961TIP3    H120760   1.330   0.602   5.681
 6961TIP3    H220761   1.456   0.540   5.738
 6962TIP3   OH220762   2.016   1.065   6.734
 6962TIP3    H120763   2.013   1.078   6.639
 6962TIP3    H220764   2.094   1.113   6.763
 6963TIP3   OH220765   2.022   0.149   6.385
 6963TIP3    H120766   2.073   0.204   6.325
 6963TIP3    H220767   1.940   0.132   6.337
 6964TIP3   OH220768   2.327   0.471   6.651
 6964TIP3    H120769   2.246   0.427   6.674
 6964TIP3    H220770   2.356   0.429   6.570
 6965TIP3   OH220771   1.864   0.385   5.596
 6965TIP3    H120772   1.820   0.355   5.676
 6965TIP3    H220773   1.823   0.334   5.526
 6966TIP3   OH220774   1.434   0.201   5.505
 6966TIP3    H120775   1.481   0.167   5.581
 6966TIP3    H220776   1.407   0.122   5.457
 6967TIP3   OH220777   1.841   0.742   6.555
 6967TIP3    H120778   1.754   0.711   6.578
 6967TIP3    H220779   1.826   0.811   6.491
 6968TIP3   OH220780   1.921   0.637   5.247
 6968TIP3    H120781   1.969   0.710   5.208
 6968TIP3    H220782   1.848   0.678   5.294
 6969TIP3   OH220783   1.723   0.035   5.673
 6969TIP3    H120784   1.715  -0.032   5.742
 6969TIP3    H220785   1.817   0.046   5.661
 6970TIP3   OH220786   1.855   0.734   6.140
 6970TIP3    H120787   1.814   0.787   6.073
 6970TIP3    H220788   1.949   0.742   6.122
 6971TIP3   OH220789   1.724   0.702   6.859
 6971TIP3    H120790   1.715   0.609   6.877
 6971TIP3    H220791   1.802   0.729   6.908
 6972TIP3   OH220792   1.426   0.311   5.253
 6972TIP3    H120793   1.433   0.282   5.344
 6972TIP3    H220794   1.516   0.307   5.221
 6973TIP3   OH220795   8.300   9.084   5.193
 6973TIP3    H120796   8.301   9.008   5.136
 6973TIP3    H220797   8.228   9.138   5.161
 6974TIP3   OH220798   2.127   0.771   6.132
 6974TIP3    H120799   2.147   0.796   6.223
 6974TIP3    H220800   2.190   0.821   6.080
 6975TIP3   OH220801   2.143   0.797   6.411
 6975TIP3    H120802   2.097   0.713   6.412
 6975TIP3    H220803   2.212   0.787   6.477
 6976TIP3   OH220804   2.204   0.507   6.983
 6976TIP3    H120805   2.134   0.514   7.048
 6976TIP3    H220806   2.245   0.594   6.982
 6977TIP3   OH220807   1.996   0.059   5.692
 6977TIP3    H120808   2.056   0.128   5.661
 6977TIP3    H220809   2.051   0.003   5.746
 6978TIP3   OH220810   8.683   9.130   5.851
 6978TIP3    H120811   8.655   9.109   5.940
 6978TIP3    H220812   8.772   9.165   5.861
 6979TIP3   OH220813   2.192   0.292   6.229
 6979TIP3    H120814   2.247   0.226   6.187
 6979TIP3    H220815   2.196   0.367   6.170
 6980TIP3   OH220816   1.998   0.550   6.436
 6980TIP3    H120817   1.940   0.608   6.486
 6980TIP3    H220818   1.943   0.514   6.367
 6981TIP3   OH220819   8.655   9.146   5.474
 6981TIP3    H120820   8.567   9.130   5.441
 6981TIP3    H220821   8.646   9.226   5.527
 6982TIP3   OH220822   2.221   0.168   6.791
 6982TIP3    H120823   2.275   0.099   6.752
 6982TIP3    H220824   2.175   0.208   6.717
 6983TIP3   OH220825   8.975   9.223   6.777
 6983TIP3    H120826   8.963   9.153   6.841
 6983TIP3    H220827   9.056   9.266   6.804
 6984TIP3   OH220828   1.694   0.688   5.801
 6984TIP3    H120829   1.749   0.682   5.723
 6984TIP3    H220830   1.727   0.764   5.848
 6985TIP3   OH220831   1.605   0.912   6.723
 6985TIP3    H120832   1.636   0.831   6.763
 6985TIP3    H220833   1.655   0.981   6.767
 6986TIP3   OH220834   1.360   0.791   6.385
 6986TIP3    H120835   1.292   0.818   6.323
 6986TIP3    H220836   1.363   0.862   6.449
 6987TIP3   OH220837   1.608   0.677   6.379
 6987TIP3    H120838   1.516   0.700   6.389
 6987TIP3    H220839   1.652   0.759   6.357
 6988TIP3   OH220840   1.791   0.912   6.339
 6988TIP3    H120841   1.774   0.996   6.296
 6988TIP3    H220842   1.816   0.853   6.268
 6989TIP3   OH220843   1.097   0.461   5.284
 6989TIP3    H120844   1.173   0.505   5.323
 6989TIP3    H220845   1.095   0.375   5.326
 6990TIP3   OH220846   1.845   0.655   5.574
 6990TIP3    H120847   1.852   0.560   5.571
 6990TIP3    H220848   1.791   0.678   5.498
 6991TIP3   OH220849   2.045   0.792   6.740
 6991TIP3    H120850   1.975   0.762   6.683
 6991TIP3    H220851   2.033   0.886   6.747
 6992TIP3   OH220852   3.317   0.169   5.477
 6992TIP3    H120853   3.279   0.254   5.456
 6992TIP3    H220854   3.251   0.105   5.449
 6993TIP3   OH220855   3.313   0.168   5.897
 6993TIP3    H120856   3.359   0.149   5.979
 6993TIP3    H220857   3.267   0.086   5.876
 6994TIP3   OH220858   2.611   0.042   6.228
 6994TIP3    H120859   2.643  -0.010   6.303
 6994TIP3    H220860   2.689   0.058   6.176
 6995TIP3   OH220861   3.574   0.469   5.574
 6995TIP3    H120862   3.559   0.405   5.643
 6995TIP3    H220863   3.598   0.549   5.620
 6996TIP3   OH220864   2.610   0.445   5.924
 6996TIP3    H120865   2.592   0.351   5.930
 6996TIP3    H220866   2.705   0.451   5.917
 6997TIP3   OH220867   8.829   8.894   5.789
 6997TIP3    H120868   8.770   8.969   5.797
 6997TIP3    H220869   8.772   8.820   5.767
 6998TIP3   OH220870   8.935   9.210   5.916
 6998TIP3    H120871   8.981   9.133   5.950
 6998TIP3    H220872   9.004   9.275   5.903
 6999TIP3   OH220873   3.264   0.876   5.586
 6999TIP3    H120874   3.283   0.813   5.516
 6999TIP3    H220875   3.276   0.827   5.667
 7000TIP3   OH220876   3.126   0.387   5.897
 7000TIP3    H120877   3.171   0.306   5.873
 7000TIP3    H220878   3.196   0.445   5.928
 7001TIP3   OH220879   0.276   9.113   5.958
 7001TIP3    H120880   0.350   9.053   5.967
 7001TIP3    H220881   0.234   9.088   5.875
 7002TIP3   OH220882   9.050   8.986   6.031
 7002TIP3    H120883   9.136   8.968   6.069
 7002TIP3    H220884   9.043   8.923   5.960
 7003TIP3   OH220885   9.466   9.180   5.850
 7003TIP3    H120886   9.561   9.166   5.851
 7003TIP3    H220887   9.429   9.095   5.827
 7004TIP3   OH220888   0.832   9.081   6.069
 7004TIP3    H120889   0.760   9.144   6.065
 7004TIP3    H220890   0.883   9.108   6.145
 7005TIP3   OH220891   3.201   0.388   5.351
 7005TIP3    H120892   3.166   0.359   5.267
 7005TIP3    H220893   3.148   0.464   5.374
 7006TIP3   OH220894   2.964   0.311   6.108
 7006TIP3    H120895   2.908   0.381   6.143
 7006TIP3    H220896   3.009   0.351   6.034
 7007TIP3   OH220897   9.305   8.912   6.097
 7007TIP3    H120898   9.368   8.964   6.147
 7007TIP3    H220899   9.354   8.882   6.020
 7008TIP3   OH220900   2.805   0.511   6.216
 7008TIP3    H120901   2.789   0.600   6.186
 7008TIP3    H220902   2.730   0.491   6.272
 7009TIP3   OH220903   2.198   0.205   5.555
 7009TIP3    H120904   2.164   0.220   5.467
 7009TIP3    H220905   2.225   0.292   5.585
 7010TIP3   OH220906   3.619   0.714   5.714
 7010TIP3    H120907   3.530   0.711   5.749
 7010TIP3    H220908   3.623   0.797   5.667
 7011TIP3   OH220909   3.339   0.725   5.358
 7011TIP3    H120910   3.396   0.649   5.342
 7011TIP3    H220911   3.394   0.801   5.335
 7012TIP3   OH220912   3.463   0.473   5.321
 7012TIP3    H120913   3.376   0.437   5.339
 7012TIP3    H220914   3.510   0.467   5.404
 7013TIP3   OH220915   3.856   0.602   6.058
 7013TIP3    H120916   3.831   0.529   6.001
 7013TIP3    H220917   3.841   0.680   6.005
 7014TIP3   OH220918   3.150   0.001   5.333
 7014TIP3    H120919   3.069   0.047   5.312
 7014TIP3    H220920   3.194  -0.011   5.249
 7015TIP3   OH220921   9.656   9.052   5.044
 7015TIP3    H120922   9.733   9.091   5.085
 7015TIP3    H220923   9.688   8.974   5.000
 7016TIP3   OH220924   4.015   0.275   5.936
 7016TIP3    H120925   3.931   0.319   5.930
 7016TIP3    H220926   4.053   0.285   5.849
 7017TIP3   OH220927   3.507   0.095   5.296
 7017TIP3    H120928   3.450   0.122   5.369
 7017TIP3    H220929   3.587   0.064   5.339
 7018TIP3   OH220930   3.715   0.137   6.236
 7018TIP3    H120931   3.710   0.220   6.283
 7018TIP3    H220932   3.632   0.131   6.189
 7019TIP3   OH220933   2.757   0.084   5.693
 7019TIP3    H120934   2.724   0.021   5.629
 7019TIP3    H220935   2.825   0.037   5.741
 7020TIP3   OH220936   2.873   0.499   5.832
 7020TIP3    H120937   2.847   0.486   5.740
 7020TIP3    H220938   2.960   0.461   5.838
 7021TIP3   OH220939   2.835   0.072   6.070
 7021TIP3    H120940   2.874   0.032   5.993
 7021TIP3    H220941   2.885   0.153   6.083
 7022TIP3   OH220942   3.373   0.714   5.833
 7022TIP3    H120943   3.363   0.793   5.885
 7022TIP3    H220944   3.360   0.642   5.895
 7023TIP3   OH220945   3.002   0.608   6.386
 7023TIP3    H120946   2.941   0.665   6.431
 7023TIP3    H220947   2.948   0.555   6.328
 7024TIP3   OH220948   0.078   9.188   5.129
 7024TIP3    H120949   0.137   9.243   5.180
 7024TIP3    H220950   0.100   9.207   5.038
 7025TIP3   OH220951   2.754   0.171   6.510
 7025TIP3    H120952   2.761   0.256   6.553
 7025TIP3    H220953   2.661   0.151   6.510
 7026TIP3   OH220954   3.079   0.635   5.376
 7026TIP3    H120955   3.167   0.673   5.376
 7026TIP3    H220956   3.025   0.698   5.328
 7027TIP3   OH220957   2.796   0.769   6.470
 7027TIP3    H120958   2.768   0.776   6.379
 7027TIP3    H220959   2.715   0.752   6.519
 7028TIP3   OH220960   9.182   9.155   5.502
 7028TIP3    H120961   9.097   9.198   5.493
 7028TIP3    H220962   9.161   9.063   5.515
 7029TIP3   OH220963   3.666   0.579   4.709
 7029TIP3    H120964   3.663   0.674   4.703
 7029TIP3    H220965   3.757   0.556   4.693
 7030TIP3   OH220966   2.395   0.331   6.425
 7030TIP3    H120967   2.322   0.312   6.366
 7030TIP3    H220968   2.428   0.245   6.451
 7031TIP3   OH220969   2.238   0.519   6.078
 7031TIP3    H120970   2.331   0.538   6.092
 7031TIP3    H220971   2.193   0.598   6.108
 7032TIP3   OH220972   4.089   0.973   6.127
 7032TIP3    H120973   4.091   0.878   6.140
 7032TIP3    H220974   4.008   1.001   6.170
 7033TIP3   OH220975   3.193   0.749   6.250
 7033TIP3    H120976   3.186   0.840   6.279
 7033TIP3    H220977   3.124   0.703   6.299
 7034TIP3   OH220978   2.976   0.848   5.208
 7034TIP3    H120979   2.933   0.829   5.124
 7034TIP3    H220980   2.939   0.931   5.236
 7035TIP3   OH220981   2.415   0.712   5.591
 7035TIP3    H120982   2.461   0.705   5.674
 7035TIP3    H220983   2.367   0.629   5.584
 7036TIP3   OH220984   3.176   0.788   4.828
 7036TIP3    H120985   3.227   0.714   4.793
 7036TIP3    H220986   3.212   0.802   4.915
 7037TIP3   OH220987   3.228   0.826   5.098
 7037TIP3    H120988   3.143   0.830   5.142
 7037TIP3    H220989   3.288   0.790   5.164
 7038TIP3   OH220990   3.954   0.069   6.413
 7038TIP3    H120991   3.883   0.106   6.361
 7038TIP3    H220992   4.011   0.026   6.349
 7039TIP3   OH220993   2.594   0.517   6.397
 7039TIP3    H120994   2.643   0.503   6.478
 7039TIP3    H220995   2.523   0.453   6.400
 7040TIP3   OH220996   0.387   9.126   6.347
 7040TIP3    H120997   0.470   9.079   6.361
 7040TIP3    H220998   0.414   9.211   6.310
 7041TIP3   OH220999   3.392  -0.005   4.864
 7041TIP3    H121000   3.325  -0.034   4.802
 7041TIP3    H221001   3.437   0.066   4.818
 7042TIP3   OH221002   9.462   9.098   6.232
 7042TIP3    H121003   9.408   9.104   6.310
 7042TIP3    H221004   9.437   9.174   6.179
 7043TIP3   OH221005   9.340   8.948   5.769
 7043TIP3    H121006   9.253   8.915   5.792
 7043TIP3    H221007   9.356   8.917   5.680
 7044TIP3   OH221008   0.018   9.051   5.482
 7044TIP3    H121009  -0.036   9.116   5.437
 7044TIP3    H221010   0.084   9.026   5.417
 7045TIP3   OH221011   3.456   0.106   6.527
 7045TIP3    H121012   3.430   0.050   6.600
 7045TIP3    H221013   3.551   0.117   6.538
 7046TIP3   OH221014   0.168   9.048   5.711
 7046TIP3    H121015   0.109   9.074   5.640
 7046TIP3    H221016   0.198   8.960   5.687
 7047TIP3   OH221017   9.279   9.143   6.434
 7047TIP3    H121018   9.294   9.228   6.476
 7047TIP3    H221019   9.229   9.093   6.498
 7048TIP3   OH221020   3.464   0.078   6.118
 7048TIP3    H121021   3.493   0.008   6.060
 7048TIP3    H221022   3.416   0.034   6.188
 7049TIP3   OH221023   9.090   8.829   5.794
 7049TIP3    H121024   9.000   8.862   5.784
 7049TIP3    H221025   9.086   8.739   5.762
 7050TIP3   OH221026   9.370   8.851   5.516
 7050TIP3    H121027   9.461   8.829   5.495
 7050TIP3    H221028   9.329   8.868   5.431
 7051TIP3   OH221029   9.247   8.902   5.277
 7051TIP3    H121030   9.186   8.849   5.227
 7051TIP3    H221031   9.303   8.943   5.211
 7052TIP3   OH221032   3.799   1.311   6.216
 7052TIP3    H121033   3.796   1.326   6.122
 7052TIP3    H221034   3.878   1.357   6.245
 7053TIP3   OH221035   2.735   0.420   6.638
 7053TIP3    H121036   2.816   0.438   6.685
 7053TIP3    H221037   2.668   0.414   6.707
 7054TIP3   OH221038   9.741   9.143   5.881
 7054TIP3    H121039   9.812   9.094   5.840
 7054TIP3    H221040   9.740   9.113   5.971
 7055TIP3   OH221041   9.727   9.068   6.142
 7055TIP3    H121042   9.640   9.072   6.182
 7055TIP3    H221043   9.786   9.094   6.213
 7056TIP3   OH221044   2.923   0.151   5.276
 7056TIP3    H121045   2.849   0.094   5.255
 7056TIP3    H221046   2.897   0.194   5.358
 7057TIP3   OH221047   3.779   0.403   5.882
 7057TIP3    H121048   3.813   0.455   5.809
 7057TIP3    H221049   3.700   0.362   5.847
 7058TIP3   OH221050   3.317   0.484   6.286
 7058TIP3    H121051   3.363   0.475   6.369
 7058TIP3    H221052   3.274   0.570   6.291
 7059TIP3   OH221053   0.213   8.989   5.301
 7059TIP3    H121054   0.308   8.980   5.291
 7059TIP3    H221055   0.184   9.025   5.217
 7060TIP3   OH221056   2.611   0.159   5.914
 7060TIP3    H121057   2.654   0.143   5.830
 7060TIP3    H221058   2.674   0.130   5.980
 7061TIP3   OH221059   3.071   0.308   5.112
 7061TIP3    H121060   3.021   0.390   5.108
 7061TIP3    H221061   3.017   0.250   5.166
 7062TIP3   OH221062   2.488   0.089   6.528
 7062TIP3    H121063   2.481   0.058   6.619
 7062TIP3    H221064   2.416   0.044   6.482
 7063TIP3   OH221065   3.225   0.254   6.582
 7063TIP3    H121066   3.154   0.198   6.551
 7063TIP3    H221067   3.304   0.216   6.545
 7064TIP3   OH221068   3.463   0.776   6.176
 7064TIP3    H121069   3.368   0.762   6.179
 7064TIP3    H221070   3.484   0.813   6.262
 7065TIP3   OH221071   4.098   0.693   6.150
 7065TIP3    H121072   4.004   0.676   6.143
 7065TIP3    H221073   4.134   0.661   6.068
 7066TIP3   OH221074   3.578   0.534   4.969
 7066TIP3    H121075   3.634   0.589   5.023
 7066TIP3    H221076   3.598   0.560   4.879
 7067TIP3   OH221077   3.554   0.270   5.776
 7067TIP3    H121078   3.466   0.249   5.806
 7067TIP3    H221079   3.585   0.190   5.734
 7068TIP3   OH221080   2.724   0.506   5.593
 7068TIP3    H121081   2.720   0.581   5.534
 7068TIP3    H221082   2.635   0.495   5.625
 7069TIP3   OH221083   8.871   9.045   5.337
 7069TIP3    H121084   8.929   9.113   5.373
 7069TIP3    H221085   8.786   9.061   5.378
 7070TIP3   OH221086   2.817   0.268   5.494
 7070TIP3    H121087   2.795   0.355   5.527
 7070TIP3    H221088   2.798   0.209   5.567
 7071TIP3   OH221089   3.011   0.825   6.044
 7071TIP3    H121090   3.047   0.899   5.995
 7071TIP3    H221091   3.085   0.791   6.094
 7072TIP3   OH221092   2.643   0.725   5.439
 7072TIP3    H121093   2.557   0.733   5.480
 7072TIP3    H221094   2.681   0.813   5.445
 7073TIP3   OH221095   3.358   0.495   6.012
 7073TIP3    H121096   3.344   0.490   6.106
 7073TIP3    H221097   3.438   0.444   5.997
 7074TIP3   OH221098   3.367   0.337   4.859
 7074TIP3    H121099   3.388   0.359   4.950
 7074TIP3    H221100   3.278   0.301   4.863
 7075TIP3   OH221101   3.615   0.984   6.056
 7075TIP3    H121102   3.545   0.922   6.076
 7075TIP3    H221103   3.580   1.036   5.984
 7076TIP3   OH221104   3.671   0.851   4.698
 7076TIP3    H121105   3.730   0.924   4.680
 7076TIP3    H221106   3.589   0.893   4.725
 7077TIP3   OH221107   3.533   0.288   5.108
 7077TIP3    H121108   3.515   0.230   5.182
 7077TIP3    H221109   3.523   0.376   5.143
 7078TIP3   OH221110   2.440   0.723   6.214
 7078TIP3    H121111   2.493   0.663   6.266
 7078TIP3    H221112   2.456   0.809   6.253
 7079TIP3   OH221113   2.723   0.351   4.918
 7079TIP3    H121114   2.735   0.263   4.883
 7079TIP3    H221115   2.711   0.338   5.012
 7080TIP3   OH221116   2.670   0.350   5.196
 7080TIP3    H121117   2.738   0.330   5.260
 7080TIP3    H221118   2.666   0.446   5.194
 7081TIP3   OH221119   2.417   0.051   5.440
 7081TIP3    H121120   2.350   0.090   5.496
 7081TIP3    H221121   2.429   0.114   5.369
 7082TIP3   OH221122   2.924   0.535   5.105
 7082TIP3    H121123   2.840   0.560   5.143
 7082TIP3    H221124   2.950   0.610   5.052
 7083TIP3   OH221125   9.647   8.840   5.539
 7083TIP3    H121126   9.711   8.905   5.510
 7083TIP3    H221127   9.619   8.872   5.625
 7084TIP3   OH221128   0.113   9.160   6.332
 7084TIP3    H121129   0.111   9.227   6.399
 7084TIP3    H221130   0.201   9.122   6.338
 7085TIP3   OH221131   2.676   0.623   5.187
 7085TIP3    H121132   2.655   0.694   5.126
 7085TIP3    H221133   2.663   0.662   5.274
 7086TIP3   OH221134   0.369   9.254   5.682
 7086TIP3    H121135   0.296   9.194   5.698
 7086TIP3    H221136   0.438   9.223   5.741
 7087TIP3   OH221137   2.424   0.220   5.210
 7087TIP3    H121138   2.498   0.281   5.220
 7087TIP3    H221139   2.454   0.156   5.146
 7088TIP3   OH221140   8.837   8.715   5.406
 7088TIP3    H121141   8.813   8.730   5.315
 7088TIP3    H221142   8.783   8.778   5.455
 7089TIP3   OH221143   3.650   0.978   5.626
 7089TIP3    H121144   3.606   1.032   5.560
 7089TIP3    H221145   3.743   0.991   5.611
 7090TIP3   OH221146   2.251   0.480   5.588
 7090TIP3    H121147   2.206   0.524   5.660
 7090TIP3    H221148   2.217   0.522   5.509
 7091TIP3   OH221149   2.427   1.016   6.633
 7091TIP3    H121150   2.511   1.011   6.679
 7091TIP3    H221151   2.395   0.926   6.631
 7092TIP3   OH221152   2.896   0.934   6.666
 7092TIP3    H121153   2.985   0.905   6.682
 7092TIP3    H221154   2.865   0.880   6.594
 7093TIP3   OH221155   2.866   0.545   4.788
 7093TIP3    H121156   2.823   0.477   4.840
 7093TIP3    H221157   2.939   0.499   4.746
 7094TIP3   OH221158   3.516   0.874   6.427
 7094TIP3    H121159   3.530   0.805   6.490
 7094TIP3    H221160   3.589   0.934   6.439
 7095TIP3   OH221161   3.306   0.573   4.716
 7095TIP3    H121162   3.351   0.509   4.772
 7095TIP3    H221163   3.358   0.576   4.636
 7096TIP3   OH221164   2.531   0.430   6.833
 7096TIP3    H121165   2.497   0.363   6.892
 7096TIP3    H221166   2.459   0.445   6.771
 7097TIP3   OH221167   2.569   0.072   5.032
 7097TIP3    H121168   2.626   0.046   5.104
 7097TIP3    H221169   2.629   0.089   4.959
 7098TIP3   OH221170   3.157   0.523   6.597
 7098TIP3    H121171   3.110   0.540   6.515
 7098TIP3    H221172   3.192   0.435   6.588
 7099TIP3   OH221173   3.109   0.241   4.848
 7099TIP3    H121174   3.085   0.256   4.940
 7099TIP3    H221175   3.094   0.148   4.835
 7100TIP3   OH221176   3.627   0.551   6.207
 7100TIP3    H121177   3.705   0.579   6.160
 7100TIP3    H221178   3.564   0.621   6.193
 7101TIP3   OH221179   2.678   0.109   6.824
 7101TIP3    H121180   2.766   0.075   6.804
 7101TIP3    H221181   2.690   0.161   6.903
 7102TIP3   OH221182   9.252   9.216   5.237
 7102TIP3    H121183   9.234   9.185   5.326
 7102TIP3    H221184   9.292   9.141   5.194
 7103TIP3   OH221185   3.025   0.090   6.479
 7103TIP3    H121186   2.936   0.125   6.477
 7103TIP3    H221187   3.060   0.110   6.392
 7104TIP3   OH221188   9.383   9.032   5.077
 7104TIP3    H121189   9.355   9.039   4.986
 7104TIP3    H221190   9.478   9.038   5.074
 7105TIP3   OH221191   3.508   0.429   6.564
 7105TIP3    H121192   3.571   0.383   6.508
 7105TIP3    H221193   3.504   0.375   6.643
 7106TIP3   OH221194   3.656   0.133   4.813
 7106TIP3    H121195   3.667   0.043   4.783
 7106TIP3    H221196   3.633   0.182   4.734
 7107TIP3   OH221197   9.601   9.102   6.627
 7107TIP3    H121198   9.623   9.039   6.558
 7107TIP3    H221199   9.588   9.184   6.580
 7108TIP3   OH221200   3.155   0.178   6.254
 7108TIP3    H121201   3.236   0.226   6.239
 7108TIP3    H221202   3.090   0.223   6.200
 7109TIP3   OH221203   3.721   0.134   6.619
 7109TIP3    H121204   3.779   0.059   6.605
 7109TIP3    H221205   3.781   0.209   6.627
 7110TIP3   OH221206   3.744   0.377   6.378
 7110TIP3    H121207   3.691   0.439   6.328
 7110TIP3    H221208   3.832   0.388   6.344
 7111TIP3   OH221209   9.463   9.221   6.837
 7111TIP3    H121210   9.420   9.162   6.898
 7111TIP3    H221211   9.506   9.164   6.774
 7112TIP3   OH221212   0.113   9.199   6.741
 7112TIP3    H121213   0.082   9.257   6.810
 7112TIP3    H221214   0.059   9.120   6.750
 7113TIP3   OH221215   2.668   0.834   5.007
 7113TIP3    H121216   2.758   0.816   4.980
 7113TIP3    H221217   2.629   0.877   4.931
 7114TIP3   OH221218   2.156   0.223   5.283
 7114TIP3    H121219   2.250   0.227   5.263
 7114TIP3    H221220   2.130   0.135   5.257
 7115TIP3   OH221221   2.049   0.809   5.658
 7115TIP3    H121222   1.980   0.759   5.613
 7115TIP3    H221223   2.092   0.746   5.715
 7116TIP3   OH221224   2.183   0.630   5.820
 7116TIP3    H121225   2.173   0.561   5.885
 7116TIP3    H221226   2.237   0.696   5.863
 7117TIP3   OH221227   3.921   1.027   5.611
 7117TIP3    H121228   3.941   1.062   5.698
 7117TIP3    H221229   3.986   1.067   5.554
 7118TIP3   OH221230   3.926   1.067   5.896
 7118TIP3    H121231   3.883   0.981   5.894
 7118TIP3    H221232   4.003   1.054   5.950
 7119TIP3   OH221233   3.989   0.765   6.472
 7119TIP3    H121234   3.916   0.774   6.533
 7119TIP3    H221235   4.034   0.849   6.476
 7120TIP3   OH221236   3.837   0.236   5.036
 7120TIP3    H121237   3.888   0.314   5.014
 7120TIP3    H221238   3.866   0.213   5.124
 7121TIP3   OH221239   3.912   0.163   5.288
 7121TIP3    H121240   3.851   0.120   5.348
 7121TIP3    H221241   3.970   0.212   5.346
 7122TIP3   OH221242   3.979   0.544   5.738
 7122TIP3    H121243   4.020   0.478   5.682
 7122TIP3    H221244   3.985   0.625   5.688
 7123TIP3   OH221245   3.789   0.823   5.910
 7123TIP3    H121246   3.723   0.872   5.960
 7123TIP3    H221247   3.739   0.785   5.837
 7124TIP3   OH221248   0.444   9.058   4.826
 7124TIP3    H121249   0.364   9.013   4.797
 7124TIP3    H221250   0.476   9.005   4.899
 7125TIP3   OH221251   0.466   9.234   5.424
 7125TIP3    H121252   0.471   9.140   5.409
 7125TIP3    H221253   0.436   9.243   5.515
 7126TIP3   OH221254   2.354   0.087   6.158
 7126TIP3    H121255   2.353   0.048   6.071
 7126TIP3    H221256   2.445   0.081   6.186
 7127TIP3   OH221257   4.000   0.407   6.279
 7127TIP3    H121258   4.079   0.354   6.272
 7127TIP3    H221259   4.007   0.470   6.207
 7128TIP3   OH221260   4.241   0.261   6.322
 7128TIP3    H121261   4.217   0.238   6.412
 7128TIP3    H221262   4.312   0.324   6.331
 7129TIP3   OH221263   0.505   8.958   5.340
 7129TIP3    H121264   0.507   8.869   5.377
 7129TIP3    H221265   0.595   8.975   5.313
 7130TIP3   OH221266   0.583   9.171   5.832
 7130TIP3    H121267   0.658   9.198   5.779
 7130TIP3    H221268   0.604   9.201   5.920
 7131TIP3   OH221269   3.925   0.053   6.074
 7131TIP3    H121270   3.848   0.085   6.122
 7131TIP3    H221271   3.960   0.132   6.031
 7132TIP3   OH221272   8.849   8.981   6.230
 7132TIP3    H121273   8.922   8.981   6.168
 7132TIP3    H221274   8.872   9.048   6.295
 7133TIP3   OH221275   3.452   0.955   5.270
 7133TIP3    H121276   3.499   0.949   5.187
 7133TIP3    H221277   3.503   1.017   5.322
 7134TIP3   OH221278   2.580   0.741   6.643
 7134TIP3    H121279   2.485   0.730   6.636
 7134TIP3    H221280   2.601   0.714   6.732
 7135TIP3   OH221281   2.779   0.787   6.188
 7135TIP3    H121282   2.730   0.864   6.158
 7135TIP3    H221283   2.865   0.795   6.146
 7136TIP3   OH221284   3.182   1.015   6.328
 7136TIP3    H121285   3.219   1.009   6.416
 7136TIP3    H221286   3.245   1.069   6.279
 7137TIP3   OH221287   3.372   1.175   6.203
 7137TIP3    H121288   3.435   1.123   6.154
 7137TIP3    H221289   3.425   1.232   6.258
 7138TIP3   OH221290   2.442   1.028   6.250
 7138TIP3    H121291   2.352   1.054   6.229
 7138TIP3    H221292   2.469   1.088   6.319
 7139TIP3   OH221293   2.671   1.022   6.094
 7139TIP3    H121294   2.587   1.025   6.141
 7139TIP3    H221295   2.648   1.046   6.004
 7140TIP3   OH221296   3.083   1.039   5.884
 7140TIP3    H121297   3.011   1.049   5.822
 7140TIP3    H221298   3.094   1.126   5.923
 7141TIP3   OH221299   3.345   0.969   5.931
 7141TIP3    H121300   3.255   0.992   5.910
 7141TIP3    H221301   3.397   1.034   5.884
 7142TIP3   OH221302   3.545   1.134   5.828
 7142TIP3    H121303   3.551   1.223   5.792
 7142TIP3    H221304   3.580   1.078   5.759
 7143TIP3   OH221305   2.358   0.806   5.963
 7143TIP3    H121306   2.386   0.783   6.051
 7143TIP3    H221307   2.428   0.774   5.906
 7144TIP3   OH221308   2.560   0.692   5.823
 7144TIP3    H121309   2.570   0.605   5.862
 7144TIP3    H221310   2.647   0.731   5.826
 7145TIP3   OH221311   2.826   0.776   5.842
 7145TIP3    H121312   2.846   0.683   5.825
 7145TIP3    H221313   2.882   0.799   5.916
 7146TIP3   OH221314   2.169   0.622   5.368
 7146TIP3    H121315   2.080   0.598   5.342
 7146TIP3    H221316   2.180   0.712   5.338
 7147TIP3   OH221317   2.925   0.764   4.938
 7147TIP3    H121318   3.008   0.792   4.899
 7147TIP3    H221319   2.894   0.695   4.879
 7148TIP3   OH221320   3.586   0.923   5.033
 7148TIP3    H121321   3.646   0.849   5.032
 7148TIP3    H221322   3.553   0.930   4.944
 7149TIP3   OH221323   2.283   0.619   5.017
 7149TIP3    H121324   2.294   0.622   5.112
 7149TIP3    H221325   2.359   0.571   4.985
 7150TIP3   OH221326   3.836   1.038   6.221
 7150TIP3    H121327   3.762   1.009   6.168
 7150TIP3    H221328   3.825   1.133   6.229
 7151TIP3   OH221329   5.117   0.437   4.995
 7151TIP3    H121330   5.103   0.530   4.975
 7151TIP3    H221331   5.047   0.391   4.949
 7152TIP3   OH221332   5.088   0.431   5.342
 7152TIP3    H121333   5.114   0.435   5.434
 7152TIP3    H221334   5.050   0.343   5.331
 7153TIP3   OH221335   4.394   0.372   5.746
 7153TIP3    H121336   4.429   0.418   5.823
 7153TIP3    H221337   4.458   0.389   5.677
 7154TIP3   OH221338   5.374   0.723   5.063
 7154TIP3    H121339   5.361   0.664   5.137
 7154TIP3    H221340   5.400   0.806   5.103
 7155TIP3   OH221341   4.396   0.711   5.420
 7155TIP3    H121342   4.375   0.618   5.417
 7155TIP3    H221343   4.489   0.715   5.401
 7156TIP3   OH221344   0.763   9.212   5.129
 7156TIP3    H121345   0.723   9.285   5.176
 7156TIP3    H221346   0.747   9.135   5.184
 7157TIP3   OH221347   4.140   0.270   5.421
 7157TIP3    H121348   4.181   0.183   5.420
 7157TIP3    H221349   4.210   0.330   5.396
 7158TIP3   OH221350   5.053   1.146   5.072
 7158TIP3    H121351   5.085   1.095   4.998
 7158TIP3    H221352   5.067   1.091   5.148
 7159TIP3   OH221353   4.914   0.649   5.386
 7159TIP3    H121354   4.955   0.574   5.344
 7159TIP3    H221355   4.987   0.704   5.413
 7160TIP3   OH221356   5.321   0.210   5.432
 7160TIP3    H121357   5.406   0.197   5.473
 7160TIP3    H221358   5.341   0.237   5.342
 7161TIP3   OH221359   0.960   9.250   5.469
 7161TIP3    H121360   1.047   9.236   5.505
 7161TIP3    H221361   0.957   9.195   5.391
 7162TIP3   OH221362   4.718   0.269   5.345
 7162TIP3    H121363   4.805   0.230   5.344
 7162TIP3    H221364   4.659   0.197   5.323
 7163TIP3   OH221365   5.945   0.093   5.598
 7163TIP3    H121366   5.889   0.165   5.571
 7163TIP3    H221367   6.006   0.131   5.661
 7164TIP3   OH221368   5.022   0.644   4.826
 7164TIP3    H121369   4.980   0.612   4.746
 7164TIP3    H221370   4.975   0.725   4.847
 7165TIP3   OH221371   4.781   0.579   5.620
 7165TIP3    H121372   4.722   0.648   5.648
 7165TIP3    H221373   4.819   0.610   5.538
 7166TIP3   OH221374   1.225   9.197   5.515
 7166TIP3    H121375   1.254   9.248   5.591
 7166TIP3    H221376   1.299   9.139   5.495
 7167TIP3   OH221377   4.603   0.767   5.708
 7167TIP3    H121378   4.589   0.855   5.674
 7167TIP3    H221379   4.527   0.750   5.763
 7168TIP3   OH221380   3.946   0.462   4.940
 7168TIP3    H121381   3.931   0.487   4.849
 7168TIP3    H221382   3.915   0.537   4.991
 7169TIP3   OH221383   5.416   0.963   5.205
 7169TIP3    H121384   5.326   0.962   5.237
 7169TIP3    H221385   5.424   1.046   5.157
 7170TIP3   OH221386   5.150   1.025   4.841
 7170TIP3    H121387   5.203   0.947   4.830
 7170TIP3    H221388   5.209   1.098   4.820
 7171TIP3   OH221389   5.267   0.779   4.815
 7171TIP3    H121390   5.190   0.722   4.814
 7171TIP3    H221391   5.314   0.754   4.895
 7172TIP3   OH221392   5.661   0.863   5.547
 7172TIP3    H121393   5.634   0.793   5.488
 7172TIP3    H221394   5.644   0.943   5.499
 7173TIP3   OH221395   4.946   0.311   4.815
 7173TIP3    H121396   4.853   0.330   4.807
 7173TIP3    H221397   4.983   0.334   4.729
 7174TIP3   OH221398   4.918   0.095   4.531
 7174TIP3    H121399   4.981   0.158   4.565
 7174TIP3    H221400   4.919   0.023   4.594
 7175TIP3   OH221401   5.835   0.557   5.397
 7175TIP3    H121402   5.746   0.593   5.398
 7175TIP3    H221403   5.863   0.564   5.306
 7176TIP3   OH221404   5.299   0.376   4.789
 7176TIP3    H121405   5.252   0.402   4.868
 7176TIP3    H221406   5.384   0.344   4.820
 7177TIP3   OH221407   5.460   0.450   5.657
 7177TIP3    H121408   5.487   0.541   5.662
 7177TIP3    H221409   5.368   0.453   5.632
 7178TIP3   OH221410   4.515   0.386   5.165
 7178TIP3    H121411   4.475   0.318   5.111
 7178TIP3    H221412   4.585   0.340   5.212
 7179TIP3   OH221413   4.655   0.749   5.321
 7179TIP3    H121414   4.633   0.744   5.228
 7179TIP3    H221415   4.744   0.717   5.327
 7180TIP3   OH221416   4.601   0.381   5.562
 7180TIP3    H121417   4.642   0.346   5.483
 7180TIP3    H221418   4.660   0.450   5.592
 7181TIP3   OH221419   5.165   0.973   5.312
 7181TIP3    H121420   5.158   1.053   5.363
 7181TIP3    H221421   5.152   0.903   5.375
 7182TIP3   OH221422   4.798   0.871   5.876
 7182TIP3    H121423   4.736   0.929   5.920
 7182TIP3    H221424   4.745   0.818   5.817
 7183TIP3   OH221425   5.132   0.257   4.609
 7183TIP3    H121426   5.192   0.303   4.669
 7183TIP3    H221427   5.159   0.286   4.522
 7184TIP3   OH221428   4.494   0.458   5.996
 7184TIP3    H121429   4.512   0.544   6.035
 7184TIP3    H221430   4.410   0.432   6.032
 7185TIP3   OH221431   4.905   0.892   4.852
 7185TIP3    H121432   4.983   0.945   4.857
 7185TIP3    H221433   4.839   0.949   4.812
 7186TIP3   OH221434   4.588   1.025   5.960
 7186TIP3    H121435   4.562   1.038   5.869
 7186TIP3    H221436   4.505   1.011   6.007
 7187TIP3   OH221437   4.392   0.212   4.981
 7187TIP3    H121438   4.317   0.260   4.946
 7187TIP3    H221439   4.356   0.127   5.007
 7188TIP3   OH221440   5.464   0.825   4.208
 7188TIP3    H121441   5.459   0.919   4.195
 7188TIP3    H221442   5.555   0.802   4.191
 7189TIP3   OH221443   4.187   0.576   5.921
 7189TIP3    H121444   4.115   0.571   5.860
 7189TIP3    H221445   4.210   0.485   5.941
 7190TIP3   OH221446   4.030   0.770   5.589
 7190TIP3    H121447   4.047   0.764   5.495
 7190TIP3    H221448   3.981   0.852   5.599
 7191TIP3   OH221449   5.883   1.249   5.608
 7191TIP3    H121450   5.889   1.153   5.612
 7191TIP3    H221451   5.802   1.270   5.655
 7192TIP3   OH221452   4.986   1.016   5.737
 7192TIP3    H121453   4.981   1.108   5.765
 7192TIP3    H221454   4.918   0.972   5.788
 7193TIP3   OH221455   4.771   1.102   4.697
 7193TIP3    H121456   4.728   1.084   4.613
 7193TIP3    H221457   4.735   1.186   4.725
 7194TIP3   OH221458   4.214   1.002   5.084
 7194TIP3    H121459   4.254   0.987   5.169
 7194TIP3    H221460   4.180   0.916   5.058
 7195TIP3   OH221461   4.972   1.044   4.321
 7195TIP3    H121462   5.021   0.971   4.284
 7195TIP3    H221463   5.009   1.058   4.408
 7196TIP3   OH221464   5.025   1.081   4.591
 7196TIP3    H121465   4.939   1.086   4.633
 7196TIP3    H221466   5.084   1.051   4.661
 7197TIP3   OH221467   5.774   0.380   5.804
 7197TIP3    H121468   5.733   0.433   5.872
 7197TIP3    H221469   5.752   0.290   5.828
 7198TIP3   OH221470   4.393   0.761   5.884
 7198TIP3    H121471   4.436   0.764   5.969
 7198TIP3    H221472   4.319   0.701   5.896
 7199TIP3   OH221473   5.509   0.321   5.898
 7199TIP3    H121474   5.486   0.232   5.872
 7199TIP3    H221475   5.498   0.373   5.818
 7200TIP3   OH221476   5.215   0.316   4.361
 7200TIP3    H121477   5.169   0.319   4.277
 7200TIP3    H221478   5.265   0.398   4.363
 7201TIP3   OH221479   4.607   0.136   5.698
 7201TIP3    H121480   4.575   0.149   5.788
 7201TIP3    H221481   4.585   0.217   5.653
 7202TIP3   OH221482   4.499   0.114   5.284
 7202TIP3    H121483   4.482   0.044   5.348
 7202TIP3    H221484   4.546   0.070   5.213
 7203TIP3   OH221485   5.124   0.131   4.913
 7203TIP3    H121486   5.063   0.193   4.873
 7203TIP3    H221487   5.148   0.071   4.843
 7204TIP3   OH221488   5.281   0.463   5.974
 7204TIP3    H121489   5.246   0.443   6.061
 7204TIP3    H221490   5.374   0.439   5.979
 7205TIP3   OH221491   5.243   0.236   5.141
 7205TIP3    H121492   5.199   0.316   5.112
 7205TIP3    H221493   5.225   0.173   5.072
 7206TIP3   OH221494   4.541   0.184   5.964
 7206TIP3    H121495   4.511   0.275   5.973
 7206TIP3    H221496   4.463   0.132   5.979
 7207TIP3   OH221497   5.186   0.382   5.594
 7207TIP3    H121498   5.230   0.321   5.535
 7207TIP3    H221499   5.177   0.334   5.676
 7208TIP3   OH221500   1.027   9.084   5.263
 7208TIP3    H121501   1.031   9.134   5.181
 7208TIP3    H221502   1.117   9.055   5.277
 7209TIP3   OH221503   1.387   9.032   4.935
 7209TIP3    H121504   1.463   9.089   4.947
 7209TIP3    H221505   1.324   9.086   4.886
 7210TIP3   OH221506   1.200   9.199   4.810
 7210TIP3    H121507   1.130   9.212   4.874
 7210TIP3    H221508   1.157   9.159   4.735
 7211TIP3   OH221509   5.594   1.569   5.698
 7211TIP3    H121510   5.587   1.584   5.604
 7211TIP3    H221511   5.673   1.616   5.724
 7212TIP3   OH221512   4.535   0.693   6.130
 7212TIP3    H121513   4.618   0.706   6.176
 7212TIP3    H221514   4.468   0.718   6.193
 7213TIP3   OH221515   4.979   0.163   5.378
 7213TIP3    H121516   5.034   0.090   5.349
 7213TIP3    H221517   4.979   0.155   5.474
 7214TIP3   OH221518   5.005   0.080   5.638
 7214TIP3    H121519   4.933   0.019   5.655
 7214TIP3    H221520   5.071   0.059   5.704
 7215TIP3   OH221521   4.694   0.401   4.751
 7215TIP3    H121522   4.617   0.349   4.726
 7215TIP3    H221523   4.666   0.451   4.827
 7216TIP3   OH221524   5.583   0.668   5.371
 7216TIP3    H121525   5.613   0.725   5.300
 7216TIP3    H221526   5.501   0.631   5.338
 7217TIP3   OH221527   5.145   0.778   5.755
 7217TIP3    H121528   5.099   0.701   5.787
 7217TIP3    H221529   5.086   0.851   5.776
 7218TIP3   OH221530   5.174  -0.006   4.658
 7218TIP3    H121531   5.261  -0.025   4.691
 7218TIP3    H221532   5.175   0.087   4.637
 7219TIP3   OH221533   4.372   0.428   5.398
 7219TIP3    H121534   4.408   0.420   5.310
 7219TIP3    H221535   4.445   0.408   5.456
 7220TIP3   OH221536   4.861   0.558   4.606
 7220TIP3    H121537   4.818   0.643   4.600
 7220TIP3    H221538   4.800   0.503   4.654
 7221TIP3   OH221539   4.257   0.329   6.054
 7221TIP3    H121540   4.257   0.297   6.144
 7221TIP3    H221541   4.177   0.294   6.016
 7222TIP3   OH221542   5.000   0.542   6.049
 7222TIP3    H121543   4.919   0.490   6.053
 7222TIP3    H221544   5.030   0.532   5.958
 7223TIP3   OH221545   5.261   1.039   5.652
 7223TIP3    H121546   5.167   1.023   5.658
 7223TIP3    H221547   5.286   1.068   5.739
 7224TIP3   OH221548   5.671   0.014   4.666
 7224TIP3    H121549   5.703  -0.058   4.611
 7224TIP3    H221550   5.618   0.067   4.606
 7225TIP3   OH221551   5.905   0.975   5.620
 7225TIP3    H121552   5.814   0.947   5.624
 7225TIP3    H221553   5.940   0.933   5.541
 7226TIP3   OH221554   5.334   0.860   4.456
 7226TIP3    H121555   5.335   0.786   4.517
 7226TIP3    H221556   5.382   0.829   4.379
 7227TIP3   OH221557   5.353   0.537   5.273
 7227TIP3    H121558   5.263   0.507   5.279
 7227TIP3    H221559   5.402   0.462   5.237
 7228TIP3   OH221560   4.515   0.775   5.077
 7228TIP3    H121561   4.510   0.853   5.021
 7228TIP3    H221562   4.423   0.754   5.097
 7229TIP3   OH221563   4.020   0.084   4.817
 7229TIP3    H121564   4.084   0.156   4.827
 7229TIP3    H221565   3.946   0.110   4.872
 7230TIP3   OH221566   4.597   0.544   4.956
 7230TIP3    H121567   4.587   0.634   4.988
 7230TIP3    H221568   4.570   0.490   5.030
 7231TIP3   OH221569   4.804   1.079   5.529
 7231TIP3    H121570   4.836   1.153   5.479
 7231TIP3    H221571   4.879   1.051   5.582
 7232TIP3   OH221572   4.438   0.993   4.923
 7232TIP3    H121573   4.354   1.007   4.967
 7232TIP3    H221574   4.481   1.078   4.925
 7233TIP3   OH221575   5.157   0.748   5.483
 7233TIP3    H121576   5.154   0.761   5.578
 7233TIP3    H221577   5.243   0.710   5.466
 7234TIP3   OH221578   5.142   0.615   4.356
 7234TIP3    H121579   5.184   0.599   4.440
 7234TIP3    H221580   5.055   0.575   4.365
 7235TIP3   OH221581   5.411   1.246   5.539
 7235TIP3    H121582   5.341   1.184   5.558
 7235TIP3    H221583   5.377   1.299   5.467
 7236TIP3   OH221584   5.477   1.098   4.183
 7236TIP3    H121585   5.528   1.170   4.147
 7236TIP3    H221586   5.399   1.140   4.220
 7237TIP3   OH221587   5.306   0.538   4.560
 7237TIP3    H121588   5.294   0.498   4.646
 7237TIP3    H221589   5.400   0.557   4.556
 7238TIP3   OH221590   4.233   0.950   5.701
 7238TIP3    H121591   4.186   0.871   5.676
 7238TIP3    H221592   4.304   0.919   5.758
 7239TIP3   OH221593   4.501   0.610   4.396
 7239TIP3    H121594   4.512   0.520   4.366
 7239TIP3    H221595   4.490   0.603   4.491
 7240TIP3   OH221596   4.443   0.609   4.669
 7240TIP3    H121597   4.500   0.584   4.743
 7240TIP3    H221598   4.442   0.705   4.671
 7241TIP3   OH221599   4.167   0.319   4.865
 7241TIP3    H121600   4.102   0.370   4.912
 7241TIP3    H221601   4.190   0.372   4.789
 7242TIP3   OH221602   4.717   0.787   4.594
 7242TIP3    H121603   4.632   0.811   4.633
 7242TIP3    H221604   4.743   0.863   4.543
 7243TIP3   OH221605   1.655   9.055   4.996
 7243TIP3    H121606   1.683   9.133   5.045
 7243TIP3    H221607   1.692   8.982   5.045
 7244TIP3   OH221608   5.184   0.253   5.830
 7244TIP3    H121609   5.205   0.332   5.881
 7244TIP3    H221610   5.256   0.193   5.849
 7245TIP3   OH221611   4.467   0.879   4.675
 7245TIP3    H121612   4.447   0.949   4.612
 7245TIP3    H221613   4.455   0.920   4.761
 7246TIP3   OH221614   5.500   0.303   5.187
 7246TIP3    H121615   5.418   0.257   5.166
 7246TIP3    H221616   5.552   0.239   5.235
 7247TIP3   OH221617   4.195   0.486   4.645
 7247TIP3    H121618   4.267   0.548   4.659
 7247TIP3    H221619   4.227   0.426   4.578
 7248TIP3   OH221620   0.798   9.045   4.812
 7248TIP3    H121621   0.780   9.138   4.825
 7248TIP3    H221622   0.761   9.002   4.889
 7249TIP3   OH221623   5.441   1.221   5.118
 7249TIP3    H121624   5.393   1.283   5.062
 7249TIP3    H221625   5.533   1.242   5.103
 7250TIP3   OH221626   4.121   0.765   4.994
 7250TIP3    H121627   4.038   0.738   5.034
 7250TIP3    H221628   4.097   0.785   4.903
 7251TIP3   OH221629   4.229   1.279   6.115
 7251TIP3    H121630   4.311   1.281   6.165
 7251TIP3    H221631   4.214   1.186   6.097
 7252TIP3   OH221632   4.692   1.189   6.157
 7252TIP3    H121633   4.784   1.166   6.166
 7252TIP3    H221634   4.661   1.135   6.084
 7253TIP3   OH221635   4.659   0.799   4.273
 7253TIP3    H121636   4.611   0.732   4.323
 7253TIP3    H221637   4.731   0.751   4.232
 7254TIP3   OH221638   5.316   1.128   5.907
 7254TIP3    H121639   5.328   1.064   5.976
 7254TIP3    H221640   5.386   1.192   5.919
 7255TIP3   OH221641   5.091   0.833   4.195
 7255TIP3    H121642   5.130   0.773   4.258
 7255TIP3    H221643   5.151   0.832   4.120
 7256TIP3   OH221644   4.322   0.708   6.309
 7256TIP3    H121645   4.345   0.615   6.319
 7256TIP3    H221646   4.235   0.707   6.268
 7257TIP3   OH221647   4.313   0.298   4.488
 7257TIP3    H121648   4.362   0.270   4.565
 7257TIP3    H221649   4.380   0.319   4.423
 7258TIP3   OH221650   4.947   0.803   6.097
 7258TIP3    H121651   4.902   0.819   6.014
 7258TIP3    H221652   4.985   0.716   6.087
 7259TIP3   OH221653   4.892   0.495   4.339
 7259TIP3    H121654   4.869   0.509   4.431
 7259TIP3    H221655   4.863   0.405   4.321
 7260TIP3   OH221656   5.417   0.759   5.664
 7260TIP3    H121657   5.475   0.826   5.629
 7260TIP3    H221658   5.337   0.806   5.689
 7261TIP3   OH221659   4.431   0.454   6.326
 7261TIP3    H121660   4.517   0.429   6.293
 7261TIP3    H221661   4.447   0.478   6.418
 7262TIP3   OH221662   4.479   0.233   4.701
 7262TIP3    H121663   4.460   0.211   4.792
 7262TIP3    H221664   4.525   0.157   4.667
 7263TIP3   OH221665   4.769   0.392   6.018
 7263TIP3    H121666   4.681   0.426   5.999
 7263TIP3    H221667   4.798   0.353   5.936
 7264TIP3   OH221668   4.641   0.045   4.555
 7264TIP3    H121669   4.601   0.059   4.469
 7264TIP3    H221670   4.731   0.075   4.544
 7265TIP3   OH221671   5.329   0.703   6.113
 7265TIP3    H121672   5.315   0.652   6.033
 7265TIP3    H221673   5.318   0.638   6.183
 7266TIP3   OH221674   5.454   0.356   4.181
 7266TIP3    H121675   5.413   0.305   4.110
 7266TIP3    H221676   5.418   0.444   4.171
 7267TIP3   OH221677   4.944   0.115   6.001
 7267TIP3    H121678   4.865   0.101   6.053
 7267TIP3    H221679   4.915   0.167   5.926
 7268TIP3   OH221680   5.013   0.534   5.770
 7268TIP3    H121681   5.071   0.494   5.705
 7268TIP3    H221682   4.928   0.539   5.727
 7269TIP3   OH221683   5.555   0.405   6.191
 7269TIP3    H121684   5.505   0.339   6.143
 7269TIP3    H221685   5.488   0.460   6.231
 7270TIP3   OH221686   5.543   0.653   5.881
 7270TIP3    H121687   5.480   0.690   5.820
 7270TIP3    H221688   5.627   0.660   5.837
 7271TIP3   OH221689   4.682   0.359   6.280
 7271TIP3    H121690   4.677   0.265   6.295
 7271TIP3    H221691   4.725   0.368   6.195
 7272TIP3   OH221692   5.130   0.268   6.136
 7272TIP3    H121693   5.074   0.278   6.213
 7272TIP3    H221694   5.070   0.237   6.068
 7273TIP3   OH221695   4.461   1.084   4.489
 7273TIP3    H121696   4.552   1.067   4.466
 7273TIP3    H221697   4.424   1.129   4.413
 7274TIP3   OH221698   3.922   0.487   4.659
 7274TIP3    H121699   4.017   0.500   4.655
 7274TIP3    H221700   3.907   0.401   4.619
 7275TIP3   OH221701   3.824   1.032   5.125
 7275TIP3    H121702   3.742   1.014   5.078
 7275TIP3    H221703   3.863   0.945   5.138
 7276TIP3   OH221704   5.705   1.294   5.103
 7276TIP3    H121705   5.725   1.328   5.190
 7276TIP3    H221706   5.755   1.350   5.043
 7277TIP3   OH221707   5.720   1.326   5.384
 7277TIP3    H121708   5.677   1.240   5.379
 7277TIP3    H221709   5.792   1.313   5.446
 7278TIP3   OH221710   5.778   1.033   5.947
 7278TIP3    H121711   5.707   1.045   6.009
 7278TIP3    H221712   5.828   1.115   5.951
 7279TIP3   OH221713   5.576   0.571   4.558
 7279TIP3    H121714   5.639   0.636   4.526
 7279TIP3    H221715   5.617   0.533   4.635
 7280TIP3   OH221716   5.703   0.449   4.767
 7280TIP3    H121717   5.645   0.407   4.830
 7280TIP3    H221718   5.771   0.491   4.821
 7281TIP3   OH221719   5.755   0.822   5.222
 7281TIP3    H121720   5.805   0.757   5.174
 7281TIP3    H221721   5.761   0.901   5.169
 7282TIP3   OH221722   5.585   1.080   5.400
 7282TIP3    H121723   5.517   1.131   5.445
 7282TIP3    H221724   5.539   1.040   5.326
 7283TIP3   OH221725   5.640   0.378   4.376
 7283TIP3    H121726   5.576   0.379   4.304
 7283TIP3    H221727   5.615   0.453   4.430
 7284TIP3   OH221728   2.322   9.237   4.281
 7284TIP3    H121729   2.241   9.280   4.256
 7284TIP3    H221730   2.304   9.196   4.366
 7285TIP3   OH221731   5.533   0.273   4.912
 7285TIP3    H121732   5.548   0.179   4.912
 7285TIP3    H221733   5.533   0.297   5.005
 7286TIP3   OH221734   4.135   0.305   5.691
 7286TIP3    H121735   4.129   0.300   5.595
 7286TIP3    H221736   4.226   0.328   5.708
 7287TIP3   OH221737   5.773   0.692   5.737
 7287TIP3    H121738   5.846   0.647   5.696
 7287TIP3    H221739   5.739   0.750   5.668
 7288TIP3   OH221740   6.004   0.517   5.763
 7288TIP3    H121741   5.925   0.471   5.793
 7288TIP3    H221742   6.044   0.549   5.844
 7289TIP3   OH221743   2.143   9.192   4.775
 7289TIP3    H121744   2.190   9.115   4.807
 7289TIP3    H221745   2.203   9.233   4.712
 7290TIP3   OH221746   5.644   0.127   5.351
 7290TIP3    H121747   5.739   0.133   5.338
 7290TIP3    H221748   5.630   0.164   5.438
 7291TIP3   OH221749   5.813   0.321   5.536
 7291TIP3    H121750   5.793   0.357   5.622
 7291TIP3    H221751   5.819   0.397   5.478
 7292TIP3   OH221752   4.070   0.030   5.694
 7292TIP3    H121753   4.110   0.016   5.608
 7292TIP3    H221754   4.078   0.124   5.709
 7293TIP3   OH221755   5.297   1.236   4.752
 7293TIP3    H121756   5.332   1.196   4.673
 7293TIP3    H221757   5.336   1.324   4.754
 7294TIP3   OH221758   4.365   0.992   6.125
 7294TIP3    H121759   4.271   0.978   6.120
 7294TIP3    H221760   4.383   1.003   6.219
 7295TIP3   OH221761   4.575   1.042   5.678
 7295TIP3    H121762   4.520   1.115   5.648
 7295TIP3    H221763   4.658   1.055   5.633
 7296TIP3   OH221764   4.973   1.281   5.817
 7296TIP3    H121765   5.012   1.276   5.904
 7296TIP3    H221766   5.034   1.334   5.766
 7297TIP3   OH221767   5.164   1.432   5.689
 7297TIP3    H121768   5.226   1.382   5.636
 7297TIP3    H221769   5.219   1.489   5.743
 7298TIP3   OH221770   4.252   1.353   5.704
 7298TIP3    H121771   4.157   1.349   5.694
 7298TIP3    H221772   4.265   1.401   5.786
 7299TIP3   OH221773   4.474   1.276   5.571
 7299TIP3    H121774   4.395   1.299   5.620
 7299TIP3    H221775   4.452   1.295   5.480
 7300TIP3   OH221776   4.876   1.293   5.371
 7300TIP3    H121777   4.804   1.302   5.310
 7300TIP3    H221778   4.886   1.380   5.410
 7301TIP3   OH221779   5.141   1.228   5.411
 7301TIP3    H121780   5.050   1.250   5.392
 7301TIP3    H221781   5.192   1.295   5.366
 7302TIP3   OH221782   5.342   1.398   5.315
 7302TIP3    H121783   5.337   1.485   5.276
 7302TIP3    H221784   5.371   1.341   5.243
 7303TIP3   OH221785   4.156   1.094   5.474
 7303TIP3    H121786   4.190   1.072   5.561
 7303TIP3    H221787   4.215   1.049   5.413
 7304TIP3   OH221788   4.341   0.960   5.323
 7304TIP3    H121789   4.351   0.873   5.361
 7304TIP3    H221790   4.430   0.997   5.324
 7305TIP3   OH221791   4.613   1.028   5.332
 7305TIP3    H121792   4.629   0.935   5.317
 7305TIP3    H221793   4.672   1.051   5.404
 7306TIP3   OH221794   3.967   0.843   4.770
 7306TIP3    H121795   3.902   0.805   4.828
 7306TIP3    H221796   3.933   0.931   4.751
 7307TIP3   OH221797   4.720   1.016   4.427
 7307TIP3    H121798   4.803   1.045   4.390
 7307TIP3    H221799   4.690   0.947   4.367
 7308TIP3   OH221800   5.383   1.121   4.521
 7308TIP3    H121801   5.366   1.029   4.502
 7308TIP3    H221802   5.359   1.167   4.441
 7309TIP3   OH221803   4.017   0.838   4.490
 7309TIP3    H121804   4.011   0.834   4.586
 7309TIP3    H221805   4.102   0.800   4.470
 7310TIP3   OH221806   5.629   1.297   5.707
 7310TIP3    H121807   5.556   1.267   5.652
 7310TIP3    H221808   5.617   1.392   5.712
 7311TIP3   OH221809   6.911   0.703   4.490
 7311TIP3    H121810   6.892   0.791   4.458
 7311TIP3    H221811   6.844   0.648   4.449
 7312TIP3   OH221812   6.883   0.682   4.848
 7312TIP3    H121813   6.938   0.674   4.925
 7312TIP3    H221814   6.848   0.594   4.833
 7313TIP3   OH221815   6.189   0.625   5.214
 7313TIP3    H121816   6.227   0.663   5.293
 7313TIP3    H221817   6.253   0.643   5.146
 7314TIP3   OH221818   7.178   0.986   4.552
 7314TIP3    H121819   7.153   0.930   4.626
 7314TIP3    H221820   7.198   1.071   4.592
 7315TIP3   OH221821   6.191   0.975   4.894
 7315TIP3    H121822   6.167   0.882   4.891
 7315TIP3    H221823   6.287   0.975   4.885
 7316TIP3   OH221824   5.835   0.205   4.771
 7316TIP3    H121825   5.813   0.297   4.754
 7316TIP3    H221826   5.765   0.155   4.729
 7317TIP3   OH221827   5.943   0.525   4.891
 7317TIP3    H121828   5.996   0.448   4.911
 7317TIP3    H221829   6.006   0.591   4.864
 7318TIP3   OH221830   6.848   1.404   4.561
 7318TIP3    H121831   6.869   1.344   4.490
 7318TIP3    H221832   6.864   1.354   4.641
 7319TIP3   OH221833   6.705   0.900   4.873
 7319TIP3    H121834   6.747   0.818   4.846
 7319TIP3    H221835   6.778   0.960   4.890
 7320TIP3   OH221836   7.169   0.425   4.900
 7320TIP3    H121837   7.182   0.331   4.909
 7320TIP3    H221838   7.119   0.435   4.819
 7321TIP3   OH221839   6.089   0.303   4.967
 7321TIP3    H121840   6.172   0.268   5.002
 7321TIP3    H221841   6.078   0.260   4.883
 7322TIP3   OH221842   6.510   0.521   4.829
 7322TIP3    H121843   6.602   0.506   4.806
 7322TIP3    H221844   6.465   0.442   4.798
 7323TIP3   OH221845   7.759   0.344   5.057
 7323TIP3    H121846   7.726   0.432   5.041
 7323TIP3    H221847   7.836   0.356   5.112
 7324TIP3   OH221848   6.821   0.906   4.322
 7324TIP3    H121849   6.780   0.871   4.243
 7324TIP3    H221850   6.767   0.981   4.346
 7325TIP3   OH221851   6.576   0.844   5.114
 7325TIP3    H121852   6.513   0.912   5.137
 7325TIP3    H221853   6.615   0.873   5.032
 7326TIP3   OH221854   6.332   0.173   4.996
 7326TIP3    H121855   6.383   0.248   4.965
 7326TIP3    H221856   6.343   0.107   4.928
 7327TIP3   OH221857   6.391   1.031   5.193
 7327TIP3    H121858   6.379   1.120   5.160
 7327TIP3    H221859   6.313   1.013   5.245
 7328TIP3   OH221860   5.766   0.722   4.435
 7328TIP3    H121861   5.740   0.747   4.347
 7328TIP3    H221862   5.791   0.804   4.478
 7329TIP3   OH221863   7.214   1.235   4.685
 7329TIP3    H121864   7.124   1.232   4.718
 7329TIP3    H221865   7.220   1.318   4.639
 7330TIP3   OH221866   6.928   1.265   4.333
 7330TIP3    H121867   6.980   1.186   4.323
 7330TIP3    H221868   6.987   1.337   4.310
 7331TIP3   OH221869   7.067   1.033   4.302
 7331TIP3    H121870   6.992   0.974   4.302
 7331TIP3    H221871   7.117   1.009   4.381
 7332TIP3   OH221872   7.463   1.124   5.033
 7332TIP3    H121873   7.433   1.056   4.973
 7332TIP3    H221874   7.447   1.206   4.987
 7333TIP3   OH221875   6.751   0.558   4.314
 7333TIP3    H121876   6.657   0.579   4.312
 7333TIP3    H221877   6.781   0.574   4.224
 7334TIP3   OH221878   6.697   0.357   4.033
 7334TIP3    H121879   6.767   0.417   4.056
 7334TIP3    H221880   6.704   0.286   4.096
 7335TIP3   OH221881   7.614   0.804   4.866
 7335TIP3    H121882   7.529   0.847   4.870
 7335TIP3    H221883   7.653   0.837   4.785
 7336TIP3   OH221884   7.087   0.646   4.269
 7336TIP3    H121885   7.045   0.665   4.352
 7336TIP3    H221886   7.169   0.604   4.292
 7337TIP3   OH221887   7.295   0.774   5.089
 7337TIP3    H121888   7.279   0.865   5.113
 7337TIP3    H221889   7.208   0.735   5.081
 7338TIP3   OH221890   6.309   0.610   4.640
 7338TIP3    H121891   6.277   0.542   4.580
 7338TIP3    H221892   6.388   0.572   4.679
 7339TIP3   OH221893   6.455   1.012   4.806
 7339TIP3    H121894   6.431   1.001   4.714
 7339TIP3    H221895   6.542   0.972   4.814
 7340TIP3   OH221896   6.395   0.652   5.033
 7340TIP3    H121897   6.440   0.613   4.958
 7340TIP3    H221898   6.457   0.717   5.067
 7341TIP3   OH221899   6.963   1.245   4.793
 7341TIP3    H121900   6.959   1.319   4.854
 7341TIP3    H221901   6.951   1.168   4.849
 7342TIP3   OH221902   6.590   1.130   5.360
 7342TIP3    H121903   6.529   1.188   5.406
 7342TIP3    H221904   6.534   1.077   5.303
 7343TIP3   OH221905   6.915   0.528   4.090
 7343TIP3    H121906   6.975   0.579   4.144
 7343TIP3    H221907   6.939   0.548   4.000
 7344TIP3   OH221908   6.306   0.735   5.448
 7344TIP3    H121909   6.313   0.819   5.495
 7344TIP3    H221910   6.242   0.685   5.499
 7345TIP3   OH221911   6.680   1.141   4.351
 7345TIP3    H121912   6.759   1.195   4.350
 7345TIP3    H221913   6.616   1.192   4.302
 7346TIP3   OH221914   6.381   1.288   5.445
 7346TIP3    H121915   6.356   1.297   5.353
 7346TIP3    H221916   6.299   1.272   5.491
 7347TIP3   OH221917   6.195   0.434   4.451
 7347TIP3    H121918   6.123   0.491   4.425
 7347TIP3    H221919   6.153   0.353   4.479
 7348TIP3   OH221920   7.260   1.080   3.709
 7348TIP3    H121921   7.251   1.172   3.687
 7348TIP3    H221922   7.350   1.058   3.687
 7349TIP3   OH221923   5.979   0.842   5.393
 7349TIP3    H121924   5.902   0.841   5.337
 7349TIP3    H221925   6.011   0.752   5.392
 7350TIP3   OH221926   5.820   1.042   5.077
 7350TIP3    H121927   5.911   1.071   5.066
 7350TIP3    H221928   5.769   1.123   5.084
 7351TIP3   OH221929   7.688   1.517   5.098
 7351TIP3    H121930   7.696   1.421   5.103
 7351TIP3    H221931   7.606   1.537   5.143
 7352TIP3   OH221932   6.783   1.273   5.224
 7352TIP3    H121933   6.781   1.362   5.258
 7352TIP3    H221934   6.715   1.227   5.273
 7353TIP3   OH221935   6.568   1.368   4.176
 7353TIP3    H121936   6.522   1.346   4.095
 7353TIP3    H221937   6.528   1.451   4.204
 7354TIP3   OH221938   5.989   1.247   4.573
 7354TIP3    H121939   6.051   1.245   4.646
 7354TIP3    H221940   5.913   1.198   4.605
 7355TIP3   OH221941   6.770   1.304   3.807
 7355TIP3    H121942   6.821   1.231   3.771
 7355TIP3    H221943   6.806   1.317   3.895
 7356TIP3   OH221944   6.822   1.350   4.077
 7356TIP3    H121945   6.734   1.352   4.114
 7356TIP3    H221946   6.876   1.310   4.146
 7357TIP3   OH221947   7.553   0.670   5.334
 7357TIP3    H121948   7.465   0.697   5.362
 7357TIP3    H221949   7.542   0.581   5.302
 7358TIP3   OH221950   6.172   1.042   5.362
 7358TIP3    H121951   6.218   1.036   5.446
 7358TIP3    H221952   6.103   0.975   5.368
 7359TIP3   OH221953   7.275   0.622   5.346
 7359TIP3    H121954   7.266   0.528   5.361
 7359TIP3    H221955   7.296   0.629   5.253
 7360TIP3   OH221956   6.996   0.554   3.835
 7360TIP3    H121957   6.938   0.543   3.760
 7360TIP3    H221958   7.067   0.609   3.802
 7361TIP3   OH221959   6.436   0.410   5.167
 7361TIP3    H121960   6.383   0.413   5.247
 7361TIP3    H221961   6.406   0.485   5.116
 7362TIP3   OH221962   6.361   0.313   4.740
 7362TIP3    H121963   6.280   0.266   4.756
 7362TIP3    H221964   6.401   0.269   4.665
 7363TIP3   OH221965   6.948   0.401   4.418
 7363TIP3    H121966   6.879   0.456   4.381
 7363TIP3    H221967   6.958   0.329   4.356
 7364TIP3   OH221968   7.078   0.741   5.493
 7364TIP3    H121969   7.160   0.719   5.449
 7364TIP3    H221970   7.098   0.734   5.586
 7365TIP3   OH221971   7.029   0.507   4.655
 7365TIP3    H121972   6.985   0.590   4.637
 7365TIP3    H221973   7.015   0.455   4.576
 7366TIP3   OH221974   6.308   0.426   5.407
 7366TIP3    H121975   6.358   0.418   5.488
 7366TIP3    H221976   6.231   0.478   5.431
 7367TIP3   OH221977   7.063   0.631   5.048
 7367TIP3    H121978   7.102   0.552   5.012
 7367TIP3    H221979   7.030   0.605   5.134
 7368TIP3   OH221980   6.142   0.155   4.746
 7368TIP3    H121981   6.107   0.186   4.662
 7368TIP3    H221982   6.108   0.066   4.754
 7369TIP3   OH221983   6.439   0.162   4.521
 7369TIP3    H121984   6.519   0.110   4.531
 7369TIP3    H221985   6.424   0.165   4.427
 7370TIP3   OH221986   6.177   0.168   4.218
 7370TIP3    H121987   6.143   0.113   4.288
 7370TIP3    H221988   6.263   0.196   4.249
 7371TIP3   OH221989   7.392   1.831   5.189
 7371TIP3    H121990   7.389   1.843   5.094
 7371TIP3    H221991   7.472   1.877   5.216
 7372TIP3   OH221992   6.312   0.964   5.602
 7372TIP3    H121993   6.395   0.975   5.649
 7372TIP3    H221994   6.245   0.964   5.670
 7373TIP3   OH221995   6.778   0.407   4.864
 7373TIP3    H121996   6.714   0.337   4.847
 7373TIP3    H221997   6.796   0.400   4.958
 7374TIP3   OH221998   6.802   0.312   5.125
 7374TIP3    H121999   6.727   0.254   5.116
 7374TIP3    H222000   6.832   0.299   5.215
 7375TIP3   OH222001   6.498   0.656   4.248
 7375TIP3    H122002   6.419   0.611   4.218
 7375TIP3    H222003   6.470   0.706   4.325
 7376TIP3   OH222004   7.382   0.952   4.839
 7376TIP3    H122005   7.420   1.005   4.768
 7376TIP3    H222006   7.297   0.925   4.807
 7377TIP3   OH222007   6.944   1.040   5.220
 7377TIP3    H122008   6.899   0.963   5.255
 7377TIP3    H222009   6.885   1.113   5.238
 7378TIP3   OH222010   6.968   0.273   4.167
 7378TIP3    H122011   7.058   0.262   4.198
 7378TIP3    H222012   6.962   0.365   4.142
 7379TIP3   OH222013   6.171   0.690   4.867
 7379TIP3    H122014   6.208   0.670   4.781
 7379TIP3    H222015   6.244   0.675   4.927
 7380TIP3   OH222016   6.658   0.828   4.108
 7380TIP3    H122017   6.609   0.911   4.104
 7380TIP3    H222018   6.599   0.768   4.153
 7381TIP3   OH222019   6.091   0.567   5.508
 7381TIP3    H122020   6.081   0.564   5.603
 7381TIP3    H222021   6.003   0.548   5.474
 7382TIP3   OH222022   6.800   0.775   5.574
 7382TIP3    H122023   6.719   0.742   5.533
 7382TIP3    H222024   6.866   0.766   5.506
 7383TIP3   OH222025   7.065   1.300   5.118
 7383TIP3    H122026   6.972   1.282   5.132
 7383TIP3    H222027   7.096   1.329   5.204
 7384TIP3   OH222028   7.515   0.272   4.148
 7384TIP3    H122029   7.528   0.205   4.081
 7384TIP3    H222030   7.450   0.331   4.111
 7385TIP3   OH222031   7.705   1.245   5.112
 7385TIP3    H122032   7.616   1.211   5.127
 7385TIP3    H222033   7.732   1.202   5.031
 7386TIP3   OH222034   7.184   1.143   3.978
 7386TIP3    H122035   7.156   1.073   4.037
 7386TIP3    H222036   7.201   1.098   3.895
 7387TIP3   OH222037   7.134   0.823   4.779
 7387TIP3    H122038   7.047   0.781   4.776
 7387TIP3    H222039   7.194   0.751   4.797
 7388TIP3   OH222040   6.304   1.027   4.569
 7388TIP3    H122041   6.296   1.102   4.510
 7388TIP3    H222042   6.216   1.014   4.604
 7389TIP3   OH222043   5.883   0.326   4.277
 7389TIP3    H122044   5.937   0.404   4.290
 7389TIP3    H222045   5.798   0.350   4.315
 7390TIP3   OH222046   6.386   0.795   4.449
 7390TIP3    H122047   6.371   0.882   4.487
 7390TIP3    H222048   6.361   0.734   4.518
 7391TIP3   OH222049   6.604   1.342   5.016
 7391TIP3    H122050   6.639   1.415   4.966
 7391TIP3    H222051   6.677   1.313   5.070
 7392TIP3   OH222052   6.219   1.243   4.415
 7392TIP3    H122053   6.132   1.254   4.453
 7392TIP3    H222054   6.258   1.330   4.420
 7393TIP3   OH222055   6.951   1.011   4.945
 7393TIP3    H122056   6.953   1.016   5.041
 7393TIP3    H222057   7.022   0.951   4.923
 7394TIP3   OH222058   6.947   0.884   3.843
 7394TIP3    H122059   6.995   0.860   3.922
 7394TIP3    H222060   6.860   0.847   3.856
 7395TIP3   OH222061   7.217   1.510   5.021
 7395TIP3    H122062   7.149   1.445   5.041
 7395TIP3    H222063   7.180   1.564   4.952
 7396TIP3   OH222064   7.248   1.349   3.656
 7396TIP3    H122065   7.249   1.402   3.576
 7396TIP3    H222066   7.181   1.391   3.711
 7397TIP3   OH222067   7.111   0.810   4.047
 7397TIP3    H122068   7.097   0.765   4.130
 7397TIP3    H222069   7.206   0.824   4.042
 7398TIP3   OH222070   6.032   1.250   5.175
 7398TIP3    H122071   6.081   1.192   5.233
 7398TIP3    H222072   6.045   1.337   5.212
 7399TIP3   OH222073   6.296   0.875   3.890
 7399TIP3    H122074   6.304   0.785   3.859
 7399TIP3    H222075   6.288   0.867   3.985
 7400TIP3   OH222076   6.242   0.867   4.164
 7400TIP3    H122077   6.294   0.841   4.241
 7400TIP3    H222078   6.241   0.963   4.167
 7401TIP3   OH222079   5.982   0.573   4.351
 7401TIP3    H122080   5.912   0.614   4.401
 7401TIP3    H222081   6.000   0.635   4.280
 7402TIP3   OH222082   6.510   1.055   4.087
 7402TIP3    H122083   6.425   1.077   4.123
 7402TIP3    H222084   6.531   1.127   4.028
 7403TIP3   OH222085   6.690   0.047   4.517
 7403TIP3    H122086   6.731   0.123   4.558
 7403TIP3    H222087   6.734  -0.028   4.557
 7404TIP3   OH222088   6.969   0.564   5.295
 7404TIP3    H122089   6.955   0.479   5.336
 7404TIP3    H222090   7.014   0.616   5.362
 7405TIP3   OH222091   6.260   1.139   4.165
 7405TIP3    H122092   6.241   1.209   4.103
 7405TIP3    H222093   6.243   1.177   4.251
 7406TIP3   OH222094   7.299   0.494   4.618
 7406TIP3    H122095   7.208   0.515   4.635
 7406TIP3    H222096   7.349   0.546   4.681
 7407TIP3   OH222097   5.993   0.749   4.134
 7407TIP3    H122098   6.068   0.808   4.148
 7407TIP3    H222099   6.022   0.688   4.068
 7408TIP3   OH222100   5.861   0.054   4.290
 7408TIP3    H122101   5.871   0.148   4.277
 7408TIP3    H222102   5.766   0.039   4.287
 7409TIP3   OH222103   7.237   1.498   4.600
 7409TIP3    H122104   7.192   1.551   4.535
 7409TIP3    H222105   7.330   1.515   4.584
 7410TIP3   OH222106   5.824   0.966   4.533
 7410TIP3    H122107   5.806   1.019   4.611
 7410TIP3    H222108   5.798   1.022   4.460
 7411TIP3   OH222109   6.027   1.535   5.600
 7411TIP3    H122110   6.108   1.534   5.650
 7411TIP3    H222111   6.006   1.442   5.588
 7412TIP3   OH222112   6.486   1.447   5.643
 7412TIP3    H122113   6.574   1.410   5.656
 7412TIP3    H222114   6.451   1.397   5.569
 7413TIP3   OH222115   6.458   1.054   3.760
 7413TIP3    H122116   6.409   0.990   3.812
 7413TIP3    H222117   6.530   1.004   3.722
 7414TIP3   OH222118   7.145   1.392   5.359
 7414TIP3    H122119   7.129   1.344   5.440
 7414TIP3    H222120   7.210   1.459   5.384
 7415TIP3   OH222121   6.893   1.096   3.680
 7415TIP3    H122122   6.927   1.030   3.741
 7415TIP3    H222123   6.949   1.088   3.603
 7416TIP3   OH222124   6.114   0.968   5.797
 7416TIP3    H122125   6.099   0.890   5.851
 7416TIP3    H222126   6.036   0.974   5.741
 7417TIP3   OH222127   6.106   0.557   3.978
 7417TIP3    H122128   6.156   0.534   4.057
 7417TIP3    H222129   6.172   0.581   3.914
 7418TIP3   OH222130   6.736   1.044   5.576
 7418TIP3    H122131   6.696   1.060   5.490
 7418TIP3    H222132   6.774   0.957   5.569
 7419TIP3   OH222133   6.687   0.790   3.838
 7419TIP3    H122134   6.669   0.803   3.931
 7419TIP3    H222135   6.673   0.697   3.824
 7420TIP3   OH222136   7.216   1.029   5.165
 7420TIP3    H122137   7.263   1.104   5.127
 7420TIP3    H222138   7.126   1.059   5.173
 7421TIP3   OH222139   6.261   0.676   5.758
 7421TIP3    H122140   6.349   0.640   5.760
 7421TIP3    H222141   6.256   0.731   5.836
 7422TIP3   OH222142   6.273   0.503   4.190
 7422TIP3    H122143   6.259   0.468   4.278
 7422TIP3    H222144   6.322   0.434   4.145
 7423TIP3   OH222145   6.575   0.664   5.457
 7423TIP3    H122146   6.484   0.691   5.451
 7423TIP3    H222147   6.599   0.640   5.367
 7424TIP3   OH222148   6.420   0.342   4.020
 7424TIP3    H122149   6.390   0.344   3.929
 7424TIP3    H222150   6.514   0.360   4.015
 7425TIP3   OH222151   7.092   1.022   5.497
 7425TIP3    H122152   7.128   1.030   5.408
 7425TIP3    H222153   7.074   0.928   5.507
 7426TIP3   OH222154   7.223   0.619   3.679
 7426TIP3    H122155   7.200   0.569   3.601
 7426TIP3    H222156   7.197   0.709   3.659
 7427TIP3   OH222157   6.702   0.442   5.553
 7427TIP3    H122158   6.746   0.405   5.476
 7427TIP3    H222159   6.665   0.524   5.522
 7428TIP3   OH222160   6.804   0.808   5.276
 7428TIP3    H122161   6.833   0.718   5.266
 7428TIP3    H222162   6.722   0.814   5.228
 7429TIP3   OH222163   7.478   0.451   5.543
 7429TIP3    H122164   7.448   0.410   5.624
 7429TIP3    H222165   7.455   0.544   5.553
 7430TIP3   OH222166   7.367   0.932   5.369
 7430TIP3    H122167   7.305   0.959   5.301
 7430TIP3    H222168   7.452   0.929   5.324
 7431TIP3   OH222169   6.707   0.436   5.837
 7431TIP3    H122170   6.616   0.409   5.854
 7431TIP3    H222171   6.706   0.466   5.746
 7432TIP3   OH222172   8.485   0.533   3.727
 7432TIP3    H122173   8.508   0.620   3.757
 7432TIP3    H222174   8.468   0.544   3.633
 7433TIP3   OH222175   6.258   1.342   3.979
 7433TIP3    H122176   6.347   1.326   3.949
 7433TIP3    H222177   6.216   1.386   3.905
 7434TIP3   OH222178   5.722   0.746   4.156
 7434TIP3    H122179   5.816   0.759   4.151
 7434TIP3    H222180   5.707   0.662   4.113
 7435TIP3   OH222181   5.780   1.156   4.734
 7435TIP3    H122182   5.685   1.156   4.748
 7435TIP3    H222183   5.815   1.202   4.811
 7436TIP3   OH222184   7.506   1.555   4.592
 7436TIP3    H122185   7.526   1.578   4.683
 7436TIP3    H222186   7.564   1.610   4.540
 7437TIP3   OH222187   7.531   1.577   4.870
 7437TIP3    H122188   7.484   1.493   4.868
 7437TIP3    H222189   7.600   1.565   4.935
 7438TIP3   OH222190   7.566   1.294   5.434
 7438TIP3    H122191   7.495   1.300   5.498
 7438TIP3    H222192   7.617   1.374   5.446
 7439TIP3   OH222193   7.384   0.836   4.043
 7439TIP3    H122194   7.446   0.903   4.016
 7439TIP3    H222195   7.423   0.795   4.120
 7440TIP3   OH222196   7.498   0.700   4.251
 7440TIP3    H122197   7.438   0.644   4.300
 7440TIP3    H222198   7.563   0.729   4.316
 7441TIP3   OH222199   7.568   1.085   4.687
 7441TIP3    H122200   7.619   1.017   4.642
 7441TIP3    H222201   7.572   1.160   4.628
 7442TIP3   OH222202   7.385   1.340   4.882
 7442TIP3    H122203   7.319   1.390   4.929
 7442TIP3    H222204   7.338   1.298   4.810
 7443TIP3   OH222205   7.422   0.632   3.865
 7443TIP3    H122206   7.354   0.634   3.798
 7443TIP3    H222207   7.404   0.709   3.920
 7444TIP3   OH222208   7.390   0.265   3.762
 7444TIP3    H122209   7.302   0.300   3.746
 7444TIP3    H222210   7.382   0.215   3.843
 7445TIP3   OH222211   7.316   0.507   4.348
 7445TIP3    H122212   7.303   0.418   4.314
 7445TIP3    H222213   7.322   0.496   4.443
 7446TIP3   OH222214   5.923   0.624   5.144
 7446TIP3    H122215   5.915   0.592   5.054
 7446TIP3    H222216   6.018   0.633   5.157
 7447TIP3   OH222217   7.594   0.961   5.217
 7447TIP3    H122218   7.644   0.891   5.174
 7447TIP3    H222219   7.553   1.009   5.145
 7448TIP3   OH222220   7.800   0.760   5.239
 7448TIP3    H122221   7.725   0.739   5.294
 7448TIP3    H222222   7.860   0.807   5.297
 7449TIP3   OH222223   7.221   0.227   4.245
 7449TIP3    H122224   7.258   0.150   4.287
 7449TIP3    H222225   7.259   0.227   4.157
 7450TIP3   OH222226   7.560   0.373   4.820
 7450TIP3    H122227   7.560   0.449   4.762
 7450TIP3    H222228   7.576   0.409   4.908
 7451TIP3   OH222229   7.607   0.570   5.018
 7451TIP3    H122230   7.520   0.567   5.058
 7451TIP3    H222231   7.609   0.654   4.972
 7452TIP3   OH222232   6.060   0.363   5.239
 7452TIP3    H122233   6.056   0.344   5.145
 7452TIP3    H222234   6.105   0.448   5.244
 7453TIP3   OH222235   7.080   1.467   4.242
 7453TIP3    H122236   7.129   1.450   4.161
 7453TIP3    H222237   7.119   1.546   4.277
 7454TIP3   OH222238   6.160   1.259   5.611
 7454TIP3    H122239   6.066   1.244   5.604
 7454TIP3    H222240   6.179   1.249   5.704
 7455TIP3   OH222241   6.373   1.306   5.163
 7455TIP3    H122242   6.322   1.381   5.131
 7455TIP3    H222243   6.458   1.315   5.118
 7456TIP3   OH222244   6.778   1.532   5.322
 7456TIP3    H122245   6.823   1.518   5.405
 7456TIP3    H222246   6.837   1.589   5.272
 7457TIP3   OH222247   6.955   1.688   5.179
 7457TIP3    H122248   7.011   1.631   5.125
 7457TIP3    H222249   7.017   1.742   5.228
 7458TIP3   OH222250   6.037   1.539   5.220
 7458TIP3    H122251   5.945   1.555   5.197
 7458TIP3    H222252   6.058   1.607   5.284
 7459TIP3   OH222253   6.265   1.539   5.064
 7459TIP3    H122254   6.182   1.541   5.112
 7459TIP3    H222255   6.241   1.559   4.974
 7460TIP3   OH222256   6.677   1.555   4.856
 7460TIP3    H122257   6.604   1.562   4.794
 7460TIP3    H222258   6.683   1.642   4.895
 7461TIP3   OH222259   6.943   1.502   4.902
 7461TIP3    H122260   6.851   1.517   4.881
 7461TIP3    H222261   6.991   1.567   4.851
 7462TIP3   OH222262   7.150   1.670   4.799
 7462TIP3    H122263   7.144   1.755   4.755
 7462TIP3    H222264   7.176   1.609   4.730
 7463TIP3   OH222265   5.935   1.318   4.925
 7463TIP3    H122266   5.962   1.299   5.015
 7463TIP3    H222267   6.010   1.291   4.872
 7464TIP3   OH222268   6.153   1.224   4.792
 7464TIP3    H122269   6.159   1.137   4.832
 7464TIP3    H222270   6.242   1.260   4.796
 7465TIP3   OH222271   6.423   1.292   4.811
 7465TIP3    H122272   6.437   1.198   4.796
 7465TIP3    H222273   6.479   1.312   4.886
 7466TIP3   OH222274   5.724   1.109   4.322
 7466TIP3    H122275   5.635   1.076   4.306
 7466TIP3    H222276   5.727   1.193   4.276
 7467TIP3   OH222277   6.515   1.274   3.909
 7467TIP3    H122278   6.598   1.305   3.872
 7467TIP3    H222279   6.486   1.205   3.849
 7468TIP3   OH222280   7.217   1.412   4.007
 7468TIP3    H122281   7.210   1.317   4.001
 7468TIP3    H222282   7.169   1.445   3.931
 7469TIP3   OH222283   5.807   1.104   3.956
 7469TIP3    H122284   5.808   1.130   4.048
 7469TIP3    H222285   5.892   1.062   3.942
 7470TIP3   OH222286   7.434   1.560   5.191
 7470TIP3    H122287   7.361   1.528   5.138
 7470TIP3    H222288   7.416   1.653   5.202
 7471TIP3   OH222289   8.695   0.928   3.940
 7471TIP3    H122290   8.671   1.018   3.918
 7471TIP3    H222291   8.629   0.874   3.897
 7472TIP3   OH222292   8.630   0.945   4.329
 7472TIP3    H122293   8.678   0.934   4.412
 7472TIP3    H222294   8.616   0.856   4.297
 7473TIP3   OH222295   7.989   0.866   4.698
 7473TIP3    H122296   8.033   0.820   4.769
 7473TIP3    H222297   8.060   0.895   4.640
 7474TIP3   OH222298   8.949   1.239   4.047
 7474TIP3    H122299   8.929   1.177   4.116
 7474TIP3    H222300   8.978   1.318   4.092
 7475TIP3   OH222301   7.983   1.234   4.396
 7475TIP3    H122302   7.960   1.141   4.394
 7475TIP3    H222303   8.078   1.234   4.384
 7476TIP3   OH222304   7.676   0.505   4.164
 7476TIP3    H122305   7.619   0.580   4.182
 7476TIP3    H222306   7.618   0.429   4.172
 7477TIP3   OH222307   7.742   0.768   4.380
 7477TIP3    H122308   7.795   0.690   4.398
 7477TIP3    H222309   7.806   0.832   4.348
 7478TIP3   OH222310   8.669   1.675   4.083
 7478TIP3    H122311   8.689   1.620   4.007
 7478TIP3    H222312   8.679   1.617   4.158
 7479TIP3   OH222313   8.493   1.178   4.362
 7479TIP3    H122314   8.525   1.092   4.334
 7479TIP3    H222315   8.572   1.229   4.378
 7480TIP3   OH222316   8.981   0.770   4.380
 7480TIP3    H122317   9.052   0.757   4.443
 7480TIP3    H222318   9.018   0.744   4.296
 7481TIP3   OH222319   7.860   0.551   4.524
 7481TIP3    H122320   7.954   0.540   4.508
 7481TIP3    H222321   7.820   0.476   4.481
 7482TIP3   OH222322   8.310   0.761   4.310
 7482TIP3    H122323   8.401   0.747   4.337
 7482TIP3    H222324   8.291   0.688   4.251
 7483TIP3   OH222325   8.612   1.161   3.799
 7483TIP3    H122326   8.572   1.127   3.718
 7483TIP3    H222327   8.560   1.238   3.821
 7484TIP3   OH222328   8.364   1.099   4.594
 7484TIP3    H122329   8.303   1.166   4.624
 7484TIP3    H222330   8.405   1.137   4.516
 7485TIP3   OH222331   8.127   0.509   4.467
 7485TIP3    H122332   8.171   0.559   4.536
 7485TIP3    H222333   8.191   0.443   4.441
 7486TIP3   OH222334   8.186   1.288   4.682
 7486TIP3    H122335   8.173   1.377   4.649
 7486TIP3    H222336   8.108   1.270   4.734
 7487TIP3   OH222337   7.566   1.010   3.929
 7487TIP3    H122338   7.533   1.028   3.841
 7487TIP3    H222339   7.590   1.096   3.965
 7488TIP3   OH222340   8.991   1.490   4.180
 7488TIP3    H122341   8.900   1.488   4.212
 7488TIP3    H222342   9.003   1.579   4.147
 7489TIP3   OH222343   8.729   1.549   3.847
 7489TIP3    H122344   8.780   1.471   3.825
 7489TIP3    H222345   8.744   1.609   3.774
 7490TIP3   OH222346   8.852   1.305   3.793
 7490TIP3    H122347   8.775   1.248   3.790
 7490TIP3    H222348   8.896   1.280   3.875
 7491TIP3   OH222349   8.525   0.805   3.754
 7491TIP3    H122350   8.438   0.844   3.747
 7491TIP3    H222351   8.569   0.831   3.673
 7492TIP3   OH222352   8.525   0.607   3.461
 7492TIP3    H122353   8.605   0.641   3.501
 7492TIP3    H222354   8.552   0.526   3.418
 7493TIP3   OH222355   8.898   0.871   3.761
 7493TIP3    H122356   8.836   0.895   3.830
 7493TIP3    H222357   8.980   0.856   3.807
 7494TIP3   OH222358   9.034   0.975   4.676
 7494TIP3    H122359   9.050   1.069   4.671
 7494TIP3    H222360   8.949   0.962   4.634
 7495TIP3   OH222361   8.112   0.894   4.145
 7495TIP3    H122362   8.068   0.830   4.088
 7495TIP3    H222363   8.176   0.841   4.194
 7496TIP3   OH222364   8.242   1.275   4.297
 7496TIP3    H122365   8.223   1.260   4.204
 7496TIP3    H222366   8.330   1.240   4.309
 7497TIP3   OH222367   8.192   0.903   4.513
 7497TIP3    H122368   8.235   0.862   4.437
 7497TIP3    H222369   8.255   0.970   4.542
 7498TIP3   OH222370   8.743   1.508   4.293
 7498TIP3    H122371   8.742   1.574   4.363
 7498TIP3    H222372   8.737   1.424   4.339
 7499TIP3   OH222373   8.386   1.384   4.848
 7499TIP3    H122374   8.325   1.444   4.891
 7499TIP3    H222375   8.331   1.330   4.791
 7500TIP3   OH222376   8.743   0.739   3.570
 7500TIP3    H122377   8.802   0.786   3.629
 7500TIP3    H222378   8.770   0.766   3.482
 7501TIP3   OH222379   8.109   0.972   4.986
 7501TIP3    H122380   8.112   1.060   5.023
 7501TIP3    H222381   8.016   0.949   4.988
 7502TIP3   OH222382   8.489   1.408   3.827
 7502TIP3    H122383   8.566   1.462   3.844
 7502TIP3    H222384   8.430   1.465   3.778
 7503TIP3   OH222385   8.181   1.545   4.935
 7503TIP3    H122386   8.152   1.553   4.844
 7503TIP3    H222387   8.101   1.527   4.984
 7504TIP3   OH222388   7.986   0.737   3.950
 7504TIP3    H122389   7.909   0.783   3.917
 7504TIP3    H222390   7.954   0.650   3.974
 7505TIP3   OH222391   7.772   1.112   4.882
 7505TIP3    H122392   7.701   1.100   4.819
 7505TIP3    H222393   7.802   1.024   4.902
 7506TIP3   OH222394   7.620   1.307   4.535
 7506TIP3    H122395   7.710   1.330   4.557
 7506TIP3    H222396   7.569   1.384   4.560
 7507TIP3   OH222397   8.580   1.516   4.706
 7507TIP3    H122398   8.567   1.606   4.735
 7507TIP3    H222399   8.515   1.465   4.755
 7508TIP3   OH222400   8.361   1.615   3.677
 7508TIP3    H122401   8.345   1.590   3.586
 7508TIP3    H222402   8.330   1.705   3.684
 7509TIP3   OH222403   7.794   1.482   4.042
 7509TIP3    H122404   7.838   1.473   4.126
 7509TIP3    H222405   7.742   1.402   4.032
 7510TIP3   OH222406   8.579   1.557   3.294
 7510TIP3    H122407   8.620   1.473   3.273
 7510TIP3    H222408   8.651   1.610   3.330
 7511TIP3   OH222409   7.970   1.301   4.854
 7511TIP3    H122410   8.016   1.294   4.938
 7511TIP3    H222411   7.900   1.236   4.859
 7512TIP3   OH222412   8.809   0.802   3.308
 7512TIP3    H122413   8.775   0.782   3.221
 7512TIP3    H222414   8.808   0.898   3.312
 7513TIP3   OH222415   8.246   0.672   4.646
 7513TIP3    H122416   8.209   0.674   4.734
 7513TIP3    H222417   8.214   0.751   4.604
 7514TIP3   OH222418   8.029   0.621   4.239
 7514TIP3    H122419   8.061   0.590   4.324
 7514TIP3    H222420   8.101   0.602   4.179
 7515TIP3   OH222421   8.736   0.628   3.875
 7515TIP3    H122422   8.730   0.667   3.789
 7515TIP3    H222423   8.805   0.561   3.866
 7516TIP3   OH222424   8.848   0.975   4.935
 7516TIP3    H122425   8.850   0.920   5.013
 7516TIP3    H222426   8.939   0.980   4.907
 7517TIP3   OH222427   8.775   0.751   4.149
 7517TIP3    H122428   8.753   0.811   4.077
 7517TIP3    H222429   8.838   0.690   4.110
 7518TIP3   OH222430   8.137   0.719   4.887
 7518TIP3    H122431   8.131   0.792   4.948
 7518TIP3    H222432   8.087   0.648   4.928
 7519TIP3   OH222433   8.794   0.891   4.543
 7519TIP3    H122434   8.855   0.847   4.484
 7519TIP3    H222435   8.783   0.829   4.616
 7520TIP3   OH222436   7.891   0.369   4.303
 7520TIP3    H122437   7.855   0.445   4.256
 7520TIP3    H222438   7.986   0.378   4.292
 7521TIP3   OH222439   8.208   0.297   3.896
 7521TIP3    H122440   8.292   0.337   3.916
 7521TIP3    H222441   8.169   0.354   3.829
 7522TIP3   OH222442   8.025   0.466   3.745
 7522TIP3    H122443   7.958   0.477   3.813
 7522TIP3    H222444   7.975   0.469   3.663
 7523TIP3   OH222445   9.159   2.065   4.656
 7523TIP3    H122446   9.141   2.075   4.563
 7523TIP3    H222447   9.250   2.093   4.666
 7524TIP3   OH222448   8.113   1.220   5.100
 7524TIP3    H122449   8.195   1.234   5.147
 7524TIP3    H222450   8.046   1.221   5.168
 7525TIP3   OH222451   8.563   0.667   4.371
 7525TIP3    H122452   8.641   0.620   4.341
 7525TIP3    H222453   8.553   0.642   4.463
 7526TIP3   OH222454   8.583   0.569   4.625
 7526TIP3    H122455   8.506   0.516   4.643
 7526TIP3    H222456   8.648   0.539   4.689
 7527TIP3   OH222457   8.281   0.924   3.718
 7527TIP3    H122458   8.202   0.873   3.697
 7527TIP3    H222459   8.261   0.965   3.802
 7528TIP3   OH222460   8.771   1.294   4.698
 7528TIP3    H122461   8.723   1.214   4.720
 7528TIP3    H222462   8.709   1.364   4.716
 7529TIP3   OH222463   7.959   0.954   4.365
 7529TIP3    H122464   7.999   0.940   4.279
 7529TIP3    H222465   8.028   0.931   4.427
 7530TIP3   OH222466   8.455   1.074   3.579
 7530TIP3    H122467   8.413   1.160   3.573
 7530TIP3    H222468   8.392   1.020   3.626
 7531TIP3   OH222469   7.854   0.866   4.994
 7531TIP3    H122470   7.851   0.828   5.082
 7531TIP3    H222471   7.784   0.821   4.946
 7532TIP3   OH222472   8.607   1.053   5.044
 7532TIP3    H122473   8.531   1.012   5.004
 7532TIP3    H222474   8.678   1.039   4.982
 7533TIP3   OH222475   8.838   1.590   4.625
 7533TIP3    H122476   8.749   1.555   4.633
 7533TIP3    H222477   8.869   1.596   4.715
 7534TIP3   OH222478   8.954   1.285   3.532
 7534TIP3    H122479   8.926   1.310   3.620
 7534TIP3    H222480   8.947   1.365   3.480
 7535TIP3   OH222481   8.881   1.060   4.264
 7535TIP3    H122482   8.793   1.023   4.254
 7535TIP3    H222483   8.935   0.985   4.288
 7536TIP3   OH222484   8.115   1.282   4.049
 7536TIP3    H122485   8.106   1.358   3.992
 7536TIP3    H222486   8.025   1.257   4.070
 7537TIP3   OH222487   7.668   0.592   3.761
 7537TIP3    H122488   7.719   0.669   3.785
 7537TIP3    H222489   7.583   0.605   3.803
 7538TIP3   OH222490   8.212   1.049   3.943
 7538TIP3    H122491   8.197   1.138   3.974
 7538TIP3    H222492   8.181   0.994   4.015
 7539TIP3   OH222493   8.397   1.594   4.501
 7539TIP3    H122494   8.434   1.666   4.450
 7539TIP3    H222495   8.472   1.559   4.550
 7540TIP3   OH222496   8.026   1.497   3.898
 7540TIP3    H122497   7.938   1.501   3.936
 7540TIP3    H222498   8.056   1.587   3.898
 7541TIP3   OH222499   8.751   1.265   4.420
 7541TIP3    H122500   8.774   1.266   4.513
 7541TIP3    H222501   8.811   1.201   4.381
 7542TIP3   OH222502   8.722   1.073   3.308
 7542TIP3    H122503   8.761   1.068   3.395
 7542TIP3    H222504   8.628   1.064   3.323
 7543TIP3   OH222505   9.021   1.734   4.488
 7543TIP3    H122506   8.948   1.684   4.526
 7543TIP3    H222507   8.979   1.790   4.422
 7544TIP3   OH222508   8.864   1.027   3.533
 7544TIP3    H122509   8.888   0.987   3.616
 7544TIP3    H222510   8.909   1.111   3.533
 7545TIP3   OH222511   7.826   1.491   4.668
 7545TIP3    H122512   7.878   1.430   4.722
 7545TIP3    H222513   7.841   1.577   4.708
 7546TIP3   OH222514   8.091   1.129   3.369
 7546TIP3    H122515   8.105   1.039   3.338
 7546TIP3    H222516   8.078   1.120   3.463
 7547TIP3   OH222517   8.035   1.125   3.641
 7547TIP3    H122518   8.101   1.096   3.704
 7547TIP3    H222519   8.037   1.221   3.646
 7548TIP3   OH222520   7.763   0.842   3.835
 7548TIP3    H122521   7.697   0.889   3.885
 7548TIP3    H222522   7.780   0.899   3.759
 7549TIP3   OH222523   8.310   1.302   3.568
 7549TIP3    H122524   8.227   1.327   3.606
 7549TIP3    H222525   8.337   1.377   3.516
 7550TIP3   OH222526   8.464   0.321   4.000
 7550TIP3    H122527   8.502   0.405   4.025
 7550TIP3    H222528   8.514   0.256   4.049
 7551TIP3   OH222529   8.776   0.763   4.780
 7551TIP3    H122530   8.772   0.844   4.832
 7551TIP3    H222531   8.860   0.724   4.803
 7552TIP3   OH222532   8.063   1.395   3.647
 7552TIP3    H122533   8.047   1.468   3.587
 7552TIP3    H222534   8.050   1.433   3.734
 7553TIP3   OH222535   7.786   1.009   3.613
 7553TIP3    H122536   7.862   1.066   3.627
 7553TIP3    H222537   7.814   0.946   3.547
 7554TIP3   OH222538   7.661   0.315   3.751
 7554TIP3    H122539   7.677   0.407   3.771
 7554TIP3    H222540   7.567   0.303   3.764
 7555TIP3   OH222541   9.039   1.759   4.085
 7555TIP3    H122542   8.992   1.809   4.018
 7555TIP3    H222543   9.119   1.731   4.042
 7556TIP3   OH222544   7.614   1.271   4.012
 7556TIP3    H122545   7.569   1.305   4.089
 7556TIP3    H222546   7.568   1.311   3.938
 7557TIP3   OH222547   7.819   1.788   5.089
 7557TIP3    H122548   7.903   1.784   5.135
 7557TIP3    H222549   7.790   1.697   5.085
 7558TIP3   OH222550   8.291   1.708   5.127
 7558TIP3    H122551   8.380   1.675   5.141
 7558TIP3    H222552   8.257   1.654   5.056
 7559TIP3   OH222553   8.249   1.322   3.253
 7559TIP3    H122554   8.201   1.254   3.300
 7559TIP3    H222555   8.321   1.275   3.209
 7560TIP3   OH222556   8.910   1.636   4.885
 7560TIP3    H122557   8.924   1.570   4.953
 7560TIP3    H222558   8.983   1.697   4.895
 7561TIP3   OH222559   8.694   1.328   3.206
 7561TIP3    H122560   8.725   1.242   3.236
 7561TIP3    H222561   8.730   1.336   3.117
 7562TIP3   OH222562   7.912   1.211   5.289
 7562TIP3    H122563   7.893   1.137   5.348
 7562TIP3    H222564   7.833   1.219   5.235
 7563TIP3   OH222565   7.901   0.817   3.458
 7563TIP3    H122566   7.947   0.789   3.537
 7563TIP3    H222567   7.971   0.838   3.396
 7564TIP3   OH222568   8.537   1.316   5.064
 7564TIP3    H122569   8.493   1.332   4.981
 7564TIP3    H222570   8.577   1.230   5.053
 7565TIP3   OH222571   8.444   1.034   3.305
 7565TIP3    H122572   8.431   1.038   3.400
 7565TIP3    H222573   8.431   0.942   3.283
 7566TIP3   OH222574   9.043   1.276   4.648
 7566TIP3    H122575   9.071   1.338   4.581
 7566TIP3    H222576   8.952   1.300   4.666
 7567TIP3   OH222577   8.031   0.903   5.312
 7567TIP3    H122578   8.105   0.882   5.255
 7567TIP3    H222579   8.063   0.973   5.369
 7568TIP3   OH222580   8.062   0.761   3.674
 7568TIP3    H122581   8.050   0.739   3.767
 7568TIP3    H222582   8.122   0.694   3.641
 7569TIP3   OH222583   8.381   0.934   4.948
 7569TIP3    H122584   8.286   0.949   4.948
 7569TIP3    H222585   8.402   0.910   4.858
 7570TIP3   OH222586   8.248   0.608   3.531
 7570TIP3    H122587   8.195   0.598   3.452
 7570TIP3    H222588   8.337   0.623   3.500
 7571TIP3   OH222589   8.935   1.221   5.091
 7571TIP3    H122590   8.980   1.192   5.012
 7571TIP3    H222591   8.908   1.139   5.134
 7572TIP3   OH222592   8.513   0.654   4.952
 7572TIP3    H122593   8.430   0.634   4.995
 7572TIP3    H222594   8.492   0.728   4.894
 7573TIP3   OH222595   8.623   1.067   4.711
 7573TIP3    H122596   8.668   1.002   4.657
 7573TIP3    H222597   8.530   1.057   4.688
 7574TIP3   OH222598   9.222   0.901   5.232
 7574TIP3    H122599   9.154   0.876   5.169
 7574TIP3    H222600   9.187   0.978   5.276
 7575TIP3   OH222601   9.121   1.174   4.888
 7575TIP3    H122602   9.101   1.219   4.806
 7575TIP3    H222603   9.187   1.109   4.864
 7576TIP3   OH222604   8.287   0.855   5.215
 7576TIP3    H122605   8.346   0.847   5.290
 7576TIP3    H222606   8.337   0.906   5.151
 7577TIP3   OH222607   8.802   0.798   5.149
 7577TIP3    H122608   8.738   0.852   5.195
 7577TIP3    H222609   8.808   0.718   5.202
 7578TIP3   OH222610   8.069   1.608   3.469
 7578TIP3    H122611   8.159   1.589   3.444
 7578TIP3    H222612   8.029   1.644   3.390
 7579TIP3   OH222613   7.515   1.003   3.644
 7579TIP3    H122614   7.610   1.015   3.636
 7579TIP3    H222615   7.500   0.916   3.607
 7580TIP3   OH222616   7.419   1.569   4.104
 7580TIP3    H122617   7.355   1.514   4.057
 7580TIP3    H222618   7.464   1.508   4.163
 7581TIP3   OH222619   7.566   1.403   4.268
 7581TIP3    H122620   7.558   1.332   4.332
 7581TIP3    H222621   7.619   1.469   4.312
 7582TIP3   OH222622   9.096   1.462   4.444
 7582TIP3    H122623   9.088   1.555   4.464
 7582TIP3    H222624   9.076   1.455   4.351
 7583TIP3   OH222625   7.729   0.873   4.630
 7583TIP3    H122626   7.725   0.844   4.539
 7583TIP3    H222627   7.823   0.875   4.650
 7584TIP3   OH222628   7.608   0.595   4.666
 7584TIP3    H122629   7.688   0.624   4.621
 7584TIP3    H222630   7.588   0.667   4.726
 7585TIP3   OH222631   7.966   1.512   5.108
 7585TIP3    H122632   7.871   1.503   5.097
 7585TIP3    H222633   7.981   1.498   5.201
 7586TIP3   OH222634   8.169   1.564   4.652
 7586TIP3    H122635   8.120   1.640   4.621
 7586TIP3    H222636   8.253   1.570   4.608
 7587TIP3   OH222637   8.553   1.781   4.787
 7587TIP3    H122638   8.595   1.773   4.872
 7587TIP3    H222639   8.612   1.835   4.735
 7588TIP3   OH222640   8.740   1.934   4.656
 7588TIP3    H122641   8.784   1.870   4.602
 7588TIP3    H222642   8.809   1.974   4.709
 7589TIP3   OH222643   7.830   1.798   4.703
 7589TIP3    H122644   7.738   1.816   4.682
 7589TIP3    H222645   7.851   1.863   4.771
 7590TIP3   OH222646   8.060   1.797   4.554
 7590TIP3    H122647   7.977   1.798   4.601
 7590TIP3    H222648   8.036   1.816   4.463
 7591TIP3   OH222649   8.459   1.809   4.334
 7591TIP3    H122650   8.384   1.818   4.275
 7591TIP3    H222651   8.467   1.894   4.377
 7592TIP3   OH222652   8.721   1.763   4.406
 7592TIP3    H122653   8.633   1.775   4.369
 7592TIP3    H222654   8.777   1.818   4.352
 7593TIP3   OH222655   8.924   1.905   4.287
 7593TIP3    H122656   8.918   1.994   4.251
 7593TIP3    H222657   8.962   1.853   4.216
 7594TIP3   OH222658   7.741   1.579   4.418
 7594TIP3    H122659   7.767   1.554   4.507
 7594TIP3    H222660   7.812   1.547   4.362
 7595TIP3   OH222661   7.942   1.471   4.273
 7595TIP3    H122662   7.951   1.387   4.318
 7595TIP3    H222663   8.030   1.509   4.276
 7596TIP3   OH222664   8.211   1.551   4.298
 7596TIP3    H122665   8.224   1.458   4.284
 7596TIP3    H222666   8.267   1.572   4.373
 7597TIP3   OH222667   7.495   1.378   3.788
 7597TIP3    H122668   7.410   1.351   3.752
 7597TIP3    H222669   7.503   1.470   3.762
 7598TIP3   OH222670   8.329   1.532   3.405
 7598TIP3    H122671   8.416   1.551   3.369
 7598TIP3    H222672   8.292   1.467   3.345
 7599TIP3   OH222673   7.610   1.358   3.455
 7599TIP3    H122674   7.611   1.367   3.550
 7599TIP3    H222675   7.693   1.316   3.434
 7600TIP3   OH222676   9.170   1.793   4.713
 7600TIP3    H122677   9.130   1.754   4.635
 7600TIP3    H222678   9.178   1.886   4.691
 7601TIP3   OH222679   1.166   1.741   5.633
 7601TIP3    H122680   1.133   1.826   5.602
 7601TIP3    H222681   1.099   1.679   5.606
 7602TIP3   OH222682   1.173   1.734   6.048
 7602TIP3    H122683   1.223   1.710   6.126
 7602TIP3    H222684   1.130   1.653   6.021
 7603TIP3   OH222685   0.511   1.653   6.437
 7603TIP3    H122686   0.437   1.599   6.410
 7603TIP3    H222687   0.573   1.648   6.365
 7604TIP3   OH222688   1.430   2.028   5.724
 7604TIP3    H122689   1.419   1.960   5.790
 7604TIP3    H222690   1.449   2.108   5.774
 7605TIP3   OH222691   0.466   2.024   6.100
 7605TIP3    H122692   0.452   1.929   6.102
 7605TIP3    H222693   0.558   2.035   6.080
 7606TIP3   OH222694   1.097   2.443   5.749
 7606TIP3    H122695   1.116   2.383   5.677
 7606TIP3    H222696   1.113   2.392   5.828
 7607TIP3   OH222697   0.965   1.940   6.056
 7607TIP3    H122698   1.012   1.863   6.025
 7607TIP3    H222699   1.033   2.000   6.086
 7608TIP3   OH222700   2.010   1.264   6.061
 7608TIP3    H122701   2.018   1.353   6.095
 7608TIP3    H222702   2.040   1.271   5.970
 7609TIP3   OH222703   1.384   1.429   6.087
 7609TIP3    H122704   1.416   1.344   6.118
 7609TIP3    H222705   1.341   1.409   6.004
 7610TIP3   OH222706   1.439   1.202   5.690
 7610TIP3    H122707   1.503   1.192   5.761
 7610TIP3    H222708   1.490   1.235   5.616
 7611TIP3   OH222709   0.790   1.515   5.995
 7611TIP3    H122710   0.885   1.512   5.989
 7611TIP3    H222711   0.762   1.424   5.985
 7612TIP3   OH222712   2.053   1.492   6.231
 7612TIP3    H122713   1.963   1.520   6.219
 7612TIP3    H222714   2.076   1.522   6.319
 7613TIP3   OH222715   1.060   1.950   5.483
 7613TIP3    H122716   1.023   1.917   5.401
 7613TIP3    H222717   1.003   2.023   5.507
 7614TIP3   OH222718   0.816   1.864   6.278
 7614TIP3    H122719   0.758   1.935   6.308
 7614TIP3    H222720   0.861   1.901   6.202
 7615TIP3   OH222721   1.592   1.211   5.915
 7615TIP3    H122722   1.549   1.191   5.998
 7615TIP3    H222723   1.645   1.289   5.933
 7616TIP3   OH222724   0.652   2.065   6.379
 7616TIP3    H122725   0.635   2.152   6.344
 7616TIP3    H222726   0.572   2.042   6.426
 7617TIP3   OH222727   0.047   1.793   5.613
 7617TIP3    H122728  -0.044   1.792   5.645
 7617TIP3    H222729   0.081   1.878   5.639
 7618TIP3   OH222730   1.456   2.274   5.866
 7618TIP3    H122731   1.367   2.269   5.899
 7618TIP3    H222732   1.458   2.357   5.817
 7619TIP3   OH222733   1.797   1.167   6.221
 7619TIP3    H122734   1.713   1.184   6.179
 7619TIP3    H222735   1.862   1.191   6.155
 7620TIP3   OH222736   1.169   2.308   5.518
 7620TIP3    H122737   1.222   2.229   5.508
 7620TIP3    H222738   1.225   2.379   5.488
 7621TIP3   OH222739   1.309   2.079   5.482
 7621TIP3    H122740   1.236   2.017   5.479
 7621TIP3    H222741   1.360   2.053   5.558
 7622TIP3   OH222742   1.690   2.163   6.204
 7622TIP3    H122743   1.674   2.088   6.147
 7622TIP3    H222744   1.676   2.240   6.148
 7623TIP3   OH222745   0.993   1.580   5.486
 7623TIP3    H122746   0.908   1.619   5.466
 7623TIP3    H222747   1.040   1.581   5.402
 7624TIP3   OH222748   0.949   1.464   5.181
 7624TIP3    H122749   1.033   1.490   5.219
 7624TIP3    H222750   0.953   1.369   5.175
 7625TIP3   OH222751   1.875   1.826   6.074
 7625TIP3    H122752   1.790   1.872   6.073
 7625TIP3    H222753   1.909   1.839   5.985
 7626TIP3   OH222754   1.361   1.685   5.448
 7626TIP3    H122755   1.306   1.709   5.522
 7626TIP3    H222756   1.442   1.654   5.487
 7627TIP3   OH222757   1.578   1.686   6.382
 7627TIP3    H122758   1.575   1.770   6.429
 7627TIP3    H222759   1.497   1.684   6.332
 7628TIP3   OH222760   0.591   1.654   5.852
 7628TIP3    H122761   0.551   1.597   5.786
 7628TIP3    H222762   0.663   1.602   5.888
 7629TIP3   OH222763   0.718   2.064   5.986
 7629TIP3    H122764   0.693   2.047   5.895
 7629TIP3    H222765   0.803   2.020   5.996
 7630TIP3   OH222766   0.687   1.628   6.225
 7630TIP3    H122767   0.723   1.591   6.144
 7630TIP3    H222768   0.737   1.708   6.239
 7631TIP3   OH222769   1.210   2.273   5.984
 7631TIP3    H122770   1.203   2.352   6.038
 7631TIP3    H222771   1.199   2.200   6.046
 7632TIP3   OH222772   0.841   2.171   6.552
 7632TIP3    H122773   0.776   2.229   6.591
 7632TIP3    H222774   0.793   2.117   6.490
 7633TIP3   OH222775   1.192   1.548   5.282
 7633TIP3    H122776   1.250   1.604   5.333
 7633TIP3    H222777   1.219   1.561   5.191
 7634TIP3   OH222778   0.636   1.737   6.666
 7634TIP3    H122779   0.617   1.830   6.680
 7634TIP3    H222780   0.584   1.712   6.590
 7635TIP3   OH222781   0.920   2.188   5.521
 7635TIP3    H122782   1.003   2.235   5.530
 7635TIP3    H222783   0.863   2.248   5.472
 7636TIP3   OH222784   0.619   2.319   6.629
 7636TIP3    H122785   0.603   2.330   6.535
 7636TIP3    H222786   0.532   2.301   6.666
 7637TIP3   OH222787   1.717   0.778   5.363
 7637TIP3    H122788   1.635   0.791   5.410
 7637TIP3    H222789   1.719   0.849   5.299
 7638TIP3   OH222790   0.472   1.501   5.655
 7638TIP3    H122791   0.380   1.515   5.633
 7638TIP3    H222792   0.480   1.406   5.663
 7639TIP3   OH222793   1.514   2.119   4.890
 7639TIP3    H122794   1.508   2.212   4.867
 7639TIP3    H222795   1.602   2.094   4.863
 7640TIP3   OH222796   0.108   2.083   6.177
 7640TIP3    H122797   0.165   2.008   6.166
 7640TIP3    H222798   0.151   2.137   6.244
 7641TIP3   OH222799   1.925   2.519   6.278
 7641TIP3    H122800   1.928   2.425   6.293
 7641TIP3    H222801   1.847   2.548   6.325
 7642TIP3   OH222802   1.033   2.310   6.409
 7642TIP3    H122803   1.026   2.402   6.436
 7642TIP3    H222804   0.966   2.265   6.460
 7643TIP3   OH222805   0.814   2.403   5.356
 7643TIP3    H122806   0.771   2.385   5.273
 7643TIP3    H222807   0.780   2.488   5.383
 7644TIP3   OH222808   0.259   2.268   5.739
 7644TIP3    H122809   0.300   2.256   5.825
 7644TIP3    H222810   0.204   2.190   5.728
 7645TIP3   OH222811   1.015   2.343   4.980
 7645TIP3    H122812   1.063   2.268   4.946
 7645TIP3    H222813   1.050   2.356   5.068
 7646TIP3   OH222814   1.068   2.383   5.249
 7646TIP3    H122815   0.983   2.385   5.293
 7646TIP3    H222816   1.127   2.344   5.313
 7647TIP3   OH222817   1.822   1.626   6.535
 7647TIP3    H122818   1.738   1.640   6.491
 7647TIP3    H222819   1.837   1.532   6.528
 7648TIP3   OH222820   0.429   2.054   6.546
 7648TIP3    H122821   0.476   2.050   6.629
 7648TIP3    H222822   0.356   1.993   6.555
 7649TIP3   OH222823   1.387   0.991   6.578
 7649TIP3    H122824   1.469   0.962   6.619
 7649TIP3    H222825   1.326   0.999   6.651
 7650TIP3   OH222826   1.579   1.419   6.459
 7650TIP3    H122827   1.543   1.415   6.548
 7650TIP3    H222828   1.564   1.509   6.431
 7651TIP3   OH222829   1.260   1.575   5.024
 7651TIP3    H122830   1.217   1.551   4.942
 7651TIP3    H222831   1.348   1.602   4.998
 7652TIP3   OH222832   0.949   0.990   5.346
 7652TIP3    H122833   0.913   0.972   5.433
 7652TIP3    H222834   0.990   0.908   5.319
 7653TIP3   OH222835   0.812   1.422   6.378
 7653TIP3    H122836   0.810   1.456   6.468
 7653TIP3    H222837   0.757   1.483   6.328
 7654TIP3   OH222838   0.700   1.259   5.954
 7654TIP3    H122839   0.619   1.223   5.990
 7654TIP3    H222840   0.685   1.261   5.859
 7655TIP3   OH222841   1.122   1.377   5.614
 7655TIP3    H122842   1.071   1.449   5.576
 7655TIP3    H222843   1.184   1.353   5.546
 7656TIP3   OH222844   1.311   1.635   6.679
 7656TIP3    H122845   1.285   1.569   6.743
 7656TIP3    H222846   1.404   1.650   6.697
 7657TIP3   OH222847   1.279   1.374   5.839
 7657TIP3    H122848   1.216   1.395   5.770
 7657TIP3    H222849   1.333   1.304   5.801
 7658TIP3   OH222850   1.331   1.630   6.258
 7658TIP3    H122851   1.356   1.565   6.193
 7658TIP3    H222852   1.289   1.580   6.328
 7659TIP3   OH222853   1.012   1.135   5.946
 7659TIP3    H122854   0.935   1.166   5.993
 7659TIP3    H222855   1.083   1.138   6.010
 7660TIP3   OH222856   0.653   1.257   5.686
 7660TIP3    H122857   0.746   1.252   5.661
 7660TIP3    H222858   0.612   1.183   5.641
 7661TIP3   OH222859   1.456   1.171   6.156
 7661TIP3    H122860   1.434   1.184   6.248
 7661TIP3    H222861   1.388   1.111   6.123
 7662TIP3   OH222862   0.400   1.222   5.366
 7662TIP3    H122863   0.440   1.145   5.325
 7662TIP3    H222864   0.464   1.292   5.353
 7663TIP3   OH222865   1.643   2.869   6.367
 7663TIP3    H122866   1.640   2.886   6.272
 7663TIP3    H222867   1.722   2.914   6.396
 7664TIP3   OH222868   0.581   1.993   6.777
 7664TIP3    H122869   0.646   2.058   6.803
 7664TIP3    H222870   0.572   1.936   6.854
 7665TIP3   OH222871   1.066   1.477   6.009
 7665TIP3    H122872   1.130   1.428   5.957
 7665TIP3    H222873   1.066   1.433   6.094
 7666TIP3   OH222874   1.053   1.365   6.257
 7666TIP3    H122875   0.966   1.372   6.297
 7666TIP3    H222876   1.114   1.391   6.327
 7667TIP3   OH222877   0.759   1.717   5.426
 7667TIP3    H122878   0.677   1.676   5.398
 7667TIP3    H222879   0.737   1.759   5.510
 7668TIP3   OH222880   1.639   1.960   6.025
 7668TIP3    H122881   1.676   2.009   5.951
 7668TIP3    H222882   1.561   1.918   5.989
 7669TIP3   OH222883   1.213   1.065   5.365
 7669TIP3    H122884   1.118   1.064   5.361
 7669TIP3    H222885   1.236   1.158   5.371
 7670TIP3   OH222886   1.163   2.050   6.438
 7670TIP3    H122887   1.217   2.038   6.516
 7670TIP3    H222888   1.125   2.137   6.448
 7671TIP3   OH222889   1.298   1.321   5.408
 7671TIP3    H122890   1.393   1.323   5.414
 7671TIP3    H222891   1.276   1.395   5.351
 7672TIP3   OH222892   0.474   1.751   6.083
 7672TIP3    H122893   0.496   1.723   5.995
 7672TIP3    H222894   0.535   1.703   6.140
 7673TIP3   OH222895   0.912   1.863   5.258
 7673TIP3    H122896   0.863   1.946   5.254
 7673TIP3    H222897   0.859   1.807   5.314
 7674TIP3   OH222898   1.089   1.809   6.701
 7674TIP3    H122899   1.038   1.791   6.622
 7674TIP3    H222900   1.172   1.763   6.687
 7675TIP3   OH222901   1.303   2.335   6.325
 7675TIP3    H122902   1.208   2.321   6.328
 7675TIP3    H222903   1.324   2.374   6.409
 7676TIP3   OH222904   1.695   1.378   5.213
 7676TIP3    H122905   1.642   1.330   5.150
 7676TIP3    H222906   1.697   1.468   5.179
 7677TIP3   OH222907   1.935   2.235   6.300
 7677TIP3    H122908   1.841   2.223   6.286
 7677TIP3    H222909   1.974   2.211   6.216
 7678TIP3   OH222910   1.426   2.185   5.153
 7678TIP3    H122911   1.401   2.113   5.211
 7678TIP3    H222912   1.449   2.143   5.070
 7679TIP3   OH222913   1.416   1.824   5.920
 7679TIP3    H122914   1.327   1.804   5.947
 7679TIP3    H222915   1.449   1.742   5.882
 7680TIP3   OH222916   0.571   2.070   5.745
 7680TIP3    H122917   0.567   2.145   5.686
 7680TIP3    H222918   0.480   2.055   5.771
 7681TIP3   OH222919   0.664   1.831   5.650
 7681TIP3    H122920   0.644   1.919   5.681
 7681TIP3    H222921   0.641   1.774   5.723
 7682TIP3   OH222922   0.853   2.379   6.197
 7682TIP3    H122923   0.888   2.454   6.148
 7682TIP3    H222924   0.928   2.347   6.247
 7683TIP3   OH222925   0.487   2.289   5.589
 7683TIP3    H122926   0.402   2.291   5.633
 7683TIP3    H222927   0.519   2.380   5.595
 7684TIP3   OH222928   1.195   2.055   6.163
 7684TIP3    H122929   1.185   2.051   6.258
 7684TIP3    H222930   1.267   1.994   6.144
 7685TIP3   OH222931   1.194   1.923   5.038
 7685TIP3    H122932   1.251   1.900   5.112
 7685TIP3    H222933   1.113   1.874   5.055
 7686TIP3   OH222934   1.457   2.541   6.209
 7686TIP3    H122935   1.387   2.478   6.229
 7686TIP3    H222936   1.422   2.594   6.137
 7687TIP3   OH222937   1.506   2.391   4.841
 7687TIP3    H122938   1.525   2.451   4.769
 7687TIP3    H222939   1.436   2.433   4.890
 7688TIP3   OH222940   1.381   1.858   5.229
 7688TIP3    H122941   1.365   1.809   5.309
 7688TIP3    H222942   1.477   1.858   5.220
 7689TIP3   OH222943   0.261   2.253   6.343
 7689TIP3    H122944   0.322   2.199   6.393
 7689TIP3    H222945   0.280   2.343   6.373
 7690TIP3   OH222946   0.536   1.914   5.063
 7690TIP3    H122947   0.550   1.824   5.032
 7690TIP3    H222948   0.529   1.905   5.158
 7691TIP3   OH222949   0.492   1.915   5.336
 7691TIP3    H122950   0.549   1.884   5.407
 7691TIP3    H222951   0.497   2.010   5.342
 7692TIP3   OH222952   0.236   1.601   5.545
 7692TIP3    H122953   0.166   1.656   5.582
 7692TIP3    H222954   0.263   1.646   5.466
 7693TIP3   OH222955   1.389   1.220   6.419
 7693TIP3    H122956   1.468   1.270   6.442
 7693TIP3    H222957   1.391   1.144   6.476
 7694TIP3   OH222958   1.295   0.983   5.612
 7694TIP3    H122959   1.264   1.006   5.524
 7694TIP3    H222960   1.341   1.062   5.642
 7695TIP3   OH222961   0.763   2.089   5.252
 7695TIP3    H122962   0.680   2.114   5.293
 7695TIP3    H222963   0.787   2.166   5.200
 7696TIP3   OH222964   0.930   1.194   5.687
 7696TIP3    H122965   0.993   1.258   5.654
 7696TIP3    H222966   0.955   1.181   5.778
 7697TIP3   OH222967   1.235   1.461   6.453
 7697TIP3    H122968   1.254   1.504   6.536
 7697TIP3    H222969   1.283   1.378   6.458
 7698TIP3   OH222970   1.099   0.913   5.793
 7698TIP3    H122971   1.074   0.992   5.843
 7698TIP3    H222972   1.171   0.942   5.738
 7699TIP3   OH222973   0.519   2.187   5.338
 7699TIP3    H122974   0.496   2.258   5.279
 7699TIP3    H222975   0.508   2.224   5.426
 7700TIP3   OH222976   1.839   1.348   6.436
 7700TIP3    H122977   1.746   1.365   6.448
 7700TIP3    H222978   1.844   1.287   6.363
 7701TIP3   OH222979   1.506   1.564   5.836
 7701TIP3    H122980   1.429   1.509   5.848
 7701TIP3    H222981   1.573   1.525   5.893
 7702TIP3   OH222982   0.251   1.784   5.313
 7702TIP3    H122983   0.326   1.839   5.332
 7702TIP3    H222984   0.282   1.722   5.248
 7703TIP3   OH222985   1.483   2.536   5.774
 7703TIP3    H122986   1.444   2.591   5.706
 7703TIP3    H222987   1.578   2.550   5.763
 7704TIP3   OH222988   0.068   2.068   5.694
 7704TIP3    H122989   0.006   2.095   5.762
 7704TIP3    H222990   0.025   2.091   5.611
 7705TIP3   OH222991   0.273   2.599   6.718
 7705TIP3    H122992   0.343   2.590   6.782
 7705TIP3    H222993   0.200   2.548   6.755
 7706TIP3   OH222994   0.727   2.483   6.823
 7706TIP3    H122995   0.819   2.460   6.834
 7706TIP3    H222996   0.697   2.428   6.750
 7707TIP3   OH222997   0.699   2.099   4.940
 7707TIP3    H122998   0.651   2.033   4.990
 7707TIP3    H222999   0.772   2.051   4.902
 7708TIP3   OH223000   1.355   2.439   6.571
 7708TIP3    H123001   1.361   2.365   6.631
 7708TIP3    H223002   1.432   2.492   6.589
 7709TIP3   OH223003   1.139   2.128   4.866
 7709TIP3    H123004   1.171   2.063   4.928
 7709TIP3    H223005   1.199   2.121   4.791
 7710TIP3   OH223006   0.367   1.596   5.153
 7710TIP3    H123007   0.413   1.583   5.235
 7710TIP3    H223008   0.436   1.612   5.089
 7711TIP3   OH223009   0.965   2.059   6.772
 7711TIP3    H123010   0.930   2.087   6.688
 7711TIP3    H223011   1.017   1.980   6.752
 7712TIP3   OH223012   0.924   1.802   4.991
 7712TIP3    H123013   0.911   1.812   5.085
 7712TIP3    H223014   0.903   1.711   4.973
 7713TIP3   OH223015   1.471   2.112   6.364
 7713TIP3    H123016   1.548   2.137   6.312
 7713TIP3    H223017   1.407   2.180   6.346
 7714TIP3   OH223018   0.508   1.592   5.393
 7714TIP3    H123019   0.502   1.563   5.484
 7714TIP3    H223020   0.570   1.531   5.353
 7715TIP3   OH223021   0.839   1.559   6.622
 7715TIP3    H123022   0.765   1.611   6.653
 7715TIP3    H223023   0.892   1.619   6.570
 7716TIP3   OH223024   0.679   1.453   5.245
 7716TIP3    H123025   0.651   1.380   5.190
 7716TIP3    H223026   0.771   1.465   5.225
 7717TIP3   OH223027   1.364   1.981   6.708
 7717TIP3    H123028   1.431   1.944   6.651
 7717TIP3    H223029   1.361   1.921   6.783
 7718TIP3   OH223030   1.492   1.643   4.886
 7718TIP3    H123031   1.474   1.598   4.804
 7718TIP3    H223032   1.463   1.733   4.871
 7719TIP3   OH223033   0.996   1.386   6.770
 7719TIP3    H123034   0.970   1.306   6.725
 7719TIP3    H223035   0.944   1.455   6.730
 7720TIP3   OH223036   0.977   1.734   6.460
 7720TIP3    H123037   1.052   1.714   6.405
 7720TIP3    H223038   0.918   1.784   6.404
 7721TIP3   OH223039   1.575   1.671   6.785
 7721TIP3    H123040   1.631   1.593   6.786
 7721TIP3    H223041   1.636   1.744   6.782
 7722TIP3   OH223042   1.595   1.931   6.523
 7722TIP3    H123043   1.542   1.994   6.474
 7722TIP3    H223044   1.684   1.946   6.491
 7723TIP3   OH223045   1.257   1.431   6.852
 7723TIP3    H123046   1.277   1.403   6.942
 7723TIP3    H223047   1.164   1.411   6.841
 7724TIP3   OH223048   1.479   1.371   6.702
 7724TIP3    H123049   1.403   1.384   6.759
 7724TIP3    H223050   1.551   1.354   6.763
 7725TIP3   OH223051   1.702   1.344   6.865
 7725TIP3    H123052   1.719   1.250   6.874
 7725TIP3    H223053   1.688   1.375   6.955
 7726TIP3   OH223054   0.507   2.397   5.157
 7726TIP3    H123055   0.595   2.374   5.130
 7726TIP3    H223056   0.469   2.440   5.080
 7727TIP3   OH223057  -0.015   1.752   5.265
 7727TIP3    H123058   0.075   1.775   5.285
 7727TIP3    H223059  -0.050   1.718   5.347
 7728TIP3   OH223060   9.694   2.356   5.751
 7728TIP3    H123061   9.599   2.369   5.747
 7728TIP3    H223062   9.708   2.315   5.837
 7729TIP3   OH223063   9.758   2.223   5.984
 7729TIP3    H123064   9.774   2.150   6.043
 7729TIP3    H223065   9.824   2.288   6.007
 7730TIP3   OH223066   1.754   2.588   5.774
 7730TIP3    H123067   1.772   2.615   5.864
 7730TIP3    H223068   1.806   2.649   5.720
 7731TIP3   OH223069   1.770   2.622   6.054
 7731TIP3    H123070   1.723   2.539   6.049
 7731TIP3    H223071   1.840   2.607   6.117
 7732TIP3   OH223072   1.826   2.318   6.644
 7732TIP3    H123073   1.756   2.332   6.707
 7732TIP3    H223074   1.873   2.401   6.640
 7733TIP3   OH223075   1.659   1.843   5.228
 7733TIP3    H123076   1.716   1.913   5.199
 7733TIP3    H223077   1.704   1.804   5.304
 7734TIP3   OH223078   1.786   1.703   5.432
 7734TIP3    H123079   1.719   1.665   5.489
 7734TIP3    H223080   1.851   1.738   5.492
 7735TIP3   OH223081   1.827   2.099   5.869
 7735TIP3    H123082   1.877   2.031   5.823
 7735TIP3    H223083   1.829   2.174   5.809
 7736TIP3   OH223084   1.627   2.384   6.056
 7736TIP3    H123085   1.562   2.430   6.108
 7736TIP3    H223086   1.577   2.344   5.985
 7737TIP3   OH223087   1.688   1.616   5.076
 7737TIP3    H123088   1.620   1.618   5.009
 7737TIP3    H223089   1.672   1.695   5.128
 7738TIP3   OH223090   1.555   1.258   5.011
 7738TIP3    H123091   1.502   1.283   4.935
 7738TIP3    H223092   1.546   1.163   5.017
 7739TIP3   OH223093   1.583   1.565   5.569
 7739TIP3    H123094   1.588   1.472   5.549
 7739TIP3    H223095   1.562   1.569   5.663
 7740TIP3   OH223096   1.854   1.973   6.431
 7740TIP3    H123097   1.921   1.906   6.414
 7740TIP3    H223098   1.875   2.044   6.371
 7741TIP3   OH223099   2.031   1.759   6.421
 7741TIP3    H123100   1.957   1.714   6.461
 7741TIP3    H223101   2.108   1.711   6.452
 7742TIP3   OH223102   1.533   0.987   5.039
 7742TIP3    H123103   1.621   0.976   5.074
 7742TIP3    H223104   1.474   0.955   5.107
 7743TIP3   OH223105   1.582   1.296   5.459
 7743TIP3    H123106   1.624   1.211   5.474
 7743TIP3    H223107   1.621   1.328   5.378
 7744TIP3   OH223108   1.723   1.446   5.980
 7744TIP3    H123109   1.804   1.463   5.932
 7744TIP3    H223110   1.736   1.488   6.065
 7745TIP3   OH223111   1.793   1.598   6.204
 7745TIP3    H123112   1.720   1.626   6.260
 7745TIP3    H223113   1.823   1.678   6.162
 7746TIP3   OH223114   2.266   1.212   6.740
 7746TIP3    H123115   2.324   1.143   6.709
 7746TIP3    H223116   2.228   1.250   6.660
 7747TIP3   OH223117   1.686   1.046   5.521
 7747TIP3    H123118   1.735   1.029   5.601
 7747TIP3    H223119   1.625   0.972   5.514
 7748TIP3   OH223120   2.108   1.320   6.545
 7748TIP3    H123121   2.035   1.356   6.596
 7748TIP3    H223122   2.068   1.256   6.487
 7749TIP3   OH223123   1.773   0.959   5.164
 7749TIP3    H123124   1.831   0.900   5.115
 7749TIP3    H223125   1.819   1.043   5.164
 7750TIP3   OH223126   1.305   2.513   5.412
 7750TIP3    H123127   1.362   2.499   5.336
 7750TIP3    H223128   1.351   2.579   5.464
 7751TIP3   OH223129   0.385   2.306   6.792
 7751TIP3    H123130   0.297   2.282   6.822
 7751TIP3    H223131   0.410   2.380   6.847
 7752TIP3   OH223132   0.626   2.342   6.347
 7752TIP3    H123133   0.577   2.418   6.316
 7752TIP3    H223134   0.710   2.348   6.303
 7753TIP3   OH223135   1.021   2.578   6.484
 7753TIP3    H123136   1.059   2.569   6.572
 7753TIP3    H223137   1.085   2.630   6.435
 7754TIP3   OH223138   1.214   2.730   6.358
 7754TIP3    H123139   1.277   2.676   6.311
 7754TIP3    H223140   1.268   2.789   6.411
 7755TIP3   OH223141   2.025   1.049   6.445
 7755TIP3    H123142   1.935   1.032   6.417
 7755TIP3    H223143   2.069   0.964   6.439
 7756TIP3   OH223144   0.303   2.521   6.419
 7756TIP3    H123145   0.215   2.556   6.408
 7756TIP3    H223146   0.324   2.536   6.511
 7757TIP3   OH223147   0.519   2.575   6.244
 7757TIP3    H123148   0.436   2.568   6.290
 7757TIP3    H223149   0.495   2.595   6.153
 7758TIP3   OH223150   0.925   2.593   6.037
 7758TIP3    H123151   0.859   2.605   5.969
 7758TIP3    H223152   0.937   2.680   6.075
 7759TIP3   OH223153   1.187   2.527   6.086
 7759TIP3    H123154   1.096   2.548   6.065
 7759TIP3    H223155   1.238   2.593   6.039
 7760TIP3   OH223156   1.386   2.690   5.980
 7760TIP3    H123157   1.393   2.779   5.945
 7760TIP3    H223158   1.417   2.634   5.910
 7761TIP3   OH223159   0.179   2.369   6.088
 7761TIP3    H123160   0.180   2.339   6.179
 7761TIP3    H223161   0.255   2.328   6.048
 7762TIP3   OH223162   0.400   2.255   5.975
 7762TIP3    H123163   0.412   2.174   6.024
 7762TIP3    H223164   0.486   2.297   5.976
 7763TIP3   OH223165   0.670   2.338   5.990
 7763TIP3    H123166   0.689   2.246   5.973
 7763TIP3    H223167   0.724   2.360   6.066
 7764TIP3   OH223168   1.262   1.002   6.049
 7764TIP3    H123169   1.195   0.933   6.045
 7764TIP3    H223170   1.332   0.970   5.993
 7765TIP3   OH223171   1.731   0.910   5.973
 7765TIP3    H123172   1.769   0.958   5.899
 7765TIP3    H223173   1.637   0.923   5.964
 7766TIP3   OH223174   1.848   0.983   5.738
 7766TIP3    H123175   1.918   0.923   5.712
 7766TIP3    H223176   1.885   1.070   5.723
 7767TIP3   OH223177   1.459   0.871   5.912
 7767TIP3    H123178   1.477   0.835   5.826
 7767TIP3    H223179   1.442   0.795   5.968
 7768TIP3   OH223180   1.512   0.823   5.555
 7768TIP3    H123181   1.432   0.871   5.576
 7768TIP3    H223182   1.500   0.737   5.596
 7769TIP3   OH223183   9.727   2.134   5.462
 7769TIP3    H123184   9.652   2.094   5.417
 7769TIP3    H223185   9.723   2.227   5.439
 7770TIP3   OH223186   0.888   0.933   5.614
 7770TIP3    H123187   0.958   0.900   5.670
 7770TIP3    H223188   0.885   1.027   5.632
 7771TIP3   OH223189   0.761   2.320   5.085
 7771TIP3    H123190   0.845   2.346   5.048
 7771TIP3    H223191   0.730   2.249   5.029
 7772TIP3   OH223192   1.460   2.455   5.188
 7772TIP3    H123193   1.453   2.360   5.181
 7772TIP3    H223194   1.419   2.487   5.107
 7773TIP3   OH223195   0.084   2.174   5.160
 7773TIP3    H123196   0.077   2.153   5.253
 7773TIP3    H223197   0.160   2.125   5.130
 7774TIP3   OH223198   1.773   1.078   6.874
 7774TIP3    H123199   1.786   1.039   6.961
 7774TIP3    H223200   1.859   1.070   6.832
 7775TIP3   OH223201   1.677   2.594   6.376
 7775TIP3    H123202   1.602   2.566   6.323
 7775TIP3    H223203   1.667   2.689   6.383
 7776TIP3   OH223204   2.970   1.984   5.113
 7776TIP3    H123205   2.931   2.070   5.100
 7776TIP3    H223206   2.901   1.922   5.087
 7777TIP3   OH223207   2.949   1.972   5.537
 7777TIP3    H123208   3.007   1.958   5.612
 7777TIP3    H223209   2.908   1.888   5.523
 7778TIP3   OH223210   2.252   1.834   5.879
 7778TIP3    H123211   2.292   1.782   5.948
 7778TIP3    H223212   2.325   1.859   5.822
 7779TIP3   OH223213   3.215   2.285   5.208
 7779TIP3    H123214   3.212   2.217   5.275
 7779TIP3    H223215   3.240   2.365   5.256
 7780TIP3   OH223216   2.248   2.257   5.553
 7780TIP3    H123217   2.229   2.164   5.562
 7780TIP3    H223218   2.344   2.262   5.550
 7781TIP3   OH223219   1.930   1.474   5.354
 7781TIP3    H123220   1.893   1.559   5.377
 7781TIP3    H223221   1.858   1.427   5.312
 7782TIP3   OH223222   2.014   1.783   5.575
 7782TIP3    H123223   2.064   1.705   5.599
 7782TIP3    H223224   2.081   1.847   5.551
 7783TIP3   OH223225   2.888   2.707   5.233
 7783TIP3    H123226   2.914   2.643   5.166
 7783TIP3    H223227   2.899   2.660   5.316
 7784TIP3   OH223228   2.766   2.193   5.544
 7784TIP3    H123229   2.813   2.113   5.520
 7784TIP3    H223230   2.834   2.252   5.575
 7785TIP3   OH223231   3.796   1.514   5.555
 7785TIP3    H123232   3.811   1.599   5.595
 7785TIP3    H223233   3.829   1.523   5.466
 7786TIP3   OH223234   3.165   1.681   5.574
 7786TIP3    H123235   3.198   1.596   5.604
 7786TIP3    H223236   3.131   1.665   5.487
 7787TIP3   OH223237   2.524   1.339   5.532
 7787TIP3    H123238   2.503   1.413   5.475
 7787TIP3    H223239   2.469   1.268   5.499
 7788TIP3   OH223240   3.223   1.442   5.173
 7788TIP3    H123241   3.286   1.437   5.245
 7788TIP3    H223242   3.275   1.474   5.099
 7789TIP3   OH223243   2.150   1.558   5.666
 7789TIP3    H123244   2.234   1.539   5.708
 7789TIP3    H223245   2.151   1.506   5.586
 7790TIP3   OH223246   2.566   1.757   5.480
 7790TIP3    H123247   2.660   1.741   5.487
 7790TIP3    H223248   2.530   1.675   5.447
 7791TIP3   OH223249   3.849   1.735   5.718
 7791TIP3    H123250   3.762   1.774   5.715
 7791TIP3    H223251   3.889   1.771   5.798
 7792TIP3   OH223252   2.505   1.354   5.993
 7792TIP3    H123253   2.458   1.387   5.916
 7792TIP3    H223254   2.447   1.371   6.066
 7793TIP3   OH223255   2.825   2.195   4.999
 7793TIP3    H123256   2.748   2.142   4.977
 7793TIP3    H223257   2.791   2.285   5.004
 7794TIP3   OH223258   2.598   2.118   5.753
 7794TIP3    H123259   2.546   2.191   5.785
 7794TIP3    H223260   2.650   2.155   5.682
 7795TIP3   OH223261   3.375   1.469   5.398
 7795TIP3    H123262   3.333   1.448   5.482
 7795TIP3    H223263   3.432   1.543   5.418
 7796TIP3   OH223264   2.400   1.451   5.755
 7796TIP3    H123265   2.454   1.527   5.776
 7796TIP3    H223266   2.445   1.409   5.682
 7797TIP3   OH223267   2.443   2.325   5.854
 7797TIP3    H123268   2.432   2.416   5.825
 7797TIP3    H223269   2.366   2.307   5.907
 7798TIP3   OH223270   1.826   2.034   5.111
 7798TIP3    H123271   1.788   2.054   5.025
 7798TIP3    H223272   1.848   2.120   5.147
 7799TIP3   OH223273   3.252   2.532   5.349
 7799TIP3    H123274   3.164   2.524   5.386
 7799TIP3    H223275   3.253   2.616   5.303
 7800TIP3   OH223276   3.605   1.397   5.727
 7800TIP3    H123277   3.520   1.423   5.693
 7800TIP3    H223278   3.667   1.425   5.659
 7801TIP3   OH223279   2.847   1.037   5.722
 7801TIP3    H123280   2.840   0.945   5.748
 7801TIP3    H223281   2.770   1.078   5.761
 7802TIP3   OH223282   2.970   2.558   5.014
 7802TIP3    H123283   3.019   2.477   4.999
 7802TIP3    H223284   3.029   2.627   4.983
 7803TIP3   OH223285   3.087   2.317   4.966
 7803TIP3    H123286   3.013   2.256   4.974
 7803TIP3    H223287   3.141   2.298   5.043
 7804TIP3   OH223288   3.488   2.422   5.690
 7804TIP3    H123289   3.473   2.346   5.634
 7804TIP3    H223290   3.474   2.497   5.633
 7805TIP3   OH223291   2.793   1.824   4.967
 7805TIP3    H123292   2.711   1.866   4.944
 7805TIP3    H223293   2.841   1.817   4.884
 7806TIP3   OH223294   2.768   1.615   4.660
 7806TIP3    H123295   2.835   1.660   4.711
 7806TIP3    H223296   2.815   1.546   4.612
 7807TIP3   OH223297   3.673   2.079   5.562
 7807TIP3    H123298   3.589   2.125   5.561
 7807TIP3    H223299   3.708   2.092   5.474
 7808TIP3   OH223300   3.151   1.915   4.919
 7808TIP3    H123301   3.098   1.944   4.993
 7808TIP3    H223302   3.234   1.887   4.957
 7809TIP3   OH223303   3.373   1.938   5.870
 7809TIP3    H123304   3.372   2.023   5.915
 7809TIP3    H223305   3.292   1.937   5.820
 7810TIP3   OH223306   2.375   1.891   5.319
 7810TIP3    H123307   2.340   1.830   5.254
 7810TIP3    H223308   2.445   1.842   5.362
 7811TIP3   OH223309   2.514   2.309   5.469
 7811TIP3    H123310   2.493   2.296   5.377
 7811TIP3    H223311   2.601   2.271   5.480
 7812TIP3   OH223312   2.463   1.885   5.702
 7812TIP3    H123313   2.503   1.849   5.623
 7812TIP3    H223314   2.512   1.966   5.719
 7813TIP3   OH223315   3.010   2.524   5.475
 7813TIP3    H123316   3.000   2.605   5.525
 7813TIP3    H223317   2.997   2.454   5.539
 7814TIP3   OH223318   2.641   2.419   6.027
 7814TIP3    H123319   2.580   2.474   6.075
 7814TIP3    H223320   2.586   2.369   5.966
 7815TIP3   OH223321   2.977   1.773   4.758
 7815TIP3    H123322   3.040   1.830   4.804
 7815TIP3    H223323   3.000   1.782   4.666
 7816TIP3   OH223324   2.392   1.953   6.194
 7816TIP3    H123325   2.402   2.048   6.201
 7816TIP3    H223326   2.298   1.939   6.181
 7817TIP3   OH223327   2.719   2.449   4.993
 7817TIP3    H123328   2.802   2.494   5.012
 7817TIP3    H223329   2.662   2.519   4.960
 7818TIP3   OH223330   2.428   2.571   6.117
 7818TIP3    H123331   2.403   2.586   6.026
 7818TIP3    H223332   2.345   2.561   6.164
 7819TIP3   OH223333   3.458   0.995   4.794
 7819TIP3    H123334   3.389   1.019   4.856
 7819TIP3    H223335   3.471   1.074   4.741
 7820TIP3   OH223336   2.253   1.734   5.115
 7820TIP3    H123337   2.172   1.780   5.091
 7820TIP3    H223338   2.225   1.643   5.129
 7821TIP3   OH223339   3.308   2.371   4.378
 7821TIP3    H123340   3.302   2.464   4.356
 7821TIP3    H223341   3.397   2.346   4.353
 7822TIP3   OH223342   2.028   2.137   6.063
 7822TIP3    H123343   1.958   2.121   6.000
 7822TIP3    H223344   2.062   2.050   6.084
 7823TIP3   OH223345   1.869   2.337   5.722
 7823TIP3    H123346   1.958   2.364   5.741
 7823TIP3    H223347   1.815   2.412   5.746
 7824TIP3   OH223348   3.721   2.774   5.764
 7824TIP3    H123349   3.725   2.679   5.780
 7824TIP3    H223350   3.642   2.803   5.810
 7825TIP3   OH223351   2.828   2.569   5.892
 7825TIP3    H123352   2.819   2.660   5.921
 7825TIP3    H223353   2.761   2.521   5.940
 7826TIP3   OH223354   2.615   2.668   4.846
 7826TIP3    H123355   2.577   2.658   4.759
 7826TIP3    H223356   2.579   2.751   4.878
 7827TIP3   OH223357   2.048   2.520   5.216
 7827TIP3    H123358   2.092   2.513   5.301
 7827TIP3    H223359   1.999   2.439   5.207
 7828TIP3   OH223360   2.811   2.600   4.472
 7828TIP3    H123361   2.862   2.527   4.435
 7828TIP3    H223362   2.848   2.614   4.559
 7829TIP3   OH223363   2.868   2.643   4.739
 7829TIP3    H123364   2.786   2.646   4.787
 7829TIP3    H223365   2.934   2.618   4.804
 7830TIP3   OH223366   3.615   1.896   6.033
 7830TIP3    H123367   3.532   1.906   5.986
 7830TIP3    H223368   3.634   1.802   6.027
 7831TIP3   OH223369   2.227   2.325   6.027
 7831TIP3    H123370   2.277   2.313   6.107
 7831TIP3    H223371   2.154   2.264   6.034
 7832TIP3   OH223372   2.610   1.133   5.849
 7832TIP3    H123373   2.526   1.100   5.817
 7832TIP3    H223374   2.588   1.215   5.892
 7833TIP3   OH223375   3.150   1.255   6.048
 7833TIP3    H123376   3.222   1.229   6.106
 7833TIP3    H223377   3.071   1.236   6.098
 7834TIP3   OH223378   3.370   1.668   5.940
 7834TIP3    H123379   3.340   1.666   6.031
 7834TIP3    H223380   3.361   1.759   5.914
 7835TIP3   OH223381   3.036   1.772   4.491
 7835TIP3    H123382   3.006   1.750   4.403
 7835TIP3    H223383   3.121   1.815   4.477
 7836TIP3   OH223384   2.762   1.172   4.816
 7836TIP3    H123385   2.723   1.178   4.903
 7836TIP3    H223386   2.725   1.091   4.779
 7837TIP3   OH223387   2.546   1.665   5.852
 7837TIP3    H123388   2.502   1.673   5.937
 7837TIP3    H223389   2.525   1.747   5.807
 7838TIP3   OH223390   2.426   1.542   5.375
 7838TIP3    H123391   2.337   1.517   5.401
 7838TIP3    H223392   2.434   1.509   5.286
 7839TIP3   OH223393   2.906   1.612   5.102
 7839TIP3    H123394   2.862   1.687   5.063
 7839TIP3    H223395   2.966   1.581   5.034
 7840TIP3   OH223396   3.100   1.891   6.158
 7840TIP3    H123397   3.078   1.822   6.221
 7840TIP3    H223398   3.191   1.913   6.178
 7841TIP3   OH223399   3.074   1.626   5.323
 7841TIP3    H123400   3.006   1.644   5.259
 7841TIP3    H223401   3.124   1.554   5.285
 7842TIP3   OH223402   2.387   1.684   6.076
 7842TIP3    H123403   2.390   1.754   6.141
 7842TIP3    H223404   2.363   1.606   6.127
 7843TIP3   OH223405   2.432   1.155   4.793
 7843TIP3    H123406   2.419   1.156   4.887
 7843TIP3    H223407   2.355   1.200   4.757
 7844TIP3   OH223408   1.975   1.205   5.658
 7844TIP3    H123409   2.052   1.239   5.704
 7844TIP3    H223410   2.008   1.182   5.571
 7845TIP3   OH223411   1.903   1.200   5.169
 7845TIP3    H123412   1.942   1.228   5.087
 7845TIP3    H223413   1.833   1.263   5.186
 7846TIP3   OH223414   3.124   1.887   5.745
 7846TIP3    H123415   3.147   1.820   5.681
 7846TIP3    H223416   3.078   1.839   5.814
 7847TIP3   OH223417   2.795   1.327   5.424
 7847TIP3    H123418   2.717   1.326   5.480
 7847TIP3    H223419   2.868   1.317   5.485
 7848TIP3   OH223420   2.187   1.416   5.435
 7848TIP3    H123421   2.100   1.423   5.397
 7848TIP3    H223422   2.215   1.327   5.416
 7849TIP3   OH223423   2.440   1.422   5.129
 7849TIP3    H123424   2.535   1.430   5.121
 7849TIP3    H223425   2.406   1.441   5.041
 7850TIP3   OH223426   3.229   1.418   5.633
 7850TIP3    H123427   3.208   1.435   5.725
 7850TIP3    H223428   3.163   1.355   5.605
 7851TIP3   OH223429   2.336   1.453   4.878
 7851TIP3    H123430   2.272   1.403   4.827
 7851TIP3    H223431   2.393   1.493   4.812
 7852TIP3   OH223432   3.439   3.125   5.853
 7852TIP3    H123433   3.438   3.142   5.759
 7852TIP3    H223434   3.519   3.169   5.884
 7853TIP3   OH223435   2.376   2.226   6.264
 7853TIP3    H123436   2.455   2.254   6.309
 7853TIP3    H223437   2.305   2.241   6.327
 7854TIP3   OH223438   2.839   1.702   5.533
 7854TIP3    H123439   2.907   1.655   5.484
 7854TIP3    H223440   2.837   1.659   5.619
 7855TIP3   OH223441   2.331   1.170   5.412
 7855TIP3    H123442   2.306   1.094   5.465
 7855TIP3    H223443   2.346   1.133   5.325
 7856TIP3   OH223444   2.811   1.602   5.798
 7856TIP3    H123445   2.724   1.636   5.821
 7856TIP3    H223446   2.872   1.657   5.848
 7857TIP3   OH223447   2.560   1.964   4.904
 7857TIP3    H123448   2.488   1.905   4.882
 7857TIP3    H223449   2.534   2.005   4.986
 7858TIP3   OH223450   3.437   2.216   5.513
 7858TIP3    H123451   3.476   2.264   5.440
 7858TIP3    H223452   3.359   2.174   5.476
 7859TIP3   OH223453   3.013   1.277   4.821
 7859TIP3    H123454   2.920   1.254   4.817
 7859TIP3    H223455   3.014   1.372   4.833
 7860TIP3   OH223456   2.954   2.304   5.933
 7860TIP3    H123457   3.010   2.295   6.010
 7860TIP3    H223458   2.917   2.391   5.940
 7861TIP3   OH223459   3.073   1.542   4.888
 7861TIP3    H123460   3.168   1.540   4.900
 7861TIP3    H223461   3.056   1.620   4.835
 7862TIP3   OH223462   2.236   1.965   5.548
 7862TIP3    H123463   2.275   1.950   5.462
 7862TIP3    H223464   2.303   1.938   5.610
 7863TIP3   OH223465   2.608   2.077   4.659
 7863TIP3    H123466   2.592   2.171   4.666
 7863TIP3    H223467   2.601   2.044   4.749
 7864TIP3   OH223468   2.117   1.896   6.193
 7864TIP3    H123469   2.113   1.867   6.284
 7864TIP3    H223470   2.041   1.856   6.151
 7865TIP3   OH223471   2.866   2.035   6.236
 7865TIP3    H123472   2.798   1.974   6.205
 7865TIP3    H223473   2.947   2.002   6.197
 7866TIP3   OH223474   3.099   2.592   5.816
 7866TIP3    H123475   3.004   2.579   5.819
 7866TIP3    H223476   3.121   2.626   5.902
 7867TIP3   OH223477   3.478   1.625   4.700
 7867TIP3    H123478   3.422   1.580   4.637
 7867TIP3    H223479   3.485   1.714   4.665
 7868TIP3   OH223480   3.734   2.490   5.787
 7868TIP3    H123481   3.639   2.479   5.775
 7868TIP3    H223482   3.771   2.467   5.702
 7869TIP3   OH223483   3.217   2.444   4.639
 7869TIP3    H123484   3.200   2.373   4.700
 7869TIP3    H223485   3.246   2.400   4.559
 7870TIP3   OH223486   3.211   2.080   5.404
 7870TIP3    H123487   3.121   2.060   5.431
 7870TIP3    H223488   3.244   1.998   5.368
 7871TIP3   OH223489   2.367   2.313   5.225
 7871TIP3    H123490   2.359   2.389   5.167
 7871TIP3    H223491   2.282   2.306   5.267
 7872TIP3   OH223492   1.928   1.598   4.944
 7872TIP3    H123493   1.970   1.682   4.966
 7872TIP3    H223494   1.845   1.599   4.991
 7873TIP3   OH223495   2.468   2.076   5.131
 7873TIP3    H123496   2.441   2.163   5.159
 7873TIP3    H223497   2.437   2.017   5.200
 7874TIP3   OH223498   2.648   2.638   5.682
 7874TIP3    H123499   2.682   2.712   5.633
 7874TIP3    H223500   2.722   2.607   5.734
 7875TIP3   OH223501   2.285   2.533   5.072
 7875TIP3    H123502   2.197   2.540   5.110
 7875TIP3    H223503   2.321   2.621   5.079
 7876TIP3   OH223504   2.994   2.308   5.658
 7876TIP3    H123505   2.977   2.304   5.752
 7876TIP3    H223506   3.080   2.266   5.648
 7877TIP3   OH223507   2.986   2.180   4.536
 7877TIP3    H123508   3.055   2.149   4.595
 7877TIP3    H223509   2.907   2.180   4.590
 7878TIP3   OH223510   3.251   2.796   5.695
 7878TIP3    H123511   3.182   2.733   5.717
 7878TIP3    H223512   3.214   2.848   5.624
 7879TIP3   OH223513   3.303   2.644   4.333
 7879TIP3    H123514   3.333   2.707   4.268
 7879TIP3    H223515   3.230   2.687   4.376
 7880TIP3   OH223516   2.322   1.421   6.200
 7880TIP3    H123517   2.230   1.446   6.197
 7880TIP3    H223518   2.323   1.335   6.241
 7881TIP3   OH223519   3.180   2.090   4.704
 7881TIP3    H123520   3.163   2.039   4.783
 7881TIP3    H223521   3.275   2.099   4.701
 7882TIP3   OH223522   2.075   2.538   5.841
 7882TIP3    H123523   2.129   2.482   5.897
 7882TIP3    H223524   2.087   2.626   5.876
 7883TIP3   OH223525   2.259   2.173   4.824
 7883TIP3    H123526   2.332   2.141   4.877
 7883TIP3    H223527   2.272   2.267   4.818
 7884TIP3   OH223528   2.019   1.851   5.022
 7884TIP3    H123529   1.956   1.900   5.074
 7884TIP3    H223530   2.034   1.905   4.945
 7885TIP3   OH223531   3.169   1.484   5.895
 7885TIP3    H123532   3.251   1.528   5.919
 7885TIP3    H223533   3.166   1.408   5.953
 7886TIP3   OH223534   3.072   1.225   5.087
 7886TIP3    H123535   3.052   1.244   4.995
 7886TIP3    H223536   3.117   1.303   5.119
 7887TIP3   OH223537   2.553   2.339   4.701
 7887TIP3    H123538   2.470   2.365   4.743
 7887TIP3    H223539   2.607   2.418   4.704
 7888TIP3   OH223540   2.718   1.425   5.176
 7888TIP3    H123541   2.781   1.492   5.149
 7888TIP3    H223542   2.743   1.402   5.265
 7889TIP3   OH223543   3.017   1.723   5.940
 7889TIP3    H123544   3.048   1.768   6.019
 7889TIP3    H223545   3.067   1.642   5.938
 7890TIP3   OH223546   2.886   1.117   5.260
 7890TIP3    H123547   2.863   1.194   5.312
 7890TIP3    H223548   2.956   1.147   5.202
 7891TIP3   OH223549   2.322   2.439   4.816
 7891TIP3    H123550   2.294   2.512   4.761
 7891TIP3    H223551   2.311   2.471   4.906
 7892TIP3   OH223552   2.398   1.148   5.073
 7892TIP3    H123553   2.387   1.240   5.100
 7892TIP3    H223554   2.493   1.133   5.078
 7893TIP3   OH223555   3.639   1.626   5.939
 7893TIP3    H123556   3.543   1.628   5.942
 7893TIP3    H223557   3.660   1.576   5.861
 7894TIP3   OH223558   3.299   1.820   5.320
 7894TIP3    H123559   3.223   1.762   5.332
 7894TIP3    H223560   3.367   1.782   5.376
 7895TIP3   OH223561   2.037   2.017   4.800
 7895TIP3    H123562   2.105   2.083   4.813
 7895TIP3    H223563   2.072   1.958   4.734
 7896TIP3   OH223564   1.949   1.322   4.929
 7896TIP3    H123565   1.957   1.417   4.936
 7896TIP3    H223566   1.884   1.308   4.860
 7897TIP3   OH223567   3.278   2.796   5.261
 7897TIP3    H123568   3.239   2.848   5.191
 7897TIP3    H223569   3.372   2.808   5.250
 7898TIP3   OH223570   2.350   1.044   5.808
 7898TIP3    H123571   2.323   1.013   5.721
 7898TIP3    H223572   2.341   0.967   5.864
 7899TIP3   OH223573   1.869   2.302   5.195
 7899TIP3    H123574   1.827   2.338   5.274
 7899TIP3    H223575   1.824   2.345   5.122
 7900TIP3   OH223576   2.077   2.837   6.268
 7900TIP3    H123577   2.158   2.845   6.318
 7900TIP3    H223578   2.065   2.743   6.257
 7901TIP3   OH223579   2.537   2.739   6.308
 7901TIP3    H123580   2.628   2.712   6.319
 7901TIP3    H223581   2.504   2.683   6.238
 7902TIP3   OH223582   3.155   2.682   6.068
 7902TIP3    H123583   3.170   2.613   6.132
 7902TIP3    H223584   3.229   2.743   6.080
 7903TIP3   OH223585   2.942   2.390   4.355
 7903TIP3    H123586   2.982   2.329   4.416
 7903TIP3    H223587   2.998   2.387   4.277
 7904TIP3   OH223588   2.168   2.235   6.451
 7904TIP3    H123589   2.186   2.142   6.468
 7904TIP3    H223590   2.080   2.235   6.412
 7905TIP3   OH223591   2.167   1.842   4.635
 7905TIP3    H123592   2.226   1.818   4.707
 7905TIP3    H223593   2.224   1.869   4.564
 7906TIP3   OH223594   2.798   2.320   6.233
 7906TIP3    H123595   2.757   2.337   6.148
 7906TIP3    H223596   2.836   2.232   6.224
 7907TIP3   OH223597   3.264   2.364   5.842
 7907TIP3    H123598   3.343   2.391   5.795
 7907TIP3    H223599   3.203   2.437   5.830
 7908TIP3   OH223600   2.278   1.979   6.470
 7908TIP3    H123601   2.348   1.973   6.404
 7908TIP3    H223602   2.324   1.992   6.553
 7909TIP3   OH223603   2.356   1.785   4.849
 7909TIP3    H123604   2.325   1.755   4.934
 7909TIP3    H223605   2.395   1.707   4.809
 7910TIP3   OH223606   2.663   1.850   6.152
 7910TIP3    H123607   2.575   1.888   6.163
 7910TIP3    H223608   2.689   1.876   6.064
 7911TIP3   OH223609   2.492   1.589   4.695
 7911TIP3    H123610   2.467   1.573   4.604
 7911TIP3    H223611   2.587   1.591   4.694
 7912TIP3   OH223612   3.144   2.233   6.206
 7912TIP3    H123613   3.214   2.193   6.155
 7912TIP3    H223614   3.136   2.177   6.283
 7913TIP3   OH223615   3.266   1.890   4.389
 7913TIP3    H123616   3.259   1.848   4.303
 7913TIP3    H223617   3.241   1.981   4.374
 7914TIP3   OH223618   2.770   1.614   6.265
 7914TIP3    H123619   2.775   1.553   6.191
 7914TIP3    H223620   2.735   1.695   6.227
 7915TIP3   OH223621   2.765   1.438   6.037
 7915TIP3    H123622   2.795   1.475   5.954
 7915TIP3    H223623   2.675   1.412   6.020
 7916TIP3   OH223624   2.751   1.953   5.916
 7916TIP3    H123625   2.841   1.980   5.899
 7916TIP3    H223626   2.698   2.013   5.862
 7917TIP3   OH223627   3.358   1.937   6.273
 7917TIP3    H123628   3.415   1.860   6.268
 7917TIP3    H223629   3.418   2.011   6.271
 7918TIP3   OH223630   3.393   2.186   6.003
 7918TIP3    H123631   3.338   2.247   5.955
 7918TIP3    H223632   3.482   2.203   5.972
 7919TIP3   OH223633   2.885   1.202   6.132
 7919TIP3    H123634   2.846   1.283   6.099
 7919TIP3    H223635   2.819   1.135   6.116
 7920TIP3   OH223636   3.039   1.685   6.325
 7920TIP3    H123637   3.064   1.679   6.417
 7920TIP3    H223638   2.947   1.659   6.322
 7921TIP3   OH223639   3.280   1.637   6.190
 7921TIP3    H123640   3.201   1.640   6.243
 7921TIP3    H223641   3.350   1.614   6.252
 7922TIP3   OH223642   3.494   1.591   6.361
 7922TIP3    H123643   3.509   1.496   6.368
 7922TIP3    H223644   3.482   1.619   6.451
 7923TIP3   OH223645   2.510   1.520   6.478
 7923TIP3    H123646   2.541   1.528   6.388
 7923TIP3    H223647   2.497   1.425   6.490
 7924TIP3   OH223648   2.952   1.164   6.396
 7924TIP3    H123649   3.020   1.097   6.389
 7924TIP3    H223650   2.922   1.176   6.306
 7925TIP3   OH223651   3.017   1.398   6.518
 7925TIP3    H123652   3.014   1.310   6.481
 7925TIP3    H223653   2.946   1.445   6.474
 7926TIP3   OH223654   2.293   2.657   4.650
 7926TIP3    H123655   2.388   2.661   4.634
 7926TIP3    H223656   2.255   2.696   4.571
 7927TIP3   OH223657   1.765   2.029   4.814
 7927TIP3    H123658   1.861   2.035   4.815
 7927TIP3    H223659   1.747   1.942   4.779
 7928TIP3   OH223660   1.670   2.605   5.283
 7928TIP3    H123661   1.604   2.552   5.238
 7928TIP3    H223662   1.714   2.545   5.342
 7929TIP3   OH223663   1.816   2.438   5.449
 7929TIP3    H123664   1.808   2.369   5.515
 7929TIP3    H223665   1.869   2.506   5.490
 7930TIP3   OH223666   3.550   2.844   5.260
 7930TIP3    H123667   3.569   2.870   5.350
 7930TIP3    H223668   3.604   2.903   5.207
 7931TIP3   OH223669   3.566   2.879   5.540
 7931TIP3    H123670   3.519   2.796   5.536
 7931TIP3    H223671   3.637   2.863   5.603
 7932TIP3   OH223672   3.627   2.576   6.112
 7932TIP3    H123673   3.554   2.586   6.173
 7932TIP3    H223674   3.674   2.659   6.117
 7933TIP3   OH223675   3.457   2.095   4.715
 7933TIP3    H123676   3.513   2.166   4.686
 7933TIP3    H223677   3.501   2.057   4.790
 7934TIP3   OH223678   3.581   1.953   4.919
 7934TIP3    H123679   3.515   1.915   4.977
 7934TIP3    H223680   3.647   1.989   4.978
 7935TIP3   OH223681   3.619   2.354   5.354
 7935TIP3    H123682   3.673   2.286   5.313
 7935TIP3    H223683   3.624   2.428   5.293
 7936TIP3   OH223684   3.423   2.641   5.540
 7936TIP3    H123685   3.357   2.686   5.593
 7936TIP3    H223686   3.374   2.601   5.469
 7937TIP3   OH223687   3.476   1.865   4.565
 7937TIP3    H123688   3.402   1.868   4.504
 7937TIP3    H223689   3.467   1.945   4.617
 7938TIP3   OH223690   3.323   1.514   4.503
 7938TIP3    H123691   3.280   1.548   4.424
 7938TIP3    H223692   3.320   1.419   4.493
 7939TIP3   OH223693   3.374   1.812   5.052
 7939TIP3    H123694   3.380   1.717   5.039
 7939TIP3    H223695   3.354   1.822   5.145
 7940TIP3   OH223696   1.988   1.871   5.831
 7940TIP3    H123697   1.979   1.842   5.740
 7940TIP3    H223698   2.082   1.868   5.848
 7941TIP3   OH223699   3.654   2.232   5.917
 7941TIP3    H123700   3.719   2.164   5.900
 7941TIP3    H223701   3.681   2.305   5.861
 7942TIP3   OH223702   3.826   2.017   5.906
 7942TIP3    H123703   3.753   1.976   5.953
 7942TIP3    H223704   3.901   1.960   5.926
 7943TIP3   OH223705   3.290   1.243   4.463
 7943TIP3    H123706   3.358   1.219   4.526
 7943TIP3    H223707   3.209   1.205   4.499
 7944TIP3   OH223708   3.363   1.529   4.941
 7944TIP3    H123709   3.411   1.447   4.955
 7944TIP3    H223710   3.403   1.567   4.863
 7945TIP3   OH223711   3.514   1.703   5.465
 7945TIP3    H123712   3.594   1.720   5.415
 7945TIP3    H223713   3.529   1.743   5.550
 7946TIP3   OH223714   3.590   1.850   5.693
 7946TIP3    H123715   3.519   1.879   5.750
 7946TIP3    H223716   3.622   1.930   5.651
 7947TIP3   OH223717   2.221   1.567   6.489
 7947TIP3    H123718   2.314   1.549   6.475
 7947TIP3    H223719   2.184   1.482   6.515
 7948TIP3   OH223720   4.050   1.447   6.232
 7948TIP3    H123721   4.116   1.391   6.191
 7948TIP3    H223722   4.013   1.498   6.160
 7949TIP3   OH223723   3.483   1.282   4.999
 7949TIP3    H123724   3.529   1.264   5.081
 7949TIP3    H223725   3.421   1.209   4.990
 7950TIP3   OH223726   2.191   1.270   5.824
 7950TIP3    H123727   2.242   1.190   5.828
 7950TIP3    H223728   2.254   1.339   5.802
 7951TIP3   OH223729   1.966   1.536   5.882
 7951TIP3    H123730   2.018   1.522   5.802
 7951TIP3    H223731   1.984   1.627   5.907
 7952TIP3   OH223732   3.900   1.564   6.036
 7952TIP3    H123733   3.818   1.604   6.065
 7952TIP3    H223734   3.873   1.489   5.983
 7953TIP3   OH223735   3.511   1.204   4.625
 7953TIP3    H123736   3.558   1.142   4.569
 7953TIP3    H223737   3.571   1.278   4.634
 7954TIP3   OH223738   1.967   1.063   5.398
 7954TIP3    H123739   1.880   1.042   5.429
 7954TIP3    H223740   1.953   1.119   5.321
 7955TIP3   OH223741   3.101   2.762   4.898
 7955TIP3    H123742   3.160   2.754   4.823
 7955TIP3    H223743   3.140   2.831   4.952
 7956TIP3   OH223744   2.189   1.135   6.229
 7956TIP3    H123745   2.132   1.110   6.301
 7956TIP3    H223746   2.129   1.170   6.162
 7957TIP3   OH223747   2.201   2.552   6.283
 7957TIP3    H123748   2.107   2.532   6.275
 7957TIP3    H223749   2.218   2.545   6.377
 7958TIP3   OH223750   2.419   2.602   5.832
 7958TIP3    H123751   2.369   2.678   5.801
 7958TIP3    H223752   2.504   2.611   5.789
 7959TIP3   OH223753   2.813   2.836   5.968
 7959TIP3    H123754   2.849   2.828   6.056
 7959TIP3    H223755   2.876   2.890   5.921
 7960TIP3   OH223756   3.008   2.990   5.846
 7960TIP3    H123757   3.073   2.937   5.800
 7960TIP3    H223758   3.060   3.051   5.899
 7961TIP3   OH223759   3.809   1.319   5.927
 7961TIP3    H123760   3.727   1.321   5.877
 7961TIP3    H223761   3.841   1.229   5.918
 7962TIP3   OH223762   2.079   2.832   5.881
 7962TIP3    H123763   1.988   2.849   5.857
 7962TIP3    H223764   2.101   2.900   5.945
 7963TIP3   OH223765   2.309   2.834   5.729
 7963TIP3    H123766   2.227   2.836   5.776
 7963TIP3    H223767   2.286   2.858   5.639
 7964TIP3   OH223768   2.719   2.852   5.522
 7964TIP3    H123769   2.646   2.865   5.461
 7964TIP3    H223770   2.730   2.937   5.564
 7965TIP3   OH223771   2.981   2.782   5.565
 7965TIP3    H123772   2.890   2.806   5.547
 7965TIP3    H223773   3.033   2.850   5.522
 7966TIP3   OH223774   3.181   2.951   5.467
 7966TIP3    H123775   3.187   3.039   5.432
 7966TIP3    H223776   3.213   2.895   5.397
 7967TIP3   OH223777   1.989   2.617   5.588
 7967TIP3    H123778   2.013   2.595   5.678
 7967TIP3    H223779   2.062   2.584   5.535
 7968TIP3   OH223780   2.195   2.503   5.450
 7968TIP3    H123781   2.205   2.418   5.492
 7968TIP3    H223782   2.281   2.544   5.457
 7969TIP3   OH223783   2.462   2.586   5.480
 7969TIP3    H123784   2.482   2.494   5.465
 7969TIP3    H223785   2.516   2.612   5.554
 7970TIP3   OH223786   3.023   1.231   5.561
 7970TIP3    H123787   2.984   1.161   5.612
 7970TIP3    H223788   3.091   1.188   5.509
 7971TIP3   OH223789   3.525   1.156   5.459
 7971TIP3    H123790   3.565   1.201   5.385
 7971TIP3    H223791   3.434   1.184   5.458
 7972TIP3   OH223792   3.643   1.222   5.221
 7972TIP3    H123793   3.711   1.158   5.201
 7972TIP3    H223794   3.685   1.307   5.204
 7973TIP3   OH223795   2.269   0.946   5.563
 7973TIP3    H123796   2.181   0.913   5.577
 7973TIP3    H223797   2.323   0.867   5.555
 7974TIP3   OH223798   2.108   0.864   5.244
 7974TIP3    H123799   2.118   0.902   5.157
 7974TIP3    H223800   2.068   0.933   5.296
 7975TIP3   OH223801   2.745   0.977   5.461
 7975TIP3    H123802   2.792   1.023   5.392
 7975TIP3    H223803   2.786   1.007   5.542
 7976TIP3   OH223804   3.235   1.104   5.434
 7976TIP3    H123805   3.268   1.072   5.350
 7976TIP3    H223806   3.245   1.030   5.494
 7977TIP3   OH223807   3.291   1.077   4.999
 7977TIP3    H123808   3.212   1.123   5.027
 7977TIP3    H223809   3.284   0.990   5.038
 7978TIP3   OH223810   1.749   2.421   4.977
 7978TIP3    H123811   1.666   2.388   4.944
 7978TIP3    H223812   1.753   2.512   4.948
 7979TIP3   OH223813   2.192   0.981   4.986
 7979TIP3    H123814   2.236   0.920   4.927
 7979TIP3    H223815   2.262   1.036   5.020
 7980TIP3   OH223816   2.673   1.173   5.078
 7980TIP3    H123817   2.732   1.120   5.131
 7980TIP3    H223818   2.688   1.263   5.108
 7981TIP3   OH223819   2.557   2.615   4.577
 7981TIP3    H123820   2.644   2.626   4.540
 7981TIP3    H223821   2.511   2.560   4.513
 7982TIP3   OH223822   3.256   2.714   4.672
 7982TIP3    H123823   3.247   2.619   4.664
 7982TIP3    H223824   3.215   2.748   4.592
 7983TIP3   OH223825   2.492   1.227   6.464
 7983TIP3    H123826   2.454   1.157   6.517
 7983TIP3    H223827   2.583   1.232   6.492
 7984TIP3   OH223828   2.739   1.249   6.587
 7984TIP3    H123829   2.813   1.214   6.538
 7984TIP3    H223830   2.723   1.184   6.655
 7985TIP3   OH223831   1.838   2.422   4.649
 7985TIP3    H123832   1.837   2.433   4.744
 7985TIP3    H223833   1.921   2.377   4.631
 7986TIP3   OH223834   3.557   1.319   6.357
 7986TIP3    H123835   3.574   1.289   6.446
 7986TIP3    H223836   3.642   1.315   6.313
 7987TIP3   OH223837   3.473   2.851   5.859
 7987TIP3    H123838   3.398   2.822   5.806
 7987TIP3    H223839   3.461   2.946   5.867
 7988TIP3   OH223840   4.752   2.244   4.595
 7988TIP3    H123841   4.720   2.330   4.567
 7988TIP3    H223842   4.683   2.183   4.571
 7989TIP3   OH223843   4.751   2.233   5.026
 7989TIP3    H123844   4.809   2.212   5.100
 7989TIP3    H223845   4.707   2.150   5.007
 7990TIP3   OH223846   4.046   2.086   5.368
 7990TIP3    H123847   4.087   2.036   5.439
 7990TIP3    H223848   4.119   2.111   5.312
 7991TIP3   OH223849   5.021   2.542   4.697
 7991TIP3    H123850   5.010   2.473   4.762
 7991TIP3    H223851   5.041   2.621   4.748
 7992TIP3   OH223852   4.044   2.512   5.039
 7992TIP3    H123853   4.025   2.419   5.049
 7992TIP3    H223854   4.140   2.517   5.036
 7993TIP3   OH223855   3.721   1.723   4.832
 7993TIP3    H123856   3.684   1.807   4.858
 7993TIP3    H223857   3.647   1.675   4.795
 7994TIP3   OH223858   3.807   2.040   5.062
 7994TIP3    H123859   3.857   1.962   5.087
 7994TIP3    H223860   3.874   2.105   5.040
 7995TIP3   OH223861   4.687   2.959   4.715
 7995TIP3    H123862   4.708   2.897   4.645
 7995TIP3    H223863   4.699   2.909   4.796
 7996TIP3   OH223864   4.561   2.452   5.027
 7996TIP3    H123865   4.608   2.372   5.003
 7996TIP3    H223866   4.629   2.511   5.058
 7997TIP3   OH223867   5.595   1.766   5.049
 7997TIP3    H123868   5.607   1.855   5.084
 7997TIP3    H223869   5.625   1.771   4.959
 7998TIP3   OH223870   4.982   1.933   5.066
 7998TIP3    H123871   5.041   1.861   5.089
 7998TIP3    H223872   4.941   1.905   4.984
 7999TIP3   OH223873   4.309   1.596   5.024
 7999TIP3    H123874   4.291   1.669   4.964
 7999TIP3    H223875   4.253   1.525   4.993
 8000TIP3   OH223876   5.008   1.703   4.655
 8000TIP3    H123877   5.077   1.698   4.722
 8000TIP3    H223878   5.053   1.735   4.577
 8001TIP3   OH223879   3.942   1.814   5.150
 8001TIP3    H123880   4.025   1.797   5.193
 8001TIP3    H223881   3.946   1.763   5.069
 8002TIP3   OH223882   4.363   2.013   4.969
 8002TIP3    H123883   4.457   1.999   4.974
 8002TIP3    H223884   4.328   1.930   4.935
 8003TIP3   OH223885   5.647   1.999   5.204
 8003TIP3    H123886   5.557   2.029   5.198
 8003TIP3    H223887   5.678   2.031   5.289
 8004TIP3   OH223888   4.306   1.604   5.469
 8004TIP3    H123889   4.253   1.639   5.398
 8004TIP3    H223890   4.251   1.612   5.547
 8005TIP3   OH223891   4.650   2.461   4.455
 8005TIP3    H123892   4.611   2.429   4.374
 8005TIP3    H223893   4.596   2.536   4.480
 8006TIP3   OH223894   4.389   2.379   5.231
 8006TIP3    H123895   4.338   2.452   5.266
 8006TIP3    H223896   4.441   2.416   5.160
 8007TIP3   OH223897   5.206   1.728   4.838
 8007TIP3    H123898   5.278   1.671   4.811
 8007TIP3    H223899   5.249   1.801   4.882
 8008TIP3   OH223900   4.187   1.712   5.244
 8008TIP3    H123901   4.243   1.786   5.266
 8008TIP3    H223902   4.233   1.667   5.173
 8009TIP3   OH223903   4.238   2.584   5.340
 8009TIP3    H123904   4.226   2.675   5.312
 8009TIP3    H223905   4.161   2.565   5.393
 8010TIP3   OH223906   3.621   2.288   4.599
 8010TIP3    H123907   3.589   2.309   4.511
 8010TIP3    H223908   3.644   2.373   4.637
 8011TIP3   OH223909   5.052   2.789   4.841
 8011TIP3    H123910   4.963   2.781   4.877
 8011TIP3    H223911   5.052   2.872   4.794
 8012TIP3   OH223912   5.387   1.670   5.224
 8012TIP3    H123913   5.298   1.684   5.191
 8012TIP3    H223914   5.443   1.689   5.148
 8013TIP3   OH223915   4.641   1.287   5.212
 8013TIP3    H123916   4.631   1.195   5.237
 8013TIP3    H223917   4.563   1.330   5.246
 8014TIP3   OH223918   4.762   2.818   4.487
 8014TIP3    H123919   4.816   2.739   4.478
 8014TIP3    H223920   4.820   2.889   4.460
 8015TIP3   OH223921   4.903   2.589   4.451
 8015TIP3    H123922   4.831   2.526   4.449
 8015TIP3    H223923   4.953   2.565   4.529
 8016TIP3   OH223924   5.297   2.669   5.180
 8016TIP3    H123925   5.273   2.596   5.123
 8016TIP3    H223926   5.282   2.747   5.128
 8017TIP3   OH223927   4.580   2.078   4.451
 8017TIP3    H123928   4.496   2.119   4.430
 8017TIP3    H223929   4.627   2.075   4.368
 8018TIP3   OH223930   4.543   1.893   4.132
 8018TIP3    H123931   4.608   1.941   4.184
 8018TIP3    H223932   4.593   1.824   4.089
 8019TIP3   OH223933   5.466   2.341   5.046
 8019TIP3    H123934   5.380   2.383   5.042
 8019TIP3    H223935   5.501   2.350   4.957
 8020TIP3   OH223936   4.937   2.170   4.407
 8020TIP3    H123937   4.883   2.199   4.481
 8020TIP3    H223938   5.019   2.142   4.447
 8021TIP3   OH223939   5.167   2.194   5.361
 8021TIP3    H123940   5.159   2.278   5.408
 8021TIP3    H223941   5.087   2.189   5.308
 8022TIP3   OH223942   4.168   2.145   4.810
 8022TIP3    H123943   4.134   2.083   4.747
 8022TIP3    H223944   4.241   2.099   4.852
 8023TIP3   OH223945   4.310   2.568   4.955
 8023TIP3    H123946   4.288   2.555   4.863
 8023TIP3    H223947   4.397   2.530   4.965
 8024TIP3   OH223948   4.256   2.142   5.190
 8024TIP3    H123949   4.297   2.104   5.112
 8024TIP3    H223950   4.305   2.223   5.205
 8025TIP3   OH223951   4.808   2.785   4.963
 8025TIP3    H123952   4.798   2.865   5.015
 8025TIP3    H223953   4.795   2.714   5.026
 8026TIP3   OH223954   4.437   2.678   5.512
 8026TIP3    H123955   4.375   2.733   5.560
 8026TIP3    H223956   4.382   2.627   5.452
 8027TIP3   OH223957   4.765   2.032   4.241
 8027TIP3    H123958   4.826   2.088   4.288
 8027TIP3    H223959   4.796   2.033   4.151
 8028TIP3   OH223960   4.190   2.226   5.663
 8028TIP3    H123961   4.193   2.320   5.678
 8028TIP3    H223962   4.097   2.206   5.653
 8029TIP3   OH223963   4.513   2.700   4.492
 8029TIP3    H123964   4.596   2.747   4.500
 8029TIP3    H223965   4.455   2.762   4.446
 8030TIP3   OH223966   4.224   2.832   5.600
 8030TIP3    H123967   4.200   2.846   5.509
 8030TIP3    H223968   4.140   2.821   5.646
 8031TIP3   OH223969   5.277   1.252   4.295
 8031TIP3    H123970   5.205   1.273   4.355
 8031TIP3    H223971   5.288   1.330   4.241
 8032TIP3   OH223972   4.042   1.985   4.612
 8032TIP3    H123973   3.962   2.029   4.585
 8032TIP3    H223974   4.015   1.895   4.630
 8033TIP3   OH223975   5.106   2.629   3.861
 8033TIP3    H123976   5.098   2.721   3.839
 8033TIP3    H223977   5.195   2.605   3.835
 8034TIP3   OH223978   3.823   2.398   5.547
 8034TIP3    H123979   3.753   2.377   5.485
 8034TIP3    H223980   3.857   2.312   5.573
 8035TIP3   OH223981   3.665   2.591   5.205
 8035TIP3    H123982   3.755   2.616   5.226
 8035TIP3    H223983   3.613   2.667   5.232
 8036TIP3   OH223984   5.524   3.053   5.249
 8036TIP3    H123985   5.531   2.958   5.257
 8036TIP3    H223986   5.445   3.076   5.297
 8037TIP3   OH223987   4.626   2.825   5.377
 8037TIP3    H123988   4.616   2.916   5.407
 8037TIP3    H223989   4.559   2.777   5.425
 8038TIP3   OH223990   4.405   2.918   4.327
 8038TIP3    H123991   4.361   2.899   4.245
 8038TIP3    H223992   4.367   3.002   4.356
 8039TIP3   OH223993   3.841   2.778   4.708
 8039TIP3    H123994   3.887   2.770   4.791
 8039TIP3    H223995   3.794   2.695   4.698
 8040TIP3   OH223996   4.606   2.857   3.952
 8040TIP3    H123997   4.655   2.783   3.917
 8040TIP3    H223998   4.641   2.871   4.040
 8041TIP3   OH223999   4.659   2.898   4.222
 8041TIP3    H124000   4.573   2.901   4.264
 8041TIP3    H224001   4.717   2.860   4.288
 8042TIP3   OH224002   5.412   2.143   5.508
 8042TIP3    H124003   5.328   2.157   5.463
 8042TIP3    H224004   5.429   2.049   5.498
 8043TIP3   OH224005   4.022   2.586   5.512
 8043TIP3    H124006   4.073   2.573   5.592
 8043TIP3    H224007   3.949   2.524   5.520
 8044TIP3   OH224008   4.404   1.383   5.327
 8044TIP3    H124009   4.318   1.352   5.298
 8044TIP3    H224010   4.385   1.464   5.375
 8045TIP3   OH224011   4.944   1.511   5.532
 8045TIP3    H124012   5.014   1.486   5.592
 8045TIP3    H224013   4.864   1.494   5.581
 8046TIP3   OH224014   5.160   1.928   5.454
 8046TIP3    H124015   5.125   1.928   5.544
 8046TIP3    H224016   5.148   2.018   5.424
 8047TIP3   OH224017   4.847   2.003   3.980
 8047TIP3    H124018   4.801   2.007   3.896
 8047TIP3    H224019   4.929   2.049   3.965
 8048TIP3   OH224020   4.551   1.429   4.301
 8048TIP3    H124021   4.517   1.436   4.390
 8048TIP3    H224022   4.517   1.346   4.268
 8049TIP3   OH224023   4.342   1.922   5.338
 8049TIP3    H124024   4.298   1.928   5.423
 8049TIP3    H224025   4.320   2.004   5.294
 8050TIP3   OH224026   4.220   1.798   4.859
 8050TIP3    H124027   4.131   1.774   4.884
 8050TIP3    H224028   4.230   1.766   4.770
 8051TIP3   OH224029   4.700   1.873   4.591
 8051TIP3    H124030   4.655   1.947   4.550
 8051TIP3    H224031   4.759   1.840   4.523
 8052TIP3   OH224032   4.882   2.137   5.658
 8052TIP3    H124033   4.859   2.069   5.721
 8052TIP3    H224034   4.974   2.157   5.677
 8053TIP3   OH224035   4.867   1.881   4.818
 8053TIP3    H124036   4.799   1.902   4.754
 8053TIP3    H224037   4.916   1.809   4.778
 8054TIP3   OH224038   4.183   1.935   5.562
 8054TIP3    H124039   4.200   1.995   5.634
 8054TIP3    H224040   4.166   1.851   5.605
 8055TIP3   OH224041   4.220   1.405   4.277
 8055TIP3    H124042   4.212   1.408   4.373
 8055TIP3    H224043   4.142   1.450   4.245
 8056TIP3   OH224044   3.781   1.440   5.142
 8056TIP3    H124045   3.845   1.483   5.199
 8056TIP3    H224046   3.829   1.423   5.061
 8057TIP3   OH224047   3.671   1.431   4.648
 8057TIP3    H124048   3.718   1.466   4.572
 8057TIP3    H224049   3.607   1.498   4.671
 8058TIP3   OH224050   4.921   2.138   5.232
 8058TIP3    H124051   4.948   2.070   5.170
 8058TIP3    H224052   4.873   2.092   5.300
 8059TIP3   OH224053   4.573   1.591   4.906
 8059TIP3    H124054   4.497   1.588   4.964
 8059TIP3    H224055   4.647   1.568   4.962
 8060TIP3   OH224056   3.980   1.674   4.917
 8060TIP3    H124057   3.893   1.678   4.879
 8060TIP3    H224058   4.009   1.584   4.904
 8061TIP3   OH224059   4.231   1.677   4.612
 8061TIP3    H124060   4.326   1.686   4.605
 8061TIP3    H224061   4.198   1.693   4.523
 8062TIP3   OH224062   5.107   1.695   5.156
 8062TIP3    H124063   5.042   1.702   5.226
 8062TIP3    H224064   5.072   1.628   5.097
 8063TIP3   OH224065   4.126   1.701   4.359
 8063TIP3    H124066   4.063   1.650   4.307
 8063TIP3    H224067   4.179   1.746   4.293
 8064TIP3   OH224068   5.234   3.385   5.340
 8064TIP3    H124069   5.233   3.400   5.245
 8064TIP3    H224070   5.313   3.431   5.370
 8065TIP3   OH224071   4.172   2.495   5.747
 8065TIP3    H124072   4.253   2.514   5.794
 8065TIP3    H224073   4.103   2.505   5.812
 8066TIP3   OH224074   4.639   1.964   5.015
 8066TIP3    H124075   4.706   1.917   4.966
 8066TIP3    H224076   4.635   1.920   5.100
 8067TIP3   OH224077   4.113   1.424   4.910
 8067TIP3    H124078   4.084   1.351   4.964
 8067TIP3    H224079   4.141   1.383   4.828
 8068TIP3   OH224080   4.606   1.864   5.277
 8068TIP3    H124081   4.519   1.894   5.302
 8068TIP3    H224082   4.665   1.918   5.330
 8069TIP3   OH224083   4.340   2.207   4.391
 8069TIP3    H124084   4.265   2.154   4.365
 8069TIP3    H224085   4.311   2.251   4.471
 8070TIP3   OH224086   5.229   2.473   4.999
 8070TIP3    H124087   5.265   2.521   4.925
 8070TIP3    H224088   5.152   2.429   4.963
 8071TIP3   OH224089   4.805   1.533   4.305
 8071TIP3    H124090   4.712   1.512   4.301
 8071TIP3    H224091   4.808   1.628   4.318
 8072TIP3   OH224092   4.757   2.559   5.417
 8072TIP3    H124093   4.808   2.544   5.496
 8072TIP3    H224094   4.718   2.645   5.429
 8073TIP3   OH224095   4.859   1.799   4.371
 8073TIP3    H124096   4.955   1.802   4.381
 8073TIP3    H224097   4.838   1.877   4.320
 8074TIP3   OH224098   4.029   2.221   5.038
 8074TIP3    H124099   4.068   2.205   4.952
 8074TIP3    H224100   4.096   2.195   5.101
 8075TIP3   OH224101   4.494   2.371   4.237
 8075TIP3    H124102   4.445   2.453   4.234
 8075TIP3    H224103   4.439   2.313   4.289
 8076TIP3   OH224104   3.913   2.166   5.680
 8076TIP3    H124105   3.919   2.139   5.772
 8076TIP3    H224106   3.838   2.117   5.645
 8077TIP3   OH224107   4.655   2.297   5.700
 8077TIP3    H124108   4.585   2.237   5.674
 8077TIP3    H224109   4.736   2.254   5.671
 8078TIP3   OH224110   4.897   2.849   5.303
 8078TIP3    H124111   4.802   2.834   5.305
 8078TIP3    H224112   4.918   2.882   5.390
 8079TIP3   OH224113   5.281   1.880   4.185
 8079TIP3    H124114   5.228   1.831   4.121
 8079TIP3    H224115   5.286   1.969   4.150
 8080TIP3   OH224116   5.540   2.776   5.263
 8080TIP3    H124117   5.448   2.750   5.266
 8080TIP3    H224118   5.572   2.738   5.181
 8081TIP3   OH224119   5.023   2.701   4.127
 8081TIP3    H124120   4.997   2.631   4.187
 8081TIP3    H224121   5.044   2.654   4.045
 8082TIP3   OH224122   5.005   2.335   4.893
 8082TIP3    H124123   4.915   2.313   4.919
 8082TIP3    H224124   5.039   2.253   4.856
 8083TIP3   OH224125   4.163   2.573   4.714
 8083TIP3    H124126   4.157   2.648   4.655
 8083TIP3    H224127   4.078   2.570   4.757
 8084TIP3   OH224128   3.711   1.855   4.422
 8084TIP3    H124129   3.757   1.935   4.447
 8084TIP3    H224130   3.632   1.854   4.475
 8085TIP3   OH224131   4.231   2.329   4.607
 8085TIP3    H124132   4.219   2.417   4.641
 8085TIP3    H224133   4.211   2.272   4.681
 8086TIP3   OH224134   4.444   2.895   5.169
 8086TIP3    H124135   4.479   2.969   5.119
 8086TIP3    H224136   4.518   2.863   5.220
 8087TIP3   OH224137   4.076   2.794   4.563
 8087TIP3    H124138   3.989   2.802   4.603
 8087TIP3    H224139   4.113   2.883   4.569
 8088TIP3   OH224140   4.790   2.566   5.141
 8088TIP3    H124141   4.778   2.562   5.236
 8088TIP3    H224142   4.865   2.508   5.124
 8089TIP3   OH224143   4.785   2.439   4.011
 8089TIP3    H124144   4.838   2.412   4.086
 8089TIP3    H224145   4.703   2.392   4.022
 8090TIP3   OH224146   5.051   3.051   5.182
 8090TIP3    H124147   4.983   2.988   5.206
 8090TIP3    H224148   5.012   3.103   5.112
 8091TIP3   OH224149   5.093   2.901   3.812
 8091TIP3    H124150   5.098   2.955   3.733
 8091TIP3    H224151   5.026   2.943   3.866
 8092TIP3   OH224152   4.128   1.681   5.675
 8092TIP3    H124153   4.033   1.687   5.679
 8092TIP3    H224154   4.151   1.623   5.748
 8093TIP3   OH224155   4.964   2.356   4.201
 8093TIP3    H124156   4.948   2.301   4.278
 8093TIP3    H224157   5.059   2.362   4.195
 8094TIP3   OH224158   3.871   2.793   5.329
 8094TIP3    H124159   3.924   2.735   5.384
 8094TIP3    H224160   3.885   2.880   5.365
 8095TIP3   OH224161   4.136   2.401   4.031
 8095TIP3    H124162   4.148   2.310   4.004
 8095TIP3    H224163   4.125   2.397   4.126
 8096TIP3   OH224164   4.078   2.416   4.304
 8096TIP3    H124165   4.137   2.391   4.375
 8096TIP3    H224166   4.078   2.512   4.307
 8097TIP3   OH224167   3.811   2.103   4.508
 8097TIP3    H124168   3.749   2.153   4.561
 8097TIP3    H224169   3.833   2.160   4.434
 8098TIP3   OH224170   4.959   1.748   5.391
 8098TIP3    H124171   5.041   1.789   5.417
 8098TIP3    H224172   4.955   1.667   5.443
 8099TIP3   OH224173   4.873   1.477   4.568
 8099TIP3    H124174   4.852   1.497   4.477
 8099TIP3    H224175   4.915   1.557   4.601
 8100TIP3   OH224176   4.346   2.598   4.229
 8100TIP3    H124177   4.262   2.623   4.269
 8100TIP3    H224178   4.372   2.674   4.178
 8101TIP3   OH224179   4.508   1.686   4.656
 8101TIP3    H124180   4.572   1.753   4.632
 8101TIP3    H224181   4.530   1.663   4.746
 8102TIP3   OH224182   4.808   1.983   5.429
 8102TIP3    H124183   4.833   2.024   5.512
 8102TIP3    H224184   4.856   1.900   5.427
 8103TIP3   OH224185   4.685   1.377   4.741
 8103TIP3    H124186   4.668   1.453   4.797
 8103TIP3    H224187   4.755   1.404   4.683
 8104TIP3   OH224188   4.098   2.690   4.311
 8104TIP3    H124189   4.080   2.762   4.251
 8104TIP3    H224190   4.090   2.728   4.398
 8105TIP3   OH224191   4.192   1.400   4.556
 8105TIP3    H124192   4.180   1.491   4.584
 8105TIP3    H224193   4.286   1.385   4.564
 8106TIP3   OH224194   5.423   1.870   5.421
 8106TIP3    H124195   5.329   1.880   5.437
 8106TIP3    H224196   5.429   1.807   5.349
 8107TIP3   OH224197   5.092   2.075   4.809
 8107TIP3    H124198   5.017   2.018   4.825
 8107TIP3    H224199   5.163   2.037   4.862
 8108TIP3   OH224200   3.836   2.280   4.291
 8108TIP3    H124201   3.907   2.343   4.302
 8108TIP3    H224202   3.868   2.219   4.225
 8109TIP3   OH224203   3.741   1.577   4.427
 8109TIP3    H124204   3.751   1.672   4.432
 8109TIP3    H224205   3.695   1.562   4.344
 8110TIP3   OH224206   5.074   3.053   4.752
 8110TIP3    H124207   5.033   3.106   4.684
 8110TIP3    H224208   5.168   3.066   4.738
 8111TIP3   OH224209   4.137   1.309   5.297
 8111TIP3    H124210   4.101   1.270   5.217
 8111TIP3    H224211   4.133   1.239   5.362
 8112TIP3   OH224212   3.666   2.555   4.687
 8112TIP3    H124213   3.628   2.592   4.767
 8112TIP3    H224214   3.620   2.599   4.616
 8113TIP3   OH224215   3.877   3.093   5.752
 8113TIP3    H124216   3.957   3.102   5.802
 8113TIP3    H224217   3.868   2.998   5.737
 8114TIP3   OH224218   4.336   2.993   5.795
 8114TIP3    H124219   4.426   2.964   5.804
 8114TIP3    H224220   4.300   2.940   5.724
 8115TIP3   OH224221   4.290   2.601   3.915
 8115TIP3    H124222   4.244   2.532   3.963
 8115TIP3    H224223   4.365   2.557   3.876
 8116TIP3   OH224224   4.952   2.940   5.555
 8116TIP3    H124225   4.968   2.870   5.618
 8116TIP3    H224226   5.025   3.000   5.567
 8117TIP3   OH224227   4.733   2.643   3.837
 8117TIP3    H124228   4.766   2.579   3.901
 8117TIP3    H224229   4.793   2.636   3.763
 8118TIP3   OH224230   3.967   2.495   5.937
 8118TIP3    H124231   3.989   2.402   5.950
 8118TIP3    H224232   3.879   2.494   5.900
 8119TIP3   OH224233   3.956   2.094   4.131
 8119TIP3    H124234   4.006   2.068   4.209
 8119TIP3    H224235   4.022   2.109   4.064
 8120TIP3   OH224236   4.591   2.573   5.717
 8120TIP3    H124237   4.547   2.595   5.634
 8120TIP3    H224238   4.626   2.485   5.703
 8121TIP3   OH224239   4.531   2.314   3.971
 8121TIP3    H124240   4.508   2.323   4.064
 8121TIP3    H224241   4.513   2.223   3.951
 8122TIP3   OH224242   5.068   2.625   5.335
 8122TIP3    H124243   5.146   2.651   5.285
 8122TIP3    H224244   5.004   2.694   5.318
 8123TIP3   OH224245   4.081   2.240   5.947
 8123TIP3    H124246   4.157   2.225   5.890
 8123TIP3    H224247   4.119   2.257   6.033
 8124TIP3   OH224248   4.128   2.034   4.343
 8124TIP3    H124249   4.111   2.004   4.432
 8124TIP3    H224250   4.177   1.962   4.302
 8125TIP3   OH224251   4.447   2.120   5.611
 8125TIP3    H124252   4.362   2.162   5.622
 8125TIP3    H224253   4.476   2.148   5.524
 8126TIP3   OH224254   4.270   1.855   4.181
 8126TIP3    H124255   4.242   1.859   4.090
 8126TIP3    H224256   4.365   1.865   4.178
 8127TIP3   OH224257   4.945   2.493   5.677
 8127TIP3    H124258   5.016   2.457   5.625
 8127TIP3    H224259   4.942   2.438   5.756
 8128TIP3   OH224260   5.064   2.140   3.873
 8128TIP3    H124261   5.052   2.100   3.787
 8128TIP3    H224262   5.040   2.232   3.861
 8129TIP3   OH224263   4.551   1.886   5.713
 8129TIP3    H124264   4.555   1.817   5.646
 8129TIP3    H224265   4.517   1.963   5.666
 8130TIP3   OH224266   4.563   1.691   5.507
 8130TIP3    H124267   4.592   1.727   5.423
 8130TIP3    H224268   4.473   1.663   5.492
 8131TIP3   OH224269   4.552   2.215   5.381
 8131TIP3    H124270   4.643   2.242   5.365
 8131TIP3    H224271   4.500   2.276   5.329
 8132TIP3   OH224272   5.149   2.183   5.752
 8132TIP3    H124273   5.182   2.093   5.749
 8132TIP3    H224274   5.228   2.238   5.747
 8133TIP3   OH224275   5.181   2.442   5.501
 8133TIP3    H124276   5.130   2.505   5.450
 8133TIP3    H224277   5.271   2.454   5.470
 8134TIP3   OH224278   4.439   1.968   5.957
 8134TIP3    H124279   4.368   1.906   5.977
 8134TIP3    H224280   4.467   1.945   5.868
 8135TIP3   OH224281   4.681   1.461   5.615
 8135TIP3    H124282   4.641   1.541   5.580
 8135TIP3    H224283   4.616   1.393   5.599
 8136TIP3   OH224284   4.807   1.925   5.818
 8136TIP3    H124285   4.794   1.912   5.912
 8136TIP3    H224286   4.722   1.904   5.779
 8137TIP3   OH224287   5.064   1.901   5.705
 8137TIP3    H124288   4.984   1.891   5.755
 8137TIP3    H224289   5.133   1.867   5.762
 8138TIP3   OH224290   5.298   1.847   5.846
 8138TIP3    H124291   5.309   1.752   5.851
 8138TIP3    H224292   5.292   1.876   5.937
 8139TIP3   OH224293   4.264   1.758   6.025
 8139TIP3    H124294   4.269   1.670   5.989
 8139TIP3    H224295   4.303   1.751   6.112
 8140TIP3   OH224296   4.744   1.432   5.880
 8140TIP3    H124297   4.814   1.368   5.871
 8140TIP3    H224298   4.714   1.447   5.790
 8141TIP3   OH224299   4.843   1.646   6.024
 8141TIP3    H124300   4.811   1.574   5.969
 8141TIP3    H224301   4.771   1.709   6.026
 8142TIP3   OH224302   4.098   2.901   4.131
 8142TIP3    H124303   4.187   2.880   4.102
 8142TIP3    H224304   4.059   2.947   4.056
 8143TIP3   OH224305   3.561   2.285   4.305
 8143TIP3    H124306   3.656   2.294   4.302
 8143TIP3    H224307   3.544   2.200   4.264
 8144TIP3   OH224308   3.466   2.861   4.770
 8144TIP3    H124309   3.402   2.808   4.724
 8144TIP3    H224310   3.511   2.800   4.829
 8145TIP3   OH224311   3.613   2.693   4.936
 8145TIP3    H124312   3.606   2.626   5.004
 8145TIP3    H224313   3.666   2.762   4.976
 8146TIP3   OH224314   5.346   3.103   4.746
 8146TIP3    H124315   5.364   3.128   4.837
 8146TIP3    H224316   5.402   3.159   4.694
 8147TIP3   OH224317   5.365   3.133   5.025
 8147TIP3    H124318   5.318   3.050   5.023
 8147TIP3    H224319   5.434   3.120   5.091
 8148TIP3   OH224320   5.431   2.840   5.598
 8148TIP3    H124321   5.357   2.848   5.658
 8148TIP3    H224322   5.474   2.925   5.602
 8149TIP3   OH224323   5.242   2.354   4.199
 8149TIP3    H124324   5.301   2.424   4.172
 8149TIP3    H224325   5.283   2.317   4.278
 8150TIP3   OH224326   5.357   2.215   4.409
 8150TIP3    H124327   5.290   2.171   4.462
 8150TIP3    H224328   5.423   2.241   4.473
 8151TIP3   OH224329   5.417   2.611   4.842
 8151TIP3    H124330   5.469   2.543   4.800
 8151TIP3    H224331   5.419   2.684   4.780
 8152TIP3   OH224332   5.225   2.892   5.034
 8152TIP3    H124333   5.159   2.938   5.086
 8152TIP3    H224334   5.176   2.852   4.963
 8153TIP3   OH224335   5.272   2.122   4.053
 8153TIP3    H124336   5.200   2.122   3.990
 8153TIP3    H224337   5.259   2.202   4.104
 8154TIP3   OH224338   5.130   1.766   3.983
 8154TIP3    H124339   5.081   1.801   3.908
 8154TIP3    H224340   5.124   1.671   3.974
 8155TIP3   OH224341   5.159   2.067   4.540
 8155TIP3    H124342   5.161   1.973   4.522
 8155TIP3    H224343   5.141   2.073   4.633
 8156TIP3   OH224344   3.784   2.133   5.318
 8156TIP3    H124345   3.775   2.100   5.229
 8156TIP3    H224346   3.878   2.126   5.337
 8157TIP3   OH224347   5.437   2.482   5.400
 8157TIP3    H124348   5.507   2.418   5.386
 8157TIP3    H224349   5.432   2.532   5.319
 8158TIP3   OH224350   5.623   2.276   5.395
 8158TIP3    H124351   5.548   2.231   5.435
 8158TIP3    H224352   5.698   2.221   5.417
 8159TIP3   OH224353   5.094   1.492   3.951
 8159TIP3    H124354   5.159   1.474   4.019
 8159TIP3    H224355   5.011   1.460   3.986
 8160TIP3   OH224356   5.142   1.802   4.419
 8160TIP3    H124357   5.183   1.717   4.437
 8160TIP3    H224358   5.189   1.836   4.343
 8161TIP3   OH224359   5.311   1.964   4.947
 8161TIP3    H124360   5.393   1.984   4.902
 8161TIP3    H224361   5.325   1.994   5.037
 8162TIP3   OH224362   5.388   2.109   5.180
 8162TIP3    H124363   5.314   2.136   5.234
 8162TIP3    H224364   5.415   2.189   5.135
 8163TIP3   OH224365   4.001   1.807   5.951
 8163TIP3    H124366   4.095   1.806   5.972
 8163TIP3    H224367   3.968   1.726   5.990
 8164TIP3   OH224368   5.847   1.701   5.716
 8164TIP3    H124369   5.913   1.647   5.673
 8164TIP3    H224370   5.808   1.752   5.646
 8165TIP3   OH224371   5.244   1.558   4.481
 8165TIP3    H124372   5.302   1.551   4.557
 8165TIP3    H224373   5.200   1.473   4.477
 8166TIP3   OH224374   3.976   1.532   5.320
 8166TIP3    H124375   4.030   1.453   5.323
 8166TIP3    H224376   4.037   1.602   5.299
 8167TIP3   OH224377   3.755   1.793   5.362
 8167TIP3    H124378   3.808   1.782   5.283
 8167TIP3    H224379   3.791   1.871   5.404
 8168TIP3   OH224380   5.694   1.826   5.528
 8168TIP3    H124381   5.620   1.866   5.574
 8168TIP3    H224382   5.654   1.763   5.469
 8169TIP3   OH224383   5.313   1.458   4.116
 8169TIP3    H124384   5.362   1.400   4.059
 8169TIP3    H224385   5.374   1.530   4.135
 8170TIP3   OH224386   3.741   1.278   4.864
 8170TIP3    H124387   3.658   1.277   4.911
 8170TIP3    H224388   3.727   1.340   4.792
 8171TIP3   OH224389   4.903   3.023   4.387
 8171TIP3    H124390   4.960   3.011   4.311
 8171TIP3    H224391   4.946   3.092   4.438
 8172TIP3   OH224392   3.980   1.374   5.708
 8172TIP3    H124393   3.926   1.357   5.785
 8172TIP3    H224394   3.920   1.413   5.644
 8173TIP3   OH224395   3.995   2.815   5.765
 8173TIP3    H124396   3.903   2.790   5.758
 8173TIP3    H224397   4.016   2.805   5.858
 8174TIP3   OH224398   4.215   2.861   5.318
 8174TIP3    H124399   4.166   2.937   5.287
 8174TIP3    H224400   4.300   2.869   5.274
 8175TIP3   OH224401   4.608   3.091   5.456
 8175TIP3    H124402   4.645   3.083   5.544
 8175TIP3    H224403   4.670   3.146   5.409
 8176TIP3   OH224404   4.800   3.247   5.332
 8176TIP3    H124405   4.861   3.193   5.283
 8176TIP3    H224406   4.855   3.305   5.384
 8177TIP3   OH224407   5.599   1.578   5.412
 8177TIP3    H124408   5.517   1.583   5.363
 8177TIP3    H224409   5.627   1.487   5.403
 8178TIP3   OH224410   3.875   3.091   5.366
 8178TIP3    H124411   3.784   3.108   5.343
 8178TIP3    H224412   3.897   3.159   5.430
 8179TIP3   OH224413   4.106   3.093   5.216
 8179TIP3    H124414   4.023   3.095   5.263
 8179TIP3    H224415   4.083   3.115   5.125
 8180TIP3   OH224416   4.517   3.109   5.008
 8180TIP3    H124417   4.444   3.120   4.947
 8180TIP3    H224418   4.526   3.195   5.049
 8181TIP3   OH224419   4.780   3.044   5.057
 8181TIP3    H124420   4.689   3.064   5.036
 8181TIP3    H224421   4.831   3.111   5.010
 8182TIP3   OH224422   4.981   3.212   4.957
 8182TIP3    H124423   4.983   3.300   4.918
 8182TIP3    H224424   5.012   3.154   4.887
 8183TIP3   OH224425   3.786   2.873   5.076
 8183TIP3    H124426   3.810   2.851   5.166
 8183TIP3    H224427   3.859   2.840   5.023
 8184TIP3   OH224428   3.992   2.759   4.938
 8184TIP3    H124429   4.002   2.674   4.979
 8184TIP3    H224430   4.078   2.800   4.945
 8185TIP3   OH224431   4.258   2.844   4.966
 8185TIP3    H124432   4.279   2.752   4.951
 8185TIP3    H224433   4.313   2.869   5.041
 8186TIP3   OH224434   4.782   1.469   5.031
 8186TIP3    H124435   4.761   1.403   5.097
 8186TIP3    H224436   4.871   1.447   5.003
 8187TIP3   OH224437   5.314   1.439   5.014
 8187TIP3    H124438   5.358   1.471   4.935
 8187TIP3    H224439   5.221   1.441   4.991
 8188TIP3   OH224440   4.035   1.205   5.060
 8188TIP3    H124441   3.952   1.158   5.070
 8188TIP3    H224442   4.100   1.135   5.056
 8189TIP3   OH224443   3.844   1.081   4.691
 8189TIP3    H124444   3.882   1.132   4.619
 8189TIP3    H224445   3.817   1.146   4.756
 8190TIP3   OH224446   4.546   1.239   4.944
 8190TIP3    H124447   4.594   1.288   4.877
 8190TIP3    H224448   4.585   1.268   5.027
 8191TIP3   OH224449   5.039   1.392   4.949
 8191TIP3    H124450   5.067   1.372   4.860
 8191TIP3    H224451   5.043   1.308   4.995
 8192TIP3   OH224452   5.089   1.325   4.482
 8192TIP3    H124453   5.012   1.373   4.510
 8192TIP3    H224454   5.081   1.239   4.524
 8193TIP3   OH224455   3.543   2.677   4.475
 8193TIP3    H124456   3.460   2.642   4.442
 8193TIP3    H224457   3.549   2.764   4.437
 8194TIP3   OH224458   3.980   1.226   4.469
 8194TIP3    H124459   4.027   1.163   4.414
 8194TIP3    H224460   4.049   1.283   4.505
 8195TIP3   OH224461   4.468   1.430   4.566
 8195TIP3    H124462   4.530   1.381   4.619
 8195TIP3    H224463   4.481   1.521   4.592
 8196TIP3   OH224464   4.353   2.825   4.059
 8196TIP3    H124465   4.436   2.853   4.020
 8196TIP3    H224466   4.323   2.753   4.003
 8197TIP3   OH224467   5.056   2.970   4.161
 8197TIP3    H124468   5.050   2.875   4.154
 8197TIP3    H224469   5.013   3.003   4.082
 8198TIP3   OH224470   4.284   1.492   5.944
 8198TIP3    H124471   4.249   1.420   5.997
 8198TIP3    H224472   4.376   1.496   5.968
 8199TIP3   OH224473   4.534   1.484   6.060
 8199TIP3    H124474   4.609   1.463   6.004
 8199TIP3    H224475   4.529   1.412   6.123
 8200TIP3   OH224476   3.670   2.674   4.119
 8200TIP3    H124477   3.674   2.684   4.214
 8200TIP3    H224478   3.749   2.624   4.096
 8201TIP3   OH224479   5.353   1.575   5.840
 8201TIP3    H124480   5.373   1.547   5.930
 8201TIP3    H224481   5.438   1.571   5.795
 8202TIP3   OH224482   5.272   3.111   5.345
 8202TIP3    H124483   5.197   3.081   5.293
 8202TIP3    H224484   5.258   3.206   5.354
 8203TIP3   OH224485   6.546   2.523   4.063
 8203TIP3    H124486   6.501   2.603   4.038
 8203TIP3    H224487   6.485   2.453   4.042
 8204TIP3   OH224488   6.553   2.487   4.509
 8204TIP3    H124489   6.606   2.466   4.586
 8204TIP3    H224490   6.506   2.406   4.489
 8205TIP3   OH224491   5.843   2.345   4.852
 8205TIP3    H124492   5.881   2.293   4.922
 8205TIP3    H224493   5.917   2.367   4.795
 8206TIP3   OH224494   5.848   2.788   4.536
 8206TIP3    H124495   5.828   2.695   4.543
 8206TIP3    H224496   5.943   2.792   4.533
 8207TIP3   OH224497   5.516   2.003   4.313
 8207TIP3    H124498   5.468   2.081   4.340
 8207TIP3    H224499   5.448   1.943   4.283
 8208TIP3   OH224500   5.589   2.276   4.553
 8208TIP3    H124501   5.638   2.198   4.581
 8208TIP3    H224502   5.653   2.329   4.505
 8209TIP3   OH224503   6.435   3.201   4.187
 8209TIP3    H124504   6.518   3.163   4.216
 8209TIP3    H224505   6.385   3.214   4.268
 8210TIP3   OH224506   6.360   2.708   4.509
 8210TIP3    H124507   6.403   2.626   4.485
 8210TIP3    H224508   6.431   2.761   4.546
 8211TIP3   OH224509   7.392   2.028   4.527
 8211TIP3    H124510   7.405   2.114   4.566
 8211TIP3    H224511   7.414   2.040   4.435
 8212TIP3   OH224512   6.764   2.199   4.546
 8212TIP3    H124513   6.793   2.113   4.576
 8212TIP3    H224514   6.727   2.183   4.460
 8213TIP3   OH224515   6.129   1.863   4.504
 8213TIP3    H124516   6.100   1.936   4.448
 8213TIP3    H224517   6.078   1.788   4.474
 8214TIP3   OH224518   6.821   1.953   4.149
 8214TIP3    H124519   6.884   1.945   4.220
 8214TIP3    H224520   6.871   1.988   4.076
 8215TIP3   OH224521   5.740   2.062   4.643
 8215TIP3    H124522   5.825   2.041   4.682
 8215TIP3    H224523   5.737   2.011   4.562
 8216TIP3   OH224524   6.156   2.268   4.455
 8216TIP3    H124525   6.250   2.252   4.458
 8216TIP3    H224526   6.118   2.187   4.421
 8217TIP3   OH224527   7.443   2.254   4.689
 8217TIP3    H124528   7.352   2.283   4.687
 8217TIP3    H224529   7.475   2.284   4.774
 8218TIP3   OH224530   6.097   1.859   4.960
 8218TIP3    H124531   6.047   1.891   4.885
 8218TIP3    H224532   6.039   1.876   5.035
 8219TIP3   OH224533   6.441   2.753   3.947
 8219TIP3    H124534   6.394   2.715   3.873
 8219TIP3    H224535   6.397   2.836   3.963
 8220TIP3   OH224536   6.189   2.635   4.717
 8220TIP3    H124537   6.135   2.706   4.752
 8220TIP3    H224538   6.237   2.675   4.644
 8221TIP3   OH224539   6.976   1.977   4.374
 8221TIP3    H124540   6.929   1.957   4.455
 8221TIP3    H224541   7.027   2.055   4.394
 8222TIP3   OH224542   5.991   1.962   4.726
 8222TIP3    H124543   6.045   2.037   4.749
 8222TIP3    H224544   6.037   1.920   4.654
 8223TIP3   OH224545   6.036   2.839   4.826
 8223TIP3    H124546   6.022   2.929   4.799
 8223TIP3    H224547   5.958   2.816   4.877
 8224TIP3   OH224548   5.414   2.545   4.083
 8224TIP3    H124549   5.378   2.563   3.996
 8224TIP3    H224550   5.436   2.631   4.118
 8225TIP3   OH224551   6.778   3.008   4.226
 8225TIP3    H124552   6.733   3.015   4.310
 8225TIP3    H224553   6.818   3.094   4.214
 8226TIP3   OH224554   7.183   1.931   4.692
 8226TIP3    H124555   7.100   1.945   4.648
 8226TIP3    H224556   7.250   1.954   4.627
 8227TIP3   OH224557   6.440   1.553   4.694
 8227TIP3    H124558   6.433   1.460   4.718
 8227TIP3    H224559   6.360   1.592   4.730
 8228TIP3   OH224560   6.709   2.789   3.962
 8228TIP3    H124561   6.614   2.777   3.949
 8228TIP3    H224562   6.748   2.760   3.880
 8229TIP3   OH224563   7.075   2.952   4.653
 8229TIP3    H124564   7.059   2.873   4.602
 8229TIP3    H224565   7.055   3.024   4.593
 8230TIP3   OH224566   6.377   2.343   3.935
 8230TIP3    H124567   6.292   2.380   3.912
 8230TIP3    H224568   6.418   2.324   3.851
 8231TIP3   OH224569   6.310   2.142   3.628
 8231TIP3    H124570   6.398   2.158   3.662
 8231TIP3    H224571   6.321   2.073   3.564
 8232TIP3   OH224572   7.264   2.594   4.537
 8232TIP3    H124573   7.180   2.639   4.537
 8232TIP3    H224574   7.296   2.604   4.448
 8233TIP3   OH224575   6.733   2.439   3.877
 8233TIP3    H124576   6.675   2.462   3.950
 8233TIP3    H224577   6.808   2.395   3.919
 8234TIP3   OH224578   6.966   2.451   4.847
 8234TIP3    H124579   6.962   2.535   4.893
 8234TIP3    H224580   6.885   2.447   4.797
 8235TIP3   OH224581   5.960   2.401   4.301
 8235TIP3    H124582   5.921   2.341   4.238
 8235TIP3    H224583   6.030   2.351   4.342
 8236TIP3   OH224584   6.112   2.834   4.439
 8236TIP3    H124585   6.080   2.813   4.352
 8236TIP3    H224586   6.196   2.788   4.446
 8237TIP3   OH224587   6.058   2.395   4.680
 8237TIP3    H124588   6.095   2.357   4.600
 8237TIP3    H224589   6.106   2.477   4.692
 8238TIP3   OH224590   6.636   3.019   4.452
 8238TIP3    H124591   6.612   3.102   4.491
 8238TIP3    H224592   6.617   2.953   4.519
 8239TIP3   OH224593   6.233   2.933   4.998
 8239TIP3    H124594   6.172   2.988   5.047
 8239TIP3    H224595   6.178   2.881   4.940
 8240TIP3   OH224596   6.547   2.291   3.719
 8240TIP3    H124597   6.617   2.335   3.767
 8240TIP3    H224598   6.579   2.285   3.629
 8241TIP3   OH224599   5.983   2.476   5.152
 8241TIP3    H124600   5.987   2.571   5.168
 8241TIP3    H224601   5.889   2.458   5.145
 8242TIP3   OH224602   6.348   3.009   3.994
 8242TIP3    H124603   6.369   3.077   4.058
 8242TIP3    H224604   6.285   3.051   3.935
 8243TIP3   OH224605   6.023   3.087   5.089
 8243TIP3    H124606   5.994   3.099   4.999
 8243TIP3    H224607   5.942   3.073   5.139
 8244TIP3   OH224608   7.073   1.510   3.793
 8244TIP3    H124609   6.993   1.534   3.842
 8244TIP3    H224610   7.090   1.587   3.738
 8245TIP3   OH224611   5.831   2.243   4.106
 8245TIP3    H124612   5.750   2.284   4.076
 8245TIP3    H224613   5.807   2.152   4.125
 8246TIP3   OH224614   6.907   2.894   3.345
 8246TIP3    H124615   6.900   2.986   3.319
 8246TIP3    H224616   6.996   2.869   3.322
 8247TIP3   OH224617   5.621   2.650   5.035
 8247TIP3    H124618   5.550   2.631   4.973
 8247TIP3    H224619   5.653   2.563   5.061
 8248TIP3   OH224620   5.458   2.850   4.694
 8248TIP3    H124621   5.546   2.877   4.720
 8248TIP3    H224622   5.402   2.924   4.718
 8249TIP3   OH224623   7.314   3.290   4.738
 8249TIP3    H124624   7.318   3.196   4.752
 8249TIP3    H224625   7.235   3.318   4.784
 8250TIP3   OH224626   6.416   3.084   4.860
 8250TIP3    H124627   6.409   3.174   4.892
 8250TIP3    H224628   6.350   3.036   4.909
 8251TIP3   OH224629   6.215   3.185   3.815
 8251TIP3    H124630   6.172   3.157   3.734
 8251TIP3    H224631   6.168   3.265   3.840
 8252TIP3   OH224632   5.636   3.034   4.191
 8252TIP3    H124633   5.678   3.026   4.276
 8252TIP3    H224634   5.585   2.954   4.182
 8253TIP3   OH224635   6.407   3.110   3.441
 8253TIP3    H124636   6.455   3.035   3.406
 8253TIP3    H224637   6.445   3.124   3.528
 8254TIP3   OH224638   6.471   3.163   3.707
 8254TIP3    H124639   6.388   3.156   3.755
 8254TIP3    H224640   6.538   3.158   3.774
 8255TIP3   OH224641   7.210   2.402   4.998
 8255TIP3    H124642   7.126   2.412   4.953
 8255TIP3    H224643   7.226   2.308   4.998
 8256TIP3   OH224644   5.818   2.839   4.998
 8256TIP3    H124645   5.868   2.828   5.078
 8256TIP3    H224646   5.747   2.775   5.005
 8257TIP3   OH224647   6.198   1.641   4.816
 8257TIP3    H124648   6.114   1.606   4.784
 8257TIP3    H224649   6.175   1.721   4.862
 8258TIP3   OH224650   6.738   1.773   5.021
 8258TIP3    H124651   6.807   1.744   5.081
 8258TIP3    H224652   6.656   1.755   5.067
 8259TIP3   OH224653   6.966   2.188   4.943
 8259TIP3    H124654   6.926   2.185   5.030
 8259TIP3    H224655   6.948   2.276   4.912
 8260TIP3   OH224656   6.647   2.255   3.464
 8260TIP3    H124657   6.596   2.252   3.384
 8260TIP3    H224658   6.726   2.304   3.441
 8261TIP3   OH224659   6.361   1.658   3.800
 8261TIP3    H124660   6.317   1.672   3.884
 8261TIP3    H224661   6.312   1.588   3.758
 8262TIP3   OH224662   6.140   2.174   4.828
 8262TIP3    H124663   6.093   2.179   4.911
 8262TIP3    H224664   6.117   2.255   4.782
 8263TIP3   OH224665   6.012   2.056   4.347
 8263TIP3    H124666   5.924   2.026   4.372
 8263TIP3    H224667   6.024   2.024   4.258
 8264TIP3   OH224668   6.495   2.144   4.084
 8264TIP3    H124669   6.445   2.213   4.041
 8264TIP3    H224670   6.563   2.120   4.021
 8265TIP3   OH224671   6.677   2.394   5.147
 8265TIP3    H124672   6.652   2.325   5.209
 8265TIP3    H224673   6.769   2.412   5.166
 8266TIP3   OH224674   6.675   2.144   4.293
 8266TIP3    H124675   6.603   2.162   4.233
 8266TIP3    H224676   6.721   2.069   4.255
 8267TIP3   OH224677   5.977   2.193   5.047
 8267TIP3    H124678   5.980   2.257   5.118
 8267TIP3    H224679   5.956   2.110   5.091
 8268TIP3   OH224680   5.983   1.633   3.774
 8268TIP3    H124681   5.981   1.660   3.865
 8268TIP3    H224682   5.921   1.691   3.730
 8269TIP3   OH224683   5.617   1.729   4.599
 8269TIP3    H124684   5.665   1.757   4.677
 8269TIP3    H224685   5.552   1.667   4.631
 8270TIP3   OH224686   5.480   1.678   4.158
 8270TIP3    H124687   5.521   1.717   4.081
 8270TIP3    H224688   5.414   1.743   4.184
 8271TIP3   OH224689   6.718   2.400   4.721
 8271TIP3    H124690   6.742   2.333   4.657
 8271TIP3    H224691   6.672   2.352   4.790
 8272TIP3   OH224692   6.393   1.847   4.396
 8272TIP3    H124693   6.312   1.848   4.447
 8272TIP3    H224694   6.462   1.835   4.460
 8273TIP3   OH224695   5.769   1.937   4.401
 8273TIP3    H124696   5.681   1.951   4.366
 8273TIP3    H224697   5.775   1.842   4.411
 8274TIP3   OH224698   6.034   1.943   4.099
 8274TIP3    H124699   6.129   1.946   4.086
 8274TIP3    H224700   5.998   1.951   4.010
 8275TIP3   OH224701   6.827   1.937   4.610
 8275TIP3    H124702   6.808   1.955   4.702
 8275TIP3    H224703   6.760   1.874   4.583
 8276TIP3   OH224704   5.916   1.947   3.851
 8276TIP3    H124705   5.852   1.897   3.800
 8276TIP3    H224706   5.963   1.999   3.786
 8277TIP3   OH224707   7.030   3.641   4.827
 8277TIP3    H124708   7.026   3.660   4.733
 8277TIP3    H224709   7.110   3.685   4.856
 8278TIP3   OH224710   5.973   2.747   5.233
 8278TIP3    H124711   6.052   2.767   5.283
 8278TIP3    H224712   5.902   2.758   5.297
 8279TIP3   OH224713   6.432   2.222   4.502
 8279TIP3    H124714   6.490   2.164   4.452
 8279TIP3    H224715   6.427   2.182   4.589
 8280TIP3   OH224716   5.953   1.687   4.389
 8280TIP3    H124717   5.912   1.619   4.443
 8280TIP3    H224718   5.949   1.653   4.300
 8281TIP3   OH224719   6.404   2.124   4.763
 8281TIP3    H124720   6.317   2.151   4.790
 8281TIP3    H224721   6.463   2.175   4.818
 8282TIP3   OH224722   6.133   2.473   3.880
 8282TIP3    H124723   6.059   2.417   3.858
 8282TIP3    H224724   6.110   2.512   3.965
 8283TIP3   OH224725   7.028   2.731   4.490
 8283TIP3    H124726   7.066   2.775   4.414
 8283TIP3    H224727   6.951   2.686   4.455
 8284TIP3   OH224728   6.593   1.797   3.768
 8284TIP3    H124729   6.508   1.753   3.773
 8284TIP3    H224730   6.581   1.865   3.702
 8285TIP3   OH224731   6.556   2.821   4.902
 8285TIP3    H124732   6.600   2.805   4.985
 8285TIP3    H224733   6.505   2.901   4.917
 8286TIP3   OH224734   6.687   2.092   3.896
 8286TIP3    H124735   6.779   2.067   3.886
 8286TIP3    H224736   6.652   2.089   3.807
 8287TIP3   OH224737   5.843   2.509   4.528
 8287TIP3    H124738   5.876   2.479   4.443
 8287TIP3    H224739   5.900   2.466   4.592
 8288TIP3   OH224740   6.297   2.635   3.734
 8288TIP3    H124741   6.247   2.717   3.729
 8288TIP3    H224742   6.240   2.575   3.781
 8289TIP3   OH224743   5.708   2.412   5.165
 8289TIP3    H124744   5.706   2.383   5.256
 8289TIP3    H224745   5.633   2.369   5.124
 8290TIP3   OH224746   6.451   2.555   5.189
 8290TIP3    H124747   6.380   2.497   5.165
 8290TIP3    H224748   6.530   2.510   5.160
 8291TIP3   OH224749   6.686   3.105   4.784
 8291TIP3    H124750   6.593   3.088   4.791
 8291TIP3    H224751   6.712   3.135   4.871
 8292TIP3   OH224752   7.080   2.139   3.668
 8292TIP3    H124753   7.024   2.093   3.606
 8292TIP3    H224754   7.082   2.230   3.636
 8293TIP3   OH224755   7.324   3.005   4.755
 8293TIP3    H124756   7.229   2.997   4.743
 8293TIP3    H224757   7.361   2.980   4.671
 8294TIP3   OH224758   6.817   2.932   3.606
 8294TIP3    H124759   6.787   2.848   3.641
 8294TIP3    H224760   6.844   2.912   3.517
 8295TIP3   OH224761   6.804   2.591   4.378
 8295TIP3    H124762   6.717   2.568   4.411
 8295TIP3    H224763   6.839   2.509   4.343
 8296TIP3   OH224764   5.953   2.826   4.207
 8296TIP3    H124765   5.943   2.900   4.147
 8296TIP3    H224766   5.866   2.813   4.245
 8297TIP3   OH224767   5.510   2.107   3.914
 8297TIP3    H124768   5.554   2.189   3.937
 8297TIP3    H224769   5.429   2.108   3.965
 8298TIP3   OH224770   6.047   2.585   4.111
 8298TIP3    H124771   6.022   2.672   4.141
 8298TIP3    H224772   6.018   2.526   4.180
 8299TIP3   OH224773   6.240   3.159   4.651
 8299TIP3    H124774   6.279   3.230   4.601
 8299TIP3    H224775   6.311   3.126   4.706
 8300TIP3   OH224776   5.873   3.046   4.053
 8300TIP3    H124777   5.785   3.054   4.089
 8300TIP3    H224778   5.909   3.134   4.058
 8301TIP3   OH224779   6.593   2.808   4.630
 8301TIP3    H124780   6.579   2.814   4.724
 8301TIP3    H224781   6.662   2.742   4.620
 8302TIP3   OH224782   6.597   2.694   3.498
 8302TIP3    H124783   6.636   2.676   3.584
 8302TIP3    H224784   6.516   2.644   3.498
 8303TIP3   OH224785   6.830   3.317   4.675
 8303TIP3    H124786   6.769   3.247   4.696
 8303TIP3    H224787   6.792   3.362   4.600
 8304TIP3   OH224788   6.891   3.163   3.296
 8304TIP3    H124789   6.889   3.213   3.214
 8304TIP3    H224790   6.830   3.209   3.353
 8305TIP3   OH224791   5.919   1.940   5.162
 8305TIP3    H124792   5.824   1.951   5.162
 8305TIP3    H224793   5.936   1.883   5.236
 8306TIP3   OH224794   6.775   2.662   3.722
 8306TIP3    H124795   6.749   2.582   3.766
 8306TIP3    H224796   6.867   2.649   3.700
 8307TIP3   OH224797   5.668   3.036   4.818
 8307TIP3    H124798   5.720   2.974   4.869
 8307TIP3    H224799   5.679   3.120   4.863
 8308TIP3   OH224800   5.936   2.647   3.509
 8308TIP3    H124801   5.946   2.556   3.482
 8308TIP3    H224802   5.919   2.642   3.603
 8309TIP3   OH224803   5.877   2.672   3.779
 8309TIP3    H124804   5.940   2.643   3.845
 8309TIP3    H224805   5.878   2.768   3.786
 8310TIP3   OH224806   5.605   2.360   3.994
 8310TIP3    H124807   5.541   2.410   4.045
 8310TIP3    H224808   5.627   2.416   3.920
 8311TIP3   OH224809   6.770   2.002   4.873
 8311TIP3    H124810   6.850   2.044   4.905
 8311TIP3    H224811   6.760   1.924   4.927
 8312TIP3   OH224812   6.655   1.752   4.040
 8312TIP3    H124813   6.631   1.775   3.951
 8312TIP3    H224814   6.701   1.829   4.074
 8313TIP3   OH224815   6.159   2.868   3.740
 8313TIP3    H124816   6.071   2.887   3.772
 8313TIP3    H224817   6.177   2.936   3.676
 8314TIP3   OH224818   6.316   1.939   4.143
 8314TIP3    H124819   6.376   2.008   4.117
 8314TIP3    H224820   6.341   1.918   4.233
 8315TIP3   OH224821   6.612   2.237   4.914
 8315TIP3    H124822   6.632   2.276   4.999
 8315TIP3    H224823   6.659   2.154   4.913
 8316TIP3   OH224824   6.480   1.638   4.227
 8316TIP3    H124825   6.457   1.715   4.279
 8316TIP3    H224826   6.542   1.670   4.162
 8317TIP3   OH224827   5.902   2.945   3.799
 8317TIP3    H124828   5.882   3.018   3.740
 8317TIP3    H224829   5.888   2.982   3.887
 8318TIP3   OH224830   5.977   1.665   4.054
 8318TIP3    H124831   5.965   1.757   4.079
 8318TIP3    H224832   6.071   1.651   4.056
 8319TIP3   OH224833   7.226   2.120   4.908
 8319TIP3    H124834   7.133   2.135   4.924
 8319TIP3    H224835   7.228   2.058   4.835
 8320TIP3   OH224836   6.892   2.333   4.290
 8320TIP3    H124837   6.817   2.275   4.297
 8320TIP3    H224838   6.959   2.293   4.345
 8321TIP3   OH224839   5.634   2.536   3.776
 8321TIP3    H124840   5.705   2.599   3.784
 8321TIP3    H224841   5.664   2.473   3.711
 8322TIP3   OH224842   5.535   1.827   3.930
 8322TIP3    H124843   5.549   1.922   3.932
 8322TIP3    H224844   5.471   1.814   3.860
 8323TIP3   OH224845   6.879   3.275   4.235
 8323TIP3    H124846   6.834   3.325   4.167
 8323TIP3    H224847   6.972   3.298   4.223
 8324TIP3   OH224848   5.934   1.560   4.776
 8324TIP3    H124849   5.898   1.537   4.690
 8324TIP3    H224850   5.919   1.482   4.830
 8325TIP3   OH224851   5.458   2.816   4.164
 8325TIP3    H124852   5.413   2.849   4.241
 8325TIP3    H224853   5.413   2.857   4.090
 8326TIP3   OH224854   5.663   3.352   5.246
 8326TIP3    H124855   5.744   3.352   5.297
 8326TIP3    H224856   5.638   3.260   5.242
 8327TIP3   OH224857   6.130   3.255   5.280
 8327TIP3    H124858   6.220   3.224   5.292
 8327TIP3    H224859   6.094   3.200   5.211
 8328TIP3   OH224860   6.087   2.854   3.408
 8328TIP3    H124861   6.038   2.783   3.448
 8328TIP3    H224862   6.161   2.810   3.365
 8329TIP3   OH224863   6.753   3.191   5.035
 8329TIP3    H124864   6.767   3.123   5.100
 8329TIP3    H224865   6.824   3.254   5.049
 8330TIP3   OH224866   6.529   2.896   3.323
 8330TIP3    H124867   6.569   2.833   3.384
 8330TIP3    H224868   6.583   2.891   3.245
 8331TIP3   OH224869   5.766   2.751   5.421
 8331TIP3    H124870   5.782   2.657   5.435
 8331TIP3    H224871   5.680   2.755   5.381
 8332TIP3   OH224872   5.755   2.349   3.618
 8332TIP3    H124873   5.804   2.326   3.697
 8332TIP3    H224874   5.822   2.356   3.550
 8333TIP3   OH224875   6.389   2.831   5.203
 8333TIP3    H124876   6.341   2.851   5.123
 8333TIP3    H224877   6.421   2.742   5.191
 8334TIP3   OH224878   6.356   2.562   3.471
 8334TIP3    H124879   6.327   2.570   3.562
 8334TIP3    H224880   6.335   2.471   3.447
 8335TIP3   OH224881   6.866   2.882   4.823
 8335TIP3    H124882   6.940   2.915   4.771
 8335TIP3    H224883   6.796   2.945   4.806
 8336TIP3   OH224884   5.880   2.496   5.440
 8336TIP3    H124885   5.955   2.475   5.384
 8336TIP3    H224886   5.918   2.515   5.525
 8337TIP3   OH224887   5.921   2.300   3.840
 8337TIP3    H124888   5.901   2.267   3.928
 8337TIP3    H224889   5.963   2.227   3.796
 8338TIP3   OH224890   6.246   2.382   5.101
 8338TIP3    H124891   6.157   2.416   5.111
 8338TIP3    H224892   6.271   2.406   5.012
 8339TIP3   OH224893   6.044   2.117   3.679
 8339TIP3    H124894   6.022   2.110   3.586
 8339TIP3    H224895   6.140   2.125   3.680
 8340TIP3   OH224896   6.741   2.753   5.169
 8340TIP3    H124897   6.810   2.713   5.115
 8340TIP3    H224898   6.736   2.698   5.247
 8341TIP3   OH224899   6.864   2.397   3.353
 8341TIP3    H124900   6.854   2.356   3.267
 8341TIP3    H224901   6.842   2.489   3.339
 8342TIP3   OH224902   6.349   2.145   5.196
 8342TIP3    H124903   6.349   2.076   5.130
 8342TIP3    H224904   6.313   2.221   5.151
 8343TIP3   OH224905   6.355   1.947   4.993
 8343TIP3    H124906   6.381   1.981   4.907
 8343TIP3    H224907   6.265   1.918   4.981
 8344TIP3   OH224908   6.348   2.466   4.864
 8344TIP3    H124909   6.439   2.493   4.847
 8344TIP3    H224910   6.295   2.527   4.813
 8345TIP3   OH224911   6.944   2.438   5.240
 8345TIP3    H124912   6.979   2.348   5.239
 8345TIP3    H224913   7.022   2.494   5.235
 8346TIP3   OH224914   6.986   2.699   4.983
 8346TIP3    H124915   6.933   2.762   4.935
 8346TIP3    H224916   7.075   2.713   4.951
 8347TIP3   OH224917   6.235   2.221   5.442
 8347TIP3    H124918   6.163   2.161   5.462
 8347TIP3    H224919   6.260   2.199   5.353
 8348TIP3   OH224920   6.476   1.719   5.105
 8348TIP3    H124921   6.436   1.799   5.070
 8348TIP3    H224922   6.410   1.651   5.091
 8349TIP3   OH224923   6.602   2.180   5.303
 8349TIP3    H124924   6.588   2.167   5.397
 8349TIP3    H224925   6.518   2.160   5.263
 8350TIP3   OH224926   6.858   2.154   5.188
 8350TIP3    H124927   6.776   2.146   5.237
 8350TIP3    H224928   6.925   2.120   5.247
 8351TIP3   OH224929   7.092   2.103   5.331
 8351TIP3    H124930   7.103   2.008   5.335
 8351TIP3    H224931   7.087   2.130   5.423
 8352TIP3   OH224932   6.062   2.006   5.504
 8352TIP3    H124933   6.068   1.918   5.467
 8352TIP3    H224934   6.100   1.997   5.592
 8353TIP3   OH224935   6.546   1.688   5.370
 8353TIP3    H124936   6.616   1.622   5.363
 8353TIP3    H224937   6.516   1.700   5.280
 8354TIP3   OH224938   6.640   1.901   5.519
 8354TIP3    H124939   6.610   1.828   5.464
 8354TIP3    H224940   6.568   1.963   5.518
 8355TIP3   OH224941   5.903   3.160   3.622
 8355TIP3    H124942   5.991   3.136   3.592
 8355TIP3    H224943   5.863   3.202   3.546
 8356TIP3   OH224944   5.360   2.542   3.788
 8356TIP3    H124945   5.455   2.550   3.787
 8356TIP3    H224946   5.343   2.456   3.750
 8357TIP3   OH224947   5.262   3.122   4.258
 8357TIP3    H124948   5.197   3.068   4.212
 8357TIP3    H224949   5.307   3.061   4.316
 8358TIP3   OH224950   5.409   2.953   4.422
 8358TIP3    H124951   5.400   2.883   4.486
 8358TIP3    H224952   5.461   3.020   4.467
 8359TIP3   OH224953   7.144   3.353   4.235
 8359TIP3    H124954   7.166   3.387   4.322
 8359TIP3    H224955   7.195   3.406   4.174
 8360TIP3   OH224956   7.161   3.400   4.516
 8360TIP3    H124957   7.112   3.318   4.512
 8360TIP3    H224958   7.230   3.384   4.579
 8361TIP3   OH224959   7.220   3.091   5.080
 8361TIP3    H124960   7.146   3.100   5.140
 8361TIP3    H224961   7.267   3.175   5.087
 8362TIP3   OH224962   7.043   2.612   3.690
 8362TIP3    H124963   7.104   2.679   3.659
 8362TIP3    H224964   7.090   2.569   3.762
 8363TIP3   OH224965   7.163   2.464   3.892
 8363TIP3    H124966   7.094   2.421   3.943
 8363TIP3    H224967   7.226   2.494   3.957
 8364TIP3   OH224968   7.197   2.864   4.315
 8364TIP3    H124969   7.258   2.796   4.284
 8364TIP3    H224970   7.215   2.939   4.259
 8365TIP3   OH224971   6.998   3.175   4.503
 8365TIP3    H124972   6.939   3.213   4.567
 8365TIP3    H224973   6.952   3.182   4.419
 8366TIP3   OH224974   7.070   2.383   3.537
 8366TIP3    H124975   7.000   2.379   3.472
 8366TIP3    H224976   7.052   2.462   3.587
 8367TIP3   OH224977   6.935   2.028   3.465
 8367TIP3    H124978   6.876   2.056   3.395
 8367TIP3    H224979   6.933   1.932   3.461
 8368TIP3   OH224980   6.953   2.323   4.017
 8368TIP3    H124981   6.957   2.230   3.998
 8368TIP3    H224982   6.935   2.328   4.110
 8369TIP3   OH224983   5.580   2.390   4.802
 8369TIP3    H124984   5.568   2.352   4.715
 8369TIP3    H224985   5.674   2.384   4.818
 8370TIP3   OH224986   7.246   2.744   4.890
 8370TIP3    H124987   7.311   2.676   4.875
 8370TIP3    H224988   7.272   2.816   4.832
 8371TIP3   OH224989   7.422   2.530   4.883
 8371TIP3    H124990   7.346   2.488   4.924
 8371TIP3    H224991   7.496   2.473   4.904
 8372TIP3   OH224992   6.928   1.754   3.449
 8372TIP3    H124993   6.989   1.735   3.520
 8372TIP3    H224994   6.844   1.719   3.480
 8373TIP3   OH224995   6.971   2.049   3.917
 8373TIP3    H124996   7.015   1.965   3.931
 8373TIP3    H224997   7.008   2.082   3.835
 8374TIP3   OH224998   7.106   2.216   4.437
 8374TIP3    H124999   7.188   2.231   4.390
 8374TIP3    H225000   7.120   2.255   4.523
 8375TIP3   OH225001   7.182   2.363   4.666
 8375TIP3    H125002   7.110   2.389   4.723
 8375TIP3    H225003   7.211   2.444   4.626
 8376TIP3   OH225004   5.799   2.069   5.446
 8376TIP3    H125005   5.893   2.063   5.463
 8376TIP3    H225006   5.763   1.988   5.482
 8377TIP3   OH225007   7.644   1.964   5.202
 8377TIP3    H125008   7.710   1.907   5.161
 8377TIP3    H225009   7.605   2.012   5.129
 8378TIP3   OH225010   7.079   1.796   3.967
 8378TIP3    H125011   7.119   1.778   4.052
 8378TIP3    H225012   7.011   1.730   3.958
 8379TIP3   OH225013   5.780   1.788   4.823
 8379TIP3    H125014   5.827   1.704   4.817
 8379TIP3    H225015   5.843   1.852   4.790
 8380TIP3   OH225016   5.554   2.053   4.854
 8380TIP3    H125017   5.606   2.034   4.776
 8380TIP3    H225018   5.593   2.133   4.891
 8381TIP3   OH225019   7.492   2.073   5.003
 8381TIP3    H125020   7.409   2.113   5.032
 8381TIP3    H225021   7.466   2.000   4.948
 8382TIP3   OH225022   7.143   1.707   3.615
 8382TIP3    H125023   7.187   1.648   3.554
 8382TIP3    H225024   7.196   1.786   3.614
 8383TIP3   OH225025   5.587   1.503   4.351
 8383TIP3    H125026   5.536   1.515   4.431
 8383TIP3    H225027   5.557   1.573   4.294
 8384TIP3   OH225028   6.677   3.216   3.883
 8384TIP3    H125029   6.742   3.213   3.813
 8384TIP3    H225030   6.707   3.287   3.941
 8385TIP3   OH225031   5.774   1.609   5.189
 8385TIP3    H125032   5.723   1.604   5.270
 8385TIP3    H225033   5.718   1.655   5.127
 8386TIP3   OH225034   5.802   3.062   5.258
 8386TIP3    H125035   5.708   3.051   5.245
 8386TIP3    H225036   5.815   3.053   5.353
 8387TIP3   OH225037   6.012   3.115   4.803
 8387TIP3    H125038   5.959   3.189   4.774
 8387TIP3    H225039   6.096   3.127   4.759
 8388TIP3   OH225040   6.411   3.350   4.940
 8388TIP3    H125041   6.445   3.338   5.028
 8388TIP3    H225042   6.477   3.401   4.895
 8389TIP3   OH225043   6.611   3.496   4.816
 8389TIP3    H125044   6.681   3.440   4.781
 8389TIP3    H225045   6.657   3.560   4.870
 8390TIP3   OH225046   7.404   1.821   4.902
 8390TIP3    H125047   7.314   1.807   4.870
 8390TIP3    H225048   7.445   1.734   4.896
 8391TIP3   OH225049   5.675   3.360   4.853
 8391TIP3    H125050   5.583   3.375   4.831
 8391TIP3    H225051   5.694   3.424   4.922
 8392TIP3   OH225052   5.903   3.348   4.702
 8392TIP3    H125053   5.822   3.353   4.752
 8392TIP3    H225054   5.877   3.371   4.612
 8393TIP3   OH225055   6.316   3.366   4.473
 8393TIP3    H125056   6.232   3.378   4.429
 8393TIP3    H225057   6.329   3.446   4.524
 8394TIP3   OH225058   6.575   3.281   4.507
 8394TIP3    H125059   6.485   3.312   4.498
 8394TIP3    H225060   6.628   3.353   4.476
 8395TIP3   OH225061   6.777   3.452   4.430
 8395TIP3    H125062   6.788   3.542   4.398
 8395TIP3    H225063   6.812   3.397   4.360
 8396TIP3   OH225064   5.582   3.131   4.569
 8396TIP3    H125065   5.607   3.103   4.657
 8396TIP3    H225066   5.654   3.100   4.513
 8397TIP3   OH225067   5.786   3.026   4.423
 8397TIP3    H125068   5.798   2.941   4.467
 8397TIP3    H225069   5.873   3.066   4.425
 8398TIP3   OH225070   6.057   3.108   4.447
 8398TIP3    H125071   6.075   3.015   4.432
 8398TIP3    H225072   6.107   3.129   4.525
 8399TIP3   OH225073   6.612   1.753   4.548
 8399TIP3    H125074   6.569   1.682   4.595
 8399TIP3    H225075   6.680   1.709   4.496
 8400TIP3   OH225076   7.110   1.683   4.443
 8400TIP3    H125077   7.143   1.729   4.366
 8400TIP3    H225078   7.015   1.691   4.436
 8401TIP3   OH225079   7.226   1.742   4.198
 8401TIP3    H125080   7.295   1.684   4.168
 8401TIP3    H225081   7.261   1.830   4.185
 8402TIP3   OH225082   5.842   1.479   4.527
 8402TIP3    H125083   5.753   1.467   4.492
 8402TIP3    H225084   5.880   1.391   4.525
 8403TIP3   OH225085   5.661   1.322   4.155
 8403TIP3    H125086   5.695   1.376   4.084
 8403TIP3    H225087   5.635   1.385   4.222
 8404TIP3   OH225088   6.340   1.488   4.430
 8404TIP3    H125089   6.385   1.538   4.362
 8404TIP3    H225090   6.379   1.520   4.512
 8405TIP3   OH225091   6.827   1.636   4.416
 8405TIP3    H125092   6.829   1.603   4.326
 8405TIP3    H225093   6.835   1.557   4.470
 8406TIP3   OH225094   6.881   1.599   3.973
 8406TIP3    H125095   6.799   1.645   3.988
 8406TIP3    H225096   6.867   1.512   4.012
 8407TIP3   OH225097   5.338   2.935   3.945
 8407TIP3    H125098   5.255   2.904   3.910
 8407TIP3    H225099   5.345   3.025   3.916
 8408TIP3   OH225100   5.781   1.479   3.954
 8408TIP3    H125101   5.832   1.433   3.887
 8408TIP3    H225102   5.843   1.541   3.993
 8409TIP3   OH225103   6.253   1.685   4.056
 8409TIP3    H125104   6.314   1.633   4.108
 8409TIP3    H225105   6.274   1.776   4.079
 8410TIP3   OH225106   6.156   3.076   3.551
 8410TIP3    H125107   6.238   3.104   3.509
 8410TIP3    H225108   6.124   3.005   3.496
 8411TIP3   OH225109   6.843   3.201   3.660
 8411TIP3    H125110   6.837   3.107   3.644
 8411TIP3    H225111   6.806   3.241   3.581
 8412TIP3   OH225112   6.085   1.736   5.420
 8412TIP3    H125113   6.049   1.670   5.479
 8412TIP3    H225114   6.177   1.745   5.447
 8413TIP3   OH225115   6.331   1.741   5.547
 8413TIP3    H125116   6.407   1.717   5.494
 8413TIP3    H225117   6.323   1.670   5.611
 8414TIP3   OH225118   5.465   2.927   3.602
 8414TIP3    H125119   5.463   2.931   3.698
 8414TIP3    H225120   5.544   2.877   3.582
 8415TIP3   OH225121   7.149   1.831   5.324
 8415TIP3    H125122   7.167   1.803   5.414
 8415TIP3    H225123   7.234   1.828   5.280
 8416TIP3   OH225124   7.063   3.367   4.829
 8416TIP3    H125125   6.985   3.338   4.782
 8416TIP3    H225126   7.053   3.461   4.839
 8417TIP3   OH225127   8.340   2.746   3.582
 8417TIP3    H125128   8.308   2.833   3.559
 8417TIP3    H225129   8.271   2.686   3.553
 8418TIP3   OH225130   8.337   2.732   3.984
 8418TIP3    H125131   8.387   2.713   4.063
 8418TIP3    H225132   8.293   2.649   3.962
 8419TIP3   OH225133   7.634   2.603   4.344
 8419TIP3    H125134   7.674   2.553   4.414
 8419TIP3    H225135   7.707   2.627   4.287
 8420TIP3   OH225136   8.619   3.046   3.663
 8420TIP3    H125137   8.597   2.981   3.729
 8420TIP3    H225138   8.632   3.127   3.713
 8421TIP3   OH225139   7.631   3.036   4.027
 8421TIP3    H125140   7.614   2.942   4.031
 8421TIP3    H225141   7.726   3.042   4.018
 8422TIP3   OH225142   7.315   2.241   3.805
 8422TIP3    H125143   7.273   2.323   3.829
 8422TIP3    H225144   7.246   2.190   3.763
 8423TIP3   OH225145   7.388   2.545   4.042
 8423TIP3    H125146   7.439   2.467   4.066
 8423TIP3    H225147   7.454   2.606   4.008
 8424TIP3   OH225148   8.266   3.483   3.679
 8424TIP3    H125149   8.285   3.413   3.617
 8424TIP3    H225150   8.265   3.440   3.764
 8425TIP3   OH225151   8.146   2.963   3.994
 8425TIP3    H125152   8.189   2.885   3.960
 8425TIP3    H225153   8.217   3.016   4.030
 8426TIP3   OH225154   9.065   2.273   3.993
 8426TIP3    H125155   9.129   2.328   4.039
 8426TIP3    H225156   9.090   2.279   3.901
 8427TIP3   OH225157   7.902   2.118   3.989
 8427TIP3    H125158   7.873   2.187   3.930
 8427TIP3    H225159   7.853   2.040   3.962
 8428TIP3   OH225160   8.668   2.120   3.722
 8428TIP3    H125161   8.595   2.100   3.664
 8428TIP3    H225162   8.706   2.200   3.686
 8429TIP3   OH225163   7.533   2.324   4.124
 8429TIP3    H125164   7.616   2.303   4.167
 8429TIP3    H225165   7.535   2.273   4.043
 8430TIP3   OH225166   7.946   2.526   3.944
 8430TIP3    H125167   8.040   2.509   3.949
 8430TIP3    H225168   7.908   2.446   3.907
 8431TIP3   OH225169   9.220   2.428   4.167
 8431TIP3    H125170   9.180   2.513   4.185
 8431TIP3    H225171   9.264   2.404   4.248
 8432TIP3   OH225172   7.890   2.118   4.446
 8432TIP3    H125173   7.839   2.151   4.372
 8432TIP3    H225174   7.835   2.133   4.523
 8433TIP3   OH225175   8.215   2.956   3.458
 8433TIP3    H125176   8.186   2.936   3.369
 8433TIP3    H225177   8.172   3.039   3.479
 8434TIP3   OH225178   7.975   2.893   4.201
 8434TIP3    H125179   7.924   2.967   4.235
 8434TIP3    H225180   8.025   2.931   4.128
 8435TIP3   OH225181   7.780   2.222   4.215
 8435TIP3    H125182   7.835   2.298   4.238
 8435TIP3    H225183   7.826   2.182   4.141
 8436TIP3   OH225184   7.827   3.098   4.314
 8436TIP3    H125185   7.814   3.189   4.286
 8436TIP3    H225186   7.750   3.078   4.366
 8437TIP3   OH225187   7.211   2.801   3.571
 8437TIP3    H125188   7.178   2.815   3.483
 8437TIP3    H225189   7.232   2.889   3.603
 8438TIP3   OH225190   8.637   3.292   3.803
 8438TIP3    H125191   8.552   3.282   3.845
 8438TIP3    H225192   8.631   3.375   3.756
 8439TIP3   OH225193   8.938   2.175   4.212
 8439TIP3    H125194   8.856   2.223   4.217
 8439TIP3    H225195   8.977   2.201   4.129
 8440TIP3   OH225196   8.219   1.805   4.174
 8440TIP3    H125197   8.218   1.713   4.201
 8440TIP3    H225198   8.142   1.844   4.217
 8441TIP3   OH225199   8.347   3.333   3.455
 8441TIP3    H125200   8.399   3.253   3.448
 8441TIP3    H225201   8.410   3.403   3.438
 8442TIP3   OH225202   8.510   3.121   3.420
 8442TIP3    H125203   8.510   3.046   3.359
 8442TIP3    H225204   8.550   3.086   3.500
 8443TIP3   OH225205   8.832   3.172   4.132
 8443TIP3    H125206   8.833   3.100   4.069
 8443TIP3    H225207   8.827   3.251   4.078
 8444TIP3   OH225208   8.172   2.580   3.435
 8444TIP3    H125209   8.090   2.626   3.416
 8444TIP3    H225210   8.217   2.576   3.350
 8445TIP3   OH225211   8.142   2.400   3.109
 8445TIP3    H125212   8.208   2.445   3.162
 8445TIP3    H225213   8.192   2.336   3.058
 8446TIP3   OH225214   9.102   2.874   3.949
 8446TIP3    H125215   9.007   2.889   3.956
 8446TIP3    H225216   9.123   2.897   3.859
 8447TIP3   OH225217   8.522   2.690   3.387
 8447TIP3    H125218   8.465   2.715   3.460
 8447TIP3    H225219   8.602   2.659   3.429
 8448TIP3   OH225220   8.724   2.702   4.338
 8448TIP3    H125221   8.719   2.787   4.382
 8448TIP3    H225222   8.642   2.696   4.289
 8449TIP3   OH225223   7.750   2.658   3.787
 8449TIP3    H125224   7.714   2.596   3.723
 8449TIP3    H225225   7.822   2.610   3.828
 8450TIP3   OH225226   7.894   3.086   3.929
 8450TIP3    H125227   7.867   3.072   3.838
 8450TIP3    H225228   7.981   3.046   3.934
 8451TIP3   OH225229   7.845   2.655   4.166
 8451TIP3    H125230   7.883   2.617   4.087
 8451TIP3    H225231   7.892   2.738   4.179
 8452TIP3   OH225232   8.407   3.282   3.944
 8452TIP3    H125233   8.387   3.365   3.987
 8452TIP3    H225234   8.386   3.215   4.009
 8453TIP3   OH225235   8.024   3.188   4.489
 8453TIP3    H125236   7.962   3.244   4.536
 8453TIP3    H225237   7.970   3.138   4.428
 8454TIP3   OH225238   8.364   2.530   3.226
 8454TIP3    H125239   8.421   2.592   3.272
 8454TIP3    H225240   8.389   2.537   3.134
 8455TIP3   OH225241   7.780   2.734   4.639
 8455TIP3    H125242   7.785   2.829   4.654
 8455TIP3    H225243   7.686   2.716   4.631
 8456TIP3   OH225244   8.100   3.209   3.480
 8456TIP3    H125245   8.183   3.258   3.475
 8456TIP3    H225246   8.040   3.260   3.425
 8457TIP3   OH225247   7.815   3.347   4.575
 8457TIP3    H125248   7.790   3.360   4.484
 8457TIP3    H225249   7.732   3.334   4.621
 8458TIP3   OH225250   8.896   1.775   3.256
 8458TIP3    H125251   8.813   1.791   3.301
 8458TIP3    H225252   8.900   1.841   3.188
 8459TIP3   OH225253   7.629   2.496   3.588
 8459TIP3    H125254   7.552   2.544   3.559
 8459TIP3    H225255   7.598   2.406   3.599
 8460TIP3   OH225256   8.697   3.149   2.835
 8460TIP3    H125257   8.690   3.241   2.809
 8460TIP3    H225258   8.792   3.131   2.832
 8461TIP3   OH225259   7.413   2.904   4.518
 8461TIP3    H125260   7.344   2.880   4.456
 8461TIP3    H225261   7.449   2.820   4.547
 8462TIP3   OH225262   7.268   3.095   4.171
 8462TIP3    H125263   7.363   3.107   4.172
 8462TIP3    H225264   7.233   3.176   4.208
 8463TIP3   OH225265   9.029   3.509   4.214
 8463TIP3    H125266   9.037   3.416   4.233
 8463TIP3    H225267   8.950   3.536   4.262
 8464TIP3   OH225268   8.209   3.337   4.352
 8464TIP3    H125269   8.201   3.428   4.381
 8464TIP3    H225270   8.142   3.290   4.401
 8465TIP3   OH225271   7.992   3.436   3.297
 8465TIP3    H125272   7.941   3.411   3.220
 8465TIP3    H225273   7.951   3.517   3.328
 8466TIP3   OH225274   7.430   3.291   3.678
 8466TIP3    H125275   7.474   3.282   3.763
 8466TIP3    H225276   7.381   3.210   3.668
 8467TIP3   OH225277   8.203   3.368   2.930
 8467TIP3    H125278   8.253   3.293   2.898
 8467TIP3    H225279   8.238   3.384   3.018
 8468TIP3   OH225280   8.247   3.421   3.202
 8468TIP3    H125281   8.157   3.423   3.235
 8468TIP3    H225282   8.295   3.371   3.268
 8469TIP3   OH225283   8.955   2.653   4.529
 8469TIP3    H125284   8.885   2.678   4.468
 8469TIP3    H225285   8.983   2.566   4.498
 8470TIP3   OH225286   7.612   3.094   4.488
 8470TIP3    H125287   7.663   3.080   4.568
 8470TIP3    H225288   7.540   3.031   4.494
 8471TIP3   OH225289   7.992   1.899   4.306
 8471TIP3    H125290   7.908   1.864   4.276
 8471TIP3    H225291   7.969   1.979   4.353
 8472TIP3   OH225292   8.526   2.022   4.499
 8472TIP3    H125293   8.598   1.993   4.555
 8472TIP3    H225294   8.447   2.005   4.551
 8473TIP3   OH225295   8.749   2.429   4.400
 8473TIP3    H125296   8.716   2.428   4.490
 8473TIP3    H225297   8.733   2.519   4.370
 8474TIP3   OH225298   8.434   2.537   2.964
 8474TIP3    H125299   8.389   2.527   2.880
 8474TIP3    H225300   8.518   2.577   2.941
 8475TIP3   OH225301   8.154   1.930   3.283
 8475TIP3    H125302   8.112   1.942   3.368
 8475TIP3    H225303   8.113   1.852   3.246
 8476TIP3   OH225304   7.926   2.436   4.315
 8476TIP3    H125305   7.881   2.441   4.399
 8476TIP3    H225306   7.903   2.517   4.270
 8477TIP3   OH225307   7.806   2.317   3.829
 8477TIP3    H125308   7.717   2.291   3.852
 8477TIP3    H225309   7.818   2.284   3.739
 8478TIP3   OH225310   8.310   2.379   3.564
 8478TIP3    H125311   8.255   2.451   3.535
 8478TIP3    H225312   8.365   2.359   3.488
 8479TIP3   OH225313   8.469   2.656   4.638
 8479TIP3    H125314   8.444   2.587   4.699
 8479TIP3    H225315   8.563   2.668   4.651
 8480TIP3   OH225316   8.513   2.422   3.779
 8480TIP3    H125317   8.451   2.456   3.715
 8480TIP3    H225318   8.473   2.341   3.811
 8481TIP3   OH225319   7.768   2.451   4.538
 8481TIP3    H125320   7.778   2.514   4.609
 8481TIP3    H225321   7.751   2.368   4.582
 8482TIP3   OH225322   7.822   1.922   3.250
 8482TIP3    H125323   7.810   1.925   3.345
 8482TIP3    H225324   7.742   1.962   3.215
 8483TIP3   OH225325   7.356   1.964   4.117
 8483TIP3    H125326   7.434   1.998   4.162
 8483TIP3    H225327   7.388   1.940   4.030
 8484TIP3   OH225328   7.278   1.949   3.618
 8484TIP3    H125329   7.319   1.982   3.539
 8484TIP3    H225330   7.208   2.012   3.637
 8485TIP3   OH225331   8.494   2.627   4.195
 8485TIP3    H125332   8.510   2.549   4.143
 8485TIP3    H225333   8.444   2.595   4.270
 8486TIP3   OH225334   8.163   2.187   3.915
 8486TIP3    H125335   8.080   2.160   3.953
 8486TIP3    H225336   8.225   2.119   3.942
 8487TIP3   OH225337   7.572   2.186   3.890
 8487TIP3    H125338   7.484   2.192   3.852
 8487TIP3    H225339   7.598   2.095   3.875
 8488TIP3   OH225340   7.830   2.193   3.586
 8488TIP3    H125341   7.925   2.199   3.573
 8488TIP3    H225342   7.793   2.207   3.499
 8489TIP3   OH225343   7.718   2.213   3.338
 8489TIP3    H125344   7.656   2.161   3.286
 8489TIP3    H225345   7.772   2.258   3.272
 8490TIP3   OH225346   8.817   3.896   4.309
 8490TIP3    H125347   8.815   3.909   4.215
 8490TIP3    H225348   8.890   3.950   4.340
 8491TIP3   OH225349   7.765   3.005   4.720
 8491TIP3    H125350   7.845   3.025   4.768
 8491TIP3    H225351   7.695   3.016   4.785
 8492TIP3   OH225352   8.215   2.452   3.994
 8492TIP3    H125353   8.209   2.366   3.952
 8492TIP3    H225354   8.213   2.434   4.088
 8493TIP3   OH225355   7.716   1.937   3.876
 8493TIP3    H125356   7.687   1.863   3.930
 8493TIP3    H225357   7.735   1.898   3.790
 8494TIP3   OH225358   8.190   2.387   4.261
 8494TIP3    H125359   8.100   2.411   4.284
 8494TIP3    H225360   8.244   2.441   4.318
 8495TIP3   OH225361   7.937   2.718   3.373
 8495TIP3    H125362   7.861   2.666   3.346
 8495TIP3    H225363   7.908   2.763   3.452
 8496TIP3   OH225364   8.832   2.965   3.949
 8496TIP3    H125365   8.859   3.015   3.872
 8496TIP3    H225366   8.748   2.926   3.924
 8497TIP3   OH225367   8.410   2.017   3.292
 8497TIP3    H125368   8.317   1.996   3.284
 8497TIP3    H225369   8.413   2.112   3.281
 8498TIP3   OH225370   8.333   3.064   4.396
 8498TIP3    H125371   8.383   3.055   4.478
 8498TIP3    H225372   8.292   3.150   4.403
 8499TIP3   OH225373   8.469   2.299   3.353
 8499TIP3    H125374   8.563   2.309   3.367
 8499TIP3    H225375   8.445   2.371   3.294
 8500TIP3   OH225376   7.621   2.750   4.015
 8500TIP3    H125377   7.658   2.728   3.929
 8500TIP3    H225378   7.686   2.717   4.077
 8501TIP3   OH225379   8.085   2.886   3.215
 8501TIP3    H125380   8.037   2.968   3.213
 8501TIP3    H225381   8.030   2.827   3.267
 8502TIP3   OH225382   7.505   2.673   4.655
 8502TIP3    H125383   7.507   2.644   4.746
 8502TIP3    H225384   7.430   2.628   4.617
 8503TIP3   OH225385   8.239   2.813   4.675
 8503TIP3    H125386   8.171   2.752   4.648
 8503TIP3    H225387   8.321   2.770   4.648
 8504TIP3   OH225388   8.476   3.352   4.273
 8504TIP3    H125389   8.381   3.341   4.280
 8504TIP3    H225390   8.503   3.390   4.357
 8505TIP3   OH225391   8.867   2.409   3.183
 8505TIP3    H125392   8.822   2.356   3.117
 8505TIP3    H225393   8.880   2.494   3.140
 8506TIP3   OH225394   9.064   3.240   4.258
 8506TIP3    H125395   8.971   3.220   4.246
 8506TIP3    H225396   9.106   3.207   4.179
 8507TIP3   OH225397   8.599   3.192   3.093
 8507TIP3    H125398   8.576   3.113   3.141
 8507TIP3    H225399   8.629   3.160   3.007
 8508TIP3   OH225400   8.586   2.850   3.867
 8508TIP3    H125401   8.495   2.825   3.886
 8508TIP3    H225402   8.627   2.768   3.837
 8509TIP3   OH225403   7.750   3.084   3.689
 8509TIP3    H125404   7.748   3.160   3.631
 8509TIP3    H225405   7.658   3.071   3.715
 8510TIP3   OH225406   7.313   2.366   3.406
 8510TIP3    H125407   7.354   2.450   3.427
 8510TIP3    H225408   7.230   2.367   3.454
 8511TIP3   OH225409   7.828   2.839   3.589
 8511TIP3    H125410   7.816   2.928   3.621
 8511TIP3    H225411   7.802   2.783   3.661
 8512TIP3   OH225412   8.032   3.409   4.141
 8512TIP3    H125413   8.066   3.484   4.093
 8512TIP3    H225414   8.106   3.377   4.192
 8513TIP3   OH225415   7.669   3.306   3.539
 8513TIP3    H125416   7.581   3.315   3.575
 8513TIP3    H225417   7.706   3.394   3.543
 8514TIP3   OH225418   8.373   3.066   4.121
 8514TIP3    H125419   8.359   3.063   4.216
 8514TIP3    H225420   8.456   3.021   4.107
 8515TIP3   OH225421   8.390   2.951   2.985
 8515TIP3    H125422   8.425   2.936   3.072
 8515TIP3    H225423   8.307   2.903   2.984
 8516TIP3   OH225424   8.611   3.577   4.160
 8516TIP3    H125425   8.545   3.508   4.169
 8516TIP3    H225426   8.585   3.625   4.081
 8517TIP3   OH225427   8.673   3.422   2.787
 8517TIP3    H125428   8.667   3.472   2.705
 8517TIP3    H225429   8.606   3.461   2.843
 8518TIP3   OH225430   7.716   2.196   4.650
 8518TIP3    H125431   7.621   2.206   4.653
 8518TIP3    H225432   7.736   2.140   4.726
 8519TIP3   OH225433   8.542   2.913   3.219
 8519TIP3    H125434   8.520   2.839   3.275
 8519TIP3    H225435   8.634   2.900   3.196
 8520TIP3   OH225436   7.460   3.313   4.304
 8520TIP3    H125437   7.512   3.254   4.360
 8520TIP3    H225438   7.475   3.400   4.340
 8521TIP3   OH225439   7.734   2.911   3.001
 8521TIP3    H125440   7.742   2.819   2.974
 8521TIP3    H225441   7.719   2.906   3.096
 8522TIP3   OH225442   7.673   2.932   3.273
 8522TIP3    H125443   7.730   2.907   3.345
 8522TIP3    H225444   7.671   3.027   3.275
 8523TIP3   OH225445   7.405   2.621   3.482
 8523TIP3    H125446   7.341   2.671   3.532
 8523TIP3    H225447   7.425   2.676   3.406
 8524TIP3   OH225448   8.515   2.274   4.391
 8524TIP3    H125449   8.608   2.298   4.387
 8524TIP3    H225450   8.515   2.184   4.425
 8525TIP3   OH225451   8.445   2.074   3.561
 8525TIP3    H125452   8.450   2.038   3.473
 8525TIP3    H225453   8.409   2.162   3.549
 8526TIP3   OH225454   7.946   3.119   3.209
 8526TIP3    H125455   7.860   3.141   3.245
 8526TIP3    H225456   7.964   3.190   3.147
 8527TIP3   OH225457   8.114   2.198   3.641
 8527TIP3    H125458   8.176   2.264   3.609
 8527TIP3    H225459   8.125   2.198   3.736
 8528TIP3   OH225460   8.383   2.511   4.414
 8528TIP3    H125461   8.409   2.555   4.495
 8528TIP3    H225462   8.425   2.425   4.420
 8529TIP3   OH225463   8.293   1.890   3.715
 8529TIP3    H125464   8.304   1.931   3.801
 8529TIP3    H225465   8.344   1.945   3.656
 8530TIP3   OH225466   7.695   3.205   3.285
 8530TIP3    H125467   7.677   3.278   3.226
 8530TIP3    H225468   7.683   3.242   3.373
 8531TIP3   OH225469   7.787   1.916   3.529
 8531TIP3    H125470   7.774   2.007   3.557
 8531TIP3    H225471   7.882   1.902   3.539
 8532TIP3   OH225472   9.019   2.413   4.397
 8532TIP3    H125473   8.924   2.402   4.406
 8532TIP3    H225474   9.039   2.379   4.310
 8533TIP3   OH225475   8.718   2.604   3.821
 8533TIP3    H125476   8.652   2.536   3.824
 8533TIP3    H225477   8.765   2.597   3.905
 8534TIP3   OH225478   7.431   2.794   3.263
 8534TIP3    H125479   7.502   2.857   3.270
 8534TIP3    H225480   7.461   2.731   3.198
 8535TIP3   OH225481   7.332   2.088   3.389
 8535TIP3    H125482   7.342   2.183   3.398
 8535TIP3    H225483   7.264   2.077   3.323
 8536TIP3   OH225484   8.641   3.555   3.713
 8536TIP3    H125485   8.592   3.620   3.663
 8536TIP3    H225486   8.733   3.578   3.700
 8537TIP3   OH225487   7.734   1.812   4.264
 8537TIP3    H125488   7.704   1.780   4.179
 8537TIP3    H225489   7.725   1.737   4.323
 8538TIP3   OH225490   7.251   3.073   3.650
 8538TIP3    H125491   7.207   3.108   3.727
 8538TIP3    H225492   7.208   3.115   3.576
 8539TIP3   OH225493   7.467   3.605   4.727
 8539TIP3    H125494   7.548   3.612   4.777
 8539TIP3    H225495   7.454   3.511   4.715
 8540TIP3   OH225496   7.927   3.508   4.768
 8540TIP3    H125497   8.018   3.478   4.777
 8540TIP3    H225498   7.891   3.455   4.698
 8541TIP3   OH225499   7.882   3.111   2.886
 8541TIP3    H125500   7.835   3.042   2.932
 8541TIP3    H225501   7.957   3.067   2.845
 8542TIP3   OH225502   8.533   3.449   4.522
 8542TIP3    H125503   8.546   3.378   4.586
 8542TIP3    H225504   8.604   3.511   4.541
 8543TIP3   OH225505   8.328   3.156   2.812
 8543TIP3    H125506   8.366   3.091   2.871
 8543TIP3    H225507   8.380   3.150   2.732
 8544TIP3   OH225508   7.558   3.010   4.908
 8544TIP3    H125509   7.579   2.918   4.923
 8544TIP3    H225510   7.470   3.008   4.871
 8545TIP3   OH225511   7.551   2.605   3.108
 8545TIP3    H125512   7.602   2.580   3.184
 8545TIP3    H225513   7.616   2.619   3.039
 8546TIP3   OH225514   8.184   3.089   4.691
 8546TIP3    H125515   8.136   3.110   4.611
 8546TIP3    H225516   8.215   3.000   4.678
 8547TIP3   OH225517   8.144   2.826   2.954
 8547TIP3    H125518   8.115   2.837   3.045
 8547TIP3    H225519   8.120   2.736   2.932
 8548TIP3   OH225520   8.634   3.120   4.310
 8548TIP3    H125521   8.706   3.140   4.250
 8548TIP3    H225522   8.572   3.192   4.298
 8549TIP3   OH225523   7.674   2.757   4.924
 8549TIP3    H125524   7.749   2.736   4.869
 8549TIP3    H225525   7.711   2.773   5.011
 8550TIP3   OH225526   7.724   2.548   3.321
 8550TIP3    H125527   7.702   2.515   3.408
 8550TIP3    H225528   7.773   2.476   3.280
 8551TIP3   OH225529   8.040   2.635   4.581
 8551TIP3    H125530   7.952   2.672   4.594
 8551TIP3    H225531   8.066   2.665   4.495
 8552TIP3   OH225532   7.870   2.367   3.167
 8552TIP3    H125533   7.838   2.372   3.077
 8552TIP3    H225534   7.965   2.375   3.159
 8553TIP3   OH225535   8.522   3.000   4.662
 8553TIP3    H125536   8.592   2.968   4.606
 8553TIP3    H225537   8.520   2.939   4.735
 8554TIP3   OH225538   8.657   2.652   2.851
 8554TIP3    H125539   8.645   2.611   2.765
 8554TIP3    H225540   8.637   2.745   2.835
 8555TIP3   OH225541   8.150   2.403   4.681
 8555TIP3    H125542   8.147   2.332   4.616
 8555TIP3    H225543   8.112   2.478   4.635
 8556TIP3   OH225544   8.149   2.204   4.482
 8556TIP3    H125545   8.177   2.241   4.398
 8556TIP3    H225546   8.059   2.176   4.467
 8557TIP3   OH225547   8.143   2.740   4.353
 8557TIP3    H125548   8.228   2.784   4.350
 8557TIP3    H225549   8.085   2.794   4.299
 8558TIP3   OH225550   8.780   2.674   4.796
 8558TIP3    H125551   8.816   2.617   4.728
 8558TIP3    H225552   8.822   2.759   4.781
 8559TIP3   OH225553   8.744   2.945   4.486
 8559TIP3    H125554   8.696   3.008   4.432
 8559TIP3    H225555   8.835   2.957   4.461
 8560TIP3   OH225556   8.039   2.471   4.930
 8560TIP3    H125557   7.966   2.411   4.950
 8560TIP3    H225558   8.063   2.451   4.840
 8561TIP3   OH225559   8.269   1.979   4.595
 8561TIP3    H125560   8.228   2.057   4.559
 8561TIP3    H225561   8.204   1.910   4.582
 8562TIP3   OH225562   8.407   2.432   4.780
 8562TIP3    H125563   8.391   2.417   4.873
 8562TIP3    H225564   8.323   2.412   4.737
 8563TIP3   OH225565   8.662   2.424   4.656
 8563TIP3    H125566   8.576   2.412   4.697
 8563TIP3    H225567   8.724   2.387   4.719
 8564TIP3   OH225568   8.842   2.320   4.839
 8564TIP3    H125569   8.863   2.228   4.829
 8564TIP3    H225570   8.785   2.324   4.916
 8565TIP3   OH225571   7.860   2.261   4.993
 8565TIP3    H125572   7.866   2.172   4.958
 8565TIP3    H225573   7.899   2.255   5.080
 8566TIP3   OH225574   8.346   1.957   4.858
 8566TIP3    H125575   8.407   1.884   4.850
 8566TIP3    H225576   8.312   1.971   4.770
 8567TIP3   OH225577   8.461   2.166   4.999
 8567TIP3    H125578   8.426   2.093   4.948
 8567TIP3    H225579   8.390   2.231   4.999
 8568TIP3   OH225580   7.699   3.422   3.110
 8568TIP3    H125581   7.782   3.398   3.070
 8568TIP3    H225582   7.650   3.465   3.040
 8569TIP3   OH225583   7.158   2.798   3.285
 8569TIP3    H125584   7.253   2.807   3.278
 8569TIP3    H225585   7.139   2.714   3.243
 8570TIP3   OH225586   7.050   3.367   3.740
 8570TIP3    H125587   6.985   3.310   3.699
 8570TIP3    H225588   7.098   3.309   3.799
 8571TIP3   OH225589   7.201   3.208   3.910
 8571TIP3    H125590   7.201   3.139   3.977
 8571TIP3    H225591   7.252   3.279   3.949
 8572TIP3   OH225592   8.893   3.650   3.685
 8572TIP3    H125593   8.918   3.660   3.777
 8572TIP3    H225594   8.976   3.651   3.637
 8573TIP3   OH225595   8.936   3.652   3.961
 8573TIP3    H125596   8.899   3.566   3.983
 8573TIP3    H225597   9.019   3.655   4.008
 8574TIP3   OH225598   8.961   3.358   4.558
 8574TIP3    H125599   8.895   3.362   4.627
 8574TIP3    H225600   8.993   3.448   4.552
 8575TIP3   OH225601   8.809   2.864   3.180
 8575TIP3    H125602   8.870   2.933   3.156
 8575TIP3    H225603   8.847   2.826   3.260
 8576TIP3   OH225604   8.914   2.737   3.399
 8576TIP3    H125605   8.848   2.692   3.452
 8576TIP3    H225606   8.982   2.763   3.461
 8577TIP3   OH225607   8.983   3.110   3.770
 8577TIP3    H125608   9.047   3.058   3.722
 8577TIP3    H225609   8.966   3.185   3.714
 8578TIP3   OH225610   8.793   3.413   4.000
 8578TIP3    H125611   8.726   3.456   4.053
 8578TIP3    H225612   8.744   3.375   3.927
 8579TIP3   OH225613   8.866   2.642   3.027
 8579TIP3    H125614   8.790   2.633   2.969
 8579TIP3    H225615   8.846   2.719   3.080
 8580TIP3   OH225616   8.724   2.289   2.979
 8580TIP3    H125617   8.676   2.325   2.904
 8580TIP3    H225618   8.705   2.196   2.977
 8581TIP3   OH225619   8.734   2.582   3.537
 8581TIP3    H125620   8.738   2.489   3.518
 8581TIP3    H225621   8.731   2.587   3.633
 8582TIP3   OH225622   7.373   2.654   4.292
 8582TIP3    H125623   7.363   2.615   4.205
 8582TIP3    H225624   7.466   2.646   4.311
 8583TIP3   OH225625   9.008   2.977   4.419
 8583TIP3    H125626   9.072   2.907   4.435
 8583TIP3    H225627   9.036   3.016   4.337
 8584TIP3   OH225628   9.194   2.779   4.463
 8584TIP3    H125629   9.128   2.723   4.505
 8584TIP3    H225630   9.264   2.719   4.438
 8585TIP3   OH225631   8.662   2.024   2.970
 8585TIP3    H125632   8.722   1.977   3.028
 8585TIP3    H225633   8.579   1.978   2.980
 8586TIP3   OH225634   8.745   2.319   3.418
 8586TIP3    H125635   8.779   2.230   3.429
 8586TIP3    H225636   8.792   2.353   3.342
 8587TIP3   OH225637   8.855   2.620   4.081
 8587TIP3    H125638   8.805   2.658   4.153
 8587TIP3    H225639   8.947   2.635   4.105
 8588TIP3   OH225640   7.596   2.320   4.930
 8588TIP3    H125641   7.690   2.316   4.949
 8588TIP3    H225642   7.561   2.239   4.966
 8589TIP3   OH225643   8.825   2.048   3.450
 8589TIP3    H125644   8.845   1.995   3.527
 8589TIP3    H225645   8.765   1.994   3.399
 8590TIP3   OH225646   7.574   2.037   4.278
 8590TIP3    H125647   7.625   1.957   4.284
 8590TIP3    H225648   7.638   2.106   4.259
 8591TIP3   OH225649   7.355   2.296   4.344
 8591TIP3    H125650   7.401   2.287   4.261
 8591TIP3    H225651   7.399   2.369   4.388
 8592TIP3   OH225652   9.279   2.332   4.441
 8592TIP3    H125653   9.195   2.376   4.457
 8592TIP3    H225654   9.255   2.243   4.417
 8593TIP3   OH225655   8.929   1.941   3.037
 8593TIP3    H125656   9.011   1.893   3.026
 8593TIP3    H225657   8.905   1.968   2.948
 8594TIP3   OH225658   7.347   1.831   3.855
 8594TIP3    H125659   7.261   1.808   3.889
 8594TIP3    H225660   7.329   1.880   3.775
 8595TIP3   OH225661   8.524   3.531   3.384
 8595TIP3    H125662   8.545   3.511   3.293
 8595TIP3    H225663   8.603   3.509   3.432
 8596TIP3   OH225664   7.567   1.869   4.673
 8596TIP3    H125665   7.512   1.858   4.750
 8596TIP3    H225666   7.511   1.917   4.611
 8597TIP3   OH225667   7.589   3.326   4.742
 8597TIP3    H125668   7.497   3.302   4.734
 8597TIP3    H225669   7.608   3.315   4.835
 8598TIP3   OH225670   7.805   3.375   4.292
 8598TIP3    H125671   7.755   3.450   4.261
 8598TIP3    H225672   7.889   3.382   4.248
 8599TIP3   OH225673   8.200   3.605   4.427
 8599TIP3    H125674   8.236   3.597   4.516
 8599TIP3    H225675   8.265   3.656   4.379
 8600TIP3   OH225676   8.399   3.753   4.303
 8600TIP3    H125677   8.466   3.700   4.261
 8600TIP3    H225678   8.448   3.815   4.357
 8601TIP3   OH225679   9.153   2.095   4.379
 8601TIP3    H125680   9.074   2.118   4.330
 8601TIP3    H225681   9.172   2.005   4.353
 8602TIP3   OH225682   7.470   3.604   4.343
 8602TIP3    H125683   7.379   3.621   4.318
 8602TIP3    H225684   7.491   3.672   4.406
 8603TIP3   OH225685   7.698   3.607   4.188
 8603TIP3    H125686   7.615   3.609   4.236
 8603TIP3    H225687   7.675   3.630   4.098
 8604TIP3   OH225688   8.101   3.624   3.981
 8604TIP3    H125689   8.027   3.636   3.922
 8604TIP3    H225690   8.113   3.710   4.022
 8605TIP3   OH225691   8.359   3.542   4.016
 8605TIP3    H125692   8.268   3.569   4.003
 8605TIP3    H225693   8.411   3.612   3.976
 8606TIP3   OH225694   8.558   3.716   3.926
 8606TIP3    H125695   8.559   3.805   3.890
 8606TIP3    H225696   8.589   3.661   3.854
 8607TIP3   OH225697   7.372   3.388   4.052
 8607TIP3    H125698   7.399   3.368   4.141
 8607TIP3    H225699   7.444   3.358   3.997
 8608TIP3   OH225700   7.577   3.278   3.913
 8608TIP3    H125701   7.590   3.193   3.956
 8608TIP3    H225702   7.664   3.319   3.915
 8609TIP3   OH225703   7.846   3.362   3.938
 8609TIP3    H125704   7.865   3.270   3.921
 8609TIP3    H225705   7.900   3.385   4.013
 8610TIP3   OH225706   8.331   1.974   3.979
 8610TIP3    H125707   8.297   1.924   4.053
 8610TIP3    H225708   8.424   1.953   3.976
 8611TIP3   OH225709   8.914   1.921   3.890
 8611TIP3    H125710   8.978   1.979   3.848
 8611TIP3    H225711   8.907   1.846   3.830
 8612TIP3   OH225712   9.064   2.048   3.703
 8612TIP3    H125713   9.095   1.990   3.633
 8612TIP3    H225714   9.084   2.136   3.672
 8613TIP3   OH225715   7.644   1.714   4.023
 8613TIP3    H125716   7.555   1.680   4.032
 8613TIP3    H225717   7.699   1.636   4.013
 8614TIP3   OH225718   7.482   1.634   3.690
 8614TIP3    H125719   7.503   1.679   3.608
 8614TIP3    H225720   7.444   1.702   3.745
 8615TIP3   OH225721   8.112   1.754   3.908
 8615TIP3    H125722   8.171   1.790   3.841
 8615TIP3    H225723   8.153   1.778   3.991
 8616TIP3   OH225724   8.587   1.873   3.921
 8616TIP3    H125725   8.559   1.811   3.853
 8616TIP3    H225726   8.612   1.818   3.995
 8617TIP3   OH225727   8.655   1.838   3.374
 8617TIP3    H125728   8.559   1.842   3.371
 8617TIP3    H225729   8.675   1.815   3.465
 8618TIP3   OH225730   7.134   3.195   3.433
 8618TIP3    H125731   7.052   3.167   3.391
 8618TIP3    H225732   7.145   3.286   3.407
 8619TIP3   OH225733   7.579   1.746   3.440
 8619TIP3    H125734   7.624   1.682   3.385
 8619TIP3    H225735   7.650   1.802   3.474
 8620TIP3   OH225736   8.063   1.945   3.545
 8620TIP3    H125737   8.120   1.888   3.596
 8620TIP3    H225738   8.081   2.033   3.578
 8621TIP3   OH225739   7.946   3.336   3.026
 8621TIP3    H125740   8.030   3.362   2.988
 8621TIP3    H225741   7.915   3.264   2.969
 8622TIP3   OH225742   8.621   3.459   3.137
 8622TIP3    H125743   8.616   3.364   3.127
 8622TIP3    H225744   8.575   3.494   3.061
 8623TIP3   OH225745   7.880   1.990   4.910
 8623TIP3    H125746   7.845   1.923   4.968
 8623TIP3    H225747   7.972   1.999   4.935
 8624TIP3   OH225748   8.128   2.001   5.034
 8624TIP3    H125749   8.206   1.981   4.982
 8624TIP3    H225750   8.121   1.928   5.096
 8625TIP3   OH225751   7.259   3.177   3.087
 8625TIP3    H125752   7.261   3.190   3.181
 8625TIP3    H225753   7.340   3.130   3.067
 8626TIP3   OH225754   8.937   2.063   4.820
 8626TIP3    H125755   8.967   2.035   4.907
 8626TIP3    H225756   9.016   2.058   4.765
 8627TIP3   OH225757   8.814   3.621   4.339
 8627TIP3    H125758   8.740   3.600   4.282
 8627TIP3    H225759   8.821   3.716   4.336
 8628TIP3   OH225760   9.079   2.511   3.373
 8628TIP3    H125761   9.014   2.580   3.357
 8628TIP3    H225762   9.050   2.439   3.316
 8629TIP3   OH225763   9.164   2.729   3.536
 8629TIP3    H125764   9.172   2.677   3.616
 8629TIP3    H225765   9.167   2.665   3.466
 8630TIP3   OH225766   8.984   3.055   3.098
 8630TIP3    H125767   8.975   3.055   3.003
 8630TIP3    H225768   9.010   3.145   3.119
 8631TIP3   OH225769   9.152   3.177   3.986
 8631TIP3    H125770   9.088   3.158   3.917
 8631TIP3    H225771   9.235   3.144   3.952
 8632TIP3   OH225772   9.043   3.343   3.624
 8632TIP3    H125773   9.125   3.321   3.582
 8632TIP3    H225774   9.068   3.392   3.703
 8633TIP3   OH225775   9.194   3.552   3.168
 8633TIP3    H125776   9.249   3.521   3.240
 8633TIP3    H225777   9.150   3.473   3.137
 8634TIP3   OH225778   9.302   3.381   4.087
 8634TIP3    H125779   9.348   3.318   4.142
 8634TIP3    H225780   9.223   3.335   4.058
 8635TIP3   OH225781   9.123   2.287   3.586
 8635TIP3    H125782   9.132   2.381   3.569
 8635TIP3    H225783   9.111   2.249   3.499
 8636TIP3   OH225784   9.345   2.779   4.060
 8636TIP3    H125785   9.383   2.828   4.133
 8636TIP3    H225786   9.282   2.839   4.021
 8637TIP3   OH225787   9.019   2.715   2.805
 8637TIP3    H125788   9.108   2.687   2.826
 8637TIP3    H225789   8.967   2.688   2.881
 8638TIP3   OH225790   9.190   3.468   3.828
 8638TIP3    H125791   9.250   3.419   3.884
 8638TIP3    H225792   9.166   3.544   3.880
 8639TIP3   OH225793   9.030   3.329   3.131
 8639TIP3    H125794   8.981   3.364   3.205
 8639TIP3    H225795   8.986   3.365   3.054
 8640TIP3   OH225796   9.245   3.942   4.225
 8640TIP3    H125797   9.329   3.952   4.270
 8640TIP3    H225798   9.221   3.851   4.240
 8641TIP3   OH225799   9.382   3.166   4.242
 8641TIP3    H125800   9.427   3.085   4.266
 8641TIP3    H225801   9.347   3.199   4.326
 8642TIP3   OH225802   8.963   3.066   2.823
 8642TIP3    H125803   9.047   3.096   2.788
 8642TIP3    H225804   8.939   2.993   2.766
 8643TIP3   OH225805   8.816   3.630   3.216
 8643TIP3    H125806   8.753   3.570   3.175
 8643TIP3    H225807   8.867   3.574   3.275
 8644TIP3   OH225808   8.959   3.479   3.391
 8644TIP3    H125809   8.953   3.415   3.462
 8644TIP3    H225810   9.026   3.541   3.420
 8645TIP3   OH225811   9.198   2.950   3.697
 8645TIP3    H125812   9.184   2.882   3.631
 8645TIP3    H225813   9.292   2.963   3.698
 8646TIP3   OH225814   9.374   2.591   4.384
 8646TIP3    H125815   9.440   2.592   4.315
 8646TIP3    H225816   9.377   2.503   4.420
 8647TIP3   OH225817   9.184   2.598   3.772
 8647TIP3    H125818   9.260   2.563   3.819
 8647TIP3    H225819   9.122   2.623   3.841
 8648TIP3   OH225820   9.057   2.161   3.351
 8648TIP3    H125821   8.978   2.115   3.379
 8648TIP3    H225822   9.063   2.143   3.257
 8649TIP3   OH225823   9.485   3.570   4.168
 8649TIP3    H125824   9.421   3.523   4.114
 8649TIP3    H225825   9.468   3.540   4.257
 8650TIP3   OH225826   9.206   3.824   3.754
 8650TIP3    H125827   9.129   3.880   3.763
 8650TIP3    H225828   9.217   3.784   3.841
 8651TIP3   OH225829   9.454   3.800   3.628
 8651TIP3    H125830   9.382   3.825   3.686
 8651TIP3    H225831   9.453   3.867   3.559
 8652TIP3   OH225832   9.137   3.671   3.536
 8652TIP3    H125833   9.164   3.726   3.609
 8652TIP3    H225834   9.209   3.610   3.524
 8653TIP3   OH225835   9.329   3.427   3.374
 8653TIP3    H125836   9.395   3.364   3.344
 8653TIP3    H225837   9.365   3.461   3.456
 8654TIP3   OH225838   8.924   3.445   2.903
 8654TIP3    H125839   8.837   3.425   2.870
 8654TIP3    H225840   8.936   3.538   2.885
 8655TIP3   OH225841   9.021   3.403   2.576
 8655TIP3    H125842   9.019   3.415   2.671
 8655TIP3    H225843   9.020   3.308   2.564
 8656TIP3   OH225844   0.801   3.537   5.259
 8656TIP3    H125845   0.770   3.625   5.235
 8656TIP3    H225846   0.729   3.479   5.236
 8657TIP3   OH225847   0.816   3.519   5.681
 8657TIP3    H125848   0.864   3.506   5.763
 8657TIP3    H225849   0.770   3.437   5.667
 8658TIP3   OH225850   0.188   3.419   6.094
 8658TIP3    H125851   0.227   3.360   6.159
 8658TIP3    H225852   0.255   3.425   6.025
 8659TIP3   OH225853   1.062   3.843   5.361
 8659TIP3    H125854   1.055   3.775   5.427
 8659TIP3    H225855   1.085   3.922   5.409
 8660TIP3   OH225856   0.152   3.815   5.624
 8660TIP3    H125857   0.124   3.731   5.659
 8660TIP3    H225858   0.247   3.815   5.634
 8661TIP3   OH225859   9.404   3.118   5.476
 8661TIP3    H125860   9.380   3.172   5.551
 8661TIP3    H225861   9.475   3.062   5.508
 8662TIP3   OH225862   9.681   3.316   5.732
 8662TIP3    H125863   9.735   3.237   5.723
 8662TIP3    H225864   9.690   3.361   5.648
 8663TIP3   OH225865   0.728   4.268   5.375
 8663TIP3    H125866   0.750   4.203   5.308
 8663TIP3    H225867   0.742   4.222   5.458
 8664TIP3   OH225868   0.655   3.745   5.688
 8664TIP3    H125869   0.700   3.664   5.666
 8664TIP3    H225870   0.724   3.801   5.724
 8665TIP3   OH225871   1.643   3.069   5.709
 8665TIP3    H125872   1.657   3.153   5.752
 8665TIP3    H225873   1.670   3.084   5.618
 8666TIP3   OH225874   1.011   3.240   5.728
 8666TIP3    H125875   1.041   3.154   5.757
 8666TIP3    H225876   0.975   3.226   5.640
 8667TIP3   OH225877   0.383   2.910   5.679
 8667TIP3    H125878   0.363   2.980   5.616
 8667TIP3    H225879   0.336   2.834   5.645
 8668TIP3   OH225880   1.062   3.001   5.322
 8668TIP3    H125881   1.124   2.995   5.394
 8668TIP3    H225882   1.112   3.036   5.249
 8669TIP3   OH225883   0.033   3.094   5.730
 8669TIP3    H125884   0.095   3.065   5.797
 8669TIP3    H225885   0.043   3.030   5.659
 8670TIP3   OH225886   0.426   3.309   5.634
 8670TIP3    H125887   0.521   3.297   5.638
 8670TIP3    H225888   0.394   3.230   5.591
 8671TIP3   OH225889   1.690   3.288   5.874
 8671TIP3    H125890   1.605   3.332   5.867
 8671TIP3    H225891   1.731   3.329   5.951
 8672TIP3   OH225892   0.368   2.895   6.132
 8672TIP3    H125893   0.312   2.939   6.069
 8672TIP3    H225894   0.329   2.916   6.217
 8673TIP3   OH225895   0.695   3.754   5.123
 8673TIP3    H125896   0.667   3.729   5.035
 8673TIP3    H225897   0.640   3.829   5.146
 8674TIP3   OH225898   0.473   3.668   5.881
 8674TIP3    H125899   0.430   3.744   5.920
 8674TIP3    H225900   0.527   3.706   5.811
 8675TIP3   OH225901   1.215   3.025   5.546
 8675TIP3    H125902   1.172   3.004   5.629
 8675TIP3    H225903   1.272   3.099   5.568
 8676TIP3   OH225904   0.253   3.008   5.901
 8676TIP3    H125905   0.303   3.083   5.932
 8676TIP3    H225906   0.306   2.971   5.830
 8677TIP3   OH225907   0.343   3.879   6.000
 8677TIP3    H125908   0.319   3.968   5.976
 8677TIP3    H225909   0.271   3.850   6.057
 8678TIP3   OH225910   9.469   3.503   5.270
 8678TIP3    H125911   9.402   3.525   5.205
 8678TIP3    H225912   9.517   3.585   5.283
 8679TIP3   OH225913   1.091   4.091   5.497
 8679TIP3    H125914   1.002   4.084   5.529
 8679TIP3    H225915   1.093   4.176   5.451
 8680TIP3   OH225916   1.448   2.947   5.874
 8680TIP3    H125917   1.363   2.976   5.841
 8680TIP3    H225918   1.511   2.978   5.809
 8681TIP3   OH225919   0.696   2.591   5.861
 8681TIP3    H125920   0.693   2.500   5.888
 8681TIP3    H225921   0.620   2.631   5.903
 8682TIP3   OH225922   0.803   4.118   5.151
 8682TIP3    H125923   0.858   4.040   5.142
 8682TIP3    H225924   0.860   4.190   5.124
 8683TIP3   OH225925   0.943   3.888   5.118
 8683TIP3    H125926   0.871   3.824   5.120
 8683TIP3    H225927   0.996   3.867   5.195
 8684TIP3   OH225928   1.332   3.980   5.832
 8684TIP3    H125929   1.318   3.907   5.773
 8684TIP3    H225930   1.317   4.058   5.778
 8685TIP3   OH225931   0.625   3.379   5.109
 8685TIP3    H125932   0.547   3.430   5.086
 8685TIP3    H225933   0.677   3.376   5.029
 8686TIP3   OH225934   0.592   3.191   4.794
 8686TIP3    H125935   0.655   3.240   4.846
 8686TIP3    H225936   0.643   3.122   4.753
 8687TIP3   OH225937   1.511   3.632   5.717
 8687TIP3    H125938   1.429   3.680   5.714
 8687TIP3    H225939   1.551   3.647   5.631
 8688TIP3   OH225940   0.987   3.465   5.071
 8688TIP3    H125941   0.933   3.494   5.145
 8688TIP3    H225942   1.071   3.442   5.111
 8689TIP3   OH225943   1.215   3.493   6.028
 8689TIP3    H125944   1.213   3.579   6.071
 8689TIP3    H225945   1.133   3.489   5.979
 8690TIP3   OH225946   0.229   3.441   5.488
 8690TIP3    H125947   0.196   3.380   5.422
 8690TIP3    H225948   0.301   3.394   5.530
 8691TIP3   OH225949   0.424   3.864   5.601
 8691TIP3    H125950   0.416   3.849   5.507
 8691TIP3    H225951   0.509   3.826   5.624
 8692TIP3   OH225952   0.343   3.431   5.866
 8692TIP3    H125953   0.370   3.392   5.783
 8692TIP3    H225954   0.390   3.514   5.871
 8693TIP3   OH225955   0.848   4.073   5.622
 8693TIP3    H125956   0.852   4.156   5.669
 8693TIP3    H225957   0.848   4.006   5.691
 8694TIP3   OH225958   0.548   3.959   6.171
 8694TIP3    H125959   0.494   4.021   6.220
 8694TIP3    H225960   0.487   3.915   6.112
 8695TIP3   OH225961   0.813   3.331   4.904
 8695TIP3    H125962   0.875   3.387   4.950
 8695TIP3    H225963   0.844   3.332   4.813
 8696TIP3   OH225964   0.378   3.604   6.236
 8696TIP3    H125965   0.383   3.687   6.283
 8696TIP3    H225966   0.285   3.593   6.218
 8697TIP3   OH225967   0.557   3.991   5.159
 8697TIP3    H125968   0.639   4.040   5.171
 8697TIP3    H225969   0.501   4.050   5.109
 8698TIP3   OH225970   0.358   4.146   6.246
 8698TIP3    H125971   0.340   4.151   6.152
 8698TIP3    H225972   0.279   4.110   6.284
 8699TIP3   OH225973   1.323   2.555   4.966
 8699TIP3    H125974   1.248   2.576   5.021
 8699TIP3    H225975   1.332   2.631   4.908
 8700TIP3   OH225976   0.118   3.297   5.272
 8700TIP3    H125977   0.051   3.348   5.227
 8700TIP3    H225978   0.070   3.227   5.315
 8701TIP3   OH225979   1.149   3.928   4.524
 8701TIP3    H125980   1.144   4.021   4.503
 8701TIP3    H225981   1.238   3.903   4.499
 8702TIP3   OH225982   9.705   3.716   6.253
 8702TIP3    H125983   9.624   3.723   6.202
 8702TIP3    H225984   9.697   3.632   6.299
 8703TIP3   OH225985   1.539   4.301   5.914
 8703TIP3    H125986   1.546   4.207   5.933
 8703TIP3    H225987   1.462   4.329   5.962
 8704TIP3   OH225988   0.696   4.134   6.017
 8704TIP3    H125989   0.691   4.220   6.057
 8704TIP3    H225990   0.648   4.076   6.076
 8705TIP3   OH225991   0.447   4.197   4.987
 8705TIP3    H125992   0.373   4.221   4.930
 8705TIP3    H225993   0.432   4.247   5.067
 8706TIP3   OH225994   0.016   3.993   5.422
 8706TIP3    H125995   0.053   4.067   5.470
 8706TIP3    H225996  -0.018   3.935   5.490
 8707TIP3   OH225997   0.656   4.152   4.616
 8707TIP3    H125998   0.708   4.078   4.585
 8707TIP3    H225999   0.686   4.167   4.706
 8708TIP3   OH226000   0.700   4.193   4.886
 8708TIP3    H126001   0.612   4.200   4.923
 8708TIP3    H226002   0.754   4.162   4.958
 8709TIP3   OH226003   1.453   3.454   6.193
 8709TIP3    H126004   1.371   3.463   6.144
 8709TIP3    H226005   1.473   3.361   6.189
 8710TIP3   OH226006   0.146   3.837   6.187
 8710TIP3    H126007   0.202   3.856   6.262
 8710TIP3    H226008   0.067   3.800   6.225
 8711TIP3   OH226009   0.464   2.678   5.991
 8711TIP3    H126010   0.380   2.646   5.957
 8711TIP3    H226011   0.442   2.759   6.036
 8712TIP3   OH226012   0.998   2.808   6.197
 8712TIP3    H126013   1.069   2.784   6.257
 8712TIP3    H226014   0.918   2.791   6.247
 8713TIP3   OH226015   1.211   3.224   6.103
 8713TIP3    H126016   1.176   3.218   6.191
 8713TIP3    H226017   1.200   3.316   6.079
 8714TIP3   OH226018   0.891   3.294   4.640
 8714TIP3    H126019   0.848   3.302   4.555
 8714TIP3    H226020   0.973   3.342   4.631
 8715TIP3   OH226021   0.587   2.738   4.959
 8715TIP3    H126022   0.560   2.741   5.051
 8715TIP3    H226023   0.556   2.652   4.928
 8716TIP3   OH226024   0.409   3.205   6.016
 8716TIP3    H126025   0.390   3.224   6.108
 8716TIP3    H226026   0.395   3.288   5.970
 8717TIP3   OH226027   0.299   3.105   5.502
 8717TIP3    H126028   0.209   3.076   5.516
 8717TIP3    H226029   0.321   3.074   5.414
 8718TIP3   OH226030   0.754   3.179   5.249
 8718TIP3    H126031   0.705   3.251   5.209
 8718TIP3    H226032   0.812   3.147   5.180
 8719TIP3   OH226033   0.951   3.433   6.316
 8719TIP3    H126034   0.924   3.367   6.381
 8719TIP3    H226035   1.042   3.451   6.338
 8720TIP3   OH226036   0.915   3.185   5.477
 8720TIP3    H126037   0.850   3.208   5.411
 8720TIP3    H226038   0.964   3.112   5.439
 8721TIP3   OH226039   0.289   3.237   6.272
 8721TIP3    H126040   0.302   3.284   6.355
 8721TIP3    H226041   0.274   3.147   6.299
 8722TIP3   OH226042   0.251   2.708   4.937
 8722TIP3    H126043   0.249   2.716   5.032
 8722TIP3    H226044   0.189   2.775   4.906
 8723TIP3   OH226045   9.764   2.792   5.722
 8723TIP3    H126046   9.796   2.785   5.812
 8723TIP3    H226047   9.768   2.702   5.688
 8724TIP3   OH226048   9.659   2.894   5.337
 8724TIP3    H126049   9.718   2.868   5.266
 8724TIP3    H226050   9.574   2.904   5.295
 8725TIP3   OH226051   0.966   3.439   5.907
 8725TIP3    H126052   0.990   3.371   5.843
 8725TIP3    H226053   0.916   3.392   5.973
 8726TIP3   OH226054   0.645   2.886   5.571
 8726TIP3    H126055   0.568   2.893   5.627
 8726TIP3    H226056   0.718   2.875   5.632
 8727TIP3   OH226057   0.079   2.941   5.504
 8727TIP3    H126058  -0.001   2.916   5.459
 8727TIP3    H226059   0.123   2.858   5.523
 8728TIP3   OH226060   0.307   2.971   5.264
 8728TIP3    H126061   0.401   2.981   5.249
 8728TIP3    H226062   0.267   2.989   5.179
 8729TIP3   OH226063   1.069   2.974   5.779
 8729TIP3    H126064   1.053   2.990   5.873
 8729TIP3    H226065   1.001   2.912   5.754
 8730TIP3   OH226066   0.174   2.990   5.028
 8730TIP3    H126067   0.091   2.958   4.993
 8730TIP3    H226068   0.217   3.033   4.954
 8731TIP3   OH226069   1.290   4.677   6.000
 8731TIP3    H126070   1.289   4.685   5.905
 8731TIP3    H226071   1.370   4.722   6.027
 8732TIP3   OH226072   0.325   3.832   6.393
 8732TIP3    H126073   0.377   3.863   6.467
 8732TIP3    H226074   0.267   3.765   6.431
 8733TIP3   OH226075   0.696   3.256   5.673
 8733TIP3    H126076   0.764   3.210   5.624
 8733TIP3    H226077   0.697   3.215   5.760
 8734TIP3   OH226078   0.233   2.709   5.557
 8734TIP3    H126079   0.191   2.640   5.607
 8734TIP3    H226080   0.288   2.663   5.493
 8735TIP3   OH226081   0.671   3.156   5.935
 8735TIP3    H126082   0.584   3.183   5.964
 8735TIP3    H226083   0.732   3.206   5.989
 8736TIP3   OH226084   0.400   3.533   5.042
 8736TIP3    H126085   0.334   3.467   5.018
 8736TIP3    H226086   0.376   3.560   5.130
 8737TIP3   OH226087   1.282   3.775   5.657
 8737TIP3    H126088   1.320   3.823   5.583
 8737TIP3    H226089   1.204   3.733   5.620
 8738TIP3   OH226090   0.845   2.835   4.968
 8738TIP3    H126091   0.751   2.818   4.962
 8738TIP3    H226092   0.851   2.930   4.980
 8739TIP3   OH226093   0.809   3.828   6.088
 8739TIP3    H126094   0.867   3.818   6.164
 8739TIP3    H226095   0.738   3.884   6.121
 8740TIP3   OH226096   0.912   3.099   5.032
 8740TIP3    H126097   1.007   3.100   5.046
 8740TIP3    H226098   0.894   3.177   4.981
 8741TIP3   OH226099   0.101   3.553   5.704
 8741TIP3    H126100   0.134   3.512   5.624
 8741TIP3    H226101   0.158   3.520   5.773
 8742TIP3   OH226102   0.571   3.671   4.877
 8742TIP3    H126103   0.531   3.758   4.871
 8742TIP3    H226104   0.512   3.621   4.933
 8743TIP3   OH226105   9.763   3.457   6.354
 8743TIP3    H126106   9.737   3.458   6.446
 8743TIP3    H226107   9.732   3.373   6.321
 8744TIP3   OH226108   0.723   3.588   6.357
 8744TIP3    H126109   0.659   3.528   6.319
 8744TIP3    H226110   0.808   3.551   6.330
 8745TIP3   OH226111   0.961   4.143   5.945
 8745TIP3    H126112   0.867   4.127   5.952
 8745TIP3    H226113   0.986   4.181   6.029
 8746TIP3   OH226114   1.319   3.184   4.850
 8746TIP3    H126115   1.262   3.139   4.788
 8746TIP3    H226116   1.327   3.273   4.815
 8747TIP3   OH226117   1.576   4.022   5.941
 8747TIP3    H126118   1.483   4.013   5.918
 8747TIP3    H226119   1.622   4.011   5.858
 8748TIP3   OH226120   1.063   4.003   4.787
 8748TIP3    H126121   1.043   3.932   4.848
 8748TIP3    H226122   1.088   3.958   4.706
 8749TIP3   OH226123   1.057   3.636   5.554
 8749TIP3    H126124   0.970   3.613   5.588
 8749TIP3    H226125   1.090   3.554   5.517
 8750TIP3   OH226126   0.275   3.860   5.365
 8750TIP3    H126127   0.275   3.941   5.313
 8750TIP3    H226128   0.205   3.872   5.429
 8751TIP3   OH226129   9.607   3.144   5.058
 8751TIP3    H126130   9.650   3.229   5.065
 8751TIP3    H226131   9.519   3.159   5.093
 8752TIP3   OH226132   0.300   3.607   5.278
 8752TIP3    H126133   0.303   3.697   5.312
 8752TIP3    H226134   0.276   3.554   5.354
 8753TIP3   OH226135   0.526   4.210   5.819
 8753TIP3    H126136   0.566   4.284   5.774
 8753TIP3    H226137   0.597   4.176   5.875
 8754TIP3   OH226138   0.203   4.084   5.222
 8754TIP3    H126139   0.144   4.116   5.291
 8754TIP3    H226140   0.270   4.152   5.215
 8755TIP3   OH226141   0.867   3.864   5.818
 8755TIP3    H126142   0.842   3.856   5.911
 8755TIP3    H226143   0.960   3.842   5.817
 8756TIP3   OH226144   0.832   3.734   4.688
 8756TIP3    H126145   0.896   3.708   4.754
 8756TIP3    H226146   0.747   3.707   4.725
 8757TIP3   OH226147   1.091   4.379   5.854
 8757TIP3    H126148   1.025   4.309   5.857
 8757TIP3    H226149   1.072   4.427   5.774
 8758TIP3   OH226150   1.149   4.201   4.480
 8758TIP3    H126151   1.181   4.267   4.418
 8758TIP3    H226152   1.076   4.243   4.525
 8759TIP3   OH226153   0.259   2.977   6.374
 8759TIP3    H126154   0.164   2.981   6.383
 8759TIP3    H226155   0.288   2.919   6.444
 8760TIP3   OH226156   1.020   3.649   4.864
 8760TIP3    H126157   1.004   3.595   4.942
 8760TIP3    H226158   1.115   3.657   4.860
 8761TIP3   OH226159   9.616   4.146   6.041
 8761TIP3    H126160   9.551   4.076   6.031
 8761TIP3    H226161   9.699   4.099   6.051
 8762TIP3   OH226162   0.214   3.685   4.683
 8762TIP3    H126163   0.226   3.593   4.660
 8762TIP3    H226164   0.205   3.685   4.778
 8763TIP3   OH226165   0.198   3.723   4.953
 8763TIP3    H126166   0.278   3.692   4.996
 8763TIP3    H226167   0.201   3.818   4.961
 8764TIP3   OH226168   9.687   3.396   5.146
 8764TIP3    H126169   9.608   3.423   5.192
 8764TIP3    H226170   9.712   3.473   5.095
 8765TIP3   OH226171   1.021   3.033   6.042
 8765TIP3    H126172   1.099   3.081   6.071
 8765TIP3    H226173   1.016   2.958   6.102
 8766TIP3   OH226174   0.914   2.782   5.233
 8766TIP3    H126175   0.892   2.802   5.142
 8766TIP3    H226176   0.958   2.861   5.265
 8767TIP3   OH226177   0.456   3.916   4.872
 8767TIP3    H126178   0.367   3.940   4.899
 8767TIP3    H226179   0.503   3.999   4.868
 8768TIP3   OH226180   0.582   2.978   5.317
 8768TIP3    H126181   0.641   3.049   5.294
 8768TIP3    H226182   0.603   2.958   5.408
 8769TIP3   OH226183   0.864   3.267   6.100
 8769TIP3    H126184   0.894   3.314   6.178
 8769TIP3    H226185   0.917   3.187   6.098
 8770TIP3   OH226186   0.732   2.673   5.409
 8770TIP3    H126187   0.710   2.750   5.462
 8770TIP3    H226188   0.802   2.703   5.351
 8771TIP3   OH226189   0.207   3.993   4.964
 8771TIP3    H126190   0.191   4.073   4.914
 8771TIP3    H226191   0.200   4.021   5.055
 8772TIP3   OH226192   0.246   2.700   5.216
 8772TIP3    H126193   0.239   2.790   5.248
 8772TIP3    H226194   0.340   2.682   5.219
 8773TIP3   OH226195   1.480   3.188   6.096
 8773TIP3    H126196   1.384   3.185   6.099
 8773TIP3    H226197   1.502   3.155   6.009
 8774TIP3   OH226198   1.143   3.376   5.470
 8774TIP3    H126199   1.066   3.321   5.485
 8774TIP3    H226200   1.210   3.338   5.527
 8775TIP3   OH226201   9.749   3.609   4.987
 8775TIP3    H126202   9.817   3.676   4.994
 8775TIP3    H226203   9.779   3.551   4.918
 8776TIP3   OH226204   9.696   2.879   5.066
 8776TIP3    H126205   9.669   2.970   5.071
 8776TIP3    H226206   9.614   2.830   5.062
 8777TIP3   OH226207   1.123   4.357   5.411
 8777TIP3    H126208   1.080   4.409   5.344
 8777TIP3    H226209   1.216   4.376   5.400
 8778TIP3   OH226210   0.203   2.599   5.942
 8778TIP3    H126211   0.178   2.566   5.855
 8778TIP3    H226212   0.189   2.524   6.000
 8779TIP3   OH226213   9.620   3.723   5.303
 8779TIP3    H126214   9.573   3.796   5.344
 8779TIP3    H226215   9.688   3.765   5.251
 8780TIP3   OH226216   0.421   4.324   6.451
 8780TIP3    H126217   0.506   4.292   6.480
 8780TIP3    H226218   0.398   4.267   6.377
 8781TIP3   OH226219   0.351   3.893   4.572
 8781TIP3    H126220   0.305   3.822   4.618
 8781TIP3    H226221   0.432   3.854   4.541
 8782TIP3   OH226222   1.016   4.239   6.193
 8782TIP3    H126223   1.017   4.165   6.253
 8782TIP3    H226224   1.090   4.294   6.221
 8783TIP3   OH226225   0.788   3.939   4.508
 8783TIP3    H126226   0.821   3.875   4.572
 8783TIP3    H226227   0.849   3.933   4.435
 8784TIP3   OH226228   0.044   3.790   6.637
 8784TIP3    H126229   0.085   3.722   6.583
 8784TIP3    H226230  -0.011   3.840   6.576
 8785TIP3   OH226231   0.045   3.420   4.817
 8785TIP3    H126232   0.094   3.386   4.891
 8785TIP3    H226233   0.106   3.417   4.744
 8786TIP3   OH226234   0.674   3.859   6.392
 8786TIP3    H126235   0.628   3.881   6.311
 8786TIP3    H226236   0.704   3.769   6.379
 8787TIP3   OH226237   0.546   3.608   4.609
 8787TIP3    H126238   0.547   3.617   4.705
 8787TIP3    H226239   0.538   3.514   4.594
 8788TIP3   OH226240   1.114   3.913   5.982
 8788TIP3    H126241   1.194   3.940   5.937
 8788TIP3    H226242   1.055   3.987   5.973
 8789TIP3   OH226243   0.256   3.425   6.596
 8789TIP3    H126244   0.343   3.384   6.596
 8789TIP3    H226245   0.254   3.478   6.676
 8790TIP3   OH226246   0.215   3.331   5.013
 8790TIP3    H126247   0.198   3.303   5.103
 8790TIP3    H226248   0.253   3.253   4.971
 8791TIP3   OH226249   0.556   3.401   6.223
 8791TIP3    H126250   0.487   3.466   6.233
 8791TIP3    H226251   0.603   3.427   6.144
 8792TIP3   OH226252   0.324   3.137   4.849
 8792TIP3    H126253   0.294   3.141   4.758
 8792TIP3    H226254   0.418   3.151   4.845
 8793TIP3   OH226255   0.990   3.781   6.328
 8793TIP3    H126256   1.069   3.752   6.282
 8793TIP3    H226257   0.991   3.730   6.410
 8794TIP3   OH226258   1.105   3.440   4.544
 8794TIP3    H126259   1.096   3.402   4.457
 8794TIP3    H226260   1.081   3.532   4.532
 8795TIP3   OH226261   0.624   3.173   6.360
 8795TIP3    H126262   0.630   3.101   6.297
 8795TIP3    H226263   0.603   3.249   6.306
 8796TIP3   OH226264   0.628   2.979   6.158
 8796TIP3    H126265   0.656   3.018   6.075
 8796TIP3    H226266   0.537   2.954   6.143
 8797TIP3   OH226267   0.668   3.518   6.008
 8797TIP3    H126268   0.747   3.572   6.007
 8797TIP3    H226269   0.601   3.572   5.966
 8798TIP3   OH226270   1.211   3.477   6.422
 8798TIP3    H126271   1.264   3.398   6.430
 8798TIP3    H226272   1.275   3.548   6.416
 8799TIP3   OH226273   1.234   3.743   6.158
 8799TIP3    H126274   1.182   3.802   6.104
 8799TIP3    H226275   1.324   3.757   6.129
 8800TIP3   OH226276   0.484   3.273   6.572
 8800TIP3    H126277   0.445   3.197   6.614
 8800TIP3    H226278   0.533   3.238   6.498
 8801TIP3   OH226279   0.734   2.754   6.277
 8801TIP3    H126280   0.698   2.833   6.236
 8801TIP3    H226281   0.667   2.687   6.263
 8802TIP3   OH226282   0.869   3.228   6.480
 8802TIP3    H126283   0.861   3.222   6.575
 8802TIP3    H226284   0.783   3.201   6.447
 8803TIP3   OH226285   1.108   3.175   6.346
 8803TIP3    H126286   1.030   3.180   6.402
 8803TIP3    H226287   1.180   3.159   6.406
 8804TIP3   OH226288   1.337   3.151   6.502
 8804TIP3    H126289   1.352   3.056   6.509
 8804TIP3    H226290   1.331   3.181   6.592
 8805TIP3   OH226291   0.360   3.070   6.709
 8805TIP3    H126292   0.353   2.990   6.657
 8805TIP3    H226293   0.396   3.042   6.793
 8806TIP3   OH226294   0.800   2.737   6.540
 8806TIP3    H126295   0.871   2.673   6.535
 8806TIP3    H226296   0.770   2.748   6.450
 8807TIP3   OH226297   0.880   2.954   6.692
 8807TIP3    H126298   0.855   2.884   6.632
 8807TIP3    H226299   0.807   3.015   6.689
 8808TIP3   OH226300   0.201   4.234   4.835
 8808TIP3    H126301   0.258   4.216   4.761
 8808TIP3    H226302   0.116   4.253   4.795
 8809TIP3   OH226303   9.310   3.581   5.056
 8809TIP3    H126304   9.372   3.648   5.025
 8809TIP3    H226305   9.227   3.605   5.015
 8810TIP3   OH226306   1.384   4.439   5.403
 8810TIP3    H126307   1.420   4.440   5.491
 8810TIP3    H226308   1.460   4.452   5.346
 8811TIP3   OH226309   1.422   4.423   5.686
 8811TIP3    H126310   1.369   4.344   5.677
 8811TIP3    H226311   1.490   4.400   5.749
 8812TIP3   OH226312   1.457   4.133   6.276
 8812TIP3    H126313   1.391   4.143   6.344
 8812TIP3    H226314   1.506   4.215   6.279
 8813TIP3   OH226315   1.297   3.650   4.867
 8813TIP3    H126316   1.353   3.723   4.837
 8813TIP3    H226317   1.344   3.614   4.942
 8814TIP3   OH226318   1.426   3.510   5.070
 8814TIP3    H126319   1.359   3.475   5.128
 8814TIP3    H226320   1.491   3.548   5.128
 8815TIP3   OH226321   1.468   3.914   5.500
 8815TIP3    H126322   1.520   3.840   5.468
 8815TIP3    H226323   1.489   3.986   5.440
 8816TIP3   OH226324   1.257   4.202   5.691
 8816TIP3    H126325   1.190   4.244   5.744
 8816TIP3    H226326   1.209   4.161   5.619
 8817TIP3   OH226327   1.320   3.423   4.715
 8817TIP3    H126328   1.245   3.425   4.655
 8817TIP3    H226329   1.310   3.503   4.767
 8818TIP3   OH226330   1.163   3.069   4.656
 8818TIP3    H126331   1.120   3.104   4.578
 8818TIP3    H226332   1.161   2.974   4.645
 8819TIP3   OH226333   1.215   3.373   5.203
 8819TIP3    H126334   1.222   3.278   5.190
 8819TIP3    H226335   1.196   3.383   5.296
 8820TIP3   OH226336   9.602   3.461   5.949
 8820TIP3    H126337   9.618   3.414   5.867
 8820TIP3    H226338   9.684   3.507   5.967
 8821TIP3   OH226339   1.495   3.785   6.073
 8821TIP3    H126340   1.557   3.715   6.054
 8821TIP3    H226341   1.527   3.859   6.022
 8822TIP3   OH226342   1.662   3.567   6.056
 8822TIP3    H126343   1.592   3.527   6.107
 8822TIP3    H226344   1.739   3.514   6.076
 8823TIP3   OH226345   1.134   2.796   4.617
 8823TIP3    H126346   1.200   2.773   4.683
 8823TIP3    H226347   1.052   2.760   4.652
 8824TIP3   OH226348   1.200   3.092   5.090
 8824TIP3    H126349   1.247   3.009   5.103
 8824TIP3    H226350   1.242   3.130   5.013
 8825TIP3   OH226351   1.355   3.257   5.617
 8825TIP3    H126352   1.436   3.275   5.568
 8825TIP3    H226353   1.369   3.297   5.702
 8826TIP3   OH226354   1.430   3.403   5.847
 8826TIP3    H126355   1.360   3.431   5.905
 8826TIP3    H226356   1.461   3.483   5.805
 8827TIP3   OH226357   0.091   3.073   6.623
 8827TIP3    H126358   0.178   3.113   6.623
 8827TIP3    H226359   0.031   3.147   6.627
 8828TIP3   OH226360   1.892   3.006   6.381
 8828TIP3    H126361   1.959   2.949   6.343
 8828TIP3    H226362   1.857   3.055   6.307
 8829TIP3   OH226363   1.319   2.844   5.144
 8829TIP3    H126364   1.366   2.830   5.226
 8829TIP3    H226365   1.258   2.771   5.138
 8830TIP3   OH226366   0.059   2.829   5.979
 8830TIP3    H126367   0.108   2.748   5.989
 8830TIP3    H226368   0.125   2.894   5.954
 8831TIP3   OH226369   9.562   3.125   5.992
 8831TIP3    H126370   9.652   3.158   5.994
 8831TIP3    H226371   9.509   3.199   6.024
 8832TIP3   OH226372   1.743   3.122   6.185
 8832TIP3    H126373   1.663   3.163   6.220
 8832TIP3    H226374   1.711   3.048   6.133
 8833TIP3   OH226375   1.357   2.754   4.778
 8833TIP3    H126376   1.407   2.694   4.724
 8833TIP3    H226377   1.411   2.833   4.785
 8834TIP3   OH226378   9.644   2.590   5.573
 8834TIP3    H126379   9.594   2.603   5.653
 8834TIP3    H226380   9.593   2.632   5.504
 8835TIP3   OH226381   0.941   4.325   5.050
 8835TIP3    H126382   0.999   4.313   4.974
 8835TIP3    H226383   0.986   4.390   5.103
 8836TIP3   OH226384   0.053   2.634   6.430
 8836TIP3    H126385   0.043   2.689   6.507
 8836TIP3    H226386   0.014   2.684   6.359
 8837TIP3   OH226387   0.125   4.082   6.371
 8837TIP3    H126388   0.090   4.170   6.385
 8837TIP3    H226389   0.164   4.058   6.455
 8838TIP3   OH226390   0.313   4.155   5.978
 8838TIP3    H126391   0.242   4.193   5.926
 8838TIP3    H226392   0.392   4.172   5.928
 8839TIP3   OH226393   0.695   4.392   6.111
 8839TIP3    H126394   0.733   4.376   6.197
 8839TIP3    H226395   0.762   4.441   6.064
 8840TIP3   OH226396   0.889   4.542   5.986
 8840TIP3    H126397   0.958   4.488   5.947
 8840TIP3    H226398   0.936   4.603   6.044
 8841TIP3   OH226399   1.653   2.878   6.075
 8841TIP3    H126400   1.571   2.881   6.026
 8841TIP3    H226401   1.682   2.787   6.070
 8842TIP3   OH226402   0.165   4.332   5.828
 8842TIP3    H126403   0.089   4.346   5.884
 8842TIP3    H226404   0.145   4.379   5.747
 8843TIP3   OH226405   0.603   4.423   5.665
 8843TIP3    H126406   0.533   4.423   5.600
 8843TIP3    H226407   0.602   4.511   5.702
 8844TIP3   OH226408   0.857   4.336   5.695
 8844TIP3    H126409   0.766   4.365   5.684
 8844TIP3    H226410   0.909   4.407   5.656
 8845TIP3   OH226411   1.051   4.524   5.617
 8845TIP3    H126412   1.044   4.611   5.576
 8845TIP3    H226413   1.080   4.467   5.546
 8846TIP3   OH226414   9.656   4.151   5.768
 8846TIP3    H126415   9.652   4.154   5.863
 8846TIP3    H226416   9.747   4.127   5.748
 8847TIP3   OH226417   0.096   4.075   5.680
 8847TIP3    H126418   0.115   3.981   5.675
 8847TIP3    H226419   0.180   4.118   5.664
 8848TIP3   OH226420   0.361   4.133   5.620
 8848TIP3    H126421   0.384   4.041   5.604
 8848TIP3    H226422   0.418   4.160   5.691
 8849TIP3   OH226423   0.863   2.786   5.713
 8849TIP3    H126424   0.822   2.716   5.762
 8849TIP3    H226425   0.932   2.743   5.663
 8850TIP3   OH226426   1.367   2.715   5.600
 8850TIP3    H126427   1.404   2.764   5.527
 8850TIP3    H226428   1.276   2.743   5.604
 8851TIP3   OH226429   1.480   2.792   5.363
 8851TIP3    H126430   1.548   2.729   5.337
 8851TIP3    H226431   1.521   2.878   5.350
 8852TIP3   OH226432   0.120   2.500   5.696
 8852TIP3    H126433   0.031   2.465   5.697
 8852TIP3    H226434   0.176   2.422   5.699
 8853TIP3   OH226435   9.705   2.397   5.378
 8853TIP3    H126436   9.756   2.438   5.308
 8853TIP3    H226437   9.711   2.459   5.451
 8854TIP3   OH226438   0.573   2.548   5.606
 8854TIP3    H126439   0.628   2.586   5.538
 8854TIP3    H226440   0.618   2.569   5.688
 8855TIP3   OH226441   1.075   2.663   5.586
 8855TIP3    H126442   1.106   2.626   5.503
 8855TIP3    H226443   1.085   2.592   5.649
 8856TIP3   OH226444   1.135   2.633   5.151
 8856TIP3    H126445   1.056   2.680   5.178
 8856TIP3    H226446   1.125   2.546   5.190
 8857TIP3   OH226447   0.037   2.527   5.148
 8857TIP3    H126448   0.084   2.458   5.100
 8857TIP3    H226449   0.106   2.585   5.180
 8858TIP3   OH226450   0.522   2.727   5.227
 8858TIP3    H126451   0.582   2.672   5.277
 8858TIP3    H226452   0.540   2.816   5.256
 8859TIP3   OH226453   0.383   4.151   4.657
 8859TIP3    H126454   0.477   4.165   4.641
 8859TIP3    H226455   0.368   4.060   4.631
 8860TIP3   OH226456   1.097   4.271   4.825
 8860TIP3    H126457   1.090   4.176   4.817
 8860TIP3    H226458   1.059   4.304   4.743
 8861TIP3   OH226459   0.354   2.823   6.588
 8861TIP3    H126460   0.317   2.742   6.623
 8861TIP3    H226461   0.447   2.819   6.610
 8862TIP3   OH226462   0.594   2.779   6.718
 8862TIP3    H126463   0.669   2.767   6.660
 8862TIP3    H226464   0.591   2.698   6.769
 8863TIP3   OH226465   9.557   4.027   4.727
 8863TIP3    H126466   9.566   4.083   4.805
 8863TIP3    H226467   9.635   3.972   4.728
 8864TIP3   OH226468   1.401   2.879   6.505
 8864TIP3    H126469   1.418   2.849   6.595
 8864TIP3    H226470   1.486   2.875   6.462
 8865TIP3   OH226471   1.309   4.401   6.024
 8865TIP3    H126472   1.233   4.380   5.969
 8865TIP3    H226473   1.309   4.497   6.028
 8866TIP3   OH226474   2.597   3.798   4.744
 8866TIP3    H126475   2.567   3.885   4.718
 8866TIP3    H226476   2.524   3.740   4.720
 8867TIP3   OH226477   2.597   3.790   5.173
 8867TIP3    H126478   2.649   3.772   5.252
 8867TIP3    H226479   2.550   3.709   5.156
 8868TIP3   OH226480   1.888   3.651   5.523
 8868TIP3    H126481   1.925   3.594   5.590
 8868TIP3    H226482   1.964   3.684   5.475
 8869TIP3   OH226483   2.861   4.086   4.835
 8869TIP3    H126484   2.848   4.026   4.908
 8869TIP3    H226485   2.885   4.169   4.876
 8870TIP3   OH226486   1.849   4.073   5.262
 8870TIP3    H126487   1.859   3.980   5.242
 8870TIP3    H226488   1.924   4.094   5.317
 8871TIP3   OH226489   1.563   3.278   4.984
 8871TIP3    H126490   1.528   3.363   5.010
 8871TIP3    H226491   1.489   3.233   4.945
 8872TIP3   OH226492   1.650   3.600   5.214
 8872TIP3    H126493   1.700   3.523   5.240
 8872TIP3    H226494   1.716   3.666   5.195
 8873TIP3   OH226495   2.520   4.548   4.849
 8873TIP3    H126496   2.544   4.465   4.806
 8873TIP3    H226497   2.541   4.534   4.941
 8874TIP3   OH226498   2.407   4.013   5.197
 8874TIP3    H126499   2.453   3.936   5.162
 8874TIP3    H226500   2.475   4.066   5.237
 8875TIP3   OH226501   3.439   3.329   5.196
 8875TIP3    H126502   3.453   3.413   5.239
 8875TIP3    H226503   3.466   3.343   5.106
 8876TIP3   OH226504   2.803   3.496   5.210
 8876TIP3    H126505   2.833   3.410   5.240
 8876TIP3    H226506   2.767   3.480   5.123
 8877TIP3   OH226507   2.160   3.153   5.170
 8877TIP3    H126508   2.138   3.227   5.114
 8877TIP3    H226509   2.102   3.083   5.140
 8878TIP3   OH226510   2.859   3.258   4.810
 8878TIP3    H126511   2.922   3.251   4.882
 8878TIP3    H226512   2.910   3.294   4.737
 8879TIP3   OH226513   1.783   3.373   5.303
 8879TIP3    H126514   1.866   3.355   5.347
 8879TIP3    H226515   1.787   3.322   5.222
 8880TIP3   OH226516   2.203   3.577   5.117
 8880TIP3    H126517   2.298   3.561   5.124
 8880TIP3    H226518   2.168   3.494   5.086
 8881TIP3   OH226519   3.488   3.550   5.358
 8881TIP3    H126520   3.399   3.586   5.355
 8881TIP3    H226521   3.525   3.586   5.440
 8882TIP3   OH226522   2.142   3.162   5.623
 8882TIP3    H126523   2.091   3.200   5.551
 8882TIP3    H226524   2.087   3.174   5.700
 8883TIP3   OH226525   2.493   4.015   4.604
 8883TIP3    H126526   2.452   3.984   4.524
 8883TIP3    H226527   2.441   4.091   4.630
 8884TIP3   OH226528   2.233   3.949   5.403
 8884TIP3    H126529   2.179   4.024   5.428
 8884TIP3    H226530   2.287   3.981   5.331
 8885TIP3   OH226531   3.017   3.277   5.034
 8885TIP3    H126532   2.969   3.259   5.115
 8885TIP3    H226533   3.071   3.353   5.054
 8886TIP3   OH226534   2.031   3.266   5.391
 8886TIP3    H126535   2.083   3.344   5.411
 8886TIP3    H226536   2.078   3.223   5.320
 8887TIP3   OH226537   2.066   4.168   5.453
 8887TIP3    H126538   2.116   4.250   5.458
 8887TIP3    H226539   2.003   4.175   5.524
 8888TIP3   OH226540   1.460   3.845   4.749
 8888TIP3    H126541   1.427   3.868   4.662
 8888TIP3    H226542   1.483   3.930   4.789
 8889TIP3   OH226543   2.918   4.324   4.970
 8889TIP3    H126544   2.843   4.320   5.029
 8889TIP3    H226545   2.932   4.418   4.955
 8890TIP3   OH226546   3.242   3.215   5.365
 8890TIP3    H126547   3.157   3.241   5.329
 8890TIP3    H226548   3.306   3.244   5.300
 8891TIP3   OH226549   2.481   2.850   5.359
 8891TIP3    H126550   2.475   2.758   5.386
 8891TIP3    H226551   2.404   2.891   5.398
 8892TIP3   OH226552   2.606   4.368   4.640
 8892TIP3    H126553   2.663   4.292   4.627
 8892TIP3    H226554   2.661   4.443   4.618
 8893TIP3   OH226555   2.747   4.137   4.588
 8893TIP3    H126556   2.669   4.081   4.591
 8893TIP3    H226557   2.796   4.114   4.667
 8894TIP3   OH226558   2.420   3.634   4.601
 8894TIP3    H126559   2.336   3.676   4.583
 8894TIP3    H226560   2.467   3.637   4.517
 8895TIP3   OH226561   2.386   3.451   4.287
 8895TIP3    H126562   2.451   3.500   4.337
 8895TIP3    H226563   2.436   3.380   4.246
 8896TIP3   OH226564   3.295   3.904   5.215
 8896TIP3    H126565   3.212   3.951   5.214
 8896TIP3    H226566   3.326   3.908   5.124
 8897TIP3   OH226567   2.783   3.721   4.559
 8897TIP3    H126568   2.728   3.753   4.631
 8897TIP3    H226569   2.867   3.700   4.600
 8898TIP3   OH226570   3.009   3.748   5.513
 8898TIP3    H126571   3.011   3.834   5.554
 8898TIP3    H226572   2.927   3.746   5.464
 8899TIP3   OH226573   2.004   3.706   4.963
 8899TIP3    H126574   1.970   3.644   4.899
 8899TIP3    H226575   2.078   3.662   5.004
 8900TIP3   OH226576   2.173   4.166   5.100
 8900TIP3    H126577   2.155   4.138   5.010
 8900TIP3    H226578   2.251   4.117   5.125
 8901TIP3   OH226579   2.103   3.713   5.341
 8901TIP3    H126580   2.144   3.681   5.261
 8901TIP3    H226581   2.150   3.794   5.361
 8902TIP3   OH226582   2.702   4.322   5.134
 8902TIP3    H126583   2.649   4.402   5.136
 8902TIP3    H226584   2.661   4.264   5.198
 8903TIP3   OH226585   2.610   3.586   4.391
 8903TIP3    H126586   2.671   3.643   4.438
 8903TIP3    H226587   2.641   3.588   4.300
 8904TIP3   OH226588   2.029   3.795   5.813
 8904TIP3    H126589   2.031   3.890   5.823
 8904TIP3    H226590   1.936   3.773   5.801
 8905TIP3   OH226591   2.357   4.253   4.640
 8905TIP3    H126592   2.439   4.301   4.652
 8905TIP3    H226593   2.299   4.315   4.597
 8906TIP3   OH226594   3.116   2.810   4.451
 8906TIP3    H126595   3.042   2.834   4.506
 8906TIP3    H226596   3.128   2.885   4.392
 8907TIP3   OH226597   1.880   3.544   4.763
 8907TIP3    H126598   1.801   3.591   4.736
 8907TIP3    H226599   1.850   3.455   4.783
 8908TIP3   OH226600   2.949   4.185   4.012
 8908TIP3    H126601   2.940   4.278   3.993
 8908TIP3    H226602   3.037   4.163   3.983
 8909TIP3   OH226603   1.673   3.960   5.694
 8909TIP3    H126604   1.603   3.940   5.632
 8909TIP3    H226605   1.706   3.874   5.721
 8910TIP3   OH226606   1.583   4.121   5.342
 8910TIP3    H126607   1.668   4.096   5.307
 8910TIP3    H226608   1.601   4.194   5.401
 8911TIP3   OH226609   2.245   4.465   4.477
 8911TIP3    H126610   2.202   4.450   4.393
 8911TIP3    H226611   2.211   4.549   4.506
 8912TIP3   OH226612   1.682   4.332   4.865
 8912TIP3    H126613   1.732   4.318   4.946
 8912TIP3    H226614   1.637   4.249   4.852
 8913TIP3   OH226615   2.449   4.413   4.107
 8913TIP3    H126616   2.499   4.339   4.073
 8913TIP3    H226617   2.483   4.427   4.195
 8914TIP3   OH226618   2.502   4.453   4.378
 8914TIP3    H126619   2.416   4.453   4.418
 8914TIP3    H226620   2.561   4.420   4.446
 8915TIP3   OH226621   3.251   3.701   5.670
 8915TIP3    H126622   3.168   3.715   5.625
 8915TIP3    H226623   3.268   3.608   5.662
 8916TIP3   OH226624   1.862   4.159   5.649
 8916TIP3    H126625   1.919   4.150   5.725
 8916TIP3    H226626   1.795   4.091   5.661
 8917TIP3   OH226627   2.244   2.942   5.483
 8917TIP3    H126628   2.159   2.909   5.451
 8917TIP3    H226629   2.222   3.024   5.527
 8918TIP3   OH226630   2.788   3.065   5.685
 8918TIP3    H126631   2.858   3.044   5.746
 8918TIP3    H226632   2.707   3.052   5.735
 8919TIP3   OH226633   3.004   3.482   5.600
 8919TIP3    H126634   2.965   3.473   5.687
 8919TIP3    H226635   2.989   3.574   5.576
 8920TIP3   OH226636   2.687   3.544   4.126
 8920TIP3    H126637   2.642   3.555   4.042
 8920TIP3    H226638   2.768   3.593   4.117
 8921TIP3   OH226639   2.397   2.987   4.453
 8921TIP3    H126640   2.361   2.994   4.541
 8921TIP3    H226641   2.360   2.906   4.418
 8922TIP3   OH226642   2.181   3.482   5.472
 8922TIP3    H126643   2.143   3.489   5.560
 8922TIP3    H226644   2.158   3.564   5.429
 8923TIP3   OH226645   2.063   3.357   5.014
 8923TIP3    H126646   1.974   3.335   5.039
 8923TIP3    H226647   2.072   3.324   4.924
 8924TIP3   OH226648   2.541   3.429   4.738
 8924TIP3    H126649   2.495   3.503   4.698
 8924TIP3    H226650   2.600   3.398   4.669
 8925TIP3   OH226651   2.744   3.681   5.796
 8925TIP3    H126652   2.717   3.619   5.864
 8925TIP3    H226653   2.830   3.712   5.824
 8926TIP3   OH226654   2.710   3.443   4.960
 8926TIP3    H126655   2.641   3.463   4.896
 8926TIP3    H226656   2.759   3.371   4.920
 8927TIP3   OH226657   2.016   3.474   5.698
 8927TIP3    H126658   2.078   3.524   5.750
 8927TIP3    H226659   1.998   3.396   5.752
 8928TIP3   OH226660   2.063   2.963   4.426
 8928TIP3    H126661   2.057   2.968   4.521
 8928TIP3    H226662   1.984   3.007   4.395
 8929TIP3   OH226663   1.616   3.013   5.292
 8929TIP3    H126664   1.684   3.050   5.348
 8929TIP3    H226665   1.657   3.004   5.207
 8930TIP3   OH226666   1.507   2.988   4.793
 8930TIP3    H126667   1.554   3.024   4.718
 8930TIP3    H226668   1.444   3.056   4.817
 8931TIP3   OH226669   2.759   3.697   5.386
 8931TIP3    H126670   2.783   3.630   5.322
 8931TIP3    H226671   2.714   3.649   5.456
 8932TIP3   OH226672   2.427   3.142   5.061
 8932TIP3    H126673   2.348   3.142   5.116
 8932TIP3    H226674   2.499   3.133   5.122
 8933TIP3   OH226675   1.823   3.232   5.070
 8933TIP3    H126676   1.735   3.236   5.031
 8933TIP3    H226677   1.852   3.143   5.055
 8934TIP3   OH226678   2.075   3.233   4.768
 8934TIP3    H126679   2.170   3.245   4.759
 8934TIP3    H226680   2.041   3.251   4.680
 8935TIP3   OH226681   2.865   3.231   5.265
 8935TIP3    H126682   2.851   3.247   5.358
 8935TIP3    H226683   2.796   3.171   5.239
 8936TIP3   OH226684   1.968   3.255   4.517
 8936TIP3    H126685   1.905   3.207   4.464
 8936TIP3    H226686   2.021   3.303   4.453
 8937TIP3   OH226687   3.089   4.928   5.551
 8937TIP3    H126688   3.101   4.839   5.516
 8937TIP3    H226689   3.011   4.921   5.606
 8938TIP3   OH226690   2.008   4.062   5.888
 8938TIP3    H126691   2.091   4.084   5.929
 8938TIP3    H226692   1.943   4.074   5.958
 8939TIP3   OH226693   2.477   3.521   5.167
 8939TIP3    H126694   2.544   3.474   5.119
 8939TIP3    H226695   2.474   3.478   5.253
 8940TIP3   OH226696   1.961   2.982   5.057
 8940TIP3    H126697   1.935   2.906   5.109
 8940TIP3    H226698   1.982   2.946   4.971
 8941TIP3   OH226699   2.448   3.417   5.428
 8941TIP3    H126700   2.360   3.450   5.450
 8941TIP3    H226701   2.507   3.468   5.483
 8942TIP3   OH226702   2.181   3.764   4.547
 8942TIP3    H126703   2.104   3.713   4.519
 8942TIP3    H226704   2.151   3.811   4.625
 8943TIP3   OH226705   3.053   4.044   5.187
 8943TIP3    H126706   3.095   4.098   5.119
 8943TIP3    H226707   2.982   3.999   5.141
 8944TIP3   OH226708   2.649   3.093   4.451
 8944TIP3    H126709   2.556   3.071   4.451
 8944TIP3    H226710   2.651   3.188   4.466
 8945TIP3   OH226711   2.707   3.356   4.523
 8945TIP3    H126712   2.802   3.361   4.536
 8945TIP3    H226713   2.686   3.435   4.473
 8946TIP3   OH226714   1.870   3.785   5.196
 8946TIP3    H126715   1.907   3.772   5.109
 8946TIP3    H226716   1.939   3.758   5.256
 8947TIP3   OH226717   2.333   3.926   4.389
 8947TIP3    H126718   2.284   4.009   4.385
 8947TIP3    H226719   2.278   3.869   4.443
 8948TIP3   OH226720   1.754   3.733   5.835
 8948TIP3    H126721   1.772   3.713   5.927
 8948TIP3    H226722   1.680   3.676   5.813
 8949TIP3   OH226723   2.507   3.818   5.856
 8949TIP3    H126724   2.457   3.834   5.776
 8949TIP3    H226725   2.592   3.787   5.824
 8950TIP3   OH226726   3.116   3.438   4.336
 8950TIP3    H126727   3.061   3.393   4.273
 8950TIP3    H226728   3.121   3.528   4.303
 8951TIP3   OH226729   2.863   4.262   4.283
 8951TIP3    H126730   2.835   4.198   4.348
 8951TIP3    H226731   2.881   4.209   4.205
 8952TIP3   OH226732   2.843   3.896   5.054
 8952TIP3    H126733   2.753   3.869   5.076
 8952TIP3    H226734   2.882   3.818   5.015
 8953TIP3   OH226735   2.001   4.138   4.861
 8953TIP3    H126736   1.990   4.208   4.798
 8953TIP3    H226737   1.944   4.162   4.934
 8954TIP3   OH226738   1.555   3.413   4.571
 8954TIP3    H126739   1.600   3.495   4.595
 8954TIP3    H226740   1.475   3.413   4.624
 8955TIP3   OH226741   2.065   3.890   4.758
 8955TIP3    H126742   2.052   3.979   4.790
 8955TIP3    H226743   2.045   3.834   4.833
 8956TIP3   OH226744   1.908   4.354   4.707
 8956TIP3    H126745   1.824   4.358   4.752
 8956TIP3    H226746   1.941   4.444   4.711
 8957TIP3   OH226747   2.655   4.095   5.302
 8957TIP3    H126748   2.712   4.113   5.377
 8957TIP3    H226749   2.707   4.040   5.244
 8958TIP3   OH226750   2.629   3.993   4.159
 8958TIP3    H126751   2.681   3.961   4.232
 8958TIP3    H226752   2.544   3.949   4.169
 8959TIP3   OH226753   2.938   4.458   3.968
 8959TIP3    H126754   2.957   4.519   3.897
 8959TIP3    H226755   2.867   4.500   4.017
 8960TIP3   OH226756   1.971   3.227   5.833
 8960TIP3    H126757   1.876   3.236   5.842
 8960TIP3    H226758   1.998   3.182   5.913
 8961TIP3   OH226759   2.809   3.891   4.339
 8961TIP3    H126760   2.794   3.844   4.422
 8961TIP3    H226761   2.903   3.906   4.337
 8962TIP3   OH226762   1.704   4.339   5.483
 8962TIP3    H126763   1.763   4.287   5.538
 8962TIP3    H226764   1.719   4.429   5.510
 8963TIP3   OH226765   1.978   3.960   4.182
 8963TIP3    H126766   1.990   3.869   4.155
 8963TIP3    H226767   1.968   3.956   4.277
 8964TIP3   OH226768   1.919   3.974   4.456
 8964TIP3    H126769   1.973   3.951   4.532
 8964TIP3    H226770   1.918   4.070   4.456
 8965TIP3   OH226771   1.651   3.662   4.657
 8965TIP3    H126772   1.589   3.713   4.710
 8965TIP3    H226773   1.673   3.720   4.584
 8966TIP3   OH226774   2.817   3.290   5.528
 8966TIP3    H126775   2.891   3.340   5.561
 8966TIP3    H226776   2.808   3.216   5.588
 8967TIP3   OH226777   2.710   3.041   4.720
 8967TIP3    H126778   2.689   3.061   4.629
 8967TIP3    H226779   2.754   3.120   4.753
 8968TIP3   OH226780   2.186   4.153   4.377
 8968TIP3    H126781   2.102   4.179   4.417
 8968TIP3    H226782   2.215   4.232   4.331
 8969TIP3   OH226783   2.354   3.240   4.811
 8969TIP3    H126784   2.416   3.309   4.785
 8969TIP3    H226785   2.378   3.219   4.901
 8970TIP3   OH226786   2.652   3.531   5.579
 8970TIP3    H126787   2.679   3.578   5.658
 8970TIP3    H226788   2.702   3.450   5.581
 8971TIP3   OH226789   2.524   2.935   4.897
 8971TIP3    H126790   2.500   3.012   4.950
 8971TIP3    H226791   2.594   2.967   4.840
 8972TIP3   OH226792   1.938   4.247   4.457
 8972TIP3    H126793   1.920   4.319   4.397
 8972TIP3    H226794   1.927   4.286   4.544
 8973TIP3   OH226795   2.035   2.960   4.706
 8973TIP3    H126796   2.024   3.051   4.734
 8973TIP3    H226797   2.129   2.944   4.715
 8974TIP3   OH226798   3.269   3.430   5.572
 8974TIP3    H126799   3.174   3.438   5.585
 8974TIP3    H226800   3.278   3.369   5.500
 8975TIP3   OH226801   2.938   3.637   4.961
 8975TIP3    H126802   2.860   3.583   4.974
 8975TIP3    H226803   3.004   3.598   5.017
 8976TIP3   OH226804   1.677   3.839   4.440
 8976TIP3    H126805   1.749   3.901   4.452
 8976TIP3    H226806   1.709   3.777   4.374
 8977TIP3   OH226807   1.582   3.135   4.575
 8977TIP3    H126808   1.592   3.230   4.581
 8977TIP3    H226809   1.536   3.121   4.493
 8978TIP3   OH226810   2.951   4.608   4.942
 8978TIP3    H126811   2.893   4.656   4.882
 8978TIP3    H226812   3.039   4.630   4.914
 8979TIP3   OH226813   1.982   2.857   5.441
 8979TIP3    H126814   1.953   2.825   5.355
 8979TIP3    H226815   1.974   2.781   5.499
 8980TIP3   OH226816   1.503   4.111   4.840
 8980TIP3    H126817   1.466   4.149   4.920
 8980TIP3    H226818   1.459   4.158   4.769
 8981TIP3   OH226819   1.732   4.668   5.900
 8981TIP3    H126820   1.813   4.690   5.946
 8981TIP3    H226821   1.728   4.573   5.902
 8982TIP3   OH226822   2.152   4.557   5.886
 8982TIP3    H126823   2.195   4.477   5.917
 8982TIP3    H226824   2.176   4.562   5.793
 8983TIP3   OH226825   2.131   4.160   4.063
 8983TIP3    H126826   2.086   4.091   4.113
 8983TIP3    H226827   2.206   4.115   4.024
 8984TIP3   OH226828   2.576   4.201   3.989
 8984TIP3    H126829   2.609   4.137   4.051
 8984TIP3    H226830   2.634   4.194   3.913
 8985TIP3   OH226831   1.809   4.050   6.090
 8985TIP3    H126832   1.836   3.959   6.099
 8985TIP3    H226833   1.722   4.046   6.051
 8986TIP3   OH226834   1.796   3.650   4.281
 8986TIP3    H126835   1.846   3.625   4.359
 8986TIP3    H226836   1.863   3.667   4.215
 8987TIP3   OH226837   2.373   3.874   4.123
 8987TIP3    H126838   2.349   3.884   4.216
 8987TIP3    H226839   2.351   3.783   4.103
 8988TIP3   OH226840   2.910   4.160   5.432
 8988TIP3    H126841   2.960   4.145   5.351
 8988TIP3    H226842   2.900   4.255   5.436
 8989TIP3   OH226843   1.920   3.793   6.091
 8989TIP3    H126844   1.994   3.787   6.030
 8989TIP3    H226845   1.960   3.811   6.176
 8990TIP3   OH226846   1.966   3.594   4.495
 8990TIP3    H126847   1.948   3.566   4.585
 8990TIP3    H226848   2.018   3.522   4.459
 8991TIP3   OH226849   2.241   3.638   5.735
 8991TIP3    H126850   2.177   3.701   5.769
 8991TIP3    H226851   2.300   3.691   5.682
 8992TIP3   OH226852   2.117   3.413   4.347
 8992TIP3    H126853   2.086   3.419   4.257
 8992TIP3    H226854   2.211   3.424   4.342
 8993TIP3   OH226855   2.794   4.038   5.870
 8993TIP3    H126856   2.886   4.063   5.879
 8993TIP3    H226857   2.777   3.981   5.946
 8994TIP3   OH226858   2.899   3.694   4.031
 8994TIP3    H126859   2.889   3.656   3.944
 8994TIP3    H226860   2.878   3.787   4.020
 8995TIP3   OH226861   2.392   3.445   5.861
 8995TIP3    H126862   2.400   3.373   5.799
 8995TIP3    H226863   2.348   3.514   5.813
 8996TIP3   OH226864   2.402   3.246   5.658
 8996TIP3    H126865   2.428   3.283   5.574
 8996TIP3    H226866   2.310   3.219   5.645
 8997TIP3   OH226867   2.397   3.808   5.583
 8997TIP3    H126868   2.482   3.816   5.539
 8997TIP3    H226869   2.338   3.861   5.530
 8998TIP3   OH226870   3.001   3.726   5.916
 8998TIP3    H126871   3.053   3.646   5.926
 8998TIP3    H226872   3.064   3.793   5.889
 8999TIP3   OH226873   3.047   4.002   5.623
 8999TIP3    H126874   2.986   4.058   5.574
 8999TIP3    H226875   3.133   4.023   5.587
 9000TIP3   OH226876   2.279   3.523   6.108
 9000TIP3    H126877   2.209   3.459   6.124
 9000TIP3    H226878   2.308   3.504   6.019
 9001TIP3   OH226879   2.522   3.017   5.764
 9001TIP3    H126880   2.482   3.097   5.730
 9001TIP3    H226881   2.455   2.950   5.751
 9002TIP3   OH226882   2.651   3.484   5.965
 9002TIP3    H126883   2.640   3.474   6.059
 9002TIP3    H226884   2.563   3.471   5.929
 9003TIP3   OH226885   2.893   3.419   5.837
 9003TIP3    H126886   2.814   3.429   5.891
 9003TIP3    H226887   2.964   3.409   5.901
 9004TIP3   OH226888   3.132   3.412   5.988
 9004TIP3    H126889   3.146   3.318   5.994
 9004TIP3    H226890   3.126   3.442   6.079
 9005TIP3   OH226891   2.107   3.306   6.170
 9005TIP3    H126892   2.116   3.217   6.135
 9005TIP3    H226893   2.146   3.302   6.257
 9006TIP3   OH226894   2.585   2.990   6.030
 9006TIP3    H126895   2.655   2.925   6.023
 9006TIP3    H226896   2.557   3.004   5.940
 9007TIP3   OH226897   2.684   3.203   6.176
 9007TIP3    H126898   2.652   3.132   6.120
 9007TIP3    H226899   2.614   3.267   6.176
 9008TIP3   OH226900   1.937   4.455   4.275
 9008TIP3    H126901   2.027   4.435   4.250
 9008TIP3    H226902   1.902   4.502   4.199
 9009TIP3   OH226903   1.403   3.843   4.452
 9009TIP3    H126904   1.498   3.852   4.451
 9009TIP3    H226905   1.387   3.757   4.413
 9010TIP3   OH226906   1.306   4.417   4.929
 9010TIP3    H126907   1.242   4.363   4.882
 9010TIP3    H226908   1.350   4.356   4.988
 9011TIP3   OH226909   1.454   4.247   5.094
 9011TIP3    H126910   1.452   4.177   5.159
 9011TIP3    H226911   1.507   4.315   5.133
 9012TIP3   OH226912   3.209   4.677   4.879
 9012TIP3    H126913   3.216   4.764   4.920
 9012TIP3    H226914   3.266   4.682   4.803
 9013TIP3   OH226915   3.221   4.391   5.775
 9013TIP3    H126916   3.152   4.397   5.841
 9013TIP3    H226917   3.260   4.479   5.773
 9014TIP3   OH226918   3.089   3.908   4.352
 9014TIP3    H126919   3.144   3.981   4.323
 9014TIP3    H226920   3.135   3.871   4.428
 9015TIP3   OH226921   3.220   3.765   4.555
 9015TIP3    H126922   3.152   3.731   4.613
 9015TIP3    H226923   3.285   3.804   4.614
 9016TIP3   OH226924   3.246   4.150   5.004
 9016TIP3    H126925   3.291   4.079   4.957
 9016TIP3    H226926   3.227   4.216   4.937
 9017TIP3   OH226927   3.113   3.679   4.204
 9017TIP3    H126928   3.039   3.679   4.143
 9017TIP3    H226929   3.101   3.758   4.255
 9018TIP3   OH226930   2.968   3.322   4.135
 9018TIP3    H126931   2.918   3.359   4.062
 9018TIP3    H226932   2.963   3.228   4.122
 9019TIP3   OH226933   3.012   3.631   4.693
 9019TIP3    H126934   3.016   3.536   4.680
 9019TIP3    H226935   2.992   3.642   4.786
 9020TIP3   OH226936   1.624   3.687   5.473
 9020TIP3    H126937   1.617   3.657   5.383
 9020TIP3    H226938   1.718   3.684   5.492
 9021TIP3   OH226939   3.302   4.040   5.529
 9021TIP3    H126940   3.363   3.967   5.542
 9021TIP3    H226941   3.315   4.066   5.438
 9022TIP3   OH226942   3.466   3.824   5.553
 9022TIP3    H126943   3.393   3.780   5.596
 9022TIP3    H226944   3.542   3.769   5.573
 9023TIP3   OH226945   2.933   3.048   4.103
 9023TIP3    H126946   2.994   3.027   4.174
 9023TIP3    H226947   2.848   3.020   4.135
 9024TIP3   OH226948   2.998   3.350   4.579
 9024TIP3    H126949   3.044   3.267   4.591
 9024TIP3    H226950   3.037   3.389   4.501
 9025TIP3   OH226951   3.152   3.513   5.103
 9025TIP3    H126952   3.232   3.531   5.054
 9025TIP3    H226953   3.166   3.553   5.188
 9026TIP3   OH226954   3.224   3.662   5.331
 9026TIP3    H126955   3.153   3.685   5.391
 9026TIP3    H226956   3.251   3.746   5.293
 9027TIP3   OH226957   1.845   3.364   6.101
 9027TIP3    H126958   1.939   3.363   6.122
 9027TIP3    H226959   1.811   3.284   6.142
 9028TIP3   OH226960   3.693   3.257   5.870
 9028TIP3    H126961   3.759   3.202   5.828
 9028TIP3    H226962   3.655   3.308   5.799
 9029TIP3   OH226963   3.117   3.102   4.628
 9029TIP3    H126964   3.164   3.087   4.710
 9029TIP3    H226965   3.054   3.030   4.623
 9030TIP3   OH226966   1.823   3.084   5.464
 9030TIP3    H126967   1.876   3.005   5.467
 9030TIP3    H226968   1.885   3.154   5.444
 9031TIP3   OH226969   1.598   3.346   5.517
 9031TIP3    H126970   1.651   3.340   5.437
 9031TIP3    H226971   1.627   3.428   5.558
 9032TIP3   OH226972   3.540   3.382   5.681
 9032TIP3    H126973   3.468   3.422   5.729
 9032TIP3    H226974   3.499   3.317   5.625
 9033TIP3   OH226975   3.156   3.008   4.265
 9033TIP3    H126976   3.206   2.949   4.209
 9033TIP3    H226977   3.209   3.087   4.271
 9034TIP3   OH226978   1.586   2.853   5.017
 9034TIP3    H126979   1.502   2.844   5.062
 9034TIP3    H226980   1.566   2.909   4.941
 9035TIP3   OH226981   2.746   4.577   4.544
 9035TIP3    H126982   2.803   4.570   4.468
 9035TIP3    H226983   2.793   4.635   4.604
 9036TIP3   OH226984   1.816   2.896   5.841
 9036TIP3    H126985   1.770   2.899   5.924
 9036TIP3    H226986   1.763   2.951   5.782
 9037TIP3   OH226987   1.778   4.411   5.983
 9037TIP3    H126988   1.702   4.361   5.955
 9037TIP3    H226989   1.810   4.364   6.061
 9038TIP3   OH226990   3.449   3.134   5.565
 9038TIP3    H126991   3.366   3.134   5.518
 9038TIP3    H226992   3.481   3.044   5.560
 9039TIP3   OH226993   1.718   4.620   5.505
 9039TIP3    H126994   1.634   4.664   5.493
 9039TIP3    H226995   1.767   4.676   5.565
 9040TIP3   OH226996   1.956   4.672   5.351
 9040TIP3    H126997   1.888   4.626   5.400
 9040TIP3    H226998   1.922   4.677   5.261
 9041TIP3   OH226999   2.332   4.716   5.108
 9041TIP3    H127000   2.253   4.680   5.069
 9041TIP3    H227001   2.303   4.753   5.192
 9042TIP3   OH227002   2.562   4.565   5.137
 9042TIP3    H127003   2.483   4.616   5.121
 9042TIP3    H227004   2.583   4.581   5.229
 9043TIP3   OH227005   1.631   4.425   5.227
 9043TIP3    H127006   1.657   4.405   5.317
 9043TIP3    H227007   1.702   4.390   5.174
 9044TIP3   OH227008   1.838   4.294   5.092
 9044TIP3    H127009   1.842   4.216   5.149
 9044TIP3    H227010   1.918   4.342   5.113
 9045TIP3   OH227011   2.078   4.418   5.171
 9045TIP3    H127012   2.124   4.336   5.154
 9045TIP3    H227013   2.103   4.442   5.260
 9046TIP3   OH227014   2.651   3.049   5.201
 9046TIP3    H127015   2.613   2.979   5.255
 9046TIP3    H227016   2.720   3.005   5.150
 9047TIP3   OH227017   3.159   2.968   5.080
 9047TIP3    H127018   3.200   3.017   5.009
 9047TIP3    H227019   3.072   3.006   5.089
 9048TIP3   OH227020   3.277   3.049   4.847
 9048TIP3    H127021   3.345   2.986   4.823
 9048TIP3    H227022   3.318   3.134   4.834
 9049TIP3   OH227023   1.895   2.752   5.200
 9049TIP3    H127024   1.807   2.717   5.210
 9049TIP3    H227025   1.951   2.675   5.190
 9050TIP3   OH227026   1.716   2.663   4.854
 9050TIP3    H127027   1.742   2.713   4.776
 9050TIP3    H227028   1.678   2.729   4.912
 9051TIP3   OH227029   2.385   2.786   5.097
 9051TIP3    H127030   2.430   2.839   5.030
 9051TIP3    H227031   2.421   2.817   5.180
 9052TIP3   OH227032   2.862   2.927   5.072
 9052TIP3    H127033   2.892   2.892   4.988
 9052TIP3    H227034   2.874   2.854   5.134
 9053TIP3   OH227035   2.931   2.892   4.637
 9053TIP3    H127036   2.852   2.940   4.662
 9053TIP3    H227037   2.920   2.806   4.676
 9054TIP3   OH227038   1.386   4.236   4.625
 9054TIP3    H127039   1.304   4.200   4.591
 9054TIP3    H227040   1.391   4.324   4.587
 9055TIP3   OH227041   1.823   2.796   4.619
 9055TIP3    H127042   1.869   2.732   4.565
 9055TIP3    H227043   1.892   2.852   4.654
 9056TIP3   OH227044   2.311   2.988   4.716
 9056TIP3    H127045   2.371   2.938   4.772
 9056TIP3    H227046   2.323   3.079   4.744
 9057TIP3   OH227047   2.194   4.383   4.208
 9057TIP3    H127048   2.277   4.409   4.171
 9057TIP3    H227049   2.164   4.311   4.152
 9058TIP3   OH227050   2.896   4.531   4.312
 9058TIP3    H127051   2.889   4.436   4.307
 9058TIP3    H227052   2.853   4.563   4.233
 9059TIP3   OH227053   2.125   3.035   6.079
 9059TIP3    H127054   2.090   2.971   6.141
 9059TIP3    H227055   2.217   3.045   6.103
 9060TIP3   OH227056   2.370   3.040   6.206
 9060TIP3    H127057   2.448   3.019   6.155
 9060TIP3    H227058   2.367   2.972   6.273
 9061TIP3   OH227059   1.510   4.230   4.269
 9061TIP3    H127060   1.515   4.240   4.364
 9061TIP3    H227061   1.589   4.181   4.245
 9062TIP3   OH227062   3.196   3.140   5.991
 9062TIP3    H127063   3.212   3.111   6.081
 9062TIP3    H227064   3.281   3.134   5.948
 9063TIP3   OH227065   4.399   4.075   4.220
 9063TIP3    H127066   4.379   4.160   4.182
 9063TIP3    H227067   4.325   4.019   4.194
 9064TIP3   OH227068   4.381   4.049   4.659
 9064TIP3    H127069   4.440   4.030   4.732
 9064TIP3    H227070   4.338   3.965   4.641
 9065TIP3   OH227071   3.675   3.906   5.011
 9065TIP3    H127072   3.715   3.852   5.079
 9065TIP3    H227073   3.749   3.946   4.965
 9066TIP3   OH227074   4.637   4.365   4.292
 9066TIP3    H127075   4.630   4.293   4.354
 9066TIP3    H227076   4.647   4.443   4.346
 9067TIP3   OH227077   3.702   4.336   4.693
 9067TIP3    H127078   3.678   4.244   4.700
 9067TIP3    H227079   3.796   4.336   4.672
 9068TIP3   OH227080   3.360   3.534   4.469
 9068TIP3    H127081   3.324   3.619   4.496
 9068TIP3    H227082   3.285   3.488   4.431
 9069TIP3   OH227083   3.447   3.855   4.699
 9069TIP3    H127084   3.498   3.778   4.723
 9069TIP3    H227085   3.512   3.922   4.680
 9070TIP3   OH227086   4.258   4.820   4.354
 9070TIP3    H127087   4.309   4.743   4.330
 9070TIP3    H227088   4.243   4.811   4.448
 9071TIP3   OH227089   4.207   4.274   4.662
 9071TIP3    H127090   4.253   4.194   4.638
 9071TIP3    H227091   4.275   4.330   4.701
 9072TIP3   OH227092   5.233   3.587   4.683
 9072TIP3    H127093   5.247   3.672   4.724
 9072TIP3    H227094   5.254   3.601   4.590
 9073TIP3   OH227095   4.598   3.752   4.695
 9073TIP3    H127096   4.630   3.666   4.725
 9073TIP3    H227097   4.563   3.735   4.608
 9074TIP3   OH227098   3.957   3.411   4.655
 9074TIP3    H127099   3.936   3.484   4.597
 9074TIP3    H227100   3.900   3.340   4.626
 9075TIP3   OH227101   4.655   3.514   4.296
 9075TIP3    H127102   4.718   3.508   4.367
 9075TIP3    H227103   4.706   3.549   4.222
 9076TIP3   OH227104   3.581   3.628   4.786
 9076TIP3    H127105   3.664   3.611   4.831
 9076TIP3    H227106   3.586   3.578   4.705
 9077TIP3   OH227107   4.000   3.829   4.601
 9077TIP3    H127108   4.094   3.815   4.608
 9077TIP3    H227109   3.965   3.746   4.567
 9078TIP3   OH227110   5.282   3.810   4.845
 9078TIP3    H127111   5.193   3.843   4.836
 9078TIP3    H227112   5.312   3.844   4.930
 9079TIP3   OH227113   3.937   3.418   5.109
 9079TIP3    H127114   3.888   3.455   5.036
 9079TIP3    H227115   3.882   3.434   5.186
 9080TIP3   OH227116   4.322   4.297   4.059
 9080TIP3    H127117   4.270   4.254   3.991
 9080TIP3    H227118   4.265   4.367   4.093
 9081TIP3   OH227119   4.039   4.195   4.866
 9081TIP3    H127120   3.990   4.269   4.902
 9081TIP3    H227121   4.090   4.232   4.795
 9082TIP3   OH227122   4.810   3.536   4.520
 9082TIP3    H127123   4.766   3.515   4.602
 9082TIP3    H227124   4.865   3.611   4.541
 9083TIP3   OH227125   3.829   3.524   4.877
 9083TIP3    H127126   3.882   3.600   4.900
 9083TIP3    H227127   3.877   3.482   4.806
 9084TIP3   OH227128   3.893   4.409   4.965
 9084TIP3    H127129   3.834   4.453   4.904
 9084TIP3    H227130   3.836   4.382   5.037
 9085TIP3   OH227131   3.256   4.103   4.235
 9085TIP3    H127132   3.219   4.125   4.149
 9085TIP3    H227133   3.279   4.188   4.273
 9086TIP3   OH227134   4.631   4.607   4.423
 9086TIP3    H127135   4.576   4.603   4.501
 9086TIP3    H227136   4.664   4.697   4.421
 9087TIP3   OH227137   5.033   3.477   4.851
 9087TIP3    H127138   4.949   3.497   4.812
 9087TIP3    H227139   5.098   3.504   4.786
 9088TIP3   OH227140   4.280   3.107   4.846
 9088TIP3    H127141   4.273   3.015   4.871
 9088TIP3    H227142   4.202   3.148   4.884
 9089TIP3   OH227143   4.410   4.625   4.223
 9089TIP3    H127144   4.468   4.574   4.279
 9089TIP3    H227145   4.469   4.664   4.158
 9090TIP3   OH227146   4.589   4.427   4.028
 9090TIP3    H127147   4.504   4.386   4.012
 9090TIP3    H227148   4.614   4.399   4.116
 9091TIP3   OH227149   4.911   4.442   4.841
 9091TIP3    H127150   4.891   4.384   4.767
 9091TIP3    H227151   4.915   4.529   4.803
 9092TIP3   OH227152   4.220   3.903   4.088
 9092TIP3    H127153   4.135   3.941   4.067
 9092TIP3    H227154   4.263   3.891   4.003
 9093TIP3   OH227155   4.180   3.684   3.769
 9093TIP3    H127156   4.241   3.738   3.820
 9093TIP3    H227157   4.235   3.616   3.731
 9094TIP3   OH227158   5.098   4.153   4.689
 9094TIP3    H127159   5.014   4.197   4.682
 9094TIP3    H227160   5.134   4.157   4.600
 9095TIP3   OH227161   4.569   3.933   4.056
 9095TIP3    H127162   4.522   3.987   4.119
 9095TIP3    H227163   4.660   3.932   4.088
 9096TIP3   OH227164   4.804   3.997   4.987
 9096TIP3    H127165   4.803   4.076   5.041
 9096TIP3    H227166   4.722   4.000   4.938
 9097TIP3   OH227167   3.804   3.962   4.448
 9097TIP3    H127168   3.768   3.900   4.384
 9097TIP3    H227169   3.877   3.915   4.489
 9098TIP3   OH227170   3.959   4.395   4.590
 9098TIP3    H127171   3.932   4.381   4.499
 9098TIP3    H227172   4.044   4.353   4.597
 9099TIP3   OH227173   3.899   3.961   4.825
 9099TIP3    H127174   3.938   3.922   4.747
 9099TIP3    H227175   3.949   4.041   4.840
 9100TIP3   OH227176   4.469   4.605   4.642
 9100TIP3    H127177   4.457   4.679   4.701
 9100TIP3    H227178   4.449   4.528   4.696
 9101TIP3   OH227179   4.111   4.493   5.118
 9101TIP3    H127180   4.075   4.575   5.151
 9101TIP3    H227181   4.041   4.456   5.064
 9102TIP3   OH227182   4.394   3.834   3.874
 9102TIP3    H127183   4.458   3.882   3.926
 9102TIP3    H227184   4.429   3.837   3.785
 9103TIP3   OH227185   3.824   4.024   5.303
 9103TIP3    H127186   3.833   4.115   5.329
 9103TIP3    H227187   3.730   4.009   5.296
 9104TIP3   OH227188   4.170   4.518   4.130
 9104TIP3    H127189   4.241   4.565   4.172
 9104TIP3    H227190   4.116   4.585   4.090
 9105TIP3   OH227191   4.916   3.067   3.942
 9105TIP3    H127192   4.839   3.089   3.996
 9105TIP3    H227193   4.927   3.143   3.885
 9106TIP3   OH227194   3.680   3.801   4.249
 9106TIP3    H127195   3.603   3.850   4.219
 9106TIP3    H227196   3.647   3.714   4.269
 9107TIP3   OH227197   4.727   4.458   3.472
 9107TIP3    H127198   4.739   4.553   3.471
 9107TIP3    H227199   4.815   4.422   3.459
 9108TIP3   OH227200   3.488   4.190   5.157
 9108TIP3    H127201   3.403   4.176   5.115
 9108TIP3    H227202   3.506   4.109   5.204
 9109TIP3   OH227203   3.287   4.403   4.839
 9109TIP3    H127204   3.375   4.401   4.879
 9109TIP3    H227205   3.247   4.482   4.876
 9110TIP3   OH227206   4.063   4.740   3.961
 9110TIP3    H127207   4.013   4.713   3.884
 9110TIP3    H227208   4.020   4.819   3.992
 9111TIP3   OH227209   3.481   4.592   4.351
 9111TIP3    H127210   3.526   4.584   4.435
 9111TIP3    H227211   3.431   4.511   4.341
 9112TIP3   OH227212   4.265   4.644   3.592
 9112TIP3    H127213   4.325   4.576   3.559
 9112TIP3    H227214   4.296   4.662   3.680
 9113TIP3   OH227215   4.320   4.709   3.861
 9113TIP3    H127216   4.234   4.706   3.904
 9113TIP3    H227217   4.382   4.688   3.931
 9114TIP3   OH227218   5.064   3.964   5.141
 9114TIP3    H127219   4.977   3.978   5.103
 9114TIP3    H227220   5.079   3.870   5.133
 9115TIP3   OH227221   3.724   4.332   5.161
 9115TIP3    H127222   3.751   4.321   5.252
 9115TIP3    H227223   3.638   4.289   5.155
 9116TIP3   OH227224   4.041   3.199   4.969
 9116TIP3    H127225   3.957   3.165   4.937
 9116TIP3    H227226   4.019   3.280   5.014
 9117TIP3   OH227227   4.582   3.325   5.171
 9117TIP3    H127228   4.651   3.301   5.233
 9117TIP3    H227229   4.501   3.310   5.219
 9118TIP3   OH227230   4.802   3.738   5.087
 9118TIP3    H127231   4.764   3.736   5.175
 9118TIP3    H227232   4.789   3.828   5.058
 9119TIP3   OH227233   4.495   3.803   3.616
 9119TIP3    H127234   4.444   3.810   3.535
 9119TIP3    H227235   4.572   3.857   3.601
 9120TIP3   OH227236   4.171   3.252   3.924
 9120TIP3    H127237   4.144   3.259   4.015
 9120TIP3    H227238   4.142   3.165   3.897
 9121TIP3   OH227239   3.975   3.738   4.973
 9121TIP3    H127240   3.930   3.744   5.057
 9121TIP3    H227241   3.953   3.820   4.928
 9122TIP3   OH227242   3.861   3.611   4.494
 9122TIP3    H127243   3.772   3.588   4.519
 9122TIP3    H227244   3.869   3.580   4.404
 9123TIP3   OH227245   4.335   3.690   4.224
 9123TIP3    H127246   4.293   3.767   4.186
 9123TIP3    H227247   4.393   3.658   4.155
 9124TIP3   OH227248   4.521   3.942   5.291
 9124TIP3    H127249   4.499   3.875   5.356
 9124TIP3    H227250   4.611   3.968   5.311
 9125TIP3   OH227251   4.506   3.699   4.444
 9125TIP3    H127252   4.437   3.719   4.380
 9125TIP3    H227253   4.554   3.626   4.404
 9126TIP3   OH227254   3.817   3.749   5.197
 9126TIP3    H127255   3.828   3.815   5.266
 9126TIP3    H227256   3.800   3.667   5.244
 9127TIP3   OH227257   3.838   3.213   3.907
 9127TIP3    H127258   3.836   3.224   4.002
 9127TIP3    H227259   3.766   3.267   3.875
 9128TIP3   OH227260   3.416   3.268   4.778
 9128TIP3    H127261   3.482   3.306   4.835
 9128TIP3    H227262   3.458   3.262   4.692
 9129TIP3   OH227263   3.305   3.243   4.278
 9129TIP3    H127264   3.349   3.279   4.202
 9129TIP3    H227265   3.242   3.310   4.304
 9130TIP3   OH227266   4.548   3.955   4.866
 9130TIP3    H127267   4.574   3.888   4.803
 9130TIP3    H227268   4.508   3.906   4.938
 9131TIP3   OH227269   4.226   3.399   4.546
 9131TIP3    H127270   4.148   3.399   4.602
 9131TIP3    H227271   4.299   3.390   4.607
 9132TIP3   OH227272   3.620   3.489   4.553
 9132TIP3    H127273   3.532   3.492   4.515
 9132TIP3    H227274   3.649   3.399   4.539
 9133TIP3   OH227275   3.871   3.493   4.245
 9133TIP3    H127276   3.966   3.502   4.238
 9133TIP3    H227277   3.839   3.510   4.156
 9134TIP3   OH227278   4.665   3.490   4.756
 9134TIP3    H127279   4.648   3.507   4.849
 9134TIP3    H227280   4.597   3.428   4.730
 9135TIP3   OH227281   3.766   3.514   3.991
 9135TIP3    H127282   3.696   3.469   3.944
 9135TIP3    H227283   3.818   3.556   3.923
 9136TIP3   OH227284   3.812   4.281   5.419
 9136TIP3    H127285   3.892   4.309   5.465
 9136TIP3    H227286   3.742   4.295   5.483
 9137TIP3   OH227287   4.272   3.778   4.653
 9137TIP3    H127288   4.339   3.729   4.606
 9137TIP3    H227289   4.268   3.737   4.739
 9138TIP3   OH227290   3.758   3.239   4.543
 9138TIP3    H127291   3.732   3.163   4.595
 9138TIP3    H227292   3.781   3.203   4.457
 9139TIP3   OH227293   4.241   3.680   4.916
 9139TIP3    H127294   4.155   3.713   4.940
 9139TIP3    H227295   4.303   3.731   4.969
 9140TIP3   OH227296   3.977   4.023   4.027
 9140TIP3    H127297   3.904   3.968   3.999
 9140TIP3    H227298   3.946   4.066   4.107
 9141TIP3   OH227299   4.859   4.279   4.628
 9141TIP3    H127300   4.905   4.327   4.560
 9141TIP3    H227301   4.783   4.241   4.583
 9142TIP3   OH227302   4.432   3.345   3.942
 9142TIP3    H127303   4.338   3.329   3.931
 9142TIP3    H227304   4.440   3.440   3.950
 9143TIP3   OH227305   4.399   4.405   5.075
 9143TIP3    H127306   4.445   4.368   5.150
 9143TIP3    H227307   4.313   4.430   5.108
 9144TIP3   OH227308   4.500   3.609   4.010
 9144TIP3    H127309   4.594   3.620   4.022
 9144TIP3    H227310   4.473   3.684   3.956
 9145TIP3   OH227311   3.671   4.042   4.679
 9145TIP3    H127312   3.708   4.023   4.593
 9145TIP3    H227313   3.737   4.011   4.741
 9146TIP3   OH227314   4.135   4.192   3.878
 9146TIP3    H127315   4.084   4.273   3.876
 9146TIP3    H227316   4.080   4.130   3.926
 9147TIP3   OH227317   3.547   3.968   5.323
 9147TIP3    H127318   3.551   3.937   5.414
 9147TIP3    H227319   3.470   3.924   5.287
 9148TIP3   OH227320   4.292   4.095   5.333
 9148TIP3    H127321   4.223   4.033   5.308
 9148TIP3    H227322   4.373   4.053   5.304
 9149TIP3   OH227323   4.915   3.696   3.822
 9149TIP3    H127324   4.859   3.650   3.759
 9149TIP3    H227325   4.918   3.786   3.790
 9150TIP3   OH227326   4.639   4.154   4.502
 9150TIP3    H127327   4.549   4.135   4.531
 9150TIP3    H227328   4.673   4.069   4.473
 9151TIP3   OH227329   3.802   4.389   4.354
 9151TIP3    H127330   3.796   4.463   4.295
 9151TIP3    H227331   3.713   4.377   4.388
 9152TIP3   OH227332   3.355   3.671   4.072
 9152TIP3    H127333   3.397   3.754   4.094
 9152TIP3    H227334   3.273   3.672   4.122
 9153TIP3   OH227335   3.870   4.144   4.245
 9153TIP3    H127336   3.860   4.232   4.279
 9153TIP3    H227337   3.848   4.087   4.319
 9154TIP3   OH227338   3.713   4.607   4.202
 9154TIP3    H127339   3.626   4.615   4.242
 9154TIP3    H227340   3.747   4.697   4.203
 9155TIP3   OH227341   4.426   4.381   4.803
 9155TIP3    H127342   4.410   4.388   4.897
 9155TIP3    H227343   4.498   4.319   4.795
 9156TIP3   OH227344   4.767   4.730   3.474
 9156TIP3    H127345   4.828   4.801   3.451
 9156TIP3    H227346   4.689   4.775   3.505
 9157TIP3   OH227347   3.766   3.495   5.315
 9157TIP3    H127348   3.671   3.505   5.321
 9157TIP3    H227349   3.790   3.449   5.396
 9158TIP3   OH227350   3.767   4.222   3.671
 9158TIP3    H127351   3.781   4.132   3.642
 9158TIP3    H227352   3.758   4.215   3.766
 9159TIP3   OH227353   3.715   4.231   3.944
 9159TIP3    H127354   3.778   4.206   4.012
 9159TIP3    H227355   3.715   4.327   3.946
 9160TIP3   OH227356   3.450   3.922   4.146
 9160TIP3    H127357   3.387   3.973   4.197
 9160TIP3    H227358   3.470   3.978   4.071
 9161TIP3   OH227359   4.610   3.552   5.018
 9161TIP3    H127360   4.687   3.599   5.050
 9161TIP3    H227361   4.602   3.476   5.076
 9162TIP3   OH227362   4.504   3.297   4.208
 9162TIP3    H127363   4.479   3.316   4.117
 9162TIP3    H227364   4.548   3.376   4.238
 9163TIP3   OH227365   3.985   4.417   3.870
 9163TIP3    H127366   3.901   4.441   3.908
 9163TIP3    H227367   4.006   4.489   3.810
 9164TIP3   OH227368   4.150   3.497   4.296
 9164TIP3    H127369   4.211   3.566   4.269
 9164TIP3    H227370   4.176   3.476   4.385
 9165TIP3   OH227371   4.451   3.790   5.063
 9165TIP3    H127372   4.474   3.832   5.146
 9165TIP3    H227373   4.500   3.708   5.064
 9166TIP3   OH227374   4.316   3.189   4.381
 9166TIP3    H127375   4.292   3.266   4.433
 9166TIP3    H227376   4.387   3.220   4.324
 9167TIP3   OH227377   3.737   4.505   3.949
 9167TIP3    H127378   3.723   4.578   3.889
 9167TIP3    H227379   3.726   4.543   4.036
 9168TIP3   OH227380   3.829   3.219   4.188
 9168TIP3    H127381   3.818   3.310   4.216
 9168TIP3    H227382   3.923   3.203   4.193
 9169TIP3   OH227383   5.065   3.686   5.053
 9169TIP3    H127384   4.972   3.696   5.071
 9169TIP3    H227385   5.070   3.621   4.983
 9170TIP3   OH227386   4.731   3.888   4.443
 9170TIP3    H127387   4.654   3.832   4.454
 9170TIP3    H227388   4.797   3.850   4.502
 9171TIP3   OH227389   3.476   4.093   3.926
 9171TIP3    H127390   3.548   4.155   3.937
 9171TIP3    H227391   3.507   4.030   3.860
 9172TIP3   OH227392   3.370   3.393   4.059
 9172TIP3    H127393   3.387   3.486   4.072
 9172TIP3    H227394   3.308   3.390   3.986
 9173TIP3   OH227395   4.705   4.879   4.409
 9173TIP3    H127396   4.669   4.915   4.328
 9173TIP3    H227397   4.800   4.887   4.399
 9174TIP3   OH227398   3.779   3.113   4.928
 9174TIP3    H127399   3.749   3.081   4.842
 9174TIP3    H227400   3.771   3.037   4.986
 9175TIP3   OH227401   3.304   4.371   4.321
 9175TIP3    H127402   3.262   4.406   4.400
 9175TIP3    H227403   3.258   4.414   4.249
 9176TIP3   OH227404   3.941   4.396   3.550
 9176TIP3    H127405   3.882   4.338   3.599
 9176TIP3    H227406   4.018   4.342   3.532
 9177TIP3   OH227407   4.438   4.457   3.469
 9177TIP3    H127408   4.529   4.463   3.499
 9177TIP3    H227409   4.443   4.464   3.374
 9178TIP3   OH227410   3.612   4.270   5.616
 9178TIP3    H127411   3.650   4.182   5.604
 9178TIP3    H227412   3.531   4.255   5.665
 9179TIP3   OH227413   3.593   3.903   3.767
 9179TIP3    H127414   3.646   3.876   3.842
 9179TIP3    H227415   3.657   3.924   3.699
 9180TIP3   OH227416   4.195   4.357   5.349
 9180TIP3    H127417   4.166   4.391   5.265
 9180TIP3    H227418   4.235   4.273   5.329
 9181TIP3   OH227419   4.132   4.148   3.603
 9181TIP3    H127420   4.139   4.159   3.697
 9181TIP3    H227421   4.134   4.053   3.589
 9182TIP3   OH227422   4.685   4.359   4.986
 9182TIP3    H127423   4.752   4.409   4.938
 9182TIP3    H227424   4.615   4.422   5.003
 9183TIP3   OH227425   3.742   4.024   5.598
 9183TIP3    H127426   3.817   4.015   5.539
 9183TIP3    H227427   3.780   4.053   5.681
 9184TIP3   OH227428   3.773   3.840   3.972
 9184TIP3    H127429   3.756   3.806   4.060
 9184TIP3    H227430   3.820   3.770   3.927
 9185TIP3   OH227431   4.084   3.926   5.243
 9185TIP3    H127432   3.998   3.966   5.255
 9185TIP3    H227433   4.111   3.954   5.155
 9186TIP3   OH227434   3.905   3.656   3.801
 9186TIP3    H127435   3.878   3.657   3.710
 9186TIP3    H227436   4.001   3.663   3.798
 9187TIP3   OH227437   4.548   4.310   5.292
 9187TIP3    H127438   4.642   4.326   5.294
 9187TIP3    H227439   4.530   4.263   5.374
 9188TIP3   OH227440   4.700   3.958   3.512
 9188TIP3    H127441   4.688   3.921   3.424
 9188TIP3    H227442   4.673   4.050   3.502
 9189TIP3   OH227443   4.190   3.698   5.351
 9189TIP3    H127444   4.193   3.628   5.285
 9189TIP3    H227445   4.154   3.773   5.304
 9190TIP3   OH227446   4.196   3.504   5.143
 9190TIP3    H127447   4.222   3.543   5.059
 9190TIP3    H227448   4.106   3.477   5.130
 9191TIP3   OH227449   4.190   4.015   5.009
 9191TIP3    H127450   4.282   4.035   4.992
 9191TIP3    H227451   4.142   4.082   4.960
 9192TIP3   OH227452   4.784   3.990   5.392
 9192TIP3    H127453   4.826   3.905   5.404
 9192TIP3    H227454   4.856   4.051   5.373
 9193TIP3   OH227455   4.846   4.219   5.149
 9193TIP3    H127456   4.779   4.267   5.101
 9193TIP3    H227457   4.929   4.250   5.113
 9194TIP3   OH227458   4.075   3.782   5.594
 9194TIP3    H127459   4.005   3.720   5.615
 9194TIP3    H227460   4.103   3.757   5.506
 9195TIP3   OH227461   4.317   3.276   5.251
 9195TIP3    H127462   4.277   3.356   5.217
 9195TIP3    H227463   4.251   3.208   5.238
 9196TIP3   OH227464   4.445   3.735   5.456
 9196TIP3    H127465   4.434   3.724   5.550
 9196TIP3    H227466   4.359   3.715   5.419
 9197TIP3   OH227467   4.693   3.694   5.330
 9197TIP3    H127468   4.614   3.693   5.384
 9197TIP3    H227469   4.764   3.671   5.390
 9198TIP3   OH227470   4.932   3.666   5.476
 9198TIP3    H127471   4.945   3.572   5.482
 9198TIP3    H227472   4.927   3.696   5.566
 9199TIP3   OH227473   3.907   3.563   5.656
 9199TIP3    H127474   3.914   3.474   5.621
 9199TIP3    H227475   3.945   3.557   5.744
 9200TIP3   OH227476   4.382   3.247   5.516
 9200TIP3    H127477   4.450   3.181   5.510
 9200TIP3    H227478   4.353   3.261   5.426
 9201TIP3   OH227479   4.480   3.460   5.663
 9201TIP3    H127480   4.449   3.388   5.608
 9201TIP3    H227481   4.408   3.522   5.665
 9202TIP3   OH227482   3.754   4.715   3.766
 9202TIP3    H127483   3.840   4.689   3.732
 9202TIP3    H227484   3.711   4.759   3.693
 9203TIP3   OH227485   3.201   4.101   3.931
 9203TIP3    H127486   3.297   4.108   3.933
 9203TIP3    H227487   3.185   4.013   3.896
 9204TIP3   OH227488   3.104   4.681   4.411
 9204TIP3    H127489   3.038   4.628   4.365
 9204TIP3    H227490   3.149   4.619   4.468
 9205TIP3   OH227491   3.255   4.511   4.572
 9205TIP3    H127492   3.244   4.448   4.643
 9205TIP3    H227493   3.314   4.577   4.608
 9206TIP3   OH227494   4.982   4.912   4.380
 9206TIP3    H127495   4.985   5.005   4.403
 9206TIP3    H227496   4.986   4.910   4.285
 9207TIP3   OH227497   5.041   4.653   5.268
 9207TIP3    H127498   4.967   4.674   5.325
 9207TIP3    H227499   5.085   4.737   5.255
 9208TIP3   OH227500   4.885   4.163   3.834
 9208TIP3    H127501   4.942   4.235   3.808
 9208TIP3    H227502   4.927   4.126   3.912
 9209TIP3   OH227503   5.008   4.018   4.037
 9209TIP3    H127504   4.940   3.978   4.091
 9209TIP3    H227505   5.072   4.051   4.099
 9210TIP3   OH227506   5.068   4.411   4.497
 9210TIP3    H127507   5.112   4.349   4.438
 9210TIP3    H227508   5.073   4.495   4.451
 9211TIP3   OH227509   4.910   3.936   3.687
 9211TIP3    H127510   4.837   3.937   3.624
 9211TIP3    H227511   4.896   4.014   3.741
 9212TIP3   OH227512   4.770   3.577   3.622
 9212TIP3    H127513   4.717   3.613   3.551
 9212TIP3    H227514   4.764   3.482   3.610
 9213TIP3   OH227515   4.816   3.879   4.180
 9213TIP3    H127516   4.814   3.784   4.163
 9213TIP3    H227517   4.792   3.888   4.272
 9214TIP3   OH227518   3.407   3.918   4.963
 9214TIP3    H127519   3.403   3.898   4.870
 9214TIP3    H227520   3.501   3.925   4.982
 9215TIP3   OH227521   5.073   4.316   5.032
 9215TIP3    H127522   5.145   4.268   4.989
 9215TIP3    H227523   5.032   4.366   4.961
 9216TIP3   OH227524   5.276   4.100   5.029
 9216TIP3    H127525   5.197   4.065   5.071
 9216TIP3    H227526   5.345   4.039   5.053
 9217TIP3   OH227527   4.734   3.303   3.594
 9217TIP3    H127528   4.794   3.282   3.665
 9217TIP3    H227529   4.648   3.275   3.626
 9218TIP3   OH227530   4.798   3.607   4.068
 9218TIP3    H127531   4.844   3.524   4.079
 9218TIP3    H227532   4.836   3.645   3.988
 9219TIP3   OH227533   4.948   3.769   4.587
 9219TIP3    H127534   5.028   3.788   4.538
 9219TIP3    H227535   4.963   3.810   4.673
 9220TIP3   OH227536   5.022   3.918   4.813
 9220TIP3    H127537   4.949   3.942   4.870
 9220TIP3    H227538   5.050   4.000   4.774
 9221TIP3   OH227539   3.645   3.619   5.590
 9221TIP3    H127540   3.738   3.618   5.612
 9221TIP3    H227541   3.610   3.539   5.630
 9222TIP3   OH227542   5.479   3.527   5.353
 9222TIP3    H127543   5.546   3.467   5.323
 9222TIP3    H227544   5.449   3.571   5.273
 9223TIP3   OH227545   4.915   3.356   4.115
 9223TIP3    H127546   4.958   3.342   4.199
 9223TIP3    H227547   4.850   3.286   4.109
 9224TIP3   OH227548   3.620   3.341   4.950
 9224TIP3    H127549   3.674   3.262   4.954
 9224TIP3    H227550   3.683   3.411   4.930
 9225TIP3   OH227551   3.391   3.607   4.997
 9225TIP3    H127552   3.448   3.593   4.922
 9225TIP3    H227553   3.405   3.699   5.021
 9226TIP3   OH227554   5.336   3.647   5.154
 9226TIP3    H127555   5.264   3.683   5.205
 9226TIP3    H227556   5.296   3.579   5.100
 9227TIP3   OH227557   4.958   3.264   3.755
 9227TIP3    H127558   5.008   3.204   3.700
 9227TIP3    H227559   5.010   3.344   3.759
 9228TIP3   OH227560   3.382   3.100   4.498
 9228TIP3    H127561   3.299   3.095   4.546
 9228TIP3    H227562   3.364   3.159   4.425
 9229TIP3   OH227563   4.566   4.757   4.031
 9229TIP3    H127564   4.597   4.790   3.946
 9229TIP3    H227565   4.577   4.831   4.090
 9230TIP3   OH227566   3.612   3.157   5.330
 9230TIP3    H127567   3.566   3.160   5.414
 9230TIP3    H227568   3.558   3.211   5.272
 9231TIP3   OH227569   5.247   3.388   5.052
 9231TIP3    H127570   5.161   3.383   5.011
 9231TIP3    H227571   5.280   3.298   5.047
 9232TIP3   OH227572   4.139   4.875   4.618
 9232TIP3    H127573   4.076   4.928   4.570
 9232TIP3    H227574   4.189   4.938   4.671
 9233TIP3   OH227575   4.577   5.082   4.570
 9233TIP3    H127576   4.611   5.160   4.527
 9233TIP3    H227577   4.614   5.009   4.519
 9234TIP3   OH227578   3.430   4.700   4.711
 9234TIP3    H127579   3.463   4.727   4.796
 9234TIP3    H227580   3.505   4.659   4.668
 9235TIP3   OH227581   3.638   4.578   4.582
 9235TIP3    H127582   3.654   4.494   4.625
 9235TIP3    H227583   3.724   4.620   4.580
 9236TIP3   OH227584   3.917   4.675   4.587
 9236TIP3    H127585   3.936   4.581   4.589
 9236TIP3    H227586   4.000   4.717   4.608
 9237TIP3   OH227587   4.451   3.306   4.689
 9237TIP3    H127588   4.412   3.236   4.741
 9237TIP3    H227589   4.520   3.263   4.639
 9238TIP3   OH227590   4.954   3.229   4.578
 9238TIP3    H127591   4.989   3.279   4.504
 9238TIP3    H227592   4.861   3.251   4.579
 9239TIP3   OH227593   5.069   3.304   4.340
 9239TIP3    H127594   5.138   3.242   4.315
 9239TIP3    H227595   5.108   3.390   4.327
 9240TIP3   OH227596   3.690   3.010   4.686
 9240TIP3    H127597   3.602   2.975   4.697
 9240TIP3    H227598   3.746   2.932   4.679
 9241TIP3   OH227599   3.504   2.909   4.330
 9241TIP3    H127600   3.536   2.960   4.255
 9241TIP3    H227601   3.469   2.975   4.390
 9242TIP3   OH227602   4.177   3.047   4.584
 9242TIP3    H127603   4.224   3.095   4.515
 9242TIP3    H227604   4.217   3.077   4.666
 9243TIP3   OH227605   4.666   3.186   4.562
 9243TIP3    H127606   4.683   3.150   4.475
 9243TIP3    H227607   4.675   3.111   4.621
 9244TIP3   OH227608   4.726   3.148   4.125
 9244TIP3    H127609   4.646   3.196   4.149
 9244TIP3    H227610   4.715   3.062   4.163
 9245TIP3   OH227611   3.182   4.491   4.105
 9245TIP3    H127612   3.098   4.457   4.073
 9245TIP3    H227613   3.187   4.580   4.070
 9246TIP3   OH227614   3.621   3.046   4.102
 9246TIP3    H127615   3.668   2.987   4.043
 9246TIP3    H227616   3.689   3.103   4.137
 9247TIP3   OH227617   4.106   3.247   4.194
 9247TIP3    H127618   4.165   3.193   4.247
 9247TIP3    H227619   4.121   3.336   4.225
 9248TIP3   OH227620   4.003   4.627   3.684
 9248TIP3    H127621   4.089   4.650   3.649
 9248TIP3    H227622   3.972   4.555   3.629
 9249TIP3   OH227623   4.659   4.655   3.770
 9249TIP3    H127624   4.752   4.662   3.749
 9249TIP3    H227625   4.615   4.709   3.705
 9250TIP3   OH227626   3.922   3.293   5.566
 9250TIP3    H127627   3.888   3.228   5.627
 9250TIP3    H227628   4.014   3.302   5.590
 9251TIP3   OH227629   4.168   3.301   5.691
 9251TIP3    H127630   4.245   3.278   5.639
 9251TIP3    H227631   4.163   3.232   5.758
 9252TIP3   OH227632   3.302   4.485   3.754
 9252TIP3    H127633   3.304   4.492   3.850
 9252TIP3    H227634   3.382   4.436   3.732
 9253TIP3   OH227635   4.991   3.394   5.477
 9253TIP3    H127636   5.008   3.364   5.567
 9253TIP3    H227637   5.076   3.389   5.434
 9254TIP3   OH227638   6.187   4.307   3.727
 9254TIP3    H127639   6.153   4.394   3.704
 9254TIP3    H227640   6.117   4.247   3.700
 9255TIP3   OH227641   6.174   4.312   4.163
 9255TIP3    H127642   6.230   4.282   4.234
 9255TIP3    H227643   6.132   4.232   4.131
 9256TIP3   OH227644   5.486   4.182   4.466
 9256TIP3    H127645   5.526   4.117   4.523
 9256TIP3    H227646   5.496   4.265   4.513
 9257TIP3   OH227647   6.465   4.603   3.806
 9257TIP3    H127648   6.445   4.540   3.875
 9257TIP3    H227649   6.481   4.685   3.852
 9258TIP3   OH227650   5.491   4.603   4.185
 9258TIP3    H127651   5.478   4.509   4.200
 9258TIP3    H227652   5.585   4.611   4.168
 9259TIP3   OH227653   5.157   3.794   3.953
 9259TIP3    H127654   5.117   3.877   3.979
 9259TIP3    H227655   5.085   3.743   3.915
 9260TIP3   OH227656   5.234   4.093   4.177
 9260TIP3    H127657   5.287   4.018   4.205
 9260TIP3    H227658   5.295   4.147   4.127
 9261TIP3   OH227659   6.124   5.048   3.827
 9261TIP3    H127660   6.142   4.969   3.777
 9261TIP3    H227661   6.160   5.030   3.914
 9262TIP3   OH227662   5.990   4.535   4.156
 9262TIP3    H127663   6.036   4.453   4.136
 9262TIP3    H227664   6.059   4.600   4.166
 9263TIP3   OH227665   7.033   3.838   4.168
 9263TIP3    H127666   7.046   3.924   4.208
 9263TIP3    H227667   7.062   3.849   4.078
 9264TIP3   OH227668   6.389   4.013   4.192
 9264TIP3    H127669   6.422   3.927   4.216
 9264TIP3    H227670   6.357   4.002   4.103
 9265TIP3   OH227671   5.755   3.664   4.138
 9265TIP3    H127672   5.732   3.739   4.083
 9265TIP3    H227673   5.698   3.593   4.110
 9266TIP3   OH227674   6.452   3.774   3.785
 9266TIP3    H127675   6.516   3.769   3.856
 9266TIP3    H227676   6.501   3.808   3.711
 9267TIP3   OH227677   5.381   3.881   4.273
 9267TIP3    H127678   5.464   3.863   4.318
 9267TIP3    H227679   5.385   3.828   4.194
 9268TIP3   OH227680   5.803   4.088   4.068
 9268TIP3    H127681   5.896   4.070   4.077
 9268TIP3    H227682   5.765   4.005   4.041
 9269TIP3   OH227683   7.080   4.059   4.337
 9269TIP3    H127684   6.998   4.106   4.321
 9269TIP3    H227685   7.116   4.101   4.415
 9270TIP3   OH227686   5.729   3.673   4.600
 9270TIP3    H127687   5.681   3.709   4.525
 9270TIP3    H227688   5.673   3.689   4.675
 9271TIP3   OH227689   6.054   4.515   3.605
 9271TIP3    H127690   6.026   4.495   3.516
 9271TIP3    H227691   6.014   4.599   3.625
 9272TIP3   OH227692   5.842   4.473   4.385
 9272TIP3    H127693   5.784   4.541   4.419
 9272TIP3    H227694   5.879   4.510   4.305
 9273TIP3   OH227695   6.606   3.796   4.008
 9273TIP3    H127696   6.562   3.776   4.091
 9273TIP3    H227697   6.664   3.870   4.029
 9274TIP3   OH227698   5.629   3.776   4.362
 9274TIP3    H127699   5.685   3.849   4.387
 9274TIP3    H227700   5.676   3.734   4.290
 9275TIP3   OH227701   5.673   4.674   4.506
 9275TIP3    H127702   5.645   4.765   4.506
 9275TIP3    H227703   5.594   4.624   4.526
 9276TIP3   OH227704   5.041   4.363   3.718
 9276TIP3    H127705   5.003   4.380   3.632
 9276TIP3    H227706   5.023   4.443   3.768
 9277TIP3   OH227707   6.495   4.851   3.947
 9277TIP3    H127708   6.403   4.841   3.974
 9277TIP3    H227709   6.499   4.939   3.909
 9278TIP3   OH227710   6.840   3.708   4.331
 9278TIP3    H127711   6.755   3.744   4.305
 9278TIP3    H227712   6.902   3.744   4.267
 9279TIP3   OH227713   6.072   3.368   4.333
 9279TIP3    H127714   6.063   3.275   4.357
 9279TIP3    H227715   5.994   3.410   4.370
 9280TIP3   OH227716   6.196   4.876   3.612
 9280TIP3    H127717   6.251   4.798   3.598
 9280TIP3    H227718   6.252   4.949   3.588
 9281TIP3   OH227719   6.361   4.667   3.555
 9281TIP3    H127720   6.357   4.587   3.502
 9281TIP3    H227721   6.400   4.638   3.638
 9282TIP3   OH227722   6.741   4.716   4.322
 9282TIP3    H127723   6.718   4.654   4.252
 9282TIP3    H227724   6.718   4.802   4.286
 9283TIP3   OH227725   6.013   4.146   3.577
 9283TIP3    H127726   5.930   4.192   3.562
 9283TIP3    H227727   6.057   4.148   3.492
 9284TIP3   OH227728   5.977   3.961   3.259
 9284TIP3    H127729   6.043   4.009   3.309
 9284TIP3    H227730   6.026   3.893   3.213
 9285TIP3   OH227731   6.891   4.404   4.168
 9285TIP3    H127732   6.809   4.452   4.162
 9285TIP3    H227733   6.927   4.406   4.079
 9286TIP3   OH227734   6.367   4.240   3.531
 9286TIP3    H127735   6.314   4.267   3.606
 9286TIP3    H227736   6.450   4.213   3.570
 9287TIP3   OH227737   6.594   4.247   4.466
 9287TIP3    H127738   6.601   4.331   4.511
 9287TIP3    H227739   6.508   4.248   4.424
 9288TIP3   OH227740   5.581   4.214   3.957
 9288TIP3    H127741   5.547   4.158   3.888
 9288TIP3    H227742   5.662   4.170   3.986
 9289TIP3   OH227743   5.746   4.658   4.077
 9289TIP3    H127744   5.718   4.639   3.988
 9289TIP3    H227745   5.830   4.613   4.086
 9290TIP3   OH227746   5.787   4.202   4.326
 9290TIP3    H127747   5.787   4.185   4.232
 9290TIP3    H227748   5.792   4.298   4.333
 9291TIP3   OH227749   6.246   4.836   4.053
 9291TIP3    H127750   6.232   4.924   4.087
 9291TIP3    H227751   6.236   4.779   4.129
 9292TIP3   OH227752   5.916   4.736   4.631
 9292TIP3    H127753   5.916   4.832   4.636
 9292TIP3    H227754   5.831   4.713   4.595
 9293TIP3   OH227755   6.202   4.095   3.364
 9293TIP3    H127756   6.261   4.154   3.412
 9293TIP3    H227757   6.233   4.098   3.274
 9294TIP3   OH227758   5.609   4.278   4.737
 9294TIP3    H127759   5.634   4.363   4.773
 9294TIP3    H227760   5.517   4.268   4.759
 9295TIP3   OH227761   5.943   4.771   3.624
 9295TIP3    H127762   6.029   4.811   3.629
 9295TIP3    H227763   5.890   4.834   3.575
 9296TIP3   OH227764   6.725   3.328   3.440
 9296TIP3    H127765   6.647   3.352   3.490
 9296TIP3    H227766   6.738   3.401   3.378
 9297TIP3   OH227767   5.463   4.064   3.743
 9297TIP3    H127768   5.388   4.114   3.711
 9297TIP3    H227769   5.430   3.976   3.755
 9298TIP3   OH227770   6.537   4.703   2.981
 9298TIP3    H127771   6.530   4.796   2.960
 9298TIP3    H227772   6.629   4.681   2.965
 9299TIP3   OH227773   5.349   4.424   4.595
 9299TIP3    H127774   5.257   4.438   4.571
 9299TIP3    H227775   5.344   4.371   4.675
 9300TIP3   OH227776   5.106   4.656   4.381
 9300TIP3    H127777   5.177   4.675   4.320
 9300TIP3    H227778   5.055   4.738   4.385
 9301TIP3   OH227779   5.840   4.988   3.453
 9301TIP3    H127780   5.795   4.969   3.371
 9301TIP3    H227781   5.802   5.071   3.482
 9302TIP3   OH227782   5.229   4.833   3.825
 9302TIP3    H127783   5.282   4.818   3.903
 9302TIP3    H227784   5.165   4.761   3.825
 9303TIP3   OH227785   6.042   4.925   3.077
 9303TIP3    H127786   6.093   4.851   3.043
 9303TIP3    H227787   6.077   4.939   3.166
 9304TIP3   OH227788   6.094   4.967   3.348
 9304TIP3    H127789   6.008   4.969   3.390
 9304TIP3    H227790   6.152   4.932   3.415
 9305TIP3   OH227791   6.870   4.246   4.639
 9305TIP3    H127792   6.776   4.260   4.629
 9305TIP3    H227793   6.881   4.152   4.629
 9306TIP3   OH227794   5.836   3.459   4.456
 9306TIP3    H127795   5.753   3.422   4.425
 9306TIP3    H227796   5.810   3.537   4.504
 9307TIP3   OH227797   6.386   3.565   4.655
 9307TIP3    H127798   6.455   3.543   4.717
 9307TIP3    H227799   6.305   3.553   4.704
 9308TIP3   OH227800   6.606   3.987   4.567
 9308TIP3    H127801   6.563   3.989   4.653
 9308TIP3    H227802   6.595   4.076   4.533
 9309TIP3   OH227803   6.283   4.070   3.102
 9309TIP3    H127804   6.236   4.077   3.019
 9309TIP3    H227805   6.366   4.116   3.086
 9310TIP3   OH227806   5.990   3.495   3.424
 9310TIP3    H127807   5.950   3.504   3.510
 9310TIP3    H227808   5.954   3.414   3.389
 9311TIP3   OH227809   5.789   3.975   4.468
 9311TIP3    H127810   5.731   3.985   4.543
 9311TIP3    H227811   5.783   4.058   4.421
 9312TIP3   OH227812   5.657   3.867   3.982
 9312TIP3    H127813   5.567   3.844   4.007
 9312TIP3    H227814   5.665   3.835   3.892
 9313TIP3   OH227815   6.138   3.943   3.713
 9313TIP3    H127816   6.089   4.015   3.672
 9313TIP3    H227817   6.195   3.911   3.643
 9314TIP3   OH227818   6.368   4.241   4.898
 9314TIP3    H127819   6.332   4.154   4.915
 9314TIP3    H227820   6.462   4.227   4.895
 9315TIP3   OH227821   6.305   3.960   3.936
 9315TIP3    H127822   6.237   3.981   3.871
 9315TIP3    H227823   6.352   3.886   3.898
 9316TIP3   OH227824   5.600   3.998   4.663
 9316TIP3    H127825   5.595   4.071   4.724
 9316TIP3    H227826   5.579   3.921   4.716
 9317TIP3   OH227827   5.659   3.478   3.402
 9317TIP3    H127828   5.648   3.483   3.497
 9317TIP3    H227829   5.580   3.520   3.367
 9318TIP3   OH227830   5.204   3.524   4.263
 9318TIP3    H127831   5.278   3.559   4.313
 9318TIP3    H227832   5.239   3.505   4.176
 9319TIP3   OH227833   5.104   3.501   3.764
 9319TIP3    H127834   5.149   3.538   3.688
 9319TIP3    H227835   5.039   3.567   3.787
 9320TIP3   OH227836   6.323   4.201   4.376
 9320TIP3    H127837   6.351   4.138   4.309
 9320TIP3    H227838   6.294   4.146   4.449
 9321TIP3   OH227839   6.022   3.657   4.035
 9321TIP3    H127840   5.941   3.657   4.087
 9321TIP3    H227841   6.092   3.652   4.100
 9322TIP3   OH227842   5.415   3.744   4.040
 9322TIP3    H127843   5.328   3.749   4.002
 9322TIP3    H227844   5.443   3.653   4.025
 9323TIP3   OH227845   5.671   3.748   3.735
 9323TIP3    H127846   5.766   3.757   3.724
 9323TIP3    H227847   5.635   3.765   3.648
 9324TIP3   OH227848   6.458   3.749   4.240
 9324TIP3    H127849   6.444   3.761   4.334
 9324TIP3    H227850   6.388   3.689   4.213
 9325TIP3   OH227851   5.559   3.769   3.487
 9325TIP3    H127852   5.497   3.718   3.434
 9325TIP3    H227853   5.612   3.817   3.422
 9326TIP3   OH227854   5.669   4.498   4.894
 9326TIP3    H127855   5.734   4.545   4.946
 9326TIP3    H227856   5.630   4.434   4.954
 9327TIP3   OH227857   6.073   4.038   4.133
 9327TIP3    H127858   6.139   3.989   4.084
 9327TIP3    H227859   6.069   3.994   4.218
 9328TIP3   OH227860   5.557   3.494   4.027
 9328TIP3    H127861   5.529   3.419   4.080
 9328TIP3    H227862   5.571   3.457   3.939
 9329TIP3   OH227863   6.050   3.929   4.393
 9329TIP3    H127864   5.961   3.951   4.420
 9329TIP3    H227865   6.106   3.970   4.458
 9330TIP3   OH227866   5.773   4.281   3.528
 9330TIP3    H127867   5.698   4.228   3.501
 9330TIP3    H227868   5.745   4.322   3.610
 9331TIP3   OH227869   6.661   4.545   4.120
 9331TIP3    H127870   6.697   4.596   4.047
 9331TIP3    H227871   6.582   4.505   4.083
 9332TIP3   OH227872   6.242   3.599   3.438
 9332TIP3    H127873   6.149   3.577   3.429
 9332TIP3    H227874   6.244   3.694   3.444
 9333TIP3   OH227875   6.164   4.684   4.524
 9333TIP3    H127876   6.215   4.677   4.605
 9333TIP3    H227877   6.074   4.699   4.553
 9334TIP3   OH227878   6.300   3.867   3.496
 9334TIP3    H127879   6.395   3.872   3.504
 9334TIP3    H227880   6.276   3.943   3.443
 9335TIP3   OH227881   5.493   4.326   4.203
 9335TIP3    H127882   5.525   4.283   4.124
 9335TIP3    H227883   5.509   4.263   4.273
 9336TIP3   OH227884   5.922   4.440   3.363
 9336TIP3    H127885   5.875   4.523   3.360
 9336TIP3    H227886   5.869   4.384   3.419
 9337TIP3   OH227887   5.342   4.231   4.798
 9337TIP3    H127888   5.341   4.198   4.887
 9337TIP3    H227889   5.262   4.196   4.758
 9338TIP3   OH227890   6.106   4.356   4.789
 9338TIP3    H127891   6.039   4.297   4.824
 9338TIP3    H227892   6.093   4.353   4.694
 9339TIP3   OH227893   6.713   3.941   3.313
 9339TIP3    H127894   6.655   3.894   3.254
 9339TIP3    H227895   6.706   4.033   3.287
 9340TIP3   OH227896   6.459   4.778   3.245
 9340TIP3    H127897   6.433   4.710   3.307
 9340TIP3    H227898   6.478   4.730   3.164
 9341TIP3   OH227899   6.436   4.405   4.015
 9341TIP3    H127900   6.345   4.385   4.034
 9341TIP3    H227901   6.471   4.324   3.978
 9342TIP3   OH227902   5.591   4.643   3.842
 9342TIP3    H127903   5.585   4.718   3.782
 9342TIP3    H227904   5.501   4.629   3.872
 9343TIP3   OH227905   5.152   3.932   3.554
 9343TIP3    H127906   5.191   4.017   3.576
 9343TIP3    H227907   5.070   3.930   3.603
 9344TIP3   OH227908   5.666   4.392   3.751
 9344TIP3    H127909   5.654   4.483   3.778
 9344TIP3    H227910   5.637   4.340   3.827
 9345TIP3   OH227911   5.487   4.862   3.696
 9345TIP3    H127912   5.396   4.871   3.726
 9345TIP3    H227913   5.522   4.950   3.701
 9346TIP3   OH227914   6.230   4.654   4.263
 9346TIP3    H127915   6.203   4.656   4.354
 9346TIP3    H227916   6.272   4.568   4.252
 9347TIP3   OH227917   6.230   4.510   3.138
 9347TIP3    H127918   6.271   4.493   3.223
 9347TIP3    H227919   6.146   4.464   3.142
 9348TIP3   OH227920   6.524   4.975   2.934
 9348TIP3    H127921   6.525   5.031   2.857
 9348TIP3    H227922   6.459   5.014   2.992
 9349TIP3   OH227923   5.553   3.751   4.802
 9349TIP3    H127924   5.458   3.764   4.807
 9349TIP3    H227925   5.573   3.695   4.877
 9350TIP3   OH227926   6.392   4.457   3.362
 9350TIP3    H127927   6.377   4.381   3.417
 9350TIP3    H227928   6.486   4.455   3.343
 9351TIP3   OH227929   5.572   4.470   3.149
 9351TIP3    H127930   5.582   4.379   3.123
 9351TIP3    H227931   5.556   4.467   3.243
 9352TIP3   OH227932   5.505   4.489   3.420
 9352TIP3    H127933   5.566   4.461   3.487
 9352TIP3    H227934   5.506   4.585   3.425
 9353TIP3   OH227935   5.240   4.188   3.631
 9353TIP3    H127936   5.175   4.237   3.681
 9353TIP3    H227937   5.258   4.242   3.555
 9354TIP3   OH227938   6.414   3.795   4.505
 9354TIP3    H127939   6.492   3.842   4.537
 9354TIP3    H227940   6.408   3.718   4.561
 9355TIP3   OH227941   6.303   3.555   3.704
 9355TIP3    H127942   6.278   3.572   3.613
 9355TIP3    H227943   6.346   3.635   3.733
 9356TIP3   OH227944   5.778   4.669   3.356
 9356TIP3    H127945   5.696   4.696   3.398
 9356TIP3    H227946   5.803   4.745   3.303
 9357TIP3   OH227947   5.952   3.750   3.782
 9357TIP3    H127948   6.014   3.819   3.756
 9357TIP3    H227949   5.975   3.731   3.873
 9358TIP3   OH227950   6.254   4.013   4.569
 9358TIP3    H127951   6.272   4.017   4.663
 9358TIP3    H227952   6.301   3.934   4.539
 9359TIP3   OH227953   6.113   3.449   3.873
 9359TIP3    H127954   6.086   3.526   3.923
 9359TIP3    H227955   6.181   3.481   3.814
 9360TIP3   OH227956   5.532   4.762   3.442
 9360TIP3    H127957   5.516   4.834   3.382
 9360TIP3    H227958   5.516   4.799   3.529
 9361TIP3   OH227959   5.624   3.474   3.681
 9361TIP3    H127960   5.613   3.566   3.708
 9361TIP3    H227961   5.718   3.459   3.687
 9362TIP3   OH227962   6.877   3.977   4.560
 9362TIP3    H127963   6.783   3.963   4.568
 9362TIP3    H227964   6.897   3.960   4.468
 9363TIP3   OH227965   6.529   4.146   3.933
 9363TIP3    H127966   6.453   4.087   3.941
 9363TIP3    H227967   6.596   4.106   3.988
 9364TIP3   OH227968   5.259   4.356   3.407
 9364TIP3    H127969   5.330   4.420   3.416
 9364TIP3    H227970   5.292   4.292   3.344
 9365TIP3   OH227971   5.174   3.653   3.546
 9365TIP3    H127972   5.188   3.747   3.558
 9365TIP3    H227973   5.113   3.647   3.472
 9366TIP3   OH227974   6.515   5.119   3.875
 9366TIP3    H127975   6.459   5.171   3.817
 9366TIP3    H227976   6.604   5.139   3.847
 9367TIP3   OH227977   5.578   3.367   4.414
 9367TIP3    H127978   5.547   3.335   4.329
 9367TIP3    H227979   5.568   3.292   4.473
 9368TIP3   OH227980   5.724   4.672   3.037
 9368TIP3    H127981   5.677   4.603   3.083
 9368TIP3    H227982   5.799   4.629   2.997
 9369TIP3   OH227983   6.171   4.712   2.960
 9369TIP3    H127984   6.207   4.650   3.023
 9369TIP3    H227985   6.229   4.706   2.885
 9370TIP3   OH227986   5.390   4.167   3.258
 9370TIP3    H127987   5.440   4.144   3.337
 9370TIP3    H227988   5.456   4.180   3.190
 9371TIP3   OH227989   6.039   4.624   4.846
 9371TIP3    H127990   5.992   4.672   4.778
 9371TIP3    H227991   6.035   4.532   4.818
 9372TIP3   OH227992   5.982   4.384   3.102
 9372TIP3    H127993   5.953   4.395   3.193
 9372TIP3    H227994   5.958   4.294   3.080
 9373TIP3   OH227995   6.499   4.676   4.455
 9373TIP3    H127996   6.583   4.702   4.416
 9373TIP3    H227997   6.433   4.706   4.392
 9374TIP3   OH227998   5.594   4.305   5.070
 9374TIP3    H127999   5.642   4.223   5.081
 9374TIP3    H228000   5.580   4.337   5.159
 9375TIP3   OH228001   5.561   4.109   3.473
 9375TIP3    H128002   5.540   4.078   3.561
 9375TIP3    H228003   5.610   4.037   3.433
 9376TIP3   OH228004   5.875   4.191   4.713
 9376TIP3    H128005   5.783   4.218   4.718
 9376TIP3    H228006   5.907   4.231   4.632
 9377TIP3   OH228007   5.707   3.928   3.318
 9377TIP3    H128008   5.677   3.931   3.227
 9377TIP3    H228009   5.802   3.937   3.312
 9378TIP3   OH228010   6.393   4.555   4.894
 9378TIP3    H128011   6.377   4.644   4.925
 9378TIP3    H228012   6.488   4.546   4.892
 9379TIP3   OH228013   6.496   4.213   2.990
 9379TIP3    H128014   6.482   4.172   2.905
 9379TIP3    H228015   6.473   4.305   2.977
 9380TIP3   OH228016   5.987   3.964   4.819
 9380TIP3    H128017   5.985   3.889   4.758
 9380TIP3    H228018   5.944   4.035   4.771
 9381TIP3   OH228019   5.990   3.754   4.628
 9381TIP3    H128020   6.014   3.783   4.540
 9381TIP3    H228021   5.898   3.728   4.620
 9382TIP3   OH228022   6.036   4.333   4.525
 9382TIP3    H128023   6.091   4.299   4.455
 9382TIP3    H228024   5.968   4.384   4.479
 9383TIP3   OH228025   6.641   4.224   4.889
 9383TIP3    H128026   6.696   4.148   4.909
 9383TIP3    H228027   6.698   4.300   4.906
 9384TIP3   OH228028   6.636   4.486   4.599
 9384TIP3    H128029   6.578   4.550   4.560
 9384TIP3    H228030   6.724   4.515   4.574
 9385TIP3   OH228031   5.873   4.039   5.065
 9385TIP3    H128032   5.806   3.975   5.088
 9385TIP3    H228033   5.900   4.015   4.976
 9386TIP3   OH228034   6.118   3.527   4.734
 9386TIP3    H128035   6.076   3.607   4.701
 9386TIP3    H228036   6.051   3.459   4.724
 9387TIP3   OH228037   6.236   3.999   4.934
 9387TIP3    H128038   6.221   3.976   5.025
 9387TIP3    H228039   6.152   3.982   4.890
 9388TIP3   OH228040   6.479   3.954   4.804
 9388TIP3    H128041   6.403   3.951   4.863
 9388TIP3    H228042   6.554   3.942   4.862
 9389TIP3   OH228043   6.719   3.925   4.955
 9389TIP3    H128044   6.732   3.830   4.962
 9389TIP3    H228045   6.712   3.954   5.046
 9390TIP3   OH228046   5.709   3.825   5.143
 9390TIP3    H128047   5.709   3.737   5.105
 9390TIP3    H228048   5.747   3.814   5.230
 9391TIP3   OH228049   6.183   3.505   5.002
 9391TIP3    H128050   6.251   3.439   4.995
 9391TIP3    H228051   6.151   3.516   4.912
 9392TIP3   OH228052   6.280   3.719   5.147
 9392TIP3    H128053   6.250   3.645   5.095
 9392TIP3    H228054   6.207   3.780   5.148
 9393TIP3   OH228055   5.535   4.970   3.258
 9393TIP3    H128056   5.624   4.948   3.228
 9393TIP3    H228057   5.495   5.015   3.184
 9394TIP3   OH228058   4.983   4.353   3.425
 9394TIP3    H128059   5.078   4.365   3.423
 9394TIP3    H228060   4.969   4.267   3.387
 9395TIP3   OH228061   4.888   4.938   3.877
 9395TIP3    H128062   4.897   4.855   3.831
 9395TIP3    H228063   4.917   4.920   3.966
 9396TIP3   OH228064   4.997   4.842   4.108
 9396TIP3    H128065   4.996   4.759   4.060
 9396TIP3    H228066   5.089   4.864   4.117
 9397TIP3   OH228067   6.776   5.193   3.822
 9397TIP3    H128068   6.767   5.278   3.865
 9397TIP3    H228069   6.847   5.206   3.759
 9398TIP3   OH228070   6.837   4.911   4.710
 9398TIP3    H128071   6.797   4.939   4.628
 9398TIP3    H228072   6.883   4.989   4.742
 9399TIP3   OH228073   6.667   4.435   3.330
 9399TIP3    H128074   6.728   4.499   3.294
 9399TIP3    H228075   6.717   4.391   3.399
 9400TIP3   OH228076   6.793   4.279   3.524
 9400TIP3    H128077   6.724   4.238   3.576
 9400TIP3    H228078   6.857   4.307   3.589
 9401TIP3   OH228079   6.846   4.674   3.950
 9401TIP3    H128080   6.883   4.609   3.889
 9401TIP3    H228081   6.832   4.752   3.896
 9402TIP3   OH228082   6.609   4.922   4.195
 9402TIP3    H128083   6.567   5.005   4.218
 9402TIP3    H228084   6.575   4.901   4.109
 9403TIP3   OH228085   6.659   4.184   3.212
 9403TIP3    H128086   6.609   4.192   3.130
 9403TIP3    H228087   6.663   4.273   3.246
 9404TIP3   OH228088   6.551   3.830   3.123
 9404TIP3    H128089   6.512   3.870   3.046
 9404TIP3    H228090   6.545   3.736   3.107
 9405TIP3   OH228091   6.593   4.139   3.662
 9405TIP3    H128092   6.600   4.045   3.647
 9405TIP3    H228093   6.577   4.148   3.755
 9406TIP3   OH228094   5.213   4.162   4.440
 9406TIP3    H128095   5.200   4.143   4.347
 9406TIP3    H228096   5.307   4.176   4.449
 9407TIP3   OH228097   6.882   4.581   4.520
 9407TIP3    H128098   6.957   4.534   4.484
 9407TIP3    H228099   6.851   4.636   4.449
 9408TIP3   OH228100   7.079   4.365   4.504
 9408TIP3    H128101   7.001   4.335   4.550
 9408TIP3    H228102   7.147   4.301   4.527
 9409TIP3   OH228103   6.525   3.558   3.085
 9409TIP3    H128104   6.589   3.535   3.153
 9409TIP3    H228105   6.442   3.526   3.118
 9410TIP3   OH228106   6.595   3.864   3.557
 9410TIP3    H128107   6.642   3.782   3.572
 9410TIP3    H228108   6.633   3.900   3.477
 9411TIP3   OH228109   6.746   4.028   4.076
 9411TIP3    H128110   6.823   4.049   4.024
 9411TIP3    H228111   6.763   4.068   4.161
 9412TIP3   OH228112   6.824   4.173   4.305
 9412TIP3    H128113   6.749   4.197   4.360
 9412TIP3    H228114   6.848   4.254   4.261
 9413TIP3   OH228115   5.445   3.889   5.084
 9413TIP3    H128116   5.539   3.880   5.100
 9413TIP3    H228117   5.407   3.808   5.117
 9414TIP3   OH228118   7.284   3.771   4.844
 9414TIP3    H128119   7.350   3.717   4.801
 9414TIP3    H228120   7.246   3.824   4.774
 9415TIP3   OH228121   6.715   3.618   3.610
 9415TIP3    H128122   6.758   3.598   3.693
 9415TIP3    H228123   6.650   3.548   3.599
 9416TIP3   OH228124   5.418   3.595   4.426
 9416TIP3    H128125   5.471   3.515   4.434
 9416TIP3    H228126   5.483   3.663   4.407
 9417TIP3   OH228127   5.187   3.866   4.482
 9417TIP3    H128128   5.246   3.847   4.409
 9417TIP3    H228129   5.192   3.961   4.493
 9418TIP3   OH228130   7.135   3.896   4.652
 9418TIP3    H128131   7.054   3.938   4.683
 9418TIP3    H228132   7.105   3.824   4.597
 9419TIP3   OH228133   6.757   3.518   3.242
 9419TIP3    H128134   6.804   3.459   3.183
 9419TIP3    H228135   6.808   3.599   3.240
 9420TIP3   OH228136   5.183   3.379   3.995
 9420TIP3    H128137   5.098   3.363   4.037
 9420TIP3    H228138   5.162   3.430   3.917
 9421TIP3   OH228139   6.335   5.085   3.513
 9421TIP3    H128140   6.394   5.079   3.438
 9421TIP3    H228141   6.373   5.153   3.569
 9422TIP3   OH228142   5.411   3.424   4.822
 9422TIP3    H128143   5.360   3.419   4.903
 9422TIP3    H228144   5.355   3.474   4.762
 9423TIP3   OH228145   7.043   3.656   4.537
 9423TIP3    H128146   6.963   3.659   4.485
 9423TIP3    H228147   7.071   3.564   4.531
 9424TIP3   OH228148   5.964   5.221   4.110
 9424TIP3    H128149   5.887   5.226   4.054
 9424TIP3    H228150   5.964   5.304   4.158
 9425TIP3   OH228151   6.217   5.099   4.111
 9425TIP3    H128152   6.136   5.149   4.106
 9425TIP3    H228153   6.273   5.151   4.170
 9426TIP3   OH228154   6.585   5.360   4.034
 9426TIP3    H128155   6.525   5.431   4.012
 9426TIP3    H228156   6.536   5.280   4.015
 9427TIP3   OH228157   5.233   4.959   4.195
 9427TIP3    H128158   5.265   4.973   4.284
 9427TIP3    H228159   5.305   4.913   4.150
 9428TIP3   OH228160   5.406   4.815   4.041
 9428TIP3    H128161   5.428   4.737   4.092
 9428TIP3    H228162   5.489   4.860   4.030
 9429TIP3   OH228163   5.666   4.926   4.074
 9429TIP3    H128164   5.706   4.840   4.061
 9429TIP3    H228165   5.671   4.942   4.168
 9430TIP3   OH228166   6.249   3.566   4.181
 9430TIP3    H128167   6.205   3.497   4.230
 9430TIP3    H228168   6.312   3.520   4.126
 9431TIP3   OH228169   6.739   3.432   4.054
 9431TIP3    H128170   6.782   3.484   3.986
 9431TIP3    H228171   6.650   3.467   4.058
 9432TIP3   OH228172   6.863   3.546   3.837
 9432TIP3    H128173   6.929   3.486   3.803
 9432TIP3    H228174   6.903   3.633   3.827
 9433TIP3   OH228175   5.487   3.267   4.173
 9433TIP3    H128176   5.398   3.234   4.184
 9433TIP3    H228177   5.541   3.189   4.162
 9434TIP3   OH228178   5.317   3.185   3.833
 9434TIP3    H128179   5.338   3.232   3.753
 9434TIP3    H228180   5.278   3.252   3.890
 9435TIP3   OH228181   5.977   3.298   4.071
 9435TIP3    H128182   6.020   3.349   4.002
 9435TIP3    H228183   6.010   3.335   4.152
 9436TIP3   OH228184   6.444   3.433   4.033
 9436TIP3    H128185   6.438   3.416   3.939
 9436TIP3    H228186   6.445   3.346   4.073
 9437TIP3   OH228187   6.524   3.413   3.608
 9437TIP3    H128188   6.444   3.460   3.631
 9437TIP3    H228189   6.508   3.323   3.639
 9438TIP3   OH228190   5.415   3.307   3.588
 9438TIP3    H128191   5.461   3.245   3.532
 9438TIP3    H228192   5.484   3.363   3.624
 9439TIP3   OH228193   5.899   3.499   3.686
 9439TIP3    H128194   5.957   3.445   3.740
 9439TIP3    H228195   5.917   3.589   3.715
 9440TIP3   OH228196   5.788   4.894   3.183
 9440TIP3    H128197   5.871   4.922   3.144
 9440TIP3    H228198   5.758   4.824   3.126
 9441TIP3   OH228199   6.491   5.045   3.284
 9441TIP3    H128200   6.484   4.950   3.277
 9441TIP3    H228201   6.444   5.079   3.207
 9442TIP3   OH228202   5.720   3.552   5.062
 9442TIP3    H128203   5.682   3.487   5.121
 9442TIP3    H228204   5.812   3.559   5.089
 9443TIP3   OH228205   5.967   3.553   5.188
 9443TIP3    H128206   6.044   3.528   5.136
 9443TIP3    H228207   5.959   3.484   5.253
 9444TIP3   OH228208   5.096   4.749   3.230
 9444TIP3    H128209   5.096   4.765   3.325
 9444TIP3    H228210   5.175   4.697   3.215
 9445TIP3   OH228211   6.788   3.654   4.966
 9445TIP3    H128212   6.803   3.625   5.056
 9445TIP3    H228213   6.873   3.647   4.924
 9446TIP3   OH228214   7.985   4.545   3.229
 9446TIP3    H128215   7.961   4.635   3.209
 9446TIP3    H228216   7.914   4.492   3.190
 9447TIP3   OH228217   7.982   4.557   3.636
 9447TIP3    H128218   8.034   4.540   3.715
 9447TIP3    H228219   7.928   4.479   3.625
 9448TIP3   OH228220   7.283   4.413   3.953
 9448TIP3    H128221   7.310   4.357   4.025
 9448TIP3    H228222   7.365   4.438   3.910
 9449TIP3   OH228223   8.255   4.864   3.306
 9449TIP3    H128224   8.230   4.804   3.376
 9449TIP3    H228225   8.271   4.947   3.350
 9450TIP3   OH228226   7.318   4.882   3.709
 9450TIP3    H128227   7.292   4.790   3.701
 9450TIP3    H228228   7.399   4.888   3.658
 9451TIP3   OH228229   6.944   4.042   3.455
 9451TIP3    H128230   6.910   4.130   3.467
 9451TIP3    H228231   6.874   3.995   3.410
 9452TIP3   OH228232   7.031   4.341   3.658
 9452TIP3    H128233   7.082   4.266   3.689
 9452TIP3    H228234   7.073   4.366   3.576
 9453TIP3   OH228235   7.914   5.283   3.318
 9453TIP3    H128236   7.936   5.224   3.245
 9453TIP3    H228237   7.922   5.228   3.396
 9454TIP3   OH228238   7.785   4.792   3.633
 9454TIP3    H128239   7.821   4.711   3.596
 9454TIP3    H228240   7.862   4.838   3.668
 9455TIP3   OH228241   8.777   4.110   3.669
 9455TIP3    H128242   8.800   4.194   3.709
 9455TIP3    H228243   8.792   4.123   3.575
 9456TIP3   OH228244   8.196   4.270   3.668
 9456TIP3    H128245   8.224   4.181   3.688
 9456TIP3    H228246   8.151   4.263   3.584
 9457TIP3   OH228247   7.551   3.921   3.618
 9457TIP3    H128248   7.526   3.995   3.563
 9457TIP3    H228249   7.495   3.849   3.588
 9458TIP3   OH228250   7.176   4.130   3.762
 9458TIP3    H128251   7.261   4.117   3.803
 9458TIP3    H228252   7.181   4.080   3.680
 9459TIP3   OH228253   7.588   4.338   3.580
 9459TIP3    H128254   7.682   4.323   3.586
 9459TIP3    H228255   7.553   4.259   3.540
 9460TIP3   OH228256   8.842   4.330   3.824
 9460TIP3    H128257   8.751   4.361   3.822
 9460TIP3    H228258   8.880   4.372   3.901
 9461TIP3   OH228259   7.528   3.931   4.085
 9461TIP3    H128260   7.479   3.965   4.010
 9461TIP3    H228261   7.471   3.948   4.160
 9462TIP3   OH228262   7.865   4.763   3.101
 9462TIP3    H128263   7.834   4.742   3.013
 9462TIP3    H228264   7.823   4.846   3.123
 9463TIP3   OH228265   7.633   4.710   3.852
 9463TIP3    H128266   7.570   4.772   3.888
 9463TIP3    H228267   7.671   4.755   3.776
 9464TIP3   OH228268   8.455   4.042   3.448
 9464TIP3    H128269   8.392   4.001   3.507
 9464TIP3    H228270   8.473   4.127   3.487
 9465TIP3   OH228271   7.427   4.030   3.846
 9465TIP3    H128272   7.484   4.104   3.868
 9465TIP3    H228273   7.470   3.988   3.772
 9466TIP3   OH228274   7.431   4.867   3.961
 9466TIP3    H128275   7.384   4.890   3.881
 9466TIP3    H228276   7.364   4.828   4.018
 9467TIP3   OH228277   6.841   4.618   3.209
 9467TIP3    H128278   6.816   4.628   3.117
 9467TIP3    H228279   6.867   4.706   3.237
 9468TIP3   OH228280   8.278   5.110   3.447
 9468TIP3    H128281   8.191   5.106   3.486
 9468TIP3    H228282   8.278   5.192   3.398
 9469TIP3   OH228283   8.598   3.986   3.839
 9469TIP3    H128284   8.511   3.997   3.801
 9469TIP3    H228285   8.658   4.020   3.773
 9470TIP3   OH228286   7.869   3.623   3.818
 9470TIP3    H128287   7.861   3.531   3.843
 9470TIP3    H228288   7.791   3.665   3.855
 9471TIP3   OH228289   7.995   5.139   3.093
 9471TIP3    H128290   8.048   5.060   3.082
 9471TIP3    H228291   8.053   5.211   3.069
 9472TIP3   OH228292   8.154   4.923   3.052
 9472TIP3    H128293   8.148   4.844   2.998
 9472TIP3    H228294   8.192   4.893   3.135
 9473TIP3   OH228295   8.512   5.002   3.788
 9473TIP3    H128296   8.493   4.927   3.731
 9473TIP3    H228297   8.500   5.078   3.732
 9474TIP3   OH228298   7.809   4.397   3.078
 9474TIP3    H128299   7.728   4.447   3.067
 9474TIP3    H228300   7.849   4.396   2.991
 9475TIP3   OH228301   7.783   4.205   2.737
 9475TIP3    H128302   7.833   4.264   2.793
 9475TIP3    H228303   7.845   4.136   2.714
 9476TIP3   OH228304   8.669   4.649   3.652
 9476TIP3    H128305   8.587   4.699   3.652
 9476TIP3    H228306   8.708   4.667   3.567
 9477TIP3   OH228307   8.167   4.486   3.028
 9477TIP3    H128308   8.112   4.512   3.102
 9477TIP3    H228309   8.253   4.469   3.066
 9478TIP3   OH228310   8.387   4.526   3.976
 9478TIP3    H128311   8.385   4.610   4.021
 9478TIP3    H228312   8.304   4.524   3.927
 9479TIP3   OH228313   7.380   4.479   3.461
 9479TIP3    H128314   7.333   4.418   3.403
 9479TIP3    H228315   7.456   4.430   3.491
 9480TIP3   OH228316   7.545   4.925   3.556
 9480TIP3    H128317   7.511   4.905   3.469
 9480TIP3    H228318   7.628   4.877   3.561
 9481TIP3   OH228319   7.518   4.461   3.818
 9481TIP3    H128320   7.539   4.432   3.729
 9481TIP3    H228321   7.556   4.549   3.824
 9482TIP3   OH228322   8.041   5.111   3.584
 9482TIP3    H128323   8.029   5.191   3.636
 9482TIP3    H228324   8.029   5.040   3.646
 9483TIP3   OH228325   7.986   4.351   2.864
 9483TIP3    H128326   8.054   4.398   2.913
 9483TIP3    H228327   8.022   4.342   2.776
 9484TIP3   OH228328   7.412   4.504   4.269
 9484TIP3    H128329   7.423   4.520   4.362
 9484TIP3    H228330   7.320   4.525   4.251
 9485TIP3   OH228331   7.748   5.019   3.121
 9485TIP3    H128332   7.831   5.065   3.114
 9485TIP3    H228333   7.688   5.068   3.064
 9486TIP3   OH228334   8.498   3.587   2.929
 9486TIP3    H128335   8.425   3.619   2.981
 9486TIP3    H228336   8.518   3.659   2.868
 9487TIP3   OH228337   7.233   4.318   3.294
 9487TIP3    H128338   7.191   4.394   3.254
 9487TIP3    H228339   7.222   4.248   3.229
 9488TIP3   OH228340   8.301   4.965   2.466
 9488TIP3    H128341   8.300   5.058   2.441
 9488TIP3    H228342   8.388   4.935   2.440
 9489TIP3   OH228343   7.093   4.727   4.086
 9489TIP3    H128344   7.007   4.705   4.050
 9489TIP3    H228345   7.111   4.657   4.148
 9490TIP3   OH228346   6.865   4.924   3.811
 9490TIP3    H128347   6.956   4.944   3.833
 9490TIP3    H228348   6.817   5.004   3.832
 9491TIP3   OH228349   8.746   5.380   3.868
 9491TIP3    H128350   8.751   5.285   3.872
 9491TIP3    H228351   8.664   5.402   3.913
 9492TIP3   OH228352   7.878   5.135   4.072
 9492TIP3    H128353   7.862   5.227   4.049
 9492TIP3    H228354   7.861   5.131   4.166
 9493TIP3   OH228355   7.638   5.247   2.935
 9493TIP3    H128356   7.593   5.227   2.853
 9493TIP3    H228357   7.598   5.330   2.964
 9494TIP3   OH228358   7.075   5.104   3.325
 9494TIP3    H128359   7.114   5.093   3.411
 9494TIP3    H228360   7.023   5.025   3.312
 9495TIP3   OH228361   7.835   5.179   2.565
 9495TIP3    H128362   7.884   5.105   2.530
 9495TIP3    H228363   7.872   5.194   2.652
 9496TIP3   OH228364   7.892   5.224   2.835
 9496TIP3    H128365   7.805   5.228   2.874
 9496TIP3    H228366   7.947   5.185   2.902
 9497TIP3   OH228367   8.625   4.481   4.139
 9497TIP3    H128368   8.544   4.479   4.087
 9497TIP3    H228369   8.645   4.389   4.154
 9498TIP3   OH228370   7.631   3.714   3.942
 9498TIP3    H128371   7.548   3.680   3.908
 9498TIP3    H228372   7.608   3.794   3.988
 9499TIP3   OH228373   8.177   3.836   4.145
 9499TIP3    H128374   8.247   3.810   4.206
 9499TIP3    H228375   8.096   3.822   4.195
 9500TIP3   OH228376   8.380   4.261   4.063
 9500TIP3    H128377   8.341   4.252   4.150
 9500TIP3    H228378   8.363   4.351   4.038
 9501TIP3   OH228379   8.077   4.316   2.602
 9501TIP3    H128380   8.026   4.323   2.521
 9501TIP3    H228381   8.160   4.359   2.582
 9502TIP3   OH228382   7.785   3.732   2.905
 9502TIP3    H128383   7.749   3.747   2.992
 9502TIP3    H228384   7.740   3.654   2.873
 9503TIP3   OH228385   7.582   4.235   3.953
 9503TIP3    H128386   7.527   4.239   4.032
 9503TIP3    H228387   7.564   4.317   3.908
 9504TIP3   OH228388   7.455   4.125   3.463
 9504TIP3    H128389   7.362   4.110   3.484
 9504TIP3    H228390   7.464   4.098   3.372
 9505TIP3   OH228391   7.960   4.186   3.169
 9505TIP3    H128392   7.898   4.257   3.154
 9505TIP3    H228393   8.006   4.177   3.086
 9506TIP3   OH228394   8.124   4.459   4.271
 9506TIP3    H128395   8.096   4.392   4.334
 9506TIP3    H228396   8.216   4.475   4.294
 9507TIP3   OH228397   8.075   4.281   3.414
 9507TIP3    H128398   8.036   4.365   3.391
 9507TIP3    H228399   8.051   4.223   3.342
 9508TIP3   OH228400   7.401   4.251   4.156
 9508TIP3    H128401   7.405   4.327   4.214
 9508TIP3    H228402   7.384   4.177   4.214
 9509TIP3   OH228403   7.426   3.749   2.854
 9509TIP3    H128404   7.398   3.823   2.909
 9509TIP3    H228405   7.369   3.755   2.777
 9510TIP3   OH228406   6.998   3.769   3.765
 9510TIP3    H128407   7.069   3.812   3.811
 9510TIP3    H228408   7.025   3.769   3.673
 9511TIP3   OH228409   6.907   3.755   3.238
 9511TIP3    H128410   6.965   3.788   3.170
 9511TIP3    H228411   6.847   3.827   3.255
 9512TIP3   OH228412   8.143   4.467   3.849
 9512TIP3    H128413   8.169   4.401   3.785
 9512TIP3    H228414   8.099   4.417   3.918
 9513TIP3   OH228415   7.822   3.922   3.515
 9513TIP3    H128416   7.740   3.919   3.565
 9513TIP3    H228417   7.890   3.905   3.581
 9514TIP3   OH228418   7.211   3.998   3.528
 9514TIP3    H128419   7.124   4.003   3.489
 9514TIP3    H228420   7.242   3.910   3.506
 9515TIP3   OH228421   7.477   4.008   3.214
 9515TIP3    H128422   7.571   4.017   3.195
 9515TIP3    H228423   7.434   4.020   3.130
 9516TIP3   OH228424   8.253   4.003   3.715
 9516TIP3    H128425   8.239   4.019   3.809
 9516TIP3    H228426   8.186   3.940   3.691
 9517TIP3   OH228427   7.350   4.007   2.968
 9517TIP3    H128428   7.271   4.059   2.973
 9517TIP3    H228429   7.406   4.054   2.906
 9518TIP3   OH228430   8.452   5.712   3.947
 9518TIP3    H128431   8.449   5.729   3.853
 9518TIP3    H228432   8.529   5.760   3.978
 9519TIP3   OH228433   7.861   4.296   3.635
 9519TIP3    H128434   7.923   4.243   3.585
 9519TIP3    H228435   7.858   4.254   3.721
 9520TIP3   OH228436   7.354   3.749   3.503
 9520TIP3    H128437   7.325   3.672   3.550
 9520TIP3    H228438   7.368   3.719   3.413
 9521TIP3   OH228439   7.845   4.190   3.892
 9521TIP3    H128440   7.756   4.216   3.918
 9521TIP3    H228441   7.903   4.241   3.948
 9522TIP3   OH228442   7.584   4.553   3.032
 9522TIP3    H128443   7.522   4.483   3.013
 9522TIP3    H228444   7.554   4.589   3.116
 9523TIP3   OH228445   8.448   4.804   3.610
 9523TIP3    H128446   8.484   4.853   3.536
 9523TIP3    H228447   8.366   4.768   3.576
 9524TIP3   OH228448   8.008   3.884   2.893
 9524TIP3    H128449   7.923   3.840   2.890
 9524TIP3    H228450   8.006   3.946   2.820
 9525TIP3   OH228451   7.985   4.875   4.034
 9525TIP3    H128452   8.043   4.858   4.108
 9525TIP3    H228453   7.950   4.962   4.051
 9526TIP3   OH228454   7.280   4.615   3.678
 9526TIP3    H128455   7.309   4.572   3.598
 9526TIP3    H228456   7.276   4.544   3.743
 9527TIP3   OH228457   7.727   4.702   2.858
 9527TIP3    H128458   7.681   4.786   2.855
 9527TIP3    H228459   7.673   4.648   2.916
 9528TIP3   OH228460   7.128   4.507   4.272
 9528TIP3    H128461   7.131   4.467   4.358
 9528TIP3    H228462   7.050   4.469   4.231
 9529TIP3   OH228463   7.892   4.604   4.323
 9529TIP3    H128464   7.821   4.548   4.291
 9529TIP3    H228465   7.972   4.564   4.289
 9530TIP3   OH228466   8.125   5.172   3.917
 9530TIP3    H128467   8.035   5.144   3.932
 9530TIP3    H228468   8.151   5.212   4.000
 9531TIP3   OH228469   8.528   4.219   2.769
 9531TIP3    H128470   8.459   4.172   2.722
 9531TIP3    H228471   8.524   4.308   2.735
 9532TIP3   OH228472   8.751   5.102   3.878
 9532TIP3    H128473   8.657   5.081   3.876
 9532TIP3    H228474   8.784   5.070   3.794
 9533TIP3   OH228475   8.256   5.027   2.734
 9533TIP3    H128476   8.220   4.955   2.787
 9533TIP3    H228477   8.262   4.991   2.646
 9534TIP3   OH228478   8.216   4.677   3.518
 9534TIP3    H128479   8.128   4.650   3.544
 9534TIP3    H228480   8.256   4.598   3.482
 9535TIP3   OH228481   7.381   4.897   3.328
 9535TIP3    H128482   7.380   4.974   3.271
 9535TIP3    H228483   7.290   4.867   3.329
 9536TIP3   OH228484   7.489   4.649   3.266
 9536TIP3    H128485   7.462   4.739   3.287
 9536TIP3    H228486   7.446   4.596   3.334
 9537TIP3   OH228487   7.659   5.231   3.804
 9537TIP3    H128488   7.691   5.299   3.744
 9537TIP3    H228489   7.718   5.157   3.789
 9538TIP3   OH228490   7.306   5.120   3.175
 9538TIP3    H128491   7.220   5.127   3.217
 9538TIP3    H228492   7.343   5.208   3.181
 9539TIP3   OH228493   8.018   4.888   3.757
 9539TIP3    H128494   8.009   4.877   3.852
 9539TIP3    H228495   8.096   4.837   3.735
 9540TIP3   OH228496   8.019   4.769   2.633
 9540TIP3    H128497   8.057   4.749   2.719
 9540TIP3    H228498   7.935   4.724   2.633
 9541TIP3   OH228499   8.280   5.375   3.788
 9541TIP3    H128500   8.209   5.315   3.810
 9541TIP3    H228501   8.245   5.430   3.719
 9542TIP3   OH228502   8.317   5.236   2.419
 9542TIP3    H128503   8.319   5.285   2.337
 9542TIP3    H228504   8.253   5.281   2.474
 9543TIP3   OH228505   7.356   4.005   4.293
 9543TIP3    H128506   7.260   4.013   4.298
 9543TIP3    H228507   7.380   3.954   4.370
 9544TIP3   OH228508   8.178   4.709   2.859
 9544TIP3    H128509   8.163   4.631   2.912
 9544TIP3    H228510   8.270   4.703   2.832
 9545TIP3   OH228511   7.366   4.713   2.632
 9545TIP3    H128512   7.383   4.622   2.610
 9545TIP3    H228513   7.349   4.712   2.726
 9546TIP3   OH228514   7.302   4.742   2.899
 9546TIP3    H128515   7.352   4.697   2.967
 9546TIP3    H228516   7.313   4.835   2.919
 9547TIP3   OH228517   7.096   4.506   3.151
 9547TIP3    H128518   7.004   4.529   3.168
 9547TIP3    H228519   7.091   4.435   3.087
 9548TIP3   OH228520   8.210   4.056   3.982
 9548TIP3    H128521   8.282   4.109   4.018
 9548TIP3    H228522   8.201   3.983   4.043
 9549TIP3   OH228523   8.069   3.831   3.155
 9549TIP3    H128524   8.050   3.836   3.062
 9549TIP3    H228525   8.060   3.921   3.186
 9550TIP3   OH228526   7.586   4.935   2.853
 9550TIP3    H128527   7.500   4.956   2.888
 9550TIP3    H228528   7.605   5.006   2.792
 9551TIP3   OH228529   7.767   3.999   3.252
 9551TIP3    H128530   7.828   4.067   3.225
 9551TIP3    H228531   7.781   3.991   3.347
 9552TIP3   OH228532   8.048   4.301   4.047
 9552TIP3    H128533   8.071   4.345   4.129
 9552TIP3    H228534   8.096   4.218   4.050
 9553TIP3   OH228535   7.906   3.706   3.353
 9553TIP3    H128536   7.881   3.785   3.401
 9553TIP3    H228537   7.966   3.738   3.286
 9554TIP3   OH228538   7.331   5.015   2.923
 9554TIP3    H128539   7.312   5.087   2.863
 9554TIP3    H228540   7.321   5.053   3.010
 9555TIP3   OH228541   7.411   3.731   3.206
 9555TIP3    H128542   7.406   3.826   3.210
 9555TIP3    H228543   7.501   3.713   3.178
 9556TIP3   OH228544   8.639   4.191   4.038
 9556TIP3    H128545   8.547   4.213   4.052
 9556TIP3    H228546   8.638   4.127   3.967
 9557TIP3   OH228547   8.318   4.429   3.434
 9557TIP3    H128548   8.241   4.373   3.437
 9557TIP3    H228549   8.383   4.384   3.489
 9558TIP3   OH228550   7.045   4.649   2.829
 9558TIP3    H128551   7.122   4.690   2.870
 9558TIP3    H228552   7.078   4.567   2.793
 9559TIP3   OH228553   8.298   5.373   3.359
 9559TIP3    H128554   8.258   5.429   3.292
 9559TIP3    H228555   8.392   5.386   3.347
 9560TIP3   OH228556   7.371   3.626   3.897
 9560TIP3    H128557   7.340   3.597   3.812
 9560TIP3    H228558   7.359   3.551   3.955
 9561TIP3   OH228559   6.894   4.894   3.274
 9561TIP3    H128560   6.841   4.926   3.347
 9561TIP3    H228561   6.852   4.932   3.196
 9562TIP3   OH228562   7.514   4.923   2.530
 9562TIP3    H128563   7.466   4.850   2.570
 9562TIP3    H228564   7.590   4.882   2.490
 9563TIP3   OH228565   8.178   5.275   4.165
 9563TIP3    H128566   8.193   5.203   4.226
 9563TIP3    H228567   8.253   5.333   4.178
 9564TIP3   OH228568   7.962   4.967   2.447
 9564TIP3    H128569   8.002   4.906   2.509
 9564TIP3    H228570   8.019   4.965   2.370
 9565TIP3   OH228571   7.159   4.424   2.720
 9565TIP3    H128572   7.157   4.364   2.795
 9565TIP3    H228573   7.249   4.420   2.688
 9566TIP3   OH228574   7.802   4.862   4.290
 9566TIP3    H128575   7.778   4.853   4.198
 9566TIP3    H228576   7.847   4.781   4.311
 9567TIP3   OH228577   7.773   4.642   2.594
 9567TIP3    H128578   7.747   4.652   2.686
 9567TIP3    H228579   7.750   4.551   2.572
 9568TIP3   OH228580   8.292   4.947   3.943
 9568TIP3    H128581   8.369   4.971   3.893
 9568TIP3    H228582   8.230   5.019   3.928
 9569TIP3   OH228583   7.442   4.520   4.540
 9569TIP3    H128584   7.513   4.461   4.567
 9569TIP3    H228585   7.421   4.569   4.619
 9570TIP3   OH228586   7.425   4.347   2.974
 9570TIP3    H128587   7.333   4.326   2.987
 9570TIP3    H228588   7.457   4.278   2.916
 9571TIP3   OH228589   7.685   4.448   4.214
 9571TIP3    H128590   7.594   4.477   4.219
 9571TIP3    H228591   7.716   4.479   4.129
 9572TIP3   OH228592   7.517   4.151   2.801
 9572TIP3    H128593   7.478   4.161   2.715
 9572TIP3    H228594   7.611   4.166   2.787
 9573TIP3   OH228595   8.171   4.818   4.284
 9573TIP3    H128596   8.246   4.787   4.233
 9573TIP3    H228597   8.169   4.762   4.361
 9574TIP3   OH228598   8.284   4.454   2.476
 9574TIP3    H128599   8.269   4.417   2.388
 9574TIP3    H228600   8.262   4.547   2.466
 9575TIP3   OH228601   7.775   4.216   4.328
 9575TIP3    H128602   7.777   4.145   4.264
 9575TIP3    H228603   7.744   4.292   4.279
 9576TIP3   OH228604   7.786   4.018   4.123
 9576TIP3    H128605   7.814   4.054   4.038
 9576TIP3    H228606   7.696   3.992   4.109
 9577TIP3   OH228607   7.807   4.554   3.995
 9577TIP3    H128608   7.893   4.590   3.976
 9577TIP3    H228609   7.747   4.607   3.942
 9578TIP3   OH228610   8.389   4.493   4.371
 9578TIP3    H128611   8.431   4.409   4.387
 9578TIP3    H228612   8.462   4.554   4.356
 9579TIP3   OH228613   8.410   4.772   4.112
 9579TIP3    H128614   8.357   4.833   4.060
 9579TIP3    H228615   8.499   4.786   4.082
 9580TIP3   OH228616   7.650   4.306   4.568
 9580TIP3    H128617   7.587   4.238   4.590
 9580TIP3    H228618   7.682   4.282   4.481
 9581TIP3   OH228619   7.910   3.789   4.225
 9581TIP3    H128620   7.869   3.869   4.192
 9581TIP3    H228621   7.844   3.721   4.211
 9582TIP3   OH228622   8.030   4.255   4.429
 9582TIP3    H128623   8.019   4.242   4.524
 9582TIP3    H228624   7.944   4.234   4.392
 9583TIP3   OH228625   8.272   4.199   4.301
 9583TIP3    H128626   8.194   4.201   4.356
 9583TIP3    H228627   8.343   4.181   4.361
 9584TIP3   OH228628   8.505   4.178   4.451
 9584TIP3    H128629   8.523   4.084   4.456
 9584TIP3    H228630   8.504   4.207   4.542
 9585TIP3   OH228631   7.497   4.077   4.631
 9585TIP3    H128632   7.502   3.990   4.593
 9585TIP3    H228633   7.536   4.068   4.718
 9586TIP3   OH228634   7.975   3.762   4.490
 9586TIP3    H128635   8.043   3.696   4.483
 9586TIP3    H228636   7.945   3.776   4.401
 9587TIP3   OH228637   8.067   3.978   4.635
 9587TIP3    H128638   8.038   3.905   4.581
 9587TIP3    H228639   7.993   4.039   4.635
 9588TIP3   OH228640   7.322   5.216   2.733
 9588TIP3    H128641   7.413   5.197   2.709
 9588TIP3    H228642   7.289   5.269   2.660
 9589TIP3   OH228643   6.796   4.620   2.932
 9589TIP3    H128644   6.886   4.641   2.908
 9589TIP3    H228645   6.780   4.534   2.892
 9590TIP3   OH228646   6.699   5.197   3.373
 9590TIP3    H128647   6.630   5.145   3.331
 9590TIP3    H228648   6.742   5.137   3.433
 9591TIP3   OH228649   6.842   5.028   3.537
 9591TIP3    H128650   6.826   4.964   3.606
 9591TIP3    H228651   6.900   5.093   3.578
 9592TIP3   OH228652   8.569   5.422   3.356
 9592TIP3    H128653   8.589   5.457   3.443
 9592TIP3    H228654   8.623   5.474   3.297
 9593TIP3   OH228655   8.584   5.468   3.637
 9593TIP3    H128656   8.542   5.382   3.629
 9593TIP3    H228657   8.655   5.454   3.700
 9594TIP3   OH228658   8.651   5.176   4.207
 9594TIP3    H128659   8.576   5.180   4.267
 9594TIP3    H228660   8.693   5.262   4.216
 9595TIP3   OH228661   8.450   4.678   2.808
 9595TIP3    H128662   8.501   4.753   2.777
 9595TIP3    H228663   8.503   4.638   2.876
 9596TIP3   OH228664   8.594   4.541   3.001
 9596TIP3    H128665   8.523   4.518   3.061
 9596TIP3    H228666   8.659   4.583   3.056
 9597TIP3   OH228667   8.628   4.941   3.448
 9597TIP3    H128668   8.677   4.870   3.406
 9597TIP3    H228669   8.636   5.015   3.388
 9598TIP3   OH228670   8.453   5.221   3.636
 9598TIP3    H128671   8.386   5.267   3.686
 9598TIP3    H228672   8.405   5.182   3.563
 9599TIP3   OH228673   8.500   4.460   2.644
 9599TIP3    H128674   8.429   4.451   2.581
 9599TIP3    H228675   8.478   4.537   2.696
 9600TIP3   OH228676   8.346   4.101   2.603
 9600TIP3    H128677   8.299   4.126   2.524
 9600TIP3    H228678   8.343   4.006   2.605
 9601TIP3   OH228679   8.404   4.433   3.172
 9601TIP3    H128680   8.452   4.351   3.180
 9601TIP3    H228681   8.375   4.452   3.262
 9602TIP3   OH228682   7.011   4.413   3.922
 9602TIP3    H128683   7.004   4.398   3.828
 9602TIP3    H228684   7.105   4.425   3.938
 9603TIP3   OH228685   8.664   4.824   4.015
 9603TIP3    H128686   8.728   4.754   4.002
 9603TIP3    H228687   8.676   4.882   3.941
 9604TIP3   OH228688   8.828   4.607   4.010
 9604TIP3    H128689   8.755   4.565   4.055
 9604TIP3    H228690   8.904   4.551   4.028
 9605TIP3   OH228691   8.323   3.830   2.607
 9605TIP3    H128692   8.382   3.790   2.671
 9605TIP3    H228693   8.239   3.786   2.622
 9606TIP3   OH228694   8.522   4.283   3.558
 9606TIP3    H128695   8.600   4.316   3.514
 9606TIP3    H228696   8.530   4.314   3.648
 9607TIP3   OH228697   8.583   4.427   3.791
 9607TIP3    H128698   8.516   4.459   3.851
 9607TIP3    H228699   8.613   4.506   3.745
 9608TIP3   OH228700   7.234   4.143   4.567
 9608TIP3    H128701   7.328   4.139   4.585
 9608TIP3    H228702   7.199   4.063   4.608
 9609TIP3   OH228703   9.034   4.079   4.330
 9609TIP3    H128704   9.112   4.033   4.299
 9609TIP3    H228705   8.995   4.116   4.251
 9610TIP3   OH228706   7.212   3.853   3.928
 9610TIP3    H128707   7.264   3.773   3.926
 9610TIP3    H228708   7.272   3.923   3.901
 9611TIP3   OH228709   6.978   4.129   3.964
 9611TIP3    H128710   7.040   4.104   3.896
 9611TIP3    H228711   6.982   4.225   3.967
 9612TIP3   OH228712   8.898   4.149   4.107
 9612TIP3    H128713   8.808   4.180   4.108
 9612TIP3    H228714   8.893   4.063   4.064
 9613TIP3   OH228715   8.580   3.778   2.752
 9613TIP3    H128716   8.610   3.720   2.682
 9613TIP3    H228717   8.619   3.863   2.731
 9614TIP3   OH228718   6.975   3.642   3.480
 9614TIP3    H128719   6.890   3.628   3.521
 9614TIP3    H228720   6.955   3.689   3.399
 9615TIP3   OH228721   8.138   5.347   3.003
 9615TIP3    H128722   8.190   5.335   2.924
 9615TIP3    H228723   8.179   5.421   3.047
 9616TIP3   OH228724   7.208   3.672   4.305
 9616TIP3    H128725   7.160   3.675   4.387
 9616TIP3    H228726   7.155   3.723   4.244
 9617TIP3   OH228727   7.817   5.415   4.075
 9617TIP3    H128728   7.858   5.414   4.161
 9617TIP3    H228729   7.876   5.469   4.021
 9618TIP3   OH228730   8.012   5.566   3.949
 9618TIP3    H128731   8.068   5.514   3.891
 9618TIP3    H228732   8.072   5.621   3.998
 9619TIP3   OH228733   8.825   3.899   4.014
 9619TIP3    H128734   8.737   3.903   3.975
 9619TIP3    H228735   8.853   3.809   4.001
 9620TIP3   OH228736   7.080   5.363   3.915
 9620TIP3    H128737   6.997   5.411   3.921
 9620TIP3    H228738   7.099   5.335   4.005
 9621TIP3   OH228739   7.358   5.433   3.837
 9621TIP3    H128740   7.279   5.393   3.872
 9621TIP3    H228741   7.335   5.457   3.747
 9622TIP3   OH228742   7.736   5.430   3.630
 9622TIP3    H128743   7.672   5.442   3.560
 9622TIP3    H228744   7.751   5.518   3.664
 9623TIP3   OH228745   8.002   5.369   3.682
 9623TIP3    H128746   7.911   5.388   3.658
 9623TIP3    H228747   8.054   5.429   3.629
 9624TIP3   OH228748   8.200   5.526   3.565
 9624TIP3    H128749   8.210   5.615   3.531
 9624TIP3    H228750   8.230   5.469   3.494
 9625TIP3   OH228751   7.009   5.226   3.684
 9625TIP3    H128752   7.043   5.270   3.762
 9625TIP3    H228753   7.085   5.182   3.646
 9626TIP3   OH228754   7.214   5.093   3.568
 9626TIP3    H128755   7.236   5.014   3.619
 9626TIP3    H228756   7.297   5.140   3.560
 9627TIP3   OH228757   7.475   5.193   3.584
 9627TIP3    H128758   7.506   5.105   3.564
 9627TIP3    H228759   7.507   5.210   3.673
 9628TIP3   OH228760   8.048   3.813   3.652
 9628TIP3    H128761   8.009   3.744   3.706
 9628TIP3    H228762   8.112   3.768   3.598
 9629TIP3   OH228763   8.523   3.763   3.583
 9629TIP3    H128764   8.564   3.762   3.497
 9629TIP3    H228765   8.430   3.746   3.565
 9630TIP3   OH228766   8.688   3.827   3.357
 9630TIP3    H128767   8.719   3.759   3.297
 9630TIP3    H228768   8.761   3.842   3.416
 9631TIP3   OH228769   7.278   3.523   3.658
 9631TIP3    H128770   7.188   3.490   3.663
 9631TIP3    H228771   7.332   3.445   3.647
 9632TIP3   OH228772   7.126   3.449   3.330
 9632TIP3    H128773   7.147   3.493   3.248
 9632TIP3    H228774   7.082   3.516   3.382
 9633TIP3   OH228775   7.775   3.557   3.556
 9633TIP3    H128776   7.818   3.609   3.488
 9633TIP3    H228777   7.811   3.590   3.638
 9634TIP3   OH228778   8.263   3.695   3.510
 9634TIP3    H128779   8.277   3.653   3.425
 9634TIP3    H228780   8.262   3.622   3.573
 9635TIP3   OH228781   8.304   3.674   3.105
 9635TIP3    H128782   8.225   3.725   3.121
 9635TIP3    H228783   8.284   3.587   3.139
 9636TIP3   OH228784   6.782   5.002   3.040
 9636TIP3    H128785   6.692   4.976   3.018
 9636TIP3    H228786   6.784   5.096   3.023
 9637TIP3   OH228787   7.217   3.566   3.081
 9637TIP3    H128788   7.265   3.509   3.021
 9637TIP3    H228789   7.284   3.624   3.117
 9638TIP3   OH228790   7.689   3.751   3.162
 9638TIP3    H128791   7.737   3.693   3.221
 9638TIP3    H228792   7.712   3.840   3.191
 9639TIP3   OH228793   7.581   5.149   2.669
 9639TIP3    H128794   7.664   5.176   2.630
 9639TIP3    H228795   7.551   5.076   2.614
 9640TIP3   OH228796   8.283   5.295   2.773
 9640TIP3    H128797   8.278   5.200   2.764
 9640TIP3    H228798   8.240   5.329   2.694
 9641TIP3   OH228799   7.514   3.807   4.542
 9641TIP3    H128800   7.480   3.740   4.602
 9641TIP3    H228801   7.606   3.816   4.566
 9642TIP3   OH228802   7.760   3.813   4.667
 9642TIP3    H128803   7.837   3.791   4.615
 9642TIP3    H228804   7.755   3.745   4.733
 9643TIP3   OH228805   6.863   4.960   2.750
 9643TIP3    H128806   6.852   4.972   2.844
 9643TIP3    H228807   6.952   4.926   2.740
 9644TIP3   OH228808   8.578   3.910   4.454
 9644TIP3    H128809   8.596   3.886   4.545
 9644TIP3    H228810   8.662   3.903   4.410
 9645TIP3   OH228811   8.492   5.439   3.959
 9645TIP3    H128812   8.422   5.406   3.903
 9645TIP3    H228813   8.478   5.534   3.962
 9646TIP3   OH228814   9.044   4.696   3.506
 9646TIP3    H128815   9.077   4.614   3.544
 9646TIP3    H228816   9.063   4.763   3.571
 9647TIP3   OH228817   8.980   5.118   3.191
 9647TIP3    H128818   8.942   5.030   3.192
 9647TIP3    H228819   9.075   5.103   3.185
 9648TIP3   OH228820   8.722   4.289   2.954
 9648TIP3    H128821   8.694   4.380   2.969
 9648TIP3    H228822   8.658   4.255   2.892
 9649TIP3   OH228823   8.800   4.628   3.156
 9649TIP3    H128824   8.850   4.548   3.173
 9649TIP3    H228825   8.867   4.696   3.146
 9650TIP3   OH228826   9.671   5.316   2.776
 9650TIP3    H128827   9.758   5.355   2.778
 9650TIP3    H228828   9.616   5.375   2.828
 9651TIP3   OH228829   9.547   5.089   3.201
 9651TIP3    H128830   9.591   5.079   3.116
 9651TIP3    H228831   9.611   5.133   3.256
 9652TIP3   OH228832   9.296   4.308   3.169
 9652TIP3    H128833   9.385   4.273   3.179
 9652TIP3    H228834   9.240   4.242   3.209
 9653TIP3   OH228835   8.923   4.396   3.235
 9653TIP3    H128836   9.005   4.413   3.282
 9653TIP3    H228837   8.945   4.329   3.171
 9654TIP3   OH228838   9.426   4.600   3.079
 9654TIP3    H128839   9.506   4.637   3.040
 9654TIP3    H228840   9.367   4.588   3.005
 9655TIP3   OH228841   9.250   4.110   3.621
 9655TIP3    H128842   9.191   4.039   3.598
 9655TIP3    H228843   9.199   4.166   3.679
 9656TIP3   OH228844   9.385   4.954   3.361
 9656TIP3    H128845   9.340   5.016   3.418
 9656TIP3    H228846   9.451   5.007   3.316
 9657TIP3   OH228847   9.059   4.281   3.471
 9657TIP3    H128848   9.092   4.364   3.503
 9657TIP3    H228849   9.133   4.241   3.424
 9658TIP3   OH228850   9.205   5.153   3.435
 9658TIP3    H128851   9.201   5.243   3.404
 9658TIP3    H228852   9.124   5.140   3.484
 9659TIP3   OH228853   8.605   4.878   2.695
 9659TIP3    H128854   8.563   4.901   2.612
 9659TIP3    H228855   8.634   4.962   2.731
 9660TIP3   OH228856   9.099   4.803   2.924
 9660TIP3    H128857   9.040   4.774   2.854
 9660TIP3    H228858   9.175   4.745   2.916
 9661TIP3   OH228859   9.367   5.251   3.017
 9661TIP3    H128860   9.324   5.180   3.065
 9661TIP3    H228861   9.454   5.258   3.057
 9662TIP3   OH228862   9.253   4.757   3.227
 9662TIP3    H128863   9.319   4.715   3.173
 9662TIP3    H228864   9.303   4.817   3.283
 9663TIP3   OH228865   9.374   5.247   3.640
 9663TIP3    H128866   9.335   5.326   3.678
 9663TIP3    H228867   9.305   5.212   3.583
 9664TIP3   OH228868   9.122   4.876   3.696
 9664TIP3    H128869   9.143   4.961   3.736
 9664TIP3    H228870   9.051   4.841   3.749
 9665TIP3   OH228871   9.571   5.293   2.509
 9665TIP3    H128872   9.605   5.275   2.597
 9665TIP3    H228873   9.601   5.381   2.489
 9666TIP3   OH228874   9.209   5.486   3.670
 9666TIP3    H128875   9.186   5.462   3.581
 9666TIP3    H228876   9.135   5.458   3.723
 9667TIP3   OH228877   9.002   4.654   2.716
 9667TIP3    H128878   8.918   4.660   2.671
 9667TIP3    H228879   8.997   4.571   2.764
 9668TIP3   OH228880   8.822   4.988   3.642
 9668TIP3    H128881   8.753   4.970   3.579
 9668TIP3    H228882   8.849   4.901   3.673
 9669TIP3   OH228883   8.690   5.169   3.299
 9669TIP3    H128884   8.784   5.189   3.298
 9669TIP3    H228885   8.649   5.248   3.332
 9670TIP3   OH228886   9.579   5.351   3.497
 9670TIP3    H128887   9.605   5.428   3.548
 9670TIP3    H228888   9.505   5.314   3.545
 9671TIP3   OH228889   9.409   5.591   2.412
 9671TIP3    H128890   9.371   5.591   2.325
 9671TIP3    H228891   9.385   5.676   2.449
 9672TIP3   OH228892   8.846   5.357   2.798
 9672TIP3    H128893   8.885   5.352   2.885
 9672TIP3    H228894   8.789   5.280   2.792
 9673TIP3   OH228895   8.996   5.197   3.609
 9673TIP3    H128896   9.046   5.190   3.690
 9673TIP3    H228897   8.931   5.126   3.614
 9674TIP3   OH228898   9.428   3.966   3.414
 9674TIP3    H128899   9.425   3.936   3.323
 9674TIP3    H228900   9.359   4.032   3.420
 9675TIP3   OH228901   9.474   4.568   3.344
 9675TIP3    H128902   9.452   4.480   3.374
 9675TIP3    H228903   9.464   4.564   3.248
 9676TIP3   OH228904   9.375   4.307   2.908
 9676TIP3    H128905   9.322   4.319   2.987
 9676TIP3    H228906   9.312   4.299   2.837
 9677TIP3   OH228907   9.175   4.477   3.654
 9677TIP3    H128908   9.203   4.542   3.718
 9677TIP3    H228909   9.148   4.402   3.706
 9678TIP3   OH228910   9.248   3.994   2.337
 9678TIP3    H128911   9.182   3.936   2.299
 9678TIP3    H228912   9.263   4.061   2.270
 9679TIP3   OH228913   8.683   4.077   3.196
 9679TIP3    H128914   8.758   4.115   3.242
 9679TIP3    H228915   8.716   4.060   3.107
 9680TIP3   OH228916   8.712   4.021   2.738
 9680TIP3    H128917   8.761   4.052   2.662
 9680TIP3    H228918   8.645   4.088   2.752
 9681TIP3   OH228919   8.973   4.213   3.034
 9681TIP3    H128920   8.885   4.222   2.998
 9681TIP3    H228921   9.006   4.131   2.999
 9682TIP3   OH228922   9.208   4.303   2.694
 9682TIP3    H128923   9.253   4.379   2.658
 9682TIP3    H228924   9.165   4.263   2.618
 9683TIP3   OH228925   9.096   4.230   2.459
 9683TIP3    H128926   9.024   4.205   2.402
 9683TIP3    H228927   9.162   4.266   2.400
 9684TIP3   OH228928   9.149   5.115   3.834
 9684TIP3    H128929   9.237   5.127   3.871
 9684TIP3    H228930   9.091   5.110   3.910
 9685TIP3   OH228931   9.096   3.969   2.937
 9685TIP3    H128932   9.060   3.899   2.991
 9685TIP3    H228933   9.077   3.942   2.847
 9686TIP3   OH228934   9.397   4.820   2.534
 9686TIP3    H128935   9.312   4.801   2.496
 9686TIP3    H228936   9.377   4.859   2.619
 9687TIP3   OH228937   9.741   5.173   3.371
 9687TIP3    H128938   9.834   5.173   3.392
 9687TIP3    H228939   9.707   5.253   3.411
 9688TIP3   OH228940   8.991   4.828   3.170
 9688TIP3    H128941   9.018   4.828   3.078
 9688TIP3    H228942   9.068   4.798   3.218
 9689TIP3   OH228943   8.889   4.757   3.783
 9689TIP3    H128944   8.905   4.721   3.870
 9689TIP3    H228945   8.820   4.701   3.746
 9690TIP3   OH228946   9.696   4.773   3.721
 9690TIP3    H128947   9.600   4.779   3.718
 9690TIP3    H228948   9.713   4.680   3.737
 9691TIP3   OH228949   9.069   5.129   2.748
 9691TIP3    H128950   9.086   5.221   2.730
 9691TIP3    H228951   8.984   5.129   2.792
 9692TIP3   OH228952   8.750   4.431   2.533
 9692TIP3    H128953   8.773   4.524   2.537
 9692TIP3    H228954   8.663   4.426   2.572
 9693TIP3   OH228955   9.288   4.938   2.766
 9693TIP3    H128956   9.295   5.031   2.745
 9693TIP3    H228957   9.199   4.928   2.801
 9694TIP3   OH228958   9.425   5.481   3.269
 9694TIP3    H128959   9.444   5.562   3.221
 9694TIP3    H228960   9.504   5.466   3.322
 9695TIP3   OH228961   9.076   5.400   2.659
 9695TIP3    H128962   8.988   5.392   2.698
 9695TIP3    H228963   9.092   5.494   2.654
 9696TIP3   OH228964   9.110   4.255   3.800
 9696TIP3    H128965   9.016   4.270   3.811
 9696TIP3    H228966   9.137   4.213   3.882
 9697TIP3   OH228967   8.876   5.392   3.430
 9697TIP3    H128968   8.920   5.330   3.489
 9697TIP3    H228969   8.893   5.478   3.469
 9698TIP3   OH228970   9.062   4.936   2.105
 9698TIP3    H128971   9.060   4.843   2.081
 9698TIP3    H228972   9.028   4.939   2.194
 9699TIP3   OH228973   8.987   5.078   2.338
 9699TIP3    H128974   9.064   5.059   2.391
 9699TIP3    H228975   8.973   5.172   2.350
 9700TIP3   OH228976   8.778   4.701   2.576
 9700TIP3    H128977   8.714   4.747   2.630
 9700TIP3    H228978   8.792   4.758   2.501
 9701TIP3   OH228979   9.385   5.065   2.300
 9701TIP3    H128980   9.327   5.076   2.376
 9701TIP3    H228981   9.421   5.153   2.286
 9702TIP3   OH228982   9.003   5.344   2.385
 9702TIP3    H128983   8.991   5.430   2.345
 9702TIP3    H228984   9.049   5.362   2.467
 9703TIP3   OH228985   9.138   3.992   2.601
 9703TIP3    H128986   9.089   4.072   2.583
 9703TIP3    H228987   9.188   3.976   2.522
 9704TIP3   OH228988   8.809   4.877   2.369
 9704TIP3    H128989   8.864   4.955   2.362
 9704TIP3    H228990   8.848   4.814   2.308
 9705TIP3   OH228991   8.813   4.161   2.532
 9705TIP3    H128992   8.793   4.254   2.541
 9705TIP3    H228993   8.823   4.148   2.438
 9706TIP3   OH228994   9.040   3.881   3.378
 9706TIP3    H128995   9.040   3.847   3.288
 9706TIP3    H228996   9.070   3.808   3.431
 9707TIP3   OH228997   8.676   5.138   2.783
 9707TIP3    H128998   8.631   5.171   2.861
 9707TIP3    H228999   8.629   5.178   2.710
 9708TIP3   OH229000   8.855   5.659   3.850
 9708TIP3    H129001   8.928   5.660   3.912
 9708TIP3    H229002   8.838   5.566   3.835
 9709TIP3   OH229003   9.262   5.646   3.899
 9709TIP3    H129004   9.355   5.666   3.914
 9709TIP3    H229005   9.263   5.574   3.835
 9710TIP3   OH229006   9.375   5.243   1.922
 9710TIP3    H129007   9.304   5.208   1.975
 9710TIP3    H229008   9.449   5.185   1.939
 9711TIP3   OH229009   8.968   5.080   4.043
 9711TIP3    H129010   8.992   4.987   4.040
 9711TIP3    H229011   8.883   5.084   3.999
 9712TIP3   OH229012   8.937   4.682   2.233
 9712TIP3    H129013   8.959   4.613   2.296
 9712TIP3    H229014   9.000   4.669   2.162
 9713TIP3   OH229015   9.590   5.184   3.801
 9713TIP3    H129016   9.528   5.180   3.728
 9713TIP3    H229017   9.676   5.191   3.760
 9714TIP3   OH229018   9.078   4.828   4.020
 9714TIP3    H129019   9.143   4.775   3.973
 9714TIP3    H229020   9.115   4.839   4.107
 9715TIP3   OH229021   9.050   4.513   2.412
 9715TIP3    H129022   9.003   4.444   2.459
 9715TIP3    H229023   9.121   4.467   2.367
 9716TIP3   OH229024   9.493   4.570   3.658
 9716TIP3    H129025   9.431   4.630   3.616
 9716TIP3    H229026   9.560   4.554   3.592
 9717TIP3   OH229027   9.264   4.377   2.302
 9717TIP3    H129028   9.272   4.395   2.208
 9717TIP3    H229029   9.354   4.386   2.335
 9718TIP3   OH229030   9.470   4.381   3.844
 9718TIP3    H129031   9.509   4.318   3.783
 9718TIP3    H229032   9.460   4.461   3.792
 9719TIP3   OH229033   9.606   4.214   3.671
 9719TIP3    H129034   9.700   4.207   3.655
 9719TIP3    H229035   9.573   4.263   3.596
 9720TIP3   OH229036   9.639   4.795   3.364
 9720TIP3    H129037   9.598   4.709   3.358
 9720TIP3    H229038   9.568   4.854   3.391
 9721TIP3   OH229039   9.414   4.535   4.071
 9721TIP3    H129040   9.346   4.477   4.105
 9721TIP3    H229041   9.453   4.486   3.998
 9722TIP3   OH229042   9.235   4.352   4.165
 9722TIP3    H129043   9.250   4.272   4.115
 9722TIP3    H229044   9.260   4.329   4.255
 9723TIP3   OH229045   9.009   5.502   2.124
 9723TIP3    H129046   9.089   5.550   2.144
 9723TIP3    H229047   8.967   5.554   2.055
 9724TIP3   OH229048   8.544   4.861   2.408
 9724TIP3    H129049   8.638   4.877   2.398
 9724TIP3    H229050   8.532   4.773   2.372
 9725TIP3   OH229051   8.489   5.446   2.868
 9725TIP3    H129052   8.423   5.394   2.821
 9725TIP3    H229053   8.531   5.383   2.927
 9726TIP3   OH229054   8.629   5.275   3.035
 9726TIP3    H129055   8.621   5.207   3.102
 9726TIP3    H229056   8.675   5.347   3.079
 9727TIP3   OH229057   8.786   4.711   3.416
 9727TIP3    H129058   8.779   4.683   3.325
 9727TIP3    H229059   8.881   4.714   3.433
 9728TIP3   OH229060   8.993   4.398   4.053
 9728TIP3    H129061   9.084   4.399   4.081
 9728TIP3    H229062   8.960   4.313   4.082
 9729TIP3   OH229063   8.868   4.096   3.404
 9729TIP3    H129064   8.929   4.022   3.398
 9729TIP3    H229065   8.924   4.171   3.423
 9730TIP3   OH229066   8.747   4.390   3.451
 9730TIP3    H129067   8.802   4.385   3.373
 9730TIP3    H229068   8.778   4.469   3.497
 9731TIP3   OH229069   8.754   3.895   2.972
 9731TIP3    H129070   8.683   3.831   2.961
 9731TIP3    H229071   8.748   3.950   2.893
 9732TIP3   OH229072   8.979   3.963   3.783
 9732TIP3    H129073   8.940   3.945   3.869
 9732TIP3    H229074   8.911   4.010   3.735
 9733TIP3   OH229075   9.026   5.413   3.860
 9733TIP3    H129076   8.938   5.383   3.880
 9733TIP3    H229077   9.078   5.389   3.936
 9734TIP3   OH229078   9.195   5.424   3.398
 9734TIP3    H129079   9.145   5.498   3.364
 9734TIP3    H229080   9.283   5.435   3.361
 9735TIP3   OH229081   9.667   5.582   3.617
 9735TIP3    H129082   9.718   5.642   3.671
 9735TIP3    H229083   9.631   5.638   3.548
 9736TIP3   OH229084   8.894   5.677   3.471
 9736TIP3    H129085   8.804   5.691   3.443
 9736TIP3    H229086   8.910   5.744   3.537
 9737TIP3   OH229087   9.108   5.666   3.300
 9737TIP3    H129088   9.030   5.673   3.354
 9737TIP3    H229089   9.082   5.701   3.215
 9738TIP3   OH229090   9.451   5.694   3.099
 9738TIP3    H129091   9.392   5.762   3.065
 9738TIP3    H229092   9.525   5.743   3.134
 9739TIP3   OH229093   0.069   5.699   3.167
 9739TIP3    H129094   0.077   5.623   3.110
 9739TIP3    H229095   0.130   5.763   3.131
 9740TIP3   OH229096   8.788   5.467   3.180
 9740TIP3    H129097   8.818   5.445   3.268
 9740TIP3    H229098   8.857   5.433   3.122
 9741TIP3   OH229099   8.981   5.346   3.035
 9741TIP3    H129100   8.989   5.267   3.089
 9741TIP3    H229101   9.066   5.388   3.041
 9742TIP3   OH229102   9.225   5.480   3.052
 9742TIP3    H129103   9.277   5.404   3.024
 9742TIP3    H229104   9.266   5.508   3.134
 9743TIP3   OH229105   9.039   3.774   3.125
 9743TIP3    H129106   8.953   3.731   3.129
 9743TIP3    H229107   9.102   3.701   3.128
 9744TIP3   OH229108   8.919   3.709   2.829
 9744TIP3    H129109   8.914   3.735   2.737
 9744TIP3    H229110   8.867   3.774   2.876
 9745TIP3   OH229111   8.555   5.253   2.568
 9745TIP3    H129112   8.474   5.228   2.523
 9745TIP3    H229113   8.573   5.342   2.536
 9746TIP3   OH229114   8.939   3.795   2.567
 9746TIP3    H129115   8.983   3.734   2.508
 9746TIP3    H229116   9.000   3.868   2.576
 9747TIP3   OH229117   9.457   5.332   2.187
 9747TIP3    H129118   9.501   5.408   2.225
 9747TIP3    H229119   9.452   5.352   2.093
 9748TIP3   OH229120   9.228   4.117   4.009
 9748TIP3    H129121   9.229   4.053   4.081
 9748TIP3    H229122   9.307   4.098   3.959
 9749TIP3   OH229123   9.468   4.159   4.183
 9749TIP3    H129124   9.537   4.178   4.118
 9749TIP3    H229125   9.489   4.071   4.214
 9750TIP3   OH229126   8.647   5.270   2.230
 9750TIP3    H129127   8.632   5.324   2.307
 9750TIP3    H229128   8.730   5.226   2.247
 9751TIP3   OH229129   0.509   5.365   4.929
 9751TIP3    H129130   0.487   5.444   4.979
 9751TIP3    H229131   0.427   5.339   4.887
 9752TIP3   OH229132   0.502   5.352   5.292
 9752TIP3    H129133   0.492   5.308   5.376
 9752TIP3    H229134   0.442   5.306   5.233
 9753TIP3   OH229135   0.705   5.654   4.974
 9753TIP3    H129136   0.711   5.583   5.038
 9753TIP3    H229137   0.731   5.733   5.023
 9754TIP3   OH229138   0.375   6.029   5.124
 9754TIP3    H129139   0.413   6.038   5.037
 9754TIP3    H229140   0.383   5.936   5.145
 9755TIP3   OH229141   0.242   5.472   5.339
 9755TIP3    H129142   0.311   5.408   5.359
 9755TIP3    H229143   0.282   5.530   5.274
 9756TIP3   OH229144   1.282   4.882   5.343
 9756TIP3    H129145   1.300   4.966   5.385
 9756TIP3    H229146   1.316   4.892   5.254
 9757TIP3   OH229147   0.645   5.059   5.368
 9757TIP3    H129148   0.677   4.972   5.392
 9757TIP3    H229149   0.620   5.051   5.276
 9758TIP3   OH229150   0.058   4.813   5.332
 9758TIP3    H129151  -0.009   4.876   5.359
 9758TIP3    H229152   0.014   4.728   5.332
 9759TIP3   OH229153   0.703   4.831   4.956
 9759TIP3    H129154   0.762   4.820   5.030
 9759TIP3    H229155   0.759   4.857   4.883
 9760TIP3   OH229156   9.771   5.183   5.312
 9760TIP3    H129157   9.782   5.245   5.239
 9760TIP3    H229158   9.718   5.113   5.275
 9761TIP3   OH229159   1.340   5.103   5.503
 9761TIP3    H129160   1.251   5.138   5.502
 9761TIP3    H229161   1.378   5.137   5.584
 9762TIP3   OH229162   0.338   5.570   4.744
 9762TIP3    H129163   0.300   5.544   4.660
 9762TIP3    H229164   0.394   5.645   4.723
 9763TIP3   OH229165   0.856   4.844   5.180
 9763TIP3    H129166   0.814   4.820   5.262
 9763TIP3    H229167   0.916   4.915   5.203
 9764TIP3   OH229168   0.757   5.890   5.127
 9764TIP3    H129169   0.678   5.881   5.180
 9764TIP3    H229170   0.749   5.977   5.088
 9765TIP3   OH229171   1.077   4.784   5.508
 9765TIP3    H129172   0.995   4.806   5.463
 9765TIP3    H229173   1.146   4.806   5.445
 9766TIP3   OH229174   0.384   4.384   5.496
 9766TIP3    H129175   0.368   4.295   5.527
 9766TIP3    H229176   0.300   4.429   5.507
 9767TIP3   OH229177   0.466   5.836   4.737
 9767TIP3    H129178   0.549   5.791   4.717
 9767TIP3    H229179   0.492   5.913   4.787
 9768TIP3   OH229180   0.676   5.674   4.698
 9768TIP3    H129181   0.669   5.587   4.661
 9768TIP3    H229182   0.695   5.659   4.791
 9769TIP3   OH229183   1.019   5.769   5.473
 9769TIP3    H129184   0.992   5.702   5.410
 9769TIP3    H229185   0.999   5.852   5.428
 9770TIP3   OH229186   0.323   5.248   4.754
 9770TIP3    H129187   0.234   5.282   4.747
 9770TIP3    H229188   0.355   5.246   4.663
 9771TIP3   OH229189   0.323   4.964   4.451
 9771TIP3    H129190   0.385   5.025   4.492
 9771TIP3    H229191   0.379   4.903   4.402
 9772TIP3   OH229192   1.160   5.447   5.348
 9772TIP3    H129193   1.074   5.489   5.343
 9772TIP3    H229194   1.197   5.456   5.261
 9773TIP3   OH229195   0.663   5.286   4.720
 9773TIP3    H129196   0.615   5.316   4.797
 9773TIP3    H229197   0.745   5.252   4.755
 9774TIP3   OH229198   0.891   5.316   5.663
 9774TIP3    H129199   0.884   5.397   5.712
 9774TIP3    H229200   0.809   5.311   5.613
 9775TIP3   OH229201   0.057   5.362   5.507
 9775TIP3    H129202  -0.001   5.312   5.450
 9775TIP3    H229203   0.113   5.410   5.447
 9776TIP3   OH229204   0.545   5.856   5.297
 9776TIP3    H129205   0.521   5.931   5.351
 9776TIP3    H229206   0.539   5.781   5.356
 9777TIP3   OH229207   0.503   5.147   4.550
 9777TIP3    H129208   0.562   5.201   4.602
 9777TIP3    H229209   0.526   5.167   4.459
 9778TIP3   OH229210   0.257   5.808   4.932
 9778TIP3    H129211   0.349   5.786   4.916
 9778TIP3    H229212   0.221   5.825   4.845
 9779TIP3   OH229213   0.964   4.365   4.597
 9779TIP3    H129214   0.889   4.385   4.654
 9779TIP3    H229215   0.973   4.443   4.542
 9780TIP3   OH229216   0.798   5.739   4.157
 9780TIP3    H129217   0.793   5.832   4.134
 9780TIP3    H229218   0.889   5.714   4.137
 9781TIP3   OH229219   1.219   6.174   5.541
 9781TIP3    H129220   1.230   6.079   5.546
 9781TIP3    H229221   1.137   6.191   5.587
 9782TIP3   OH229222   0.416   5.863   5.678
 9782TIP3    H129223   0.394   5.923   5.749
 9782TIP3    H229224   0.332   5.840   5.639
 9783TIP3   OH229225   9.729   6.039   4.647
 9783TIP3    H129226   9.781   6.030   4.567
 9783TIP3    H229227   9.787   6.083   4.709
 9784TIP3   OH229228   0.335   5.974   4.282
 9784TIP3    H129229   0.406   5.923   4.243
 9784TIP3    H229230   0.373   6.009   4.363
 9785TIP3   OH229231   0.394   6.079   4.532
 9785TIP3    H129232   0.328   6.099   4.598
 9785TIP3    H229233   0.477   6.084   4.579
 9786TIP3   OH229234   1.105   5.269   5.838
 9786TIP3    H129235   1.032   5.269   5.776
 9786TIP3    H229236   1.130   5.177   5.846
 9787TIP3   OH229237   0.079   4.498   5.625
 9787TIP3    H129238   0.010   4.455   5.574
 9787TIP3    H229239   0.128   4.549   5.561
 9788TIP3   OH229240   0.654   4.622   5.857
 9788TIP3    H129241   0.736   4.598   5.901
 9788TIP3    H229242   0.586   4.575   5.904
 9789TIP3   OH229243   0.875   5.048   5.751
 9789TIP3    H129244   0.829   5.037   5.835
 9789TIP3    H229245   0.851   5.137   5.722
 9790TIP3   OH229246   0.556   5.172   4.289
 9790TIP3    H129247   0.505   5.153   4.210
 9790TIP3    H229248   0.639   5.206   4.255
 9791TIP3   OH229249   0.228   4.540   4.575
 9791TIP3    H129250   0.198   4.543   4.666
 9791TIP3    H229251   0.218   4.448   4.550
 9792TIP3   OH229252   9.695   5.088   5.695
 9792TIP3    H129253   9.744   5.034   5.757
 9792TIP3    H229254   9.748   5.167   5.684
 9793TIP3   OH229255   9.657   4.975   5.164
 9793TIP3    H129256   9.584   5.036   5.156
 9793TIP3    H229257   9.676   4.947   5.074
 9794TIP3   OH229258   0.418   5.019   4.867
 9794TIP3    H129259   0.404   5.107   4.832
 9794TIP3    H229260   0.481   4.979   4.807
 9795TIP3   OH229261   0.627   5.253   5.988
 9795TIP3    H129262   0.600   5.177   6.039
 9795TIP3    H229263   0.723   5.256   5.998
 9796TIP3   OH229264   0.564   5.020   5.110
 9796TIP3    H129265   0.502   5.052   5.044
 9796TIP3    H229266   0.607   4.945   5.067
 9797TIP3   OH229267   9.688   4.501   4.563
 9797TIP3    H129268   9.714   4.586   4.598
 9797TIP3    H229269   9.629   4.522   4.490
 9798TIP3   OH229270   0.652   5.263   5.548
 9798TIP3    H129271   0.656   5.201   5.476
 9798TIP3    H229272   0.612   5.214   5.620
 9799TIP3   OH229273   0.308   4.723   5.163
 9799TIP3    H129274   0.213   4.715   5.171
 9799TIP3    H229275   0.330   4.798   5.218
 9800TIP3   OH229276   9.756   4.857   4.942
 9800TIP3    H129277   9.824   4.920   4.922
 9800TIP3    H229278   9.748   4.804   4.863
 9801TIP3   OH229279   0.719   4.795   5.417
 9801TIP3    H129280   0.719   4.805   5.512
 9801TIP3    H229281   0.653   4.729   5.399
 9802TIP3   OH229282   9.509   4.861   4.620
 9802TIP3    H129283   9.460   4.791   4.664
 9802TIP3    H229284   9.545   4.820   4.542
 9803TIP3   OH229285   0.938   6.488   5.639
 9803TIP3    H129286   0.936   6.509   5.545
 9803TIP3    H229287   1.012   6.539   5.673
 9804TIP3   OH229288   0.351   4.955   5.296
 9804TIP3    H129289   0.422   4.997   5.248
 9804TIP3    H229290   0.381   4.951   5.387
 9805TIP3   OH229291   9.585   4.515   5.145
 9805TIP3    H129292   9.602   4.423   5.166
 9805TIP3    H229293   9.625   4.527   5.059
 9806TIP3   OH229294   0.395   4.957   5.559
 9806TIP3    H129295   0.327   4.932   5.621
 9806TIP3    H229296   0.470   4.980   5.613
 9807TIP3   OH229297   0.055   5.326   4.731
 9807TIP3    H129298   0.003   5.246   4.728
 9807TIP3    H229299   0.008   5.383   4.792
 9808TIP3   OH229300   0.931   5.587   5.293
 9808TIP3    H129301   0.968   5.638   5.221
 9808TIP3    H229302   0.854   5.544   5.255
 9809TIP3   OH229303   0.487   4.653   4.603
 9809TIP3    H129304   0.392   4.642   4.597
 9809TIP3    H229305   0.499   4.747   4.616
 9810TIP3   OH229306   0.511   5.611   5.736
 9810TIP3    H129307   0.569   5.602   5.812
 9810TIP3    H229308   0.480   5.701   5.741
 9811TIP3   OH229309   0.578   4.908   4.666
 9811TIP3    H129310   0.672   4.902   4.681
 9811TIP3    H229311   0.567   4.987   4.613
 9812TIP3   OH229312   0.164   5.486   4.541
 9812TIP3    H129313   0.106   5.562   4.545
 9812TIP3    H229314   0.124   5.423   4.600
 9813TIP3   OH229315   0.423   5.460   6.034
 9813TIP3    H129316   0.402   5.367   6.040
 9813TIP3    H229317   0.513   5.462   6.000
 9814TIP3   OH229318   0.665   5.915   5.586
 9814TIP3    H129319   0.579   5.884   5.613
 9814TIP3    H229320   0.700   5.960   5.664
 9815TIP3   OH229321   0.965   5.004   4.491
 9815TIP3    H129322   0.906   4.958   4.430
 9815TIP3    H229323   0.972   5.092   4.455
 9816TIP3   OH229324   1.247   5.903   5.562
 9816TIP3    H129325   1.160   5.869   5.581
 9816TIP3    H229326   1.271   5.861   5.479
 9817TIP3   OH229327   0.701   5.809   4.425
 9817TIP3    H129328   0.696   5.748   4.499
 9817TIP3    H229329   0.721   5.753   4.350
 9818TIP3   OH229330   0.723   5.453   5.170
 9818TIP3    H129331   0.645   5.424   5.216
 9818TIP3    H229332   0.760   5.373   5.132
 9819TIP3   OH229333   9.692   5.473   4.902
 9819TIP3    H129334   9.734   5.457   4.987
 9819TIP3    H229335   9.609   5.427   4.908
 9820TIP3   OH229336   0.530   5.626   5.457
 9820TIP3    H129337   0.529   5.625   5.553
 9820TIP3    H229338   0.588   5.555   5.433
 9821TIP3   OH229339   0.503   5.553   4.299
 9821TIP3    H129340   0.544   5.519   4.378
 9821TIP3    H229341   0.414   5.517   4.300
 9822TIP3   OH229342   0.758   6.179   5.441
 9822TIP3    H129343   0.676   6.143   5.407
 9822TIP3    H229344   0.781   6.248   5.379
 9823TIP3   OH229345   0.800   6.007   4.096
 9823TIP3    H129346   0.818   6.064   4.021
 9823TIP3    H229347   0.728   6.051   4.142
 9824TIP3   OH229348   0.656   5.462   4.513
 9824TIP3    H129349   0.650   5.396   4.581
 9824TIP3    H229350   0.749   5.469   4.494
 9825TIP3   OH229351   9.678   5.539   4.327
 9825TIP3    H129352   9.723   5.455   4.320
 9825TIP3    H229353   9.622   5.531   4.405
 9826TIP3   OH229354   0.708   4.831   5.687
 9826TIP3    H129355   0.786   4.873   5.722
 9826TIP3    H229356   0.687   4.762   5.750
 9827TIP3   OH229357   0.574   4.602   4.863
 9827TIP3    H129358   0.544   4.623   4.775
 9827TIP3    H229359   0.609   4.685   4.897
 9828TIP3   OH229360   9.781   5.696   4.598
 9828TIP3    H129361   9.789   5.717   4.690
 9828TIP3    H229362   9.829   5.765   4.552
 9829TIP3   OH229363   0.283   4.782   4.896
 9829TIP3    H129364   0.326   4.867   4.882
 9829TIP3    H229365   0.298   4.762   4.988
 9830TIP3   OH229366   0.574   5.072   5.730
 9830TIP3    H129367   0.510   5.043   5.794
 9830TIP3    H229368   0.635   4.998   5.722
 9831TIP3   OH229369   0.372   4.499   5.019
 9831TIP3    H129370   0.362   4.571   5.082
 9831TIP3    H229371   0.450   4.522   4.969
 9832TIP3   OH229372   9.693   4.510   4.889
 9832TIP3    H129373   9.645   4.564   4.826
 9832TIP3    H229374   9.785   4.519   4.863
 9833TIP3   OH229375   1.134   4.984   5.724
 9833TIP3    H129376   1.041   5.003   5.737
 9833TIP3    H229377   1.136   4.926   5.648
 9834TIP3   OH229378   0.800   5.190   5.103
 9834TIP3    H129379   0.718   5.142   5.116
 9834TIP3    H229380   0.862   5.150   5.164
 9835TIP3   OH229381   0.771   6.155   5.041
 9835TIP3    H129382   0.724   6.209   4.977
 9835TIP3    H229383   0.863   6.173   5.024
 9836TIP3   OH229384   9.780   5.796   4.308
 9836TIP3    H129385   9.724   5.719   4.319
 9836TIP3    H229386   9.868   5.765   4.330
 9837TIP3   OH229387   0.708   6.057   5.814
 9837TIP3    H129388   0.691   6.007   5.894
 9837TIP3    H229389   0.767   6.127   5.841
 9838TIP3   OH229390   0.475   5.781   4.148
 9838TIP3    H129391   0.498   5.708   4.204
 9838TIP3    H229392   0.521   5.765   4.066
 9839TIP3   OH229393   0.136   5.745   6.065
 9839TIP3    H129394   0.149   5.660   6.024
 9839TIP3    H229395   0.185   5.740   6.147
 9840TIP3   OH229396   0.237   5.474   4.275
 9840TIP3    H129397   0.221   5.497   4.366
 9840TIP3    H229398   0.168   5.411   4.253
 9841TIP3   OH229399   0.800   5.681   5.611
 9841TIP3    H129400   0.881   5.708   5.567
 9841TIP3    H229401   0.739   5.753   5.595
 9842TIP3   OH229402   9.682   5.105   4.673
 9842TIP3    H129403   9.602   5.054   4.686
 9842TIP3    H229404   9.749   5.040   4.649
 9843TIP3   OH229405   0.058   5.300   5.769
 9843TIP3    H129406   0.110   5.365   5.815
 9843TIP3    H229407   0.063   5.327   5.677
 9844TIP3   OH229408   0.072   4.939   4.554
 9844TIP3    H129409   0.018   4.946   4.475
 9844TIP3    H229410   0.162   4.942   4.522
 9845TIP3   OH229411   0.674   5.559   5.961
 9845TIP3    H129412   0.756   5.548   5.913
 9845TIP3    H229413   0.694   5.533   6.050
 9846TIP3   OH229414   0.776   5.264   4.151
 9846TIP3    H129415   0.760   5.217   4.069
 9846TIP3    H229416   0.751   5.354   4.132
 9847TIP3   OH229417   0.185   4.965   6.156
 9847TIP3    H129418   0.118   4.898   6.168
 9847TIP3    H229419   0.149   5.023   6.089
 9848TIP3   OH229420   0.303   4.670   5.770
 9848TIP3    H129421   0.348   4.753   5.786
 9848TIP3    H229422   0.225   4.694   5.720
 9849TIP3   OH229423   0.335   5.403   5.720
 9849TIP3    H129424   0.352   5.359   5.637
 9849TIP3    H229425   0.398   5.475   5.722
 9850TIP3   OH229426   0.900   5.256   6.071
 9850TIP3    H129427   0.931   5.170   6.100
 9850TIP3    H229428   0.973   5.292   6.020
 9851TIP3   OH229429   0.908   5.550   5.815
 9851TIP3    H129430   0.856   5.599   5.752
 9851TIP3    H229431   0.999   5.561   5.785
 9852TIP3   OH229432   0.413   4.475   5.913
 9852TIP3    H129433   0.382   4.540   5.851
 9852TIP3    H229434   0.376   4.392   5.882
 9853TIP3   OH229435   0.528   5.039   6.128
 9853TIP3    H129436   0.567   5.026   6.214
 9853TIP3    H229437   0.478   4.959   6.112
 9854TIP3   OH229438   0.760   4.974   5.982
 9854TIP3    H129439   0.683   4.980   6.038
 9854TIP3    H229440   0.833   4.959   6.042
 9855TIP3   OH229441   0.982   4.960   6.144
 9855TIP3    H129442   1.002   4.867   6.150
 9855TIP3    H229443   0.976   4.989   6.236
 9856TIP3   OH229444   0.463   4.532   6.172
 9856TIP3    H129445   0.541   4.479   6.186
 9856TIP3    H229446   0.432   4.507   6.085
 9857TIP3   OH229447   0.546   4.740   6.344
 9857TIP3    H129448   0.518   4.663   6.295
 9857TIP3    H229449   0.469   4.797   6.346
 9858TIP3   OH229450   1.029   6.243   5.034
 9858TIP3    H129451   1.056   6.257   5.125
 9858TIP3    H229452   1.104   6.272   4.982
 9859TIP3   OH229453   1.060   6.242   5.316
 9859TIP3    H129454   1.016   6.157   5.310
 9859TIP3    H229455   1.128   6.229   5.381
 9860TIP3   OH229456   1.117   5.954   5.870
 9860TIP3    H129457   1.045   5.958   5.934
 9860TIP3    H229458   1.162   6.038   5.879
 9861TIP3   OH229459   0.930   5.468   4.501
 9861TIP3    H129460   0.987   5.539   4.471
 9861TIP3    H229461   0.977   5.430   4.575
 9862TIP3   OH229462   1.063   5.331   4.702
 9862TIP3    H129463   1.004   5.284   4.760
 9862TIP3    H229464   1.131   5.366   4.759
 9863TIP3   OH229465   1.105   5.728   5.134
 9863TIP3    H129466   1.159   5.655   5.102
 9863TIP3    H229467   1.114   5.796   5.068
 9864TIP3   OH229468   0.931   5.990   5.327
 9864TIP3    H129469   0.860   6.032   5.376
 9864TIP3    H229470   0.888   5.948   5.253
 9865TIP3   OH229471   0.964   5.240   4.350
 9865TIP3    H129472   0.899   5.243   4.280
 9865TIP3    H229473   0.948   5.320   4.401
 9866TIP3   OH229474   0.808   4.893   4.301
 9866TIP3    H129475   0.764   4.927   4.223
 9866TIP3    H229476   0.805   4.798   4.290
 9867TIP3   OH229477   0.882   5.173   4.841
 9867TIP3    H129478   0.886   5.078   4.828
 9867TIP3    H229479   0.861   5.182   4.934
 9868TIP3   OH229480   1.146   5.602   5.689
 9868TIP3    H129481   1.210   5.533   5.672
 9868TIP3    H229482   1.131   5.642   5.604
 9869TIP3   OH229483   1.312   5.383   5.692
 9869TIP3    H129484   1.240   5.346   5.744
 9869TIP3    H229485   1.386   5.325   5.709
 9870TIP3   OH229486   0.778   4.623   4.263
 9870TIP3    H129487   0.850   4.595   4.320
 9870TIP3    H229488   0.702   4.576   4.296
 9871TIP3   OH229489   0.855   4.902   4.729
 9871TIP3    H129490   0.900   4.818   4.741
 9871TIP3    H229491   0.897   4.940   4.652
 9872TIP3   OH229492   1.000   5.069   5.257
 9872TIP3    H129493   1.079   5.089   5.206
 9872TIP3    H229494   1.017   5.107   5.343
 9873TIP3   OH229495   1.083   5.217   5.481
 9873TIP3    H129496   1.016   5.247   5.542
 9873TIP3    H229497   1.113   5.296   5.437
 9874TIP3   OH229498   1.535   4.815   6.016
 9874TIP3    H129499   1.606   4.766   5.975
 9874TIP3    H229500   1.496   4.865   5.944
 9875TIP3   OH229501   0.963   4.651   4.779
 9875TIP3    H129502   1.008   4.639   4.862
 9875TIP3    H229503   0.902   4.578   4.773
 9876TIP3   OH229504   1.385   4.922   5.812
 9876TIP3    H129505   1.297   4.959   5.810
 9876TIP3    H229506   1.378   4.840   5.763
 9877TIP3   OH229507   1.002   4.569   4.415
 9877TIP3    H129508   1.052   4.508   4.362
 9877TIP3    H229509   1.057   4.646   4.422
 9878TIP3   OH229510   0.633   6.147   4.650
 9878TIP3    H129511   0.691   6.111   4.582
 9878TIP3    H229512   0.666   6.236   4.665
 9879TIP3   OH229513   0.194   6.177   5.647
 9879TIP3    H129514   0.231   6.152   5.732
 9879TIP3    H229515   0.194   6.095   5.597
 9880TIP3   OH229516   0.586   6.397   5.514
 9880TIP3    H129517   0.610   6.308   5.488
 9880TIP3    H229518   0.623   6.407   5.602
 9881TIP3   OH229519   1.306   4.670   5.713
 9881TIP3    H129520   1.218   4.656   5.679
 9881TIP3    H229521   1.348   4.585   5.708
 9882TIP3   OH229522   0.167   6.306   5.227
 9882TIP3    H129523   0.087   6.272   5.268
 9882TIP3    H229524   0.225   6.323   5.301
 9883TIP3   OH229525   0.533   6.180   5.286
 9883TIP3    H129526   0.479   6.137   5.220
 9883TIP3    H229527   0.573   6.254   5.240
 9884TIP3   OH229528   0.756   6.356   5.230
 9884TIP3    H129529   0.754   6.441   5.186
 9884TIP3    H229530   0.766   6.292   5.160
 9885TIP3   OH229531   0.521   4.599   5.376
 9885TIP3    H129532   0.489   4.517   5.413
 9885TIP3    H229533   0.580   4.571   5.305
 9886TIP3   OH229534   0.999   4.529   5.238
 9886TIP3    H129535   1.038   4.579   5.166
 9886TIP3    H229536   0.907   4.553   5.235
 9887TIP3   OH229537   1.118   4.607   5.002
 9887TIP3    H129538   1.186   4.544   4.981
 9887TIP3    H229539   1.159   4.692   4.988
 9888TIP3   OH229540   0.370   4.297   5.229
 9888TIP3    H129541   0.312   4.365   5.195
 9888TIP3    H229542   0.390   4.325   5.318
 9889TIP3   OH229543   0.716   4.489   5.212
 9889TIP3    H129544   0.735   4.451   5.126
 9889TIP3    H229545   0.721   4.416   5.273
 9890TIP3   OH229546   0.779   4.439   4.784
 9890TIP3    H129547   0.704   4.491   4.812
 9890TIP3    H229548   0.764   4.353   4.824
 9891TIP3   OH229549   9.459   4.378   4.730
 9891TIP3    H129550   9.526   4.337   4.675
 9891TIP3    H229551   9.452   4.321   4.806
 9892TIP3   OH229552   0.164   4.546   4.844
 9892TIP3    H129553   0.225   4.488   4.890
 9892TIP3    H229554   0.205   4.632   4.848
 9893TIP3   OH229555   0.074   6.032   4.408
 9893TIP3    H129556   0.161   6.031   4.368
 9893TIP3    H229557   0.027   5.961   4.365
 9894TIP3   OH229558   0.772   6.070   4.426
 9894TIP3    H129559   0.753   5.976   4.425
 9894TIP3    H229560   0.727   6.104   4.349
 9895TIP3   OH229561   0.220   4.571   6.313
 9895TIP3    H129562   0.300   4.527   6.284
 9895TIP3    H229563   0.243   4.610   6.397
 9896TIP3   OH229564   1.057   4.696   6.146
 9896TIP3    H129565   1.079   4.666   6.234
 9896TIP3    H229566   1.139   4.688   6.097
 9897TIP3   OH229567   0.965   6.214   5.637
 9897TIP3    H129568   0.892   6.182   5.584
 9897TIP3    H229569   0.951   6.309   5.643
 9898TIP3   OH229570   2.233   5.616   4.379
 9898TIP3    H129571   2.198   5.701   4.354
 9898TIP3    H229572   2.164   5.554   4.358
 9899TIP3   OH229573   2.232   5.605   4.818
 9899TIP3    H129574   2.288   5.582   4.892
 9899TIP3    H229575   2.189   5.523   4.793
 9900TIP3   OH229576   1.524   5.452   5.162
 9900TIP3    H129577   1.562   5.399   5.232
 9900TIP3    H229578   1.599   5.477   5.107
 9901TIP3   OH229579   2.494   5.919   4.487
 9901TIP3    H129580   2.484   5.848   4.551
 9901TIP3    H229581   2.514   5.996   4.540
 9902TIP3   OH229582   1.514   5.887   4.843
 9902TIP3    H129583   1.498   5.793   4.844
 9902TIP3    H229584   1.609   5.896   4.835
 9903TIP3   OH229585   1.203   5.098   4.618
 9903TIP3    H129586   1.168   5.184   4.642
 9903TIP3    H229587   1.129   5.051   4.581
 9904TIP3   OH229588   1.289   5.412   4.846
 9904TIP3    H129589   1.337   5.333   4.872
 9904TIP3    H229590   1.357   5.476   4.825
 9905TIP3   OH229591   2.169   6.328   4.510
 9905TIP3    H129592   2.186   6.267   4.438
 9905TIP3    H229593   2.183   6.276   4.589
 9906TIP3   OH229594   2.033   5.822   4.817
 9906TIP3    H129595   2.079   5.742   4.791
 9906TIP3    H229596   2.103   5.882   4.844
 9907TIP3   OH229597   3.084   5.138   4.816
 9907TIP3    H129598   3.092   5.222   4.861
 9907TIP3    H229599   3.119   5.153   4.728
 9908TIP3   OH229600   2.444   5.306   4.850
 9908TIP3    H129601   2.477   5.220   4.879
 9908TIP3    H229602   2.406   5.289   4.764
 9909TIP3   OH229603   1.781   4.973   4.814
 9909TIP3    H129604   1.764   5.043   4.752
 9909TIP3    H229605   1.730   4.899   4.781
 9910TIP3   OH229606   2.498   5.068   4.444
 9910TIP3    H129607   2.558   5.068   4.519
 9910TIP3    H229608   2.550   5.103   4.372
 9911TIP3   OH229609   1.420   5.186   4.934
 9911TIP3    H129610   1.501   5.165   4.981
 9911TIP3    H229611   1.424   5.133   4.854
 9912TIP3   OH229612   1.835   5.388   4.757
 9912TIP3    H129613   1.930   5.374   4.761
 9912TIP3    H229614   1.801   5.305   4.724
 9913TIP3   OH229615   3.103   5.348   5.002
 9913TIP3    H129616   3.025   5.399   4.980
 9913TIP3    H229617   3.086   5.314   5.090
 9914TIP3   OH229618   1.780   4.974   5.261
 9914TIP3    H129619   1.725   5.012   5.193
 9914TIP3    H229620   1.729   4.985   5.342
 9915TIP3   OH229621   2.113   5.829   4.251
 9915TIP3    H129622   2.076   5.801   4.167
 9915TIP3    H229623   2.064   5.907   4.274
 9916TIP3   OH229624   1.878   5.743   5.033
 9916TIP3    H129625   1.823   5.815   5.063
 9916TIP3    H229626   1.927   5.778   4.959
 9917TIP3   OH229627   2.646   5.109   4.670
 9917TIP3    H129628   2.612   5.083   4.755
 9917TIP3    H229629   2.706   5.182   4.689
 9918TIP3   OH229630   1.660   5.081   5.035
 9918TIP3    H129631   1.718   5.154   5.058
 9918TIP3    H229632   1.705   5.036   4.964
 9919TIP3   OH229633   1.719   5.952   5.128
 9919TIP3    H129634   1.705   6.041   5.097
 9919TIP3    H229635   1.641   5.932   5.180
 9920TIP3   OH229636   1.097   5.660   4.384
 9920TIP3    H129637   1.068   5.677   4.295
 9920TIP3    H229638   1.122   5.745   4.419
 9921TIP3   OH229639   2.523   6.165   4.630
 9921TIP3    H129640   2.435   6.164   4.668
 9921TIP3    H229641   2.526   6.248   4.581
 9922TIP3   OH229642   2.902   5.052   5.012
 9922TIP3    H129643   2.816   5.027   4.977
 9922TIP3    H229644   2.955   5.072   4.935
 9923TIP3   OH229645   2.089   4.643   4.992
 9923TIP3    H129646   2.088   4.561   5.042
 9923TIP3    H229647   2.015   4.693   5.028
 9924TIP3   OH229648   2.236   6.191   4.275
 9924TIP3    H129649   2.290   6.112   4.266
 9924TIP3    H229650   2.293   6.263   4.246
 9925TIP3   OH229651   2.392   5.973   4.237
 9925TIP3    H129652   2.349   5.892   4.210
 9925TIP3    H229653   2.436   5.950   4.319
 9926TIP3   OH229654   2.764   6.047   4.963
 9926TIP3    H129655   2.745   5.970   4.908
 9926TIP3    H229656   2.757   6.121   4.903
 9927TIP3   OH229657   2.057   5.449   4.238
 9927TIP3    H129658   1.974   5.492   4.217
 9927TIP3    H229659   2.105   5.447   4.155
 9928TIP3   OH229660   2.025   5.263   3.919
 9928TIP3    H129661   2.089   5.309   3.972
 9928TIP3    H229662   2.074   5.193   3.876
 9929TIP3   OH229663   2.944   5.716   4.835
 9929TIP3    H129664   2.859   5.759   4.830
 9929TIP3    H229665   2.980   5.724   4.746
 9930TIP3   OH229666   2.420   5.542   4.193
 9930TIP3    H129667   2.365   5.570   4.267
 9930TIP3    H229668   2.502   5.514   4.234
 9931TIP3   OH229669   2.648   5.566   5.157
 9931TIP3    H129670   2.640   5.650   5.202
 9931TIP3    H229671   2.568   5.559   5.106
 9932TIP3   OH229672   1.644   5.519   4.598
 9932TIP3    H129673   1.609   5.456   4.535
 9932TIP3    H229674   1.715   5.472   4.641
 9933TIP3   OH229675   1.779   5.941   4.747
 9933TIP3    H129676   1.756   5.927   4.655
 9933TIP3    H229677   1.865   5.900   4.757
 9934TIP3   OH229678   1.735   5.513   4.982
 9934TIP3    H129679   1.773   5.475   4.903
 9934TIP3    H229680   1.787   5.591   5.000
 9935TIP3   OH229681   2.283   6.172   4.765
 9935TIP3    H129682   2.282   6.241   4.831
 9935TIP3    H229683   2.274   6.091   4.815
 9936TIP3   OH229684   1.916   6.050   5.298
 9936TIP3    H129685   1.854   6.106   5.343
 9936TIP3    H229686   1.862   5.996   5.240
 9937TIP3   OH229687   2.246   5.402   4.031
 9937TIP3    H129688   2.307   5.459   4.078
 9937TIP3    H229689   2.275   5.404   3.940
 9938TIP3   OH229690   1.665   5.619   5.448
 9938TIP3    H129691   1.661   5.713   5.465
 9938TIP3    H229692   1.574   5.592   5.440
 9939TIP3   OH229693   1.986   6.076   4.283
 9939TIP3    H129694   2.071   6.120   4.288
 9939TIP3    H229695   1.932   6.137   4.233
 9940TIP3   OH229696   1.709   6.212   5.383
 9940TIP3    H129697   1.680   6.218   5.292
 9940TIP3    H229698   1.630   6.194   5.432
 9941TIP3   OH229699   2.755   4.625   4.090
 9941TIP3    H129700   2.681   4.645   4.147
 9941TIP3    H229701   2.764   4.700   4.033
 9942TIP3   OH229702   1.521   5.357   4.400
 9942TIP3    H129703   1.440   5.401   4.373
 9942TIP3    H229704   1.495   5.266   4.417
 9943TIP3   OH229705   2.585   6.003   3.650
 9943TIP3    H129706   2.579   6.095   3.626
 9943TIP3    H229707   2.675   5.977   3.626
 9944TIP3   OH229708   1.309   5.772   5.329
 9944TIP3    H129709   1.237   5.751   5.270
 9944TIP3    H229710   1.338   5.687   5.362
 9945TIP3   OH229711   1.184   5.943   4.970
 9945TIP3    H129712   1.277   5.933   4.951
 9945TIP3    H229713   1.179   6.016   5.031
 9946TIP3   OH229714   2.993   6.404   5.042
 9946TIP3    H129715   2.998   6.309   5.056
 9946TIP3    H229716   2.917   6.432   5.093
 9947TIP3   OH229717   2.100   6.201   5.162
 9947TIP3    H129718   2.089   6.288   5.200
 9947TIP3    H229719   2.037   6.146   5.208
 9948TIP3   OH229720   1.883   6.291   4.113
 9948TIP3    H129721   1.837   6.270   4.032
 9948TIP3    H229722   1.846   6.375   4.141
 9949TIP3   OH229723   1.326   6.146   4.495
 9949TIP3    H129724   1.367   6.137   4.581
 9949TIP3    H229725   1.275   6.066   4.485
 9950TIP3   OH229726   2.083   6.228   3.735
 9950TIP3    H129727   2.133   6.153   3.702
 9950TIP3    H229728   2.118   6.243   3.823
 9951TIP3   OH229729   2.137   6.271   4.005
 9951TIP3    H129730   2.051   6.273   4.048
 9951TIP3    H229731   2.194   6.228   4.069
 9952TIP3   OH229732   2.897   5.521   5.305
 9952TIP3    H129733   2.814   5.537   5.261
 9952TIP3    H229734   2.914   5.428   5.290
 9953TIP3   OH229735   1.500   5.966   5.299
 9953TIP3    H129736   1.550   5.955   5.380
 9953TIP3    H229737   1.432   5.898   5.304
 9954TIP3   OH229738   1.862   4.759   5.104
 9954TIP3    H129739   1.773   4.729   5.084
 9954TIP3    H229740   1.849   4.836   5.159
 9955TIP3   OH229741   2.450   4.888   5.360
 9955TIP3    H129742   2.486   4.805   5.390
 9955TIP3    H229743   2.355   4.874   5.358
 9956TIP3   OH229744   2.641   5.300   5.256
 9956TIP3    H129745   2.616   5.300   5.348
 9956TIP3    H229746   2.630   5.391   5.228
 9957TIP3   OH229747   2.324   5.384   3.769
 9957TIP3    H129748   2.279   5.384   3.685
 9957TIP3    H229749   2.407   5.429   3.752
 9958TIP3   OH229750   2.032   4.802   4.098
 9958TIP3    H129751   2.000   4.806   4.188
 9958TIP3    H229752   1.995   4.720   4.063
 9959TIP3   OH229753   1.820   5.287   5.123
 9959TIP3    H129754   1.779   5.292   5.209
 9959TIP3    H229755   1.796   5.369   5.080
 9960TIP3   OH229756   1.695   5.174   4.646
 9960TIP3    H129757   1.607   5.146   4.671
 9960TIP3    H229758   1.707   5.140   4.557
 9961TIP3   OH229759   2.179   5.244   4.376
 9961TIP3    H129760   2.132   5.317   4.335
 9961TIP3    H229761   2.237   5.211   4.307
 9962TIP3   OH229762   2.366   5.505   5.446
 9962TIP3    H129763   2.344   5.435   5.507
 9962TIP3    H229764   2.456   5.527   5.466
 9963TIP3   OH229765   2.355   5.260   4.593
 9963TIP3    H129766   2.284   5.276   4.530
 9963TIP3    H229767   2.402   5.185   4.557
 9964TIP3   OH229768   1.657   5.289   5.348
 9964TIP3    H129769   1.723   5.337   5.398
 9964TIP3    H229770   1.642   5.209   5.399
 9965TIP3   OH229771   1.701   4.780   4.065
 9965TIP3    H129772   1.695   4.783   4.160
 9965TIP3    H229773   1.622   4.824   4.034
 9966TIP3   OH229774   1.253   4.827   4.924
 9966TIP3    H129775   1.319   4.864   4.984
 9966TIP3    H229776   1.302   4.808   4.844
 9967TIP3   OH229777   1.149   4.803   4.431
 9967TIP3    H129778   1.194   4.838   4.354
 9967TIP3    H229779   1.087   4.872   4.456
 9968TIP3   OH229780   2.399   5.506   5.026
 9968TIP3    H129781   2.424   5.441   4.961
 9968TIP3    H229782   2.357   5.456   5.095
 9969TIP3   OH229783   2.048   5.009   4.715
 9969TIP3    H129784   1.973   4.989   4.771
 9969TIP3    H229785   2.119   4.953   4.748
 9970TIP3   OH229786   1.460   5.042   4.704
 9970TIP3    H129787   1.373   5.046   4.665
 9970TIP3    H229788   1.489   4.952   4.690
 9971TIP3   OH229789   1.711   5.048   4.401
 9971TIP3    H129790   1.806   5.058   4.396
 9971TIP3    H229791   1.680   5.066   4.312
 9972TIP3   OH229792   2.531   5.047   4.920
 9972TIP3    H129793   2.501   5.059   5.010
 9972TIP3    H229794   2.507   4.956   4.899
 9973TIP3   OH229795   1.606   5.076   4.148
 9973TIP3    H129796   1.543   5.024   4.098
 9973TIP3    H229797   1.660   5.119   4.081
 9974TIP3   OH229798   2.713   6.755   5.116
 9974TIP3    H129799   2.717   6.764   5.021
 9974TIP3    H229800   2.791   6.800   5.148
 9975TIP3   OH229801   1.650   5.884   5.534
 9975TIP3    H129802   1.734   5.896   5.580
 9975TIP3    H229803   1.584   5.888   5.603
 9976TIP3   OH229804   2.110   5.344   4.795
 9976TIP3    H129805   2.158   5.279   4.743
 9976TIP3    H229806   2.107   5.307   4.883
 9977TIP3   OH229807   1.596   4.792   4.695
 9977TIP3    H129808   1.571   4.716   4.748
 9977TIP3    H229809   1.631   4.754   4.614
 9978TIP3   OH229810   2.088   5.251   5.053
 9978TIP3    H129811   2.001   5.263   5.091
 9978TIP3    H229812   2.148   5.284   5.120
 9979TIP3   OH229813   1.818   5.582   4.178
 9979TIP3    H129814   1.744   5.526   4.153
 9979TIP3    H229815   1.790   5.624   4.259
 9980TIP3   OH229816   2.707   5.847   4.782
 9980TIP3    H129817   2.743   5.894   4.707
 9980TIP3    H229818   2.630   5.802   4.747
 9981TIP3   OH229819   2.284   4.906   4.089
 9981TIP3    H129820   2.191   4.884   4.090
 9981TIP3    H229821   2.286   5.001   4.104
 9982TIP3   OH229822   2.244   5.931   5.195
 9982TIP3    H129823   2.298   5.908   5.270
 9982TIP3    H229824   2.201   6.013   5.221
 9983TIP3   OH229825   2.344   5.170   4.160
 9983TIP3    H129826   2.439   5.171   4.172
 9983TIP3    H229827   2.324   5.248   4.109
 9984TIP3   OH229828   1.511   5.601   4.827
 9984TIP3    H129829   1.550   5.581   4.742
 9984TIP3    H229830   1.575   5.570   4.891
 9985TIP3   OH229831   1.971   5.744   4.021
 9985TIP3    H129832   1.922   5.826   4.019
 9985TIP3    H229833   1.917   5.685   4.074
 9986TIP3   OH229834   1.392   5.546   5.470
 9986TIP3    H129835   1.404   5.515   5.560
 9986TIP3    H229836   1.324   5.490   5.434
 9987TIP3   OH229837   2.152   5.683   5.467
 9987TIP3    H129838   2.099   5.659   5.391
 9987TIP3    H229839   2.232   5.630   5.458
 9988TIP3   OH229840   2.369   6.234   5.089
 9988TIP3    H129841   2.277   6.209   5.095
 9988TIP3    H229842   2.391   6.267   5.177
 9989TIP3   OH229843   2.753   5.256   3.972
 9989TIP3    H129844   2.697   5.211   3.909
 9989TIP3    H229845   2.760   5.345   3.939
 9990TIP3   OH229846   3.008   6.126   5.059
 9990TIP3    H129847   2.914   6.107   5.050
 9990TIP3    H229848   3.045   6.098   4.975
 9991TIP3   OH229849   2.501   6.074   3.912
 9991TIP3    H129850   2.477   6.003   3.971
 9991TIP3    H229851   2.523   6.031   3.830
 9992TIP3   OH229852   2.480   5.707   4.680
 9992TIP3    H129853   2.392   5.683   4.708
 9992TIP3    H229854   2.517   5.627   4.643
 9993TIP3   OH229855   1.640   5.945   4.502
 9993TIP3    H129856   1.639   6.021   4.444
 9993TIP3    H229857   1.548   5.931   4.524
 9994TIP3   OH229858   1.202   5.227   4.211
 9994TIP3    H129859   1.245   5.309   4.234
 9994TIP3    H229860   1.121   5.226   4.263
 9995TIP3   OH229861   1.711   5.701   4.396
 9995TIP3    H129862   1.702   5.789   4.431
 9995TIP3    H229863   1.690   5.643   4.469
 9996TIP3   OH229864   1.921   6.272   4.954
 9996TIP3    H129865   1.959   6.344   4.904
 9996TIP3    H229866   1.994   6.237   5.006
 9997TIP3   OH229867   1.558   6.167   4.349
 9997TIP3    H129868   1.471   6.172   4.390
 9997TIP3    H229869   1.592   6.256   4.355
 9998TIP3   OH229870   2.269   5.937   4.919
 9998TIP3    H129871   2.261   5.933   5.014
 9998TIP3    H229872   2.333   5.869   4.897
 9999TIP3   OH229873   2.267   5.812   3.803
 9999TIP3    H129874   2.317   5.790   3.882
 9999TIP3    H229875   2.185   5.764   3.813
10000TIP3   OH229876   2.543   6.415   4.964
10000TIP3    H129877   2.474   6.356   4.994
10000TIP3    H229878   2.501   6.471   4.899
10001TIP3   OH229879   2.575   6.274   3.600
10001TIP3    H129880   2.584   6.329   3.522
10001TIP3    H229881   2.506   6.317   3.652
10002TIP3   OH229882   1.621   5.039   5.479
10002TIP3    H129883   1.525   5.040   5.484
10002TIP3    H229884   1.648   4.977   5.546
10003TIP3   OH229885   2.443   5.747   4.007
10003TIP3    H129886   2.428   5.679   4.073
10003TIP3    H229887   2.538   5.748   3.996
10004TIP3   OH229888   1.344   6.158   5.125
10004TIP3    H129889   1.397   6.096   5.175
10004TIP3    H229890   1.358   6.242   5.168
10005TIP3   OH229891   1.616   5.775   3.816
10005TIP3    H129892   1.627   5.684   3.789
10005TIP3    H229893   1.605   5.770   3.911
10006TIP3   OH229894   1.563   5.791   4.090
10006TIP3    H129895   1.624   5.765   4.159
10006TIP3    H229896   1.562   5.887   4.093
10007TIP3   OH229897   1.292   5.477   4.297
10007TIP3    H129898   1.228   5.526   4.348
10007TIP3    H229899   1.315   5.535   4.224
10008TIP3   OH229900   2.458   5.104   5.186
10008TIP3    H129901   2.535   5.155   5.213
10008TIP3    H229902   2.457   5.029   5.246
10009TIP3   OH229903   2.349   4.852   4.355
10009TIP3    H129904   2.328   4.872   4.263
10009TIP3    H229905   2.392   4.932   4.387
10010TIP3   OH229906   1.827   5.973   4.016
10010TIP3    H129907   1.744   5.998   4.055
10010TIP3    H229908   1.852   6.047   3.961
10011TIP3   OH229909   1.987   5.061   4.452
10011TIP3    H129910   2.052   5.125   4.424
10011TIP3    H229911   2.006   5.047   4.545
10012TIP3   OH229912   2.293   5.340   5.220
10012TIP3    H129913   2.316   5.380   5.304
10012TIP3    H229914   2.342   5.257   5.219
10013TIP3   OH229915   2.174   4.733   4.532
10013TIP3    H129916   2.201   4.773   4.615
10013TIP3    H229917   2.234   4.771   4.467
10014TIP3   OH229918   1.581   6.065   4.097
10014TIP3    H129919   1.560   6.138   4.038
10014TIP3    H229920   1.571   6.102   4.184
10015TIP3   OH229921   1.678   4.773   4.343
10015TIP3    H129922   1.665   4.863   4.373
10015TIP3    H229923   1.772   4.757   4.354
10016TIP3   OH229924   2.906   5.259   5.199
10016TIP3    H129925   2.813   5.262   5.224
10016TIP3    H229926   2.912   5.186   5.138
10017TIP3   OH229927   2.572   5.451   4.594
10017TIP3    H129928   2.498   5.392   4.606
10017TIP3    H229929   2.642   5.413   4.648
10018TIP3   OH229930   1.324   5.653   4.081
10018TIP3    H129931   1.397   5.714   4.090
10018TIP3    H229932   1.353   5.590   4.015
10019TIP3   OH229933   1.220   4.948   4.210
10019TIP3    H129934   1.234   5.042   4.218
10019TIP3    H229935   1.174   4.939   4.126
10020TIP3   OH229936   2.554   6.429   4.540
10020TIP3    H129937   2.509   6.480   4.473
10020TIP3    H229938   2.646   6.450   4.528
10021TIP3   OH229939   1.600   4.668   5.085
10021TIP3    H129940   1.576   4.633   4.999
10021TIP3    H229941   1.603   4.592   5.142
10022TIP3   OH229942   1.147   5.929   4.464
10022TIP3    H129943   1.098   5.963   4.539
10022TIP3    H229944   1.106   5.972   4.388
10023TIP3   OH229945   1.349   6.458   5.537
10023TIP3    H129946   1.432   6.454   5.584
10023TIP3    H229947   1.322   6.366   5.529
10024TIP3   OH229948   1.819   6.372   5.577
10024TIP3    H129949   1.907   6.336   5.589
10024TIP3    H229950   1.782   6.321   5.505
10025TIP3   OH229951   1.767   5.973   3.697
10025TIP3    H129952   1.721   5.904   3.744
10025TIP3    H229953   1.843   5.929   3.658
10026TIP3   OH229954   2.417   6.331   5.344
10026TIP3    H129955   2.429   6.254   5.401
10026TIP3    H229956   2.497   6.382   5.357
10027TIP3   OH229957   2.212   6.013   3.626
10027TIP3    H129958   2.245   5.950   3.690
10027TIP3    H229959   2.271   6.004   3.551
10028TIP3   OH229960   1.457   5.874   5.735
10028TIP3    H129961   1.475   5.780   5.743
10028TIP3    H229962   1.375   5.879   5.686
10029TIP3   OH229963   1.438   5.466   3.919
10029TIP3    H129964   1.488   5.438   3.996
10029TIP3    H229965   1.504   5.480   3.852
10030TIP3   OH229966   2.074   5.955   5.504
10030TIP3    H129967   2.027   5.971   5.422
10030TIP3    H229968   2.115   5.869   5.491
10031TIP3   OH229969   2.012   5.686   3.757
10031TIP3    H129970   1.989   5.695   3.849
10031TIP3    H229971   1.995   5.595   3.736
10032TIP3   OH229972   2.549   6.008   5.133
10032TIP3    H129973   2.624   6.029   5.077
10032TIP3    H229974   2.483   6.073   5.109
10033TIP3   OH229975   1.562   5.618   5.730
10033TIP3    H129976   1.636   5.595   5.673
10033TIP3    H229977   1.601   5.627   5.817
10034TIP3   OH229978   1.609   5.406   4.132
10034TIP3    H129979   1.590   5.375   4.221
10034TIP3    H229980   1.657   5.334   4.091
10035TIP3   OH229981   1.879   5.459   5.385
10035TIP3    H129982   1.812   5.523   5.409
10035TIP3    H229983   1.936   5.507   5.325
10036TIP3   OH229984   1.751   5.227   3.969
10036TIP3    H129985   1.722   5.231   3.877
10036TIP3    H229986   1.846   5.236   3.965
10037TIP3   OH229987   2.430   5.867   5.460
10037TIP3    H129988   2.504   5.834   5.410
10037TIP3    H229989   2.428   5.814   5.539
10038TIP3   OH229990   2.544   5.516   3.662
10038TIP3    H129991   2.532   5.474   3.577
10038TIP3    H229992   2.520   5.607   3.647
10039TIP3   OH229993   2.032   5.266   5.508
10039TIP3    H129994   2.037   5.191   5.448
10039TIP3    H229995   1.985   5.333   5.459
10040TIP3   OH229996   2.033   5.071   5.308
10040TIP3    H129997   2.070   5.079   5.220
10040TIP3    H229998   1.947   5.032   5.295
10041TIP3   OH229999   2.040   5.609   5.218
10041TIP3    H130000   2.120   5.590   5.170
10041TIP3    H230001   1.986   5.659   5.156
10042TIP3   OH230002   2.629   5.547   5.544
10042TIP3    H130003   2.627   5.452   5.549
10042TIP3    H230004   2.722   5.569   5.539
10043TIP3   OH230005   2.666   5.818   5.289
10043TIP3    H130006   2.617   5.884   5.240
10043TIP3    H230007   2.756   5.827   5.258
10044TIP3   OH230008   1.926   5.337   5.755
10044TIP3    H130009   1.858   5.272   5.772
10044TIP3    H230010   1.955   5.319   5.666
10045TIP3   OH230011   2.186   4.826   5.327
10045TIP3    H130012   2.130   4.903   5.344
10045TIP3    H230013   2.132   4.752   5.355
10046TIP3   OH230014   2.295   5.294   5.605
10046TIP3    H130015   2.291   5.271   5.698
10046TIP3    H230016   2.207   5.276   5.572
10047TIP3   OH230017   2.569   5.281   5.517
10047TIP3    H130018   2.488   5.256   5.562
10047TIP3    H230019   2.637   5.229   5.561
10048TIP3   OH230020   2.799   5.187   5.639
10048TIP3    H130021   2.801   5.096   5.668
10048TIP3    H230022   2.783   5.237   5.720
10049TIP3   OH230023   1.746   5.133   5.817
10049TIP3    H130024   1.753   5.048   5.774
10049TIP3    H230025   1.783   5.119   5.904
10050TIP3   OH230026   2.276   4.963   5.840
10050TIP3    H130027   2.320   4.944   5.758
10050TIP3    H230028   2.246   5.054   5.831
10051TIP3   OH230029   1.581   6.279   3.917
10051TIP3    H130030   1.668   6.253   3.887
10051TIP3    H230031   1.541   6.321   3.840
10052TIP3   OH230032   1.052   5.656   4.094
10052TIP3    H130033   1.148   5.665   4.092
10052TIP3    H230034   1.036   5.569   4.057
10053TIP3   OH230035   0.966   6.226   4.536
10053TIP3    H130036   0.908   6.171   4.485
10053TIP3    H230037   1.004   6.167   4.601
10054TIP3   OH230038   1.092   6.068   4.724
10054TIP3    H130039   1.085   5.997   4.787
10054TIP3    H230040   1.139   6.138   4.770
10055TIP3   OH230041   2.812   6.518   4.529
10055TIP3    H130042   2.852   6.516   4.616
10055TIP3    H230043   2.886   6.528   4.469
10056TIP3   OH230044   2.864   6.498   4.810
10056TIP3    H130045   2.817   6.415   4.797
10056TIP3    H230046   2.926   6.479   4.880
10057TIP3   OH230047   2.894   6.215   5.387
10057TIP3    H130048   2.826   6.223   5.454
10057TIP3    H230049   2.942   6.298   5.391
10058TIP3   OH230050   2.723   5.727   3.993
10058TIP3    H130051   2.781   5.796   3.963
10058TIP3    H230052   2.769   5.687   4.067
10059TIP3   OH230053   2.852   5.582   4.193
10059TIP3    H130054   2.786   5.543   4.250
10059TIP3    H230055   2.919   5.616   4.253
10060TIP3   OH230056   2.895   5.985   4.623
10060TIP3    H130057   2.947   5.912   4.590
10060TIP3    H230058   2.912   6.056   4.560
10061TIP3   OH230059   2.714   6.266   4.805
10061TIP3    H130060   2.650   6.311   4.860
10061TIP3    H230061   2.661   6.225   4.736
10062TIP3   OH230062   2.752   5.498   3.840
10062TIP3    H130063   2.680   5.498   3.777
10062TIP3    H230064   2.738   5.577   3.893
10063TIP3   OH230065   2.601   5.143   3.773
10063TIP3    H130066   2.555   5.175   3.696
10063TIP3    H230067   2.597   5.047   3.766
10064TIP3   OH230068   2.645   5.441   4.326
10064TIP3    H130069   2.651   5.346   4.312
10064TIP3    H230070   2.625   5.451   4.419
10065TIP3   OH230071   1.266   5.508   5.102
10065TIP3    H130072   1.257   5.471   5.014
10065TIP3    H230073   1.359   5.496   5.123
10066TIP3   OH230074   2.926   5.853   5.193
10066TIP3    H130075   2.993   5.785   5.185
10066TIP3    H230076   2.945   5.915   5.123
10067TIP3   OH230077   3.112   5.649   5.188
10067TIP3    H130078   3.040   5.600   5.228
10067TIP3    H230079   3.191   5.603   5.215
10068TIP3   OH230080   2.567   4.871   3.743
10068TIP3    H130081   2.633   4.845   3.807
10068TIP3    H230082   2.485   4.833   3.776
10069TIP3   OH230083   2.638   5.161   4.214
10069TIP3    H130084   2.685   5.079   4.229
10069TIP3    H230085   2.678   5.198   4.136
10070TIP3   OH230086   2.792   5.338   4.730
10070TIP3    H130087   2.875   5.353   4.685
10070TIP3    H230088   2.805   5.375   4.818
10071TIP3   OH230089   2.860   5.484   4.960
10071TIP3    H130090   2.792   5.508   5.022
10071TIP3    H230091   2.889   5.567   4.922
10072TIP3   OH230092   1.482   5.172   5.741
10072TIP3    H130093   1.576   5.173   5.760
10072TIP3    H230094   1.450   5.089   5.778
10073TIP3   OH230095   3.326   5.062   5.504
10073TIP3    H130096   3.244   5.013   5.516
10073TIP3    H230097   3.313   5.111   5.423
10074TIP3   OH230098   2.757   4.913   4.274
10074TIP3    H130099   2.801   4.900   4.358
10074TIP3    H230100   2.695   4.841   4.267
10075TIP3   OH230101   1.451   4.899   5.108
10075TIP3    H130102   1.501   4.818   5.111
10075TIP3    H230103   1.517   4.967   5.088
10076TIP3   OH230104   1.236   5.164   5.149
10076TIP3    H130105   1.286   5.157   5.068
10076TIP3    H230106   1.289   5.224   5.203
10077TIP3   OH230107   3.193   5.235   5.316
10077TIP3    H130108   3.124   5.252   5.380
10077TIP3    H230109   3.163   5.158   5.268
10078TIP3   OH230110   2.791   4.824   3.903
10078TIP3    H130111   2.841   4.763   3.848
10078TIP3    H230112   2.846   4.902   3.909
10079TIP3   OH230113   1.227   4.661   4.651
10079TIP3    H130114   1.143   4.652   4.697
10079TIP3    H230115   1.208   4.720   4.578
10080TIP3   OH230116   2.376   6.399   4.174
10080TIP3    H130117   2.433   6.383   4.099
10080TIP3    H230118   2.424   6.461   4.228
10081TIP3   OH230119   1.474   4.752   5.499
10081TIP3    H130120   1.418   4.722   5.571
10081TIP3    H230121   1.413   4.785   5.433
10082TIP3   OH230122   1.495   6.182   5.557
10082TIP3    H130123   1.402   6.169   5.545
10082TIP3    H230124   1.511   6.162   5.650
10083TIP3   OH230125   1.691   6.229   5.100
10083TIP3    H130126   1.640   6.304   5.070
10083TIP3    H230127   1.776   6.239   5.057
10084TIP3   OH230128   2.086   6.461   5.259
10084TIP3    H130129   2.126   6.459   5.346
10084TIP3    H230130   2.151   6.505   5.204
10085TIP3   OH230131   2.271   6.582   5.096
10085TIP3    H130132   2.275   6.526   5.018
10085TIP3    H230133   2.363   6.595   5.120
10086TIP3   OH230134   3.119   5.003   5.186
10086TIP3    H130135   3.036   4.999   5.138
10086TIP3    H230136   3.127   4.918   5.228
10087TIP3   OH230137   1.352   6.478   5.148
10087TIP3    H130138   1.262   6.501   5.124
10087TIP3    H230139   1.375   6.542   5.217
10088TIP3   OH230140   1.583   6.462   5.001
10088TIP3    H130141   1.500   6.468   5.048
10088TIP3    H230142   1.560   6.483   4.910
10089TIP3   OH230143   1.997   6.485   4.793
10089TIP3    H130144   1.926   6.486   4.729
10089TIP3    H230145   1.999   6.574   4.828
10090TIP3   OH230146   2.262   6.445   4.859
10090TIP3    H130147   2.174   6.448   4.821
10090TIP3    H230148   2.317   6.494   4.797
10091TIP3   OH230149   2.473   6.592   4.746
10091TIP3    H130150   2.466   6.678   4.704
10091TIP3    H230151   2.503   6.534   4.675
10092TIP3   OH230152   1.267   6.248   4.873
10092TIP3    H130153   1.295   6.223   4.962
10092TIP3    H230154   1.337   6.214   4.816
10093TIP3   OH230155   1.468   6.133   4.731
10093TIP3    H130156   1.480   6.047   4.771
10093TIP3    H230157   1.555   6.173   4.733
10094TIP3   OH230158   1.736   6.218   4.752
10094TIP3    H130159   1.755   6.126   4.736
10094TIP3    H230160   1.791   6.242   4.827
10095TIP3   OH230161   2.245   4.818   4.786
10095TIP3    H130162   2.227   4.771   4.868
10095TIP3    H230163   2.340   4.816   4.777
10096TIP3   OH230164   2.815   4.767   4.746
10096TIP3    H130165   2.849   4.818   4.672
10096TIP3    H230166   2.724   4.794   4.753
10097TIP3   OH230167   2.912   4.860   4.502
10097TIP3    H130168   2.980   4.799   4.475
10097TIP3    H230169   2.950   4.947   4.487
10098TIP3   OH230170   1.529   4.562   4.839
10098TIP3    H130171   1.442   4.526   4.851
10098TIP3    H230172   1.587   4.486   4.834
10099TIP3   OH230173   1.343   4.469   4.480
10099TIP3    H130174   1.377   4.520   4.406
10099TIP3    H230175   1.311   4.534   4.542
10100TIP3   OH230176   1.996   4.611   4.726
10100TIP3    H130177   2.053   4.657   4.665
10100TIP3    H230178   2.034   4.628   4.813
10101TIP3   OH230179   2.520   4.787   4.728
10101TIP3    H130180   2.535   4.764   4.636
10101TIP3    H230181   2.520   4.703   4.774
10102TIP3   OH230182   2.571   4.703   4.279
10102TIP3    H130183   2.491   4.749   4.302
10102TIP3    H230184   2.561   4.616   4.319
10103TIP3   OH230185   1.040   6.047   4.237
10103TIP3    H130186   0.958   6.012   4.201
10103TIP3    H230187   1.040   6.139   4.211
10104TIP3   OH230188   1.465   4.605   4.253
10104TIP3    H130189   1.511   4.544   4.195
10104TIP3    H230190   1.534   4.661   4.290
10105TIP3   OH230191   1.955   4.803   4.365
10105TIP3    H130192   2.016   4.754   4.420
10105TIP3    H230193   1.966   4.894   4.393
10106TIP3   OH230194   1.831   6.195   3.842
10106TIP3    H130195   1.914   6.222   3.803
10106TIP3    H230196   1.800   6.124   3.786
10107TIP3   OH230197   2.532   6.343   3.950
10107TIP3    H130198   2.527   6.248   3.944
10107TIP3    H230199   2.491   6.375   3.870
10108TIP3   OH230200   1.764   4.872   5.712
10108TIP3    H130201   1.732   4.799   5.764
10108TIP3    H230202   1.857   4.878   5.732
10109TIP3   OH230203   2.004   4.887   5.857
10109TIP3    H130204   2.098   4.896   5.839
10109TIP3    H230205   1.999   4.809   5.913
10110TIP3   OH230206   1.147   6.032   3.905
10110TIP3    H130207   1.148   6.036   4.001
10110TIP3    H230208   1.228   5.988   3.882
10111TIP3   OH230209   2.748   6.482   5.143
10111TIP3    H130210   2.680   6.450   5.084
10111TIP3    H230211   2.733   6.577   5.146
10112TIP3   OH230212   4.029   5.859   3.872
10112TIP3    H130213   4.000   5.946   3.845
10112TIP3    H230214   3.957   5.801   3.847
10113TIP3   OH230215   4.027   5.864   4.301
10113TIP3    H130216   4.080   5.844   4.378
10113TIP3    H230217   3.982   5.782   4.280
10114TIP3   OH230218   3.319   5.720   4.640
10114TIP3    H130219   3.360   5.670   4.711
10114TIP3    H230220   3.392   5.743   4.582
10115TIP3   OH230221   4.292   6.169   3.972
10115TIP3    H130222   4.282   6.102   4.040
10115TIP3    H230223   4.312   6.249   4.021
10116TIP3   OH230224   3.298   6.143   4.329
10116TIP3    H130225   3.286   6.048   4.327
10116TIP3    H230226   3.393   6.155   4.322
10117TIP3   OH230227   2.996   5.353   4.105
10117TIP3    H130228   2.958   5.437   4.131
10117TIP3    H230229   2.922   5.305   4.067
10118TIP3   OH230230   3.082   5.665   4.336
10118TIP3    H130231   3.133   5.588   4.362
10118TIP3    H230232   3.147   5.730   4.313
10119TIP3   OH230233   3.966   6.586   3.994
10119TIP3    H130234   3.983   6.535   3.915
10119TIP3    H230235   3.987   6.527   4.066
10120TIP3   OH230236   3.829   6.084   4.302
10120TIP3    H130237   3.875   6.005   4.275
10120TIP3    H230238   3.898   6.143   4.331
10121TIP3   OH230239   4.884   5.407   4.301
10121TIP3    H130240   4.901   5.490   4.346
10121TIP3    H230241   4.923   5.419   4.214
10122TIP3   OH230242   4.238   5.572   4.331
10122TIP3    H130243   4.267   5.488   4.365
10122TIP3    H230244   4.199   5.552   4.246
10123TIP3   OH230245   3.592   5.225   4.292
10123TIP3    H130246   3.569   5.300   4.236
10123TIP3    H230247   3.534   5.155   4.262
10124TIP3   OH230248   4.292   5.330   3.931
10124TIP3    H130249   4.352   5.327   4.005
10124TIP3    H230250   4.343   5.368   3.859
10125TIP3   OH230251   3.226   5.444   4.425
10125TIP3    H130252   3.309   5.425   4.468
10125TIP3    H230253   3.227   5.392   4.345
10126TIP3   OH230254   3.633   5.646   4.240
10126TIP3    H130255   3.728   5.633   4.245
10126TIP3    H230256   3.599   5.562   4.208
10127TIP3   OH230257   4.929   5.621   4.481
10127TIP3    H130258   4.839   5.654   4.475
10127TIP3    H230259   4.957   5.644   4.570
10128TIP3   OH230260   3.575   5.231   4.760
10128TIP3    H130261   3.529   5.264   4.683
10128TIP3    H230262   3.517   5.251   4.833
10129TIP3   OH230263   3.927   6.074   3.734
10129TIP3    H130264   3.886   6.054   3.650
10129TIP3    H230265   3.877   6.148   3.768
10130TIP3   OH230266   3.663   6.008   4.509
10130TIP3    H130267   3.611   6.081   4.542
10130TIP3    H230268   3.714   6.045   4.437
10131TIP3   OH230269   4.441   5.361   4.156
10131TIP3    H130270   4.401   5.335   4.239
10131TIP3    H230271   4.500   5.433   4.179
10132TIP3   OH230272   3.472   5.335   4.520
10132TIP3    H130273   3.527   5.410   4.542
10132TIP3    H230274   3.519   5.291   4.449
10133TIP3   OH230275   3.511   6.216   4.614
10133TIP3    H130276   3.498   6.306   4.585
10133TIP3    H230277   3.433   6.196   4.666
10134TIP3   OH230278   2.893   5.917   3.874
10134TIP3    H130279   2.860   5.933   3.785
10134TIP3    H230280   2.916   6.004   3.906
10135TIP3   OH230281   4.323   6.416   4.114
10135TIP3    H130282   4.234   6.411   4.148
10135TIP3    H230283   4.325   6.499   4.065
10136TIP3   OH230284   4.664   5.331   4.458
10136TIP3    H130285   4.580   5.354   4.418
10136TIP3    H230286   4.729   5.353   4.391
10137TIP3   OH230287   3.905   4.937   4.463
10137TIP3    H130288   3.898   4.845   4.489
10137TIP3    H230289   3.832   4.980   4.508
10138TIP3   OH230290   4.027   6.451   3.753
10138TIP3    H130291   4.077   6.370   3.744
10138TIP3    H230292   4.087   6.520   3.724
10139TIP3   OH230293   4.168   6.217   3.729
10139TIP3    H130294   4.098   6.152   3.729
10139TIP3    H230295   4.220   6.196   3.807
10140TIP3   OH230296   4.566   6.301   4.455
10140TIP3    H130297   4.546   6.227   4.398
10140TIP3    H230298   4.551   6.378   4.400
10141TIP3   OH230299   3.850   5.704   3.721
10141TIP3    H130300   3.769   5.751   3.701
10141TIP3    H230301   3.899   5.706   3.639
10142TIP3   OH230302   3.819   5.520   3.409
10142TIP3    H130303   3.884   5.568   3.460
10142TIP3    H230304   3.868   5.451   3.365
10143TIP3   OH230305   4.738   5.964   4.324
10143TIP3    H130306   4.653   6.008   4.322
10143TIP3    H230307   4.773   5.976   4.236
10144TIP3   OH230308   4.215   5.792   3.683
10144TIP3    H130309   4.160   5.819   3.756
10144TIP3    H230310   4.299   5.770   3.723
10145TIP3   OH230311   4.446   5.814   4.645
10145TIP3    H130312   4.440   5.896   4.693
10145TIP3    H230313   4.365   5.809   4.594
10146TIP3   OH230314   3.438   5.777   4.085
10146TIP3    H130315   3.404   5.714   4.021
10146TIP3    H230316   3.511   5.731   4.127
10147TIP3   OH230317   3.567   6.197   4.235
10147TIP3    H130318   3.547   6.186   4.142
10147TIP3    H230319   3.656   6.161   4.244
10148TIP3   OH230320   3.528   5.773   4.462
10148TIP3    H130321   3.569   5.735   4.384
10148TIP3    H230322   3.578   5.853   4.479
10149TIP3   OH230323   4.077   6.417   4.233
10149TIP3    H130324   4.071   6.496   4.287
10149TIP3    H230325   4.065   6.344   4.295
10150TIP3   OH230326   3.711   6.308   4.786
10150TIP3    H130327   3.648   6.363   4.833
10150TIP3    H230328   3.657   6.256   4.726
10151TIP3   OH230329   4.042   5.657   3.514
10151TIP3    H130330   4.103   5.714   3.561
10151TIP3    H230331   4.073   5.659   3.424
10152TIP3   OH230332   3.461   5.857   4.936
10152TIP3    H130333   3.463   5.951   4.952
10152TIP3    H230334   3.367   5.836   4.929
10153TIP3   OH230335   3.795   6.306   3.798
10153TIP3    H130336   3.869   6.366   3.792
10153TIP3    H230337   3.725   6.351   3.749
10154TIP3   OH230338   3.496   6.465   4.867
10154TIP3    H130339   3.476   6.478   4.775
10154TIP3    H230340   3.411   6.456   4.909
10155TIP3   OH230341   4.560   4.867   3.595
10155TIP3    H130342   4.488   4.895   3.652
10155TIP3    H230343   4.572   4.940   3.534
10156TIP3   OH230344   3.316   5.614   3.887
10156TIP3    H130345   3.236   5.659   3.860
10156TIP3    H230346   3.288   5.524   3.905
10157TIP3   OH230347   4.378   6.257   3.129
10157TIP3    H130348   4.370   6.351   3.112
10157TIP3    H230349   4.468   6.236   3.106
10158TIP3   OH230350   3.096   6.024   4.822
10158TIP3    H130351   3.027   6.004   4.759
10158TIP3    H230352   3.130   5.939   4.849
10159TIP3   OH230353   3.009   6.193   4.459
10159TIP3    H130354   3.092   6.170   4.418
10159TIP3    H230355   3.030   6.264   4.519
10160TIP3   OH230356   4.794   6.671   4.525
10160TIP3    H130357   4.799   6.576   4.535
10160TIP3    H230358   4.715   6.697   4.572
10161TIP3   OH230359   3.900   6.455   4.651
10161TIP3    H130360   3.890   6.546   4.681
10161TIP3    H230361   3.833   6.407   4.699
10162TIP3   OH230362   3.117   6.412   3.981
10162TIP3    H130363   3.160   6.403   4.066
10162TIP3    H230364   3.069   6.330   3.970
10163TIP3   OH230365   3.874   6.491   3.244
10163TIP3    H130366   3.933   6.419   3.219
10163TIP3    H230367   3.896   6.508   3.336
10164TIP3   OH230368   3.887   6.560   3.521
10164TIP3    H130369   3.815   6.608   3.562
10164TIP3    H230370   3.933   6.520   3.595
10165TIP3   OH230371   4.702   5.752   4.791
10165TIP3    H130372   4.611   5.773   4.769
10165TIP3    H230373   4.711   5.659   4.769
10166TIP3   OH230374   3.291   6.215   4.784
10166TIP3    H130375   3.345   6.203   4.862
10166TIP3    H230376   3.221   6.150   4.793
10167TIP3   OH230377   3.683   5.023   4.604
10167TIP3    H130378   3.597   4.990   4.577
10167TIP3    H230379   3.663   5.091   4.668
10168TIP3   OH230380   4.274   5.070   4.801
10168TIP3    H130381   4.365   5.041   4.795
10168TIP3    H230382   4.249   5.053   4.892
10169TIP3   OH230383   4.452   5.545   4.748
10169TIP3    H130384   4.425   5.538   4.839
10169TIP3    H230385   4.433   5.636   4.724
10170TIP3   OH230386   4.119   5.621   3.250
10170TIP3    H130387   4.075   5.630   3.166
10170TIP3    H230388   4.202   5.668   3.240
10171TIP3   OH230389   3.829   5.056   3.575
10171TIP3    H130390   3.792   5.064   3.663
10171TIP3    H230391   3.795   4.974   3.541
10172TIP3   OH230392   3.619   5.550   4.609
10172TIP3    H130393   3.577   5.557   4.695
10172TIP3    H230394   3.597   5.633   4.565
10173TIP3   OH230395   3.494   5.428   4.134
10173TIP3    H130396   3.405   5.404   4.159
10173TIP3    H230397   3.504   5.396   4.045
10174TIP3   OH230398   3.973   5.499   3.858
10174TIP3    H130399   3.926   5.572   3.818
10174TIP3    H230400   4.032   5.468   3.790
10175TIP3   OH230401   4.164   5.753   4.925
10175TIP3    H130402   4.147   5.685   4.991
10175TIP3    H230403   4.255   5.779   4.939
10176TIP3   OH230404   4.140   5.514   4.082
10176TIP3    H130405   4.073   5.534   4.017
10176TIP3    H230406   4.190   5.442   4.044
10177TIP3   OH230407   3.456   5.570   4.831
10177TIP3    H130408   3.476   5.629   4.903
10177TIP3    H230409   3.432   5.488   4.874
10178TIP3   OH230410   3.497   5.035   3.553
10178TIP3    H130411   3.488   5.041   3.648
10178TIP3    H230412   3.419   5.078   3.519
10179TIP3   OH230413   3.047   5.078   4.415
10179TIP3    H130414   3.118   5.116   4.466
10179TIP3    H230415   3.087   5.057   4.330
10180TIP3   OH230416   2.942   5.057   3.918
10180TIP3    H130417   2.988   5.093   3.842
10180TIP3    H230418   2.878   5.125   3.941
10181TIP3   OH230419   4.194   5.768   4.512
10181TIP3    H130420   4.219   5.705   4.445
10181TIP3    H230421   4.152   5.716   4.580
10182TIP3   OH230422   3.857   5.214   4.182
10182TIP3    H130423   3.779   5.214   4.237
10182TIP3    H230424   3.930   5.210   4.244
10183TIP3   OH230425   3.255   5.304   4.192
10183TIP3    H130426   3.167   5.308   4.154
10183TIP3    H230427   3.283   5.213   4.177
10184TIP3   OH230428   3.507   5.306   3.888
10184TIP3    H130429   3.602   5.316   3.880
10184TIP3    H230430   3.474   5.323   3.800
10185TIP3   OH230431   4.305   5.315   4.400
10185TIP3    H130432   4.300   5.321   4.496
10185TIP3    H230433   4.236   5.254   4.376
10186TIP3   OH230434   3.400   5.328   3.637
10186TIP3    H130435   3.338   5.277   3.584
10186TIP3    H230436   3.454   5.374   3.573
10187TIP3   OH230437   4.508   7.011   4.613
10187TIP3    H130438   4.506   7.025   4.519
10187TIP3    H230439   4.587   7.057   4.642
10188TIP3   OH230440   3.444   6.130   5.017
10188TIP3    H130441   3.526   6.145   5.064
10188TIP3    H230442   3.376   6.136   5.084
10189TIP3   OH230443   3.908   5.600   4.279
10189TIP3    H130444   3.976   5.550   4.233
10189TIP3    H230445   3.906   5.561   4.367
10190TIP3   OH230446   3.394   5.054   4.177
10190TIP3    H130447   3.368   4.978   4.229
10190TIP3    H230448   3.416   5.018   4.091
10191TIP3   OH230449   3.887   5.503   4.537
10191TIP3    H130450   3.801   5.525   4.574
10191TIP3    H230451   3.950   5.540   4.599
10192TIP3   OH230452   3.613   5.843   3.664
10192TIP3    H130453   3.539   5.788   3.639
10192TIP3    H230454   3.586   5.884   3.746
10193TIP3   OH230455   4.504   6.102   4.275
10193TIP3    H130456   4.542   6.150   4.201
10193TIP3    H230457   4.426   6.060   4.239
10194TIP3   OH230458   4.083   5.159   3.580
10194TIP3    H130459   3.989   5.138   3.575
10194TIP3    H230460   4.085   5.255   3.591
10195TIP3   OH230461   4.028   6.187   4.686
10195TIP3    H130462   4.084   6.173   4.762
10195TIP3    H230463   3.993   6.276   4.699
10196TIP3   OH230464   4.139   5.426   3.644
10196TIP3    H130465   4.234   5.431   3.656
10196TIP3    H230466   4.118   5.504   3.593
10197TIP3   OH230467   3.301   5.857   4.311
10197TIP3    H130468   3.340   5.838   4.226
10197TIP3    H230469   3.366   5.829   4.375
10198TIP3   OH230470   3.762   6.014   3.510
10198TIP3    H130471   3.717   6.098   3.514
10198TIP3    H230472   3.707   5.955   3.563
10199TIP3   OH230473   3.184   5.792   4.955
10199TIP3    H130474   3.188   5.761   5.046
10199TIP3    H230475   3.109   5.746   4.918
10200TIP3   OH230476   3.938   5.922   4.973
10200TIP3    H130477   3.865   5.865   4.947
10200TIP3    H230478   4.016   5.876   4.943
10201TIP3   OH230479   4.171   6.478   4.577
10201TIP3    H130480   4.077   6.465   4.578
10201TIP3    H230481   4.192   6.512   4.664
10202TIP3   OH230482   4.553   5.511   3.458
10202TIP3    H130483   4.496   5.466   3.396
10202TIP3    H230484   4.559   5.600   3.424
10203TIP3   OH230485   4.810   6.395   4.542
10203TIP3    H130486   4.716   6.373   4.538
10203TIP3    H230487   4.845   6.362   4.459
10204TIP3   OH230488   4.301   6.333   3.395
10204TIP3    H130489   4.269   6.267   3.457
10204TIP3    H230490   4.318   6.284   3.315
10205TIP3   OH230491   4.279   5.964   4.170
10205TIP3    H130492   4.190   5.942   4.197
10205TIP3    H230493   4.314   5.883   4.132
10206TIP3   OH230494   3.436   6.206   3.986
10206TIP3    H130495   3.438   6.285   3.931
10206TIP3    H230496   3.343   6.191   4.003
10207TIP3   OH230497   2.991   5.483   3.702
10207TIP3    H130498   3.035   5.565   3.726
10207TIP3    H230499   2.911   5.484   3.754
10208TIP3   OH230500   3.509   5.958   3.884
10208TIP3    H130501   3.501   6.048   3.918
10208TIP3    H230502   3.487   5.902   3.958
10209TIP3   OH230503   3.715   6.525   4.443
10209TIP3    H130504   3.750   6.597   4.391
10209TIP3    H230505   3.790   6.492   4.492
10210TIP3   OH230506   3.355   6.437   3.840
10210TIP3    H130507   3.268   6.439   3.880
10210TIP3    H230508   3.382   6.528   3.836
10211TIP3   OH230509   4.061   6.196   4.411
10211TIP3    H130510   4.049   6.192   4.506
10211TIP3    H230511   4.137   6.140   4.394
10212TIP3   OH230512   4.062   6.068   3.287
10212TIP3    H130513   4.115   6.038   3.361
10212TIP3    H230514   3.978   6.024   3.298
10213TIP3   OH230515   4.326   6.683   4.455
10213TIP3    H130516   4.256   6.622   4.476
10213TIP3    H230517   4.291   6.736   4.383
10214TIP3   OH230518   4.363   6.531   3.092
10214TIP3    H130519   4.376   6.589   3.017
10214TIP3    H230520   4.294   6.572   3.143
10215TIP3   OH230521   3.381   5.329   4.951
10215TIP3    H130522   3.286   5.337   4.961
10215TIP3    H230523   3.410   5.288   5.033
10216TIP3   OH230524   4.241   5.973   3.472
10216TIP3    H130525   4.226   5.922   3.552
10216TIP3    H230526   4.336   5.984   3.468
10217TIP3   OH230527   3.134   6.408   4.613
10217TIP3    H130528   3.189   6.349   4.664
10217TIP3    H230529   3.148   6.494   4.653
10218TIP3   OH230530   3.411   6.023   3.301
10218TIP3    H130531   3.421   5.931   3.276
10218TIP3    H230532   3.397   6.021   3.396
10219TIP3   OH230533   3.354   6.044   3.574
10219TIP3    H130534   3.417   6.019   3.641
10219TIP3    H230535   3.350   6.139   3.579
10220TIP3   OH230536   3.086   5.734   3.783
10220TIP3    H130537   3.023   5.784   3.835
10220TIP3    H230538   3.107   5.791   3.710
10221TIP3   OH230539   4.267   5.343   4.676
10221TIP3    H130540   4.342   5.392   4.710
10221TIP3    H230541   4.270   5.260   4.723
10222TIP3   OH230542   4.147   5.111   3.847
10222TIP3    H130543   4.124   5.129   3.756
10222TIP3    H230544   4.189   5.191   3.877
10223TIP3   OH230545   3.623   6.249   3.523
10223TIP3    H130546   3.534   6.266   3.554
10223TIP3    H230547   3.641   6.319   3.461
10224TIP3   OH230548   3.786   5.311   3.932
10224TIP3    H130549   3.848   5.379   3.906
10224TIP3    H230550   3.809   5.290   4.023
10225TIP3   OH230551   4.098   5.590   4.701
10225TIP3    H130552   4.117   5.636   4.783
10225TIP3    H230553   4.147   5.508   4.707
10226TIP3   OH230554   3.957   5.007   4.018
10226TIP3    H130555   3.932   5.083   4.071
10226TIP3    H230556   4.026   5.040   3.960
10227TIP3   OH230557   3.363   6.316   3.592
10227TIP3    H130558   3.349   6.385   3.527
10227TIP3    H230559   3.360   6.362   3.676
10228TIP3   OH230560   3.465   5.032   3.832
10228TIP3    H130561   3.453   5.123   3.859
10228TIP3    H230562   3.560   5.017   3.838
10229TIP3   OH230563   4.712   5.474   4.697
10229TIP3    H130564   4.621   5.485   4.723
10229TIP3    H230565   4.708   5.426   4.615
10230TIP3   OH230566   4.374   5.705   4.084
10230TIP3    H130567   4.296   5.651   4.099
10230TIP3    H230568   4.441   5.667   4.141
10231TIP3   OH230569   3.112   5.909   3.565
10231TIP3    H130570   3.184   5.971   3.574
10231TIP3    H230571   3.142   5.846   3.499
10232TIP3   OH230572   3.013   5.205   3.697
10232TIP3    H130573   3.027   5.299   3.707
10232TIP3    H230574   2.956   5.196   3.621
10233TIP3   OH230575   4.349   6.680   4.026
10233TIP3    H130576   4.306   6.728   3.955
10233TIP3    H230577   4.442   6.693   4.010
10234TIP3   OH230578   3.420   4.935   4.556
10234TIP3    H130579   3.392   4.902   4.470
10234TIP3    H230580   3.411   4.860   4.614
10235TIP3   OH230581   2.939   6.193   3.952
10235TIP3    H130582   2.893   6.225   4.030
10235TIP3    H230583   2.894   6.235   3.879
10236TIP3   OH230584   3.152   6.732   5.028
10236TIP3    H130585   3.231   6.744   5.079
10236TIP3    H230586   3.148   6.639   5.009
10237TIP3   OH230587   3.607   6.621   5.066
10237TIP3    H130588   3.698   6.591   5.076
10237TIP3    H230589   3.574   6.569   4.992
10238TIP3   OH230590   3.566   6.215   3.176
10238TIP3    H130591   3.521   6.146   3.225
10238TIP3    H230592   3.644   6.172   3.140
10239TIP3   OH230593   4.224   6.569   4.831
10239TIP3    H130594   4.242   6.497   4.892
10239TIP3    H230595   4.298   6.629   4.842
10240TIP3   OH230596   4.009   6.280   3.121
10240TIP3    H130597   4.043   6.214   3.182
10240TIP3    H230598   4.068   6.274   3.045
10241TIP3   OH230599   3.240   6.135   5.210
10241TIP3    H130600   3.266   6.043   5.222
10241TIP3    H230601   3.152   6.130   5.171
10242TIP3   OH230602   3.229   5.719   3.407
10242TIP3    H130603   3.280   5.695   3.485
10242TIP3    H230604   3.295   5.732   3.339
10243TIP3   OH230605   3.866   6.200   4.990
10243TIP3    H130606   3.823   6.221   4.907
10243TIP3    H230607   3.905   6.114   4.976
10244TIP3   OH230608   3.807   5.946   3.248
10244TIP3    H130609   3.781   5.960   3.339
10244TIP3    H230610   3.785   5.855   3.230
10245TIP3   OH230611   4.341   6.253   4.611
10245TIP3    H130612   4.419   6.278   4.561
10245TIP3    H230613   4.278   6.323   4.593
10246TIP3   OH230614   3.355   5.886   5.217
10246TIP3    H130615   3.426   5.850   5.165
10246TIP3    H230616   3.390   5.889   5.306
10247TIP3   OH230617   3.403   5.665   3.620
10247TIP3    H130618   3.385   5.636   3.709
10247TIP3    H230619   3.453   5.594   3.581
10248TIP3   OH230620   3.721   5.758   4.889
10248TIP3    H130621   3.634   5.797   4.898
10248TIP3    H230622   3.750   5.782   4.801
10249TIP3   OH230623   3.549   5.484   3.467
10249TIP3    H130624   3.519   5.487   3.376
10249TIP3    H230625   3.644   5.494   3.462
10250TIP3   OH230626   4.228   6.116   4.959
10250TIP3    H130627   4.294   6.076   4.903
10250TIP3    H230628   4.225   6.060   5.036
10251TIP3   OH230629   4.336   5.765   3.154
10251TIP3    H130630   4.325   5.727   3.067
10251TIP3    H230631   4.313   5.857   3.143
10252TIP3   OH230632   3.837   5.534   4.999
10252TIP3    H130633   3.836   5.462   4.936
10252TIP3    H230634   3.800   5.608   4.951
10253TIP3   OH230635   3.827   5.350   4.796
10253TIP3    H130636   3.861   5.351   4.706
10253TIP3    H230637   3.745   5.300   4.789
10254TIP3   OH230638   3.830   5.847   4.657
10254TIP3    H130639   3.920   5.876   4.641
10254TIP3    H230640   3.776   5.906   4.605
10255TIP3   OH230641   4.428   5.815   4.999
10255TIP3    H130642   4.438   5.759   5.076
10255TIP3    H230643   4.493   5.884   5.010
10256TIP3   OH230644   4.460   6.070   4.774
10256TIP3    H130645   4.408   6.132   4.723
10256TIP3    H230646   4.549   6.082   4.742
10257TIP3   OH230647   3.722   5.612   5.240
10257TIP3    H130648   3.651   5.549   5.256
10257TIP3    H230649   3.752   5.592   5.151
10258TIP3   OH230650   4.097   5.550   5.098
10258TIP3    H130651   4.084   5.545   5.193
10258TIP3    H230652   4.010   5.536   5.061
10259TIP3   OH230653   4.367   5.496   5.000
10259TIP3    H130654   4.289   5.505   5.055
10259TIP3    H230655   4.438   5.475   5.061
10260TIP3   OH230656   3.569   5.380   5.275
10260TIP3    H130657   3.613   5.312   5.225
10260TIP3    H230658   3.596   5.363   5.366
10261TIP3   OH230659   4.092   5.257   5.296
10261TIP3    H130660   4.097   5.236   5.203
10261TIP3    H230661   4.038   5.336   5.300
10262TIP3   OH230662   3.363   6.515   3.402
10262TIP3    H130663   3.456   6.499   3.388
10262TIP3    H230664   3.334   6.563   3.324
10263TIP3   OH230665   2.839   5.912   3.585
10263TIP3    H130666   2.934   5.922   3.579
10263TIP3    H230667   2.820   5.828   3.542
10264TIP3   OH230668   2.741   6.499   4.041
10264TIP3    H130669   2.677   6.443   3.997
10264TIP3    H230670   2.787   6.440   4.102
10265TIP3   OH230671   2.882   6.330   4.213
10265TIP3    H130672   2.874   6.257   4.274
10265TIP3    H230673   2.934   6.395   4.260
10266TIP3   OH230674   4.621   6.728   4.019
10266TIP3    H130675   4.641   6.757   4.108
10266TIP3    H230676   4.675   6.785   3.963
10267TIP3   OH230677   4.639   6.761   4.300
10267TIP3    H130678   4.592   6.678   4.295
10267TIP3    H230679   4.708   6.746   4.364
10268TIP3   OH230680   4.699   6.464   4.874
10268TIP3    H130681   4.628   6.474   4.937
10268TIP3    H230682   4.745   6.549   4.876
10269TIP3   OH230683   4.521   5.978   3.478
10269TIP3    H130684   4.576   6.051   3.448
10269TIP3    H230685   4.568   5.942   3.553
10270TIP3   OH230686   4.653   5.836   3.680
10270TIP3    H130687   4.585   5.801   3.737
10270TIP3    H230688   4.718   5.873   3.740
10271TIP3   OH230689   4.693   6.239   4.117
10271TIP3    H130690   4.744   6.171   4.072
10271TIP3    H230691   4.695   6.313   4.058
10272TIP3   OH230692   4.497   6.521   4.306
10272TIP3    H130693   4.431   6.569   4.357
10272TIP3    H230694   4.447   6.482   4.234
10273TIP3   OH230695   4.550   5.752   3.325
10273TIP3    H130696   4.476   5.751   3.265
10273TIP3    H230697   4.537   5.831   3.378
10274TIP3   OH230698   4.398   5.397   3.263
10274TIP3    H130699   4.348   5.428   3.187
10274TIP3    H230700   4.396   5.301   3.255
10275TIP3   OH230701   4.445   5.701   3.815
10275TIP3    H130702   4.447   5.606   3.799
10275TIP3    H230703   4.425   5.709   3.908
10276TIP3   OH230704   3.057   5.765   4.590
10276TIP3    H130705   3.047   5.729   4.502
10276TIP3    H230706   3.150   5.758   4.609
10277TIP3   OH230707   4.719   6.109   4.678
10277TIP3    H130708   4.786   6.043   4.664
10277TIP3    H230709   4.725   6.167   4.602
10278TIP3   OH230710   4.898   5.897   4.669
10278TIP3    H130711   4.823   5.854   4.710
10278TIP3    H230712   4.973   5.841   4.690
10279TIP3   OH230713   4.369   5.124   3.239
10279TIP3    H130714   4.432   5.096   3.305
10279TIP3    H230715   4.286   5.087   3.267
10280TIP3   OH230716   4.429   5.426   3.699
10280TIP3    H130717   4.474   5.343   3.711
10280TIP3    H230718   4.470   5.464   3.621
10281TIP3   OH230719   4.591   5.584   4.230
10281TIP3    H130720   4.671   5.602   4.180
10281TIP3    H230721   4.606   5.625   4.315
10282TIP3   OH230722   4.665   5.731   4.458
10282TIP3    H130723   4.595   5.756   4.519
10282TIP3    H230724   4.691   5.814   4.417
10283TIP3   OH230725   3.314   5.482   5.280
10283TIP3    H130726   3.405   5.454   5.272
10283TIP3    H230727   3.265   5.402   5.296
10284TIP3   OH230728   5.145   5.274   4.961
10284TIP3    H130729   5.136   5.185   4.928
10284TIP3    H230730   5.072   5.322   4.921
10285TIP3   OH230731   4.545   5.179   3.748
10285TIP3    H130732   4.589   5.164   3.831
10285TIP3    H230733   4.483   5.106   3.740
10286TIP3   OH230734   3.257   5.158   4.581
10286TIP3    H130735   3.310   5.077   4.585
10286TIP3    H230736   3.321   5.227   4.565
10287TIP3   OH230737   3.041   5.421   4.640
10287TIP3    H130738   3.092   5.410   4.559
10287TIP3    H230739   3.083   5.495   4.684
10288TIP3   OH230740   4.928   5.448   4.870
10288TIP3    H130741   4.886   5.446   4.956
10288TIP3    H230742   4.856   5.453   4.808
10289TIP3   OH230743   4.589   5.071   3.408
10289TIP3    H130744   4.629   5.013   3.344
10289TIP3    H230745   4.643   5.149   3.408
10290TIP3   OH230746   3.022   4.924   4.143
10290TIP3    H130747   2.939   4.913   4.189
10290TIP3    H230748   3.001   4.979   4.067
10291TIP3   OH230749   4.197   6.634   3.658
10291TIP3    H130750   4.254   6.630   3.581
10291TIP3    H230751   4.226   6.712   3.705
10292TIP3   OH230752   3.240   4.943   4.939
10292TIP3    H130753   3.229   4.967   5.031
10292TIP3    H230754   3.190   5.008   4.890
10293TIP3   OH230755   3.263   6.456   5.026
10293TIP3    H130756   3.172   6.427   5.026
10293TIP3    H230757   3.295   6.436   5.114
10294TIP3   OH230758   3.484   6.493   4.587
10294TIP3    H130759   3.436   6.569   4.555
10294TIP3    H230760   3.570   6.500   4.546
10295TIP3   OH230761   3.882   6.721   4.732
10295TIP3    H130762   3.922   6.713   4.818
10295TIP3    H230763   3.944   6.775   4.682
10296TIP3   OH230764   4.072   6.876   4.602
10296TIP3    H130765   4.132   6.822   4.550
10296TIP3    H230766   4.130   6.931   4.655
10297TIP3   OH230767   3.142   6.733   4.633
10297TIP3    H130768   3.053   6.760   4.611
10297TIP3    H230769   3.169   6.795   4.701
10298TIP3   OH230770   3.375   6.725   4.484
10298TIP3    H130771   3.291   6.727   4.531
10298TIP3    H230772   3.354   6.754   4.395
10299TIP3   OH230773   3.793   6.734   4.281
10299TIP3    H130774   3.742   6.746   4.200
10299TIP3    H230775   3.802   6.822   4.316
10300TIP3   OH230776   4.057   6.674   4.335
10300TIP3    H130777   3.966   6.691   4.311
10300TIP3    H230778   4.107   6.737   4.283
10301TIP3   OH230779   4.258   6.841   4.229
10301TIP3    H130780   4.256   6.928   4.189
10301TIP3    H230781   4.287   6.783   4.158
10302TIP3   OH230782   3.052   6.503   4.363
10302TIP3    H130783   3.081   6.479   4.451
10302TIP3    H230784   3.124   6.475   4.306
10303TIP3   OH230785   3.256   6.393   4.219
10303TIP3    H130786   3.268   6.307   4.258
10303TIP3    H230787   3.343   6.433   4.223
10304TIP3   OH230788   3.524   6.475   4.244
10304TIP3    H130789   3.545   6.383   4.228
10304TIP3    H230790   3.583   6.501   4.315
10305TIP3   OH230791   4.081   5.136   4.330
10305TIP3    H130792   4.038   5.063   4.375
10305TIP3    H230793   4.153   5.095   4.282
10306TIP3   OH230794   4.583   4.990   4.184
10306TIP3    H130795   4.622   5.047   4.118
10306TIP3    H230796   4.499   5.030   4.204
10307TIP3   OH230797   4.696   5.113   3.967
10307TIP3    H130798   4.760   5.052   3.930
10307TIP3    H230799   4.740   5.198   3.964
10308TIP3   OH230800   3.328   4.824   4.320
10308TIP3    H130801   3.240   4.790   4.333
10308TIP3    H230802   3.384   4.746   4.314
10309TIP3   OH230803   3.147   4.732   3.975
10309TIP3    H130804   3.174   4.782   3.898
10309TIP3    H230805   3.112   4.798   4.035
10310TIP3   OH230806   3.808   4.863   4.208
10310TIP3    H130807   3.856   4.910   4.140
10310TIP3    H230808   3.840   4.899   4.290
10311TIP3   OH230809   4.298   5.030   4.191
10311TIP3    H130810   4.283   4.995   4.103
10311TIP3    H230811   4.290   4.953   4.248
10312TIP3   OH230812   4.367   4.961   3.767
10312TIP3    H130813   4.289   5.011   3.790
10312TIP3    H230814   4.348   4.872   3.797
10313TIP3   OH230815   2.816   6.316   3.737
10313TIP3    H130816   2.735   6.280   3.702
10313TIP3    H230817   2.821   6.404   3.701
10314TIP3   OH230818   3.257   4.863   3.739
10314TIP3    H130819   3.304   4.802   3.682
10314TIP3    H230820   3.326   4.919   3.775
10315TIP3   OH230821   3.741   5.058   3.838
10315TIP3    H130822   3.801   5.006   3.890
10315TIP3    H230823   3.755   5.148   3.866
10316TIP3   OH230824   3.614   6.441   3.322
10316TIP3    H130825   3.699   6.475   3.294
10316TIP3    H230826   3.596   6.370   3.261
10317TIP3   OH230827   4.342   6.601   3.423
10317TIP3    H130828   4.332   6.506   3.417
10317TIP3    H230829   4.289   6.635   3.351
10318TIP3   OH230830   3.830   5.156   5.365
10318TIP3    H130831   3.925   5.161   5.361
10318TIP3    H230832   3.812   5.078   5.418
10319TIP3   OH230833   2.943   6.303   3.398
10319TIP3    H130834   2.948   6.307   3.493
10319TIP3    H230835   3.021   6.254   3.372
10320TIP3   OH230836   4.543   6.737   4.623
10320TIP3    H130837   4.471   6.708   4.569
10320TIP3    H230838   4.532   6.832   4.630
10321TIP3   OH230839   5.825   6.125   3.355
10321TIP3    H130840   5.794   6.212   3.331
10321TIP3    H230841   5.754   6.066   3.331
10322TIP3   OH230842   5.830   6.124   3.782
10322TIP3    H130843   5.879   6.100   3.861
10322TIP3    H230844   5.784   6.044   3.758
10323TIP3   OH230845   5.120   5.972   4.127
10323TIP3    H130846   5.160   5.921   4.197
10323TIP3    H230847   5.192   5.995   4.069
10324TIP3   OH230848   6.092   6.423   3.459
10324TIP3    H130849   6.079   6.357   3.527
10324TIP3    H230850   6.111   6.504   3.507
10325TIP3   OH230851   5.115   6.401   3.806
10325TIP3    H130852   5.096   6.307   3.815
10325TIP3    H230853   5.210   6.405   3.799
10326TIP3   OH230854   4.793   5.605   3.596
10326TIP3    H130855   4.756   5.690   3.621
10326TIP3    H230856   4.720   5.559   3.554
10327TIP3   OH230857   4.881   5.921   3.824
10327TIP3    H130858   4.934   5.845   3.849
10327TIP3    H230859   4.946   5.988   3.802
10328TIP3   OH230860   5.755   6.848   3.473
10328TIP3    H130861   5.778   6.787   3.403
10328TIP3    H230862   5.764   6.797   3.554
10329TIP3   OH230863   5.630   6.337   3.786
10329TIP3    H130864   5.678   6.259   3.758
10329TIP3    H230865   5.697   6.397   3.819
10330TIP3   OH230866   6.676   5.654   3.778
10330TIP3    H130867   6.684   5.737   3.826
10330TIP3    H230868   6.711   5.673   3.691
10331TIP3   OH230869   6.035   5.827   3.819
10331TIP3    H130870   6.063   5.741   3.851
10331TIP3    H230871   5.995   5.809   3.734
10332TIP3   OH230872   5.392   5.482   3.780
10332TIP3    H130873   5.369   5.557   3.725
10332TIP3    H230874   5.335   5.412   3.750
10333TIP3   OH230875   6.087   5.585   3.419
10333TIP3    H130876   6.149   5.578   3.492
10333TIP3    H230877   6.138   5.620   3.347
10334TIP3   OH230878   5.026   5.700   3.916
10334TIP3    H130879   5.109   5.681   3.960
10334TIP3    H230880   5.028   5.649   3.836
10335TIP3   OH230881   5.430   5.902   3.724
10335TIP3    H130882   5.525   5.893   3.721
10335TIP3    H230883   5.397   5.818   3.691
10336TIP3   OH230884   6.696   5.860   3.968
10336TIP3    H130885   6.631   5.924   3.940
10336TIP3    H230886   6.656   5.819   4.045
10337TIP3   OH230887   5.389   5.481   4.256
10337TIP3    H130888   5.349   5.516   4.177
10337TIP3    H230889   5.330   5.506   4.327
10338TIP3   OH230890   5.720   6.344   3.222
10338TIP3    H130891   5.680   6.312   3.141
10338TIP3    H230892   5.667   6.420   3.246
10339TIP3   OH230893   5.459   6.262   3.991
10339TIP3    H130894   5.407   6.335   4.025
10339TIP3    H230895   5.509   6.300   3.919
10340TIP3   OH230896   6.241   5.607   3.645
10340TIP3    H130897   6.195   5.588   3.727
10340TIP3    H230898   6.295   5.682   3.665
10341TIP3   OH230899   5.277   5.587   4.014
10341TIP3    H130900   5.332   5.663   4.036
10341TIP3    H230901   5.321   5.545   3.940
10342TIP3   OH230902   5.310   6.469   4.101
10342TIP3    H130903   5.298   6.559   4.072
10342TIP3    H230904   5.232   6.449   4.153
10343TIP3   OH230905   4.686   6.173   3.359
10343TIP3    H130906   4.651   6.193   3.272
10343TIP3    H230907   4.709   6.259   3.396
10344TIP3   OH230908   6.123   6.669   3.600
10344TIP3    H130909   6.035   6.664   3.637
10344TIP3    H230910   6.124   6.751   3.551
10345TIP3   OH230911   6.448   5.579   3.935
10345TIP3    H130912   6.361   5.583   3.896
10345TIP3    H230913   6.508   5.602   3.865
10346TIP3   OH230914   5.716   5.189   3.961
10346TIP3    H130915   5.710   5.096   3.982
10346TIP3    H230916   5.640   5.229   4.004
10347TIP3   OH230917   5.835   6.702   3.251
10347TIP3    H130918   5.888   6.623   3.240
10347TIP3    H230919   5.892   6.773   3.223
10348TIP3   OH230920   5.971   6.469   3.215
10348TIP3    H130921   5.896   6.410   3.216
10348TIP3    H230922   6.021   6.446   3.293
10349TIP3   OH230923   6.364   6.556   3.944
10349TIP3    H130924   6.342   6.483   3.886
10349TIP3    H230925   6.348   6.634   3.892
10350TIP3   OH230926   5.650   5.962   3.211
10350TIP3    H130927   5.565   6.004   3.193
10350TIP3    H230928   5.695   5.964   3.127
10351TIP3   OH230929   5.615   5.776   2.898
10351TIP3    H130930   5.681   5.824   2.948
10351TIP3    H230931   5.664   5.707   2.852
10352TIP3   OH230932   6.536   6.234   3.806
10352TIP3    H130933   6.451   6.278   3.803
10352TIP3    H230934   6.572   6.245   3.718
10353TIP3   OH230935   6.011   6.051   3.169
10353TIP3    H130936   5.956   6.081   3.241
10353TIP3    H230937   6.095   6.029   3.209
10354TIP3   OH230938   6.240   6.073   4.130
10354TIP3    H130939   6.234   6.157   4.176
10354TIP3    H230940   6.160   6.068   4.079
10355TIP3   OH230941   5.231   6.032   3.573
10355TIP3    H130942   5.196   5.970   3.508
10355TIP3    H230943   5.305   5.985   3.613
10356TIP3   OH230944   5.378   6.453   3.716
10356TIP3    H130945   5.354   6.441   3.624
10356TIP3    H230946   5.466   6.415   3.723
10357TIP3   OH230947   5.332   6.022   3.952
10357TIP3    H130948   5.370   5.987   3.872
10357TIP3    H230949   5.379   6.105   3.966
10358TIP3   OH230950   5.881   6.668   3.726
10358TIP3    H130951   5.868   6.748   3.777
10358TIP3    H230952   5.867   6.597   3.789
10359TIP3   OH230953   5.507   6.562   4.275
10359TIP3    H130954   5.445   6.618   4.321
10359TIP3    H230955   5.453   6.512   4.214
10360TIP3   OH230956   5.840   5.912   3.001
10360TIP3    H130957   5.899   5.971   3.049
10360TIP3    H230958   5.871   5.915   2.911
10361TIP3   OH230959   5.253   6.105   4.432
10361TIP3    H130960   5.258   6.200   4.444
10361TIP3    H230961   5.159   6.087   4.422
10362TIP3   OH230962   5.585   6.584   3.257
10362TIP3    H130963   5.668   6.633   3.263
10362TIP3    H230964   5.527   6.643   3.209
10363TIP3   OH230965   5.296   6.719   4.361
10363TIP3    H130966   5.273   6.732   4.269
10363TIP3    H230967   5.212   6.706   4.405
10364TIP3   OH230968   6.347   5.140   3.067
10364TIP3    H130969   6.271   5.161   3.121
10364TIP3    H230970   6.359   5.216   3.010
10365TIP3   OH230971   5.107   5.871   3.374
10365TIP3    H130972   5.030   5.919   3.346
10365TIP3    H230973   5.076   5.782   3.392
10366TIP3   OH230974   6.178   6.515   2.618
10366TIP3    H130975   6.167   6.608   2.597
10366TIP3    H230976   6.268   6.495   2.592
10367TIP3   OH230977   4.895   6.279   4.310
10367TIP3    H130978   4.824   6.262   4.248
10367TIP3    H230979   4.927   6.193   4.335
10368TIP3   OH230980   4.734   6.476   3.970
10368TIP3    H130981   4.824   6.504   3.990
10368TIP3    H230982   4.680   6.551   3.993
10369TIP3   OH230983   6.591   6.932   4.009
10369TIP3    H130984   6.597   6.837   4.019
10369TIP3    H230985   6.512   6.957   4.057
10370TIP3   OH230986   5.697   6.709   4.140
10370TIP3    H130987   5.686   6.800   4.168
10370TIP3    H230988   5.629   6.662   4.187
10371TIP3   OH230989   5.478   6.801   3.090
10371TIP3    H130990   5.435   6.781   3.006
10371TIP3    H230991   5.439   6.885   3.117
10372TIP3   OH230992   4.912   6.662   3.466
10372TIP3    H130993   4.955   6.653   3.551
10372TIP3    H230994   4.862   6.581   3.457
10373TIP3   OH230995   5.675   6.746   2.711
10373TIP3    H130996   5.724   6.673   2.674
10373TIP3    H230997   5.713   6.759   2.798
10374TIP3   OH230998   5.732   6.783   2.983
10374TIP3    H130999   5.646   6.784   3.025
10374TIP3    H231000   5.791   6.746   3.049
10375TIP3   OH231001   6.497   6.012   4.275
10375TIP3    H131002   6.411   6.032   4.237
10375TIP3    H231003   6.514   5.921   4.251
10376TIP3   OH231004   5.093   6.468   4.273
10376TIP3    H131005   5.143   6.456   4.354
10376TIP3    H231006   5.021   6.406   4.280
10377TIP3   OH231007   5.488   5.269   4.100
10377TIP3    H131008   5.403   5.240   4.068
10377TIP3    H231009   5.469   5.341   4.160
10378TIP3   OH231010   6.004   5.394   4.332
10378TIP3    H131011   6.067   5.346   4.385
10378TIP3    H231012   5.923   5.393   4.384
10379TIP3   OH231013   6.244   5.808   4.230
10379TIP3    H131014   6.209   5.803   4.319
10379TIP3    H231015   6.229   5.898   4.203
10380TIP3   OH231016   5.921   5.877   2.738
10380TIP3    H131017   5.871   5.888   2.658
10380TIP3    H231018   6.003   5.925   2.724
10381TIP3   OH231019   5.628   5.310   3.062
10381TIP3    H131020   5.589   5.319   3.149
10381TIP3    H231021   5.592   5.228   3.028
10382TIP3   OH231022   5.423   5.804   4.105
10382TIP3    H131023   5.375   5.813   4.187
10382TIP3    H231024   5.402   5.884   4.056
10383TIP3   OH231025   5.292   5.683   3.622
10383TIP3    H131026   5.203   5.660   3.647
10383TIP3    H231027   5.301   5.650   3.532
10384TIP3   OH231028   5.770   5.757   3.347
10384TIP3    H131029   5.723   5.830   3.308
10384TIP3    H231030   5.828   5.725   3.278
10385TIP3   OH231031   5.955   6.012   4.414
10385TIP3    H131032   5.932   5.947   4.480
10385TIP3    H231033   6.047   6.033   4.432
10386TIP3   OH231034   5.938   5.772   3.569
10386TIP3    H131035   5.871   5.792   3.503
10386TIP3    H231036   5.987   5.698   3.531
10387TIP3   OH231037   5.260   5.828   4.324
10387TIP3    H131038   5.259   5.896   4.391
10387TIP3    H231039   5.239   5.747   4.372
10388TIP3   OH231040   5.295   5.291   3.040
10388TIP3    H131041   5.285   5.298   3.135
10388TIP3    H231042   5.217   5.335   3.005
10389TIP3   OH231043   4.847   5.329   3.909
10389TIP3    H131044   4.915   5.371   3.960
10389TIP3    H231045   4.882   5.326   3.820
10390TIP3   OH231046   4.739   5.310   3.403
10390TIP3    H131047   4.783   5.346   3.327
10390TIP3    H231048   4.675   5.377   3.428
10391TIP3   OH231049   5.989   6.024   3.999
10391TIP3    H131050   6.013   5.960   3.933
10391TIP3    H231051   5.943   5.973   4.066
10392TIP3   OH231052   5.658   5.467   3.671
10392TIP3    H131053   5.580   5.470   3.726
10392TIP3    H231054   5.731   5.465   3.732
10393TIP3   OH231055   5.052   5.561   3.682
10393TIP3    H131056   4.964   5.565   3.644
10393TIP3    H231057   5.082   5.471   3.664
10394TIP3   OH231058   5.305   5.561   3.375
10394TIP3    H131059   5.399   5.572   3.367
10394TIP3    H231060   5.271   5.578   3.288
10395TIP3   OH231061   6.100   5.566   3.886
10395TIP3    H131062   6.089   5.578   3.980
10395TIP3    H231063   6.031   5.505   3.861
10396TIP3   OH231064   5.198   5.582   3.124
10396TIP3    H131065   5.135   5.533   3.071
10396TIP3    H231066   5.251   5.630   3.061
10397TIP3   OH231067   6.301   7.267   4.097
10397TIP3    H131068   6.296   7.284   4.003
10397TIP3    H231069   6.380   7.313   4.125
10398TIP3   OH231070   5.242   6.375   4.510
10398TIP3    H131071   5.323   6.397   4.557
10398TIP3    H231072   5.173   6.389   4.575
10399TIP3   OH231073   5.708   5.867   3.747
10399TIP3    H131074   5.775   5.814   3.704
10399TIP3    H231075   5.705   5.833   3.837
10400TIP3   OH231076   5.195   5.314   3.661
10400TIP3    H131077   5.167   5.238   3.712
10400TIP3    H231078   5.214   5.279   3.574
10401TIP3   OH231079   5.688   5.785   4.006
10401TIP3    H131080   5.602   5.786   4.049
10401TIP3    H231081   5.750   5.808   4.075
10402TIP3   OH231082   5.410   6.091   3.157
10402TIP3    H131083   5.333   6.040   3.131
10402TIP3    H231084   5.382   6.136   3.237
10403TIP3   OH231085   6.298   6.363   3.760
10403TIP3    H131086   6.333   6.412   3.686
10403TIP3    H231087   6.220   6.319   3.725
10404TIP3   OH231088   5.880   5.416   3.069
10404TIP3    H131089   5.787   5.393   3.064
10404TIP3    H231090   5.881   5.511   3.080
10405TIP3   OH231091   5.825   6.444   4.178
10405TIP3    H131092   5.880   6.434   4.256
10405TIP3    H231093   5.787   6.531   4.187
10406TIP3   OH231094   5.935   5.682   3.132
10406TIP3    H131095   6.030   5.688   3.144
10406TIP3    H231096   5.913   5.760   3.082
10407TIP3   OH231097   5.100   6.109   3.803
10407TIP3    H131098   5.138   6.093   3.717
10407TIP3    H231099   5.169   6.081   3.864
10408TIP3   OH231100   5.564   6.255   3.003
10408TIP3    H131101   5.516   6.338   2.998
10408TIP3    H231102   5.507   6.198   3.055
10409TIP3   OH231103   4.979   6.041   4.441
10409TIP3    H131104   4.979   6.010   4.531
10409TIP3    H231105   4.904   5.997   4.400
10410TIP3   OH231106   5.737   6.186   4.464
10410TIP3    H131107   5.662   6.133   4.436
10410TIP3    H231108   5.814   6.140   4.429
10411TIP3   OH231109   5.968   6.731   4.067
10411TIP3    H131110   5.873   6.719   4.068
10411TIP3    H231111   5.989   6.766   4.153
10412TIP3   OH231112   6.351   5.766   2.944
10412TIP3    H131113   6.294   5.720   2.882
10412TIP3    H231114   6.355   5.856   2.911
10413TIP3   OH231115   6.607   6.656   4.028
10413TIP3    H131116   6.514   6.632   4.027
10413TIP3    H231117   6.642   6.621   3.946
10414TIP3   OH231118   6.096   6.582   2.884
10414TIP3    H131119   6.064   6.512   2.941
10414TIP3    H231120   6.115   6.539   2.801
10415TIP3   OH231121   6.076   6.221   3.657
10415TIP3    H131122   5.988   6.199   3.686
10415TIP3    H231123   6.109   6.139   3.619
10416TIP3   OH231124   5.232   6.459   3.476
10416TIP3    H131125   5.228   6.534   3.416
10416TIP3    H231126   5.144   6.453   3.513
10417TIP3   OH231127   4.789   5.741   3.187
10417TIP3    H131128   4.831   5.824   3.210
10417TIP3    H231129   4.707   5.741   3.238
10418TIP3   OH231130   5.306   6.214   3.374
10418TIP3    H131131   5.292   6.303   3.405
10418TIP3    H231132   5.281   6.158   3.448
10419TIP3   OH231133   5.515   6.780   3.930
10419TIP3    H131134   5.549   6.854   3.880
10419TIP3    H231135   5.590   6.748   3.979
10420TIP3   OH231136   5.148   6.679   3.325
10420TIP3    H131137   5.061   6.686   3.363
10420TIP3    H231138   5.184   6.767   3.330
10421TIP3   OH231139   5.858   6.449   3.903
10421TIP3    H131140   5.847   6.446   3.998
10421TIP3    H231141   5.934   6.393   3.886
10422TIP3   OH231142   5.864   6.324   2.763
10422TIP3    H131143   5.913   6.294   2.839
10422TIP3    H231144   5.780   6.278   2.770
10423TIP3   OH231145   6.120   6.934   3.943
10423TIP3    H131146   6.050   6.873   3.966
10423TIP3    H231147   6.084   6.986   3.871
10424TIP3   OH231148   6.161   6.786   2.570
10424TIP3    H131149   6.161   6.839   2.491
10424TIP3    H231150   6.095   6.828   2.627
10425TIP3   OH231151   5.208   5.579   4.449
10425TIP3    H131152   5.113   5.584   4.451
10425TIP3    H231153   5.231   5.532   4.529
10426TIP3   OH231154   6.036   6.229   2.955
10426TIP3    H131155   6.020   6.179   3.035
10426TIP3    H231156   6.131   6.239   2.951
10427TIP3   OH231157   4.942   6.677   4.090
10427TIP3    H131158   4.996   6.620   4.145
10427TIP3    H231159   4.956   6.764   4.127
10428TIP3   OH231160   5.210   6.284   2.787
10428TIP3    H131161   5.221   6.193   2.761
10428TIP3    H231162   5.197   6.281   2.882
10429TIP3   OH231163   5.150   6.302   3.060
10429TIP3    H131164   5.210   6.278   3.130
10429TIP3    H231165   5.147   6.397   3.062
10430TIP3   OH231166   4.881   5.993   3.269
10430TIP3    H131167   4.817   6.042   3.320
10430TIP3    H231168   4.901   6.050   3.195
10431TIP3   OH231169   6.059   5.612   4.158
10431TIP3    H131170   6.135   5.662   4.187
10431TIP3    H231171   6.050   5.543   4.223
10432TIP3   OH231172   5.938   5.365   3.337
10432TIP3    H131173   5.916   5.384   3.245
10432TIP3    H231174   5.981   5.444   3.368
10433TIP3   OH231175   5.418   6.483   2.993
10433TIP3    H131176   5.334   6.509   3.030
10433TIP3    H231177   5.444   6.558   2.938
10434TIP3   OH231178   5.584   5.566   3.421
10434TIP3    H131179   5.646   5.635   3.395
10434TIP3    H231180   5.609   5.545   3.511
10435TIP3   OH231181   5.889   5.848   4.190
10435TIP3    H131182   5.913   5.896   4.270
10435TIP3    H231183   5.944   5.770   4.192
10436TIP3   OH231184   5.747   5.257   3.507
10436TIP3    H131185   5.724   5.332   3.561
10436TIP3    H231186   5.818   5.288   3.451
10437TIP3   OH231187   5.170   6.574   3.072
10437TIP3    H131188   5.152   6.646   3.012
10437TIP3    H231189   5.161   6.612   3.159
10438TIP3   OH231190   5.261   5.287   3.320
10438TIP3    H131191   5.249   5.378   3.345
10438TIP3    H231192   5.355   5.273   3.325
10439TIP3   OH231193   6.501   5.757   4.144
10439TIP3    H131194   6.414   5.763   4.184
10439TIP3    H231195   6.492   5.688   4.079
10440TIP3   OH231196   6.168   5.961   3.569
10440TIP3    H131197   6.089   5.907   3.582
10440TIP3    H231198   6.233   5.921   3.626
10441TIP3   OH231199   4.907   6.166   3.051
10441TIP3    H131200   4.978   6.229   3.059
10441TIP3    H231201   4.938   6.104   2.984
10442TIP3   OH231202   4.809   5.461   3.184
10442TIP3    H131203   4.823   5.555   3.194
10442TIP3    H231204   4.751   5.454   3.108
10443TIP3   OH231205   6.143   6.930   3.506
10443TIP3    H131206   6.101   6.985   3.440
10443TIP3    H231207   6.237   6.947   3.495
10444TIP3   OH231208   5.223   5.191   4.040
10444TIP3    H131209   5.191   5.160   3.955
10444TIP3    H231210   5.214   5.115   4.098
10445TIP3   OH231211   4.733   6.443   3.441
10445TIP3    H131212   4.691   6.479   3.519
10445TIP3    H231213   4.688   6.485   3.368
10446TIP3   OH231214   4.941   6.980   4.512
10446TIP3    H131215   5.023   6.984   4.561
10446TIP3    H231216   4.926   6.886   4.499
10447TIP3   OH231217   5.405   6.877   4.558
10447TIP3    H131218   5.497   6.851   4.564
10447TIP3    H231219   5.370   6.826   4.486
10448TIP3   OH231220   5.359   6.489   2.675
10448TIP3    H131221   5.313   6.418   2.720
10448TIP3    H231222   5.434   6.446   2.634
10449TIP3   OH231223   6.022   6.826   4.319
10449TIP3    H131224   6.040   6.756   4.382
10449TIP3    H231225   6.095   6.886   4.328
10450TIP3   OH231226   5.801   6.533   2.594
10450TIP3    H131227   5.841   6.469   2.654
10450TIP3    H231228   5.859   6.532   2.517
10451TIP3   OH231229   5.037   6.382   4.700
10451TIP3    H131230   5.053   6.289   4.714
10451TIP3    H231231   4.950   6.386   4.659
10452TIP3   OH231232   5.027   5.977   2.893
10452TIP3    H131233   5.077   5.953   2.971
10452TIP3    H231234   5.093   5.992   2.826
10453TIP3   OH231235   5.663   6.461   4.479
10453TIP3    H131236   5.619   6.481   4.397
10453TIP3    H231237   5.702   6.375   4.464
10454TIP3   OH231238   5.617   6.198   2.740
10454TIP3    H131239   5.590   6.209   2.832
10454TIP3    H231240   5.591   6.108   2.719
10455TIP3   OH231241   6.137   6.507   4.099
10455TIP3    H131242   6.215   6.533   4.049
10455TIP3    H231243   6.074   6.576   4.082
10456TIP3   OH231244   5.149   6.126   4.714
10456TIP3    H131245   5.222   6.113   4.653
10456TIP3    H231246   5.191   6.146   4.798
10457TIP3   OH231247   5.197   5.920   3.107
10457TIP3    H131248   5.178   5.890   3.196
10457TIP3    H231249   5.248   5.849   3.068
10458TIP3   OH231250   5.520   6.025   4.381
10458TIP3    H131251   5.431   6.058   4.390
10458TIP3    H231252   5.547   6.052   4.293
10459TIP3   OH231253   5.345   5.740   2.955
10459TIP3    H131254   5.315   5.743   2.864
10459TIP3    H231255   5.440   5.751   2.949
10460TIP3   OH231256   6.016   6.381   4.438
10460TIP3    H131257   6.087   6.344   4.385
10460TIP3    H231258   6.013   6.326   4.516
10461TIP3   OH231259   6.136   6.017   2.631
10461TIP3    H131260   6.121   5.980   2.544
10461TIP3    H231261   6.115   6.110   2.621
10462TIP3   OH231262   5.612   5.784   4.462
10462TIP3    H131263   5.585   5.724   4.392
10462TIP3    H231264   5.586   5.870   4.432
10463TIP3   OH231265   5.629   6.117   4.151
10463TIP3    H131266   5.717   6.147   4.131
10463TIP3    H231267   5.572   6.169   4.095
10464TIP3   OH231268   6.215   6.070   4.504
10464TIP3    H131269   6.241   6.009   4.572
10464TIP3    H231270   6.295   6.118   4.483
10465TIP3   OH231271   6.253   6.325   4.264
10465TIP3    H131272   6.202   6.387   4.212
10465TIP3    H231273   6.343   6.337   4.233
10466TIP3   OH231274   5.514   5.856   4.720
10466TIP3    H131275   5.437   5.803   4.741
10466TIP3    H231276   5.531   5.837   4.628
10467TIP3   OH231277   5.869   5.799   4.573
10467TIP3    H131278   5.849   5.793   4.667
10467TIP3    H231279   5.784   5.788   4.530
10468TIP3   OH231280   6.127   5.761   4.473
10468TIP3    H131281   6.038   5.763   4.510
10468TIP3    H231282   6.185   5.766   4.549
10469TIP3   OH231283   5.326   5.656   4.787
10469TIP3    H131284   5.338   5.568   4.752
10469TIP3    H231285   5.363   5.652   4.875
10470TIP3   OH231286   5.845   5.492   4.782
10470TIP3    H131287   5.853   5.482   4.687
10470TIP3    H231288   5.811   5.581   4.794
10471TIP3   OH231289   5.172   6.785   2.894
10471TIP3    H131290   5.261   6.764   2.866
10471TIP3    H231291   5.132   6.830   2.819
10472TIP3   OH231292   4.633   6.171   3.063
10472TIP3    H131293   4.728   6.181   3.062
10472TIP3    H231294   4.617   6.085   3.024
10473TIP3   OH231295   4.543   6.752   3.529
10473TIP3    H131296   4.479   6.700   3.480
10473TIP3    H231297   4.584   6.689   3.589
10474TIP3   OH231298   4.683   6.579   3.696
10474TIP3    H131299   4.673   6.510   3.761
10474TIP3    H231300   4.735   6.646   3.739
10475TIP3   OH231301   6.413   6.990   3.507
10475TIP3    H131302   6.429   7.014   3.598
10475TIP3    H231303   6.457   7.057   3.455
10476TIP3   OH231304   6.428   7.018   3.786
10476TIP3    H131305   6.384   6.933   3.784
10476TIP3    H231306   6.499   7.007   3.848
10477TIP3   OH231307   6.498   6.720   4.356
10477TIP3    H131308   6.425   6.730   4.416
10477TIP3    H231309   6.544   6.804   4.360
10478TIP3   OH231310   6.317   6.232   2.961
10478TIP3    H131311   6.370   6.306   2.932
10478TIP3    H231312   6.363   6.196   3.036
10479TIP3   OH231313   6.449   6.091   3.164
10479TIP3    H131314   6.380   6.057   3.222
10479TIP3    H231315   6.513   6.130   3.223
10480TIP3   OH231316   6.490   6.500   3.605
10480TIP3    H131317   6.539   6.433   3.557
10480TIP3    H231318   6.491   6.577   3.547
10481TIP3   OH231319   6.292   6.775   3.795
10481TIP3    H131320   6.226   6.822   3.845
10481TIP3    H231321   6.244   6.736   3.722
10482TIP3   OH231322   6.347   6.005   2.808
10482TIP3    H131323   6.275   6.005   2.745
10482TIP3    H231324   6.333   6.084   2.860
10483TIP3   OH231325   6.204   5.650   2.744
10483TIP3    H131326   6.152   5.690   2.674
10483TIP3    H231327   6.194   5.556   2.732
10484TIP3   OH231328   6.241   5.957   3.301
10484TIP3    H131329   6.243   5.862   3.286
10484TIP3    H231330   6.220   5.966   3.394
10485TIP3   OH231331   4.855   6.009   4.082
10485TIP3    H131332   4.845   5.981   3.991
10485TIP3    H231333   4.949   6.007   4.098
10486TIP3   OH231334   6.508   6.366   4.164
10486TIP3    H131335   6.579   6.303   4.150
10486TIP3    H231336   6.511   6.424   4.088
10487TIP3   OH231337   6.694   6.163   4.154
10487TIP3    H131338   6.622   6.112   4.192
10487TIP3    H231339   6.773   6.122   4.190
10488TIP3   OH231340   6.166   5.377   2.723
10488TIP3    H131341   6.225   5.356   2.794
10488TIP3    H231342   6.080   5.346   2.753
10489TIP3   OH231343   6.228   5.678   3.188
10489TIP3    H131344   6.274   5.595   3.202
10489TIP3    H231345   6.269   5.716   3.110
10490TIP3   OH231346   6.383   5.836   3.711
10490TIP3    H131347   6.464   5.854   3.663
10490TIP3    H231348   6.395   5.883   3.794
10491TIP3   OH231349   6.449   6.002   3.927
10491TIP3    H131350   6.382   6.025   3.991
10491TIP3    H231351   6.477   6.086   3.891
10492TIP3   OH231352   5.054   5.671   4.730
10492TIP3    H131353   5.148   5.675   4.751
10492TIP3    H231354   5.019   5.603   4.787
10493TIP3   OH231355   6.347   5.429   3.241
10493TIP3    H131356   6.392   5.415   3.324
10493TIP3    H231357   6.283   5.358   3.236
10494TIP3   OH231358   5.060   5.414   4.070
10494TIP3    H131359   5.111   5.333   4.070
10494TIP3    H231360   5.124   5.483   4.056
10495TIP3   OH231361   4.830   5.681   4.122
10495TIP3    H131362   4.887   5.670   4.047
10495TIP3    H231363   4.849   5.770   4.153
10496TIP3   OH231364   6.393   5.335   2.878
10496TIP3    H131365   6.444   5.275   2.824
10496TIP3    H231366   6.444   5.416   2.878
10497TIP3   OH231367   4.826   5.177   3.626
10497TIP3    H131368   4.741   5.168   3.670
10497TIP3    H231369   4.808   5.232   3.550
10498TIP3   OH231370   5.977   6.904   3.148
10498TIP3    H131371   6.034   6.894   3.072
10498TIP3    H231372   6.016   6.977   3.198
10499TIP3   OH231373   4.958   5.178   4.438
10499TIP3    H131374   4.939   5.213   4.525
10499TIP3    H231375   4.936   5.250   4.379
10500TIP3   OH231376   5.069   6.698   4.524
10500TIP3    H131377   4.976   6.678   4.517
10500TIP3    H231378   5.089   6.691   4.618
10501TIP3   OH231379   5.287   6.746   4.079
10501TIP3    H131380   5.237   6.822   4.048
10501TIP3    H231381   5.371   6.754   4.035
10502TIP3   OH231382   5.678   6.976   4.217
10502TIP3    H131383   5.716   6.969   4.305
10502TIP3    H231384   5.740   7.030   4.168
10503TIP3   OH231385   5.869   7.132   4.091
10503TIP3    H131386   5.929   7.081   4.037
10503TIP3    H231387   5.925   7.188   4.144
10504TIP3   OH231388   4.945   6.977   4.128
10504TIP3    H131389   4.854   6.994   4.104
10504TIP3    H231390   4.967   7.046   4.192
10505TIP3   OH231391   5.177   6.977   3.977
10505TIP3    H131392   5.093   6.980   4.024
10505TIP3    H231393   5.154   7.000   3.887
10506TIP3   OH231394   5.586   6.994   3.770
10506TIP3    H131395   5.515   7.004   3.707
10506TIP3    H231396   5.596   7.081   3.808
10507TIP3   OH231397   5.846   6.923   3.823
10507TIP3    H131398   5.756   6.946   3.801
10507TIP3    H231399   5.899   6.986   3.774
10508TIP3   OH231400   6.047   7.081   3.715
10508TIP3    H131401   6.057   7.170   3.681
10508TIP3    H231402   6.076   7.025   3.644
10509TIP3   OH231403   4.855   6.758   3.839
10509TIP3    H131404   4.880   6.736   3.928
10509TIP3    H231405   4.927   6.726   3.784
10510TIP3   OH231406   5.060   6.645   3.700
10510TIP3    H131407   5.071   6.560   3.742
10510TIP3    H231408   5.146   6.687   3.705
10511TIP3   OH231409   5.328   6.730   3.728
10511TIP3    H131410   5.348   6.638   3.712
10511TIP3    H231411   5.383   6.754   3.802
10512TIP3   OH231412   5.889   5.384   3.813
10512TIP3    H131413   5.845   5.311   3.857
10512TIP3    H231414   5.956   5.343   3.759
10513TIP3   OH231415   6.387   5.291   3.699
10513TIP3    H131416   6.424   5.342   3.627
10513TIP3    H231417   6.295   5.318   3.702
10514TIP3   OH231418   6.504   5.375   3.463
10514TIP3    H131419   6.573   5.315   3.436
10514TIP3    H231420   6.542   5.462   3.452
10515TIP3   OH231421   5.120   5.088   3.803
10515TIP3    H131422   5.026   5.067   3.805
10515TIP3    H231423   5.163   5.003   3.797
10516TIP3   OH231424   4.912   4.969   3.435
10516TIP3    H131425   4.952   5.020   3.365
10516TIP3    H231426   4.895   5.033   3.504
10517TIP3   OH231427   5.596   5.114   3.706
10517TIP3    H131428   5.643   5.158   3.634
10517TIP3    H231429   5.636   5.150   3.786
10518TIP3   OH231430   6.097   5.267   3.673
10518TIP3    H131431   6.112   5.232   3.585
10518TIP3    H231432   6.106   5.192   3.731
10519TIP3   OH231433   6.160   5.218   3.252
10519TIP3    H131434   6.080   5.265   3.277
10519TIP3    H231435   6.149   5.131   3.290
10520TIP3   OH231436   4.613   6.561   3.222
10520TIP3    H131437   4.527   6.531   3.193
10520TIP3    H231438   4.619   6.651   3.191
10521TIP3   OH231439   5.053   5.115   3.225
10521TIP3    H131440   5.100   5.059   3.164
10521TIP3    H231441   5.120   5.172   3.263
10522TIP3   OH231442   5.536   5.315   3.324
10522TIP3    H131443   5.597   5.263   3.378
10522TIP3    H231444   5.551   5.405   3.353
10523TIP3   OH231445   5.425   6.709   2.822
10523TIP3    H131446   5.507   6.739   2.781
10523TIP3    H231447   5.394   6.640   2.764
10524TIP3   OH231448   6.130   6.851   2.923
10524TIP3    H131449   6.122   6.756   2.914
10524TIP3    H231450   6.085   6.885   2.846
10525TIP3   OH231451   5.361   5.397   4.701
10525TIP3    H131452   5.312   5.316   4.712
10525TIP3    H231453   5.446   5.380   4.743
10526TIP3   OH231454   5.604   5.356   4.836
10526TIP3    H131455   5.693   5.391   4.834
10526TIP3    H231456   5.596   5.317   4.923
10527TIP3   OH231457   4.736   6.556   2.878
10527TIP3    H131458   4.737   6.565   2.973
10527TIP3    H231459   4.817   6.508   2.858
10528TIP3   OH231460   6.340   6.994   4.106
10528TIP3    H131461   6.266   6.963   4.053
10528TIP3    H231462   6.327   7.089   4.111
10529TIP3   OH231463   7.622   6.374   2.850
10529TIP3    H131464   7.595   6.461   2.822
10529TIP3    H231465   7.551   6.316   2.822
10530TIP3   OH231466   7.620   6.374   3.271
10530TIP3    H131467   7.674   6.356   3.349
10530TIP3    H231468   7.574   6.292   3.255
10531TIP3   OH231469   6.913   6.231   3.610
10531TIP3    H131470   6.952   6.182   3.682
10531TIP3    H231471   6.988   6.257   3.556
10532TIP3   OH231472   7.891   6.683   2.947
10532TIP3    H131473   7.877   6.616   3.014
10532TIP3    H231474   7.909   6.763   2.996
10533TIP3   OH231475   6.913   6.655   3.287
10533TIP3    H131476   6.893   6.562   3.299
10533TIP3    H231477   7.008   6.659   3.284
10534TIP3   OH231478   6.590   5.861   3.080
10534TIP3    H131479   6.554   5.946   3.106
10534TIP3    H231480   6.515   5.815   3.042
10535TIP3   OH231481   6.675   6.182   3.305
10535TIP3    H131482   6.726   6.105   3.332
10535TIP3    H231483   6.741   6.248   3.284
10536TIP3   OH231484   7.538   7.104   2.956
10536TIP3    H131485   7.570   7.042   2.891
10536TIP3    H231486   7.551   7.059   3.040
10537TIP3   OH231487   7.428   6.593   3.272
10537TIP3    H131488   7.475   6.514   3.246
10537TIP3    H231489   7.496   6.652   3.304
10538TIP3   OH231490   8.462   5.912   3.296
10538TIP3    H131491   8.472   5.999   3.335
10538TIP3    H231492   8.494   5.923   3.207
10539TIP3   OH231493   7.828   6.080   3.308
10539TIP3    H131494   7.859   5.993   3.336
10539TIP3    H231495   7.793   6.066   3.220
10540TIP3   OH231496   7.188   5.737   3.267
10540TIP3    H131497   7.166   5.811   3.211
10540TIP3    H231498   7.131   5.666   3.236
10541TIP3   OH231499   7.886   5.844   2.908
10541TIP3    H131500   7.951   5.838   2.979
10541TIP3    H231501   7.936   5.878   2.834
10542TIP3   OH231502   6.814   5.960   3.399
10542TIP3    H131503   6.898   5.944   3.442
10542TIP3    H231504   6.817   5.907   3.320
10543TIP3   OH231505   7.230   6.156   3.215
10543TIP3    H131506   7.324   6.141   3.222
10543TIP3    H231507   7.195   6.074   3.183
10544TIP3   OH231508   8.502   6.136   3.464
10544TIP3    H131509   8.418   6.179   3.448
10544TIP3    H231510   8.535   6.179   3.543
10545TIP3   OH231511   7.165   5.754   3.730
10545TIP3    H131512   7.117   5.789   3.655
10545TIP3    H231513   7.107   5.770   3.805
10546TIP3   OH231514   7.527   6.591   2.708
10546TIP3    H131515   7.486   6.563   2.626
10546TIP3    H231516   7.475   6.667   2.736
10547TIP3   OH231517   7.256   6.522   3.477
10547TIP3    H131518   7.203   6.595   3.512
10547TIP3    H231519   7.306   6.560   3.406
10548TIP3   OH231520   8.042   5.863   3.133
10548TIP3    H131521   7.997   5.843   3.215
10548TIP3    H231522   8.097   5.939   3.154
10549TIP3   OH231523   7.064   5.854   3.489
10549TIP3    H131524   7.119   5.929   3.512
10549TIP3    H231525   7.111   5.810   3.418
10550TIP3   OH231526   7.105   6.726   3.586
10550TIP3    H131527   7.092   6.817   3.559
10550TIP3    H231528   7.028   6.707   3.640
10551TIP3   OH231529   6.481   6.429   2.844
10551TIP3    H131530   6.444   6.449   2.758
10551TIP3    H231531   6.502   6.515   2.882
10552TIP3   OH231532   7.919   6.932   3.086
10552TIP3    H131533   7.831   6.925   3.123
10552TIP3    H231534   7.917   7.013   3.034
10553TIP3   OH231535   8.269   5.784   3.459
10553TIP3    H131536   8.183   5.806   3.424
10553TIP3    H231537   8.331   5.817   3.393
10554TIP3   OH231538   7.509   5.444   3.457
10554TIP3    H131539   7.498   5.352   3.484
10554TIP3    H231540   7.433   5.489   3.495
10555TIP3   OH231541   7.630   6.964   2.734
10555TIP3    H131542   7.685   6.887   2.723
10555TIP3    H231543   7.684   7.037   2.707
10556TIP3   OH231544   7.771   6.734   2.703
10556TIP3    H131545   7.702   6.669   2.698
10556TIP3    H231546   7.823   6.709   2.780
10557TIP3   OH231547   8.148   6.819   3.426
10557TIP3    H131548   8.132   6.744   3.368
10557TIP3    H231549   8.134   6.895   3.370
10558TIP3   OH231550   7.445   6.218   2.700
10558TIP3    H131551   7.363   6.262   2.681
10558TIP3    H231552   7.492   6.217   2.616
10559TIP3   OH231553   7.420   6.029   2.384
10559TIP3    H131554   7.485   6.078   2.434
10559TIP3    H231555   7.470   5.963   2.336
10560TIP3   OH231556   8.328   6.480   3.303
10560TIP3    H131557   8.245   6.526   3.300
10560TIP3    H231558   8.364   6.489   3.214
10561TIP3   OH231559   7.808   6.309   2.660
10561TIP3    H131560   7.754   6.335   2.735
10561TIP3    H231561   7.892   6.286   2.698
10562TIP3   OH231562   8.033   6.335   3.610
10562TIP3    H131563   8.028   6.420   3.653
10562TIP3    H231564   7.952   6.330   3.558
10563TIP3   OH231565   7.032   6.287   3.060
10563TIP3    H131566   6.996   6.226   2.996
10563TIP3    H231567   7.106   6.240   3.099
10564TIP3   OH231568   7.178   6.710   3.202
10564TIP3    H131569   7.154   6.697   3.110
10564TIP3    H231570   7.265   6.672   3.209
10565TIP3   OH231571   7.127   6.284   3.437
10565TIP3    H131572   7.166   6.248   3.358
10565TIP3    H231573   7.173   6.367   3.451
10566TIP3   OH231574   7.679   6.925   3.214
10566TIP3    H131575   7.665   7.005   3.265
10566TIP3    H231576   7.663   6.854   3.276
10567TIP3   OH231577   7.301   6.814   3.763
10567TIP3    H131578   7.240   6.871   3.809
10567TIP3    H231579   7.247   6.765   3.702
10568TIP3   OH231580   7.636   6.170   2.494
10568TIP3    H131581   7.696   6.227   2.542
10568TIP3    H231582   7.666   6.175   2.403
10569TIP3   OH231583   7.054   6.359   3.913
10569TIP3    H131584   7.061   6.453   3.929
10569TIP3    H231585   6.960   6.342   3.906
10570TIP3   OH231586   7.390   6.828   2.752
10570TIP3    H131587   7.469   6.882   2.754
10570TIP3    H231588   7.325   6.881   2.705
10571TIP3   OH231589   7.095   6.975   3.848
10571TIP3    H131590   7.070   6.990   3.757
10571TIP3    H231591   7.011   6.963   3.894
10572TIP3   OH231592   8.145   5.398   2.557
10572TIP3    H131593   8.069   5.421   2.610
10572TIP3    H231594   8.155   5.472   2.497
10573TIP3   OH231595   6.904   6.128   2.862
10573TIP3    H131596   6.828   6.179   2.833
10573TIP3    H231597   6.870   6.041   2.880
10574TIP3   OH231598   7.967   6.772   2.110
10574TIP3    H131599   7.962   6.866   2.092
10574TIP3    H231600   8.057   6.748   2.087
10575TIP3   OH231601   6.692   6.536   3.798
10575TIP3    H131602   6.621   6.519   3.736
10575TIP3    H231603   6.724   6.449   3.821
10576TIP3   OH231604   6.530   6.740   3.461
10576TIP3    H131605   6.618   6.770   3.485
10576TIP3    H231606   6.473   6.814   3.480
10577TIP3   OH231607   8.365   7.174   3.521
10577TIP3    H131608   8.370   7.078   3.528
10577TIP3    H231609   8.284   7.197   3.567
10578TIP3   OH231610   7.488   6.965   3.628
10578TIP3    H131611   7.480   7.055   3.660
10578TIP3    H231612   7.420   6.917   3.676
10579TIP3   OH231613   7.259   7.065   2.590
10579TIP3    H131614   7.178   7.042   2.545
10579TIP3    H231615   7.241   7.151   2.629
10580TIP3   OH231616   6.708   6.914   2.950
10580TIP3    H131617   6.748   6.907   3.037
10580TIP3    H231618   6.655   6.834   2.942
10581TIP3   OH231619   7.467   7.001   2.213
10581TIP3    H131620   7.518   6.928   2.178
10581TIP3    H231621   7.503   7.015   2.301
10582TIP3   OH231622   7.511   7.055   2.481
10582TIP3    H131623   7.424   7.051   2.520
10582TIP3    H231624   7.569   7.019   2.548
10583TIP3   OH231625   8.273   6.297   3.772
10583TIP3    H131626   8.190   6.309   3.725
10583TIP3    H231627   8.292   6.204   3.763
10584TIP3   OH231628   6.893   6.722   3.762
10584TIP3    H131629   6.943   6.709   3.843
10584TIP3    H231630   6.819   6.661   3.770
10585TIP3   OH231631   7.274   5.535   3.591
10585TIP3    H131632   7.194   5.502   3.550
10585TIP3    H231633   7.247   5.613   3.638
10586TIP3   OH231634   7.806   5.652   3.783
10586TIP3    H131635   7.875   5.629   3.845
10586TIP3    H231636   7.725   5.644   3.834
10587TIP3   OH231637   8.032   6.065   3.692
10587TIP3    H131638   7.995   6.061   3.780
10587TIP3    H231639   8.019   6.156   3.665
10588TIP3   OH231640   7.716   6.159   2.235
10588TIP3    H131641   7.666   6.157   2.153
10588TIP3    H231642   7.798   6.202   2.212
10589TIP3   OH231643   7.417   5.575   2.547
10589TIP3    H131644   7.382   5.580   2.636
10589TIP3    H231645   7.384   5.491   2.514
10590TIP3   OH231646   7.212   6.066   3.588
10590TIP3    H131647   7.166   6.073   3.671
10590TIP3    H231648   7.190   6.147   3.542
10591TIP3   OH231649   7.089   5.941   3.113
10591TIP3    H131650   6.999   5.918   3.137
10591TIP3    H231651   7.098   5.909   3.023
10592TIP3   OH231652   7.568   6.011   2.833
10592TIP3    H131653   7.521   6.085   2.794
10592TIP3    H231654   7.627   5.980   2.764
10593TIP3   OH231655   7.757   6.275   3.907
10593TIP3    H131656   7.733   6.209   3.972
10593TIP3    H231657   7.848   6.295   3.926
10594TIP3   OH231658   7.737   6.029   3.056
10594TIP3    H131659   7.669   6.050   2.992
10594TIP3    H231660   7.785   5.956   3.016
10595TIP3   OH231661   7.049   6.083   3.807
10595TIP3    H131662   7.052   6.151   3.874
10595TIP3    H231663   7.023   6.004   3.855
10596TIP3   OH231664   7.078   5.540   2.523
10596TIP3    H131665   7.073   5.550   2.618
10596TIP3    H231666   7.005   5.593   2.489
10597TIP3   OH231667   6.636   5.597   3.387
10597TIP3    H131668   6.709   5.636   3.436
10597TIP3    H231669   6.670   5.584   3.299
10598TIP3   OH231670   6.540   5.573   2.875
10598TIP3    H131671   6.583   5.606   2.797
10598TIP3    H231672   6.478   5.642   2.900
10599TIP3   OH231673   7.787   6.282   3.483
10599TIP3    H131674   7.808   6.215   3.418
10599TIP3    H231675   7.738   6.235   3.551
10600TIP3   OH231676   7.456   5.725   3.158
10600TIP3    H131677   7.377   5.726   3.213
10600TIP3    H231678   7.528   5.719   3.221
10601TIP3   OH231679   6.848   5.816   3.168
10601TIP3    H131680   6.761   5.821   3.130
10601TIP3    H231681   6.878   5.727   3.151
10602TIP3   OH231682   7.107   5.818   2.869
10602TIP3    H131683   7.202   5.828   2.862
10602TIP3    H231684   7.074   5.839   2.781
10603TIP3   OH231685   7.894   5.818   3.368
10603TIP3    H131686   7.874   5.836   3.460
10603TIP3    H231687   7.826   5.756   3.340
10604TIP3   OH231688   7.009   5.845   2.617
10604TIP3    H131689   6.945   5.797   2.564
10604TIP3    H231690   7.062   5.894   2.554
10605TIP3   OH231691   8.108   7.520   3.580
10605TIP3    H131692   8.101   7.538   3.486
10605TIP3    H231693   8.185   7.570   3.608
10606TIP3   OH231694   7.044   6.629   3.996
10606TIP3    H131695   7.124   6.650   4.044
10606TIP3    H231696   6.973   6.643   4.060
10607TIP3   OH231697   7.503   6.103   3.267
10607TIP3    H131698   7.570   6.056   3.218
10607TIP3    H231699   7.501   6.061   3.353
10608TIP3   OH231700   6.991   5.569   3.147
10608TIP3    H131701   6.964   5.491   3.195
10608TIP3    H231702   7.010   5.536   3.059
10609TIP3   OH231703   7.475   6.001   3.531
10609TIP3    H131704   7.388   6.035   3.553
10609TIP3    H231705   7.536   6.056   3.582
10610TIP3   OH231706   7.207   6.352   2.645
10610TIP3    H131707   7.132   6.300   2.618
10610TIP3    H231708   7.178   6.396   2.725
10611TIP3   OH231709   8.096   6.616   3.247
10611TIP3    H131710   8.134   6.663   3.174
10611TIP3    H231711   8.018   6.573   3.211
10612TIP3   OH231712   7.673   5.670   2.562
10612TIP3    H131713   7.580   5.652   2.551
10612TIP3    H231714   7.679   5.765   2.566
10613TIP3   OH231715   7.618   6.696   3.664
10613TIP3    H131716   7.668   6.686   3.745
10613TIP3    H231717   7.574   6.781   3.673
10614TIP3   OH231718   7.734   5.938   2.619
10614TIP3    H131719   7.829   5.942   2.627
10614TIP3    H231720   7.711   6.014   2.566
10615TIP3   OH231721   6.896   6.364   3.287
10615TIP3    H131722   6.935   6.348   3.201
10615TIP3    H231723   6.963   6.337   3.350
10616TIP3   OH231724   7.361   6.517   2.492
10616TIP3    H131725   7.315   6.601   2.488
10616TIP3    H231726   7.303   6.461   2.545
10617TIP3   OH231727   6.781   6.295   3.923
10617TIP3    H131728   6.778   6.266   4.015
10617TIP3    H231729   6.704   6.256   3.883
10618TIP3   OH231730   7.528   6.440   3.950
10618TIP3    H131731   7.455   6.383   3.923
10618TIP3    H231732   7.606   6.396   3.918
10619TIP3   OH231733   7.756   6.983   3.551
10619TIP3    H131734   7.661   6.972   3.553
10619TIP3    H231735   7.778   7.020   3.636
10620TIP3   OH231736   8.142   6.030   2.437
10620TIP3    H131737   8.084   5.985   2.375
10620TIP3    H231738   8.149   6.119   2.401
10621TIP3   OH231739   8.392   6.891   3.522
10621TIP3    H131740   8.298   6.877   3.505
10621TIP3    H231741   8.434   6.869   3.439
10622TIP3   OH231742   7.882   6.842   2.372
10622TIP3    H131743   7.857   6.770   2.430
10622TIP3    H231744   7.902   6.799   2.289
10623TIP3   OH231745   7.871   6.477   3.144
10623TIP3    H131746   7.781   6.455   3.169
10623TIP3    H231747   7.905   6.396   3.104
10624TIP3   OH231748   7.024   6.716   2.965
10624TIP3    H131749   7.016   6.791   2.905
10624TIP3    H231750   6.941   6.716   3.013
10625TIP3   OH231751   6.592   5.995   2.680
10625TIP3    H131752   6.632   6.079   2.701
10625TIP3    H231753   6.509   5.996   2.727
10626TIP3   OH231754   7.096   6.473   2.860
10626TIP3    H131755   7.081   6.561   2.894
10626TIP3    H231756   7.075   6.415   2.934
10627TIP3   OH231757   7.310   7.037   3.417
10627TIP3    H131758   7.345   7.111   3.367
10627TIP3    H231759   7.384   7.006   3.469
10628TIP3   OH231760   6.943   6.936   2.810
10628TIP3    H131761   6.855   6.940   2.849
10628TIP3    H231762   6.978   7.024   2.820
10629TIP3   OH231763   7.656   6.705   3.389
10629TIP3    H131764   7.643   6.701   3.484
10629TIP3    H231765   7.734   6.651   3.373
10630TIP3   OH231766   7.661   6.572   2.256
10630TIP3    H131767   7.711   6.547   2.333
10630TIP3    H231768   7.578   6.523   2.264
10631TIP3   OH231769   7.913   7.195   3.436
10631TIP3    H131770   7.839   7.135   3.449
10631TIP3    H231771   7.886   7.249   3.362
10632TIP3   OH231772   7.974   7.045   2.089
10632TIP3    H131773   8.029   7.118   2.060
10632TIP3    H231774   7.892   7.086   2.117
10633TIP3   OH231775   6.979   5.838   3.933
10633TIP3    H131776   6.884   5.846   3.942
10633TIP3    H231777   7.007   5.794   4.013
10634TIP3   OH231778   7.830   6.497   2.456
10634TIP3    H131779   7.815   6.441   2.532
10634TIP3    H231780   7.925   6.503   2.449
10635TIP3   OH231781   6.736   6.934   3.574
10635TIP3    H131782   6.792   6.881   3.630
10635TIP3    H231783   6.747   7.023   3.607
10636TIP3   OH231784   7.006   6.538   2.280
10636TIP3    H131785   7.016   6.446   2.253
10636TIP3    H231786   6.993   6.533   2.375
10637TIP3   OH231787   6.947   6.566   2.551
10637TIP3    H131788   7.002   6.543   2.627
10637TIP3    H231789   6.946   6.662   2.551
10638TIP3   OH231790   6.678   6.251   2.756
10638TIP3    H131791   6.613   6.300   2.807
10638TIP3    H231792   6.698   6.308   2.682
10639TIP3   OH231793   7.837   5.880   3.630
10639TIP3    H131794   7.916   5.925   3.659
10639TIP3    H231795   7.830   5.804   3.687
10640TIP3   OH231796   7.736   5.624   2.827
10640TIP3    H131797   7.713   5.641   2.735
10640TIP3    H231798   7.780   5.704   2.856
10641TIP3   OH231799   7.222   6.751   2.480
10641TIP3    H131800   7.135   6.773   2.514
10641TIP3    H231801   7.243   6.822   2.419
10642TIP3   OH231802   7.384   5.821   2.907
10642TIP3    H131803   7.445   5.889   2.880
10642TIP3    H231804   7.409   5.801   2.997
10643TIP3   OH231805   7.681   6.119   3.679
10643TIP3    H131806   7.706   6.162   3.760
10643TIP3    H231807   7.731   6.037   3.678
10644TIP3   OH231808   7.545   5.516   2.994
10644TIP3    H131809   7.521   5.593   3.046
10644TIP3    H231810   7.617   5.547   2.938
10645TIP3   OH231811   6.974   6.842   2.556
10645TIP3    H131812   6.949   6.917   2.502
10645TIP3    H231813   6.960   6.872   2.646
10646TIP3   OH231814   7.057   5.548   2.803
10646TIP3    H131815   7.046   5.639   2.830
10646TIP3    H231816   7.151   5.532   2.809
10647TIP3   OH231817   8.301   6.033   3.678
10647TIP3    H131818   8.206   6.026   3.683
10647TIP3    H231819   8.322   6.010   3.588
10648TIP3   OH231820   7.962   6.218   3.056
10648TIP3    H131821   7.884   6.162   3.065
10648TIP3    H231822   8.027   6.177   3.113
10649TIP3   OH231823   6.706   6.425   2.539
10649TIP3    H131824   6.777   6.489   2.548
10649TIP3    H231825   6.737   6.363   2.473
10650TIP3   OH231826   6.605   5.717   2.641
10650TIP3    H131827   6.621   5.809   2.664
10650TIP3    H231828   6.525   5.719   2.588
10651TIP3   OH231829   7.936   7.195   2.986
10651TIP3    H131830   7.898   7.253   2.919
10651TIP3    H231831   8.031   7.207   2.977
10652TIP3   OH231832   7.018   5.452   3.517
10652TIP3    H131833   6.989   5.421   3.431
10652TIP3    H231834   7.002   5.378   3.576
10653TIP3   OH231835   6.524   6.699   2.925
10653TIP3    H131836   6.481   6.735   3.003
10653TIP3    H231837   6.480   6.740   2.851
10654TIP3   OH231838   6.737   7.234   3.995
10654TIP3    H131839   6.819   7.238   4.043
10654TIP3    H231840   6.720   7.141   3.983
10655TIP3   OH231841   7.201   7.134   4.047
10655TIP3    H131842   7.295   7.116   4.050
10655TIP3    H231843   7.169   7.081   3.974
10656TIP3   OH231844   7.154   6.737   2.163
10656TIP3    H131845   7.108   6.667   2.210
10656TIP3    H231846   7.230   6.694   2.125
10657TIP3   OH231847   7.836   7.077   3.796
10657TIP3    H131848   7.842   7.010   3.864
10657TIP3    H231849   7.927   7.103   3.780
10658TIP3   OH231850   7.594   6.786   2.104
10658TIP3    H131851   7.630   6.720   2.162
10658TIP3    H231852   7.655   6.790   2.030
10659TIP3   OH231853   6.836   6.643   4.184
10659TIP3    H131854   6.854   6.550   4.196
10659TIP3    H231855   6.749   6.646   4.144
10660TIP3   OH231856   6.825   6.235   2.382
10660TIP3    H131857   6.876   6.211   2.460
10660TIP3    H231858   6.890   6.248   2.314
10661TIP3   OH231859   7.464   6.720   3.965
10661TIP3    H131860   7.414   6.740   3.885
10661TIP3    H231861   7.497   6.632   3.951
10662TIP3   OH231862   7.412   6.448   2.232
10662TIP3    H131863   7.385   6.461   2.323
10662TIP3    H231864   7.387   6.358   2.211
10663TIP3   OH231865   7.930   6.764   3.586
10663TIP3    H131866   8.004   6.791   3.532
10663TIP3    H231867   7.863   6.831   3.568
10664TIP3   OH231868   6.944   6.389   4.196
10664TIP3    H131869   7.019   6.361   4.143
10664TIP3    H231870   6.981   6.402   4.284
10665TIP3   OH231871   6.996   6.178   2.594
10665TIP3    H131872   6.977   6.147   2.683
10665TIP3    H231873   7.049   6.108   2.555
10666TIP3   OH231874   7.320   6.268   3.859
10666TIP3    H131875   7.232   6.303   3.870
10666TIP3    H231876   7.347   6.298   3.771
10667TIP3   OH231877   7.150   6.001   2.443
10667TIP3    H131878   7.118   6.004   2.353
10667TIP3    H231879   7.245   6.008   2.436
10668TIP3   OH231880   7.809   6.632   3.926
10668TIP3    H131881   7.878   6.592   3.872
10668TIP3    H231882   7.806   6.577   4.004
10669TIP3   OH231883   7.934   6.283   2.116
10669TIP3    H131884   7.915   6.240   2.032
10669TIP3    H231885   7.912   6.375   2.100
10670TIP3   OH231886   7.429   6.037   3.959
10670TIP3    H131887   7.425   5.967   3.894
10670TIP3    H231888   7.392   6.114   3.915
10671TIP3   OH231889   7.429   5.834   3.765
10671TIP3    H131890   7.454   5.869   3.679
10671TIP3    H231891   7.338   5.807   3.753
10672TIP3   OH231892   7.426   6.368   3.628
10672TIP3    H131893   7.512   6.409   3.619
10672TIP3    H231894   7.367   6.422   3.575
10673TIP3   OH231895   8.026   6.325   4.002
10673TIP3    H131896   8.082   6.247   4.001
10673TIP3    H231897   8.088   6.398   3.997
10674TIP3   OH231898   8.052   6.582   3.744
10674TIP3    H131899   7.998   6.645   3.696
10674TIP3    H231900   8.141   6.598   3.713
10675TIP3   OH231901   7.314   6.116   4.206
10675TIP3    H131902   7.238   6.061   4.226
10675TIP3    H231903   7.336   6.095   4.115
10676TIP3   OH231904   7.553   5.619   3.892
10676TIP3    H131905   7.520   5.704   3.861
10676TIP3    H231906   7.486   5.556   3.866
10677TIP3   OH231907   7.681   6.062   4.069
10677TIP3    H131908   7.662   6.062   4.163
10677TIP3    H231909   7.595   6.050   4.028
10678TIP3   OH231910   7.924   6.022   3.936
10678TIP3    H131911   7.846   6.025   3.991
10678TIP3    H231912   7.996   6.005   3.997
10679TIP3   OH231913   8.157   5.988   4.088
10679TIP3    H131914   8.167   5.893   4.094
10679TIP3    H231915   8.151   6.017   4.179
10680TIP3   OH231916   7.136   5.906   4.265
10680TIP3    H131917   7.140   5.816   4.233
10680TIP3    H231918   7.175   5.901   4.352
10681TIP3   OH231919   7.655   5.764   4.252
10681TIP3    H131920   7.649   5.754   4.157
10681TIP3    H231921   7.609   5.846   4.270
10682TIP3   OH231922   6.992   7.083   2.401
10682TIP3    H131923   7.068   7.038   2.364
10682TIP3    H231924   6.944   7.116   2.325
10683TIP3   OH231925   6.432   6.430   2.545
10683TIP3    H131926   6.527   6.438   2.547
10683TIP3    H231927   6.416   6.342   2.510
10684TIP3   OH231928   6.335   7.004   3.018
10684TIP3    H131929   6.269   6.950   2.973
10684TIP3    H231930   6.379   6.943   3.077
10685TIP3   OH231931   6.479   6.834   3.183
10685TIP3    H131932   6.471   6.766   3.250
10685TIP3    H231933   6.530   6.903   3.225
10686TIP3   OH231934   8.209   7.244   2.990
10686TIP3    H131935   8.228   7.286   3.073
10686TIP3    H231936   8.264   7.289   2.926
10687TIP3   OH231937   8.218   7.286   3.279
10687TIP3    H131938   8.177   7.200   3.269
10687TIP3    H231939   8.289   7.272   3.341
10688TIP3   OH231940   8.303   6.993   3.866
10688TIP3    H131941   8.225   7.002   3.921
10688TIP3    H231942   8.343   7.080   3.867
10689TIP3   OH231943   8.108   6.490   2.453
10689TIP3    H131944   8.164   6.562   2.423
10689TIP3    H231945   8.155   6.452   2.527
10690TIP3   OH231946   8.242   6.351   2.652
10690TIP3    H131947   8.175   6.315   2.710
10690TIP3    H231948   8.306   6.389   2.711
10691TIP3   OH231949   8.288   6.752   3.092
10691TIP3    H131950   8.334   6.684   3.043
10691TIP3    H231951   8.289   6.828   3.035
10692TIP3   OH231952   8.086   7.041   3.280
10692TIP3    H131953   8.019   7.085   3.331
10692TIP3    H231954   8.038   7.002   3.207
10693TIP3   OH231955   8.141   6.267   2.297
10693TIP3    H131956   8.069   6.266   2.233
10693TIP3    H231957   8.124   6.346   2.349
10694TIP3   OH231958   7.985   5.922   2.244
10694TIP3    H131959   7.939   5.957   2.168
10694TIP3    H231960   7.977   5.827   2.236
10695TIP3   OH231961   8.038   6.213   2.788
10695TIP3    H131962   8.040   6.119   2.772
10695TIP3    H231963   8.017   6.221   2.881
10696TIP3   OH231964   6.649   6.270   3.562
10696TIP3    H131965   6.641   6.243   3.471
10696TIP3    H231966   6.744   6.266   3.579
10697TIP3   OH231967   8.311   6.633   3.655
10697TIP3    H131968   8.376   6.565   3.638
10697TIP3    H231969   8.330   6.701   3.590
10698TIP3   OH231970   8.484   6.418   3.645
10698TIP3    H131971   8.410   6.378   3.691
10698TIP3    H231972   8.559   6.363   3.669
10699TIP3   OH231973   7.949   5.654   2.223
10699TIP3    H131974   8.018   5.619   2.281
10699TIP3    H231975   7.870   5.606   2.250
10700TIP3   OH231976   8.026   5.936   2.678
10700TIP3    H131977   8.073   5.853   2.689
10700TIP3    H231978   8.065   5.975   2.599
10701TIP3   OH231979   8.176   6.098   3.203
10701TIP3    H131980   8.255   6.120   3.154
10701TIP3    H231981   8.188   6.140   3.288
10702TIP3   OH231982   8.247   6.250   3.431
10702TIP3    H131983   8.174   6.278   3.487
10702TIP3    H231984   8.276   6.329   3.388
10703TIP3   OH231985   6.881   6.002   4.277
10703TIP3    H131986   6.970   5.970   4.267
10703TIP3    H231987   6.834   5.932   4.322
10704TIP3   OH231988   8.703   5.848   3.973
10704TIP3    H131989   8.759   5.781   3.934
10704TIP3    H231990   8.668   5.896   3.898
10705TIP3   OH231991   8.143   5.686   2.730
10705TIP3    H131992   8.188   5.670   2.813
10705TIP3    H231993   8.080   5.614   2.723
10706TIP3   OH231994   6.853   5.674   3.546
10706TIP3    H131995   6.907   5.595   3.546
10706TIP3    H231996   6.914   5.745   3.531
10707TIP3   OH231997   6.625   5.936   3.610
10707TIP3    H131998   6.681   5.926   3.534
10707TIP3    H231999   6.635   6.028   3.635
10708TIP3   OH232000   8.561   5.966   3.775
10708TIP3    H132001   8.483   6.007   3.811
10708TIP3    H232002   8.528   5.896   3.718
10709TIP3   OH232003   8.181   5.592   2.367
10709TIP3    H132004   8.228   5.534   2.307
10709TIP3    H232005   8.234   5.672   2.370
10710TIP3   OH232006   6.611   5.455   3.115
10710TIP3    H132007   6.526   5.441   3.157
10710TIP3    H232008   6.590   5.504   3.035
10711TIP3   OH232009   7.754   7.182   2.635
10711TIP3    H132010   7.813   7.165   2.562
10711TIP3    H232011   7.797   7.249   2.687
10712TIP3   OH232012   6.813   5.457   3.918
10712TIP3    H132013   6.740   5.436   3.977
10712TIP3    H232014   6.779   5.528   3.863
10713TIP3   OH232015   6.869   6.953   4.011
10713TIP3    H132016   6.775   6.934   4.004
10713TIP3    H232017   6.887   6.946   4.105
10714TIP3   OH232018   7.082   7.004   3.566
10714TIP3    H132019   7.031   7.079   3.535
10714TIP3    H232020   7.166   7.012   3.521
10715TIP3   OH232021   7.479   7.231   3.711
10715TIP3    H132022   7.518   7.227   3.799
10715TIP3    H232023   7.539   7.286   3.661
10716TIP3   OH232024   7.669   7.389   3.586
10716TIP3    H132025   7.727   7.342   3.526
10716TIP3    H232026   7.729   7.442   3.639
10717TIP3   OH232027   8.467   5.725   3.659
10717TIP3    H132028   8.389   5.732   3.605
10717TIP3    H232029   8.493   5.633   3.651
10718TIP3   OH232030   6.741   7.224   3.616
10718TIP3    H132031   6.651   7.240   3.589
10718TIP3    H232032   6.761   7.295   3.677
10719TIP3   OH232033   6.971   7.235   3.463
10719TIP3    H132034   6.888   7.235   3.511
10719TIP3    H232035   6.948   7.260   3.374
10720TIP3   OH232036   7.384   7.251   3.258
10720TIP3    H132037   7.312   7.263   3.197
10720TIP3    H232038   7.394   7.337   3.300
10721TIP3   OH232039   7.645   7.182   3.311
10721TIP3    H132040   7.555   7.206   3.290
10721TIP3    H232041   7.698   7.245   3.263
10722TIP3   OH232042   7.848   7.339   3.204
10722TIP3    H132043   7.858   7.428   3.171
10722TIP3    H232044   7.876   7.284   3.131
10723TIP3   OH232045   6.651   7.015   3.320
10723TIP3    H132046   6.672   6.992   3.410
10723TIP3    H232047   6.724   6.982   3.269
10724TIP3   OH232048   6.857   6.900   3.184
10724TIP3    H132049   6.868   6.815   3.228
10724TIP3    H232050   6.942   6.942   3.192
10725TIP3   OH232051   7.124   6.986   3.215
10725TIP3    H132052   7.145   6.894   3.199
10725TIP3    H232053   7.178   7.010   3.290
10726TIP3   OH232054   7.682   5.636   3.303
10726TIP3    H132055   7.640   5.565   3.352
10726TIP3    H232056   7.749   5.592   3.251
10727TIP3   OH232057   8.183   5.560   3.192
10727TIP3    H132058   8.220   5.608   3.118
10727TIP3    H232059   8.090   5.581   3.191
10728TIP3   OH232060   8.300   5.629   2.953
10728TIP3    H132061   8.367   5.567   2.925
10728TIP3    H232062   8.338   5.715   2.938
10729TIP3   OH232063   6.925   5.337   3.285
10729TIP3    H132064   6.836   5.304   3.297
10729TIP3    H232065   6.980   5.258   3.282
10730TIP3   OH232066   6.746   5.261   2.959
10730TIP3    H132067   6.766   5.310   2.879
10730TIP3    H232068   6.706   5.326   3.018
10731TIP3   OH232069   7.408   5.373   3.196
10731TIP3    H132070   7.453   5.420   3.126
10731TIP3    H232071   7.447   5.407   3.277
10732TIP3   OH232072   7.894   5.515   3.173
10732TIP3    H132073   7.909   5.483   3.084
10732TIP3    H232074   7.904   5.437   3.228
10733TIP3   OH232075   7.957   5.476   2.741
10733TIP3    H132076   7.877   5.523   2.766
10733TIP3    H232077   7.945   5.388   2.776
10734TIP3   OH232078   6.408   6.814   2.703
10734TIP3    H132079   6.323   6.789   2.666
10734TIP3    H232080   6.419   6.906   2.678
10735TIP3   OH232081   6.854   5.373   2.710
10735TIP3    H132082   6.910   5.301   2.681
10735TIP3    H232083   6.915   5.437   2.746
10736TIP3   OH232084   7.333   5.570   2.812
10736TIP3    H132085   7.394   5.519   2.865
10736TIP3    H232086   7.348   5.660   2.839
10737TIP3   OH232087   7.210   6.967   2.294
10737TIP3    H132088   7.298   6.987   2.263
10737TIP3    H232089   7.181   6.894   2.239
10738TIP3   OH232090   7.910   7.112   2.413
10738TIP3    H132091   7.903   7.017   2.404
10738TIP3    H232092   7.874   7.146   2.331
10739TIP3   OH232093   7.153   5.641   4.196
10739TIP3    H132094   7.102   5.567   4.229
10739TIP3    H232095   7.241   5.627   4.230
10740TIP3   OH232096   7.405   5.619   4.320
10740TIP3    H132097   7.498   5.643   4.322
10740TIP3    H232098   7.392   5.568   4.400
10741TIP3   OH232099   6.530   6.800   2.360
10741TIP3    H132100   6.527   6.811   2.455
10741TIP3    H232101   6.613   6.755   2.344
10742TIP3   OH232102   8.209   5.712   4.087
10742TIP3    H132103   8.230   5.685   4.176
10742TIP3    H232104   8.294   5.710   4.041
10743TIP3   OH232105   8.104   7.250   3.633
10743TIP3    H132106   8.041   7.219   3.568
10743TIP3    H232107   8.109   7.344   3.618
10744TIP3   OH232108   9.417   6.622   2.330
10744TIP3    H132109   9.392   6.711   2.304
10744TIP3    H232110   9.352   6.566   2.287
10745TIP3   OH232111   9.317   6.609   2.756
10745TIP3    H132112   9.373   6.615   2.833
10745TIP3    H232113   9.355   6.538   2.704
10746TIP3   OH232114   8.704   6.498   3.107
10746TIP3    H132115   8.745   6.447   3.177
10746TIP3    H232116   8.777   6.526   3.051
10747TIP3   OH232117   8.687   6.904   2.792
10747TIP3    H132118   8.669   6.810   2.794
10747TIP3    H232119   8.782   6.910   2.784
10748TIP3   OH232120   8.378   6.119   2.571
10748TIP3    H132121   8.342   6.205   2.594
10748TIP3    H232122   8.306   6.074   2.526
10749TIP3   OH232123   8.464   6.439   2.797
10749TIP3    H132124   8.514   6.360   2.819
10749TIP3    H232125   8.530   6.504   2.775
10750TIP3   OH232126   9.344   7.381   2.510
10750TIP3    H132127   9.372   7.302   2.556
10750TIP3    H232128   9.278   7.421   2.567
10751TIP3   OH232129   9.205   6.860   2.761
10751TIP3    H132130   9.237   6.772   2.742
10751TIP3    H232131   9.284   6.909   2.787
10752TIP3   OH232132   9.599   6.488   2.785
10752TIP3    H132133   9.669   6.423   2.791
10752TIP3    H232134   9.596   6.511   2.692
10753TIP3   OH232135   8.941   5.988   2.764
10753TIP3    H132136   8.920   6.064   2.710
10753TIP3    H232137   8.890   5.917   2.726
10754TIP3   OH232138   9.707   6.050   2.391
10754TIP3    H132139   9.735   6.039   2.482
10754TIP3    H232140   9.702   6.145   2.379
10755TIP3   OH232141   8.594   6.211   2.887
10755TIP3    H132142   8.677   6.191   2.931
10755TIP3    H232143   8.594   6.155   2.809
10756TIP3   OH232144   9.000   6.401   2.713
10756TIP3    H132145   9.088   6.367   2.730
10756TIP3    H232146   8.951   6.325   2.679
10757TIP3   OH232147   8.939   6.015   3.228
10757TIP3    H132148   8.894   6.053   3.153
10757TIP3    H232149   8.883   6.035   3.303
10758TIP3   OH232150   9.303   6.842   2.210
10758TIP3    H132151   9.265   6.820   2.125
10758TIP3    H232152   9.262   6.925   2.234
10759TIP3   OH232153   9.049   6.784   2.975
10759TIP3    H132154   8.993   6.854   3.006
10759TIP3    H232155   9.096   6.821   2.901
10760TIP3   OH232156   8.834   6.104   2.988
10760TIP3    H132157   8.887   6.183   3.003
10760TIP3    H232158   8.877   6.059   2.915
10761TIP3   OH232159   8.893   6.986   3.074
10761TIP3    H132160   8.883   7.076   3.044
10761TIP3    H232161   8.816   6.970   3.129
10762TIP3   OH232162   8.278   6.679   2.340
10762TIP3    H132163   8.243   6.703   2.254
10762TIP3    H232164   8.304   6.761   2.380
10763TIP3   OH232165   9.228   5.721   2.908
10763TIP3    H132166   9.227   5.632   2.945
10763TIP3    H232167   9.158   5.767   2.954
10764TIP3   OH232168   9.449   7.204   2.234
10764TIP3    H132169   9.510   7.179   2.304
10764TIP3    H232170   9.447   7.299   2.237
10765TIP3   OH232171   9.234   6.488   2.170
10765TIP3    H132172   9.146   6.526   2.174
10765TIP3    H232173   9.262   6.503   2.080
10766TIP3   OH232174   9.231   6.281   1.914
10766TIP3    H132175   9.300   6.335   1.952
10766TIP3    H232176   9.277   6.221   1.855
10767TIP3   OH232177   8.820   6.542   2.550
10767TIP3    H132178   8.783   6.478   2.489
10767TIP3    H232179   8.892   6.495   2.593
10768TIP3   OH232180   8.949   6.945   2.706
10768TIP3    H132181   8.930   6.942   2.613
10768TIP3    H232182   9.041   6.918   2.712
10769TIP3   OH232183   8.914   6.551   2.927
10769TIP3    H132184   8.952   6.512   2.849
10769TIP3    H232185   8.964   6.631   2.941
10770TIP3   OH232186   9.426   7.196   2.694
10770TIP3    H132187   9.481   7.249   2.752
10770TIP3    H232188   9.420   7.111   2.739
10771TIP3   OH232189   9.093   7.078   3.242
10771TIP3    H132190   9.032   7.137   3.287
10771TIP3    H232191   9.037   7.028   3.181
10772TIP3   OH232192   9.451   6.449   1.971
10772TIP3    H132193   9.488   6.518   2.027
10772TIP3    H232194   9.470   6.477   1.882
10773TIP3   OH232195   8.844   6.619   3.398
10773TIP3    H132196   8.851   6.713   3.414
10773TIP3    H232197   8.750   6.602   3.391
10774TIP3   OH232198   9.188   7.098   2.239
10774TIP3    H132199   9.277   7.131   2.254
10774TIP3    H232200   9.135   7.176   2.227
10775TIP3   OH232201   8.882   7.236   3.334
10775TIP3    H132202   8.868   7.253   3.240
10775TIP3    H232203   8.794   7.224   3.369
10776TIP3   OH232204   8.692   6.376   2.360
10776TIP3    H132205   8.615   6.425   2.331
10776TIP3    H232206   8.663   6.285   2.366
10777TIP3   OH232207   8.487   6.794   3.287
10777TIP3    H132208   8.418   6.778   3.222
10777TIP3    H232209   8.520   6.707   3.308
10778TIP3   OH232210   8.327   6.989   2.947
10778TIP3    H132211   8.418   7.017   2.957
10778TIP3    H232212   8.276   7.066   2.971
10779TIP3   OH232213   9.294   7.208   3.107
10779TIP3    H132214   9.283   7.299   3.136
10779TIP3    H232215   9.224   7.160   3.151
10780TIP3   OH232216   9.081   7.317   2.100
10780TIP3    H132217   9.033   7.303   2.018
10780TIP3    H232218   9.061   7.406   2.126
10781TIP3   OH232219   8.490   7.176   2.443
10781TIP3    H132220   8.536   7.168   2.526
10781TIP3    H232221   8.447   7.091   2.430
10782TIP3   OH232222   9.263   7.259   1.737
10782TIP3    H132223   9.269   7.181   1.683
10782TIP3    H232224   9.295   7.232   1.823
10783TIP3   OH232225   9.318   7.207   1.992
10783TIP3    H132226   9.241   7.247   2.033
10783TIP3    H232227   9.378   7.192   2.065
10784TIP3   OH232228   8.687   6.981   3.255
10784TIP3    H132229   8.738   6.962   3.334
10784TIP3    H232230   8.613   6.920   3.260
10785TIP3   OH232231   9.026   5.803   3.076
10785TIP3    H132232   8.942   5.769   3.045
10785TIP3    H232233   9.003   5.882   3.125
10786TIP3   OH232234   9.649   5.842   3.214
10786TIP3    H132235   9.731   5.797   3.195
10786TIP3    H232236   9.636   5.829   3.308
10787TIP3   OH232237   9.188   5.923   1.995
10787TIP3    H132238   9.119   5.960   2.051
10787TIP3    H232239   9.208   5.838   2.033
10788TIP3   OH232240   8.976   6.323   3.068
10788TIP3    H132241   8.937   6.335   3.155
10788TIP3    H232242   8.960   6.406   3.023
10789TIP3   OH232243   8.852   6.196   2.610
10789TIP3    H132244   8.764   6.169   2.633
10789TIP3    H232245   8.864   6.166   2.520
10790TIP3   OH232246   9.328   6.246   2.268
10790TIP3    H132247   9.291   6.328   2.238
10790TIP3    H232248   9.394   6.223   2.202
10791TIP3   OH232249   9.504   6.567   3.406
10791TIP3    H132250   9.491   6.496   3.469
10791TIP3    H232251   9.597   6.588   3.413
10792TIP3   OH232252   9.402   6.360   2.584
10792TIP3    H132253   9.412   6.422   2.511
10792TIP3    H232254   9.423   6.275   2.546
10793TIP3   OH232255   8.838   6.344   3.304
10793TIP3    H132256   8.851   6.415   3.366
10793TIP3    H232257   8.818   6.267   3.358
10794TIP3   OH232258   8.886   5.833   2.009
10794TIP3    H132259   8.864   5.827   2.102
10794TIP3    H232260   8.811   5.877   1.970
10795TIP3   OH232261   8.430   5.853   2.881
10795TIP3    H132262   8.494   5.894   2.940
10795TIP3    H232263   8.467   5.865   2.794
10796TIP3   OH232264   8.328   5.828   2.384
10796TIP3    H132265   8.374   5.864   2.309
10796TIP3    H232266   8.263   5.895   2.407
10797TIP3   OH232267   9.487   6.633   2.992
10797TIP3    H132268   9.543   6.606   2.919
10797TIP3    H232269   9.539   6.614   3.070
10798TIP3   OH232270   9.191   6.021   2.655
10798TIP3    H132271   9.111   5.993   2.700
10798TIP3    H232272   9.214   6.104   2.697
10799TIP3   OH232273   8.625   6.053   2.667
10799TIP3    H132274   8.542   6.064   2.621
10799TIP3    H232275   8.659   5.969   2.635
10800TIP3   OH232276   8.865   6.074   2.369
10800TIP3    H132277   8.960   6.074   2.360
10800TIP3    H232278   8.833   6.096   2.282
10801TIP3   OH232279   9.476   6.085   2.886
10801TIP3    H132280   9.449   6.063   2.976
10801TIP3    H232281   9.461   6.004   2.837
10802TIP3   OH232282   8.772   6.114   2.121
10802TIP3    H132283   8.713   6.061   2.067
10802TIP3    H232284   8.836   6.149   2.059
10803TIP3   OH232285   8.830   6.886   3.487
10803TIP3    H132286   8.911   6.907   3.534
10803TIP3    H232287   8.761   6.897   3.552
10804TIP3   OH232288   9.231   6.263   2.775
10804TIP3    H132289   9.304   6.302   2.726
10804TIP3    H232290   9.264   6.253   2.864
10805TIP3   OH232291   8.773   5.816   2.626
10805TIP3    H132292   8.746   5.739   2.676
10805TIP3    H232293   8.807   5.781   2.544
10806TIP3   OH232294   9.230   6.232   3.056
10806TIP3    H132295   9.141   6.268   3.049
10806TIP3    H232296   9.277   6.295   3.110
10807TIP3   OH232297   8.991   6.611   2.139
10807TIP3    H132298   8.918   6.553   2.116
10807TIP3    H232299   8.964   6.653   2.221
10808TIP3   OH232300   9.455   5.963   1.928
10808TIP3    H132301   9.361   5.951   1.946
10808TIP3    H232302   9.480   6.038   1.983
10809TIP3   OH232303   9.454   6.960   3.149
10809TIP3    H132304   9.459   6.939   3.243
10809TIP3    H232305   9.405   7.042   3.146
10810TIP3   OH232306   9.532   6.197   2.068
10810TIP3    H132307   9.623   6.180   2.045
10810TIP3    H232308   9.512   6.282   2.028
10811TIP3   OH232309   8.682   6.617   2.777
10811TIP3    H132310   8.721   6.603   2.691
10811TIP3    H232311   8.752   6.596   2.839
10812TIP3   OH232312   9.153   6.763   1.981
10812TIP3    H132313   9.113   6.850   1.983
10812TIP3    H232314   9.094   6.708   2.033
10813TIP3   OH232315   8.572   6.555   3.416
10813TIP3    H132316   8.571   6.526   3.507
10813TIP3    H232317   8.496   6.513   3.376
10814TIP3   OH232318   9.275   6.712   3.447
10814TIP3    H132319   9.210   6.651   3.411
10814TIP3    H232320   9.359   6.679   3.415
10815TIP3   OH232321   9.561   7.244   3.027
10815TIP3    H132322   9.466   7.227   3.026
10815TIP3    H232323   9.581   7.262   3.119
10816TIP3   OH232324   8.815   6.970   2.464
10816TIP3    H132325   8.816   7.052   2.415
10816TIP3    H232326   8.728   6.966   2.504
10817TIP3   OH232327   8.378   6.254   2.158
10817TIP3    H132328   8.422   6.336   2.183
10817TIP3    H232329   8.297   6.254   2.208
10818TIP3   OH232330   8.886   6.728   2.355
10818TIP3    H132331   8.872   6.817   2.389
10818TIP3    H232332   8.864   6.671   2.429
10819TIP3   OH232333   9.108   7.282   2.896
10819TIP3    H132334   9.144   7.349   2.838
10819TIP3    H232335   9.184   7.246   2.941
10820TIP3   OH232336   8.742   7.203   2.335
10820TIP3    H132337   8.650   7.208   2.360
10820TIP3    H232338   8.771   7.294   2.331
10821TIP3   OH232339   9.440   6.967   2.863
10821TIP3    H132340   9.439   6.946   2.956
10821TIP3    H232341   9.533   6.984   2.844
10822TIP3   OH232342   8.777   6.088   3.435
10822TIP3    H132343   8.682   6.098   3.434
10822TIP3    H232344   8.795   6.033   3.510
10823TIP3   OH232345   8.530   7.203   3.061
10823TIP3    H132346   8.587   7.151   3.118
10823TIP3    H232347   8.543   7.293   3.092
10824TIP3   OH232348   8.784   6.825   1.803
10824TIP3    H132349   8.817   6.740   1.773
10824TIP3    H232350   8.768   6.813   1.897
10825TIP3   OH232351   8.743   6.795   2.075
10825TIP3    H132352   8.803   6.756   2.138
10825TIP3    H232353   8.750   6.889   2.091
10826TIP3   OH232354   8.472   6.502   2.249
10826TIP3    H132355   8.407   6.549   2.301
10826TIP3    H232356   8.493   6.561   2.176
10827TIP3   OH232357   9.699   6.142   3.165
10827TIP3    H132358   9.674   6.206   3.232
10827TIP3    H232359   9.615   6.110   3.130
10828TIP3   OH232360   9.389   5.913   2.266
10828TIP3    H132361   9.348   5.840   2.219
10828TIP3    H232362   9.476   5.922   2.226
10829TIP3   OH232363   9.033   7.002   2.013
10829TIP3    H132364   8.944   7.019   2.045
10829TIP3    H232365   9.089   7.048   2.075
10830TIP3   OH232366   9.138   6.080   2.382
10830TIP3    H132367   9.199   6.140   2.339
10830TIP3    H232368   9.166   6.078   2.473
10831TIP3   OH232369   9.383   6.374   3.232
10831TIP3    H132370   9.411   6.453   3.277
10831TIP3    H232371   9.439   6.369   3.154
10832TIP3   OH232372   9.339   5.833   2.528
10832TIP3    H132373   9.291   5.902   2.572
10832TIP3    H232374   9.361   5.870   2.442
10833TIP3   OH232375   8.781   7.059   2.108
10833TIP3    H132376   8.755   7.122   2.040
10833TIP3    H232377   8.769   7.107   2.190
10834TIP3   OH232378   8.820   5.807   2.284
10834TIP3    H132379   8.802   5.895   2.316
10834TIP3    H232380   8.912   5.792   2.305
10835TIP3   OH232381   8.495   6.682   2.036
10835TIP3    H132382   8.567   6.742   2.058
10835TIP3    H232383   8.532   6.624   1.970
10836TIP3   OH232384   8.406   5.977   2.171
10836TIP3    H132385   8.413   6.072   2.171
10836TIP3    H232386   8.378   5.955   2.082
10837TIP3   OH232387   8.776   5.701   3.025
10837TIP3    H132388   8.752   5.670   2.937
10837TIP3    H232389   8.767   5.624   3.081
10838TIP3   OH232390   8.336   6.936   2.436
10838TIP3    H132391   8.296   6.977   2.513
10838TIP3    H232392   8.291   6.977   2.361
10839TIP3   OH232393   8.543   7.496   3.484
10839TIP3    H132394   8.621   7.509   3.539
10839TIP3    H232395   8.548   7.404   3.457
10840TIP3   OH232396   8.994   7.389   3.535
10840TIP3    H132397   9.088   7.371   3.536
10840TIP3    H232398   8.960   7.338   3.460
10841TIP3   OH232399   8.965   6.990   1.674
10841TIP3    H132400   8.893   6.949   1.721
10841TIP3    H232401   9.033   6.922   1.671
10842TIP3   OH232402   9.623   7.302   3.290
10842TIP3    H132403   9.636   7.240   3.362
10842TIP3    H232404   9.711   7.337   3.273
10843TIP3   OH232405   8.624   6.889   3.675
10843TIP3    H132406   8.644   6.797   3.687
10843TIP3    H232407   8.537   6.890   3.635
10844TIP3   OH232408   8.633   6.500   1.888
10844TIP3    H132409   8.677   6.469   1.967
10844TIP3    H232410   8.704   6.520   1.827
10845TIP3   OH232411   9.235   6.991   3.457
10845TIP3    H132412   9.193   7.010   3.374
10845TIP3    H232413   9.274   6.905   3.446
10846TIP3   OH232414   9.103   6.745   1.712
10846TIP3    H132415   9.121   6.750   1.806
10846TIP3    H232416   9.067   6.657   1.699
10847TIP3   OH232417   8.743   6.636   3.688
10847TIP3    H132418   8.816   6.623   3.627
10847TIP3    H232419   8.786   6.655   3.772
10848TIP3   OH232420   8.792   6.426   2.101
10848TIP3    H132421   8.765   6.397   2.188
10848TIP3    H232422   8.846   6.355   2.067
10849TIP3   OH232423   9.104   6.523   3.331
10849TIP3    H132424   9.018   6.564   3.335
10849TIP3    H232425   9.141   6.553   3.248
10850TIP3   OH232426   8.959   6.245   1.969
10850TIP3    H132427   8.931   6.255   1.878
10850TIP3    H232428   9.054   6.253   1.966
10851TIP3   OH232429   9.525   6.897   3.437
10851TIP3    H132430   9.604   6.875   3.387
10851TIP3    H232431   9.531   6.842   3.516
10852TIP3   OH232432   9.184   6.290   3.455
10852TIP3    H132433   9.195   6.219   3.391
10852TIP3    H232434   9.163   6.367   3.402
10853TIP3   OH232435   9.204   6.064   3.269
10853TIP3    H132436   9.218   6.118   3.192
10853TIP3    H232437   9.111   6.042   3.267
10854TIP3   OH232438   9.229   6.628   3.113
10854TIP3    H132439   9.314   6.638   3.071
10854TIP3    H232440   9.171   6.687   3.064
10855TIP3   OH232441  -0.005   6.597   3.468
10855TIP3    H132442   0.015   6.513   3.427
10855TIP3    H232443   0.077   6.624   3.509
10856TIP3   OH232444   9.074   6.373   3.696
10856TIP3    H132445   9.008   6.307   3.718
10856TIP3    H232446   9.100   6.352   3.607
10857TIP3   OH232447   9.318   5.833   3.374
10857TIP3    H132448   9.276   5.915   3.347
10857TIP3    H232449   9.259   5.764   3.342
10858TIP3   OH232450   9.442   6.335   3.550
10858TIP3    H132451   9.422   6.320   3.643
10858TIP3    H232452   9.359   6.319   3.505
10859TIP3   OH232453   9.652   6.311   3.369
10859TIP3    H132454   9.576   6.304   3.428
10859TIP3    H232455   9.728   6.304   3.427
10860TIP3   OH232456   0.283   6.144   3.629
10860TIP3    H132457   0.224   6.081   3.672
10860TIP3    H232458   0.266   6.133   3.536
10861TIP3   OH232459   8.919   6.149   3.769
10861TIP3    H132460   8.919   6.058   3.738
10861TIP3    H232461   8.944   6.143   3.861
10862TIP3   OH232462   9.328   5.810   3.644
10862TIP3    H132463   9.336   5.718   3.668
10862TIP3    H232464   9.316   5.808   3.549
10863TIP3   OH232465   9.424   6.022   3.790
10863TIP3    H132466   9.383   5.952   3.740
10863TIP3    H232467   9.366   6.097   3.779
10864TIP3   OH232468   8.742   7.238   1.913
10864TIP3    H132469   8.830   7.257   1.880
10864TIP3    H232470   8.686   7.303   1.871
10865TIP3   OH232471   8.223   6.683   2.054
10865TIP3    H132472   8.318   6.691   2.050
10865TIP3    H232473   8.205   6.593   2.025
10866TIP3   OH232474   8.137   7.247   2.494
10866TIP3    H132475   8.063   7.199   2.457
10866TIP3    H232476   8.178   7.185   2.554
10867TIP3   OH232477   8.271   7.080   2.672
10867TIP3    H132478   8.265   7.016   2.743
10867TIP3    H232479   8.321   7.152   2.709
10868TIP3   OH232480   8.440   6.511   3.058
10868TIP3    H132481   8.432   6.490   2.965
10868TIP3    H232482   8.534   6.516   3.074
10869TIP3   OH232483   8.658   6.212   3.698
10869TIP3    H132484   8.752   6.209   3.715
10869TIP3    H232485   8.624   6.130   3.733
10870TIP3   OH232486   8.627   5.930   3.063
10870TIP3    H132487   8.676   5.848   3.057
10870TIP3    H232488   8.690   5.998   3.041
10871TIP3   OH232489   8.412   6.203   3.102
10871TIP3    H132490   8.467   6.185   3.025
10871TIP3    H232491   8.422   6.297   3.116
10872TIP3   OH232492   8.409   5.677   2.597
10872TIP3    H132493   8.326   5.672   2.644
10872TIP3    H232494   8.392   5.736   2.523
10873TIP3   OH232495   8.634   5.741   3.428
10873TIP3    H132496   8.585   5.743   3.511
10873TIP3    H232497   8.581   5.794   3.368
10874TIP3   OH232498   8.639   7.224   3.487
10874TIP3    H132499   8.547   7.196   3.493
10874TIP3    H232500   8.674   7.211   3.575
10875TIP3   OH232501   8.884   7.262   3.055
10875TIP3    H132502   8.830   7.333   3.019
10875TIP3    H232503   8.967   7.269   3.008
10876TIP3   OH232504   9.271   7.473   3.192
10876TIP3    H132505   9.315   7.471   3.278
10876TIP3    H232506   9.331   7.522   3.136
10877TIP3   OH232507   9.464   7.604   3.046
10877TIP3    H132508   9.486   7.564   2.963
10877TIP3    H232509   9.544   7.648   3.074
10878TIP3   OH232510   8.538   7.484   3.108
10878TIP3    H132511   8.447   7.502   3.084
10878TIP3    H232512   8.563   7.558   3.164
10879TIP3   OH232513   8.761   7.479   2.944
10879TIP3    H132514   8.678   7.486   2.991
10879TIP3    H232515   8.741   7.508   2.855
10880TIP3   OH232516   9.198   7.483   2.722
10880TIP3    H132517   9.111   7.489   2.683
10880TIP3    H232518   9.208   7.564   2.772
10881TIP3   OH232519   9.478   7.476   2.791
10881TIP3    H132520   9.383   7.467   2.781
10881TIP3    H232521   9.509   7.505   2.705
10882TIP3   OH232522   8.435   7.269   2.809
10882TIP3    H132523   8.466   7.254   2.899
10882TIP3    H232524   8.506   7.237   2.754
10883TIP3   OH232525   8.634   7.144   2.674
10883TIP3    H132526   8.642   7.060   2.720
10883TIP3    H232527   8.720   7.184   2.683
10884TIP3   OH232528   8.896   7.215   2.721
10884TIP3    H132529   8.920   7.123   2.715
10884TIP3    H232530   8.960   7.252   2.782
10885TIP3   OH232531   9.454   5.829   2.788
10885TIP3    H132532   9.376   5.790   2.827
10885TIP3    H232533   9.440   5.821   2.693
10886TIP3   OH232534   8.707   5.596   2.779
10886TIP3    H132535   8.617   5.564   2.788
10886TIP3    H232536   8.759   5.516   2.769
10887TIP3   OH232537   8.563   5.498   2.442
10887TIP3    H132538   8.573   5.549   2.361
10887TIP3    H232539   8.516   5.555   2.502
10888TIP3   OH232540   9.127   5.665   2.650
10888TIP3    H132541   9.171   5.718   2.584
10888TIP3    H232542   9.163   5.696   2.733
10889TIP3   OH232543   8.222   7.041   2.213
10889TIP3    H132544   8.133   7.012   2.193
10889TIP3    H232545   8.223   7.134   2.191
10890TIP3   OH232546   8.614   5.638   2.207
10890TIP3    H132547   8.656   5.579   2.144
10890TIP3    H232548   8.685   5.698   2.233
10891TIP3   OH232549   9.084   5.809   2.336
10891TIP3    H132550   9.146   5.762   2.280
10891TIP3    H232551   9.121   5.896   2.345
10892TIP3   OH232552   9.007   7.237   1.841
10892TIP3    H132553   9.092   7.254   1.801
10892TIP3    H232554   9.000   7.142   1.844
10893TIP3   OH232555   8.906   5.873   3.679
10893TIP3    H132556   8.863   5.803   3.727
10893TIP3    H232557   8.994   5.879   3.717
10894TIP3   OH232558   9.139   5.884   3.820
10894TIP3    H132559   9.202   5.877   3.749
10894TIP3    H232560   9.154   5.806   3.874
10895TIP3   OH232561   8.281   7.002   1.937
10895TIP3    H132562   8.283   7.004   2.032
10895TIP3    H232563   8.372   6.993   1.911
10896TIP3   OH232564   0.338   7.476   4.623
10896TIP3    H132565   0.386   7.421   4.685
10896TIP3    H232566   0.314   7.554   4.673
10897TIP3   OH232567   0.931   6.729   4.935
10897TIP3    H132568   0.966   6.803   4.983
10897TIP3    H232569   0.986   6.721   4.857
10898TIP3   OH232570   0.338   6.912   4.963
10898TIP3    H132571   0.329   6.842   5.028
10898TIP3    H232572   0.281   6.885   4.890
10899TIP3   OH232573   0.385   6.708   4.629
10899TIP3    H132574   0.447   6.681   4.696
10899TIP3    H232575   0.424   6.679   4.547
10900TIP3   OH232576   0.994   6.937   5.103
10900TIP3    H132577   0.971   7.028   5.087
10900TIP3    H232578   0.937   6.910   5.175
10901TIP3   OH232579   0.557   6.660   4.830
10901TIP3    H132580   0.548   6.619   4.916
10901TIP3    H232581   0.604   6.742   4.848
10902TIP3   OH232582   0.773   6.610   5.124
10902TIP3    H132583   0.682   6.597   5.098
10902TIP3    H232584   0.816   6.644   5.045
10903TIP3   OH232585   0.261   7.532   4.357
10903TIP3    H132586   0.266   7.453   4.303
10903TIP3    H232587   0.304   7.508   4.439
10904TIP3   OH232588   0.601   7.615   5.134
10904TIP3    H132589   0.581   7.545   5.071
10904TIP3    H232590   0.571   7.695   5.091
10905TIP3   OH232591   0.236   7.139   4.357
10905TIP3    H132592   0.141   7.142   4.370
10905TIP3    H232593   0.268   7.079   4.424
10906TIP3   OH232594   0.491   7.270   5.210
10906TIP3    H132595   0.401   7.303   5.204
10906TIP3    H232596   0.482   7.176   5.222
10907TIP3   OH232597   0.208   6.955   4.150
10907TIP3    H132598   0.258   7.009   4.212
10907TIP3    H232599   0.123   6.999   4.143
10908TIP3   OH232600   0.622   6.177   4.218
10908TIP3    H132601   0.546   6.208   4.268
10908TIP3    H232602   0.645   6.252   4.163
10909TIP3   OH232603   0.411   7.552   3.775
10909TIP3    H132604   0.413   7.647   3.768
10909TIP3    H232605   0.502   7.525   3.763
10910TIP3   OH232606   0.847   7.949   5.149
10910TIP3    H132607   0.853   7.856   5.170
10910TIP3    H232608   0.765   7.977   5.189
10911TIP3   OH232609   0.731   7.193   5.346
10911TIP3    H132610   0.691   7.206   5.432
10911TIP3    H232611   0.784   7.113   5.355
10912TIP3   OH232612   0.315   6.342   5.456
10912TIP3    H132613   0.406   6.340   5.488
10912TIP3    H232614   0.264   6.302   5.527
10913TIP3   OH232615   0.496   6.835   5.403
10913TIP3    H132616   0.572   6.863   5.454
10913TIP3    H232617   0.421   6.863   5.456
10914TIP3   OH232618   0.124   7.075   3.883
10914TIP3    H132619   0.132   7.164   3.847
10914TIP3    H232620   0.174   7.078   3.964
10915TIP3   OH232621   0.158   6.815   4.779
10915TIP3    H132622   0.086   6.805   4.717
10915TIP3    H232623   0.218   6.744   4.758
10916TIP3   OH232624   0.511   6.545   5.080
10916TIP3    H132625   0.480   6.555   5.169
10916TIP3    H232626   0.476   6.460   5.052
10917TIP3   OH232627   0.622   7.383   4.971
10917TIP3    H132628   0.664   7.437   4.904
10917TIP3    H232629   0.540   7.354   4.931
10918TIP3   OH232630   0.079   6.525   4.271
10918TIP3    H132631   0.014   6.547   4.204
10918TIP3    H232632   0.155   6.494   4.220
10919TIP3   OH232633   0.338   6.713   4.188
10919TIP3    H132634   0.395   6.727   4.263
10919TIP3    H232635   0.293   6.797   4.177
10920TIP3   OH232636   0.629   6.817   4.121
10920TIP3    H132637   0.585   6.761   4.058
10920TIP3    H232638   0.618   6.905   4.087
10921TIP3   OH232639   0.860   7.674   5.200
10921TIP3    H132640   0.766   7.654   5.199
10921TIP3    H232641   0.896   7.623   5.128
10922TIP3   OH232642   0.325   7.613   4.094
10922TIP3    H132643   0.307   7.598   4.187
10922TIP3    H232644   0.355   7.529   4.061
10923TIP3   OH232645   0.388   7.301   4.847
10923TIP3    H132646   0.294   7.307   4.865
10923TIP3    H232647   0.400   7.213   4.811
10924TIP3   OH232648   0.426   7.830   3.744
10924TIP3    H132649   0.486   7.893   3.704
10924TIP3    H232650   0.355   7.884   3.779
10925TIP3   OH232651   0.312   7.329   4.176
10925TIP3    H132652   0.280   7.258   4.231
10925TIP3    H232653   0.403   7.306   4.157
10926TIP3   OH232654   0.399   6.570   5.333
10926TIP3    H132655   0.395   6.629   5.408
10926TIP3    H232656   0.371   6.485   5.368
10927TIP3   OH232657   0.266   6.487   4.470
10927TIP3    H132658   0.188   6.493   4.414
10927TIP3    H232659   0.236   6.516   4.556
10928TIP3   OH232660   0.820   6.851   5.294
10928TIP3    H132661   0.771   6.873   5.374
10928TIP3    H232662   0.789   6.764   5.270
10929TIP3   OH232663   0.486   7.039   4.768
10929TIP3    H132664   0.430   6.999   4.835
10929TIP3    H232665   0.571   6.997   4.780
10930TIP3   OH232666   0.413   7.882   4.742
10930TIP3    H132667   0.354   7.807   4.750
10930TIP3    H232668   0.383   7.927   4.663
10931TIP3   OH232669   0.414   7.122   3.802
10931TIP3    H132670   0.384   7.077   3.723
10931TIP3    H232671   0.358   7.200   3.807
10932TIP3   OH232672   0.628   7.159   5.658
10932TIP3    H132673   0.584   7.104   5.724
10932TIP3    H232674   0.602   7.248   5.680
10933TIP3   OH232675   0.558   7.449   5.422
10933TIP3    H132676   0.535   7.530   5.377
10933TIP3    H232677   0.533   7.379   5.361
10934TIP3   OH232678   0.339   6.940   5.605
10934TIP3    H132679   0.296   6.854   5.606
10934TIP3    H232680   0.401   6.937   5.679
10935TIP3   OH232681   0.694   6.692   5.858
10935TIP3    H132682   0.668   6.619   5.802
10935TIP3    H232683   0.721   6.650   5.940
10936TIP3   OH232684   0.732   8.206   4.689
10936TIP3    H132685   0.709   8.144   4.758
10936TIP3    H232686   0.725   8.156   4.608
10937TIP3   OH232687   0.699   8.056   4.923
10937TIP3    H132688   0.674   7.968   4.896
10937TIP3    H232689   0.766   8.043   4.990
10938TIP3   OH232690   0.727   7.775   5.565
10938TIP3    H132691   0.676   7.788   5.645
10938TIP3    H232692   0.774   7.858   5.553
10939TIP3   OH232693   0.580   7.282   4.140
10939TIP3    H132694   0.633   7.352   4.103
10939TIP3    H232695   0.633   7.247   4.212
10940TIP3   OH232696   0.728   7.155   4.333
10940TIP3    H132697   0.669   7.107   4.392
10940TIP3    H232698   0.793   7.194   4.392
10941TIP3   OH232699   0.748   7.545   4.780
10941TIP3    H132700   0.798   7.473   4.743
10941TIP3    H232701   0.765   7.619   4.721
10942TIP3   OH232702   0.514   7.840   4.997
10942TIP3    H132703   0.524   7.926   5.038
10942TIP3    H232704   0.482   7.859   4.909
10943TIP3   OH232705   0.598   7.054   3.989
10943TIP3    H132706   0.533   7.067   3.919
10943TIP3    H232707   0.589   7.132   4.044
10944TIP3   OH232708   0.545   6.669   3.905
10944TIP3    H132709   0.597   6.682   3.826
10944TIP3    H232710   0.505   6.582   3.894
10945TIP3   OH232711   0.572   6.998   4.492
10945TIP3    H132712   0.549   6.908   4.468
10945TIP3    H232713   0.518   7.016   4.570
10946TIP3   OH232714   0.480   6.396   3.869
10946TIP3    H132715   0.541   6.391   3.942
10946TIP3    H232716   0.407   6.341   3.895
10947TIP3   OH232717   0.542   6.732   4.377
10947TIP3    H132718   0.587   6.649   4.395
10947TIP3    H232719   0.586   6.767   4.299
10948TIP3   OH232720   0.714   6.887   4.867
10948TIP3    H132721   0.768   6.949   4.819
10948TIP3    H232722   0.774   6.818   4.894
10949TIP3   OH232723   0.728   7.108   5.062
10949TIP3    H132724   0.669   7.048   5.108
10949TIP3    H232725   0.750   7.062   4.981
10950TIP3   OH232726   1.180   6.639   5.652
10950TIP3    H132727   1.242   6.582   5.607
10950TIP3    H232728   1.142   6.692   5.582
10951TIP3   OH232729   0.646   6.478   4.415
10951TIP3    H132730   0.678   6.457   4.503
10951TIP3    H232731   0.578   6.412   4.399
10952TIP3   OH232732   1.040   6.756   5.441
10952TIP3    H132733   0.961   6.802   5.412
10952TIP3    H232734   1.030   6.667   5.407
10953TIP3   OH232735   0.685   6.386   4.053
10953TIP3    H132736   0.737   6.328   3.998
10953TIP3    H232737   0.736   6.467   4.058
10954TIP3   OH232738   0.966   6.505   5.359
10954TIP3    H132739   0.873   6.510   5.336
10954TIP3    H232740   0.990   6.414   5.341
10955TIP3   OH232741   0.065   6.385   4.980
10955TIP3    H132742   0.095   6.350   5.064
10955TIP3    H232743   0.080   6.315   4.917
10956TIP3   OH232744   0.656   6.343   4.878
10956TIP3    H132745   0.712   6.378   4.809
10956TIP3    H232746   0.567   6.358   4.847
10957TIP3   OH232747   0.785   6.399   4.644
10957TIP3    H132748   0.854   6.343   4.609
10957TIP3    H232749   0.818   6.488   4.634
10958TIP3   OH232750   0.415   6.385   4.746
10958TIP3    H132751   0.341   6.324   4.739
10958TIP3    H232752   0.379   6.462   4.790
10959TIP3   OH232753   0.436   6.301   4.382
10959TIP3    H132754   0.379   6.365   4.426
10959TIP3    H232755   0.422   6.220   4.432
10960TIP3   OH232756   0.387   7.879   4.054
10960TIP3    H132757   0.373   7.785   4.066
10960TIP3    H232758   0.299   7.916   4.053
10961TIP3   OH232759   0.703   6.424   5.762
10961TIP3    H132760   0.722   6.418   5.856
10961TIP3    H232761   0.787   6.443   5.722
10962TIP3   OH232762   0.597   8.035   5.229
10962TIP3    H132763   0.553   7.997   5.305
10962TIP3    H232764   0.594   8.129   5.245
10963TIP3   OH232765   1.869   7.422   4.023
10963TIP3    H132766   1.840   7.510   3.997
10963TIP3    H232767   1.798   7.365   3.996
10964TIP3   OH232768   1.864   7.417   4.448
10964TIP3    H132769   1.920   7.400   4.524
10964TIP3    H232770   1.820   7.333   4.432
10965TIP3   OH232771   1.180   7.326   4.829
10965TIP3    H132772   1.207   7.250   4.881
10965TIP3    H232773   1.245   7.332   4.759
10966TIP3   OH232774   2.137   7.722   4.121
10966TIP3    H132775   2.125   7.656   4.190
10966TIP3    H232776   2.156   7.803   4.168
10967TIP3   OH232777   1.143   7.698   4.490
10967TIP3    H132778   1.132   7.603   4.484
10967TIP3    H232779   1.237   7.712   4.482
10968TIP3   OH232780   0.858   6.921   4.251
10968TIP3    H132781   0.823   7.006   4.276
10968TIP3    H232782   0.786   6.877   4.206
10969TIP3   OH232783   0.944   7.237   4.485
10969TIP3    H132784   0.993   7.157   4.505
10969TIP3    H232785   1.011   7.300   4.458
10970TIP3   OH232786   1.803   8.139   4.142
10970TIP3    H132787   1.827   8.077   4.073
10970TIP3    H232788   1.810   8.089   4.223
10971TIP3   OH232789   1.672   7.635   4.456
10971TIP3    H132790   1.719   7.558   4.427
10971TIP3    H232791   1.740   7.695   4.486
10972TIP3   OH232792   2.679   6.974   4.477
10972TIP3    H132793   2.710   7.046   4.532
10972TIP3    H232794   2.672   7.011   4.389
10973TIP3   OH232795   2.075   7.122   4.486
10973TIP3    H132796   2.107   7.037   4.513
10973TIP3    H232797   2.039   7.108   4.399
10974TIP3   OH232798   1.442   6.781   4.438
10974TIP3    H132799   1.419   6.855   4.382
10974TIP3    H232800   1.387   6.709   4.408
10975TIP3   OH232801   2.130   6.888   4.082
10975TIP3    H132802   2.192   6.882   4.154
10975TIP3    H232803   2.181   6.923   4.009
10976TIP3   OH232804   1.076   7.012   4.577
10976TIP3    H132805   1.158   6.984   4.619
10976TIP3    H232806   1.069   6.956   4.499
10977TIP3   OH232807   1.473   7.198   4.401
10977TIP3    H132808   1.568   7.186   4.403
10977TIP3    H232809   1.439   7.117   4.364
10978TIP3   OH232810   2.761   7.179   4.638
10978TIP3    H132811   2.675   7.222   4.642
10978TIP3    H232812   2.810   7.217   4.711
10979TIP3   OH232813   1.422   6.787   4.896
10979TIP3    H132814   1.370   6.823   4.824
10979TIP3    H232815   1.369   6.804   4.974
10980TIP3   OH232816   1.769   7.640   3.884
10980TIP3    H132817   1.729   7.610   3.802
10980TIP3    H232818   1.717   7.715   3.910
10981TIP3   OH232819   1.511   7.557   4.667
10981TIP3    H132820   1.457   7.629   4.700
10981TIP3    H232821   1.560   7.594   4.594
10982TIP3   OH232822   2.282   6.912   4.307
10982TIP3    H132823   2.241   6.887   4.390
10982TIP3    H232824   2.336   6.988   4.329
10983TIP3   OH232825   1.318   6.893   4.661
10983TIP3    H132826   1.373   6.967   4.684
10983TIP3    H232827   1.365   6.851   4.588
10984TIP3   OH232828   1.353   7.755   4.774
10984TIP3    H132829   1.340   7.845   4.746
10984TIP3    H232830   1.277   7.735   4.829
10985TIP3   OH232831   0.737   7.474   4.019
10985TIP3    H132832   0.704   7.495   3.932
10985TIP3    H232833   0.759   7.558   4.058
10986TIP3   OH232834   2.163   7.965   4.263
10986TIP3    H132835   2.075   7.961   4.298
10986TIP3    H232836   2.166   8.048   4.216
10987TIP3   OH232837   2.485   6.852   4.637
10987TIP3    H132838   2.401   6.863   4.592
10987TIP3    H232839   2.550   6.881   4.574
10988TIP3   OH232840   1.761   6.477   4.630
10988TIP3    H132841   1.754   6.385   4.655
10988TIP3    H232842   1.683   6.518   4.668
10989TIP3   OH232843   1.883   7.996   3.918
10989TIP3    H132844   1.938   7.919   3.905
10989TIP3    H232845   1.938   8.069   3.889
10990TIP3   OH232846   2.020   7.766   3.875
10990TIP3    H132847   1.945   7.707   3.876
10990TIP3    H232848   2.070   7.743   3.954
10991TIP3   OH232849   2.398   7.858   4.603
10991TIP3    H132850   2.385   7.782   4.546
10991TIP3    H232851   2.385   7.934   4.547
10992TIP3   OH232852   1.694   7.263   3.875
10992TIP3    H132853   1.610   7.306   3.857
10992TIP3    H232854   1.740   7.264   3.792
10993TIP3   OH232855   1.664   7.075   3.555
10993TIP3    H132856   1.728   7.124   3.608
10993TIP3    H232857   1.715   7.005   3.515
10994TIP3   OH232858   2.580   7.506   4.468
10994TIP3    H132859   2.498   7.555   4.467
10994TIP3    H232860   2.624   7.530   4.387
10995TIP3   OH232861   2.055   7.351   3.835
10995TIP3    H132862   2.001   7.381   3.908
10995TIP3    H232863   2.140   7.331   3.874
10996TIP3   OH232864   2.281   7.379   4.791
10996TIP3    H132865   2.279   7.466   4.831
10996TIP3    H232866   2.202   7.375   4.737
10997TIP3   OH232867   1.278   7.327   4.237
10997TIP3    H132868   1.241   7.267   4.172
10997TIP3    H232869   1.350   7.279   4.276
10998TIP3   OH232870   1.409   7.745   4.391
10998TIP3    H132871   1.385   7.736   4.298
10998TIP3    H232872   1.498   7.710   4.396
10999TIP3   OH232873   1.371   7.329   4.620
10999TIP3    H132874   1.409   7.290   4.542
10999TIP3    H232875   1.423   7.408   4.635
11000TIP3   OH232876   1.921   7.964   4.388
11000TIP3    H132877   1.910   8.045   4.438
11000TIP3    H232878   1.907   7.894   4.452
11001TIP3   OH232879   1.553   7.857   4.940
11001TIP3    H132880   1.494   7.917   4.986
11001TIP3    H232881   1.496   7.805   4.883
11002TIP3   OH232882   1.884   7.214   3.668
11002TIP3    H132883   1.943   7.272   3.715
11002TIP3    H232884   1.915   7.216   3.577
11003TIP3   OH232885   1.325   7.430   5.064
11003TIP3    H132886   1.315   7.515   5.106
11003TIP3    H232887   1.263   7.432   4.991
11004TIP3   OH232888   1.634   7.877   3.924
11004TIP3    H132889   1.715   7.927   3.933
11004TIP3    H232890   1.575   7.934   3.875
11005TIP3   OH232891   1.350   8.022   5.024
11005TIP3    H132892   1.326   8.034   4.932
11005TIP3    H232893   1.266   8.011   5.069
11006TIP3   OH232894   2.396   6.442   3.729
11006TIP3    H132895   2.319   6.463   3.781
11006TIP3    H232896   2.406   6.516   3.669
11007TIP3   OH232897   1.152   7.169   4.039
11007TIP3    H132898   1.077   7.220   4.009
11007TIP3    H232899   1.118   7.080   4.051
11008TIP3   OH232900   2.223   7.814   3.282
11008TIP3    H132901   2.217   7.907   3.262
11008TIP3    H232902   2.313   7.790   3.260
11009TIP3   OH232903   0.944   7.537   4.975
11009TIP3    H132904   0.872   7.553   4.914
11009TIP3    H232905   0.987   7.459   4.941
11010TIP3   OH232906   0.873   7.746   4.621
11010TIP3    H132907   0.952   7.725   4.572
11010TIP3    H232908   0.894   7.826   4.669
11011TIP3   OH232909   2.633   8.206   4.680
11011TIP3    H132910   2.636   8.113   4.699
11011TIP3    H232911   2.555   8.238   4.724
11012TIP3   OH232912   1.741   8.000   4.800
11012TIP3    H132913   1.735   8.091   4.829
11012TIP3    H232914   1.672   7.954   4.848
11013TIP3   OH232915   1.523   8.079   3.757
11013TIP3    H132916   1.482   8.069   3.672
11013TIP3    H232917   1.492   8.164   3.789
11014TIP3   OH232918   0.958   7.948   4.131
11014TIP3    H132919   1.003   7.945   4.215
11014TIP3    H232920   0.909   7.866   4.127
11015TIP3   OH232921   1.731   8.031   3.387
11015TIP3    H132922   1.784   7.960   3.352
11015TIP3    H232923   1.764   8.045   3.476
11016TIP3   OH232924   1.778   8.067   3.655
11016TIP3    H132925   1.692   8.068   3.696
11016TIP3    H232926   1.837   8.034   3.724
11017TIP3   OH232927   2.521   7.326   4.954
11017TIP3    H132928   2.444   7.351   4.903
11017TIP3    H232929   2.538   7.236   4.929
11018TIP3   OH232930   1.144   7.732   4.950
11018TIP3    H132931   1.192   7.731   5.033
11018TIP3    H232932   1.070   7.672   4.963
11019TIP3   OH232933   1.522   6.569   4.753
11019TIP3    H132934   1.439   6.534   4.722
11019TIP3    H232935   1.499   6.649   4.799
11020TIP3   OH232936   2.056   6.709   4.963
11020TIP3    H132937   2.123   6.668   5.018
11020TIP3    H232938   1.973   6.684   5.003
11021TIP3   OH232939   2.279   7.116   4.891
11021TIP3    H132940   2.240   7.114   4.978
11021TIP3    H232941   2.265   7.205   4.860
11022TIP3   OH232942   1.965   7.179   3.406
11022TIP3    H132943   1.919   7.192   3.323
11022TIP3    H232944   2.047   7.227   3.396
11023TIP3   OH232945   1.668   6.613   3.717
11023TIP3    H132946   1.634   6.623   3.806
11023TIP3    H232947   1.634   6.529   3.688
11024TIP3   OH232948   1.459   7.106   4.760
11024TIP3    H132949   1.419   7.114   4.846
11024TIP3    H232950   1.434   7.187   4.715
11025TIP3   OH232951   1.338   6.986   4.287
11025TIP3    H132952   1.251   6.959   4.314
11025TIP3    H232953   1.346   6.954   4.197
11026TIP3   OH232954   1.815   7.058   4.011
11026TIP3    H132955   1.769   7.131   3.970
11026TIP3    H232956   1.874   7.026   3.942
11027TIP3   OH232957   2.016   7.322   5.078
11027TIP3    H132958   1.985   7.262   5.147
11027TIP3    H232959   2.107   7.341   5.102
11028TIP3   OH232960   1.981   7.072   4.234
11028TIP3    H132961   1.913   7.093   4.170
11028TIP3    H232962   2.030   6.999   4.195
11029TIP3   OH232963   1.293   7.122   4.983
11029TIP3    H132964   1.340   7.176   5.046
11029TIP3    H232965   1.281   7.038   5.028
11030TIP3   OH232966   1.338   6.593   3.706
11030TIP3    H132967   1.330   6.598   3.801
11030TIP3    H232968   1.260   6.637   3.672
11031TIP3   OH232969   0.902   6.629   4.566
11031TIP3    H132970   0.975   6.673   4.609
11031TIP3    H232971   0.932   6.615   4.476
11032TIP3   OH232972   0.825   6.625   4.067
11032TIP3    H132973   0.863   6.658   3.986
11032TIP3    H232974   0.760   6.691   4.092
11033TIP3   OH232975   2.035   7.327   4.659
11033TIP3    H132976   2.057   7.260   4.594
11033TIP3    H232977   1.986   7.281   4.726
11034TIP3   OH232978   1.710   6.771   4.334
11034TIP3    H132979   1.631   6.769   4.388
11034TIP3    H232980   1.782   6.760   4.397
11035TIP3   OH232981   1.104   6.856   4.353
11035TIP3    H132982   1.020   6.865   4.309
11035TIP3    H232983   1.133   6.767   4.332
11036TIP3   OH232984   1.351   6.864   4.041
11036TIP3    H132985   1.446   6.873   4.032
11036TIP3    H232986   1.317   6.881   3.954
11037TIP3   OH232987   2.145   6.860   4.546
11037TIP3    H132988   2.125   6.880   4.638
11037TIP3    H232989   2.078   6.797   4.520
11038TIP3   OH232990   1.244   6.886   3.791
11038TIP3    H132991   1.180   6.837   3.739
11038TIP3    H232992   1.297   6.932   3.726
11039TIP3   OH232993   2.356   8.559   4.763
11039TIP3    H132994   2.351   8.576   4.669
11039TIP3    H232995   2.432   8.609   4.792
11040TIP3   OH232996   1.289   7.679   5.185
11040TIP3    H132997   1.371   7.697   5.230
11040TIP3    H232998   1.221   7.694   5.251
11041TIP3   OH232999   1.749   7.148   4.440
11041TIP3    H133000   1.814   7.101   4.389
11041TIP3    H233001   1.749   7.104   4.525
11042TIP3   OH233002   1.247   6.610   4.323
11042TIP3    H133003   1.222   6.535   4.375
11042TIP3    H233004   1.262   6.575   4.235
11043TIP3   OH233005   1.723   7.046   4.703
11043TIP3    H133006   1.636   7.077   4.727
11043TIP3    H233007   1.783   7.099   4.756
11044TIP3   OH233008   1.455   7.393   3.821
11044TIP3    H133009   1.379   7.341   3.795
11044TIP3    H233010   1.428   7.437   3.901
11045TIP3   OH233011   2.349   7.652   4.426
11045TIP3    H133012   2.386   7.703   4.354
11045TIP3    H233013   2.269   7.614   4.389
11046TIP3   OH233014   1.922   6.719   3.721
11046TIP3    H133015   1.829   6.697   3.719
11046TIP3    H233016   1.924   6.813   3.736
11047TIP3   OH233017   1.864   7.735   4.846
11047TIP3    H133018   1.922   7.732   4.922
11047TIP3    H233019   1.827   7.823   4.847
11048TIP3   OH233020   1.980   6.983   3.795
11048TIP3    H133021   2.075   6.987   3.806
11048TIP3    H233022   1.958   7.061   3.745
11049TIP3   OH233023   1.155   7.418   4.465
11049TIP3    H133024   1.190   7.399   4.378
11049TIP3    H233025   1.223   7.391   4.525
11050TIP3   OH233026   1.612   7.553   3.666
11050TIP3    H133027   1.564   7.636   3.661
11050TIP3    H233028   1.555   7.496   3.718
11051TIP3   OH233029   1.791   7.491   5.112
11051TIP3    H133030   1.732   7.465   5.040
11051TIP3    H233031   1.874   7.447   5.092
11052TIP3   OH233032   2.010   8.028   4.727
11052TIP3    H133033   1.915   8.016   4.730
11052TIP3    H233034   2.031   8.067   4.812
11053TIP3   OH233035   2.400   7.070   3.617
11053TIP3    H133036   2.341   7.025   3.557
11053TIP3    H233037   2.408   7.159   3.582
11054TIP3   OH233038   2.643   7.923   4.704
11054TIP3    H133039   2.548   7.914   4.689
11054TIP3    H233040   2.682   7.905   4.619
11055TIP3   OH233041   2.132   7.880   3.545
11055TIP3    H133042   2.107   7.808   3.602
11055TIP3    H233043   2.156   7.838   3.462
11056TIP3   OH233044   2.118   7.522   4.321
11056TIP3    H133045   2.027   7.502   4.346
11056TIP3    H233046   2.150   7.441   4.282
11057TIP3   OH233047   1.277   7.754   4.144
11057TIP3    H133048   1.281   7.830   4.085
11057TIP3    H233049   1.183   7.744   4.163
11058TIP3   OH233050   0.839   7.043   3.856
11058TIP3    H133051   0.879   7.128   3.876
11058TIP3    H233052   0.756   7.044   3.903
11059TIP3   OH233053   1.355   7.511   4.041
11059TIP3    H133054   1.342   7.600   4.073
11059TIP3    H233055   1.328   7.455   4.114
11060TIP3   OH233056   1.557   8.080   4.593
11060TIP3    H133057   1.588   8.156   4.543
11060TIP3    H233058   1.634   8.050   4.641
11061TIP3   OH233059   1.192   7.970   3.989
11061TIP3    H133060   1.103   7.976   4.026
11061TIP3    H233061   1.227   8.058   3.996
11062TIP3   OH233062   1.903   7.747   4.570
11062TIP3    H133063   1.889   7.741   4.664
11062TIP3    H233064   1.989   7.707   4.556
11063TIP3   OH233065   1.907   7.621   3.431
11063TIP3    H133066   1.957   7.593   3.508
11063TIP3    H233067   1.822   7.577   3.439
11064TIP3   OH233068   2.164   8.232   4.609
11064TIP3    H133069   2.095   8.168   4.629
11064TIP3    H233070   2.129   8.282   4.536
11065TIP3   OH233071   2.228   8.086   3.245
11065TIP3    H133072   2.279   8.156   3.205
11065TIP3    H233073   2.148   8.129   3.276
11066TIP3   OH233074   1.262   6.871   5.108
11066TIP3    H133075   1.168   6.886   5.112
11066TIP3    H233076   1.282   6.819   5.186
11067TIP3   OH233077   2.080   7.532   3.623
11067TIP3    H133078   2.065   7.481   3.703
11067TIP3    H233079   2.175   7.541   3.618
11068TIP3   OH233080   0.973   7.981   4.751
11068TIP3    H133081   1.037   7.937   4.806
11068TIP3    H233082   0.979   8.074   4.775
11069TIP3   OH233083   1.260   7.585   3.449
11069TIP3    H133084   1.269   7.494   3.422
11069TIP3    H233085   1.244   7.581   3.544
11070TIP3   OH233086   1.199   7.596   3.721
11070TIP3    H133087   1.262   7.571   3.789
11070TIP3    H233088   1.195   7.692   3.726
11071TIP3   OH233089   0.931   7.296   3.931
11071TIP3    H133090   0.866   7.345   3.981
11071TIP3    H233091   0.950   7.351   3.855
11072TIP3   OH233092   2.087   6.934   4.807
11072TIP3    H133093   2.167   6.977   4.838
11072TIP3    H233094   2.078   6.857   4.863
11073TIP3   OH233095   1.981   6.670   3.991
11073TIP3    H133096   1.962   6.689   3.899
11073TIP3    H233097   2.025   6.750   4.023
11074TIP3   OH233098   1.465   7.779   3.654
11074TIP3    H133099   1.382   7.805   3.694
11074TIP3    H233100   1.491   7.855   3.602
11075TIP3   OH233101   1.631   6.868   4.086
11075TIP3    H133102   1.692   6.936   4.058
11075TIP3    H233103   1.657   6.846   4.175
11076TIP3   OH233104   1.925   7.165   4.854
11076TIP3    H133105   1.954   7.209   4.933
11076TIP3    H233106   1.977   7.085   4.850
11077TIP3   OH233107   1.797   6.562   4.167
11077TIP3    H133108   1.775   6.639   4.219
11077TIP3    H233109   1.866   6.592   4.109
11078TIP3   OH233110   1.217   7.867   3.738
11078TIP3    H133111   1.201   7.940   3.679
11078TIP3    H233112   1.207   7.904   3.826
11079TIP3   OH233113   1.309   6.590   3.986
11079TIP3    H133114   1.298   6.681   4.012
11079TIP3    H233115   1.404   6.576   3.990
11080TIP3   OH233116   2.542   7.058   4.856
11080TIP3    H133117   2.448   7.066   4.871
11080TIP3    H233118   2.549   7.004   4.777
11081TIP3   OH233119   2.204   7.263   4.232
11081TIP3    H133120   2.126   7.207   4.241
11081TIP3    H233121   2.268   7.225   4.291
11082TIP3   OH233122   0.953   7.467   3.712
11082TIP3    H133123   1.025   7.529   3.720
11082TIP3    H233124   0.982   7.405   3.645
11083TIP3   OH233125   0.866   6.768   3.837
11083TIP3    H133126   0.874   6.862   3.849
11083TIP3    H233127   0.811   6.758   3.759
11084TIP3   OH233128   2.193   8.226   4.177
11084TIP3    H133129   2.151   8.280   4.110
11084TIP3    H233130   2.287   8.242   4.163
11085TIP3   OH233131   1.261   6.482   4.715
11085TIP3    H133132   1.235   6.449   4.630
11085TIP3    H233133   1.251   6.408   4.775
11086TIP3   OH233134   0.786   7.729   4.126
11086TIP3    H133135   0.745   7.766   4.204
11086TIP3    H233136   0.741   7.769   4.053
11087TIP3   OH233137   0.979   8.286   5.172
11087TIP3    H133138   1.058   8.293   5.226
11087TIP3    H233139   0.970   8.192   5.155
11088TIP3   OH233140   1.450   8.181   5.227
11088TIP3    H133141   1.542   8.157   5.236
11088TIP3    H233142   1.419   8.131   5.152
11089TIP3   OH233143   1.410   7.788   3.337
11089TIP3    H133144   1.363   7.718   3.382
11089TIP3    H233145   1.484   7.744   3.296
11090TIP3   OH233146   2.067   8.129   4.975
11090TIP3    H133147   2.081   8.059   5.039
11090TIP3    H233148   2.142   8.187   4.987
11091TIP3   OH233149   1.855   7.826   3.258
11091TIP3    H133150   1.890   7.762   3.319
11091TIP3    H233151   1.912   7.820   3.181
11092TIP3   OH233152   1.078   7.695   5.368
11092TIP3    H133153   1.100   7.603   5.381
11092TIP3    H233154   0.995   7.693   5.321
11093TIP3   OH233155   1.078   7.278   3.557
11093TIP3    H133156   1.127   7.256   3.636
11093TIP3    H233157   1.145   7.294   3.491
11094TIP3   OH233158   1.713   7.764   5.144
11094TIP3    H133159   1.667   7.784   5.063
11094TIP3    H233160   1.754   7.679   5.129
11095TIP3   OH233161   1.656   7.500   3.401
11095TIP3    H133162   1.631   7.511   3.493
11095TIP3    H233163   1.629   7.410   3.380
11096TIP3   OH233164   2.174   7.803   4.753
11096TIP3    H133165   2.252   7.829   4.705
11096TIP3    H233166   2.113   7.876   4.741
11097TIP3   OH233167   1.176   7.441   5.378
11097TIP3    H133168   1.235   7.389   5.323
11097TIP3    H233169   1.221   7.448   5.462
11098TIP3   OH233170   1.246   7.219   3.772
11098TIP3    H133171   1.224   7.188   3.860
11098TIP3    H233172   1.295   7.147   3.733
11099TIP3   OH233173   1.545   7.276   5.012
11099TIP3    H133174   1.478   7.338   5.040
11099TIP3    H233175   1.597   7.324   4.947
11100TIP3   OH233176   1.394   7.039   3.618
11100TIP3    H133177   1.363   7.043   3.527
11100TIP3    H233178   1.488   7.050   3.612
11101TIP3   OH233179   2.059   7.678   5.107
11101TIP3    H133180   2.132   7.644   5.054
11101TIP3    H233181   2.061   7.624   5.186
11102TIP3   OH233182   2.182   7.319   3.306
11102TIP3    H133183   2.171   7.282   3.218
11102TIP3    H233184   2.162   7.412   3.294
11103TIP3   OH233185   1.674   7.067   5.131
11103TIP3    H133186   1.677   6.995   5.068
11103TIP3    H233187   1.631   7.139   5.083
11104TIP3   OH233188   1.681   6.870   4.928
11104TIP3    H133189   1.706   6.908   4.844
11104TIP3    H233190   1.590   6.843   4.915
11105TIP3   OH233191   1.688   7.439   4.845
11105TIP3    H133192   1.773   7.474   4.816
11105TIP3    H233193   1.625   7.479   4.785
11106TIP3   OH233194   2.282   7.377   5.174
11106TIP3    H133195   2.348   7.312   5.153
11106TIP3    H233196   2.330   7.460   5.178
11107TIP3   OH233197   2.304   7.630   4.916
11107TIP3    H133198   2.249   7.690   4.866
11107TIP3    H233199   2.393   7.647   4.886
11108TIP3   OH233200   1.563   7.149   5.379
11108TIP3    H133201   1.492   7.089   5.401
11108TIP3    H233202   1.587   7.126   5.289
11109TIP3   OH233203   1.796   6.640   5.034
11109TIP3    H133204   1.756   6.720   5.000
11109TIP3    H233205   1.730   6.572   5.021
11110TIP3   OH233206   1.921   7.118   5.242
11110TIP3    H133207   1.901   7.104   5.335
11110TIP3    H233208   1.839   7.100   5.197
11111TIP3   OH233209   2.166   7.056   5.132
11111TIP3    H133210   2.082   7.078   5.172
11111TIP3    H233211   2.183   6.966   5.159
11112TIP3   OH233212   1.399   6.931   5.444
11112TIP3    H133213   1.397   6.842   5.410
11112TIP3    H233214   1.435   6.923   5.532
11113TIP3   OH233215   1.851   6.606   5.301
11113TIP3    H133216   1.921   6.541   5.297
11113TIP3    H233217   1.825   6.619   5.210
11114TIP3   OH233218   1.941   6.814   5.454
11114TIP3    H133219   1.908   6.744   5.398
11114TIP3    H233220   1.873   6.882   5.451
11115TIP3   OH233221   1.225   8.079   3.563
11115TIP3    H133222   1.312   8.057   3.530
11115TIP3    H233223   1.178   8.113   3.487
11116TIP3   OH233224   0.679   7.470   3.734
11116TIP3    H133225   0.773   7.483   3.727
11116TIP3    H233226   0.663   7.386   3.690
11117TIP3   OH233227   0.573   8.034   4.185
11117TIP3    H133228   0.515   7.985   4.127
11117TIP3    H233229   0.609   7.968   4.245
11118TIP3   OH233230   0.713   7.863   4.362
11118TIP3    H133231   0.705   7.798   4.433
11118TIP3    H233232   0.765   7.933   4.399
11119TIP3   OH233233   2.463   8.280   4.168
11119TIP3    H133234   2.488   8.307   4.256
11119TIP3    H233235   2.519   8.334   4.110
11120TIP3   OH233236   2.490   8.302   4.448
11120TIP3    H133237   2.441   8.220   4.443
11120TIP3    H233238   2.558   8.286   4.513
11121TIP3   OH233239   2.539   8.019   5.027
11121TIP3    H133240   2.467   8.030   5.089
11121TIP3    H233241   2.585   8.103   5.030
11122TIP3   OH233242   2.360   7.533   3.628
11122TIP3    H133243   2.415   7.604   3.596
11122TIP3    H233244   2.407   7.497   3.702
11123TIP3   OH233245   2.493   7.394   3.829
11123TIP3    H133246   2.425   7.360   3.887
11123TIP3    H233247   2.555   7.438   3.887
11124TIP3   OH233248   2.530   7.797   4.272
11124TIP3    H133249   2.584   7.730   4.230
11124TIP3    H233250   2.535   7.872   4.214
11125TIP3   OH233251   2.334   8.075   4.453
11125TIP3    H133252   2.269   8.123   4.505
11125TIP3    H233253   2.284   8.036   4.382
11126TIP3   OH233254   2.397   7.307   3.476
11126TIP3    H133255   2.324   7.306   3.414
11126TIP3    H233256   2.382   7.386   3.529
11127TIP3   OH233257   2.242   6.952   3.427
11127TIP3    H133258   2.203   6.998   3.353
11127TIP3    H233259   2.235   6.859   3.404
11128TIP3   OH233260   2.286   7.260   3.966
11128TIP3    H133261   2.288   7.165   3.951
11128TIP3    H233262   2.262   7.269   4.059
11129TIP3   OH233263   0.922   7.340   4.736
11129TIP3    H133264   0.920   7.315   4.643
11129TIP3    H233265   1.015   7.340   4.759
11130TIP3   OH233266   2.566   7.672   4.832
11130TIP3    H133267   2.629   7.603   4.811
11130TIP3    H233268   2.593   7.747   4.779
11131TIP3   OH233269   2.729   7.449   4.816
11131TIP3    H133270   2.660   7.410   4.869
11131TIP3    H233271   2.807   7.399   4.838
11132TIP3   OH233272   2.213   6.678   3.379
11132TIP3    H133273   2.275   6.657   3.449
11132TIP3    H233274   2.129   6.645   3.411
11133TIP3   OH233275   2.275   6.979   3.855
11133TIP3    H133276   2.320   6.896   3.868
11133TIP3    H233277   2.316   7.018   3.779
11134TIP3   OH233278   2.415   7.146   4.381
11134TIP3    H133279   2.496   7.164   4.334
11134TIP3    H233280   2.430   7.182   4.468
11135TIP3   OH233281   2.496   7.289   4.613
11135TIP3    H133282   2.424   7.320   4.667
11135TIP3    H233283   2.528   7.366   4.567
11136TIP3   OH233284   1.142   7.024   5.418
11136TIP3    H133285   1.236   7.006   5.422
11136TIP3    H233286   1.101   6.938   5.433
11137TIP3   OH233287   2.957   6.899   5.133
11137TIP3    H133288   3.026   6.841   5.100
11137TIP3    H233289   2.923   6.942   5.055
11138TIP3   OH233290   2.395   6.731   3.910
11138TIP3    H133291   2.438   6.713   3.994
11138TIP3    H233292   2.332   6.659   3.900
11139TIP3   OH233293   1.114   6.715   4.729
11139TIP3    H133294   1.163   6.633   4.732
11139TIP3    H233295   1.178   6.781   4.703
11140TIP3   OH233296   0.891   7.067   4.781
11140TIP3    H133297   0.951   7.039   4.712
11140TIP3    H233298   0.889   7.163   4.774
11141TIP3   OH233299   2.804   6.997   4.923
11141TIP3    H133300   2.714   7.031   4.917
11141TIP3    H233301   2.801   6.913   4.876
11142TIP3   OH233302   2.438   6.638   3.540
11142TIP3    H133303   2.487   6.577   3.485
11142TIP3    H233304   2.491   6.717   3.541
11143TIP3   OH233305   0.902   6.507   4.300
11143TIP3    H133306   0.815   6.489   4.338
11143TIP3    H233307   0.883   6.556   4.220
11144TIP3   OH233308   2.014   8.204   3.809
11144TIP3    H133309   2.070   8.193   3.733
11144TIP3    H233310   2.059   8.269   3.863
11145TIP3   OH233311   1.095   6.567   5.113
11145TIP3    H133312   1.042   6.552   5.191
11145TIP3    H233313   1.034   6.603   5.049
11146TIP3   OH233314   1.118   8.000   5.175
11146TIP3    H133315   1.027   7.974   5.164
11146TIP3    H233316   1.131   8.003   5.270
11147TIP3   OH233317   1.332   8.027   4.742
11147TIP3    H133318   1.276   8.097   4.708
11147TIP3    H233319   1.416   8.040   4.699
11148TIP3   OH233320   1.735   8.262   4.880
11148TIP3    H133321   1.772   8.260   4.969
11148TIP3    H233322   1.797   8.315   4.830
11149TIP3   OH233323   1.924   8.411   4.750
11149TIP3    H133324   1.982   8.359   4.693
11149TIP3    H233325   1.984   8.461   4.805
11150TIP3   OH233326   2.733   6.739   4.829
11150TIP3    H133327   2.644   6.717   4.803
11150TIP3    H233328   2.781   6.657   4.827
11151TIP3   OH233329   0.982   8.266   4.785
11151TIP3    H133330   0.893   8.272   4.749
11151TIP3    H233331   0.990   8.344   4.840
11152TIP3   OH233332   1.213   8.245   4.635
11152TIP3    H133333   1.132   8.261   4.684
11152TIP3    H233334   1.195   8.275   4.547
11153TIP3   OH233335   1.632   8.290   4.428
11153TIP3    H133336   1.569   8.299   4.356
11153TIP3    H233337   1.640   8.378   4.464
11154TIP3   OH233338   1.890   8.219   4.486
11154TIP3    H133339   1.800   8.242   4.462
11154TIP3    H233340   1.944   8.282   4.438
11155TIP3   OH233341   2.094   8.377   4.384
11155TIP3    H133342   2.088   8.465   4.347
11155TIP3    H233343   2.126   8.322   4.312
11156TIP3   OH233344   0.885   8.041   4.491
11156TIP3    H133345   0.910   8.031   4.583
11156TIP3    H233346   0.963   8.012   4.442
11157TIP3   OH233347   1.104   7.941   4.365
11157TIP3    H133348   1.118   7.857   4.409
11157TIP3    H233349   1.189   7.984   4.367
11158TIP3   OH233350   1.371   8.024   4.392
11158TIP3    H133351   1.392   7.932   4.381
11158TIP3    H233352   1.427   8.053   4.464
11159TIP3   OH233353   1.935   6.674   4.478
11159TIP3    H133354   1.892   6.604   4.527
11159TIP3    H233355   2.001   6.631   4.425
11160TIP3   OH233356   2.428   6.602   4.369
11160TIP3    H133357   2.464   6.652   4.296
11160TIP3    H233358   2.333   6.619   4.364
11161TIP3   OH233359   2.551   6.679   4.134
11161TIP3    H133360   2.616   6.614   4.108
11161TIP3    H233361   2.598   6.762   4.131
11162TIP3   OH233362   1.185   6.383   4.469
11162TIP3    H133363   1.096   6.348   4.474
11162TIP3    H233364   1.241   6.305   4.462
11163TIP3   OH233365   1.000   6.298   4.132
11163TIP3    H133366   1.028   6.343   4.052
11163TIP3    H233367   0.975   6.369   4.192
11164TIP3   OH233368   1.653   6.422   4.369
11164TIP3    H133369   1.702   6.467   4.300
11164TIP3    H233370   1.697   6.449   4.450
11165TIP3   OH233371   2.144   6.549   4.347
11165TIP3    H133372   2.166   6.511   4.262
11165TIP3    H233373   2.154   6.476   4.409
11166TIP3   OH233374   2.205   6.522   3.911
11166TIP3    H133375   2.125   6.568   3.936
11166TIP3    H233376   2.195   6.434   3.948
11167TIP3   OH233377   0.659   7.840   3.918
11167TIP3    H133378   0.566   7.824   3.908
11167TIP3    H233379   0.676   7.915   3.860
11168TIP3   OH233380   1.104   6.418   3.893
11168TIP3    H133381   1.150   6.356   3.837
11168TIP3    H233382   1.173   6.475   3.928
11169TIP3   OH233383   1.585   6.618   3.982
11169TIP3    H133384   1.643   6.564   4.035
11169TIP3    H233385   1.600   6.707   4.014
11170TIP3   OH233386   1.475   8.007   3.484
11170TIP3    H133387   1.560   8.033   3.448
11170TIP3    H233388   1.444   7.938   3.425
11171TIP3   OH233389   2.161   8.149   3.580
11171TIP3    H133390   2.154   8.054   3.573
11171TIP3    H233391   2.124   8.182   3.499
11172TIP3   OH233392   1.404   6.663   5.358
11172TIP3    H133393   1.369   6.594   5.415
11172TIP3    H233394   1.495   6.671   5.384
11173TIP3   OH233395   1.648   6.670   5.486
11173TIP3    H133396   1.720   6.639   5.430
11173TIP3    H233397   1.638   6.600   5.551
11174TIP3   OH233398   0.758   7.836   3.536
11174TIP3    H133399   0.756   7.884   3.619
11174TIP3    H233400   0.846   7.799   3.532
11175TIP3   OH233401   2.386   8.285   4.771
11175TIP3    H133402   2.310   8.258   4.720
11175TIP3    H233403   2.379   8.381   4.776
11176TIP3   OH233404   3.661   7.676   3.508
11176TIP3    H133405   3.625   7.762   3.489
11176TIP3    H233406   3.593   7.614   3.482
11177TIP3   OH233407   3.668   7.680   3.942
11177TIP3    H133408   3.727   7.662   4.015
11177TIP3    H233409   3.629   7.596   3.921
11178TIP3   OH233410   2.958   7.507   4.274
11178TIP3    H133411   2.987   7.469   4.357
11178TIP3    H233412   3.031   7.562   4.246
11179TIP3   OH233413   3.935   7.981   3.602
11179TIP3    H133414   3.922   7.913   3.668
11179TIP3    H233415   3.952   8.061   3.653
11180TIP3   OH233416   2.957   7.949   3.956
11180TIP3    H133417   2.941   7.855   3.966
11180TIP3    H233418   3.052   7.956   3.948
11181TIP3   OH233419   2.646   7.164   3.762
11181TIP3    H133420   2.612   7.250   3.785
11181TIP3    H233421   2.573   7.120   3.718
11182TIP3   OH233422   2.714   7.490   3.971
11182TIP3    H133423   2.763   7.413   4.000
11182TIP3    H233424   2.781   7.555   3.950
11183TIP3   OH233425   3.604   8.388   3.631
11183TIP3    H133426   3.621   8.325   3.561
11183TIP3    H233427   3.617   8.337   3.712
11184TIP3   OH233428   3.471   7.888   3.948
11184TIP3    H133429   3.524   7.812   3.922
11184TIP3    H233430   3.536   7.952   3.977
11185TIP3   OH233431   4.507   7.213   3.957
11185TIP3    H133432   4.523   7.298   3.998
11185TIP3    H233433   4.528   7.226   3.865
11186TIP3   OH233434   3.879   7.373   3.976
11186TIP3    H133435   3.918   7.288   3.997
11186TIP3    H233436   3.835   7.359   3.893
11187TIP3   OH233437   3.953   7.212   3.592
11187TIP3    H133438   4.018   7.175   3.652
11187TIP3    H233439   3.990   7.200   3.505
11188TIP3   OH233440   2.860   7.289   4.095
11188TIP3    H133441   2.921   7.341   4.148
11188TIP3    H233442   2.913   7.216   4.063
11189TIP3   OH233443   3.292   7.425   3.862
11189TIP3    H133444   3.385   7.447   3.873
11189TIP3    H233445   3.291   7.330   3.853
11190TIP3   OH233446   4.561   7.437   4.118
11190TIP3    H133447   4.471   7.471   4.114
11190TIP3    H233448   4.596   7.472   4.199
11191TIP3   OH233449   3.220   7.078   4.355
11191TIP3    H133450   3.206   7.158   4.304
11191TIP3    H233451   3.157   7.084   4.427
11192TIP3   OH233452   3.518   7.881   3.397
11192TIP3    H133453   3.499   7.866   3.304
11192TIP3    H233454   3.480   7.967   3.416
11193TIP3   OH233455   3.307   7.803   4.155
11193TIP3    H133456   3.253   7.875   4.187
11193TIP3    H233457   3.358   7.841   4.084
11194TIP3   OH233458   4.124   7.155   3.797
11194TIP3    H133459   4.073   7.132   3.875
11194TIP3    H233460   4.166   7.238   3.820
11195TIP3   OH233461   3.153   8.011   4.255
11195TIP3    H133462   3.145   8.101   4.222
11195TIP3    H233463   3.074   7.998   4.307
11196TIP3   OH233464   2.531   7.719   3.510
11196TIP3    H133465   2.500   7.742   3.423
11196TIP3    H233466   2.555   7.802   3.551
11197TIP3   OH233467   3.959   8.222   3.753
11197TIP3    H133468   3.870   8.218   3.786
11197TIP3    H233469   3.963   8.305   3.705
11198TIP3   OH233470   4.304   7.105   4.123
11198TIP3    H133471   4.219   7.119   4.081
11198TIP3    H233472   4.368   7.131   4.058
11199TIP3   OH233473   3.534   6.731   4.108
11199TIP3    H133474   3.536   6.641   4.142
11199TIP3    H233475   3.463   6.774   4.156
11200TIP3   OH233476   3.673   8.245   3.403
11200TIP3    H133477   3.727   8.167   3.389
11200TIP3    H233478   3.728   8.318   3.375
11201TIP3   OH233479   3.835   8.036   3.350
11201TIP3    H133480   3.844   7.959   3.293
11201TIP3    H233481   3.873   8.009   3.434
11202TIP3   OH233482   4.206   8.109   4.095
11202TIP3    H133483   4.186   8.036   4.037
11202TIP3    H233484   4.191   8.187   4.041
11203TIP3   OH233485   3.486   7.515   3.360
11203TIP3    H133486   3.407   7.565   3.338
11203TIP3    H233487   3.537   7.515   3.279
11204TIP3   OH233488   3.455   7.338   3.044
11204TIP3    H133489   3.520   7.383   3.097
11204TIP3    H233490   3.505   7.269   2.999
11205TIP3   OH233491   4.379   7.780   3.961
11205TIP3    H133492   4.293   7.824   3.956
11205TIP3    H233493   4.415   7.791   3.873
11206TIP3   OH233494   3.850   7.613   3.320
11206TIP3    H133495   3.795   7.638   3.394
11206TIP3    H233496   3.931   7.583   3.360
11207TIP3   OH233497   4.081   7.635   4.275
11207TIP3    H133498   4.075   7.719   4.321
11207TIP3    H233499   4.001   7.631   4.223
11208TIP3   OH233500   3.085   7.570   3.732
11208TIP3    H133501   3.051   7.517   3.660
11208TIP3    H233502   3.166   7.526   3.757
11209TIP3   OH233503   3.220   8.001   3.870
11209TIP3    H133504   3.202   7.993   3.777
11209TIP3    H233505   3.308   7.965   3.881
11210TIP3   OH233506   3.182   7.566   4.089
11210TIP3    H133507   3.226   7.534   4.010
11210TIP3    H233508   3.230   7.646   4.112
11211TIP3   OH233509   3.713   8.226   3.874
11211TIP3    H133510   3.703   8.305   3.927
11211TIP3    H233511   3.702   8.153   3.935
11212TIP3   OH233512   3.348   8.117   4.426
11212TIP3    H133513   3.286   8.174   4.471
11212TIP3    H233514   3.294   8.064   4.367
11213TIP3   OH233515   3.679   7.468   3.159
11213TIP3    H133516   3.741   7.524   3.206
11213TIP3    H233517   3.707   7.474   3.067
11214TIP3   OH233518   3.103   7.689   4.555
11214TIP3    H133519   3.104   7.782   4.577
11214TIP3    H233520   3.011   7.666   4.554
11215TIP3   OH233521   3.419   8.139   3.415
11215TIP3    H133522   3.506   8.178   3.420
11215TIP3    H233523   3.368   8.199   3.361
11216TIP3   OH233524   3.136   8.273   4.510
11216TIP3    H133525   3.116   8.284   4.417
11216TIP3    H233526   3.050   8.266   4.552
11217TIP3   OH233527   4.180   6.697   3.219
11217TIP3    H133528   4.103   6.719   3.272
11217TIP3    H233529   4.191   6.773   3.162
11218TIP3   OH233530   2.955   7.412   3.535
11218TIP3    H133531   2.886   7.472   3.507
11218TIP3    H233532   2.918   7.325   3.519
11219TIP3   OH233533   4.019   8.072   2.769
11219TIP3    H133534   4.013   8.164   2.746
11219TIP3    H233535   4.109   8.047   2.746
11220TIP3   OH233536   2.734   7.841   4.462
11220TIP3    H133537   2.664   7.822   4.400
11220TIP3    H233538   2.766   7.755   4.490
11221TIP3   OH233539   2.582   8.030   4.127
11221TIP3    H133540   2.670   8.060   4.148
11221TIP3    H233541   2.525   8.104   4.147
11222TIP3   OH233542   4.438   8.489   4.164
11222TIP3    H133543   4.444   8.394   4.173
11222TIP3    H233544   4.357   8.512   4.209
11223TIP3   OH233545   3.538   8.262   4.288
11223TIP3    H133546   3.529   8.353   4.316
11223TIP3    H233547   3.470   8.215   4.337
11224TIP3   OH233548   3.321   8.336   3.240
11224TIP3    H133549   3.282   8.329   3.153
11224TIP3    H233550   3.293   8.422   3.272
11225TIP3   OH233551   2.751   8.202   3.623
11225TIP3    H133552   2.798   8.198   3.706
11225TIP3    H233553   2.706   8.117   3.616
11226TIP3   OH233554   3.525   8.291   2.867
11226TIP3    H133555   3.576   8.217   2.833
11226TIP3    H233556   3.558   8.304   2.956
11227TIP3   OH233557   3.575   8.323   3.136
11227TIP3    H133558   3.490   8.324   3.178
11227TIP3    H233559   3.635   8.288   3.203
11228TIP3   OH233560   4.324   7.588   4.425
11228TIP3    H133561   4.240   7.599   4.380
11228TIP3    H233562   4.341   7.494   4.421
11229TIP3   OH233563   2.934   8.028   4.424
11229TIP3    H133564   2.983   8.019   4.505
11229TIP3    H233565   2.861   7.967   4.434
11230TIP3   OH233566   3.310   6.841   4.242
11230TIP3    H133567   3.227   6.802   4.214
11230TIP3    H233568   3.286   6.927   4.275
11231TIP3   OH233569   3.856   6.955   4.440
11231TIP3    H133570   3.927   6.931   4.499
11231TIP3    H233571   3.776   6.936   4.489
11232TIP3   OH233572   4.067   7.365   4.354
11232TIP3    H133573   4.034   7.361   4.444
11232TIP3    H233574   4.061   7.458   4.330
11233TIP3   OH233575   3.755   7.470   2.897
11233TIP3    H133576   3.712   7.461   2.812
11233TIP3    H233577   3.839   7.510   2.876
11234TIP3   OH233578   3.482   6.857   3.233
11234TIP3    H133579   3.466   6.855   3.328
11234TIP3    H233580   3.441   6.776   3.200
11235TIP3   OH233581   3.213   7.331   4.235
11235TIP3    H133582   3.171   7.355   4.318
11235TIP3    H233583   3.203   7.408   4.180
11236TIP3   OH233584   3.099   7.199   3.772
11236TIP3    H133585   3.071   7.288   3.792
11236TIP3    H233586   3.135   7.204   3.683
11237TIP3   OH233587   3.600   7.307   3.500
11237TIP3    H133588   3.558   7.380   3.454
11237TIP3    H233589   3.664   7.273   3.438
11238TIP3   OH233590   3.805   7.580   4.567
11238TIP3    H133591   3.777   7.512   4.629
11238TIP3    H233592   3.897   7.595   4.587
11239TIP3   OH233593   3.758   7.338   3.731
11239TIP3    H133594   3.691   7.350   3.663
11239TIP3    H233595   3.824   7.282   3.691
11240TIP3   OH233596   3.081   7.364   4.475
11240TIP3    H133597   3.155   7.410   4.517
11240TIP3    H233598   3.069   7.285   4.528
11241TIP3   OH233599   3.140   6.848   3.181
11241TIP3    H133600   3.141   6.842   3.276
11241TIP3    H233601   3.059   6.895   3.161
11242TIP3   OH233602   2.713   6.886   4.065
11242TIP3    H133603   2.808   6.890   4.073
11242TIP3    H233604   2.698   6.868   3.972
11243TIP3   OH233605   2.586   6.874   3.550
11243TIP3    H133606   2.630   6.910   3.474
11243TIP3    H233607   2.520   6.940   3.574
11244TIP3   OH233608   3.834   7.578   4.147
11244TIP3    H133609   3.859   7.511   4.084
11244TIP3    H233610   3.786   7.530   4.215
11245TIP3   OH233611   3.467   7.099   3.863
11245TIP3    H133612   3.442   7.109   3.955
11245TIP3    H233613   3.544   7.043   3.865
11246TIP3   OH233614   2.869   6.998   3.794
11246TIP3    H133615   2.805   7.068   3.788
11246TIP3    H233616   2.817   6.918   3.799
11247TIP3   OH233617   3.148   7.079   3.533
11247TIP3    H133618   3.242   7.094   3.531
11247TIP3    H233619   3.117   7.107   3.447
11248TIP3   OH233620   3.963   7.108   4.021
11248TIP3    H133621   3.922   7.118   4.107
11248TIP3    H233622   3.920   7.031   3.984
11249TIP3   OH233623   3.044   7.144   3.283
11249TIP3    H133624   2.980   7.094   3.232
11249TIP3    H233625   3.098   7.189   3.218
11250TIP3   OH233626   4.150   8.820   4.251
11250TIP3    H133627   4.147   8.832   4.156
11250TIP3    H233628   4.227   8.870   4.279
11251TIP3   OH233629   3.081   7.946   4.661
11251TIP3    H133630   3.163   7.964   4.707
11251TIP3    H233631   3.013   7.957   4.728
11252TIP3   OH233632   3.561   7.418   3.927
11252TIP3    H133633   3.623   7.376   3.868
11252TIP3    H233634   3.563   7.366   4.006
11253TIP3   OH233635   3.140   6.843   3.823
11253TIP3    H133636   3.088   6.773   3.863
11253TIP3    H233637   3.230   6.808   3.822
11254TIP3   OH233638   3.509   7.305   4.189
11254TIP3    H133639   3.424   7.336   4.219
11254TIP3    H233640   3.572   7.354   4.242
11255TIP3   OH233641   3.248   7.655   3.303
11255TIP3    H133642   3.173   7.601   3.279
11255TIP3    H233643   3.222   7.695   3.386
11256TIP3   OH233644   4.143   7.915   3.911
11256TIP3    H133645   4.181   7.964   3.838
11256TIP3    H233646   4.065   7.873   3.874
11257TIP3   OH233647   3.678   7.017   3.131
11257TIP3    H133648   3.609   6.967   3.174
11257TIP3    H233649   3.709   7.078   3.198
11258TIP3   OH233650   3.665   7.995   4.331
11258TIP3    H133651   3.722   7.987   4.407
11258TIP3    H233652   3.629   8.084   4.338
11259TIP3   OH233653   3.775   7.231   3.290
11259TIP3    H133654   3.870   7.232   3.303
11259TIP3    H233655   3.758   7.310   3.238
11260TIP3   OH233656   2.947   7.654   3.956
11260TIP3    H133657   2.984   7.639   3.869
11260TIP3    H233658   3.016   7.628   4.017
11261TIP3   OH233659   3.407   7.810   3.144
11261TIP3    H133660   3.359   7.893   3.140
11261TIP3    H233661   3.352   7.753   3.198
11262TIP3   OH233662   2.835   7.622   4.604
11262TIP3    H133663   2.866   7.622   4.694
11262TIP3    H233664   2.771   7.550   4.600
11263TIP3   OH233665   3.588   7.754   4.591
11263TIP3    H133666   3.537   7.734   4.513
11263TIP3    H233667   3.669   7.704   4.580
11264TIP3   OH233668   3.808   8.286   4.218
11264TIP3    H133669   3.713   8.274   4.217
11264TIP3    H233670   3.828   8.323   4.304
11265TIP3   OH233671   4.189   7.325   3.094
11265TIP3    H133672   4.132   7.281   3.031
11265TIP3    H233673   4.195   7.415   3.061
11266TIP3   OH233674   4.449   8.212   4.179
11266TIP3    H133675   4.356   8.189   4.179
11266TIP3    H233676   4.483   8.178   4.096
11267TIP3   OH233677   3.931   8.143   3.028
11267TIP3    H133678   3.906   8.069   3.084
11267TIP3    H233679   3.956   8.102   2.945
11268TIP3   OH233680   3.917   7.780   3.804
11268TIP3    H133681   3.828   7.759   3.830
11268TIP3    H233682   3.952   7.698   3.768
11269TIP3   OH233683   3.078   8.011   3.627
11269TIP3    H133684   3.078   8.085   3.566
11269TIP3    H233685   2.991   8.012   3.667
11270TIP3   OH233686   2.636   7.302   3.336
11270TIP3    H133687   2.678   7.385   3.360
11270TIP3    H233688   2.554   7.302   3.386
11271TIP3   OH233689   3.142   7.761   3.529
11271TIP3    H133690   3.132   7.852   3.556
11271TIP3    H233691   3.123   7.710   3.608
11272TIP3   OH233692   3.358   8.336   4.078
11272TIP3    H133693   3.389   8.411   4.027
11272TIP3    H233694   3.434   8.307   4.127
11273TIP3   OH233695   2.983   8.229   3.478
11273TIP3    H133696   2.897   8.233   3.518
11273TIP3    H233697   3.017   8.318   3.484
11274TIP3   OH233698   3.700   8.009   4.055
11274TIP3    H133699   3.688   8.003   4.150
11274TIP3    H233700   3.781   7.961   4.038
11275TIP3   OH233701   3.707   7.880   2.934
11275TIP3    H133702   3.750   7.864   3.018
11275TIP3    H233703   3.623   7.835   2.941
11276TIP3   OH233704   3.965   8.484   4.099
11276TIP3    H133705   3.896   8.422   4.124
11276TIP3    H233706   3.927   8.534   4.026
11277TIP3   OH233707   4.013   8.343   2.722
11277TIP3    H133708   4.035   8.404   2.653
11277TIP3    H233709   3.939   8.384   2.767
11278TIP3   OH233710   3.054   7.110   4.588
11278TIP3    H133711   2.959   7.100   4.596
11278TIP3    H233712   3.090   7.050   4.654
11279TIP3   OH233713   3.878   7.832   3.154
11279TIP3    H133714   3.860   7.756   3.208
11279TIP3    H233715   3.972   7.825   3.133
11280TIP3   OH233716   2.782   8.226   4.239
11280TIP3    H133717   2.839   8.175   4.295
11280TIP3    H233718   2.792   8.316   4.270
11281TIP3   OH233719   3.050   7.843   2.938
11281TIP3    H133720   3.061   7.752   2.911
11281TIP3    H233721   3.039   7.838   3.033
11282TIP3   OH233722   2.996   7.850   3.212
11282TIP3    H133723   3.066   7.825   3.272
11282TIP3    H233724   2.993   7.946   3.218
11283TIP3   OH233725   2.736   7.549   3.426
11283TIP3    H133726   2.669   7.596   3.475
11283TIP3    H233727   2.756   7.606   3.352
11284TIP3   OH233728   3.874   7.181   4.281
11284TIP3    H133729   3.953   7.228   4.306
11284TIP3    H233730   3.871   7.105   4.340
11285TIP3   OH233731   3.259   8.035   3.140
11285TIP3    H133732   3.178   8.061   3.183
11285TIP3    H233733   3.286   8.113   3.091
11286TIP3   OH233734   3.414   7.124   3.592
11286TIP3    H133735   3.480   7.184   3.556
11286TIP3    H233736   3.438   7.115   3.684
11287TIP3   OH233737   3.717   7.416   4.340
11287TIP3    H133738   3.748   7.456   4.421
11287TIP3    H233739   3.769   7.336   4.333
11288TIP3   OH233740   3.012   8.121   3.230
11288TIP3    H133741   2.998   8.194   3.170
11288TIP3    H233742   3.002   8.159   3.317
11289TIP3   OH233743   3.145   6.813   3.454
11289TIP3    H133744   3.143   6.903   3.486
11289TIP3    H233745   3.234   6.784   3.472
11290TIP3   OH233746   4.334   7.312   4.334
11290TIP3    H133747   4.239   7.320   4.345
11290TIP3    H233748   4.345   7.252   4.260
11291TIP3   OH233749   4.005   7.522   3.724
11291TIP3    H133750   3.930   7.464   3.732
11291TIP3    H233751   4.074   7.481   3.776
11292TIP3   OH233752   2.751   7.721   3.206
11292TIP3    H133753   2.823   7.784   3.215
11292TIP3    H233754   2.781   7.660   3.138
11293TIP3   OH233755   2.662   7.025   3.337
11293TIP3    H133756   2.665   7.120   3.342
11293TIP3    H233757   2.644   7.007   3.244
11294TIP3   OH233758   3.990   8.482   3.663
11294TIP3    H133759   3.947   8.535   3.595
11294TIP3    H233760   4.084   8.498   3.650
11295TIP3   OH233761   3.062   6.736   4.192
11295TIP3    H133762   3.027   6.703   4.109
11295TIP3    H233763   3.041   6.667   4.256
11296TIP3   OH233764   2.583   7.975   3.612
11296TIP3    H133765   2.548   8.012   3.693
11296TIP3    H233766   2.536   8.020   3.542
11297TIP3   OH233767   2.782   8.538   4.671
11297TIP3    H133768   2.864   8.551   4.720
11297TIP3    H233769   2.779   8.443   4.657
11298TIP3   OH233770   3.244   8.429   4.712
11298TIP3    H133771   3.336   8.402   4.719
11298TIP3    H233772   3.210   8.379   4.637
11299TIP3   OH233773   3.203   8.044   2.824
11299TIP3    H133774   3.157   7.974   2.871
11299TIP3    H233775   3.278   8.000   2.783
11300TIP3   OH233776   3.862   8.385   4.467
11300TIP3    H133777   3.878   8.316   4.531
11300TIP3    H233778   3.937   8.444   4.477
11301TIP3   OH233779   3.649   8.078   2.751
11301TIP3    H133780   3.684   8.016   2.814
11301TIP3    H233781   3.707   8.070   2.674
11302TIP3   OH233782   2.877   7.938   4.852
11302TIP3    H133783   2.899   7.846   4.863
11302TIP3    H233784   2.789   7.937   4.816
11303TIP3   OH233785   2.868   7.535   3.044
11303TIP3    H133786   2.919   7.510   3.120
11303TIP3    H233787   2.933   7.550   2.975
11304TIP3   OH233788   3.506   8.023   4.632
11304TIP3    H133789   3.462   8.044   4.549
11304TIP3    H233790   3.549   7.939   4.616
11305TIP3   OH233791   3.450   7.757   2.880
11305TIP3    H133792   3.426   7.765   2.972
11305TIP3    H233793   3.432   7.665   2.859
11306TIP3   OH233794   3.975   8.062   4.242
11306TIP3    H133795   4.054   8.088   4.195
11306TIP3    H233796   3.914   8.135   4.229
11307TIP3   OH233797   2.991   7.678   4.844
11307TIP3    H133798   3.072   7.673   4.794
11307TIP3    H233799   3.020   7.695   4.934
11308TIP3   OH233800   3.043   7.473   3.254
11308TIP3    H133801   3.030   7.434   3.341
11308TIP3    H233802   3.093   7.408   3.206
11309TIP3   OH233803   3.313   7.524   4.490
11309TIP3    H133804   3.248   7.589   4.517
11309TIP3    H233805   3.376   7.573   4.438
11310TIP3   OH233806   3.183   7.295   3.095
11310TIP3    H133807   3.155   7.298   3.004
11310TIP3    H233808   3.278   7.307   3.091
11311TIP3   OH233809   3.859   7.938   4.588
11311TIP3    H133810   3.931   7.903   4.535
11311TIP3    H233811   3.857   7.882   4.666
11312TIP3   OH233812   3.980   7.586   2.784
11312TIP3    H133813   3.967   7.543   2.700
11312TIP3    H233814   3.955   7.677   2.769
11313TIP3   OH233815   3.457   7.329   4.625
11313TIP3    H133816   3.470   7.256   4.565
11313TIP3    H233817   3.415   7.396   4.571
11314TIP3   OH233818   3.480   7.131   4.423
11314TIP3    H133819   3.517   7.164   4.341
11314TIP3    H233820   3.391   7.105   4.401
11315TIP3   OH233821   3.479   7.686   4.340
11315TIP3    H133822   3.565   7.697   4.300
11315TIP3    H233823   3.418   7.731   4.281
11316TIP3   OH233824   4.070   7.623   4.669
11316TIP3    H133825   4.118   7.541   4.673
11316TIP3    H233826   4.138   7.690   4.665
11317TIP3   OH233827   4.094   7.885   4.409
11317TIP3    H133828   4.043   7.946   4.357
11317TIP3    H233829   4.184   7.897   4.379
11318TIP3   OH233830   3.344   7.412   4.867
11318TIP3    H133831   3.279   7.345   4.887
11318TIP3    H233832   3.377   7.389   4.780
11319TIP3   OH233833   3.594   6.899   4.528
11319TIP3    H133834   3.556   6.980   4.493
11319TIP3    H233835   3.528   6.832   4.511
11320TIP3   OH233836   3.717   7.372   4.726
11320TIP3    H133837   3.711   7.359   4.820
11320TIP3    H233838   3.630   7.352   4.693
11321TIP3   OH233839   3.970   7.331   4.604
11321TIP3    H133840   3.892   7.328   4.658
11321TIP3    H233841   4.042   7.306   4.663
11322TIP3   OH233842   4.203   7.290   4.753
11322TIP3    H133843   4.217   7.196   4.759
11322TIP3    H233844   4.199   7.319   4.844
11323TIP3   OH233845   3.177   7.195   4.935
11323TIP3    H133846   3.185   7.109   4.895
11323TIP3    H233847   3.218   7.186   5.021
11324TIP3   OH233848   3.657   6.876   4.792
11324TIP3    H133849   3.727   6.811   4.788
11324TIP3    H233850   3.630   6.888   4.701
11325TIP3   OH233851   3.754   7.090   4.938
11325TIP3    H133852   3.724   7.018   4.882
11325TIP3    H233853   3.681   7.152   4.938
11326TIP3   OH233854   3.021   8.332   3.052
11326TIP3    H133855   3.108   8.311   3.020
11326TIP3    H233856   2.973   8.360   2.974
11327TIP3   OH233857   2.478   7.725   3.219
11327TIP3    H133858   2.573   7.735   3.216
11327TIP3    H233859   2.461   7.640   3.179
11328TIP3   OH233860   2.385   8.272   3.684
11328TIP3    H133861   2.319   8.224   3.634
11328TIP3    H233862   2.426   8.206   3.739
11329TIP3   OH233863   2.531   8.111   3.854
11329TIP3    H133864   2.528   8.049   3.927
11329TIP3    H233865   2.578   8.187   3.888
11330TIP3   OH233866   4.259   8.536   3.653
11330TIP3    H133867   4.281   8.562   3.743
11330TIP3    H233868   4.316   8.591   3.599
11331TIP3   OH233869   4.282   8.558   3.933
11331TIP3    H133870   4.237   8.474   3.931
11331TIP3    H233871   4.352   8.546   3.997
11332TIP3   OH233872   4.336   8.276   4.506
11332TIP3    H133873   4.263   8.286   4.567
11332TIP3    H233874   4.383   8.359   4.510
11333TIP3   OH233875   4.152   7.795   3.119
11333TIP3    H133876   4.211   7.862   3.087
11333TIP3    H233877   4.199   7.754   3.192
11334TIP3   OH233878   4.280   7.648   3.318
11334TIP3    H133879   4.213   7.608   3.374
11334TIP3    H233880   4.345   7.683   3.379
11335TIP3   OH233881   4.328   8.051   3.753
11335TIP3    H133882   4.381   7.983   3.712
11335TIP3    H233883   4.333   8.125   3.692
11336TIP3   OH233884   4.133   8.326   3.945
11336TIP3    H133885   4.068   8.374   3.996
11336TIP3    H233886   4.083   8.287   3.873
11337TIP3   OH233887   4.187   7.569   2.964
11337TIP3    H133888   4.116   7.568   2.899
11337TIP3    H233889   4.171   7.646   3.017
11338TIP3   OH233890   4.037   7.210   2.897
11338TIP3    H133891   3.987   7.243   2.823
11338TIP3    H233892   4.034   7.115   2.888
11339TIP3   OH233893   4.073   7.507   3.452
11339TIP3    H133894   4.074   7.412   3.437
11339TIP3    H233895   4.054   7.516   3.545
11340TIP3   OH233896   2.697   7.579   4.230
11340TIP3    H133897   2.685   7.552   4.139
11340TIP3    H233898   2.791   7.565   4.247
11341TIP3   OH233899   4.352   7.924   4.313
11341TIP3    H133900   4.421   7.859   4.299
11341TIP3    H233901   4.356   7.981   4.237
11342TIP3   OH233902   4.535   7.716   4.306
11342TIP3    H133903   4.461   7.672   4.349
11342TIP3    H233904   4.610   7.661   4.327
11343TIP3   OH233905   4.006   6.937   2.860
11343TIP3    H133906   4.065   6.912   2.932
11343TIP3    H233907   3.922   6.899   2.884
11344TIP3   OH233908   4.064   7.229   3.331
11344TIP3    H133909   4.111   7.147   3.346
11344TIP3    H233910   4.107   7.267   3.254
11345TIP3   OH233911   4.223   7.406   3.865
11345TIP3    H133912   4.304   7.422   3.816
11345TIP3    H233913   4.239   7.444   3.951
11346TIP3   OH233914   4.300   7.551   4.093
11346TIP3    H133915   4.228   7.578   4.150
11346TIP3    H233916   4.330   7.631   4.051
11347TIP3   OH233917   2.912   7.247   4.868
11347TIP3    H133918   3.006   7.246   4.887
11347TIP3    H233919   2.880   7.163   4.900
11348TIP3   OH233920   4.758   7.148   4.626
11348TIP3    H133921   4.824   7.092   4.587
11348TIP3    H233922   4.720   7.197   4.553
11349TIP3   OH233923   4.184   6.984   3.390
11349TIP3    H133924   4.230   6.969   3.473
11349TIP3    H233925   4.117   6.916   3.387
11350TIP3   OH233926   2.668   7.218   4.296
11350TIP3    H133927   2.719   7.231   4.216
11350TIP3    H233928   2.686   7.296   4.348
11351TIP3   OH233929   4.606   7.264   4.430
11351TIP3    H133930   4.526   7.303   4.466
11351TIP3    H233931   4.575   7.192   4.376
11352TIP3   OH233932   4.225   6.892   3.029
11352TIP3    H133933   4.276   6.832   2.976
11352TIP3    H233934   4.278   6.971   3.035
11353TIP3   OH233935   2.660   6.801   3.801
11353TIP3    H133936   2.580   6.761   3.834
11353TIP3    H233937   2.640   6.826   3.711
11354TIP3   OH233938   3.803   8.456   3.297
11354TIP3    H133939   3.861   8.448   3.221
11354TIP3    H233940   3.847   8.519   3.354
11355TIP3   OH233941   2.886   6.835   4.611
11355TIP3    H133942   2.832   6.798   4.680
11355TIP3    H233943   2.823   6.866   4.545
11356TIP3   OH233944   2.903   8.263   4.670
11356TIP3    H133945   2.812   8.233   4.668
11356TIP3    H233946   2.928   8.259   4.762
11357TIP3   OH233947   3.134   8.287   4.228
11357TIP3    H133948   3.078   8.357   4.194
11357TIP3    H233949   3.218   8.300   4.185
11358TIP3   OH233950   3.526   8.528   4.362
11358TIP3    H133951   3.565   8.523   4.450
11358TIP3    H233952   3.587   8.583   4.312
11359TIP3   OH233953   3.714   8.683   4.231
11359TIP3    H133954   3.768   8.627   4.176
11359TIP3    H233955   3.776   8.730   4.286
11360TIP3   OH233956   4.520   7.013   4.325
11360TIP3    H133957   4.434   7.008   4.283
11360TIP3    H233958   4.554   6.924   4.320
11361TIP3   OH233959   2.782   8.510   4.274
11361TIP3    H133960   2.693   8.534   4.250
11361TIP3    H233961   2.808   8.576   4.338
11362TIP3   OH233962   3.014   8.507   4.122
11362TIP3    H133963   2.930   8.514   4.167
11362TIP3    H233964   2.995   8.533   4.032
11363TIP3   OH233965   3.426   8.546   3.912
11363TIP3    H133966   3.365   8.555   3.839
11363TIP3    H233967   3.434   8.635   3.948
11364TIP3   OH233968   3.682   8.477   3.981
11364TIP3    H133969   3.594   8.500   3.952
11364TIP3    H233970   3.740   8.536   3.931
11365TIP3   OH233971   3.888   8.624   3.874
11365TIP3    H133972   3.888   8.713   3.840
11365TIP3    H233973   3.921   8.571   3.801
11366TIP3   OH233974   2.695   8.306   3.986
11366TIP3    H133975   2.722   8.285   4.076
11366TIP3    H233976   2.768   8.276   3.932
11367TIP3   OH233977   2.903   8.195   3.851
11367TIP3    H133978   2.915   8.111   3.895
11367TIP3    H233979   2.989   8.238   3.857
11368TIP3   OH233980   3.169   8.279   3.880
11368TIP3    H133981   3.191   8.186   3.866
11368TIP3    H233982   3.226   8.307   3.951
11369TIP3   OH233983   3.665   6.922   3.937
11369TIP3    H133984   3.637   6.852   3.995
11369TIP3    H233985   3.689   6.878   3.855
11370TIP3   OH233986   4.228   6.847   3.845
11370TIP3    H133987   4.258   6.903   3.774
11370TIP3    H233988   4.133   6.853   3.842
11371TIP3   OH233989   4.345   6.931   3.607
11371TIP3    H133990   4.416   6.871   3.584
11371TIP3    H233991   4.384   7.018   3.598
11372TIP3   OH233992   2.970   6.642   3.947
11372TIP3    H133993   2.881   6.609   3.960
11372TIP3    H233994   3.025   6.564   3.943
11373TIP3   OH233995   2.789   6.559   3.605
11373TIP3    H133996   2.827   6.593   3.524
11373TIP3    H233997   2.769   6.637   3.657
11374TIP3   OH233998   3.412   6.712   3.847
11374TIP3    H133999   3.481   6.721   3.781
11374TIP3    H234000   3.457   6.722   3.931
11375TIP3   OH234001   3.950   6.824   3.844
11375TIP3    H134002   3.882   6.809   3.779
11375TIP3    H234003   3.949   6.746   3.899
11376TIP3   OH234004   3.983   6.789   3.397
11376TIP3    H134005   3.903   6.838   3.414
11376TIP3    H234006   3.971   6.706   3.444
11377TIP3   OH234007   2.456   8.098   3.406
11377TIP3    H134008   2.372   8.068   3.372
11377TIP3    H234009   2.475   8.178   3.358
11378TIP3   OH234010   2.912   6.674   3.374
11378TIP3    H134011   2.949   6.610   3.312
11378TIP3    H234012   2.989   6.720   3.408
11379TIP3   OH234013   3.427   6.854   3.506
11379TIP3    H134014   3.499   6.806   3.547
11379TIP3    H234015   3.437   6.944   3.537
11380TIP3   OH234016   3.271   8.263   2.970
11380TIP3    H134017   3.354   8.291   2.931
11380TIP3    H234018   3.241   8.193   2.912
11381TIP3   OH234019   3.956   8.411   3.067
11381TIP3    H134020   3.950   8.316   3.059
11381TIP3    H234021   3.917   8.444   2.986
11382TIP3   OH234022   3.196   6.928   4.836
11382TIP3    H134023   3.163   6.864   4.898
11382TIP3    H234024   3.289   6.937   4.858
11383TIP3   OH234025   3.442   6.932   4.962
11383TIP3    H134026   3.519   6.911   4.910
11383TIP3    H234027   3.438   6.864   5.029
11384TIP3   OH234028   2.570   8.107   3.018
11384TIP3    H134029   2.570   8.139   3.108
11384TIP3    H234030   2.654   8.062   3.009
11385TIP3   OH234031   4.265   7.018   4.751
11385TIP3    H134032   4.282   6.989   4.840
11385TIP3    H234033   4.350   7.014   4.707
11386TIP3   OH234034   4.186   8.547   4.257
11386TIP3    H134035   4.111   8.517   4.206
11386TIP3    H234036   4.173   8.642   4.264
11387TIP3   OH234037   5.458   7.935   2.997
11387TIP3    H134038   5.421   8.021   2.978
11387TIP3    H234039   5.390   7.873   2.970
11388TIP3   OH234040   5.457   7.935   3.424
11388TIP3    H134041   5.513   7.915   3.499
11388TIP3    H234042   5.413   7.852   3.405
11389TIP3   OH234043   4.754   7.785   3.766
11389TIP3    H134044   4.795   7.735   3.836
11389TIP3    H234045   4.826   7.810   3.709
11390TIP3   OH234046   5.723   8.246   3.093
11390TIP3    H134047   5.713   8.175   3.157
11390TIP3    H234048   5.746   8.322   3.145
11391TIP3   OH234049   4.753   8.217   3.447
11391TIP3    H134050   4.734   8.123   3.454
11391TIP3    H234051   4.849   8.222   3.440
11392TIP3   OH234052   4.429   7.423   3.230
11392TIP3    H134053   4.390   7.506   3.256
11392TIP3    H234054   4.357   7.374   3.190
11393TIP3   OH234055   4.510   7.734   3.460
11393TIP3    H134056   4.561   7.657   3.485
11393TIP3    H234057   4.576   7.798   3.434
11394TIP3   OH234058   5.415   8.634   3.132
11394TIP3    H134059   5.424   8.580   3.054
11394TIP3    H234060   5.438   8.577   3.205
11395TIP3   OH234061   5.267   8.154   3.423
11395TIP3    H134062   5.312   8.074   3.398
11395TIP3    H234063   5.336   8.214   3.450
11396TIP3   OH234064   6.307   7.461   3.445
11396TIP3    H134065   6.317   7.545   3.490
11396TIP3    H234066   6.333   7.478   3.355
11397TIP3   OH234067   5.666   7.640   3.458
11397TIP3    H134068   5.698   7.555   3.486
11397TIP3    H234069   5.632   7.625   3.369
11398TIP3   OH234070   5.027   7.295   3.416
11398TIP3    H134071   5.006   7.369   3.358
11398TIP3    H234072   4.971   7.224   3.385
11399TIP3   OH234073   5.727   7.400   3.057
11399TIP3    H134074   5.791   7.394   3.129
11399TIP3    H234075   5.778   7.434   2.983
11400TIP3   OH234076   4.652   7.512   3.549
11400TIP3    H134077   4.735   7.494   3.591
11400TIP3    H234078   4.654   7.461   3.468
11401TIP3   OH234079   5.068   7.712   3.367
11401TIP3    H134080   5.163   7.699   3.372
11401TIP3    H234081   5.034   7.630   3.332
11402TIP3   OH234082   6.345   7.677   3.618
11402TIP3    H134083   6.269   7.733   3.597
11402TIP3    H234084   6.395   7.728   3.682
11403TIP3   OH234085   5.009   7.303   3.870
11403TIP3    H134086   4.960   7.339   3.795
11403TIP3    H234087   4.953   7.320   3.945
11404TIP3   OH234088   5.318   8.142   2.886
11404TIP3    H134089   5.295   8.123   2.795
11404TIP3    H234090   5.279   8.228   2.902
11405TIP3   OH234091   5.100   8.074   3.629
11405TIP3    H134092   5.048   8.145   3.666
11405TIP3    H234093   5.150   8.114   3.558
11406TIP3   OH234094   5.880   7.422   3.284
11406TIP3    H134095   5.835   7.402   3.366
11406TIP3    H234096   5.936   7.497   3.304
11407TIP3   OH234097   4.901   7.409   3.637
11407TIP3    H134098   4.956   7.484   3.660
11407TIP3    H234099   4.947   7.366   3.565
11408TIP3   OH234100   4.947   8.272   3.744
11408TIP3    H134101   4.936   8.362   3.715
11408TIP3    H234102   4.868   8.253   3.795
11409TIP3   OH234103   4.323   7.980   2.996
11409TIP3    H134104   4.291   7.999   2.908
11409TIP3    H234105   4.345   8.065   3.033
11410TIP3   OH234106   5.756   8.491   3.241
11410TIP3    H134107   5.666   8.487   3.272
11410TIP3    H234108   5.761   8.573   3.192
11411TIP3   OH234109   6.113   7.333   3.608
11411TIP3    H134110   6.028   7.367   3.579
11411TIP3    H234111   6.176   7.368   3.544
11412TIP3   OH234112   5.351   6.992   3.607
11412TIP3    H134113   5.343   6.900   3.632
11412TIP3    H234114   5.273   7.033   3.645
11413TIP3   OH234115   5.474   8.517   2.885
11413TIP3    H134116   5.524   8.436   2.875
11413TIP3    H234117   5.536   8.586   2.861
11414TIP3   OH234118   5.626   8.300   2.840
11414TIP3    H134119   5.636   8.224   2.783
11414TIP3    H234120   5.663   8.272   2.924
11415TIP3   OH234121   5.996   8.371   3.576
11415TIP3    H134122   5.980   8.299   3.516
11415TIP3    H234123   5.987   8.450   3.522
11416TIP3   OH234124   5.284   7.771   2.850
11416TIP3    H134125   5.203   7.818   2.830
11416TIP3    H234126   5.331   7.769   2.766
11417TIP3   OH234127   5.270   7.574   2.522
11417TIP3    H134128   5.334   7.622   2.574
11417TIP3    H234129   5.321   7.505   2.480
11418TIP3   OH234130   6.156   8.009   3.428
11418TIP3    H134131   6.081   8.068   3.418
11418TIP3    H234132   6.215   8.033   3.356
11419TIP3   OH234133   5.645   7.876   2.807
11419TIP3    H134134   5.590   7.900   2.881
11419TIP3    H234135   5.727   7.846   2.846
11420TIP3   OH234136   5.872   7.892   3.761
11420TIP3    H134137   5.870   7.977   3.805
11420TIP3    H234138   5.791   7.888   3.710
11421TIP3   OH234139   4.872   7.844   3.211
11421TIP3    H134140   4.837   7.782   3.146
11421TIP3    H234141   4.945   7.798   3.252
11422TIP3   OH234142   5.017   8.275   3.357
11422TIP3    H134143   4.991   8.262   3.266
11422TIP3    H234144   5.103   8.234   3.364
11423TIP3   OH234145   4.964   7.840   3.589
11423TIP3    H134146   5.003   7.802   3.510
11423TIP3    H234147   5.013   7.921   3.603
11424TIP3   OH234148   5.506   8.492   3.355
11424TIP3    H134149   5.491   8.568   3.410
11424TIP3    H234150   5.497   8.417   3.414
11425TIP3   OH234151   5.141   8.375   3.915
11425TIP3    H134152   5.080   8.432   3.961
11425TIP3    H234153   5.086   8.322   3.857
11426TIP3   OH234154   5.477   7.727   2.647
11426TIP3    H134155   5.535   7.784   2.697
11426TIP3    H234156   5.502   7.741   2.555
11427TIP3   OH234157   4.896   7.921   4.062
11427TIP3    H134158   4.900   8.015   4.077
11427TIP3    H234159   4.803   7.902   4.053
11428TIP3   OH234160   5.221   8.402   2.898
11428TIP3    H134161   5.306   8.445   2.900
11428TIP3    H234162   5.167   8.459   2.843
11429TIP3   OH234163   4.932   8.534   4.002
11429TIP3    H134164   4.905   8.540   3.910
11429TIP3    H234165   4.851   8.516   4.050
11430TIP3   OH234166   5.987   6.950   2.708
11430TIP3    H134167   5.911   6.973   2.761
11430TIP3    H234168   5.999   7.024   2.649
11431TIP3   OH234169   4.749   7.683   3.011
11431TIP3    H134170   4.671   7.730   2.983
11431TIP3    H234171   4.720   7.594   3.026
11432TIP3   OH234172   5.813   8.330   2.257
11432TIP3    H134173   5.806   8.423   2.234
11432TIP3    H234174   5.902   8.306   2.233
11433TIP3   OH234175   4.530   8.095   3.947
11433TIP3    H134176   4.461   8.075   3.884
11433TIP3    H234177   4.564   8.009   3.972
11434TIP3   OH234178   4.375   8.285   3.604
11434TIP3    H134179   4.465   8.312   3.625
11434TIP3    H234180   4.322   8.361   3.628
11435TIP3   OH234181   6.224   8.740   3.646
11435TIP3    H134182   6.231   8.645   3.656
11435TIP3    H234183   6.146   8.763   3.696
11436TIP3   OH234184   5.337   8.514   3.783
11436TIP3    H134185   5.330   8.607   3.807
11436TIP3    H234186   5.269   8.471   3.835
11437TIP3   OH234187   5.116   8.597   2.721
11437TIP3    H134188   5.074   8.577   2.637
11437TIP3    H234189   5.085   8.684   2.743
11438TIP3   OH234190   4.555   8.456   3.107
11438TIP3    H134191   4.597   8.453   3.193
11438TIP3    H234192   4.505   8.374   3.102
11439TIP3   OH234193   5.316   8.548   2.359
11439TIP3    H134194   5.365   8.474   2.324
11439TIP3    H234195   5.353   8.562   2.447
11440TIP3   OH234196   5.373   8.589   2.626
11440TIP3    H134197   5.285   8.588   2.664
11440TIP3    H234198   5.428   8.547   2.692
11441TIP3   OH234199   6.091   7.850   3.946
11441TIP3    H134200   6.024   7.859   3.878
11441TIP3    H234201   6.119   7.759   3.939
11442TIP3   OH234202   4.727   8.284   3.913
11442TIP3    H134203   4.778   8.271   3.993
11442TIP3    H234204   4.656   8.221   3.920
11443TIP3   OH234205   5.113   7.083   3.731
11443TIP3    H134206   5.029   7.050   3.698
11443TIP3    H234207   5.090   7.165   3.775
11444TIP3   OH234208   5.651   7.212   3.931
11444TIP3    H134209   5.720   7.187   3.992
11444TIP3    H234210   5.570   7.196   3.979
11445TIP3   OH234211   5.878   7.620   3.839
11445TIP3    H134212   5.843   7.618   3.928
11445TIP3    H234213   5.864   7.711   3.810
11446TIP3   OH234214   5.549   7.757   2.389
11446TIP3    H134215   5.504   7.737   2.307
11446TIP3    H234216   5.636   7.786   2.363
11447TIP3   OH234217   5.254   7.131   2.701
11447TIP3    H134218   5.217   7.135   2.789
11447TIP3    H234219   5.225   7.047   2.666
11448TIP3   OH234220   5.051   7.620   3.737
11448TIP3    H134221   5.006   7.627   3.821
11448TIP3    H234222   5.029   7.702   3.692
11449TIP3   OH234223   4.929   7.498   3.258
11449TIP3    H134224   4.840   7.473   3.282
11449TIP3    H234225   4.939   7.467   3.168
11450TIP3   OH234226   5.409   7.567   2.984
11450TIP3    H134227   5.361   7.640   2.944
11450TIP3    H234228   5.467   7.536   2.916
11451TIP3   OH234229   5.594   7.835   4.053
11451TIP3    H134230   5.571   7.768   4.117
11451TIP3    H234231   5.687   7.853   4.070
11452TIP3   OH234232   5.579   7.586   3.205
11452TIP3    H134233   5.510   7.605   3.141
11452TIP3    H234234   5.628   7.513   3.167
11453TIP3   OH234235   4.892   7.636   3.960
11453TIP3    H134236   4.904   7.700   4.030
11453TIP3    H234237   4.874   7.554   4.006
11454TIP3   OH234238   4.927   7.103   2.676
11454TIP3    H134239   4.919   7.111   2.771
11454TIP3    H234240   4.851   7.149   2.641
11455TIP3   OH234241   4.482   7.153   3.539
11455TIP3    H134242   4.555   7.188   3.591
11455TIP3    H234243   4.521   7.135   3.453
11456TIP3   OH234244   4.375   7.126   3.041
11456TIP3    H134245   4.422   7.162   2.965
11456TIP3    H234246   4.312   7.194   3.064
11457TIP3   OH234247   5.624   7.841   3.634
11457TIP3    H134248   5.647   7.775   3.568
11457TIP3    H234249   5.579   7.792   3.702
11458TIP3   OH234250   5.296   7.283   3.308
11458TIP3    H134251   5.218   7.283   3.364
11458TIP3    H234252   5.369   7.275   3.370
11459TIP3   OH234253   4.689   7.374   3.315
11459TIP3    H134254   4.601   7.378   3.277
11459TIP3    H234255   4.718   7.284   3.299
11460TIP3   OH234256   4.942   7.379   3.010
11460TIP3    H134257   5.037   7.387   3.003
11460TIP3    H234258   4.910   7.396   2.921
11461TIP3   OH234259   5.730   7.378   3.518
11461TIP3    H134260   5.712   7.395   3.610
11461TIP3    H234261   5.663   7.315   3.491
11462TIP3   OH234262   4.839   7.402   2.756
11462TIP3    H134263   4.776   7.352   2.704
11462TIP3    H234264   4.895   7.445   2.691
11463TIP3   OH234265   5.958   9.078   3.738
11463TIP3    H134266   5.953   9.093   3.644
11463TIP3    H234267   6.038   9.122   3.766
11464TIP3   OH234268   4.880   8.191   4.145
11464TIP3    H134269   4.961   8.211   4.192
11464TIP3    H234270   4.811   8.203   4.210
11465TIP3   OH234271   5.342   7.664   3.414
11465TIP3    H134272   5.409   7.617   3.365
11465TIP3    H234273   5.341   7.621   3.500
11466TIP3   OH234274   4.831   7.125   3.299
11466TIP3    H134275   4.805   7.049   3.352
11466TIP3    H234276   4.849   7.090   3.213
11467TIP3   OH234277   5.316   7.562   3.677
11467TIP3    H134278   5.229   7.594   3.701
11467TIP3    H234279   5.376   7.614   3.729
11468TIP3   OH234280   5.047   7.907   2.790
11468TIP3    H134281   4.972   7.853   2.765
11468TIP3    H234282   5.019   7.951   2.871
11469TIP3   OH234283   5.940   8.179   3.387
11469TIP3    H134284   5.982   8.224   3.313
11469TIP3    H234285   5.864   8.136   3.349
11470TIP3   OH234286   5.511   7.227   2.707
11470TIP3    H134287   5.417   7.208   2.701
11470TIP3    H234288   5.515   7.322   2.713
11471TIP3   OH234289   5.466   8.255   3.800
11471TIP3    H134290   5.522   8.241   3.876
11471TIP3    H234291   5.426   8.341   3.814
11472TIP3   OH234292   5.574   7.494   2.770
11472TIP3    H134293   5.669   7.495   2.778
11472TIP3    H234294   5.553   7.569   2.716
11473TIP3   OH234295   4.737   7.927   3.439
11473TIP3    H134296   4.775   7.909   3.353
11473TIP3    H234297   4.803   7.898   3.501
11474TIP3   OH234298   5.204   8.067   2.635
11474TIP3    H134299   5.155   8.149   2.631
11474TIP3    H234300   5.149   8.009   2.688
11475TIP3   OH234301   4.620   7.861   4.078
11475TIP3    H134302   4.622   7.833   4.169
11475TIP3    H234303   4.546   7.814   4.040
11476TIP3   OH234304   5.367   7.995   4.097
11476TIP3    H134305   5.297   7.936   4.071
11476TIP3    H234306   5.447   7.953   4.066
11477TIP3   OH234307   5.601   8.553   3.692
11477TIP3    H134308   5.508   8.530   3.701
11477TIP3    H234309   5.625   8.585   3.779
11478TIP3   OH234310   5.987   7.590   2.587
11478TIP3    H134311   5.929   7.549   2.522
11478TIP3    H234312   5.994   7.681   2.557
11479TIP3   OH234313   6.241   8.467   3.669
11479TIP3    H134314   6.149   8.439   3.672
11479TIP3    H234315   6.274   8.430   3.587
11480TIP3   OH234316   5.726   8.395   2.516
11480TIP3    H134317   5.701   8.320   2.570
11480TIP3    H234318   5.751   8.357   2.432
11481TIP3   OH234319   5.712   8.037   3.287
11481TIP3    H134320   5.623   8.014   3.312
11481TIP3    H234321   5.749   7.956   3.252
11482TIP3   OH234322   4.874   8.272   3.116
11482TIP3    H134323   4.871   8.347   3.056
11482TIP3    H234324   4.784   8.264   3.148
11483TIP3   OH234325   4.425   7.554   2.824
11483TIP3    H134326   4.469   7.636   2.847
11483TIP3    H234327   4.345   7.555   2.875
11484TIP3   OH234328   4.937   8.026   3.007
11484TIP3    H134329   4.931   8.115   3.042
11484TIP3    H234330   4.916   7.969   3.081
11485TIP3   OH234331   5.163   8.598   3.575
11485TIP3    H134332   5.214   8.676   3.551
11485TIP3    H234333   5.224   8.544   3.625
11486TIP3   OH234334   4.786   8.491   2.963
11486TIP3    H134335   4.699   8.490   3.004
11486TIP3    H234336   4.811   8.583   2.964
11487TIP3   OH234337   5.499   8.272   3.525
11487TIP3    H134338   5.488   8.263   3.620
11487TIP3    H234339   5.573   8.215   3.504
11488TIP3   OH234340   5.505   8.134   2.419
11488TIP3    H134341   5.547   8.118   2.503
11488TIP3    H234342   5.424   8.083   2.423
11489TIP3   OH234343   5.753   8.759   3.584
11489TIP3    H134344   5.687   8.691   3.600
11489TIP3    H234345   5.719   8.807   3.509
11490TIP3   OH234346   5.803   8.601   2.213
11490TIP3    H134347   5.811   8.655   2.134
11490TIP3    H234348   5.734   8.643   2.264
11491TIP3   OH234349   4.836   7.382   4.075
11491TIP3    H134350   4.741   7.391   4.079
11491TIP3    H234351   4.859   7.329   4.152
11492TIP3   OH234352   5.674   8.098   2.642
11492TIP3    H134353   5.654   8.021   2.696
11492TIP3    H234354   5.767   8.089   2.622
11493TIP3   OH234355   4.576   8.482   3.728
11493TIP3    H134356   4.632   8.428   3.784
11493TIP3    H234357   4.587   8.571   3.763
11494TIP3   OH234358   4.842   8.099   2.428
11494TIP3    H134359   4.855   8.008   2.401
11494TIP3    H234360   4.832   8.094   2.523
11495TIP3   OH234361   4.788   8.115   2.702
11495TIP3    H134362   4.850   8.089   2.770
11495TIP3    H234363   4.789   8.211   2.705
11496TIP3   OH234364   4.521   7.804   2.906
11496TIP3    H134365   4.456   7.852   2.958
11496TIP3    H234366   4.542   7.862   2.833
11497TIP3   OH234367   5.676   7.441   3.781
11497TIP3    H134368   5.758   7.483   3.807
11497TIP3    H234369   5.669   7.364   3.837
11498TIP3   OH234370   5.576   7.181   2.973
11498TIP3    H134371   5.554   7.198   2.882
11498TIP3    H234372   5.620   7.261   3.002
11499TIP3   OH234373   5.055   8.293   2.627
11499TIP3    H134374   4.973   8.320   2.668
11499TIP3    H234375   5.080   8.367   2.571
11500TIP3   OH234376   5.220   7.380   3.059
11500TIP3    H134377   5.283   7.447   3.031
11500TIP3    H234378   5.247   7.359   3.148
11501TIP3   OH234379   5.520   7.676   3.828
11501TIP3    H134380   5.546   7.717   3.910
11501TIP3    H234381   5.570   7.594   3.825
11502TIP3   OH234382   5.388   7.073   3.144
11502TIP3    H134383   5.364   7.151   3.195
11502TIP3    H234384   5.458   7.104   3.087
11503TIP3   OH234385   4.810   8.389   2.710
11503TIP3    H134386   4.791   8.462   2.652
11503TIP3    H234387   4.802   8.425   2.798
11504TIP3   OH234388   4.896   7.105   2.957
11504TIP3    H134389   4.886   7.196   2.982
11504TIP3    H234390   4.991   7.088   2.963
11505TIP3   OH234391   6.152   7.598   3.836
11505TIP3    H134392   6.058   7.584   3.829
11505TIP3    H234393   6.183   7.603   3.746
11506TIP3   OH234394   5.805   7.777   3.206
11506TIP3    H134395   5.729   7.719   3.216
11506TIP3    H234396   5.872   7.739   3.262
11507TIP3   OH234397   4.547   7.980   2.689
11507TIP3    H134398   4.619   8.042   2.700
11507TIP3    H234399   4.578   7.917   2.624
11508TIP3   OH234400   4.448   7.275   2.823
11508TIP3    H134401   4.461   7.370   2.831
11508TIP3    H234402   4.397   7.265   2.743
11509TIP3   OH234403   5.785   8.753   3.151
11509TIP3    H134404   5.741   8.810   3.087
11509TIP3    H234405   5.878   8.772   3.140
11510TIP3   OH234406   4.851   6.997   3.688
11510TIP3    H134407   4.823   6.966   3.602
11510TIP3    H234408   4.841   6.921   3.746
11511TIP3   OH234409   4.369   8.245   3.082
11511TIP3    H134410   4.331   8.282   3.162
11511TIP3    H234411   4.325   8.292   3.011
11512TIP3   OH234412   4.562   8.775   4.163
11512TIP3    H134413   4.647   8.776   4.208
11512TIP3    H234414   4.536   8.683   4.162
11513TIP3   OH234415   5.043   8.700   4.191
11513TIP3    H134416   5.135   8.673   4.195
11513TIP3    H234417   5.005   8.645   4.121
11514TIP3   OH234418   4.996   8.298   2.314
11514TIP3    H134419   4.949   8.228   2.361
11514TIP3    H234420   5.071   8.254   2.275
11515TIP3   OH234421   5.660   8.638   3.946
11515TIP3    H134422   5.675   8.566   4.008
11515TIP3    H234423   5.734   8.697   3.960
11516TIP3   OH234424   5.440   8.336   2.245
11516TIP3    H134425   5.476   8.272   2.306
11516TIP3    H234426   5.498   8.331   2.169
11517TIP3   OH234427   4.676   8.194   4.337
11517TIP3    H134428   4.694   8.100   4.349
11517TIP3    H234429   4.590   8.197   4.296
11518TIP3   OH234430   4.664   7.791   2.530
11518TIP3    H134431   4.715   7.764   2.607
11518TIP3    H234432   4.730   7.806   2.462
11519TIP3   OH234433   5.301   8.271   4.113
11519TIP3    H134434   5.255   8.291   4.032
11519TIP3    H234435   5.338   8.184   4.100
11520TIP3   OH234436   5.252   8.008   2.373
11520TIP3    H134437   5.228   8.018   2.465
11520TIP3    H234438   5.232   7.917   2.353
11521TIP3   OH234439   5.776   8.329   3.737
11521TIP3    H134440   5.853   8.349   3.685
11521TIP3    H234441   5.713   8.397   3.714
11522TIP3   OH234442   4.789   7.938   4.348
11522TIP3    H134443   4.864   7.922   4.290
11522TIP3    H234444   4.829   7.958   4.433
11523TIP3   OH234445   4.839   7.730   2.740
11523TIP3    H134446   4.821   7.699   2.829
11523TIP3    H234447   4.891   7.661   2.700
11524TIP3   OH234448   5.158   7.822   4.009
11524TIP3    H134449   5.071   7.861   4.019
11524TIP3    H234450   5.187   7.848   3.921
11525TIP3   OH234451   4.992   7.553   2.582
11525TIP3    H134452   4.962   7.558   2.491
11525TIP3    H234453   5.087   7.557   2.576
11526TIP3   OH234454   5.660   8.189   4.073
11526TIP3    H134455   5.732   8.157   4.019
11526TIP3    H234456   5.660   8.132   4.149
11527TIP3   OH234457   5.780   7.848   2.264
11527TIP3    H134458   5.763   7.802   2.182
11527TIP3    H234459   5.755   7.939   2.247
11528TIP3   OH234460   5.260   7.588   4.113
11528TIP3    H134461   5.262   7.519   4.047
11528TIP3    H234462   5.226   7.665   4.067
11529TIP3   OH234463   5.267   7.392   3.907
11529TIP3    H134464   5.295   7.428   3.823
11529TIP3    H234465   5.176   7.364   3.892
11530TIP3   OH234466   5.265   7.911   3.776
11530TIP3    H134467   5.355   7.940   3.760
11530TIP3    H234468   5.212   7.971   3.724
11531TIP3   OH234469   5.867   7.866   4.143
11531TIP3    H134470   5.884   7.772   4.152
11531TIP3    H234471   5.947   7.901   4.104
11532TIP3   OH234472   5.894   8.142   3.896
11532TIP3    H134473   5.844   8.207   3.847
11532TIP3    H234474   5.984   8.152   3.865
11533TIP3   OH234475   5.148   7.670   4.359
11533TIP3    H134476   5.077   7.609   4.379
11533TIP3    H234477   5.175   7.647   4.270
11534TIP3   OH234478   5.387   7.162   4.013
11534TIP3    H134479   5.347   7.242   3.979
11534TIP3    H234480   5.321   7.094   3.999
11535TIP3   OH234481   5.519   7.624   4.212
11535TIP3    H134482   5.509   7.613   4.307
11535TIP3    H234483   5.432   7.604   4.177
11536TIP3   OH234484   5.770   7.589   4.086
11536TIP3    H134485   5.689   7.583   4.137
11536TIP3    H234486   5.838   7.557   4.146
11537TIP3   OH234487   5.996   7.545   4.241
11537TIP3    H134488   6.012   7.451   4.247
11537TIP3    H234489   5.994   7.574   4.332
11538TIP3   OH234490   4.975   7.451   4.418
11538TIP3    H134491   4.981   7.363   4.380
11538TIP3    H234492   5.014   7.443   4.504
11539TIP3   OH234493   5.453   7.132   4.277
11539TIP3    H134494   5.521   7.066   4.269
11539TIP3    H234495   5.423   7.147   4.187
11540TIP3   OH234496   5.551   7.345   4.423
11540TIP3    H134497   5.519   7.274   4.368
11540TIP3    H234498   5.480   7.409   4.423
11541TIP3   OH234499   4.810   8.603   2.532
11541TIP3    H134500   4.898   8.578   2.504
11541TIP3    H234501   4.770   8.643   2.455
11542TIP3   OH234502   4.273   7.983   2.704
11542TIP3    H134503   4.368   7.993   2.701
11542TIP3    H234504   4.256   7.898   2.664
11543TIP3   OH234505   4.178   8.542   3.162
11543TIP3    H134506   4.111   8.490   3.118
11543TIP3    H234507   4.221   8.479   3.221
11544TIP3   OH234508   4.324   8.382   3.334
11544TIP3    H134509   4.319   8.315   3.402
11544TIP3    H234510   4.374   8.453   3.375
11545TIP3   OH234511   6.043   8.837   3.137
11545TIP3    H134512   6.079   8.848   3.226
11545TIP3    H234513   6.118   8.853   3.080
11546TIP3   OH234514   6.078   8.834   3.423
11546TIP3    H134515   6.031   8.751   3.413
11546TIP3    H234516   6.145   8.816   3.488
11547TIP3   OH234517   6.129   8.535   4.003
11547TIP3    H134518   6.061   8.545   4.070
11547TIP3    H234519   6.175   8.619   4.003
11548TIP3   OH234520   5.946   8.059   2.604
11548TIP3    H134521   6.006   8.126   2.572
11548TIP3    H234522   5.994   8.015   2.674
11549TIP3   OH234523   6.076   7.907   2.796
11549TIP3    H134524   6.010   7.870   2.855
11549TIP3    H234525   6.138   7.951   2.855
11550TIP3   OH234526   6.135   8.302   3.227
11550TIP3    H134527   6.194   8.232   3.201
11550TIP3    H234528   6.153   8.374   3.166
11551TIP3   OH234529   5.931   8.598   3.431
11551TIP3    H134530   5.864   8.643   3.483
11551TIP3    H234531   5.882   8.556   3.360
11552TIP3   OH234532   5.981   7.830   2.451
11552TIP3    H134533   5.912   7.828   2.386
11552TIP3    H234534   5.963   7.909   2.502
11553TIP3   OH234535   5.835   7.496   2.382
11553TIP3    H134536   5.800   7.521   2.297
11553TIP3    H234537   5.818   7.402   2.389
11554TIP3   OH234538   5.871   7.771   2.935
11554TIP3    H134539   5.877   7.677   2.920
11554TIP3    H234540   5.854   7.779   3.029
11555TIP3   OH234541   4.491   7.828   3.716
11555TIP3    H134542   4.481   7.796   3.627
11555TIP3    H234543   4.585   7.823   3.733
11556TIP3   OH234544   6.151   8.173   3.794
11556TIP3    H134545   6.217   8.104   3.798
11556TIP3    H234546   6.161   8.211   3.707
11557TIP3   OH234547   6.320   7.966   3.840
11557TIP3    H134548   6.248   7.917   3.879
11557TIP3    H234549   6.394   7.906   3.841
11558TIP3   OH234550   5.789   7.232   2.398
11558TIP3    H134551   5.853   7.181   2.448
11558TIP3    H234552   5.721   7.169   2.376
11559TIP3   OH234553   5.867   7.492   2.826
11559TIP3    H134554   5.913   7.410   2.838
11559TIP3    H234555   5.906   7.531   2.748
11560TIP3   OH234556   6.015   7.656   3.356
11560TIP3    H134557   6.098   7.670   3.311
11560TIP3    H234558   6.027   7.696   3.442
11561TIP3   OH234559   6.092   7.801   3.588
11561TIP3    H134560   6.019   7.836   3.640
11561TIP3    H234561   6.119   7.874   3.533
11562TIP3   OH234562   4.711   7.508   4.353
11562TIP3    H134563   4.805   7.505   4.373
11562TIP3    H234564   4.676   7.427   4.390
11563TIP3   OH234565   6.556   7.397   4.119
11563TIP3    H134566   6.622   7.345   4.074
11563TIP3    H234567   6.515   7.449   4.049
11564TIP3   OH234568   5.985   7.244   2.880
11564TIP3    H134569   6.031   7.228   2.962
11564TIP3    H234570   5.922   7.173   2.873
11565TIP3   OH234571   4.693   7.225   3.706
11565TIP3    H134572   4.745   7.145   3.712
11565TIP3    H234573   4.756   7.294   3.686
11566TIP3   OH234574   4.468   7.487   3.765
11566TIP3    H134575   4.518   7.474   3.684
11566TIP3    H234576   4.502   7.570   3.801
11567TIP3   OH234577   6.404   7.513   3.925
11567TIP3    H134578   6.321   7.557   3.942
11567TIP3    H234579   6.380   7.440   3.868
11568TIP3   OH234580   6.028   7.144   2.521
11568TIP3    H134581   6.077   7.088   2.461
11568TIP3    H234582   6.076   7.227   2.521
11569TIP3   OH234583   4.456   6.999   3.269
11569TIP3    H134584   4.372   6.985   3.312
11569TIP3    H234585   4.435   7.051   3.192
11570TIP3   OH234586   5.617   8.730   2.788
11570TIP3    H134587   5.661   8.704   2.707
11570TIP3    H234588   5.672   8.799   2.824
11571TIP3   OH234589   4.683   7.046   4.092
11571TIP3    H134590   4.632   7.043   4.174
11571TIP3    H234591   4.628   7.097   4.032
11572TIP3   OH234592   4.716   8.497   4.173
11572TIP3    H134593   4.622   8.486   4.160
11572TIP3    H234594   4.728   8.492   4.268
11573TIP3   OH234595   4.930   8.544   3.718
11573TIP3    H134596   4.870   8.609   3.681
11573TIP3    H234597   5.014   8.562   3.676
11574TIP3   OH234598   5.325   8.790   3.836
11574TIP3    H134599   5.359   8.785   3.925
11574TIP3    H234600   5.394   8.835   3.787
11575TIP3   OH234601   5.553   8.911   3.739
11575TIP3    H134602   5.625   8.864   3.696
11575TIP3    H234603   5.596   8.979   3.790
11576TIP3   OH234604   6.315   7.276   3.806
11576TIP3    H134605   6.236   7.286   3.753
11576TIP3    H234606   6.337   7.184   3.799
11577TIP3   OH234607   4.571   8.772   3.764
11577TIP3    H134608   4.480   8.794   3.742
11577TIP3    H234609   4.596   8.837   3.830
11578TIP3   OH234610   4.793   8.746   3.607
11578TIP3    H134611   4.711   8.759   3.654
11578TIP3    H234612   4.780   8.791   3.523
11579TIP3   OH234613   5.458   8.762   3.412
11579TIP3    H134614   5.420   8.758   3.324
11579TIP3    H234615   5.528   8.826   3.405
11580TIP3   OH234616   5.692   8.911   3.356
11580TIP3    H134617   5.694   8.999   3.317
11580TIP3    H234618   5.725   8.854   3.287
11581TIP3   OH234619   4.491   8.567   3.477
11581TIP3    H134620   4.517   8.544   3.566
11581TIP3    H234621   4.565   8.540   3.423
11582TIP3   OH234622   4.701   8.462   3.341
11582TIP3    H134623   4.714   8.378   3.384
11582TIP3    H234624   4.786   8.506   3.347
11583TIP3   OH234625   4.969   8.554   3.369
11583TIP3    H134626   4.989   8.462   3.355
11583TIP3    H234627   5.024   8.580   3.443
11584TIP3   OH234628   5.519   7.193   3.453
11584TIP3    H134629   5.480   7.121   3.503
11584TIP3    H234630   5.588   7.151   3.402
11585TIP3   OH234631   6.025   7.112   3.337
11585TIP3    H134632   6.064   7.161   3.265
11585TIP3    H234633   5.934   7.141   3.340
11586TIP3   OH234634   6.143   7.186   3.101
11586TIP3    H134635   6.212   7.125   3.073
11586TIP3    H234636   6.182   7.273   3.090
11587TIP3   OH234637   4.766   6.897   3.445
11587TIP3    H134638   4.677   6.863   3.457
11587TIP3    H234639   4.820   6.819   3.436
11588TIP3   OH234640   4.585   6.807   3.102
11588TIP3    H134641   4.610   6.856   3.024
11588TIP3    H234642   4.548   6.873   3.161
11589TIP3   OH234643   5.248   6.932   3.346
11589TIP3    H134644   5.295   6.978   3.276
11589TIP3    H234645   5.289   6.962   3.427
11590TIP3   OH234646   5.733   7.076   3.323
11590TIP3    H134647   5.750   7.044   3.235
11590TIP3    H234648   5.744   7.000   3.380
11591TIP3   OH234649   5.799   7.034   2.891
11591TIP3    H134650   5.719   7.081   2.913
11591TIP3    H234651   5.786   6.946   2.927
11592TIP3   OH234652   4.249   8.375   2.871
11592TIP3    H134653   4.168   8.342   2.833
11592TIP3    H234654   4.258   8.463   2.835
11593TIP3   OH234655   4.690   6.934   2.863
11593TIP3    H134656   4.737   6.874   2.805
11593TIP3    H234657   4.758   6.991   2.899
11594TIP3   OH234658   5.171   7.128   2.965
11594TIP3    H134659   5.233   7.075   3.016
11594TIP3    H234660   5.188   7.218   2.993
11595TIP3   OH234661   5.060   8.521   2.455
11595TIP3    H134662   5.145   8.545   2.418
11595TIP3    H234663   5.028   8.450   2.399
11596TIP3   OH234664   5.757   8.663   2.559
11596TIP3    H134665   5.751   8.568   2.550
11596TIP3    H234666   5.717   8.698   2.479
11597TIP3   OH234667   4.991   7.181   4.327
11597TIP3    H134668   4.956   7.115   4.388
11597TIP3    H234669   5.083   7.189   4.350
11598TIP3   OH234670   5.238   7.184   4.450
11598TIP3    H134671   5.315   7.162   4.398
11598TIP3    H234672   5.232   7.114   4.515
11599TIP3   OH234673   4.377   8.372   2.514
11599TIP3    H134674   4.380   8.379   2.609
11599TIP3    H234675   4.456   8.322   2.491
11600TIP3   OH234676   6.061   7.275   4.238
11600TIP3    H134677   6.079   7.246   4.328
11600TIP3    H234678   6.145   7.270   4.193
11601TIP3   OH234679   5.976   8.804   3.750
11601TIP3    H134680   5.902   8.778   3.695
11601TIP3    H234681   5.970   8.899   3.754
11602TIP3   OH234682   7.253   8.202   2.494
11602TIP3    H134683   7.224   8.287   2.461
11602TIP3    H234684   7.180   8.143   2.476
11603TIP3   OH234685   7.262   8.198   2.910
11603TIP3    H134686   7.313   8.173   2.987
11603TIP3    H234687   7.208   8.121   2.890
11604TIP3   OH234688   7.514   8.505   2.576
11604TIP3    H134689   7.507   8.435   2.642
11604TIP3    H234690   7.537   8.583   2.626
11605TIP3   OH234691   6.525   8.457   2.948
11605TIP3    H134692   6.515   8.362   2.950
11605TIP3    H234693   6.620   8.472   2.946
11606TIP3   OH234694   6.228   7.677   2.722
11606TIP3    H134695   6.190   7.761   2.748
11606TIP3    H234696   6.156   7.630   2.680
11607TIP3   OH234697   6.289   8.011   2.942
11607TIP3    H134698   6.327   7.926   2.964
11607TIP3    H234699   6.365   8.067   2.925
11608TIP3   OH234700   7.186   8.928   2.601
11608TIP3    H134701   7.216   8.861   2.540
11608TIP3    H234702   7.188   8.886   2.686
11609TIP3   OH234703   7.046   8.416   2.915
11609TIP3    H134704   7.086   8.334   2.884
11609TIP3    H234705   7.120   8.469   2.945
11610TIP3   OH234706   8.104   7.718   2.936
11610TIP3    H134707   8.109   7.806   2.974
11610TIP3    H234708   8.142   7.727   2.849
11611TIP3   OH234709   7.417   7.880   2.939
11611TIP3    H134710   7.458   7.799   2.969
11611TIP3    H234711   7.417   7.874   2.843
11612TIP3   OH234712   6.823   7.557   2.910
11612TIP3    H134713   6.799   7.629   2.853
11612TIP3    H234714   6.760   7.488   2.890
11613TIP3   OH234715   7.521   7.617   2.542
11613TIP3    H134716   7.585   7.611   2.613
11613TIP3    H234717   7.570   7.655   2.469
11614TIP3   OH234718   6.396   7.771   3.028
11614TIP3    H134719   6.467   7.818   3.071
11614TIP3    H234720   6.439   7.722   2.958
11615TIP3   OH234721   6.897   7.966   2.773
11615TIP3    H134722   6.978   7.949   2.822
11615TIP3    H234723   6.853   7.881   2.770
11616TIP3   OH234724   8.141   7.947   3.097
11616TIP3    H134725   8.060   7.996   3.080
11616TIP3    H234726   8.181   7.991   3.172
11617TIP3   OH234727   6.812   7.558   3.368
11617TIP3    H134728   6.763   7.597   3.295
11617TIP3    H234729   6.754   7.569   3.444
11618TIP3   OH234730   7.159   8.415   2.339
11618TIP3    H134731   7.116   8.380   2.261
11618TIP3    H234732   7.104   8.488   2.367
11619TIP3   OH234733   6.930   8.362   3.164
11619TIP3    H134734   6.854   8.417   3.182
11619TIP3    H234735   6.958   8.387   3.076
11620TIP3   OH234736   7.685   7.645   2.773
11620TIP3    H134737   7.626   7.643   2.848
11620TIP3    H234738   7.736   7.725   2.784
11621TIP3   OH234739   6.688   7.660   3.149
11621TIP3    H134740   6.672   7.755   3.154
11621TIP3    H234741   6.741   7.649   3.071
11622TIP3   OH234742   6.730   8.542   3.231
11622TIP3    H134743   6.719   8.633   3.204
11622TIP3    H234744   6.650   8.521   3.279
11623TIP3   OH234745   6.118   8.243   2.482
11623TIP3    H134746   6.086   8.264   2.394
11623TIP3    H234747   6.143   8.328   2.518
11624TIP3   OH234748   7.548   8.753   2.714
11624TIP3    H134749   7.461   8.744   2.753
11624TIP3    H234750   7.545   8.837   2.668
11625TIP3   OH234751   7.910   7.592   3.094
11625TIP3    H134752   7.828   7.633   3.068
11625TIP3    H234753   7.974   7.625   3.031
11626TIP3   OH234754   7.144   7.249   3.099
11626TIP3    H134755   7.137   7.158   3.127
11626TIP3    H234756   7.067   7.292   3.137
11627TIP3   OH234757   7.273   8.771   2.391
11627TIP3    H134758   7.317   8.687   2.381
11627TIP3    H234759   7.338   8.836   2.365
11628TIP3   OH234760   7.406   8.542   2.327
11628TIP3    H134761   7.333   8.480   2.328
11628TIP3    H234762   7.456   8.521   2.406
11629TIP3   OH234763   7.792   8.625   3.063
11629TIP3    H134764   7.775   8.550   3.005
11629TIP3    H234765   7.776   8.702   3.009
11630TIP3   OH234766   7.076   8.033   2.357
11630TIP3    H134767   6.992   8.074   2.334
11630TIP3    H234768   7.123   8.027   2.274
11631TIP3   OH234769   7.063   7.813   2.062
11631TIP3    H134770   7.126   7.865   2.112
11631TIP3    H234771   7.117   7.758   2.005
11632TIP3   OH234772   7.972   8.276   2.915
11632TIP3    H134773   7.892   8.329   2.910
11632TIP3    H234774   8.001   8.267   2.824
11633TIP3   OH234775   7.441   8.117   2.315
11633TIP3    H134776   7.389   8.151   2.388
11633TIP3    H234777   7.521   8.085   2.356
11634TIP3   OH234778   7.669   8.150   3.244
11634TIP3    H134779   7.664   8.234   3.290
11634TIP3    H234780   7.589   8.145   3.192
11635TIP3   OH234781   6.673   8.107   2.698
11635TIP3    H134782   6.633   8.044   2.638
11635TIP3    H234783   6.755   8.065   2.726
11636TIP3   OH234784   6.792   8.527   2.852
11636TIP3    H134785   6.773   8.508   2.760
11636TIP3    H234786   6.878   8.487   2.867
11637TIP3   OH234787   7.310   8.738   2.847
11637TIP3    H134788   7.295   8.814   2.903
11637TIP3    H234789   7.297   8.663   2.904
11638TIP3   OH234790   6.938   8.634   3.396
11638TIP3    H134791   6.874   8.689   3.441
11638TIP3    H234792   6.885   8.578   3.339
11639TIP3   OH234793   7.268   7.970   2.164
11639TIP3    H134794   7.328   8.020   2.220
11639TIP3    H234795   7.294   7.993   2.075
11640TIP3   OH234796   6.727   8.203   3.560
11640TIP3    H134797   6.708   8.297   3.564
11640TIP3    H234798   6.648   8.164   3.522
11641TIP3   OH234799   7.021   8.649   2.386
11641TIP3    H134800   7.098   8.703   2.403
11641TIP3    H234801   6.957   8.710   2.348
11642TIP3   OH234802   6.727   8.793   3.480
11642TIP3    H134803   6.706   8.805   3.388
11642TIP3    H234804   6.642   8.783   3.523
11643TIP3   OH234805   7.784   7.216   2.187
11643TIP3    H134806   7.706   7.241   2.236
11643TIP3    H234807   7.805   7.294   2.134
11644TIP3   OH234808   6.539   7.943   2.503
11644TIP3    H134809   6.461   7.991   2.473
11644TIP3    H234810   6.505   7.857   2.531
11645TIP3   OH234811   7.568   8.584   1.789
11645TIP3    H134812   7.588   8.677   1.791
11645TIP3    H234813   7.648   8.541   1.818
11646TIP3   OH234814   6.322   8.344   3.440
11646TIP3    H134815   6.259   8.317   3.374
11646TIP3    H234816   6.358   8.262   3.474
11647TIP3   OH234817   6.246   8.515   3.067
11647TIP3    H134818   6.331   8.491   3.031
11647TIP3    H234819   6.265   8.586   3.128
11648TIP3   OH234820   8.011   8.990   3.138
11648TIP3    H134821   8.027   8.896   3.147
11648TIP3    H234822   7.928   9.004   3.183
11649TIP3   OH234823   7.126   8.780   3.260
11649TIP3    H134824   7.116   8.870   3.290
11649TIP3    H234825   7.059   8.731   3.308
11650TIP3   OH234826   6.894   8.873   2.236
11650TIP3    H134827   6.849   8.854   2.153
11650TIP3    H234828   6.854   8.954   2.266
11651TIP3   OH234829   6.340   8.732   2.600
11651TIP3    H134830   6.385   8.722   2.684
11651TIP3    H234831   6.291   8.650   2.588
11652TIP3   OH234832   7.120   8.806   1.898
11652TIP3    H134833   7.176   8.729   1.890
11652TIP3    H234834   7.135   8.837   1.988
11653TIP3   OH234835   7.154   8.875   2.159
11653TIP3    H134836   7.064   8.872   2.191
11653TIP3    H234837   7.206   8.835   2.229
11654TIP3   OH234838   7.912   8.114   3.407
11654TIP3    H134839   7.827   8.126   3.364
11654TIP3    H234840   7.929   8.020   3.399
11655TIP3   OH234841   6.506   8.546   3.397
11655TIP3    H134842   6.562   8.536   3.475
11655TIP3    H234843   6.441   8.476   3.406
11656TIP3   OH234844   6.908   7.343   3.218
11656TIP3    H134845   6.823   7.312   3.186
11656TIP3    H234846   6.888   7.426   3.262
11657TIP3   OH234847   7.448   7.464   3.425
11657TIP3    H134848   7.514   7.444   3.491
11657TIP3    H234849   7.365   7.454   3.470
11658TIP3   OH234850   7.671   7.881   3.326
11658TIP3    H134851   7.634   7.876   3.414
11658TIP3    H234852   7.657   7.972   3.300
11659TIP3   OH234853   7.356   8.036   1.922
11659TIP3    H134854   7.317   8.009   1.839
11659TIP3    H234855   7.437   8.081   1.897
11660TIP3   OH234856   6.733   7.742   2.733
11660TIP3    H134857   6.642   7.729   2.761
11660TIP3    H234858   6.737   7.698   2.647
11661TIP3   OH234859   7.217   7.824   2.466
11661TIP3    H134860   7.166   7.899   2.437
11661TIP3    H234861   7.274   7.803   2.392
11662TIP3   OH234862   7.398   8.098   3.551
11662TIP3    H134863   7.371   8.031   3.615
11662TIP3    H234864   7.490   8.115   3.572
11663TIP3   OH234865   7.412   7.843   2.669
11663TIP3    H134866   7.334   7.863   2.617
11663TIP3    H234867   7.445   7.761   2.631
11664TIP3   OH234868   6.561   7.911   3.484
11664TIP3    H134869   6.576   7.928   3.391
11664TIP3    H234870   6.609   7.830   3.502
11665TIP3   OH234871   6.736   7.375   2.168
11665TIP3    H134872   6.721   7.367   2.262
11665TIP3    H234873   6.656   7.413   2.133
11666TIP3   OH234874   6.272   7.412   3.037
11666TIP3    H134875   6.340   7.449   3.092
11666TIP3    H234876   6.306   7.422   2.948
11667TIP3   OH234877   6.168   7.386   2.527
11667TIP3    H134878   6.214   7.420   2.450
11667TIP3    H234879   6.105   7.454   2.550
11668TIP3   OH234880   7.424   8.088   3.117
11668TIP3    H134881   7.433   8.020   3.051
11668TIP3    H234882   7.387   8.043   3.193
11669TIP3   OH234883   7.084   7.542   2.803
11669TIP3    H134884   7.000   7.545   2.850
11669TIP3    H234885   7.150   7.551   2.872
11670TIP3   OH234886   6.489   7.638   2.804
11670TIP3    H134887   6.400   7.641   2.769
11670TIP3    H234888   6.514   7.546   2.798
11671TIP3   OH234889   6.756   7.599   2.495
11671TIP3    H134890   6.845   7.633   2.486
11671TIP3    H234891   6.711   7.629   2.417
11672TIP3   OH234892   7.519   7.629   2.992
11672TIP3    H134893   7.516   7.643   3.086
11672TIP3    H234894   7.448   7.567   2.975
11673TIP3   OH234895   6.625   7.654   2.263
11673TIP3    H134896   6.561   7.605   2.211
11673TIP3    H234897   6.679   7.699   2.198
11674TIP3   OH234898   1.181   0.096   3.226
11674TIP3    H134899   1.174   0.092   3.130
11674TIP3    H234900   1.258   0.149   3.242
11675TIP3   OH234901   6.667   8.471   3.629
11675TIP3    H134902   6.749   8.484   3.676
11675TIP3    H234903   6.599   8.472   3.697
11676TIP3   OH234904   7.139   7.920   2.927
11676TIP3    H134905   7.232   7.898   2.925
11676TIP3    H234906   7.110   7.895   3.014
11677TIP3   OH234907   6.617   7.385   2.800
11677TIP3    H134908   6.594   7.309   2.854
11677TIP3    H234909   6.619   7.351   2.711
11678TIP3   OH234910   7.104   7.870   3.204
11678TIP3    H134911   7.058   7.953   3.213
11678TIP3    H234912   7.190   7.885   3.243
11679TIP3   OH234913   6.845   8.164   2.277
11679TIP3    H134914   6.770   8.109   2.250
11679TIP3    H234915   6.814   8.209   2.356
11680TIP3   OH234916   7.743   8.428   2.877
11680TIP3    H134917   7.784   8.469   2.801
11680TIP3    H234918   7.662   8.391   2.843
11681TIP3   OH234919   7.265   8.518   3.294
11681TIP3    H134920   7.312   8.507   3.377
11681TIP3    H234921   7.216   8.600   3.305
11682TIP3   OH234922   7.388   7.728   2.252
11682TIP3    H134923   7.483   7.735   2.261
11682TIP3    H234924   7.364   7.800   2.194
11683TIP3   OH234925   6.530   8.170   2.939
11683TIP3    H134926   6.586   8.150   2.863
11683TIP3    H234927   6.568   8.117   3.010
11684TIP3   OH234928   7.002   8.325   2.122
11684TIP3    H134929   6.956   8.409   2.125
11684TIP3    H234930   6.948   8.266   2.174
11685TIP3   OH234931   6.435   8.137   3.581
11685TIP3    H134932   6.463   8.140   3.672
11685TIP3    H234933   6.462   8.050   3.550
11686TIP3   OH234934   7.165   8.256   3.584
11686TIP3    H134935   7.095   8.196   3.557
11686TIP3    H234936   7.245   8.212   3.556
11687TIP3   OH234937   7.397   8.800   3.187
11687TIP3    H134938   7.303   8.786   3.188
11687TIP3    H234939   7.418   8.834   3.274
11688TIP3   OH234940   7.790   7.838   2.092
11688TIP3    H134941   7.718   7.808   2.037
11688TIP3    H234942   7.800   7.930   2.071
11689TIP3   OH234943   8.039   8.712   3.148
11689TIP3    H134944   7.945   8.695   3.148
11689TIP3    H234945   8.070   8.678   3.064
11690TIP3   OH234946   7.484   8.630   2.077
11690TIP3    H134947   7.454   8.610   2.166
11690TIP3    H234948   7.535   8.553   2.052
11691TIP3   OH234949   7.508   8.301   2.778
11691TIP3    H134950   7.418   8.279   2.804
11691TIP3    H234951   7.545   8.217   2.750
11692TIP3   OH234952   6.661   8.526   2.603
11692TIP3    H134953   6.653   8.604   2.548
11692TIP3    H234954   6.572   8.511   2.636
11693TIP3   OH234955   6.220   7.804   2.316
11693TIP3    H134956   6.264   7.886   2.337
11693TIP3    H234957   6.138   7.807   2.367
11694TIP3   OH234958   6.730   8.287   2.488
11694TIP3    H134959   6.722   8.375   2.525
11694TIP3    H234960   6.714   8.228   2.563
11695TIP3   OH234961   6.944   8.854   3.053
11695TIP3    H134962   6.980   8.928   3.003
11695TIP3    H234963   7.019   8.820   3.102
11696TIP3   OH234964   6.575   8.747   2.458
11696TIP3    H134965   6.487   8.754   2.495
11696TIP3    H234966   6.610   8.836   2.463
11697TIP3   OH234967   7.286   8.516   3.018
11697TIP3    H134968   7.280   8.516   3.113
11697TIP3    H234969   7.351   8.449   2.998
11698TIP3   OH234970   7.255   8.339   1.949
11698TIP3    H134971   7.329   8.315   2.004
11698TIP3    H234972   7.179   8.297   1.989
11699TIP3   OH234973   7.551   8.997   3.065
11699TIP3    H134974   7.483   8.936   3.090
11699TIP3    H234975   7.511   9.050   2.996
11700TIP3   OH234976   7.601   8.857   1.762
11700TIP3    H134977   7.660   8.895   1.697
11700TIP3    H234978   7.557   8.933   1.801
11701TIP3   OH234979   6.637   7.601   3.579
11701TIP3    H134980   6.543   7.612   3.589
11701TIP3    H234981   6.665   7.555   3.658
11702TIP3   OH234982   7.475   8.292   2.102
11702TIP3    H134983   7.458   8.235   2.176
11702TIP3    H234984   7.569   8.307   2.104
11703TIP3   OH234985   6.364   8.736   3.224
11703TIP3    H134986   6.413   8.676   3.280
11703TIP3    H234987   6.381   8.823   3.261
11704TIP3   OH234988   6.644   8.353   1.930
11704TIP3    H134989   6.669   8.264   1.905
11704TIP3    H234990   6.630   8.348   2.025
11705TIP3   OH234991   6.587   8.364   2.202
11705TIP3    H134992   6.635   8.337   2.280
11705TIP3    H234993   6.587   8.460   2.206
11706TIP3   OH234994   6.312   8.060   2.394
11706TIP3    H134995   6.247   8.107   2.446
11706TIP3    H234996   6.332   8.118   2.321
11707TIP3   OH234997   7.496   7.677   3.257
11707TIP3    H134998   7.567   7.731   3.292
11707TIP3    H234999   7.483   7.608   3.321
11708TIP3   OH235000   7.334   7.487   2.365
11708TIP3    H135001   7.352   7.563   2.310
11708TIP3    H235002   7.376   7.507   2.448
11709TIP3   OH235003   6.862   8.556   2.126
11709TIP3    H135004   6.777   8.570   2.169
11709TIP3    H235005   6.878   8.637   2.077
11710TIP3   OH235006   7.033   7.635   2.545
11710TIP3    H135007   7.091   7.707   2.521
11710TIP3    H235008   7.046   7.623   2.639
11711TIP3   OH235009   7.341   7.935   3.330
11711TIP3    H135010   7.357   7.987   3.409
11711TIP3    H235011   7.387   7.852   3.346
11712TIP3   OH235012   7.218   7.333   2.672
11712TIP3    H135013   7.182   7.415   2.708
11712TIP3    H235014   7.309   7.333   2.700
11713TIP3   OH235015   6.611   8.635   2.212
11713TIP3    H135016   6.587   8.705   2.152
11713TIP3    H235017   6.598   8.673   2.299
11714TIP3   OH235018   6.704   7.334   2.440
11714TIP3    H135019   6.709   7.425   2.468
11714TIP3    H235020   6.789   7.297   2.464
11715TIP3   OH235021   7.941   7.851   3.311
11715TIP3    H135022   7.846   7.843   3.314
11715TIP3    H235023   7.963   7.854   3.218
11716TIP3   OH235024   7.604   8.042   2.717
11716TIP3    H135025   7.533   7.979   2.705
11716TIP3    H235026   7.671   7.994   2.767
11717TIP3   OH235027   6.338   8.240   2.182
11717TIP3    H135028   6.411   8.302   2.191
11717TIP3    H235029   6.369   8.177   2.116
11718TIP3   OH235030   6.244   7.525   2.305
11718TIP3    H135031   6.247   7.620   2.308
11718TIP3    H235032   6.176   7.505   2.241
11719TIP3   OH235033   7.563   9.019   2.621
11719TIP3    H135034   7.522   9.070   2.551
11719TIP3    H235035   7.655   9.045   2.619
11720TIP3   OH235036   6.648   7.254   3.175
11720TIP3    H135037   6.617   7.224   3.089
11720TIP3    H235038   6.638   7.179   3.232
11721TIP3   OH235039   6.165   8.513   2.563
11721TIP3    H135040   6.117   8.547   2.639
11721TIP3    H235041   6.123   8.555   2.488
11722TIP3   OH235042   6.388   9.056   3.634
11722TIP3    H135043   6.468   9.066   3.685
11722TIP3    H235044   6.383   8.963   3.614
11723TIP3   OH235045   6.840   8.948   3.677
11723TIP3    H135046   6.931   8.917   3.687
11723TIP3    H235047   6.805   8.897   3.604
11724TIP3   OH235048   6.796   8.559   1.830
11724TIP3    H135049   6.738   8.493   1.868
11724TIP3    H235050   6.879   8.514   1.817
11725TIP3   OH235051   7.452   8.896   3.438
11725TIP3    H135052   7.468   8.826   3.501
11725TIP3    H235053   7.525   8.956   3.450
11726TIP3   OH235054   7.287   8.596   1.879
11726TIP3    H135055   7.270   8.507   1.909
11726TIP3    H235056   7.362   8.625   1.932
11727TIP3   OH235057   6.469   8.457   3.825
11727TIP3    H135058   6.490   8.364   3.833
11727TIP3    H235059   6.382   8.458   3.784
11728TIP3   OH235060   6.456   8.046   2.032
11728TIP3    H135061   6.499   8.016   2.112
11728TIP3    H235062   6.527   8.065   1.971
11729TIP3   OH235063   7.091   8.529   3.601
11729TIP3    H135064   7.047   8.551   3.518
11729TIP3    H235065   7.128   8.442   3.586
11730TIP3   OH235066   6.970   8.265   1.855
11730TIP3    H135067   6.966   8.280   1.950
11730TIP3    H235068   6.972   8.170   1.846
11731TIP3   OH235069   7.571   8.579   3.225
11731TIP3    H135070   7.646   8.605   3.171
11731TIP3    H235071   7.504   8.644   3.206
11732TIP3   OH235072   6.588   8.203   3.817
11732TIP3    H135073   6.663   8.191   3.758
11732TIP3    H235074   6.627   8.214   3.904
11733TIP3   OH235075   6.633   7.986   2.238
11733TIP3    H135076   6.613   7.959   2.328
11733TIP3    H235077   6.684   7.913   2.202
11734TIP3   OH235078   6.967   8.078   3.496
11734TIP3    H135079   6.881   8.116   3.516
11734TIP3    H235080   6.981   8.098   3.404
11735TIP3   OH235081   6.785   7.799   2.095
11735TIP3    H135082   6.757   7.802   2.003
11735TIP3    H235083   6.880   7.801   2.091
11736TIP3   OH235084   7.448   8.449   3.567
11736TIP3    H135085   7.516   8.409   3.512
11736TIP3    H235086   7.444   8.393   3.644
11737TIP3   OH235087   7.574   8.159   1.780
11737TIP3    H135088   7.542   8.095   1.716
11737TIP3    H235089   7.522   8.238   1.763
11738TIP3   OH235090   7.064   7.845   3.600
11738TIP3    H135091   7.063   7.776   3.534
11738TIP3    H235092   7.029   7.922   3.555
11739TIP3   OH235093   7.066   7.656   3.390
11739TIP3    H135094   7.078   7.715   3.316
11739TIP3    H235095   6.976   7.624   3.381
11740TIP3   OH235096   7.069   8.145   3.249
11740TIP3    H135097   7.154   8.189   3.251
11740TIP3    H235098   7.009   8.213   3.217
11741TIP3   OH235099   7.663   8.140   3.648
11741TIP3    H135100   7.721   8.065   3.658
11741TIP3    H235101   7.722   8.216   3.645
11742TIP3   OH235102   7.688   8.394   3.382
11742TIP3    H135103   7.636   8.459   3.335
11742TIP3    H235104   7.777   8.407   3.350
11743TIP3   OH235105   6.947   7.918   3.846
11743TIP3    H135106   6.874   7.858   3.861
11743TIP3    H235107   6.973   7.902   3.755
11744TIP3   OH235108   7.181   7.422   3.499
11744TIP3    H135109   7.144   7.503   3.463
11744TIP3    H235110   7.113   7.356   3.485
11745TIP3   OH235111   7.318   7.883   3.704
11745TIP3    H135112   7.306   7.870   3.798
11745TIP3    H235113   7.232   7.864   3.666
11746TIP3   OH235114   7.558   7.833   3.567
11746TIP3    H135115   7.481   7.838   3.624
11746TIP3    H235116   7.631   7.817   3.627
11747TIP3   OH235117   7.795   7.801   3.718
11747TIP3    H135118   7.811   7.708   3.732
11747TIP3    H235119   7.790   7.838   3.806
11748TIP3   OH235120   6.767   7.710   3.909
11748TIP3    H135121   6.774   7.623   3.870
11748TIP3    H235122   6.808   7.700   3.995
11749TIP3   OH235123   7.248   7.389   3.764
11749TIP3    H135124   7.316   7.322   3.757
11749TIP3    H235125   7.219   7.404   3.674
11750TIP3   OH235126   7.354   7.600   3.909
11750TIP3    H135127   7.319   7.529   3.854
11750TIP3    H235128   7.283   7.665   3.912
11751TIP3   OH235129   6.595   8.851   2.043
11751TIP3    H135130   6.685   8.838   2.012
11751TIP3    H235131   6.550   8.893   1.971
11752TIP3   OH235132   6.066   8.246   2.188
11752TIP3    H135133   6.162   8.253   2.189
11752TIP3    H235134   6.049   8.158   2.155
11753TIP3   OH235135   5.968   8.812   2.656
11753TIP3    H135136   5.903   8.758   2.612
11753TIP3    H235137   6.013   8.753   2.717
11754TIP3   OH235138   6.113   8.648   2.827
11754TIP3    H135139   6.112   8.575   2.889
11754TIP3    H235140   6.162   8.717   2.872
11755TIP3   OH235141   7.821   9.110   2.635
11755TIP3    H135142   7.848   9.103   2.727
11755TIP3    H235143   7.901   9.090   2.586
11756TIP3   OH235144   7.881   9.067   2.901
11756TIP3    H135145   7.831   8.986   2.896
11756TIP3    H235146   7.939   9.055   2.977
11757TIP3   OH235147   7.917   8.790   3.474
11757TIP3    H135148   7.844   8.798   3.536
11757TIP3    H235149   7.967   8.871   3.487
11758TIP3   OH235150   7.747   8.320   2.123
11758TIP3    H135151   7.818   8.381   2.105
11758TIP3    H235152   7.779   8.267   2.197
11759TIP3   OH235153   7.851   8.155   2.306
11759TIP3    H135154   7.784   8.111   2.357
11759TIP3    H235155   7.934   8.125   2.344
11760TIP3   OH235156   7.934   8.536   2.705
11760TIP3    H135157   7.976   8.462   2.660
11760TIP3    H235158   7.944   8.609   2.645
11761TIP3   OH235159   7.722   8.842   2.912
11761TIP3    H135160   7.657   8.889   2.964
11761TIP3    H235161   7.671   8.806   2.839
11762TIP3   OH235162   7.775   8.093   1.966
11762TIP3    H135163   7.707   8.106   1.900
11762TIP3    H235164   7.765   8.166   2.027
11763TIP3   OH235165   7.583   7.755   1.934
11763TIP3    H135166   7.582   7.797   1.848
11763TIP3    H235167   7.580   7.661   1.915
11764TIP3   OH235168   7.659   8.015   2.446
11764TIP3    H135169   7.702   7.929   2.445
11764TIP3    H235170   7.652   8.037   2.539
11765TIP3   OH235171   6.308   8.089   3.207
11765TIP3    H135172   6.285   8.061   3.118
11765TIP3    H235173   6.401   8.066   3.217
11766TIP3   OH235174   7.943   8.436   3.282
11766TIP3    H135175   8.012   8.371   3.267
11766TIP3    H235176   7.947   8.494   3.206
11767TIP3   OH235177   8.125   8.227   3.276
11767TIP3    H135178   8.053   8.190   3.327
11767TIP3    H235179   8.202   8.175   3.302
11768TIP3   OH235180   7.621   7.485   1.876
11768TIP3    H135181   7.690   7.459   1.937
11768TIP3    H235182   7.584   7.402   1.845
11769TIP3   OH235183   7.662   7.722   2.315
11769TIP3    H135184   7.715   7.644   2.330
11769TIP3    H235185   7.710   7.771   2.247
11770TIP3   OH235186   7.806   7.895   2.850
11770TIP3    H135187   7.888   7.910   2.804
11770TIP3    H235188   7.815   7.940   2.933
11771TIP3   OH235189   7.884   8.060   3.068
11771TIP3    H135190   7.815   8.097   3.123
11771TIP3    H235191   7.913   8.134   3.014
11772TIP3   OH235192   6.502   7.758   3.840
11772TIP3    H135193   6.597   7.759   3.856
11772TIP3    H235194   6.472   7.676   3.879
11773TIP3   OH235195   8.357   7.660   3.602
11773TIP3    H135196   8.421   7.604   3.559
11773TIP3    H235197   8.318   7.712   3.531
11774TIP3   OH235198   7.785   7.487   2.384
11774TIP3    H135199   7.837   7.472   2.463
11774TIP3    H235200   7.724   7.414   2.381
11775TIP3   OH235201   6.483   7.479   3.204
11775TIP3    H135202   6.540   7.402   3.203
11775TIP3    H235203   6.541   7.553   3.189
11776TIP3   OH235204   6.267   7.728   3.271
11776TIP3    H135205   6.302   7.726   3.182
11776TIP3    H235206   6.312   7.802   3.313
11777TIP3   OH235207   8.202   7.786   3.419
11777TIP3    H135208   8.133   7.828   3.470
11777TIP3    H235209   8.155   7.727   3.360
11778TIP3   OH235210   7.845   7.428   2.016
11778TIP3    H135211   7.892   7.365   1.961
11778TIP3    H235212   7.909   7.498   2.032
11779TIP3   OH235213   6.251   7.254   2.750
11779TIP3    H135214   6.168   7.243   2.797
11779TIP3    H235215   6.229   7.308   2.674
11780TIP3   OH235216   7.439   8.952   2.284
11780TIP3    H135217   7.515   8.940   2.226
11780TIP3    H235218   7.457   9.033   2.331
11781TIP3   OH235219   6.478   7.284   3.571
11781TIP3    H135220   6.432   7.290   3.654
11781TIP3    H235221   6.429   7.341   3.512
11782TIP3   OH235222   6.495   8.783   3.639
11782TIP3    H135223   6.403   8.756   3.636
11782TIP3    H235224   6.523   8.763   3.728
11783TIP3   OH235225   6.716   8.817   3.201
11783TIP3    H135226   6.667   8.893   3.168
11783TIP3    H235227   6.802   8.823   3.158
11784TIP3   OH235228   7.109   9.045   3.342
11784TIP3    H135229   7.148   9.037   3.429
11784TIP3    H235230   7.171   9.100   3.293
11785TIP3   OH235231   7.298   9.201   3.214
11785TIP3    H135232   7.362   9.147   3.167
11785TIP3    H235233   7.352   9.259   3.268
11786TIP3   OH235234   8.104   7.543   3.297
11786TIP3    H135235   8.028   7.554   3.240
11786TIP3    H235236   8.128   7.451   3.287
11787TIP3   OH235237   6.382   9.048   3.252
11787TIP3    H135238   6.291   9.069   3.231
11787TIP3    H235239   6.409   9.114   3.316
11788TIP3   OH235240   6.608   9.046   3.095
11788TIP3    H135241   6.525   9.048   3.143
11788TIP3    H235242   6.585   9.067   3.005
11789TIP3   OH235243   7.016   9.067   2.889
11789TIP3    H135244   6.943   9.075   2.827
11789TIP3    H235245   7.025   9.154   2.926
11790TIP3   OH235246   7.269   8.988   2.954
11790TIP3    H135247   7.180   9.014   2.930
11790TIP3    H235248   7.325   9.050   2.908
11791TIP3   OH235249   7.463   9.146   2.844
11791TIP3    H135250   7.456   9.237   2.816
11791TIP3    H235251   7.494   9.099   2.767
11792TIP3   OH235252   6.286   8.828   2.972
11792TIP3    H135253   6.312   8.803   3.061
11792TIP3    H235254   6.356   8.794   2.916
11793TIP3   OH235255   6.488   8.708   2.832
11793TIP3    H135256   6.500   8.623   2.874
11793TIP3    H235257   6.575   8.749   2.836
11794TIP3   OH235258   6.755   8.801   2.854
11794TIP3    H135259   6.773   8.708   2.841
11794TIP3    H235260   6.812   8.827   2.927
11795TIP3   OH235261   7.316   7.441   2.950
11795TIP3    H135262   7.267   7.376   3.001
11795TIP3    H235263   7.376   7.388   2.896
11796TIP3   OH235264   7.833   7.388   2.807
11796TIP3    H135265   7.892   7.416   2.738
11796TIP3    H235266   7.772   7.462   2.818
11797TIP3   OH235267   7.971   7.449   2.583
11797TIP3    H135268   8.037   7.389   2.548
11797TIP3    H235269   8.007   7.536   2.565
11798TIP3   OH235270   6.559   7.150   2.936
11798TIP3    H135271   6.470   7.117   2.946
11798TIP3    H235272   6.612   7.071   2.924
11799TIP3   OH235273   6.402   7.069   2.601
11799TIP3    H135274   6.415   7.114   2.518
11799TIP3    H235275   6.355   7.132   2.655
11800TIP3   OH235276   7.045   7.188   2.839
11800TIP3    H135277   7.098   7.242   2.781
11800TIP3    H235278   7.072   7.213   2.927
11801TIP3   OH235279   7.476   7.296   2.771
11801TIP3    H135280   7.554   7.295   2.714
11801TIP3    H235281   7.495   7.230   2.838
11802TIP3   OH235282   7.588   7.293   2.365
11802TIP3    H135283   7.505   7.340   2.370
11802TIP3    H235284   7.572   7.211   2.411
11803TIP3   OH235285   6.053   8.627   2.335
11803TIP3    H135286   5.967   8.599   2.304
11803TIP3    H235287   6.057   8.720   2.314
11804TIP3   OH235288   6.485   7.182   2.350
11804TIP3    H135289   6.529   7.120   2.292
11804TIP3    H235290   6.556   7.238   2.383
11805TIP3   OH235291   7.037   7.386   2.441
11805TIP3    H135292   7.027   7.324   2.513
11805TIP3    H235293   7.018   7.471   2.480
11806TIP3   OH235294   6.850   8.789   1.963
11806TIP3    H135295   6.935   8.815   1.929
11806TIP3    H235296   6.822   8.718   1.906
11807TIP3   OH235297   7.609   8.883   2.063
11807TIP3    H135298   7.569   8.796   2.066
11807TIP3    H235299   7.551   8.934   2.007
11808TIP3   OH235300   6.779   7.438   3.810
11808TIP3    H135301   6.747   7.372   3.871
11808TIP3    H235302   6.871   7.448   3.832
11809TIP3   OH235303   7.028   7.444   3.933
11809TIP3    H135304   7.106   7.422   3.883
11809TIP3    H235305   7.022   7.375   4.000
11810TIP3   OH235306   6.162   8.613   2.041
11810TIP3    H135307   6.158   8.607   2.136
11810TIP3    H235308   6.242   8.566   2.017
11811TIP3   OH235309   7.876   7.527   3.733
11811TIP3    H135310   7.913   7.508   3.819
11811TIP3    H235311   7.951   7.531   3.674
11812TIP3   OH235312   7.764   9.062   3.231
11812TIP3    H135313   7.692   9.030   3.177
11812TIP3    H235314   7.749   9.156   3.239
11813TIP3   OH235315   8.330   8.313   2.748
11813TIP3    H135316   8.361   8.238   2.798
11813TIP3    H235317   8.381   8.387   2.780
11814TIP3   OH235318   8.265   8.707   2.491
11814TIP3    H135319   8.293   8.619   2.467
11814TIP3    H235320   8.333   8.738   2.551
11815TIP3   OH235321   8.683   8.218   2.326
11815TIP3    H135322   8.772   8.184   2.312
11815TIP3    H235323   8.626   8.144   2.309
11816TIP3   OH235324   8.589   7.816   2.840
11816TIP3    H135325   8.547   7.843   2.758
11816TIP3    H235326   8.523   7.833   2.907
11817TIP3   OH235327   8.482   7.887   2.595
11817TIP3    H135328   8.529   7.970   2.597
11817TIP3    H235329   8.479   7.862   2.503
11818TIP3   OH235330   7.957   8.484   2.049
11818TIP3    H135331   7.900   8.490   1.972
11818TIP3    H235332   7.969   8.575   2.077
11819TIP3   OH235333   8.942   7.485   2.636
11819TIP3    H135334   8.909   7.395   2.629
11819TIP3    H235335   8.864   7.540   2.638
11820TIP3   OH235336   8.476   8.367   2.214
11820TIP3    H135337   8.432   8.309   2.152
11820TIP3    H235338   8.554   8.319   2.241
11821TIP3   OH235339   8.608   8.363   2.553
11821TIP3    H135340   8.641   8.325   2.471
11821TIP3    H235341   8.528   8.409   2.528
11822TIP3   OH235342   8.461   8.451   2.979
11822TIP3    H135343   8.464   8.540   3.016
11822TIP3    H235344   8.375   8.417   3.006
11823TIP3   OH235345   8.344   8.196   2.044
11823TIP3    H135346   8.260   8.230   2.012
11823TIP3    H235347   8.321   8.113   2.086
11824TIP3   OH235348   8.110   8.589   2.915
11824TIP3    H135349   8.048   8.568   2.846
11824TIP3    H235350   8.144   8.504   2.943
11825TIP3   OH235351   8.011   8.775   2.564
11825TIP3    H135352   8.094   8.743   2.529
11825TIP3    H235353   8.037   8.839   2.631
11826TIP3   OH235354   8.287   8.796   2.895
11826TIP3    H135355   8.356   8.774   2.958
11826TIP3    H235356   8.227   8.722   2.898
11827TIP3   OH235357   8.690   7.593   2.706
11827TIP3    H135358   8.605   7.566   2.671
11827TIP3    H235359   8.674   7.680   2.743
11828TIP3   OH235360   9.234   7.685   2.894
11828TIP3    H135361   9.298   7.685   2.966
11828TIP3    H235362   9.149   7.686   2.938
11829TIP3   OH235363   8.972   7.620   1.764
11829TIP3    H135364   8.917   7.631   1.841
11829TIP3    H235365   8.927   7.554   1.711
11830TIP3   OH235366   8.615   8.118   2.672
11830TIP3    H135367   8.556   8.121   2.747
11830TIP3    H235368   8.608   8.205   2.633
11831TIP3   OH235369   8.536   8.006   2.255
11831TIP3    H135370   8.445   7.982   2.243
11831TIP3    H235371   8.585   7.927   2.230
11832TIP3   OH235372   8.457   8.121   2.903
11832TIP3    H135373   8.531   8.167   2.944
11832TIP3    H235374   8.444   8.043   2.957
11833TIP3   OH235375   8.418   7.612   1.709
11833TIP3    H135376   8.435   7.617   1.803
11833TIP3    H235377   8.449   7.696   1.675
11834TIP3   OH235378   8.070   7.700   2.532
11834TIP3    H135379   8.140   7.716   2.595
11834TIP3    H235380   8.061   7.782   2.484
11835TIP3   OH235381   8.003   7.658   2.063
11835TIP3    H135382   8.072   7.704   2.015
11835TIP3    H235383   7.936   7.725   2.079
11836TIP3   OH235384   8.272   7.934   2.231
11836TIP3    H135385   8.211   7.968   2.297
11836TIP3    H235386   8.295   7.847   2.262
11837TIP3   OH235387   8.587   7.860   1.983
11837TIP3    H135388   8.661   7.918   1.995
11837TIP3    H235389   8.521   7.913   1.939
11838TIP3   OH235390   8.384   7.955   1.820
11838TIP3    H135391   8.307   7.907   1.850
11838TIP3    H235392   8.401   7.921   1.732
11839TIP3   OH235393   8.456   8.704   3.100
11839TIP3    H135394   8.531   8.754   3.131
11839TIP3    H235395   8.396   8.702   3.174
11840TIP3   OH235396   8.407   7.699   2.326
11840TIP3    H135397   8.380   7.610   2.350
11840TIP3    H235398   8.498   7.689   2.297
11841TIP3   OH235399   8.878   8.055   2.718
11841TIP3    H135400   8.787   8.076   2.697
11841TIP3    H235401   8.923   8.053   2.634
11842TIP3   OH235402   8.363   8.453   2.447
11842TIP3    H135403   8.392   8.431   2.359
11842TIP3    H235404   8.310   8.378   2.475
11843TIP3   OH235405   8.203   8.361   3.046
11843TIP3    H135406   8.201   8.325   3.134
11843TIP3    H235407   8.134   8.314   3.000
11844TIP3   OH235408   8.037   8.074   1.885
11844TIP3    H135409   8.078   8.160   1.888
11844TIP3    H235410   7.953   8.085   1.930
11845TIP3   OH235411   8.415   7.885   3.047
11845TIP3    H135412   8.320   7.895   3.058
11845TIP3    H235413   8.442   7.832   3.122
11846TIP3   OH235414   8.132   8.957   2.736
11846TIP3    H135415   8.193   8.901   2.785
11846TIP3    H235416   8.119   9.033   2.793
11847TIP3   OH235417   8.139   8.332   1.915
11847TIP3    H135418   8.079   8.377   1.974
11847TIP3    H235419   8.177   8.401   1.861
11848TIP3   OH235420   8.851   7.966   2.013
11848TIP3    H135421   8.931   7.925   1.981
11848TIP3    H235422   8.832   7.920   2.095
11849TIP3   OH235423   9.025   7.584   2.163
11849TIP3    H135424   8.965   7.647   2.203
11849TIP3    H235425   9.083   7.638   2.108
11850TIP3   OH235426   8.503   7.601   1.970
11850TIP3    H135427   8.517   7.692   1.996
11850TIP3    H235428   8.591   7.565   1.960
11851TIP3   OH235429   8.111   7.814   1.837
11851TIP3    H135430   8.094   7.903   1.867
11851TIP3    H235431   8.024   7.776   1.825
11852TIP3   OH235432   8.427   7.513   2.665
11852TIP3    H135433   8.402   7.488   2.576
11852TIP3    H235434   8.419   7.432   2.715
11853TIP3   OH235435   7.965   8.751   2.098
11853TIP3    H135436   7.947   8.800   2.178
11853TIP3    H235437   7.938   8.810   2.027
11854TIP3   OH235438   8.106   9.249   3.193
11854TIP3    H135439   8.198   9.223   3.195
11854TIP3    H235440   8.058   9.170   3.169
11855TIP3   OH235441   8.268   8.684   3.303
11855TIP3    H135442   8.289   8.591   3.312
11855TIP3    H235443   8.182   8.686   3.263
11856TIP3   OH235444   8.397   8.439   3.319
11856TIP3    H135445   8.474   8.402   3.277
11856TIP3    H235446   8.426   8.460   3.408
11857TIP3   OH235447   8.427   8.231   1.773
11857TIP3    H135448   8.412   8.247   1.866
11857TIP3    H235449   8.443   8.136   1.768
11858TIP3   OH235450   8.680   8.289   2.936
11858TIP3    H135451   8.614   8.356   2.954
11858TIP3    H235452   8.723   8.320   2.856
11859TIP3   OH235453   8.834   8.110   3.082
11859TIP3    H135454   8.845   8.029   3.033
11859TIP3    H235455   8.791   8.170   3.021
11860TIP3   OH235456   8.841   7.882   2.923
11860TIP3    H135457   8.871   7.937   2.851
11860TIP3    H235458   8.752   7.856   2.897
11861TIP3   OH235459   8.727   8.179   3.323
11861TIP3    H135460   8.662   8.110   3.336
11861TIP3    H235461   8.761   8.163   3.234
11862TIP3   OH235462   8.975   7.654   2.993
11862TIP3    H135463   8.933   7.737   2.968
11862TIP3    H235464   8.912   7.587   2.969
11863TIP3   OH235465   9.072   8.190   3.213
11863TIP3    H135466   9.052   8.144   3.294
11863TIP3    H235467   8.999   8.168   3.155
11864TIP3   OH235468   8.564   7.963   3.396
11864TIP3    H135469   8.567   7.878   3.352
11864TIP3    H235470   8.607   7.948   3.480
11865TIP3   OH235471   9.045   7.634   3.255
11865TIP3    H135472   9.114   7.568   3.247
11865TIP3    H235473   9.014   7.646   3.165
11866TIP3   OH235474   9.132   7.853   3.403
11866TIP3    H135475   9.102   7.785   3.342
11866TIP3    H235476   9.065   7.921   3.397
11867TIP3   OH235477   7.806   8.463   1.827
11867TIP3    H135478   7.843   8.524   1.763
11867TIP3    H235479   7.815   8.377   1.786
11868TIP3   OH235480   7.762   9.077   2.181
11868TIP3    H135481   7.716   9.007   2.134
11868TIP3    H235482   7.824   9.031   2.237
11869TIP3   OH235483   7.932   8.910   2.327
11869TIP3    H135484   7.902   8.854   2.399
11869TIP3    H235485   8.025   8.924   2.345
11870TIP3   OH235486   8.072   8.295   2.652
11870TIP3    H135487   8.067   8.223   2.590
11870TIP3    H235488   8.165   8.300   2.675
11871TIP3   OH235489   8.303   8.022   3.322
11871TIP3    H135490   8.396   8.020   3.342
11871TIP3    H235491   8.268   7.943   3.362
11872TIP3   OH235492   8.277   7.739   2.714
11872TIP3    H135493   8.330   7.660   2.704
11872TIP3    H235494   8.328   7.808   2.672
11873TIP3   OH235495   8.055   7.980   2.771
11873TIP3    H135496   8.054   7.986   2.675
11873TIP3    H235497   8.141   8.014   2.796
11874TIP3   OH235498   8.036   7.467   2.257
11874TIP3    H135499   7.952   7.478   2.301
11874TIP3    H235500   8.045   7.544   2.201
11875TIP3   OH235501   8.277   7.550   3.071
11875TIP3    H135502   8.230   7.560   3.154
11875TIP3    H235503   8.227   7.602   3.009
11876TIP3   OH235504   8.302   9.053   3.196
11876TIP3    H135505   8.233   9.001   3.154
11876TIP3    H235506   8.312   9.015   3.283
11877TIP3   OH235507   8.354   7.421   2.416
11877TIP3    H135508   8.264   7.390   2.415
11877TIP3    H235509   8.407   7.342   2.408
11878TIP3   OH235510   8.141   7.275   2.096
11878TIP3    H135511   8.192   7.331   2.038
11878TIP3    H235512   8.103   7.335   2.160
11879TIP3   OH235513   8.814   7.464   2.321
11879TIP3    H135514   8.904   7.476   2.292
11879TIP3    H235515   8.778   7.553   2.324
11880TIP3   OH235516   9.423   7.472   2.266
11880TIP3    H135517   9.382   7.556   2.245
11880TIP3    H235518   9.391   7.451   2.354
11881TIP3   OH235519   7.862   8.904   1.895
11881TIP3    H135520   7.773   8.897   1.931
11881TIP3    H235521   7.849   8.945   1.809
11882TIP3   OH235522   8.289   7.433   1.931
11882TIP3    H135523   8.332   7.377   1.867
11882TIP3    H235524   8.358   7.493   1.961
11883TIP3   OH235525   8.789   7.625   1.969
11883TIP3    H135526   8.817   7.606   2.058
11883TIP3    H235527   8.740   7.708   1.976
11884TIP3   OH235528   8.582   7.697   3.297
11884TIP3    H135529   8.549   7.631   3.358
11884TIP3    H235530   8.675   7.705   3.319
11885TIP3   OH235531   8.829   7.694   3.423
11885TIP3    H135532   8.906   7.673   3.370
11885TIP3    H235533   8.826   7.625   3.489
11886TIP3   OH235534   9.656   7.769   3.207
11886TIP3    H135535   9.672   7.749   3.299
11886TIP3    H235536   9.585   7.832   3.207
11887TIP3   OH235537   0.554   8.536   4.604
11887TIP3    H135538   0.551   8.628   4.576
11887TIP3    H235539   0.591   8.489   4.529
11888TIP3   OH235540   0.788   8.451   5.294
11888TIP3    H135541   0.854   8.400   5.247
11888TIP3    H235542   0.739   8.497   5.225
11889TIP3   OH235543   0.625   8.568   5.104
11889TIP3    H135544   0.540   8.576   5.147
11889TIP3    H235545   0.614   8.494   5.044
11890TIP3   OH235546   0.265   8.214   3.702
11890TIP3    H135547   0.308   8.152   3.642
11890TIP3    H235548   0.330   8.283   3.716
11891TIP3   OH235549   0.580   8.311   4.973
11891TIP3    H135550   0.493   8.300   4.934
11891TIP3    H235551   0.623   8.227   4.962
11892TIP3   OH235552   0.370   8.202   4.276
11892TIP3    H135553   0.437   8.138   4.250
11892TIP3    H235554   0.399   8.284   4.238
11893TIP3   OH235555   0.507   8.591   3.937
11893TIP3    H135556   0.448   8.666   3.947
11893TIP3    H235557   0.488   8.536   4.013
11894TIP3   OH235558   2.319   8.754   4.127
11894TIP3    H135559   2.353   8.828   4.177
11894TIP3    H235560   2.371   8.753   4.046
11895TIP3   OH235561   1.732   8.912   4.055
11895TIP3    H135562   1.767   8.839   4.106
11895TIP3    H235563   1.669   8.872   3.995
11896TIP3   OH235564   1.074   8.505   4.110
11896TIP3    H135565   1.068   8.580   4.051
11896TIP3    H235566   1.027   8.435   4.065
11897TIP3   OH235567   1.767   8.679   3.711
11897TIP3    H135568   1.828   8.659   3.783
11897TIP3    H235569   1.824   8.688   3.634
11898TIP3   OH235570   0.673   8.771   4.235
11898TIP3    H135571   0.750   8.715   4.232
11898TIP3    H235572   0.616   8.738   4.166
11899TIP3   OH235573   1.157   9.080   3.988
11899TIP3    H135574   1.247   9.061   3.962
11899TIP3    H235575   1.104   9.016   3.940
11900TIP3   OH235576   2.446   8.962   4.254
11900TIP3    H135577   2.443   9.012   4.172
11900TIP3    H235578   2.456   9.028   4.322
11901TIP3   OH235579   1.032   8.553   4.539
11901TIP3    H135580   0.972   8.573   4.467
11901TIP3    H235581   0.987   8.584   4.617
11902TIP3   OH235582   1.925   8.641   3.929
11902TIP3    H135583   1.878   8.628   4.011
11902TIP3    H235584   1.981   8.717   3.945
11903TIP3   OH235585   0.912   8.627   4.303
11903TIP3    H135586   0.963   8.708   4.309
11903TIP3    H235587   0.956   8.576   4.235
11904TIP3   OH235588   2.113   8.624   4.268
11904TIP3    H135589   2.030   8.645   4.225
11904TIP3    H235590   2.180   8.665   4.213
11905TIP3   OH235591   1.396   8.284   4.267
11905TIP3    H135592   1.390   8.192   4.294
11905TIP3    H235593   1.319   8.325   4.305
11906TIP3   OH235594   1.283   8.826   3.336
11906TIP3    H135595   1.304   8.918   3.318
11906TIP3    H235596   1.361   8.778   3.307
11907TIP3   OH235597   5.328   0.078   4.281
11907TIP3    H135598   5.295   0.166   4.301
11907TIP3    H235599   5.250   0.029   4.255
11908TIP3   OH235600   2.025   8.239   3.352
11908TIP3    H135601   1.951   8.259   3.409
11908TIP3    H235602   2.039   8.319   3.302
11909TIP3   OH235603   2.188   9.127   4.493
11909TIP3    H135604   2.097   9.140   4.468
11909TIP3    H235605   2.196   9.033   4.508
11910TIP3   OH235606   1.158   8.357   4.391
11910TIP3    H135607   1.080   8.326   4.346
11910TIP3    H235608   1.131   8.438   4.435
11911TIP3   OH235609   1.700   8.497   4.607
11911TIP3    H135610   1.772   8.467   4.662
11911TIP3    H235611   1.622   8.463   4.649
11912TIP3   OH235612   1.934   8.891   4.547
11912TIP3    H135613   1.900   8.904   4.636
11912TIP3    H235614   1.910   8.971   4.500
11913TIP3   OH235615   1.298   8.396   3.370
11913TIP3    H135616   1.261   8.395   3.458
11913TIP3    H235617   1.267   8.315   3.330
11914TIP3   OH235618   1.004   8.879   4.355
11914TIP3    H135619   0.965   8.875   4.442
11914TIP3    H235620   0.937   8.920   4.300
11915TIP3   OH235621   1.054   8.697   3.924
11915TIP3    H135622   0.995   8.771   3.937
11915TIP3    H235623   1.032   8.665   3.836
11916TIP3   OH235624   1.470   8.764   3.569
11916TIP3    H135625   1.457   8.859   3.566
11916TIP3    H235626   1.542   8.748   3.508
11917TIP3   OH235627   1.663   9.142   4.734
11917TIP3    H135628   1.662   9.102   4.821
11917TIP3    H235629   1.756   9.153   4.714
11918TIP3   OH235630   1.576   8.809   3.858
11918TIP3    H135631   1.509   8.829   3.792
11918TIP3    H235632   1.639   8.754   3.812
11919TIP3   OH235633   0.916   8.895   4.615
11919TIP3    H135634   0.872   8.952   4.678
11919TIP3    H235635   0.933   8.814   4.663
11920TIP3   OH235636   0.941   8.338   3.304
11920TIP3    H135637   0.916   8.405   3.368
11920TIP3    H235638   0.904   8.369   3.221
11921TIP3   OH235639   0.504   8.423   4.161
11921TIP3    H135640   0.456   8.486   4.214
11921TIP3    H235641   0.591   8.420   4.202
11922TIP3   OH235642   0.461   8.414   3.733
11922TIP3    H135643   0.451   8.453   3.646
11922TIP3    H235644   0.483   8.487   3.791
11923TIP3   OH235645   1.633   9.045   4.313
11923TIP3    H135646   1.626   8.966   4.260
11923TIP3    H235647   1.603   9.019   4.400
11924TIP3   OH235648   1.329   8.539   3.967
11924TIP3    H135649   1.252   8.510   4.016
11924TIP3    H235650   1.355   8.621   4.009
11925TIP3   OH235651   0.766   8.590   4.039
11925TIP3    H135652   0.693   8.598   3.977
11925TIP3    H235653   0.820   8.520   4.003
11926TIP3   OH235654   1.044   8.676   3.651
11926TIP3    H135655   1.133   8.641   3.648
11926TIP3    H235656   1.002   8.642   3.572
11927TIP3   OH235657   1.825   8.657   4.183
11927TIP3    H135658   1.819   8.676   4.277
11927TIP3    H235659   1.750   8.600   4.166
11928TIP3   OH235660   0.875   8.566   3.462
11928TIP3    H135661   0.788   8.602   3.482
11928TIP3    H235662   0.892   8.592   3.372
11929TIP3   OH235663   1.375   8.788   4.080
11929TIP3    H135664   1.454   8.769   4.130
11929TIP3    H235665   1.321   8.840   4.139
11930TIP3   OH235666   0.903   8.373   3.937
11930TIP3    H135667   0.860   8.298   3.977
11930TIP3    H235668   0.898   8.357   3.843
11931TIP3   OH235669   1.357   8.800   4.448
11931TIP3    H135670   1.303   8.851   4.388
11931TIP3    H235671   1.403   8.866   4.501
11932TIP3   OH235672   1.553   8.496   3.386
11932TIP3    H135673   1.462   8.468   3.379
11932TIP3    H235674   1.555   8.580   3.340
11933TIP3   OH235675   1.678   8.779   3.387
11933TIP3    H135676   1.762   8.743   3.415
11933TIP3    H235677   1.700   8.842   3.319
11934TIP3   OH235678   4.726   0.061   4.841
11934TIP3    H135679   4.645   0.039   4.795
11934TIP3    H235680   4.796   0.023   4.788
11935TIP3   OH235681   2.155   8.881   3.281
11935TIP3    H135682   2.075   8.848   3.239
11935TIP3    H235683   2.132   8.969   3.312
11936TIP3   OH235684   0.935   8.654   4.772
11936TIP3    H135685   0.851   8.611   4.788
11936TIP3    H235686   0.993   8.619   4.840
11937TIP3   OH235687   1.765   8.704   4.443
11937TIP3    H135688   1.829   8.759   4.488
11937TIP3    H235689   1.746   8.634   4.505
11938TIP3   OH235690   1.626   8.453   3.644
11938TIP3    H135691   1.597   8.472   3.555
11938TIP3    H235692   1.666   8.535   3.674
11939TIP3   OH235693   1.304   8.587   3.690
11939TIP3    H135694   1.368   8.647   3.651
11939TIP3    H235695   1.322   8.592   3.784
11940TIP3   OH235696   1.570   8.946   4.560
11940TIP3    H135697   1.585   9.014   4.626
11940TIP3    H235698   1.597   8.865   4.602
11941TIP3   OH235699   1.446   8.339   3.817
11941TIP3    H135700   1.414   8.414   3.866
11941TIP3    H235701   1.512   8.375   3.759
11942TIP3   OH235702   0.915   8.362   3.653
11942TIP3    H135703   0.894   8.441   3.603
11942TIP3    H235704   1.009   8.351   3.642
11943TIP3   OH235705   2.196   8.853   4.490
11943TIP3    H135706   2.107   8.843   4.525
11943TIP3    H235707   2.184   8.856   4.395
11944TIP3   OH235708   1.883   8.973   3.817
11944TIP3    H135709   1.808   8.976   3.877
11944TIP3    H235710   1.953   8.931   3.867
11945TIP3   OH235711   0.413   8.525   3.485
11945TIP3    H135712   0.358   8.599   3.459
11945TIP3    H235713   0.383   8.453   3.429
11946TIP3   OH235714   0.896   8.274   4.337
11946TIP3    H135715   0.867   8.247   4.250
11946TIP3    H235716   0.885   8.195   4.392
11947TIP3   OH235717   1.006   9.199   5.007
11947TIP3    H135718   1.015   9.105   4.990
11947TIP3    H235719   0.915   9.211   5.032
11948TIP3   OH235720   1.254   9.033   4.586
11948TIP3    H135721   1.173   9.064   4.546
11948TIP3    H235722   1.314   9.108   4.580
11949TIP3   OH235723   1.010   8.866   3.308
11949TIP3    H135724   1.005   8.862   3.213
11949TIP3    H235725   1.103   8.853   3.328
11950TIP3   OH235726   1.244   8.828   4.780
11950TIP3    H135727   1.251   8.745   4.734
11950TIP3    H235728   1.248   8.894   4.711
11951TIP3   OH235729   1.284   8.606   4.621
11951TIP3    H135730   1.314   8.665   4.551
11951TIP3    H235731   1.196   8.581   4.595
11952TIP3   OH235732   1.955   9.094   4.954
11952TIP3    H135733   1.917   9.033   4.891
11952TIP3    H235734   2.024   9.139   4.906
11953TIP3   OH235735   1.115   8.942   5.003
11953TIP3    H135736   1.071   8.864   5.037
11953TIP3    H235737   1.166   8.910   4.929
11954TIP3   OH235738   1.447   8.398   4.675
11954TIP3    H135739   1.396   8.477   4.656
11954TIP3    H235740   1.386   8.326   4.659
11955TIP3   OH235741   1.563   8.830   4.825
11955TIP3    H135742   1.554   8.901   4.889
11955TIP3    H235743   1.474   8.797   4.814
11956TIP3   OH235744   1.834   8.896   4.796
11956TIP3    H135745   1.749   8.856   4.815
11956TIP3    H235746   1.897   8.842   4.844
11957TIP3   OH235747   2.056   8.799   4.929
11957TIP3    H135748   2.073   8.705   4.924
11957TIP3    H235749   2.052   8.817   5.023
11958TIP3   OH235750   0.998   8.716   5.107
11958TIP3    H135751   1.003   8.633   5.060
11958TIP3    H235752   1.046   8.701   5.188
11959TIP3   OH235753   1.501   8.399   4.941
11959TIP3    H135754   1.576   8.339   4.937
11959TIP3    H235755   1.471   8.405   4.851
11960TIP3   OH235756   1.592   8.613   5.086
11960TIP3    H135757   1.565   8.541   5.029
11960TIP3    H235758   1.519   8.675   5.083
11961TIP3   OH235759   1.937   8.784   3.154
11961TIP3    H135760   1.953   8.780   3.060
11961TIP3    H235761   1.905   8.696   3.177
11962TIP3   OH235762   1.853   9.186   3.630
11962TIP3    H135763   1.856   9.104   3.680
11962TIP3    H235764   1.853   9.255   3.696
11963TIP3   OH235765   5.518   0.178   4.517
11963TIP3    H135766   5.458   0.149   4.449
11963TIP3    H235767   5.565   0.251   4.477
11964TIP3   OH235768   1.827   8.524   3.098
11964TIP3    H135769   1.910   8.485   3.125
11964TIP3    H235770   1.763   8.455   3.111
11965TIP3   OH235771   1.921   8.706   3.485
11965TIP3    H135772   1.982   8.632   3.492
11965TIP3    H235773   1.975   8.783   3.504
11966TIP3   OH235774   2.060   8.866   4.004
11966TIP3    H135775   2.143   8.852   3.959
11966TIP3    H235776   2.084   8.875   4.096
11967TIP3   OH235777   2.092   8.975   4.255
11967TIP3    H135778   2.011   9.013   4.292
11967TIP3    H235779   2.146   9.051   4.234
11968TIP3   OH235780   0.748   8.819   5.051
11968TIP3    H135781   0.839   8.788   5.054
11968TIP3    H235782   0.695   8.739   5.058
11969TIP3   OH235783   2.593   8.711   4.776
11969TIP3    H135784   2.662   8.652   4.748
11969TIP3    H235785   2.561   8.750   4.695
11970TIP3   OH235786   2.068   8.484   3.550
11970TIP3    H135787   2.109   8.477   3.636
11970TIP3    H235788   1.996   8.421   3.553
11971TIP3   OH235789   0.701   8.465   4.376
11971TIP3    H135790   0.758   8.388   4.379
11971TIP3    H235791   0.759   8.536   4.350
11972TIP3   OH235792   0.552   8.780   4.480
11972TIP3    H135793   0.603   8.780   4.399
11972TIP3    H235794   0.544   8.873   4.503
11973TIP3   OH235795   2.450   8.793   4.557
11973TIP3    H135796   2.361   8.827   4.550
11973TIP3    H235797   2.446   8.707   4.514
11974TIP3   OH235798   2.075   8.448   3.181
11974TIP3    H135799   2.115   8.388   3.119
11974TIP3    H235800   2.142   8.515   3.197
11975TIP3   OH235801   0.553   8.231   3.917
11975TIP3    H135802   0.528   8.270   4.001
11975TIP3    H235803   0.519   8.293   3.852
11976TIP3   OH235804   0.720   8.495   4.815
11976TIP3    H135805   0.685   8.419   4.861
11976TIP3    H235806   0.661   8.508   4.741
11977TIP3   OH235807   2.364   8.547   4.469
11977TIP3    H135808   2.275   8.541   4.435
11977TIP3    H235809   2.397   8.457   4.465
11978TIP3   OH235810   1.614   8.485   4.142
11978TIP3    H135811   1.535   8.433   4.156
11978TIP3    H235812   1.661   8.438   4.073
11979TIP3   OH235813   2.078   8.399   4.001
11979TIP3    H135814   2.130   8.443   3.933
11979TIP3    H235815   1.992   8.440   3.995
11980TIP3   OH235816   2.220   8.463   3.780
11980TIP3    H135817   2.280   8.393   3.753
11980TIP3    H235818   2.263   8.543   3.750
11981TIP3   OH235819   0.803   8.173   4.100
11981TIP3    H135820   0.712   8.141   4.106
11981TIP3    H235821   0.856   8.093   4.095
11982TIP3   OH235822   0.643   8.044   3.732
11982TIP3    H135823   0.657   8.098   3.654
11982TIP3    H235824   0.611   8.106   3.798
11983TIP3   OH235825   1.291   8.219   4.015
11983TIP3    H135826   1.343   8.258   3.945
11983TIP3    H235827   1.330   8.253   4.096
11984TIP3   OH235828   1.782   8.353   3.970
11984TIP3    H135829   1.816   8.316   3.888
11984TIP3    H235830   1.791   8.282   4.033
11985TIP3   OH235831   1.849   8.313   3.553
11985TIP3    H135832   1.771   8.362   3.579
11985TIP3    H235833   1.837   8.227   3.593
11986TIP3   OH235834   0.736   8.200   3.515
11986TIP3    H135835   0.790   8.155   3.451
11986TIP3    H235836   0.798   8.252   3.567
11987TIP3   OH235837   1.185   8.356   3.618
11987TIP3    H135838   1.223   8.274   3.650
11987TIP3    H235839   1.237   8.425   3.661
11988TIP3   OH235840   1.042   8.473   4.978
11988TIP3    H135841   1.005   8.409   5.039
11988TIP3    H235842   1.134   8.478   5.002
11989TIP3   OH235843   1.285   8.465   5.106
11989TIP3    H135844   1.363   8.441   5.056
11989TIP3    H235845   1.278   8.396   5.172
11990TIP3   OH235846   2.118   8.535   4.902
11990TIP3    H135847   2.138   8.511   4.992
11990TIP3    H235848   2.203   8.540   4.858
11991TIP3   OH235849   2.328   8.896   3.501
11991TIP3    H135850   2.245   8.903   3.549
11991TIP3    H235851   2.302   8.895   3.409
11992TIP3   OH235852   4.110   9.003   3.614
11992TIP3    H135853   4.145   9.080   3.660
11992TIP3    H235854   4.159   9.002   3.531
11993TIP3   OH235855   3.468   9.124   3.637
11993TIP3    H135856   3.466   9.049   3.696
11993TIP3    H235857   3.454   9.086   3.550
11994TIP3   OH235858   2.887   8.769   3.599
11994TIP3    H135859   2.885   8.839   3.534
11994TIP3    H235860   2.836   8.698   3.559
11995TIP3   OH235861   3.562   8.904   3.200
11995TIP3    H135862   3.627   8.887   3.268
11995TIP3    H235863   3.614   8.933   3.125
11996TIP3   OH235864   2.487   9.029   3.724
11996TIP3    H135865   2.563   8.971   3.716
11996TIP3    H235866   2.431   9.005   3.650
11997TIP3   OH235867   6.214   0.104   3.425
11997TIP3    H135868   6.293   0.050   3.415
11997TIP3    H235869   6.142   0.046   3.401
11998TIP3   OH235870   7.508  -0.027   3.729
11998TIP3    H135871   7.494   0.027   3.651
11998TIP3    H235872   7.525   0.036   3.799
11999TIP3   OH235873   2.835   8.813   4.026
11999TIP3    H135874   2.774   8.830   3.955
11999TIP3    H235875   2.783   8.826   4.106
12000TIP3   OH235876   3.718   8.888   3.423
12000TIP3    H135877   3.680   8.876   3.509
12000TIP3    H235878   3.773   8.966   3.432
12001TIP3   OH235879   2.715   8.884   3.788
12001TIP3    H135880   2.759   8.967   3.802
12001TIP3    H235881   2.769   8.838   3.724
12002TIP3   OH235882   3.918   8.870   3.765
12002TIP3    H135883   3.833   8.882   3.724
12002TIP3    H235884   3.979   8.917   3.707
12003TIP3   OH235885   3.187   8.537   3.750
12003TIP3    H135886   3.186   8.446   3.780
12003TIP3    H235887   3.109   8.577   3.790
12004TIP3   OH235888   3.131   9.191   2.855
12004TIP3    H135889   3.101   9.281   2.841
12004TIP3    H235890   3.142   9.155   2.767
12005TIP3   OH235891   7.124   0.322   3.758
12005TIP3    H135892   7.081   0.405   3.776
12005TIP3    H235893   7.075   0.257   3.808
12006TIP3   OH235894   3.822   8.505   2.836
12006TIP3    H135895   3.747   8.521   2.893
12006TIP3    H235896   3.830   8.584   2.784
12007TIP3   OH235897   7.276   0.145   3.984
12007TIP3    H135898   7.184   0.143   3.957
12007TIP3    H235899   7.301   0.053   3.989
12008TIP3   OH235900   2.949   8.612   3.877
12008TIP3    H135901   2.866   8.585   3.837
12008TIP3    H235902   2.929   8.694   3.921
12009TIP3   OH235903   3.491   8.763   4.079
12009TIP3    H135904   3.565   8.737   4.135
12009TIP3    H235905   3.414   8.731   4.125
12010TIP3   OH235906   3.744   9.116   4.017
12010TIP3    H135907   3.712   9.123   4.107
12010TIP3    H235908   3.745   9.206   3.985
12011TIP3   OH235909   3.120   8.613   2.859
12011TIP3    H135910   3.074   8.628   2.942
12011TIP3    H235911   3.076   8.537   2.821
12012TIP3   OH235912   2.823   9.119   3.873
12012TIP3    H135913   2.825   9.094   3.965
12012TIP3    H235914   2.791   9.209   3.873
12013TIP3   OH235915   2.856   8.942   3.393
12013TIP3    H135916   2.766   8.950   3.425
12013TIP3    H235917   2.847   8.914   3.302
12014TIP3   OH235918   3.270   9.029   3.106
12014TIP3    H135919   3.304   9.115   3.128
12014TIP3    H235920   3.314   9.005   3.024
12015TIP3   OH235921   6.728   0.164   4.247
12015TIP3    H135922   6.734   0.115   4.329
12015TIP3    H235923   6.819   0.183   4.224
12016TIP3   OH235924   3.427   9.065   3.373
12016TIP3    H135925   3.338   9.078   3.340
12016TIP3    H235926   3.464   8.998   3.316
12017TIP3   OH235927   2.755   9.124   4.149
12017TIP3    H135928   2.706   9.179   4.210
12017TIP3    H235929   2.753   9.037   4.188
12018TIP3   OH235930   2.764   8.619   2.789
12018TIP3    H135931   2.752   8.625   2.884
12018TIP3    H235932   2.678   8.640   2.753
12019TIP3   OH235933   2.345   8.673   3.672
12019TIP3    H135934   2.318   8.741   3.733
12019TIP3    H235935   2.361   8.719   3.589
12020TIP3   OH235936   2.269   8.645   3.211
12020TIP3    H135937   2.276   8.659   3.116
12020TIP3    H235938   2.239   8.729   3.245
12021TIP3   OH235939   6.775   0.085   3.823
12021TIP3    H135940   6.769   0.011   3.763
12021TIP3    H235941   6.686   0.096   3.856
12022TIP3   OH235942   3.146   8.794   3.474
12022TIP3    H135943   3.069   8.764   3.523
12022TIP3    H235944   3.178   8.869   3.524
12023TIP3   OH235945   2.605   8.888   3.491
12023TIP3    H135946   2.510   8.891   3.481
12023TIP3    H235947   2.629   8.796   3.475
12024TIP3   OH235948   2.846   8.894   3.121
12024TIP3    H135949   2.935   8.863   3.138
12024TIP3    H235950   2.851   8.936   3.035
12025TIP3   OH235951   3.641   8.869   3.686
12025TIP3    H135952   3.616   8.910   3.769
12025TIP3    H235953   3.567   8.811   3.665
12026TIP3   OH235954   2.611   8.840   2.922
12026TIP3    H135955   2.571   8.802   2.843
12026TIP3    H235956   2.685   8.891   2.889
12027TIP3   OH235957   3.177   9.033   3.613
12027TIP3    H135958   3.159   9.127   3.616
12027TIP3    H235959   3.170   9.004   3.704
12028TIP3   OH235960   2.696   8.633   3.441
12028TIP3    H135961   2.657   8.563   3.493
12028TIP3    H235962   2.708   8.594   3.354
12029TIP3   OH235963   3.157   9.030   3.893
12029TIP3    H135964   3.091   9.096   3.916
12029TIP3    H235965   3.236   9.060   3.937
12030TIP3   OH235966   3.346   8.759   2.844
12030TIP3    H135967   3.260   8.718   2.844
12030TIP3    H235968   3.337   8.834   2.785
12031TIP3   OH235969   3.449   9.058   2.894
12031TIP3    H135970   3.536   9.027   2.918
12031TIP3    H235971   3.435   9.025   2.805
12032TIP3   OH235972   6.454   0.201   4.251
12032TIP3    H135973   6.441   0.249   4.169
12032TIP3    H235974   6.548   0.183   4.252
12033TIP3   OH235975   3.864   9.130   2.738
12033TIP3    H135976   3.801   9.110   2.670
12033TIP3    H235977   3.815   9.183   2.801
12034TIP3   OH235978   2.710   8.872   4.261
12034TIP3    H135979   2.614   8.877   4.268
12034TIP3    H235980   2.736   8.813   4.331
12035TIP3   OH235981   3.535   8.978   3.915
12035TIP3    H135982   3.616   9.014   3.950
12035TIP3    H235983   3.517   8.901   3.969
12036TIP3   OH235984   3.407   8.701   3.107
12036TIP3    H135985   3.384   8.725   3.017
12036TIP3    H235986   3.452   8.778   3.141
12037TIP3   OH235987   3.100   8.841   3.204
12037TIP3    H135988   3.162   8.906   3.170
12037TIP3    H235989   3.117   8.839   3.298
12038TIP3   OH235990   3.356   9.155   4.032
12038TIP3    H135991   3.370   9.157   4.127
12038TIP3    H235992   3.429   9.102   3.998
12039TIP3   OH235993   3.247   8.595   3.305
12039TIP3    H135994   3.227   8.671   3.360
12039TIP3    H235995   3.305   8.629   3.237
12040TIP3   OH235996   2.722   8.620   3.070
12040TIP3    H135997   2.704   8.714   3.070
12040TIP3    H235998   2.816   8.614   3.089
12041TIP3   OH235999   4.011   9.114   3.954
12041TIP3    H136000   3.926   9.085   3.987
12041TIP3    H236001   3.996   9.132   3.861
12042TIP3   OH236002   3.660   9.203   3.286
12042TIP3    H136003   3.583   9.159   3.323
12042TIP3    H236004   3.731   9.181   3.347
12043TIP3   OH236005   2.223   8.744   2.962
12043TIP3    H136006   2.270   8.823   2.988
12043TIP3    H236007   2.139   8.776   2.929
12044TIP3   OH236008   2.676   8.542   3.837
12044TIP3    H136009   2.646   8.514   3.750
12044TIP3    H236010   2.674   8.463   3.890
12045TIP3   OH236011   6.040   0.208   4.502
12045TIP3    H136012   6.071   0.122   4.473
12045TIP3    H236013   5.959   0.222   4.453
12046TIP3   OH236014   6.312   0.011   4.041
12046TIP3    H136015   6.246   0.053   4.096
12046TIP3    H236016   6.355   0.083   3.995
12047TIP3   OH236017   2.831   9.020   2.877
12047TIP3    H136018   2.818   9.003   2.784
12047TIP3    H236019   2.762   9.083   2.900
12048TIP3   OH236020   3.093   9.100   4.270
12048TIP3    H136021   3.084   9.011   4.235
12048TIP3    H236022   3.086   9.156   4.193
12049TIP3   OH236023   3.084   8.879   4.106
12049TIP3    H136024   3.115   8.918   4.025
12049TIP3    H236025   2.994   8.852   4.087
12050TIP3   OH236026   6.990   0.114   4.430
12050TIP3    H136027   6.998   0.043   4.366
12050TIP3    H236028   7.079   0.150   4.437
12051TIP3   OH236029   2.890   9.212   4.423
12051TIP3    H136030   2.854   9.138   4.473
12051TIP3    H236031   2.966   9.176   4.378
12052TIP3   OH236032   3.243   8.669   4.166
12052TIP3    H136033   3.191   8.747   4.148
12052TIP3    H236034   3.183   8.596   4.153
12053TIP3   OH236035   3.365   9.110   4.314
12053TIP3    H136036   3.373   9.166   4.391
12053TIP3    H236037   3.272   9.091   4.308
12054TIP3   OH236038   3.638   9.132   4.263
12054TIP3    H136039   3.549   9.108   4.288
12054TIP3    H236040   3.693   9.088   4.328
12055TIP3   OH236041   3.851   9.067   4.428
12055TIP3    H136042   3.868   8.973   4.419
12055TIP3    H236043   3.843   9.080   4.523
12056TIP3   OH236044   2.805   8.983   4.554
12056TIP3    H136045   2.818   8.896   4.516
12056TIP3    H236046   2.845   8.977   4.641
12057TIP3   OH236047   3.298   8.683   4.435
12057TIP3    H136048   3.373   8.625   4.439
12057TIP3    H236049   3.274   8.686   4.342
12058TIP3   OH236050   3.708   9.067   2.523
12058TIP3    H136051   3.726   9.084   2.430
12058TIP3    H236052   3.677   8.977   2.525
12059TIP3   OH236053   6.918   0.193   3.131
12059TIP3    H136054   6.936   0.109   3.174
12059TIP3    H236055   6.900   0.254   3.202
12060TIP3   OH236056   7.335   0.429   4.026
12060TIP3    H136057   7.281   0.385   3.960
12060TIP3    H236058   7.370   0.506   3.981
12061TIP3   OH236059   3.621   8.805   2.550
12061TIP3    H136060   3.699   8.769   2.590
12061TIP3    H236061   3.557   8.734   2.552
12062TIP3   OH236062   3.701   8.973   2.972
12062TIP3    H136063   3.761   8.899   2.972
12062TIP3    H236064   3.756   9.049   2.988
12063TIP3   OH236065   3.858   9.114   3.467
12063TIP3    H136066   3.931   9.105   3.406
12063TIP3    H236067   3.900   9.129   3.552
12064TIP3   OH236068   7.176  -0.006   3.718
12064TIP3    H136069   7.085   0.015   3.700
12064TIP3    H236070   7.226   0.064   3.676
12065TIP3   OH236071   2.541   9.052   4.529
12065TIP3    H136072   2.634   9.039   4.514
12065TIP3    H236073   2.506   8.964   4.543
12066TIP3   OH236074   4.392   8.969   4.265
12066TIP3    H136075   4.457   8.904   4.237
12066TIP3    H236076   4.362   9.009   4.184
12067TIP3   OH236077   3.858   8.752   3.032
12067TIP3    H136078   3.898   8.744   3.118
12067TIP3    H236079   3.787   8.687   3.032
12068TIP3   OH236080   2.514   8.753   3.930
12068TIP3    H136081   2.547   8.667   3.905
12068TIP3    H236082   2.570   8.815   3.884
12069TIP3   OH236083   2.425   9.067   3.994
12069TIP3    H136084   2.463   9.058   3.906
12069TIP3    H236085   2.383   9.153   3.992
12070TIP3   OH236086   4.258   9.049   4.040
12070TIP3    H136087   4.170   9.083   4.025
12070TIP3    H236088   4.256   8.960   4.003
12071TIP3   OH236089   3.862   8.714   2.656
12071TIP3    H136090   3.907   8.650   2.601
12071TIP3    H236091   3.924   8.787   2.662
12072TIP3   OH236092   2.309   8.457   3.403
12072TIP3    H136093   2.232   8.464   3.459
12072TIP3    H236094   2.304   8.534   3.345
12073TIP3   OH236095   2.523   8.591   4.242
12073TIP3    H136096   2.471   8.581   4.322
12073TIP3    H236097   2.467   8.640   4.182
12074TIP3   OH236098   4.157   8.803   3.963
12074TIP3    H136099   4.071   8.804   3.922
12074TIP3    H236100   4.187   8.712   3.955
12075TIP3   OH236101   3.410   8.733   3.630
12075TIP3    H136102   3.328   8.684   3.642
12075TIP3    H236103   3.454   8.688   3.559
12076TIP3   OH236104   3.874   8.650   3.482
12076TIP3    H136105   3.924   8.698   3.415
12076TIP3    H236106   3.789   8.694   3.484
12077TIP3   OH236107   4.012   8.732   3.262
12077TIP3    H136108   4.068   8.660   3.233
12077TIP3    H236109   4.065   8.811   3.248
12078TIP3   OH236110   2.600   8.430   3.595
12078TIP3    H136111   2.510   8.400   3.603
12078TIP3    H236112   2.652   8.349   3.594
12079TIP3   OH236113   2.424   8.299   3.212
12079TIP3    H136114   2.446   8.358   3.139
12079TIP3    H236115   2.388   8.357   3.279
12080TIP3   OH236116   3.079   8.481   3.497
12080TIP3    H136117   3.136   8.515   3.428
12080TIP3    H236118   3.121   8.508   3.579
12081TIP3   OH236119   3.575   8.599   3.457
12081TIP3    H136120   3.615   8.565   3.377
12081TIP3    H236121   3.585   8.529   3.521
12082TIP3   OH236122   3.645   8.572   3.037
12082TIP3    H136123   3.562   8.617   3.055
12082TIP3    H236124   3.635   8.486   3.078
12083TIP3   OH236125   2.511   8.458   2.994
12083TIP3    H136126   2.559   8.404   2.931
12083TIP3    H236127   2.578   8.518   3.029
12084TIP3   OH236128   2.992   8.610   3.107
12084TIP3    H136129   3.025   8.524   3.133
12084TIP3    H236130   3.046   8.673   3.154
12085TIP3   OH236131   2.825   8.714   4.465
12085TIP3    H136132   2.793   8.656   4.534
12085TIP3    H236133   2.918   8.726   4.486
12086TIP3   OH236134   3.070   8.739   4.583
12086TIP3    H136135   3.154   8.730   4.537
12086TIP3    H236136   3.074   8.673   4.652
12087TIP3   OH236137   3.910   8.803   4.387
12087TIP3    H136138   3.929   8.775   4.476
12087TIP3    H236139   3.995   8.806   4.344
12088TIP3   OH236140   4.151   9.186   2.989
12088TIP3    H136141   4.108   9.262   2.949
12088TIP3    H236142   4.095   9.112   2.965
12089TIP3   OH236143   9.205   0.028   3.076
12089TIP3    H136144   9.233   0.110   3.117
12089TIP3    H236145   9.240   0.032   2.987
12090TIP3   OH236146   8.564   0.191   3.103
12090TIP3    H136147   8.600   0.110   3.137
12090TIP3    H236148   8.566   0.181   3.008
12091TIP3   OH236149   4.722   9.014   3.107
12091TIP3    H136150   4.709   9.092   3.053
12091TIP3    H236151   4.660   8.950   3.071
12092TIP3   OH236152   5.379   9.197   2.689
12092TIP3    H136153   5.441   9.193   2.762
12092TIP3    H236154   5.429   9.237   2.618
12093TIP3   OH236155   7.537   0.052   3.216
12093TIP3    H136156   7.610  -0.009   3.205
12093TIP3    H236157   7.476   0.029   3.147
12094TIP3   OH236158   7.998   0.358   2.966
12094TIP3    H136159   8.034   0.282   3.011
12094TIP3    H236160   7.959   0.323   2.886
12095TIP3   OH236161   9.290   0.246   3.232
12095TIP3    H136162   9.202   0.281   3.217
12095TIP3    H236163   9.317   0.285   3.315
12096TIP3   OH236164   4.666   9.129   3.527
12096TIP3    H136165   4.597   9.135   3.460
12096TIP3    H236166   4.618   9.126   3.610
12097TIP3   OH236167   5.527   9.217   2.917
12097TIP3    H136168   5.493   9.201   3.005
12097TIP3    H236169   5.589   9.289   2.927
12098TIP3   OH236170   4.506   9.128   3.304
12098TIP3    H136171   4.546   9.215   3.292
12098TIP3    H236172   4.492   9.096   3.215
12099TIP3   OH236173   5.731   9.175   3.246
12099TIP3    H136174   5.649   9.177   3.197
12099TIP3    H236175   5.798   9.196   3.180
12100TIP3   OH236176   4.980   8.848   3.225
12100TIP3    H136177   5.072   8.859   3.201
12100TIP3    H236178   4.974   8.757   3.256
12101TIP3   OH236179   8.157   0.111   2.211
12101TIP3    H136180   8.181   0.203   2.200
12101TIP3    H236181   8.216   0.063   2.153
12102TIP3   OH236182   9.002   0.605   3.364
12102TIP3    H136183   8.953   0.686   3.351
12102TIP3    H236184   8.935   0.536   3.363
12103TIP3   OH236185   5.621   8.765   2.338
12103TIP3    H136186   5.543   8.782   2.391
12103TIP3    H236187   5.630   8.842   2.283
12104TIP3   OH236188   8.981   0.398   3.604
12104TIP3    H136189   9.025   0.476   3.569
12104TIP3    H236190   9.050   0.332   3.607
12105TIP3   OH236191   4.728   8.905   3.389
12105TIP3    H136192   4.644   8.868   3.361
12105TIP3    H236193   4.705   8.975   3.450
12106TIP3   OH236194   8.798   0.209   3.533
12106TIP3    H136195   8.755   0.162   3.604
12106TIP3    H236196   8.844   0.280   3.576
12107TIP3   OH236197   4.903   8.930   2.328
12107TIP3    H136198   4.866   8.934   2.416
12107TIP3    H236199   4.871   8.847   2.293
12108TIP3   OH236200   7.863   0.143   3.299
12108TIP3    H136201   7.838   0.153   3.391
12108TIP3    H236202   7.807   0.205   3.252
12109TIP3   OH236203   4.694   9.196   2.897
12109TIP3    H136204   4.626   9.261   2.918
12109TIP3    H236205   4.673   9.168   2.808
12110TIP3   OH236206   8.374   0.183   2.598
12110TIP3    H136207   8.283   0.185   2.568
12110TIP3    H236208   8.424   0.155   2.521
12111TIP3   OH236209   8.665   0.335   3.786
12111TIP3    H136210   8.604   0.271   3.823
12111TIP3    H236211   8.611   0.410   3.762
12112TIP3   OH236212   8.471   0.099   2.855
12112TIP3    H136213   8.416   0.130   2.783
12112TIP3    H236214   8.541   0.049   2.812
12113TIP3   OH236215   7.783   0.167   3.562
12113TIP3    H136216   7.736   0.218   3.628
12113TIP3    H236217   7.808   0.087   3.607
12114TIP3   OH236218   4.577   8.916   2.313
12114TIP3    H136219   4.564   8.916   2.408
12114TIP3    H236220   4.499   8.959   2.278
12115TIP3   OH236221   4.190   8.910   3.153
12115TIP3    H136222   4.134   8.988   3.155
12115TIP3    H236223   4.180   8.875   3.064
12116TIP3   OH236224   4.037   8.931   2.673
12116TIP3    H136225   4.085   8.969   2.599
12116TIP3    H236226   3.980   9.002   2.704
12117TIP3   OH236227   8.547   0.370   3.310
12117TIP3    H136228   8.559   0.310   3.237
12117TIP3    H236229   8.524   0.314   3.384
12118TIP3   OH236230   4.964   9.042   2.943
12118TIP3    H136231   4.874   9.065   2.921
12118TIP3    H236232   4.995   9.116   2.995
12119TIP3   OH236233   4.422   9.123   3.042
12119TIP3    H136234   4.339   9.144   2.999
12119TIP3    H236235   4.453   9.045   2.997
12120TIP3   OH236236   4.624   9.166   2.624
12120TIP3    H136237   4.715   9.180   2.599
12120TIP3    H236238   4.575   9.182   2.543
12121TIP3   OH236239   5.407   9.179   3.169
12121TIP3    H136240   5.397   9.188   3.264
12121TIP3    H236241   5.345   9.111   3.145
12122TIP3   OH236242   4.459   9.193   2.410
12122TIP3    H136243   4.400   9.146   2.352
12122TIP3    H236244   4.505   9.255   2.354
12123TIP3   OH236245   8.312   0.016   3.081
12123TIP3    H136246   8.366   0.058   3.014
12123TIP3    H236247   8.239   0.076   3.093
12124TIP3   OH236248   4.526   8.888   2.946
12124TIP3    H136249   4.479   8.819   2.991
12124TIP3    H236250   4.540   8.855   2.857
12125TIP3   OH236251   4.894   9.147   3.352
12125TIP3    H136252   4.839   9.172   3.426
12125TIP3    H236253   4.964   9.212   3.351
12126TIP3   OH236254   5.144   9.057   2.347
12126TIP3    H136255   5.054   9.027   2.332
12126TIP3    H236256   5.141   9.151   2.328
12127TIP3   OH236257   8.510   0.092   2.371
12127TIP3    H136258   8.595   0.061   2.403
12127TIP3    H236259   8.528   0.127   2.284
12128TIP3   OH236260   8.246   0.590   3.851
12128TIP3    H136261   8.170   0.556   3.803
12128TIP3    H236262   8.320   0.569   3.795
12129TIP3   OH236263   8.917   0.170   2.238
12129TIP3    H136264   8.849   0.146   2.174
12129TIP3    H236265   8.888   0.254   2.274
12130TIP3   OH236266   4.509   9.137   3.743
12130TIP3    H136267   4.413   9.145   3.743
12130TIP3    H236268   4.530   9.098   3.827
12131TIP3   OH236269   8.643  -0.004   3.436
12131TIP3    H136270   8.708   0.064   3.450
12131TIP3    H236271   8.643  -0.054   3.517
12132TIP3   OH236272   5.214   8.996   2.603
12132TIP3    H136273   5.196   9.019   2.511
12132TIP3    H236274   5.270   9.067   2.635
12133TIP3   OH236275   4.914   9.179   2.636
12133TIP3    H136276   5.005   9.174   2.609
12133TIP3    H236277   4.912   9.248   2.702
12134TIP3   OH236278   8.463   0.200   3.512
12134TIP3    H136279   8.450   0.197   3.607
12134TIP3    H236280   8.512   0.120   3.493
12135TIP3   OH236281   5.039   8.858   2.760
12135TIP3    H136282   5.022   8.926   2.825
12135TIP3    H236283   5.107   8.896   2.703
12136TIP3   OH236284   4.547   8.893   2.591
12136TIP3    H136285   4.541   8.986   2.616
12136TIP3    H236286   4.640   8.873   2.594
12137TIP3   OH236287   9.055   0.136   3.449
12137TIP3    H136288   8.964   0.150   3.476
12137TIP3    H236289   9.050   0.076   3.375
12138TIP3   OH236290   8.752   0.299   2.783
12138TIP3    H136291   8.703   0.367   2.829
12138TIP3    H236292   8.813   0.265   2.848
12139TIP3   OH236293   4.061   9.119   2.467
12139TIP3    H136294   4.082   9.160   2.383
12139TIP3    H236295   3.965   9.114   2.468
12140TIP3   OH236296   4.493   8.797   3.315
12140TIP3    H136297   4.456   8.769   3.231
12140TIP3    H236298   4.475   8.725   3.375
12141TIP3   OH236299   7.870   0.489   3.975
12141TIP3    H136300   7.894   0.397   3.992
12141TIP3    H236301   7.796   0.505   4.033
12142TIP3   OH236302   8.098   0.225   3.548
12142TIP3    H136303   8.036   0.296   3.557
12142TIP3    H236304   8.145   0.243   3.466
12143TIP3   OH236305   7.876   0.121   2.254
12143TIP3    H136306   7.844   0.099   2.166
12143TIP3    H236307   7.971   0.113   2.248
12144TIP3   OH236308   8.189   0.032   3.718
12144TIP3    H136309   8.111  -0.014   3.749
12144TIP3    H236310   8.154   0.102   3.663
12145TIP3   OH236311   8.908   0.410   3.882
12145TIP3    H136312   8.829   0.371   3.844
12145TIP3    H236313   8.972   0.409   3.811
12146TIP3   OH236314   7.970   0.239   4.012
12146TIP3    H136315   7.930   0.152   4.006
12146TIP3    H236316   8.042   0.237   3.949
12147TIP3   OH236317   8.436   0.131   3.788
12147TIP3    H136318   8.418   0.182   3.867
12147TIP3    H236319   8.354   0.086   3.769
12148TIP3   OH236320   8.684   0.034   3.712
12148TIP3    H136321   8.601   0.051   3.756
12148TIP3    H236322   8.750   0.047   3.780
12149TIP3   OH236323   8.916   0.097   3.871
12149TIP3    H136324   8.938   0.005   3.873
12149TIP3    H236325   8.914   0.124   3.963
12150TIP3   OH236326   4.590   9.232   4.024
12150TIP3    H136327   4.609   9.138   4.023
12150TIP3    H236328   4.577   9.253   4.116
12151TIP3   OH236329   5.090   8.928   3.897
12151TIP3    H136330   5.168   8.876   3.879
12151TIP3    H236331   5.033   8.913   3.822
12152TIP3   OH236332   5.195   9.137   4.046
12152TIP3    H136333   5.166   9.066   3.989
12152TIP3    H236334   5.120   9.197   4.049
12153TIP3   OH236335   8.729   0.092   2.063
12153TIP3    H136336   8.750   0.121   1.974
12153TIP3    H236337   8.708  -0.001   2.053
12154TIP3   OH236338   8.861   0.279   2.527
12154TIP3    H136339   8.824   0.191   2.516
12154TIP3    H236340   8.829   0.308   2.613
12155TIP3   OH236341   9.214   0.550   3.540
12155TIP3    H136342   9.167   0.585   3.464
12155TIP3    H236343   9.287   0.500   3.503
12156TIP3   OH236344   5.416   9.065   2.041
12156TIP3    H136345   5.493   9.021   2.078
12156TIP3    H236346   5.344   9.004   2.056
12157TIP3   OH236347   8.776   0.025   2.442
12157TIP3    H136348   8.816  -0.058   2.466
12157TIP3    H236349   8.828   0.057   2.368
12158TIP3   OH236350   8.943   0.207   2.966
12158TIP3    H136351   9.016   0.232   2.909
12158TIP3    H236352   8.966   0.244   3.051
12159TIP3   OH236353   9.043   0.360   3.182
12159TIP3    H136354   8.965   0.362   3.238
12159TIP3    H236355   9.066   0.452   3.170
12160TIP3   OH236356   7.590   0.071   3.977
12160TIP3    H136357   7.686   0.076   3.978
12160TIP3    H236358   7.571  -0.018   4.006
12161TIP3   OH236359   6.202   9.218   3.753
12161TIP3    H136360   6.269   9.162   3.712
12161TIP3    H236361   6.165   9.268   3.680
12162TIP3   OH236362   5.628   9.032   2.519
12162TIP3    H136363   5.673   9.020   2.603
12162TIP3    H236364   5.564   8.962   2.515
12163TIP3   OH236365   4.275   9.007   3.396
12163TIP3    H136366   4.262   8.948   3.322
12163TIP3    H236367   4.365   9.038   3.388
12164TIP3   OH236368   7.451   0.075   3.479
12164TIP3    H136369   7.497   0.056   3.398
12164TIP3    H236370   7.415   0.163   3.467
12165TIP3   OH236371   9.317   0.096   3.559
12165TIP3    H136372   9.233   0.137   3.582
12165TIP3    H236373   9.293   0.023   3.501
12166TIP3   OH236374   5.655   8.971   2.156
12166TIP3    H136375   5.698   8.905   2.101
12166TIP3    H236376   5.713   9.046   2.155
12167TIP3   OH236377   4.103   8.812   2.908
12167TIP3    H136378   4.018   8.782   2.940
12167TIP3    H236379   4.083   8.857   2.826
12168TIP3   OH236380   4.311   8.845   3.733
12168TIP3    H136381   4.263   8.834   3.815
12168TIP3    H236382   4.251   8.893   3.676
12169TIP3   OH236383   5.960   9.083   3.453
12169TIP3    H136384   5.873   9.076   3.415
12169TIP3    H236385   5.997   8.995   3.445
12170TIP3   OH236386   5.221   8.980   3.092
12170TIP3    H136387   5.150   9.008   3.035
12170TIP3    H236388   5.281   8.933   3.035
12171TIP3   OH236389   5.663   8.942   2.996
12171TIP3    H136390   5.701   8.985   2.919
12171TIP3    H236391   5.569   8.942   2.978
12172TIP3   OH236392   5.779   8.991   2.748
12172TIP3    H136393   5.849   8.932   2.720
12172TIP3    H236394   5.814   9.079   2.734
12173TIP3   OH236395   4.404   8.683   3.078
12173TIP3    H136396   4.315   8.652   3.092
12173TIP3    H236397   4.457   8.603   3.076
12174TIP3   OH236398   4.225   8.615   2.735
12174TIP3    H136399   4.251   8.662   2.656
12174TIP3    H236400   4.195   8.683   2.795
12175TIP3   OH236401   4.857   8.755   2.952
12175TIP3    H136402   4.916   8.768   2.879
12175TIP3    H236403   4.877   8.827   3.013
12176TIP3   OH236404   5.402   8.839   2.944
12176TIP3    H136405   5.450   8.801   2.870
12176TIP3    H236406   5.404   8.771   3.012
12177TIP3   OH236407   5.430   8.837   2.524
12177TIP3    H136408   5.352   8.885   2.551
12177TIP3    H236409   5.420   8.751   2.563
12178TIP3   OH236410   4.329   8.742   2.498
12178TIP3    H136411   4.373   8.681   2.439
12178TIP3    H236412   4.400   8.794   2.536
12179TIP3   OH236413   4.821   8.922   2.594
12179TIP3    H136414   4.881   8.865   2.641
12179TIP3    H236415   4.850   9.011   2.615
12180TIP3   OH236416   4.623   8.960   3.968
12180TIP3    H136417   4.589   8.896   4.031
12180TIP3    H236418   4.715   8.972   3.993
12181TIP3   OH236419   4.869   8.984   4.084
12181TIP3    H136420   4.953   8.966   4.040
12181TIP3    H236421   4.864   8.918   4.154
12182TIP3   OH236422   5.722   9.078   3.882
12182TIP3    H136423   5.738   9.048   3.972
12182TIP3    H236424   5.808   9.073   3.840
12183TIP3   OH236425   9.123   0.218   2.421
12183TIP3    H136426   9.067   0.258   2.488
12183TIP3    H236427   9.063   0.191   2.352
12184TIP3   OH236428   0.572   0.477   2.570
12184TIP3    H136429   0.591   0.389   2.603
12184TIP3    H236430   0.529   0.462   2.486
12185TIP3   OH236431   9.719   0.123   2.531
12185TIP3    H136432   9.696   0.201   2.479
12185TIP3    H236433   9.661   0.055   2.498
12186TIP3   OH236434   0.640   0.220   2.227
12186TIP3    H136435   0.700   0.219   2.302
12186TIP3    H236436   0.697   0.203   2.152
12187TIP3   OH236437   9.370   0.319   2.691
12187TIP3    H136438   9.461   0.304   2.716
12187TIP3    H236439   9.366   0.291   2.599
12188TIP3   OH236440   9.762   0.487   2.570
12188TIP3    H136441   9.853   0.468   2.546
12188TIP3    H236442   9.710   0.450   2.499
12189TIP3   OH236443   9.716   0.122   2.995
12189TIP3    H136444   9.667   0.161   2.922
12189TIP3    H236445   9.662   0.138   3.072
12190TIP3   OH236446   0.803   0.243   2.449
12190TIP3    H136447   0.744   0.225   2.522
12190TIP3    H236448   0.821   0.337   2.455
12191TIP3   OH236449   9.622   0.235   2.764
12191TIP3    H136450   9.681   0.309   2.777
12191TIP3    H236451   9.659   0.188   2.689
12192TIP3   OH236452   0.929   0.167   2.749
12192TIP3    H136453   0.839   0.196   2.738
12192TIP3    H236454   0.972   0.190   2.666
12193TIP3   OH236455   6.780   9.059   2.733
12193TIP3    H136456   6.774   8.968   2.760
12193TIP3    H236457   6.702   9.101   2.769
12194TIP3   OH236458   0.155   0.433   1.780
12194TIP3    H136459   0.174   0.362   1.840
12194TIP3    H236460   0.194   0.405   1.697
12195TIP3   OH236461   7.474   9.061   1.902
12195TIP3    H136462   7.389   9.077   1.943
12195TIP3    H236463   7.486   9.136   1.842
12196TIP3   OH236464   6.542   9.147   2.848
12196TIP3    H136465   6.457   9.115   2.817
12196TIP3    H236466   6.522   9.228   2.894
12197TIP3   OH236467   0.550   0.042   3.054
12197TIP3    H136468   0.621   0.016   3.112
12197TIP3    H236469   0.470   0.018   3.101
12198TIP3   OH236470   0.794   0.487   2.958
12198TIP3    H136471   0.750   0.478   3.042
12198TIP3    H236472   0.736   0.542   2.906
12199TIP3   OH236473   6.758   9.104   1.861
12199TIP3    H136474   6.729   9.150   1.940
12199TIP3    H236475   6.681   9.052   1.835
12200TIP3   OH236476   9.760   0.478   2.839
12200TIP3    H136477   9.678   0.508   2.878
12200TIP3    H236478   9.753   0.501   2.747
12201TIP3   OH236479   9.624   0.336   2.384
12201TIP3    H136480   9.534   0.311   2.404
12201TIP3    H236481   9.640   0.300   2.297
12202TIP3   OH236482   0.316   0.420   2.092
12202TIP3    H136483   0.278   0.504   2.067
12202TIP3    H236484   0.380   0.402   2.022
12203TIP3   OH236485   0.487   0.649   3.175
12203TIP3    H136486   0.477   0.580   3.241
12203TIP3    H236487   0.576   0.683   3.190
12204TIP3   OH236488   0.444   0.384   2.340
12204TIP3    H136489   0.391   0.409   2.265
12204TIP3    H236490   0.511   0.325   2.304
12205TIP3   OH236491   9.616   0.460   3.131
12205TIP3    H136492   9.547   0.500   3.185
12205TIP3    H236493   9.611   0.367   3.150
12206TIP3   OH236494   6.355   9.170   1.830
12206TIP3    H136495   6.356   9.171   1.925
12206TIP3    H236496   6.270   9.210   1.807
12207TIP3   OH236497   5.903   9.217   2.671
12207TIP3    H136498   5.974   9.254   2.723
12207TIP3    H236499   5.939   9.212   2.582
12208TIP3   OH236500   5.816   9.198   2.153
12208TIP3    H136501   5.869   9.222   2.077
12208TIP3    H236502   5.767   9.277   2.175
12209TIP3   OH236503   0.602   0.616   2.808
12209TIP3    H136504   0.597   0.586   2.718
12209TIP3    H236505   0.515   0.602   2.843
12210TIP3   OH236506   0.181   0.115   2.426
12210TIP3    H136507   0.096   0.114   2.472
12210TIP3    H236508   0.240   0.161   2.486
12211TIP3   OH236509   9.394   0.202   2.443
12211TIP3    H136510   9.300   0.202   2.424
12211TIP3    H236511   9.422   0.112   2.426
12212TIP3   OH236512   9.648   0.196   2.149
12212TIP3    H136513   9.735   0.221   2.119
12212TIP3    H236514   9.589   0.228   2.080
12213TIP3   OH236515   0.636   0.221   2.666
12213TIP3    H136516   0.614   0.246   2.756
12213TIP3    H236517   0.569   0.159   2.641
12214TIP3   OH236518   9.461   0.253   1.952
12214TIP3    H136519   9.429   0.189   1.889
12214TIP3    H236520   9.524   0.306   1.904
12215TIP3   OH236521   0.223   0.402   2.529
12215TIP3    H136522   0.307   0.404   2.483
12215TIP3    H236523   0.247   0.384   2.620
12216TIP3   OH236524   6.258   9.190   2.420
12216TIP3    H136525   6.232   9.114   2.473
12216TIP3    H236526   6.280   9.153   2.334
12217TIP3   OH236527   0.211   0.361   2.811
12217TIP3    H136528   0.127   0.406   2.821
12217TIP3    H236529   0.273   0.416   2.858
12218TIP3   OH236530   0.396   0.140   1.929
12218TIP3    H136531   0.314   0.130   1.881
12218TIP3    H236532   0.434   0.221   1.896
12219TIP3   OH236533   0.476   0.402   1.860
12219TIP3    H136534   0.566   0.389   1.831
12219TIP3    H236535   0.444   0.475   1.806
12220TIP3   OH236536   0.236   0.732   3.264
12220TIP3    H136537   0.170   0.695   3.205
12220TIP3    H236538   0.320   0.718   3.218
12221TIP3   OH236539   9.565   0.192   3.213
12221TIP3    H136540   9.470   0.195   3.214
12221TIP3    H236541   9.589   0.135   3.285
12222TIP3   OH236542   0.579   0.283   2.927
12222TIP3    H136543   0.653   0.321   2.974
12222TIP3    H236544   0.564   0.199   2.972
12223TIP3   OH236545   0.490   0.005   2.141
12223TIP3    H136546   0.450   0.045   2.064
12223TIP3    H236547   0.536   0.077   2.184
12224TIP3   OH236548   0.133   0.218   2.165
12224TIP3    H136549   0.199   0.284   2.141
12224TIP3    H236550   0.151   0.201   2.258
12225TIP3   OH236551   0.396   0.495   2.960
12225TIP3    H136552   0.424   0.549   3.034
12225TIP3    H236553   0.458   0.423   2.958
12226TIP3   OH236554   6.816   9.142   2.289
12226TIP3    H136555   6.788   9.219   2.338
12226TIP3    H236556   6.893   9.171   2.240
12227TIP3   OH236557   6.347   9.165   2.111
12227TIP3    H136558   6.343   9.258   2.134
12227TIP3    H236559   6.441   9.145   2.111
12228TIP3   OH236560   1.052   0.400   2.923
12228TIP3    H136561   0.967   0.442   2.934
12228TIP3    H236562   1.032   0.313   2.888
12229TIP3   OH236563   9.106   0.180   1.915
12229TIP3    H136564   9.149   0.232   1.982
12229TIP3    H236565   9.012   0.196   1.929
12230TIP3   OH236566   6.279   9.066   2.815
12230TIP3    H136567   6.249   9.034   2.730
12230TIP3    H236568   6.270   8.990   2.873
12231TIP3   OH236569   9.596   0.644   3.470
12231TIP3    H136570   9.681   0.604   3.452
12231TIP3    H236571   9.604   0.733   3.434
12232TIP3   OH236572   0.060   0.586   3.093
12232TIP3    H136573  -0.026   0.550   3.111
12232TIP3    H236574   0.070   0.582   2.998
12233TIP3   OH236575   9.685   0.363   1.833
12233TIP3    H136576   9.662   0.304   1.762
12233TIP3    H236577   9.778   0.383   1.819
12234TIP3   OH236578   0.179   0.393   3.249
12234TIP3    H136579   0.183   0.317   3.191
12234TIP3    H236580   0.152   0.465   3.192
12235TIP3   OH236581   0.172   0.204   3.042
12235TIP3    H136582   0.198   0.244   2.959
12235TIP3    H236583   0.082   0.176   3.027
12236TIP3   OH236584   0.767   0.667   3.299
12236TIP3    H136585   0.770   0.572   3.298
12236TIP3    H236586   0.851   0.695   3.264
12237TIP3   OH236587   0.030   0.491   3.462
12237TIP3    H136588  -0.028   0.418   3.485
12237TIP3    H236589   0.077   0.460   3.384
12238TIP3   OH236590   6.826   9.216   3.135
12238TIP3    H136591   6.786   9.297   3.103
12238TIP3    H236592   6.759   9.149   3.120
12239TIP3   OH236593   0.441   0.437   3.341
12239TIP3    H136594   0.444   0.434   3.437
12239TIP3    H236595   0.350   0.415   3.319
12240TIP3   OH236596   0.673   0.402   3.190
12240TIP3    H136597   0.592   0.399   3.241
12240TIP3    H236598   0.741   0.373   3.251
12241TIP3   OH236599   0.875   0.378   3.375
12241TIP3    H136600   0.896   0.284   3.378
12241TIP3    H236601   0.870   0.404   3.467
12242TIP3   OH236602   9.669   0.283   3.545
12242TIP3    H136603   9.670   0.195   3.506
12242TIP3    H236604   9.708   0.271   3.631
12243TIP3   OH236605   6.880   9.196   3.401
12243TIP3    H136606   6.950   9.131   3.399
12243TIP3    H236607   6.854   9.207   3.310
12244TIP3   OH236608   0.438   0.168   3.549
12244TIP3    H136609   0.408   0.097   3.493
12244TIP3    H236610   0.366   0.232   3.548
12245TIP3   OH236611   0.800   0.109   1.663
12245TIP3    H136612   0.878   0.139   1.617
12245TIP3    H236613   0.757   0.051   1.600
12246TIP3   OH236614   9.400   0.346   3.468
12246TIP3    H136615   9.492   0.361   3.490
12246TIP3    H236616   9.378   0.263   3.510
12247TIP3   OH236617   1.419   0.231   3.236
12247TIP3    H136618   1.478   0.160   3.209
12247TIP3    H236619   1.442   0.304   3.178
12248TIP3   OH236620   0.824   0.107   2.057
12248TIP3    H136621   0.905   0.086   2.102
12248TIP3    H236622   0.786   0.022   2.035
12249TIP3   OH236623   9.378   0.046   2.847
12249TIP3    H136624   9.438  -0.028   2.844
12249TIP3    H236625   9.431   0.121   2.822
12250TIP3   OH236626   9.161   0.337   2.863
12250TIP3    H136627   9.225   0.316   2.795
12250TIP3    H236628   9.187   0.423   2.895
12251TIP3   OH236629   5.884   9.077   2.394
12251TIP3    H136630   5.799   9.058   2.434
12251TIP3    H236631   5.863   9.125   2.314
12252TIP3   OH236632   6.127   9.137   3.231
12252TIP3    H136633   6.073   9.123   3.309
12252TIP3    H236634   6.066   9.169   3.165
12253TIP3   OH236635   1.189   0.055   2.957
12253TIP3    H136636   1.121   0.057   2.889
12253TIP3    H236637   1.246  -0.018   2.932
12254TIP3   OH236638   0.442   0.040   2.589
12254TIP3    H136639   0.386  -0.030   2.622
12254TIP3    H236640   0.503  -0.005   2.530
12255TIP3   OH236641   7.455   9.186   2.428
12255TIP3    H136642   7.490   9.246   2.363
12255TIP3    H236643   7.364   9.212   2.440
12256TIP3   OH236644   1.055   0.049   2.200
12256TIP3    H136645   1.113  -0.026   2.192
12256TIP3    H236646   1.113   0.125   2.204
12257TIP3   OH236647   6.191   8.964   2.572
12257TIP3    H136648   6.103   8.929   2.583
12257TIP3    H236649   6.247   8.887   2.566
12258TIP3   OH236650   6.018   8.883   2.244
12258TIP3    H136651   6.044   8.934   2.168
12258TIP3    H236652   5.979   8.947   2.303
12259TIP3   OH236653   6.670   9.000   2.480
12259TIP3    H136654   6.716   9.051   2.413
12259TIP3    H236655   6.710   9.028   2.562
12260TIP3   OH236656   7.168   9.149   2.438
12260TIP3    H136657   7.158   9.108   2.352
12260TIP3    H236658   7.177   9.075   2.498
12261TIP3   OH236659   7.230   9.099   2.021
12261TIP3    H136660   7.151   9.150   2.041
12261TIP3    H236661   7.220   9.018   2.071
12262TIP3   OH236662   6.119   9.026   2.022
12262TIP3    H136663   6.159   8.956   1.970
12262TIP3    H236664   6.193   9.074   2.058
12263TIP3   OH236665   6.626   9.196   2.090
12263TIP3    H136666   6.680   9.156   2.159
12263TIP3    H236667   6.636   9.290   2.104
12264TIP3   OH236668   6.422   9.258   3.446
12264TIP3    H136669   6.389   9.191   3.506
12264TIP3    H236670   6.515   9.268   3.469
12265TIP3   OH236671   6.668   9.259   3.572
12265TIP3    H136672   6.744   9.234   3.519
12265TIP3    H236673   6.663   9.192   3.641
12266TIP3   OH236674   0.946   0.111   3.367
12266TIP3    H136675   0.967   0.079   3.455
12266TIP3    H236676   1.028   0.105   3.319
12267TIP3   OH236677   2.235   0.639   7.801
12267TIP3    H136678   2.225   0.576   7.873
12267TIP3    H236679   2.239   0.725   7.845
12268TIP3   OH236680   1.823   1.054   7.787
12268TIP3    H136681   1.853   0.989   7.723
12268TIP3    H236682   1.868   1.030   7.868
12269TIP3   OH236683   2.226   0.882   7.940
12269TIP3    H136684   2.142   0.904   7.981
12269TIP3    H236685   2.247   0.959   7.886
12270TIP3   OH236686   1.973   0.902   7.615
12270TIP3    H136687   2.014   0.817   7.598
12270TIP3    H236688   2.044   0.965   7.605
12271TIP3   OH236689   2.115   0.676   7.559
12271TIP3    H136690   2.142   0.602   7.505
12271TIP3    H236691   2.161   0.664   7.642
12272TIP3   OH236692   5.633   5.467   0.379
12272TIP3    H136693   5.706   5.406   0.375
12272TIP3    H236694   5.626   5.502   0.290
12273TIP3   OH236695   5.978   4.992   0.075
12273TIP3    H136696   5.895   5.023   0.110
12273TIP3    H236697   5.999   5.052   0.004
12274TIP3   OH236698   2.322   0.752   7.013
12274TIP3    H136699   2.316   0.845   6.991
12274TIP3    H236700   2.413   0.729   6.996
12275TIP3   OH236701   5.976   5.744   0.461
12275TIP3    H136702   5.942   5.682   0.398
12275TIP3    H236703   5.908   5.750   0.528
12276TIP3   OH236704   1.611   1.070   7.451
12276TIP3    H136705   1.565   1.060   7.368
12276TIP3    H236706   1.571   1.147   7.492
12277TIP3   OH236707   1.809   0.958   7.121
12277TIP3    H136708   1.865   0.887   7.089
12277TIP3    H236709   1.842   0.976   7.210
12278TIP3   OH236710   1.867   1.015   7.386
12278TIP3    H136711   1.777   1.029   7.415
12278TIP3    H236712   1.909   0.969   7.459
12279TIP3   OH236713   5.684   6.207   0.594
12279TIP3    H136714   5.680   6.283   0.535
12279TIP3    H236715   5.777   6.199   0.617
12280TIP3   OH236716   5.747   5.148   0.079
12280TIP3    H136717   5.786   5.222   0.033
12280TIP3    H236718   5.667   5.184   0.119
12281TIP3   OH236719   5.900   5.476   0.542
12281TIP3    H136720   5.915   5.422   0.619
12281TIP3    H236721   5.978   5.464   0.488
12282TIP3   OH236722   2.242   0.826   7.272
12282TIP3    H136723   2.209   0.758   7.331
12282TIP3    H236724   2.263   0.781   7.191
12283TIP3   OH236725   2.032   0.561   7.193
12283TIP3    H136726   2.093   0.531   7.261
12283TIP3    H236727   1.946   0.546   7.231
12284TIP3   OH236728   5.499   5.822   0.230
12284TIP3    H136729   5.411   5.816   0.269
12284TIP3    H236730   5.490   5.886   0.160
12285TIP3   OH236731   2.315   1.025   6.980
12285TIP3    H136732   2.365   1.101   6.951
12285TIP3    H236733   2.236   1.061   7.020
12286TIP3   OH236734   2.197   0.469   7.395
12286TIP3    H136735   2.182   0.386   7.440
12286TIP3    H236736   2.291   0.473   7.383
12287TIP3   OH236737   2.295   1.146   7.864
12287TIP3    H136738   2.253   1.193   7.791
12287TIP3    H236739   2.388   1.166   7.855
12288TIP3   OH236740   1.956   0.754   7.005
12288TIP3    H136741   2.000   0.695   7.066
12288TIP3    H236742   2.014   0.758   6.929
12289TIP3   OH236743   2.356   0.282   6.998
12289TIP3    H136744   2.311   0.226   6.935
12289TIP3    H236745   2.304   0.362   7.000
12290TIP3   OH236746   2.553   1.248   7.848
12290TIP3    H136747   2.538   1.320   7.909
12290TIP3    H236748   2.619   1.281   7.787
12291TIP3   OH236749   5.811   5.849   0.153
12291TIP3    H136750   5.766   5.764   0.147
12291TIP3    H236751   5.904   5.827   0.148
12292TIP3   OH236752   2.469   0.451   7.383
12292TIP3    H136753   2.526   0.521   7.351
12292TIP3    H236754   2.509   0.423   7.465
12293TIP3   OH236755   2.574   0.342   7.618
12293TIP3    H136756   2.529   0.338   7.702
12293TIP3    H236757   2.662   0.375   7.640
12294TIP3   OH236758   2.594   0.747   7.963
12294TIP3    H136759   2.659   0.689   7.923
12294TIP3    H236760   2.600   0.827   7.912
12295TIP3   OH236761   5.648   5.616   0.141
12295TIP3    H136762   5.590   5.685   0.172
12295TIP3    H236763   5.605   5.581   0.062
12296TIP3   OH236764   2.506   0.226   7.224
12296TIP3    H136765   2.447   0.236   7.149
12296TIP3    H236766   2.486   0.302   7.279
12297TIP3   OH236767   6.018   5.214   0.505
12297TIP3    H136768   6.052   5.126   0.521
12297TIP3    H236769   5.942   5.221   0.563
12298TIP3   OH236770   6.076   4.961   0.580
12298TIP3    H136771   6.026   4.907   0.641
12298TIP3    H236772   6.164   4.965   0.616
12299TIP3   OH236773   2.156   1.092   7.562
12299TIP3    H136774   2.201   1.098   7.477
12299TIP3    H236775   2.162   1.180   7.599
12300TIP3   OH236776   5.354   5.894   0.547
12300TIP3    H136777   5.371   5.800   0.544
12300TIP3    H236778   5.396   5.924   0.628
12301TIP3   OH236779   5.058   5.830   0.084
12301TIP3    H136780   4.981   5.778   0.105
12301TIP3    H236781   5.025   5.919   0.075
12302TIP3   OH236782   5.230   5.773   0.289
12302TIP3    H136783   5.181   5.772   0.371
12302TIP3    H236784   5.163   5.769   0.220
12303TIP3   OH236785   2.194   1.363   8.010
12303TIP3    H136786   2.194   1.440   7.953
12303TIP3    H236787   2.239   1.295   7.960
12304TIP3   OH236788   1.542   1.010   7.186
12304TIP3    H136789   1.633   1.001   7.158
12304TIP3    H236790   1.504   0.924   7.171
12305TIP3   OH236791   2.274   1.093   7.311
12305TIP3    H136792   2.267   0.998   7.302
12305TIP3    H236793   2.226   1.127   7.235
12306TIP3   OH236794   5.793   5.946   0.628
12306TIP3    H136795   5.755   5.872   0.582
12306TIP3    H236796   5.735   6.020   0.607
12307TIP3   OH236797   3.765   0.617   7.248
12307TIP3    H136798   3.730   0.703   7.224
12307TIP3    H236799   3.695   0.556   7.227
12308TIP3   OH236800   3.756   0.611   7.655
12308TIP3    H136801   3.807   0.594   7.735
12308TIP3    H236802   3.712   0.527   7.637
12309TIP3   OH236803   3.042   0.512   7.938
12309TIP3    H136804   3.053   0.431   7.987
12309TIP3    H236805   3.123   0.522   7.888
12310TIP3   OH236806   4.027   0.921   7.349
12310TIP3    H136807   4.014   0.853   7.416
12310TIP3    H236808   4.050   0.999   7.399
12311TIP3   OH236809   3.061   0.901   7.686
12311TIP3    H136810   3.035   0.809   7.683
12311TIP3    H236811   3.157   0.899   7.680
12312TIP3   OH236812   2.699   0.125   7.481
12312TIP3    H136813   2.659   0.192   7.536
12312TIP3    H236814   2.642   0.119   7.405
12313TIP3   OH236815   2.836   0.418   7.666
12313TIP3    H136816   2.893   0.347   7.697
12313TIP3    H236817   2.897   0.487   7.640
12314TIP3   OH236818   3.707   1.326   7.373
12314TIP3    H136819   3.724   1.265   7.301
12314TIP3    H236820   3.726   1.277   7.452
12315TIP3   OH236821   3.584   0.835   7.642
12315TIP3    H136822   3.626   0.751   7.623
12315TIP3    H236823   3.656   0.893   7.666
12316TIP3   OH236824   3.985   0.324   7.734
12316TIP3    H136825   4.022   0.251   7.784
12316TIP3    H236826   3.948   0.284   7.656
12317TIP3   OH236827   2.993   0.208   7.765
12317TIP3    H136828   3.075   0.176   7.803
12317TIP3    H236829   2.981   0.156   7.685
12318TIP3   OH236830   3.384   0.390   7.597
12318TIP3    H136831   3.477   0.370   7.606
12318TIP3    H236832   3.343   0.306   7.577
12319TIP3   OH236833   4.578   0.343   7.956
12319TIP3    H136834   4.512   0.382   7.899
12319TIP3    H236835   4.657   0.338   7.902
12320TIP3   OH236836   3.658   0.835   7.114
12320TIP3    H136837   3.620   0.803   7.032
12320TIP3    H236838   3.604   0.910   7.139
12321TIP3   OH236839   3.440   0.740   7.855
12321TIP3    H136840   3.383   0.806   7.894
12321TIP3    H236841   3.486   0.786   7.785
12322TIP3   OH236842   3.210   0.081   7.872
12322TIP3    H136843   3.282   0.142   7.888
12322TIP3    H236844   3.249  -0.005   7.889
12323TIP3   OH236845   3.268   0.933   7.942
12323TIP3    H136846   3.245   1.006   7.884
12323TIP3    H236847   3.195   0.927   8.003
12324TIP3   OH236848   2.626   0.647   7.258
12324TIP3    H136849   2.597   0.668   7.170
12324TIP3    H236850   2.652   0.732   7.295
12325TIP3   OH236851   4.060   1.167   7.491
12325TIP3    H136852   3.969   1.162   7.520
12325TIP3    H236853   4.067   1.250   7.445
12326TIP3   OH236854   3.774   1.187   7.140
12326TIP3    H136855   3.828   1.109   7.129
12326TIP3    H236856   3.832   1.260   7.114
12327TIP3   OH236857   3.912   0.955   7.101
12327TIP3    H136858   3.835   0.897   7.106
12327TIP3    H236859   3.961   0.936   7.181
12328TIP3   OH236860   4.329   1.036   7.821
12328TIP3    H136861   4.299   0.967   7.761
12328TIP3    H236862   4.314   1.117   7.773
12329TIP3   OH236863   3.596   0.444   7.109
12329TIP3    H136864   3.512   0.485   7.089
12329TIP3    H236865   3.643   0.442   7.026
12330TIP3   OH236866   3.552   0.269   6.796
12330TIP3    H136867   3.621   0.311   6.849
12330TIP3    H236868   3.597   0.199   6.750
12331TIP3   OH236869   4.470   0.713   7.692
12331TIP3    H136870   4.384   0.755   7.687
12331TIP3    H236871   4.505   0.720   7.603
12332TIP3   OH236872   3.948   0.544   7.061
12332TIP3    H136873   3.891   0.574   7.131
12332TIP3    H236874   4.033   0.528   7.103
12333TIP3   OH236875   4.164   0.583   7.976
12333TIP3    H136876   4.172   0.653   8.041
12333TIP3    H236877   4.075   0.590   7.943
12334TIP3   OH236878   3.193   0.524   7.445
12334TIP3    H136879   3.155   0.459   7.386
12334TIP3    H236880   3.263   0.477   7.490
12335TIP3   OH236881   3.327   0.942   7.598
12335TIP3    H136882   3.303   0.925   7.507
12335TIP3    H236883   3.415   0.906   7.606
12336TIP3   OH236884   3.271   0.533   7.799
12336TIP3    H136885   3.313   0.488   7.725
12336TIP3    H236886   3.333   0.602   7.823
12337TIP3   OH236887   3.806   1.170   7.593
12337TIP3    H136888   3.803   1.243   7.655
12337TIP3    H236889   3.805   1.092   7.649
12338TIP3   OH236890   6.684   5.717   0.102
12338TIP3    H136891   6.611   5.777   0.114
12338TIP3    H236892   6.647   5.642   0.056
12339TIP3   OH236893   3.784   0.397   6.896
12339TIP3    H136894   3.842   0.455   6.945
12339TIP3    H236895   3.815   0.403   6.805
12340TIP3   OH236896   6.526   5.192   0.123
12340TIP3    H136897   6.481   5.262   0.170
12340TIP3    H236898   6.459   5.151   0.069
12341TIP3   OH236899   3.523   1.075   7.146
12341TIP3    H136900   3.606   1.121   7.155
12341TIP3    H236901   3.465   1.137   7.101
12342TIP3   OH236902   6.469   5.894   0.140
12342TIP3    H136903   6.446   5.874   0.049
12342TIP3    H236904   6.391   5.937   0.175
12343TIP3   OH236905   3.061   0.361   7.260
12343TIP3    H136906   2.973   0.392   7.238
12343TIP3    H236907   3.049   0.269   7.285
12344TIP3   OH236908   4.108   1.008   6.515
12344TIP3    H136909   4.100   1.101   6.495
12344TIP3    H236910   4.200   0.987   6.496
12345TIP3   OH236911   6.102   5.447   0.098
12345TIP3    H136912   6.016   5.446   0.056
12345TIP3    H236913   6.117   5.356   0.123
12346TIP3   OH236914   2.658   0.989   7.847
12346TIP3    H136915   2.751   1.010   7.858
12346TIP3    H236916   2.613   1.072   7.861
12347TIP3   OH236917   4.538   1.436   7.893
12347TIP3    H136918   4.547   1.341   7.900
12347TIP3    H236919   4.458   1.456   7.941
12348TIP3   OH236920   6.916   5.808  -0.011
12348TIP3    H136921   6.915   5.901   0.014
12348TIP3    H236922   6.838   5.771   0.031
12349TIP3   OH236923   3.413   1.291   6.982
12349TIP3    H136924   3.368   1.277   6.899
12349TIP3    H236925   3.380   1.376   7.013
12350TIP3   OH236926   2.847   1.143   7.348
12350TIP3    H136927   2.898   1.139   7.429
12350TIP3    H236928   2.804   1.058   7.342
12351TIP3   OH236929   3.611   1.226   6.611
12351TIP3    H136930   3.663   1.153   6.576
12351TIP3    H236931   3.647   1.241   6.698
12352TIP3   OH236932   3.668   1.271   6.879
12352TIP3    H136933   3.583   1.274   6.921
12352TIP3    H236934   3.727   1.236   6.945
12353TIP3   OH236935   7.741   5.112   0.156
12353TIP3    H136936   7.647   5.118   0.139
12353TIP3    H236937   7.771   5.041   0.099
12354TIP3   OH236938   6.330   5.592   0.113
12354TIP3    H136939   6.311   5.657   0.181
12354TIP3    H236940   6.245   5.554   0.092
12355TIP3   OH236941   7.364   4.947   0.073
12355TIP3    H136942   7.405   4.960   0.159
12355TIP3    H236943   7.394   5.022   0.021
12356TIP3   OH236944   3.866   0.373   6.629
12356TIP3    H136945   3.812   0.386   6.551
12356TIP3    H236946   3.943   0.429   6.615
12357TIP3   OH236947   3.375   0.291   7.946
12357TIP3    H136948   3.303   0.300   8.008
12357TIP3    H236949   3.376   0.374   7.898
12358TIP3   OH236950   3.228   0.180   7.513
12358TIP3    H136951   3.144   0.145   7.541
12358TIP3    H236952   3.241   0.144   7.425
12359TIP3   OH236953   3.722   0.245   7.256
12359TIP3    H136954   3.673   0.317   7.217
12359TIP3    H236955   3.776   0.211   7.185
12360TIP3   OH236956   7.250   5.226   0.220
12360TIP3    H136957   7.172   5.194   0.266
12360TIP3    H236958   7.320   5.166   0.247
12361TIP3   OH236959   3.878   0.249   7.487
12361TIP3    H136960   3.820   0.273   7.415
12361TIP3    H236961   3.920   0.168   7.458
12362TIP3   OH236962   6.398   4.929   0.086
12362TIP3    H136963   6.439   4.943   0.172
12362TIP3    H236964   6.362   4.841   0.091
12363TIP3   OH236965   3.890   0.528   7.885
12363TIP3    H136966   3.929   0.460   7.830
12363TIP3    H236967   3.864   0.482   7.965
12364TIP3   OH236968   2.965   0.064   7.535
12364TIP3    H136969   2.874   0.083   7.514
12364TIP3    H236970   2.981  -0.022   7.497
12365TIP3   OH236971   3.241   0.070   7.265
12365TIP3    H136972   3.335   0.058   7.255
12365TIP3    H236973   3.205   0.055   7.177
12366TIP3   OH236974   3.138   0.055   7.010
12366TIP3    H136975   3.059   0.036   6.960
12366TIP3    H236976   3.189   0.113   6.953
12367TIP3   OH236977   4.257   1.762   7.973
12367TIP3    H136978   4.258   1.776   7.878
12367TIP3    H236979   4.334   1.809   8.005
12368TIP3   OH236980   6.419   5.568   0.497
12368TIP3    H136981   6.500   5.579   0.448
12368TIP3    H236982   6.437   5.497   0.558
12369TIP3   OH236983   3.656   0.346   7.645
12369TIP3    H136984   3.730   0.302   7.602
12369TIP3    H236985   3.656   0.311   7.734
12370TIP3   OH236986   3.655   0.248   7.898
12370TIP3    H136987   3.566   0.244   7.934
12370TIP3    H236988   3.709   0.275   7.972
12371TIP3   OH236989   3.360   0.575   7.045
12371TIP3    H136990   3.284   0.524   7.017
12371TIP3    H236991   3.329   0.625   7.120
12372TIP3   OH236992   4.235   0.847   7.645
12372TIP3    H136993   4.268   0.898   7.571
12372TIP3    H236994   4.155   0.807   7.612
12373TIP3   OH236995   7.002   5.533   0.004
12373TIP3    H136996   7.074   5.521   0.066
12373TIP3    H236997   6.977   5.625   0.014
12374TIP3   OH236998   3.882   0.177   7.045
12374TIP3    H136999   3.975   0.191   7.063
12374TIP3    H237000   3.858   0.247   6.985
12375TIP3   OH237001   3.034   0.620   7.648
12375TIP3    H137002   3.084   0.598   7.569
12375TIP3    H237003   3.091   0.593   7.720
12376TIP3   OH237004   3.507   0.748   6.893
12376TIP3    H137005   3.456   0.829   6.891
12376TIP3    H237006   3.453   0.687   6.945
12377TIP3   OH237007   6.280   5.068   0.363
12377TIP3    H137008   6.306   5.061   0.455
12377TIP3    H237009   6.247   4.980   0.341
12378TIP3   OH237010   6.843   5.380   0.191
12378TIP3    H137011   6.839   5.285   0.184
12378TIP3    H237012   6.892   5.407   0.113
12379TIP3   OH237013   3.923   1.204   7.918
12379TIP3    H137014   3.829   1.194   7.934
12379TIP3    H237015   3.954   1.253   7.995
12380TIP3   OH237016   4.299   0.241   6.883
12380TIP3    H137017   4.343   0.171   6.835
12380TIP3    H237018   4.286   0.310   6.817
12381TIP3   OH237019   4.565   1.163   7.912
12381TIP3    H137020   4.478   1.131   7.934
12381TIP3    H237021   4.584   1.124   7.827
12382TIP3   OH237022   4.028   1.078   6.782
12382TIP3    H137023   4.002   1.009   6.844
12382TIP3    H237024   4.047   1.031   6.701
12383TIP3   OH237025   4.003   0.720   7.547
12383TIP3    H137026   3.913   0.699   7.570
12383TIP3    H237027   4.040   0.638   7.513
12384TIP3   OH237028   3.174   0.951   7.363
12384TIP3    H137029   3.167   1.026   7.303
12384TIP3    H237030   3.092   0.952   7.413
12385TIP3   OH237031   2.733   0.217   7.073
12385TIP3    H137032   2.777   0.301   7.092
12385TIP3    H237033   2.655   0.218   7.129
12386TIP3   OH237034   3.240   0.712   7.245
12386TIP3    H137035   3.230   0.798   7.284
12386TIP3    H237036   3.226   0.651   7.318
12387TIP3   OH237037   3.455   1.263   7.793
12387TIP3    H137038   3.487   1.344   7.754
12387TIP3    H237039   3.530   1.227   7.841
12388TIP3   OH237040   3.085   1.170   7.209
12388TIP3    H137041   2.997   1.173   7.247
12388TIP3    H237042   3.118   1.259   7.218
12389TIP3   OH237043   3.822   0.938   7.747
12389TIP3    H137044   3.793   0.923   7.837
12389TIP3    H237045   3.907   0.894   7.741
12390TIP3   OH237046   3.799   0.812   6.661
12390TIP3    H137047   3.851   0.778   6.734
12390TIP3    H237048   3.714   0.770   6.671
12391TIP3   OH237049   4.065   1.432   7.820
12391TIP3    H137050   3.995   1.367   7.831
12391TIP3    H237051   4.036   1.486   7.747
12392TIP3   OH237052   4.105   1.278   6.470
12392TIP3    H137053   4.125   1.337   6.397
12392TIP3    H237054   4.036   1.322   6.519
12393TIP3   OH237055   3.979   0.705   6.838
12393TIP3    H137056   3.962   0.661   6.921
12393TIP3    H237057   4.074   0.717   6.837
12394TIP3   OH237058   2.897   1.124   7.898
12394TIP3    H137059   2.992   1.110   7.902
12394TIP3    H237060   2.872   1.144   7.989
12395TIP3   OH237061   3.143   0.787   6.690
12395TIP3    H137062   3.154   0.697   6.661
12395TIP3    H237063   3.135   0.780   6.785
12396TIP3   OH237064   3.093   0.794   6.967
12396TIP3    H137065   3.147   0.771   7.043
12396TIP3    H237066   3.094   0.890   6.966
12397TIP3   OH237067   2.822   0.469   7.160
12397TIP3    H137068   2.759   0.518   7.214
12397TIP3    H237069   2.845   0.530   7.090
12398TIP3   OH237070   3.359   0.975   6.880
12398TIP3    H137071   3.274   1.000   6.916
12398TIP3    H237072   3.389   1.053   6.833
12399TIP3   OH237073   3.517   0.059   7.292
12399TIP3    H137074   3.587   0.121   7.272
12399TIP3    H237075   3.526   0.043   7.386
12400TIP3   OH237076   7.090   4.977   0.094
12400TIP3    H137077   7.069   5.007   0.182
12400TIP3    H237078   7.180   4.947   0.099
12401TIP3   OH237079   3.111   1.069   6.956
12401TIP3    H137080   3.086   1.139   6.896
12401TIP3    H237081   3.102   1.107   7.043
12402TIP3   OH237082   4.093   0.464   7.468
12402TIP3    H137083   4.022   0.408   7.498
12402TIP3    H237084   4.170   0.432   7.515
12403TIP3   OH237085   2.853   0.657   6.952
12403TIP3    H137086   2.926   0.718   6.964
12403TIP3    H237087   2.882   0.596   6.885
12404TIP3   OH237088   9.298   9.175   7.064
12404TIP3    H137089   9.308   9.270   7.063
12404TIP3    H237090   9.226   9.159   7.125
12405TIP3   OH237091   4.088   1.427   7.399
12405TIP3    H137092   4.048   1.480   7.330
12405TIP3    H237093   4.182   1.440   7.386
12406TIP3   OH237094   2.679   0.914   7.339
12406TIP3    H137095   2.641   0.956   7.416
12406TIP3    H237096   2.634   0.955   7.265
12407TIP3   OH237097   6.268   6.025   0.301
12407TIP3    H137098   6.321   6.071   0.365
12407TIP3    H237099   6.179   6.030   0.334
12408TIP3   OH237100   6.640   6.073   0.259
12408TIP3    H137101   6.712   6.022   0.296
12408TIP3    H237102   6.594   6.011   0.202
12409TIP3   OH237103   3.300   0.981   6.569
12409TIP3    H137104   3.253   0.914   6.619
12409TIP3    H237105   3.375   0.935   6.532
12410TIP3   OH237106   7.289   5.963   0.131
12410TIP3    H137107   7.306   5.883   0.179
12410TIP3    H237108   7.358   6.024   0.160
12411TIP3   OH237109   3.743   1.019   6.489
12411TIP3    H137110   3.778   0.955   6.552
12411TIP3    H237111   3.803   1.014   6.415
12412TIP3   OH237112   6.221   5.368   0.624
12412TIP3    H137113   6.165   5.311   0.571
12412TIP3    H237114   6.223   5.451   0.577
12413TIP3   OH237115   2.968   0.472   6.790
12413TIP3    H137116   3.020   0.443   6.865
12413TIP3    H237117   3.033   0.492   6.722
12414TIP3   OH237118   6.884   5.649   0.276
12414TIP3    H137119   6.811   5.660   0.215
12414TIP3    H237120   6.885   5.555   0.296
12415TIP3   OH237121   3.544   0.695   6.628
12415TIP3    H137122   3.521   0.706   6.720
12415TIP3    H237123   3.523   0.603   6.609
12416TIP3   OH237124   4.089   0.979   7.950
12416TIP3    H137125   4.171   1.009   7.910
12416TIP3    H237126   4.028   1.051   7.935
12417TIP3   OH237127   6.352   5.019   0.622
12417TIP3    H137128   6.438   4.983   0.599
12417TIP3    H237129   6.366   5.062   0.707
12418TIP3   OH237130   3.143   0.408   6.997
12418TIP3    H137131   3.123   0.387   7.088
12418TIP3    H237132   3.191   0.331   6.965
12419TIP3   OH237133   6.774   5.100   0.199
12419TIP3    H137134   6.685   5.128   0.178
12419TIP3    H237135   6.820   5.103   0.115
12420TIP3   OH237136   3.287   0.218   6.848
12420TIP3    H137137   3.254   0.236   6.760
12420TIP3    H237138   3.380   0.240   6.845
12421TIP3   OH237139   7.194   5.497   0.193
12421TIP3    H137140   7.235   5.413   0.172
12421TIP3    H237141   7.164   5.488   0.283
12422TIP3   OH237142   4.077   0.515   6.522
12422TIP3    H137143   4.055   0.478   6.437
12422TIP3    H237144   4.057   0.608   6.514
12423TIP3   OH237145   6.782   4.896   0.379
12423TIP3    H137146   6.832   4.825   0.338
12423TIP3    H237147   6.790   4.969   0.318
12424TIP3   OH237148   3.616   0.565   7.969
12424TIP3    H137149   3.701   0.574   7.925
12424TIP3    H237150   3.559   0.628   7.924
12425TIP3   OH237151   7.465   5.043   0.309
12425TIP3    H137152   7.429   5.013   0.392
12425TIP3    H237153   7.527   5.112   0.335
12426TIP3   OH237154   7.482   5.435   0.133
12426TIP3    H137155   7.424   5.491   0.081
12426TIP3    H237156   7.569   5.449   0.098
12427TIP3   OH237157   6.609   4.916   0.592
12427TIP3    H137158   6.576   4.829   0.612
12427TIP3    H237159   6.666   4.904   0.516
12428TIP3   OH237160   7.095   4.928   0.557
12428TIP3    H137161   7.081   4.947   0.650
12428TIP3    H237162   7.065   4.838   0.546
12429TIP3   OH237163   3.091   1.278   6.770
12429TIP3    H137164   3.183   1.261   6.747
12429TIP3    H237165   3.057   1.328   6.696
12430TIP3   OH237166   2.580   0.664   6.969
12430TIP3    H137167   2.675   0.675   6.966
12430TIP3    H237168   2.565   0.578   6.930
12431TIP3   OH237169   2.479   1.239   7.416
12431TIP3    H137170   2.412   1.188   7.369
12431TIP3    H237171   2.522   1.175   7.472
12432TIP3   OH237172   2.624   1.063   7.573
12432TIP3    H137173   2.616   1.004   7.648
12432TIP3    H237174   2.679   1.135   7.604
12433TIP3   OH237175   4.359   1.477   7.395
12433TIP3    H137176   4.376   1.501   7.486
12433TIP3    H237177   4.414   1.536   7.344
12434TIP3   OH237178   4.373   1.507   7.672
12434TIP3    H137179   4.330   1.421   7.672
12434TIP3    H237180   4.445   1.497   7.735
12435TIP3   OH237181   7.700   5.847   0.179
12435TIP3    H137182   7.636   5.855   0.250
12435TIP3    H237183   7.746   5.930   0.179
12436TIP3   OH237184   4.260   0.708   6.849
12436TIP3    H137185   4.307   0.788   6.823
12436TIP3    H237186   4.305   0.680   6.929
12437TIP3   OH237187   4.386   0.587   7.065
12437TIP3    H137188   4.317   0.560   7.125
12437TIP3    H237189   4.451   0.631   7.120
12438TIP3   OH237190   4.411   0.996   7.491
12438TIP3    H137191   4.468   0.927   7.455
12438TIP3    H237192   4.421   1.069   7.430
12439TIP3   OH237193   4.240   1.261   7.685
12439TIP3    H137194   4.174   1.308   7.736
12439TIP3    H237195   4.191   1.221   7.614
12440TIP3   OH237196   4.257   0.465   6.722
12440TIP3    H137197   4.195   0.480   6.650
12440TIP3    H237198   4.251   0.544   6.776
12441TIP3   OH237199   4.151   0.191   6.570
12441TIP3    H137200   4.113   0.242   6.641
12441TIP3    H237201   4.077   0.141   6.534
12442TIP3   OH237202   4.174   0.471   7.205
12442TIP3    H137203   4.164   0.378   7.185
12442TIP3    H237204   4.149   0.479   7.297
12443TIP3   OH237205   2.778   0.560   7.890
12443TIP3    H137206   2.781   0.520   7.803
12443TIP3    H237207   2.869   0.568   7.917
12444TIP3   OH237208   4.462   0.862   8.025
12444TIP3    H137209   4.529   0.796   8.012
12444TIP3    H237210   4.447   0.900   7.938
12445TIP3   OH237211   7.919   5.285   0.030
12445TIP3    H137212   7.860   5.219   0.066
12445TIP3    H237213   7.992   5.288   0.092
12446TIP3   OH237214   4.152   0.208   7.108
12446TIP3    H137215   4.201   0.140   7.153
12446TIP3    H237216   4.201   0.224   7.027
12447TIP3   OH237217   4.319   0.368   7.588
12447TIP3    H137218   4.405   0.386   7.550
12447TIP3    H237219   4.329   0.391   7.681
12448TIP3   OH237220   4.382   0.491   7.831
12448TIP3    H137221   4.305   0.524   7.877
12448TIP3    H237222   4.418   0.567   7.786
12449TIP3   OH237223   2.857   0.150   7.995
12449TIP3    H137224   2.902   0.169   7.912
12449TIP3    H237225   2.832   0.235   8.030
12450TIP3   OH237226   3.910   1.397   7.041
12450TIP3    H137227   3.967   1.387   6.965
12450TIP3    H237228   3.952   1.465   7.094
12451TIP3   OH237229   6.264   5.737   0.341
12451TIP3    H137230   6.276   5.831   0.356
12451TIP3    H237231   6.327   5.696   0.401
12452TIP3   OH237232   3.200   1.197   7.877
12452TIP3    H137233   3.158   1.277   7.846
12452TIP3    H237234   3.293   1.209   7.855
12453TIP3   OH237235   6.905   6.069   0.068
12453TIP3    H137236   6.946   6.064   0.154
12453TIP3    H237237   6.963   6.126   0.017
12454TIP3   OH237238   3.827   1.612   7.954
12454TIP3    H137239   3.890   1.556   7.909
12454TIP3    H237240   3.880   1.674   8.004
12455TIP3   OH237241   2.889   1.444   7.978
12455TIP3    H137242   2.817   1.485   7.931
12455TIP3    H237243   2.891   1.488   8.063
12456TIP3   OH237244   3.107   1.443   7.820
12456TIP3    H137245   3.030   1.446   7.876
12456TIP3    H237246   3.078   1.482   7.737
12457TIP3   OH237247   3.530   1.488   7.653
12457TIP3    H137248   3.459   1.499   7.590
12457TIP3    H237249   3.536   1.572   7.698
12458TIP3   OH237250   3.792   1.421   7.707
12458TIP3    H137251   3.701   1.441   7.684
12458TIP3    H237252   3.843   1.487   7.659
12459TIP3   OH237253   3.993   1.587   7.601
12459TIP3    H137254   3.994   1.675   7.564
12459TIP3    H237255   4.022   1.530   7.530
12460TIP3   OH237256   2.792   1.261   7.688
12460TIP3    H137257   2.819   1.236   7.776
12460TIP3    H237258   2.865   1.234   7.632
12461TIP3   OH237259   3.008   1.141   7.569
12461TIP3    H137260   3.016   1.061   7.622
12461TIP3    H237261   3.095   1.181   7.574
12462TIP3   OH237262   3.279   1.220   7.583
12462TIP3    H137263   3.296   1.127   7.569
12462TIP3    H237264   3.338   1.244   7.654
12463TIP3   OH237265   2.559   1.029   7.122
12463TIP3    H137266   2.475   0.993   7.095
12463TIP3    H237267   2.556   1.121   7.095
12464TIP3   OH237268   3.353   1.209   6.711
12464TIP3    H137269   3.439   1.233   6.675
12464TIP3    H237270   3.326   1.134   6.658
12465TIP3   OH237271   4.064   1.347   6.815
12465TIP3    H137272   4.057   1.251   6.808
12465TIP3    H237273   4.022   1.380   6.735
12466TIP3   OH237274   2.671   1.048   6.771
12466TIP3    H137275   2.670   1.036   6.866
12466TIP3    H237276   2.749   1.001   6.741
12467TIP3   OH237277   4.284   1.489   7.989
12467TIP3    H137278   4.210   1.455   7.938
12467TIP3    H237279   4.272   1.584   7.990
12468TIP3   OH237280   5.554   0.883   6.770
12468TIP3    H137281   5.540   0.963   6.719
12468TIP3    H237282   5.467   0.859   6.802
12469TIP3   OH237283   5.558   0.864   7.145
12469TIP3    H137284   5.611   0.858   7.224
12469TIP3    H237285   5.508   0.782   7.144
12470TIP3   OH237286   4.840   0.736   7.494
12470TIP3    H137287   4.869   0.681   7.567
12470TIP3    H237288   4.921   0.757   7.446
12471TIP3   OH237289   5.825   1.177   6.835
12471TIP3    H137290   5.809   1.114   6.906
12471TIP3    H237291   5.847   1.258   6.880
12472TIP3   OH237292   4.844   1.149   7.184
12472TIP3    H137293   4.821   1.057   7.195
12472TIP3    H237294   4.940   1.150   7.184
12473TIP3   OH237295   4.528   0.362   6.985
12473TIP3    H137296   4.492   0.445   7.015
12473TIP3    H237297   4.451   0.309   6.962
12474TIP3   OH237298   4.609   0.683   7.198
12474TIP3    H137299   4.659   0.609   7.231
12474TIP3    H237300   4.675   0.751   7.181
12475TIP3   OH237301   5.489   1.596   6.851
12475TIP3    H137302   5.516   1.532   6.785
12475TIP3    H237303   5.494   1.549   6.934
12476TIP3   OH237304   5.364   1.078   7.177
12476TIP3    H137305   5.409   0.999   7.149
12476TIP3    H237306   5.433   1.138   7.203
12477TIP3   OH237307   5.783   0.548   7.297
12477TIP3    H137308   5.833   0.469   7.319
12477TIP3    H237309   5.719   0.518   7.232
12478TIP3   OH237310   4.733   0.453   7.285
12478TIP3    H137311   4.800   0.406   7.335
12478TIP3    H237312   4.745   0.423   7.194
12479TIP3   OH237313   5.171   0.692   7.100
12479TIP3    H137314   5.255   0.656   7.128
12479TIP3    H237315   5.114   0.616   7.090
12480TIP3   OH237316   6.318   0.558   7.469
12480TIP3    H137317   6.300   0.641   7.425
12480TIP3    H237318   6.371   0.509   7.407
12481TIP3   OH237319   5.469   1.085   6.605
12481TIP3    H137320   5.426   1.055   6.524
12481TIP3    H237321   5.417   1.161   6.632
12482TIP3   OH237322   5.217   1.001   7.406
12482TIP3    H137323   5.160   1.072   7.434
12482TIP3    H237324   5.265   1.036   7.331
12483TIP3   OH237325   4.930   0.286   7.366
12483TIP3    H137326   5.000   0.350   7.378
12483TIP3    H237327   4.967   0.203   7.397
12484TIP3   OH237328   5.049   1.209   7.483
12484TIP3    H137329   5.037   1.299   7.451
12484TIP3    H237330   4.970   1.191   7.533
12485TIP3   OH237331   4.405   0.927   6.746
12485TIP3    H137332   4.374   0.949   6.658
12485TIP3    H237333   4.430   1.010   6.785
12486TIP3   OH237334   5.863   1.420   6.976
12486TIP3    H137335   5.775   1.412   7.013
12486TIP3    H237336   5.863   1.504   6.931
12487TIP3   OH237337   5.575   1.447   6.631
12487TIP3    H137338   5.629   1.369   6.619
12487TIP3    H237339   5.631   1.520   6.604
12488TIP3   OH237340   5.715   1.217   6.586
12488TIP3    H137341   5.640   1.157   6.587
12488TIP3    H237342   5.764   1.197   6.666
12489TIP3   OH237343   6.105   1.297   7.329
12489TIP3    H137344   6.079   1.226   7.270
12489TIP3    H237345   6.088   1.377   7.279
12490TIP3   OH237346   5.344   0.688   6.508
12490TIP3    H137347   5.274   0.753   6.511
12490TIP3    H237348   5.413   0.729   6.457
12491TIP3   OH237349   5.321   0.498   6.311
12491TIP3    H137350   5.322   0.567   6.378
12491TIP3    H237351   5.295   0.419   6.357
12492TIP3   OH237352   6.267   0.976   7.162
12492TIP3    H137353   6.181   1.018   7.166
12492TIP3    H237354   6.309   1.015   7.085
12493TIP3   OH237355   5.741   0.824   6.563
12493TIP3    H137356   5.687   0.840   6.640
12493TIP3    H237357   5.825   0.796   6.599
12494TIP3   OH237358   5.970   0.857   7.449
12494TIP3    H137359   5.976   0.926   7.516
12494TIP3    H237360   5.879   0.858   7.421
12495TIP3   OH237361   4.967   0.819   6.952
12495TIP3    H137362   4.919   0.753   6.902
12495TIP3    H237363   5.038   0.770   6.994
12496TIP3   OH237364   5.113   1.196   7.103
12496TIP3    H137365   5.095   1.182   7.010
12496TIP3    H237366   5.198   1.155   7.118
12497TIP3   OH237367   5.055   0.793   7.326
12497TIP3    H137368   5.101   0.773   7.245
12497TIP3    H237369   5.110   0.859   7.369
12498TIP3   OH237370   5.622   1.410   7.100
12498TIP3    H137371   5.607   1.491   7.150
12498TIP3    H237372   5.606   1.340   7.163
12499TIP3   OH237373   5.244   1.310   7.651
12499TIP3    H137374   5.183   1.367   7.697
12499TIP3    H237375   5.189   1.256   7.594
12500TIP3   OH237376   5.590   0.691   6.374
12500TIP3    H137377   5.647   0.744   6.429
12500TIP3    H237378   5.610   0.719   6.284
12501TIP3   OH237379   4.977   0.860   7.809
12501TIP3    H137380   4.988   0.955   7.818
12501TIP3    H237381   4.885   0.848   7.787
12502TIP3   OH237382   5.330   1.322   6.637
12502TIP3    H137383   5.408   1.376   6.643
12502TIP3    H237384   5.266   1.376   6.591
12503TIP3   OH237385   5.037   1.466   7.739
12503TIP3    H137386   5.009   1.477   7.648
12503TIP3    H237387   4.955   1.451   7.787
12504TIP3   OH237388   4.818   0.654   6.780
12504TIP3    H137389   4.744   0.705   6.748
12504TIP3    H237390   4.786   0.564   6.786
12505TIP3   OH237391   5.907   1.267   6.001
12505TIP3    H137392   5.897   1.360   5.980
12505TIP3    H237393   5.999   1.248   5.983
12506TIP3   OH237394   4.624   1.041   7.675
12506TIP3    H137395   4.550   1.021   7.618
12506TIP3    H237396   4.654   0.955   7.705
12507TIP3   OH237397   4.472   1.226   7.342
12507TIP3    H137398   4.562   1.248   7.366
12507TIP3    H237399   4.421   1.303   7.368
12508TIP3   OH237400   6.330   1.687   7.394
12508TIP3    H137401   6.337   1.592   7.404
12508TIP3    H237402   6.249   1.710   7.440
12509TIP3   OH237403   5.433   1.453   7.515
12509TIP3    H137404   5.426   1.545   7.543
12509TIP3    H237405   5.364   1.408   7.565
12510TIP3   OH237406   5.217   1.552   6.470
12510TIP3    H137407   5.172   1.534   6.387
12510TIP3    H237408   5.178   1.634   6.501
12511TIP3   OH237409   4.646   1.408   6.846
12511TIP3    H137410   4.692   1.401   6.930
12511TIP3    H237411   4.598   1.326   6.838
12512TIP3   OH237412   5.418   1.493   6.096
12512TIP3    H137413   5.466   1.419   6.060
12512TIP3    H237414   5.453   1.504   6.185
12513TIP3   OH237415   5.470   1.528   6.367
12513TIP3    H137416   5.384   1.531   6.408
12513TIP3    H237417   5.527   1.493   6.435
12514TIP3   OH237418   6.267   0.736   7.683
12514TIP3    H137419   6.172   0.720   7.682
12514TIP3    H237420   6.303   0.668   7.626
12515TIP3   OH237421   4.826   1.224   7.648
12515TIP3    H137422   4.875   1.212   7.729
12515TIP3    H237423   4.754   1.162   7.653
12516TIP3   OH237424   6.004   0.661   7.656
12516TIP3    H137425   5.996   0.569   7.628
12516TIP3    H237426   5.973   0.711   7.581
12517TIP3   OH237427   5.650   0.754   6.115
12517TIP3    H137428   5.583   0.729   6.051
12517TIP3    H237429   5.676   0.842   6.090
12518TIP3   OH237430   5.110   0.501   7.342
12518TIP3    H137431   5.152   0.499   7.428
12518TIP3    H237432   5.073   0.589   7.336
12519TIP3   OH237433   4.963   0.527   7.029
12519TIP3    H137434   4.903   0.455   7.045
12519TIP3    H237435   4.976   0.527   6.934
12520TIP3   OH237436   5.515   0.573   6.687
12520TIP3    H137437   5.450   0.617   6.632
12520TIP3    H237438   5.566   0.520   6.625
12521TIP3   OH237439   5.732   0.851   7.772
12521TIP3    H137440   5.690   0.795   7.837
12521TIP3    H237441   5.825   0.850   7.795
12522TIP3   OH237442   5.657   0.659   6.904
12522TIP3    H137443   5.636   0.750   6.885
12522TIP3    H237444   5.630   0.612   6.825
12523TIP3   OH237445   4.934   0.590   7.706
12523TIP3    H137446   4.960   0.664   7.761
12523TIP3    H237447   5.016   0.548   7.682
12524TIP3   OH237448   5.708   0.810   7.371
12524TIP3    H137449   5.723   0.716   7.366
12524TIP3    H237450   5.642   0.821   7.439
12525TIP3   OH237451   4.789   0.298   7.057
12525TIP3    H137452   4.697   0.306   7.031
12525TIP3    H237453   4.789   0.232   7.125
12526TIP3   OH237454   4.840   0.404   6.507
12526TIP3    H137455   4.800   0.387   6.593
12526TIP3    H237456   4.766   0.416   6.448
12527TIP3   OH237457   6.039   2.014   7.475
12527TIP3    H137458   6.036   2.030   7.380
12527TIP3    H237459   6.117   2.062   7.505
12528TIP3   OH237460   4.978   1.131   7.882
12528TIP3    H137461   5.060   1.147   7.928
12528TIP3    H237462   4.911   1.141   7.949
12529TIP3   OH237463   5.431   0.611   7.177
12529TIP3    H137464   5.481   0.535   7.149
12529TIP3    H237465   5.421   0.600   7.272
12530TIP3   OH237466   5.464   0.501   7.432
12530TIP3    H137467   5.388   0.499   7.490
12530TIP3    H237468   5.535   0.534   7.486
12531TIP3   OH237469   5.127   0.855   6.520
12531TIP3    H137470   5.055   0.793   6.510
12531TIP3    H237471   5.111   0.896   6.605
12532TIP3   OH237472   6.030   1.112   7.141
12532TIP3    H137473   6.060   1.170   7.072
12532TIP3    H237474   5.948   1.075   7.108
12533TIP3   OH237475   5.545   1.174   7.547
12533TIP3    H137476   5.606   1.182   7.620
12533TIP3    H237477   5.498   1.258   7.546
12534TIP3   OH237478   5.638   0.443   6.477
12534TIP3    H137479   5.730   0.456   6.500
12534TIP3    H237480   5.616   0.518   6.422
12535TIP3   OH237481   4.822   0.866   7.182
12535TIP3    H137482   4.865   0.857   7.097
12535TIP3    H237483   4.888   0.839   7.246
12536TIP3   OH237484   5.302   1.019   6.393
12536TIP3    H137485   5.258   1.104   6.388
12536TIP3    H237486   5.237   0.961   6.433
12537TIP3   OH237487   4.703   0.808   7.804
12537TIP3    H137488   4.710   0.768   7.890
12537TIP3    H237489   4.633   0.760   7.760
12538TIP3   OH237490   5.464   0.955   7.835
12538TIP3    H137491   5.387   0.903   7.815
12538TIP3    H237492   5.532   0.922   7.776
12539TIP3   OH237493   5.705   1.469   7.445
12539TIP3    H137494   5.609   1.460   7.447
12539TIP3    H237495   5.727   1.509   7.529
12540TIP3   OH237496   6.172   0.466   6.439
12540TIP3    H137497   6.180   0.389   6.382
12540TIP3    H237498   6.100   0.517   6.400
12541TIP3   OH237499   6.346   1.413   7.411
12541TIP3    H137500   6.254   1.386   7.416
12541TIP3    H237501   6.377   1.376   7.328
12542TIP3   OH237502   5.830   1.334   6.270
12542TIP3    H137503   5.803   1.265   6.332
12542TIP3    H237504   5.848   1.287   6.189
12543TIP3   OH237505   5.801   0.985   7.040
12543TIP3    H137506   5.714   0.955   7.064
12543TIP3    H237507   5.843   0.908   7.002
12544TIP3   OH237508   4.972   1.212   6.856
12544TIP3    H137509   4.960   1.288   6.798
12544TIP3    H237510   4.889   1.204   6.902
12545TIP3   OH237511   4.489   0.522   6.581
12545TIP3    H137512   4.538   0.601   6.606
12545TIP3    H237513   4.415   0.520   6.642
12546TIP3   OH237514   5.062   0.977   6.750
12546TIP3    H137515   5.045   1.067   6.778
12546TIP3    H237516   5.032   0.923   6.823
12547TIP3   OH237517   5.252   1.524   7.308
12547TIP3    H137518   5.286   1.599   7.258
12547TIP3    H237519   5.326   1.494   7.360
12548TIP3   OH237520   4.881   1.428   6.704
12548TIP3    H137521   4.793   1.435   6.743
12548TIP3    H237522   4.917   1.517   6.711
12549TIP3   OH237523   5.602   1.189   7.275
12549TIP3    H137524   5.586   1.181   7.369
12549TIP3    H237525   5.684   1.142   7.261
12550TIP3   OH237526   5.597   1.071   6.141
12550TIP3    H137527   5.643   1.046   6.221
12550TIP3    H237528   5.508   1.037   6.153
12551TIP3   OH237529   5.856   1.678   7.320
12551TIP3    H137530   5.785   1.617   7.342
12551TIP3    H237531   5.821   1.733   7.251
12552TIP3   OH237532   5.897   1.537   5.949
12552TIP3    H137533   5.899   1.589   5.869
12552TIP3    H237534   5.832   1.581   6.004
12553TIP3   OH237535   5.764   0.985   6.337
12553TIP3    H137536   5.751   0.940   6.421
12553TIP3    H237537   5.858   0.999   6.331
12554TIP3   OH237538   4.679   1.421   7.470
12554TIP3    H137539   4.733   1.363   7.523
12554TIP3    H237540   4.694   1.508   7.507
12555TIP3   OH237541   4.945   1.063   6.178
12555TIP3    H137542   4.954   0.972   6.150
12555TIP3    H237543   4.932   1.058   6.273
12556TIP3   OH237544   4.886   1.053   6.449
12556TIP3    H137545   4.956   1.026   6.508
12556TIP3    H237546   4.886   1.149   6.456
12557TIP3   OH237547   4.604   0.765   6.649
12557TIP3    H137548   4.540   0.815   6.699
12557TIP3    H237549   4.626   0.821   6.575
12558TIP3   OH237550   5.156   1.245   6.373
12558TIP3    H137551   5.071   1.267   6.410
12558TIP3    H237552   5.178   1.319   6.316
12559TIP3   OH237553   5.359   0.268   6.816
12559TIP3    H137554   5.361   0.353   6.859
12559TIP3    H237555   5.411   0.211   6.872
12560TIP3   OH237556   5.625   0.650   7.600
12560TIP3    H137557   5.554   0.714   7.594
12560TIP3    H237558   5.685   0.686   7.665
12561TIP3   OH237559   4.906   1.325   6.453
12561TIP3    H137560   4.887   1.396   6.392
12561TIP3    H237561   4.895   1.364   6.540
12562TIP3   OH237562   5.917   0.742   6.951
12562TIP3    H137563   5.837   0.690   6.949
12562TIP3    H237564   5.957   0.721   7.036
12563TIP3   OH237565   4.638   0.932   6.428
12563TIP3    H137566   4.711   0.993   6.440
12563TIP3    H237567   4.672   0.866   6.367
12564TIP3   OH237568   4.499   0.245   6.554
12564TIP3    H137569   4.503   0.337   6.578
12564TIP3    H237570   4.441   0.205   6.619
12565TIP3   OH237571   5.881   1.683   6.889
12565TIP3    H137572   5.837   1.736   6.822
12565TIP3    H237573   5.974   1.702   6.877
12566TIP3   OH237574   4.467   1.189   6.827
12566TIP3    H137575   4.430   1.228   6.906
12566TIP3    H237576   4.422   1.233   6.755
12567TIP3   OH237577   4.675   1.719   7.889
12567TIP3    H137578   4.757   1.719   7.938
12567TIP3    H237579   4.650   1.627   7.883
12568TIP3   OH237580   5.141   1.623   7.940
12568TIP3    H137581   5.233   1.598   7.949
12568TIP3    H237582   5.109   1.572   7.865
12569TIP3   OH237583   5.106   1.245   6.051
12569TIP3    H137584   5.057   1.180   6.101
12569TIP3    H237585   5.176   1.195   6.009
12570TIP3   OH237586   5.761   1.573   7.691
12570TIP3    H137587   5.779   1.503   7.755
12570TIP3    H237588   5.832   1.636   7.704
12571TIP3   OH237589   5.538   1.281   5.973
12571TIP3    H137590   5.576   1.217   6.033
12571TIP3    H237591   5.593   1.276   5.894
12572TIP3   OH237592   8.047   5.749   0.077
12572TIP3    H137593   8.065   5.655   0.085
12572TIP3    H237594   7.965   5.754   0.028
12573TIP3   OH237595   4.767   0.734   6.291
12573TIP3    H137596   4.818   0.712   6.368
12573TIP3    H237597   4.832   0.759   6.225
12574TIP3   OH237598   5.401   1.223   7.858
12574TIP3    H137599   5.354   1.242   7.777
12574TIP3    H237600   5.435   1.135   7.847
12575TIP3   OH237601   5.341   0.972   6.127
12575TIP3    H137602   5.317   0.988   6.218
12575TIP3    H237603   5.332   0.877   6.116
12576TIP3   OH237604   5.873   1.245   7.481
12576TIP3    H137605   5.952   1.272   7.435
12576TIP3    H237606   5.811   1.316   7.465
12577TIP3   OH237607   8.141   5.492   0.073
12577TIP3    H137608   8.196   5.469  -0.003
12577TIP3    H237609   8.193   5.465   0.149
12578TIP3   OH237610   4.920   0.671   6.521
12578TIP3    H137611   4.899   0.682   6.614
12578TIP3    H237612   4.912   0.577   6.506
12579TIP3   OH237613   5.252   0.802   7.764
12579TIP3    H137614   5.159   0.821   7.775
12579TIP3    H237615   5.254   0.716   7.722
12580TIP3   OH237616   5.742   1.123   7.852
12580TIP3    H137617   5.737   1.047   7.795
12580TIP3    H237618   5.754   1.086   7.940
12581TIP3   OH237619   5.917   0.803   5.944
12581TIP3    H137620   5.867   0.752   5.881
12581TIP3    H237621   5.874   0.888   5.947
12582TIP3   OH237622   6.497   0.654   5.924
12582TIP3    H137623   6.548   0.648   6.005
12582TIP3    H237624   6.422   0.708   5.947
12583TIP3   OH237625   5.480   0.884   7.536
12583TIP3    H137626   5.490   0.979   7.532
12583TIP3    H237627   5.386   0.869   7.537
12584TIP3   OH237628   5.975   0.818   7.895
12584TIP3    H137629   6.000   0.749   7.834
12584TIP3    H237630   6.051   0.876   7.899
12585TIP3   OH237631   6.006   1.060   7.639
12585TIP3    H137632   5.944   1.125   7.604
12585TIP3    H237633   6.091   1.086   7.602
12586TIP3   OH237634   8.496   5.268   0.120
12586TIP3    H137635   8.411   5.261   0.163
12586TIP3    H237636   8.480   5.242   0.029
12587TIP3   OH237637   5.619   0.687   7.954
12587TIP3    H137638   5.579   0.736   8.025
12587TIP3    H237639   5.569   0.606   7.949
12588TIP3   OH237640   4.906   1.531   6.270
12588TIP3    H137641   4.997   1.514   6.243
12588TIP3    H237642   4.866   1.575   6.195
12589TIP3   OH237643   4.366   0.933   6.458
12589TIP3    H137644   4.461   0.946   6.450
12589TIP3    H237645   4.349   0.850   6.414
12590TIP3   OH237646   4.273   1.495   6.912
12590TIP3    H137647   4.208   1.442   6.866
12590TIP3    H237648   4.318   1.434   6.970
12591TIP3   OH237649   4.421   1.326   7.076
12591TIP3    H137650   4.414   1.258   7.142
12591TIP3    H237651   4.473   1.395   7.116
12592TIP3   OH237652   6.149   1.748   6.890
12592TIP3    H137653   6.165   1.762   6.983
12592TIP3    H237654   6.191   1.822   6.847
12593TIP3   OH237655   6.173   1.753   7.166
12593TIP3    H137656   6.128   1.669   7.167
12593TIP3    H237657   6.241   1.745   7.233
12594TIP3   OH237658   6.234   1.470   7.731
12594TIP3    H137659   6.160   1.478   7.792
12594TIP3    H237660   6.280   1.553   7.738
12595TIP3   OH237661   6.040   1.007   6.330
12595TIP3    H137662   6.097   1.079   6.304
12595TIP3    H237663   6.079   0.972   6.409
12596TIP3   OH237664   6.156   0.884   6.547
12596TIP3    H137665   6.096   0.838   6.605
12596TIP3    H237666   6.218   0.928   6.605
12597TIP3   OH237667   6.206   1.270   6.993
12597TIP3    H137668   6.258   1.205   6.946
12597TIP3    H237669   6.208   1.347   6.937
12598TIP3   OH237670   6.030   1.516   7.179
12598TIP3    H137671   5.963   1.565   7.227
12598TIP3    H237672   5.984   1.478   7.104
12599TIP3   OH237673   6.065   0.785   6.172
12599TIP3    H137674   6.007   0.793   6.097
12599TIP3    H237675   6.053   0.866   6.221
12600TIP3   OH237676   6.029   0.439   6.065
12600TIP3    H137677   5.943   0.477   6.046
12600TIP3    H237678   6.017   0.391   6.147
12601TIP3   OH237679   5.973   0.718   6.682
12601TIP3    H137680   5.956   0.625   6.666
12601TIP3    H237681   5.966   0.727   6.777
12602TIP3   OH237682   4.579   0.784   7.450
12602TIP3    H137683   4.569   0.748   7.362
12602TIP3    H237684   4.672   0.777   7.468
12603TIP3   OH237685   6.248   1.124   7.526
12603TIP3    H137686   6.322   1.067   7.504
12603TIP3    H237687   6.234   1.178   7.449
12604TIP3   OH237688   6.452   0.929   7.580
12604TIP3    H137689   6.377   0.869   7.585
12604TIP3    H237690   6.469   0.952   7.671
12605TIP3   OH237691   5.891   0.458   6.565
12605TIP3    H137692   5.927   0.370   6.567
12605TIP3    H237693   5.926   0.498   6.486
12606TIP3   OH237694   6.204   0.549   7.102
12606TIP3    H137695   6.234   0.625   7.051
12606TIP3    H237696   6.132   0.583   7.155
12607TIP3   OH237697   6.242   0.810   7.382
12607TIP3    H137698   6.153   0.829   7.412
12607TIP3    H237699   6.251   0.858   7.300
12608TIP3   OH237700   4.573   0.446   7.512
12608TIP3    H137701   4.617   0.447   7.427
12608TIP3    H237702   4.636   0.487   7.572
12609TIP3   OH237703   5.715   1.651   6.528
12609TIP3    H137704   5.771   1.642   6.452
12609TIP3    H237705   5.753   1.724   6.578
12610TIP3   OH237706   4.816   1.437   7.903
12610TIP3    H137707   4.722   1.426   7.890
12610TIP3    H237708   4.828   1.430   7.998
12611TIP3   OH237709   5.023   1.487   7.456
12611TIP3    H137710   4.972   1.562   7.425
12611TIP3    H237711   5.108   1.496   7.412
12612TIP3   OH237712   5.416   1.718   7.596
12612TIP3    H137713   5.453   1.714   7.684
12612TIP3    H237714   5.476   1.775   7.548
12613TIP3   OH237715   5.604   1.875   7.469
12613TIP3    H137716   5.668   1.825   7.419
12613TIP3    H237717   5.657   1.934   7.523
12614TIP3   OH237718   4.684   1.721   7.506
12614TIP3    H137719   4.593   1.738   7.479
12614TIP3    H237720   4.704   1.789   7.570
12615TIP3   OH237721   4.914   1.719   7.355
12615TIP3    H137722   4.831   1.722   7.403
12615TIP3    H237723   4.890   1.744   7.265
12616TIP3   OH237724   5.324   1.736   7.146
12616TIP3    H137725   5.250   1.747   7.087
12616TIP3    H237726   5.334   1.821   7.189
12617TIP3   OH237727   5.586   1.667   7.194
12617TIP3    H137728   5.495   1.690   7.176
12617TIP3    H237729   5.637   1.736   7.150
12618TIP3   OH237730   5.787   1.838   7.097
12618TIP3    H137731   5.786   1.926   7.059
12618TIP3    H237732   5.817   1.781   7.026
12619TIP3   OH237733   4.595   1.505   7.217
12619TIP3    H137734   4.619   1.482   7.307
12619TIP3    H237735   4.667   1.473   7.164
12620TIP3   OH237736   4.798   1.393   7.075
12620TIP3    H137737   4.807   1.308   7.119
12620TIP3    H237738   4.884   1.433   7.083
12621TIP3   OH237739   5.065   1.473   7.107
12621TIP3    H137740   5.083   1.380   7.094
12621TIP3    H237741   5.120   1.498   7.181
12622TIP3   OH237742   4.348   1.308   6.610
12622TIP3    H137743   4.265   1.276   6.575
12622TIP3    H237744   4.356   1.396   6.575
12623TIP3   OH237745   5.164   1.466   6.199
12623TIP3    H137746   5.247   1.495   6.162
12623TIP3    H237747   5.134   1.397   6.139
12624TIP3   OH237748   5.866   1.603   6.300
12624TIP3    H137749   5.858   1.507   6.294
12624TIP3    H237750   5.821   1.636   6.223
12625TIP3   OH237751   4.462   1.291   6.259
12625TIP3    H137752   4.467   1.309   6.353
12625TIP3    H237753   4.545   1.248   6.239
12626TIP3   OH237754   6.075   1.741   7.485
12626TIP3    H137755   6.001   1.709   7.433
12626TIP3    H237756   6.061   1.836   7.490
12627TIP3   OH237757   7.357   1.160   6.254
12627TIP3    H137758   7.343   1.248   6.221
12627TIP3    H237759   7.285   1.108   6.219
12628TIP3   OH237760   7.334   1.136   6.625
12628TIP3    H137761   7.373   1.122   6.711
12628TIP3    H237762   7.293   1.053   6.603
12629TIP3   OH237763   6.633   1.058   6.993
12629TIP3    H137764   6.675   1.022   7.071
12629TIP3    H237765   6.705   1.092   6.940
12630TIP3   OH237766   7.622   1.428   6.342
12630TIP3    H137767   7.602   1.370   6.415
12630TIP3    H237768   7.644   1.512   6.383
12631TIP3   OH237769   6.641   1.419   6.675
12631TIP3    H137770   6.617   1.327   6.674
12631TIP3    H237771   6.737   1.419   6.671
12632TIP3   OH237772   6.337   0.695   6.455
12632TIP3    H137773   6.285   0.773   6.476
12632TIP3    H237774   6.274   0.622   6.461
12633TIP3   OH237775   6.388   0.982   6.669
12633TIP3    H137776   6.438   0.904   6.694
12633TIP3    H237777   6.455   1.046   6.644
12634TIP3   OH237778   7.333   1.857   6.341
12634TIP3    H137779   7.336   1.791   6.272
12634TIP3    H237780   7.344   1.808   6.423
12635TIP3   OH237781   7.155   1.351   6.654
12635TIP3    H137782   7.195   1.270   6.624
12635TIP3    H237783   7.229   1.410   6.669
12636TIP3   OH237784   7.575   0.916   6.651
12636TIP3    H137785   7.621   0.832   6.640
12636TIP3    H237786   7.539   0.934   6.564
12637TIP3   OH237787   6.514   0.766   6.775
12637TIP3    H137788   6.607   0.744   6.778
12637TIP3    H237789   6.470   0.682   6.763
12638TIP3   OH237790   6.950   0.970   6.607
12638TIP3    H137791   7.040   0.951   6.581
12638TIP3    H237792   6.900   0.893   6.578
12639TIP3   OH237793   8.201   0.770   6.855
12639TIP3    H137794   8.193   0.859   6.820
12639TIP3    H237795   8.290   0.765   6.888
12640TIP3   OH237796   7.273   1.358   6.087
12640TIP3    H137797   7.230   1.321   6.011
12640TIP3    H237798   7.214   1.427   6.117
12641TIP3   OH237799   7.030   1.291   6.896
12641TIP3    H137800   6.964   1.357   6.918
12641TIP3    H237801   7.067   1.322   6.812
12642TIP3   OH237802   6.776   0.685   6.781
12642TIP3    H137803   6.815   0.744   6.846
12642TIP3    H237804   6.849   0.658   6.726
12643TIP3   OH237805   6.839   1.473   6.970
12643TIP3    H137806   6.825   1.563   6.940
12643TIP3    H237807   6.760   1.452   7.020
12644TIP3   OH237808   6.215   1.196   6.227
12644TIP3    H137809   6.184   1.216   6.138
12644TIP3    H237810   6.238   1.281   6.263
12645TIP3   OH237811   7.654   1.685   6.464
12645TIP3    H137812   7.563   1.682   6.494
12645TIP3    H237813   7.661   1.767   6.415
12646TIP3   OH237814   7.370   1.719   6.106
12646TIP3    H137815   7.420   1.638   6.104
12646TIP3    H237816   7.431   1.787   6.078
12647TIP3   OH237817   7.515   1.492   6.094
12647TIP3    H137818   7.444   1.428   6.082
12647TIP3    H237819   7.562   1.460   6.171
12648TIP3   OH237820   7.908   1.572   6.820
12648TIP3    H137821   7.876   1.503   6.762
12648TIP3    H237822   7.890   1.653   6.772
12649TIP3   OH237823   7.190   1.024   6.081
12649TIP3    H137824   7.098   1.047   6.070
12649TIP3    H237825   7.221   1.004   5.992
12650TIP3   OH237826   7.144   0.763   5.775
12650TIP3    H137827   7.212   0.821   5.810
12650TIP3    H237828   7.190   0.682   5.754
12651TIP3   OH237829   8.074   1.258   6.640
12651TIP3    H137830   7.985   1.292   6.650
12651TIP3    H237831   8.105   1.295   6.557
12652TIP3   OH237832   7.530   1.076   6.040
12652TIP3    H137833   7.484   1.105   6.119
12652TIP3    H237834   7.612   1.038   6.072
12653TIP3   OH237835   7.712   1.198   6.910
12653TIP3    H137836   7.699   1.293   6.919
12653TIP3    H237837   7.625   1.164   6.888
12654TIP3   OH237838   6.751   1.065   6.414
12654TIP3    H137839   6.711   0.995   6.362
12654TIP3    H237840   6.823   1.022   6.461
12655TIP3   OH237841   6.906   1.462   6.587
12655TIP3    H137842   6.883   1.448   6.495
12655TIP3    H237843   6.992   1.421   6.597
12656TIP3   OH237844   6.843   1.106   6.813
12656TIP3    H137845   6.885   1.064   6.738
12656TIP3    H237846   6.907   1.169   6.845
12657TIP3   OH237847   7.400   1.693   6.563
12657TIP3    H137848   7.393   1.764   6.626
12657TIP3    H237849   7.391   1.613   6.615
12658TIP3   OH237850   7.036   1.572   7.137
12658TIP3    H137851   6.976   1.629   7.184
12658TIP3    H237852   6.980   1.518   7.081
12659TIP3   OH237853   7.356   0.942   5.872
12659TIP3    H137854   7.415   0.990   5.929
12659TIP3    H237855   7.378   0.973   5.784
12660TIP3   OH237856   6.751   1.171   7.256
12660TIP3    H137857   6.753   1.258   7.297
12660TIP3    H237858   6.666   1.135   7.280
12661TIP3   OH237859   7.124   1.582   6.136
12661TIP3    H137860   7.194   1.645   6.125
12661TIP3    H237861   7.063   1.600   6.064
12662TIP3   OH237862   6.827   1.727   7.226
12662TIP3    H137863   6.798   1.737   7.135
12662TIP3    H237864   6.747   1.711   7.275
12663TIP3   OH237865   6.624   0.887   6.227
12663TIP3    H137866   6.549   0.942   6.203
12663TIP3    H237867   6.589   0.798   6.231
12664TIP3   OH237868   7.705   1.523   5.487
12664TIP3    H137869   7.698   1.615   5.465
12664TIP3    H237870   7.796   1.500   5.465
12665TIP3   OH237871   6.421   1.293   7.179
12665TIP3    H137872   6.349   1.279   7.117
12665TIP3    H237873   6.449   1.204   7.202
12666TIP3   OH237874   6.260   1.498   6.841
12666TIP3    H137875   6.349   1.523   6.867
12666TIP3    H237876   6.207   1.576   6.857
12667TIP3   OH237877   8.124   1.939   6.874
12667TIP3    H137878   8.135   1.845   6.890
12667TIP3    H237879   8.043   1.962   6.921
12668TIP3   OH237880   7.225   1.714   6.997
12668TIP3    H137881   7.221   1.804   7.029
12668TIP3    H237882   7.158   1.668   7.048
12669TIP3   OH237883   7.015   1.823   5.948
12669TIP3    H137884   6.963   1.798   5.871
12669TIP3    H237885   6.954   1.872   6.003
12670TIP3   OH237886   6.449   1.669   6.329
12670TIP3    H137887   6.490   1.662   6.416
12670TIP3    H237888   6.396   1.590   6.322
12671TIP3   OH237889   7.213   1.749   5.580
12671TIP3    H137890   7.267   1.679   5.543
12671TIP3    H237891   7.246   1.761   5.669
12672TIP3   OH237892   7.266   1.786   5.849
12672TIP3    H137893   7.178   1.799   5.885
12672TIP3    H237894   7.314   1.740   5.917
12673TIP3   OH237895   8.039   1.063   7.027
12673TIP3    H137896   7.957   1.099   7.060
12673TIP3    H237897   8.031   0.969   7.041
12674TIP3   OH237898   6.616   1.485   7.138
12674TIP3    H137899   6.665   1.482   7.220
12674TIP3    H237900   6.549   1.418   7.147
12675TIP3   OH237901   7.790   1.067   7.142
12675TIP3    H137902   7.753   0.978   7.135
12675TIP3    H237903   7.754   1.113   7.067
12676TIP3   OH237904   7.439   0.993   5.621
12676TIP3    H137905   7.391   0.987   5.539
12676TIP3    H237906   7.526   1.022   5.596
12677TIP3   OH237907   6.888   0.871   6.947
12677TIP3    H137908   6.833   0.870   7.025
12677TIP3    H237909   6.862   0.950   6.900
12678TIP3   OH237910   6.778   0.786   6.502
12678TIP3    H137911   6.709   0.732   6.543
12678TIP3    H237912   6.792   0.744   6.417
12679TIP3   OH237913   7.364   0.850   6.196
12679TIP3    H137914   7.307   0.919   6.164
12679TIP3    H237915   7.329   0.770   6.156
12680TIP3   OH237916   7.512   1.152   7.258
12680TIP3    H137917   7.462   1.112   7.329
12680TIP3    H237918   7.602   1.127   7.275
12681TIP3   OH237919   7.500   0.977   6.396
12681TIP3    H137920   7.452   1.057   6.376
12681TIP3    H237921   7.470   0.914   6.331
12682TIP3   OH237922   6.753   0.881   7.181
12682TIP3    H137923   6.799   0.896   7.264
12682TIP3    H237924   6.689   0.813   7.201
12683TIP3   OH237925   7.476   1.067   6.851
12683TIP3    H137926   7.516   1.007   6.787
12683TIP3    H237927   7.458   1.013   6.927
12684TIP3   OH237928   6.578   0.591   6.538
12684TIP3    H137929   6.508   0.654   6.522
12684TIP3    H237930   6.534   0.506   6.537
12685TIP3   OH237931   6.858   0.638   6.284
12685TIP3    H137932   6.939   0.589   6.266
12685TIP3    H237933   6.809   0.635   6.202
12686TIP3   OH237934   6.760   0.628   6.026
12686TIP3    H137935   6.718   0.565   5.967
12686TIP3    H237936   6.793   0.696   5.968
12687TIP3   OH237937   7.837   2.271   6.969
12687TIP3    H137938   7.835   2.285   6.874
12687TIP3    H237939   7.917   2.315   6.998
12688TIP3   OH237940   6.766   1.415   7.381
12688TIP3    H137941   6.849   1.421   7.429
12688TIP3    H237942   6.699   1.421   7.448
12689TIP3   OH237943   7.228   0.879   6.624
12689TIP3    H137944   7.221   0.809   6.560
12689TIP3    H237945   7.217   0.835   6.709
12690TIP3   OH237946   7.226   0.761   6.879
12690TIP3    H137947   7.141   0.718   6.887
12690TIP3    H237948   7.279   0.724   6.950
12691TIP3   OH237949   6.940   1.115   6.015
12691TIP3    H137950   6.862   1.068   5.987
12691TIP3    H237951   6.913   1.161   6.095
12692TIP3   OH237952   7.833   1.395   6.628
12692TIP3    H137953   7.865   1.449   6.556
12692TIP3    H237954   7.749   1.361   6.597
12693TIP3   OH237955   7.383   1.470   6.995
12693TIP3    H137956   7.342   1.393   7.034
12693TIP3    H237957   7.326   1.543   7.020
12694TIP3   OH237958   7.438   0.684   5.889
12694TIP3    H137959   7.511   0.674   5.951
12694TIP3    H237960   7.413   0.776   5.896
12695TIP3   OH237961   6.617   1.141   6.646
12695TIP3    H137962   6.657   1.121   6.561
12695TIP3    H237963   6.686   1.120   6.710
12696TIP3   OH237964   7.105   1.281   5.876
12696TIP3    H137965   7.059   1.365   5.884
12696TIP3    H237966   7.048   1.219   5.921
12697TIP3   OH237967   6.496   1.054   7.322
12697TIP3    H137968   6.507   1.014   7.408
12697TIP3    H237969   6.437   0.994   7.276
12698TIP3   OH237970   7.229   1.227   7.346
12698TIP3    H137971   7.147   1.178   7.339
12698TIP3    H237972   7.264   1.227   7.257
12699TIP3   OH237973   7.497   1.749   6.915
12699TIP3    H137974   7.404   1.727   6.921
12699TIP3    H237975   7.522   1.771   7.005
12700TIP3   OH237976   7.918   0.708   5.946
12700TIP3    H137977   7.953   0.625   5.914
12700TIP3    H237978   7.903   0.760   5.867
12701TIP3   OH237979   8.155   1.666   6.904
12701TIP3    H137980   8.062   1.644   6.911
12701TIP3    H237981   8.181   1.633   6.818
12702TIP3   OH237982   7.618   1.574   5.751
12702TIP3    H137983   7.595   1.498   5.805
12702TIP3    H237984   7.642   1.536   5.667
12703TIP3   OH237985   7.588   1.257   6.573
12703TIP3    H137986   7.500   1.220   6.568
12703TIP3    H237987   7.644   1.183   6.597
12704TIP3   OH237988   6.760   1.478   6.346
12704TIP3    H137989   6.752   1.553   6.287
12704TIP3    H237990   6.674   1.469   6.386
12705TIP3   OH237991   6.284   0.806   6.007
12705TIP3    H137992   6.332   0.880   6.043
12705TIP3    H237993   6.214   0.789   6.070
12706TIP3   OH237994   6.831   1.245   6.223
12706TIP3    H137995   6.822   1.331   6.264
12706TIP3    H237996   6.807   1.183   6.291
12707TIP3   OH237997   7.051   1.794   6.788
12707TIP3    H137998   7.090   1.867   6.740
12707TIP3    H237999   7.121   1.760   6.843
12708TIP3   OH238000   6.682   1.694   6.187
12708TIP3    H138001   6.595   1.699   6.226
12708TIP3    H238002   6.716   1.783   6.193
12709TIP3   OH238003   7.403   1.463   6.719
12709TIP3    H138004   7.401   1.465   6.814
12709TIP3    H238005   7.474   1.402   6.697
12710TIP3   OH238006   7.382   1.336   5.631
12710TIP3    H138007   7.433   1.310   5.708
12710TIP3    H238008   7.294   1.304   5.649
12711TIP3   OH238009   7.652   1.947   6.805
12711TIP3    H138010   7.587   1.882   6.830
12711TIP3    H238011   7.611   1.996   6.734
12712TIP3   OH238012   7.697   1.794   5.438
12712TIP3    H138013   7.709   1.851   5.362
12712TIP3    H238014   7.628   1.836   5.489
12713TIP3   OH238015   7.554   1.265   5.832
12713TIP3    H138016   7.537   1.206   5.906
12713TIP3    H238017   7.650   1.269   5.826
12714TIP3   OH238018   6.472   1.669   6.956
12714TIP3    H138019   6.525   1.611   7.011
12714TIP3    H238020   6.483   1.756   6.996
12715TIP3   OH238021   6.722   1.301   5.672
12715TIP3    H138022   6.733   1.211   5.640
12715TIP3    H238023   6.715   1.291   5.767
12716TIP3   OH238024   6.686   1.315   5.946
12716TIP3    H138025   6.736   1.290   6.023
12716TIP3    H238026   6.689   1.410   5.945
12717TIP3   OH238027   6.407   1.024   6.128
12717TIP3    H138028   6.345   1.073   6.183
12717TIP3    H238029   6.430   1.085   6.058
12718TIP3   OH238030   6.971   1.518   5.887
12718TIP3    H138031   6.880   1.530   5.912
12718TIP3    H238032   6.985   1.578   5.814
12719TIP3   OH238033   7.097   0.510   6.272
12719TIP3    H138034   7.162   0.562   6.224
12719TIP3    H238035   7.149   0.454   6.330
12720TIP3   OH238036   7.438   0.947   7.095
12720TIP3    H138037   7.442   1.027   7.147
12720TIP3    H238038   7.519   0.901   7.115
12721TIP3   OH238039   6.711   1.588   5.938
12721TIP3    H138040   6.692   1.661   5.879
12721TIP3    H238041   6.697   1.624   6.026
12722TIP3   OH238042   7.774   0.983   6.415
12722TIP3    H138043   7.678   0.992   6.417
12722TIP3    H238044   7.802   1.018   6.500
12723TIP3   OH238045   6.436   1.199   5.914
12723TIP3    H138046   6.514   1.253   5.926
12723TIP3    H238047   6.462   1.135   5.848
12724TIP3   OH238048   6.306   0.466   6.080
12724TIP3    H138049   6.340   0.547   6.120
12724TIP3    H238050   6.211   0.478   6.079
12725TIP3   OH238051   7.670   1.946   6.360
12725TIP3    H138052   7.642   1.961   6.270
12725TIP3    H238053   7.762   1.970   6.361
12726TIP3   OH238054   6.265   1.459   6.307
12726TIP3    H138055   6.222   1.494   6.385
12726TIP3    H238056   6.218   1.499   6.234
12727TIP3   OH238057   6.469   1.977   7.378
12727TIP3    H138058   6.550   1.977   7.428
12727TIP3    H238059   6.446   1.884   7.371
12728TIP3   OH238060   6.933   1.892   7.420
12728TIP3    H138061   7.024   1.864   7.432
12728TIP3    H238062   6.900   1.837   7.349
12729TIP3   OH238063   6.901   1.471   5.560
12729TIP3    H138064   6.829   1.421   5.599
12729TIP3    H238065   6.976   1.412   5.563
12730TIP3   OH238066   7.557   1.825   7.172
12730TIP3    H138067   7.569   1.758   7.239
12730TIP3    H238068   7.629   1.887   7.186
12731TIP3   OH238069   7.353   1.549   5.461
12731TIP3    H138070   7.377   1.480   5.523
12731TIP3    H238071   7.410   1.535   5.386
12732TIP3   OH238072   6.569   1.392   7.573
12732TIP3    H138073   6.591   1.299   7.579
12732TIP3    H238074   6.483   1.394   7.531
12733TIP3   OH238075   6.541   1.000   5.761
12733TIP3    H138076   6.590   0.976   5.839
12733TIP3    H238077   6.607   1.014   5.694
12734TIP3   OH238078   7.184   1.499   7.357
12734TIP3    H138079   7.141   1.512   7.273
12734TIP3    H238080   7.219   1.410   7.352
12735TIP3   OH238081   7.095   1.272   5.603
12735TIP3    H138082   7.094   1.267   5.698
12735TIP3    H238083   7.086   1.182   5.573
12736TIP3   OH238084   7.653   1.464   6.941
12736TIP3    H138085   7.694   1.546   6.913
12736TIP3    H238086   7.563   1.488   6.962
12737TIP3   OH238087   6.676   1.137   7.595
12737TIP3    H138088   6.676   1.042   7.599
12737TIP3    H238089   6.712   1.164   7.680
12738TIP3   OH238090   6.715   0.960   5.972
12738TIP3    H138091   6.696   0.927   6.061
12738TIP3    H238092   6.772   0.894   5.933
12739TIP3   OH238093   7.007   1.082   7.279
12739TIP3    H138094   6.921   1.120   7.259
12739TIP3    H238095   7.038   1.048   7.195
12740TIP3   OH238096   6.875   0.784   5.837
12740TIP3    H138097   6.841   0.781   5.748
12740TIP3    H238098   6.970   0.781   5.827
12741TIP3   OH238099   7.553   1.392   7.391
12741TIP3    H138100   7.539   1.334   7.317
12741TIP3    H238101   7.555   1.334   7.467
12742TIP3   OH238102   7.665   1.047   5.466
12742TIP3    H138103   7.648   1.003   5.383
12742TIP3    H238104   7.633   1.137   5.452
12743TIP3   OH238105   7.189   0.817   7.323
12743TIP3    H138106   7.104   0.808   7.367
12743TIP3    H238107   7.169   0.856   7.238
12744TIP3   OH238108   7.247   1.236   7.062
12744TIP3    H138109   7.285   1.159   7.021
12744TIP3    H238110   7.165   1.251   7.014
12745TIP3   OH238111   7.863   1.062   7.534
12745TIP3    H138112   7.790   1.036   7.478
12745TIP3    H238113   7.842   1.151   7.562
12746TIP3   OH238114   7.795   1.384   7.163
12746TIP3    H138115   7.728   1.412   7.101
12746TIP3    H238116   7.875   1.379   7.111
12747TIP3   OH238117   6.970   0.978   7.665
12747TIP3    H138118   6.896   0.946   7.716
12747TIP3    H238119   6.955   1.072   7.658
12748TIP3   OH238120   7.395   0.964   7.426
12748TIP3    H138121   7.409   0.933   7.515
12748TIP3    H238122   7.312   0.926   7.400
12749TIP3   OH238123   6.727   1.815   5.770
12749TIP3    H138124   6.806   1.779   5.731
12749TIP3    H238125   6.676   1.850   5.696
12750TIP3   OH238126   6.166   1.195   5.943
12750TIP3    H138127   6.260   1.209   5.934
12750TIP3    H238128   6.150   1.112   5.899
12751TIP3   OH238129   6.071   1.755   6.398
12751TIP3    H138130   6.006   1.701   6.353
12751TIP3    H238131   6.114   1.695   6.459
12752TIP3   OH238132   6.216   1.588   6.564
12752TIP3    H138133   6.206   1.520   6.630
12752TIP3    H238134   6.268   1.656   6.607
12753TIP3   OH238135   7.928   2.029   6.364
12753TIP3    H138136   7.962   2.038   6.453
12753TIP3    H238137   8.003   2.047   6.307
12754TIP3   OH238138   7.970   2.022   6.646
12754TIP3    H138139   7.926   1.938   6.643
12754TIP3    H238140   8.041   2.010   6.709
12755TIP3   OH238141   8.007   1.744   7.206
12755TIP3    H138142   7.942   1.747   7.277
12755TIP3    H238143   8.060   1.822   7.218
12756TIP3   OH238144   7.829   1.271   5.824
12756TIP3    H138145   7.892   1.339   5.800
12756TIP3    H238146   7.871   1.224   5.896
12757TIP3   OH238147   7.953   1.132   6.025
12757TIP3    H138148   7.892   1.085   6.081
12757TIP3    H238149   8.015   1.172   6.086
12758TIP3   OH238150   8.007   1.536   6.463
12758TIP3    H138151   8.054   1.464   6.420
12758TIP3    H238152   8.026   1.613   6.410
12759TIP3   OH238153   7.826   1.784   6.662
12759TIP3    H138154   7.760   1.833   6.711
12759TIP3    H238155   7.778   1.743   6.591
12760TIP3   OH238156   7.888   1.134   5.591
12760TIP3    H138157   7.807   1.094   5.561
12760TIP3    H238158   7.865   1.176   5.674
12761TIP3   OH238159   7.741   0.726   5.536
12761TIP3    H138160   7.653   0.736   5.501
12761TIP3    H238161   7.730   0.680   5.619
12762TIP3   OH238162   7.764   0.954   6.146
12762TIP3    H138163   7.766   0.859   6.136
12762TIP3    H238164   7.777   0.968   6.240
12763TIP3   OH238165   6.374   1.065   6.928
12763TIP3    H138166   6.368   1.043   6.835
12763TIP3    H238167   6.467   1.067   6.947
12764TIP3   OH238168   8.020   1.394   7.006
12764TIP3    H138169   8.101   1.355   6.973
12764TIP3    H238170   7.989   1.450   6.935
12765TIP3   OH238171   8.254   1.229   7.044
12765TIP3    H138172   8.175   1.174   7.054
12765TIP3    H238173   8.285   1.241   7.134
12766TIP3   OH238174   7.655   0.659   6.045
12766TIP3    H138175   7.690   0.574   6.071
12766TIP3    H238176   7.724   0.698   5.991
12767TIP3   OH238177   8.013   0.814   6.602
12767TIP3    H138178   8.025   0.900   6.560
12767TIP3    H238179   7.997   0.835   6.694
12768TIP3   OH238180   8.127   1.024   6.776
12768TIP3    H138181   8.094   1.044   6.863
12768TIP3    H238182   8.100   1.099   6.722
12769TIP3   OH238183   6.286   0.775   6.961
12769TIP3    H138184   6.363   0.813   6.917
12769TIP3    H238185   6.262   0.841   7.027
12770TIP3   OH238186   7.534   1.915   6.013
12770TIP3    H138187   7.573   1.866   5.941
12770TIP3    H238188   7.558   2.006   5.996
12771TIP3   OH238189   6.607   1.698   7.397
12771TIP3    H138190   6.513   1.684   7.389
12771TIP3    H238191   6.625   1.693   7.491
12772TIP3   OH238192   6.821   1.749   6.939
12772TIP3    H138193   6.768   1.823   6.909
12772TIP3    H238194   6.905   1.761   6.895
12773TIP3   OH238195   7.216   1.979   7.081
12773TIP3    H138196   7.252   1.970   7.169
12773TIP3    H238197   7.280   2.032   7.034
12774TIP3   OH238198   7.412   2.131   6.960
12774TIP3    H138199   7.476   2.073   6.920
12774TIP3    H238200   7.464   2.192   7.012
12775TIP3   OH238201   6.476   1.984   6.991
12775TIP3    H138202   6.384   1.999   6.970
12775TIP3    H238203   6.496   2.051   7.057
12776TIP3   OH238204   6.706   1.979   6.841
12776TIP3    H138205   6.624   1.982   6.890
12776TIP3    H238206   6.682   2.003   6.752
12777TIP3   OH238207   7.120   2.015   6.619
12777TIP3    H138208   7.034   2.021   6.577
12777TIP3    H238209   7.126   2.093   6.674
12778TIP3   OH238210   7.376   1.939   6.678
12778TIP3    H138211   7.287   1.968   6.658
12778TIP3    H238212   7.432   2.007   6.641
12779TIP3   OH238213   7.575   2.096   6.572
12779TIP3    H138214   7.588   2.185   6.541
12779TIP3    H238215   7.610   2.041   6.503
12780TIP3   OH238216   6.391   1.765   6.703
12780TIP3    H138217   6.409   1.738   6.793
12780TIP3    H238218   6.465   1.732   6.653
12781TIP3   OH238219   6.597   1.659   6.562
12781TIP3    H138220   6.605   1.575   6.607
12781TIP3    H238221   6.684   1.698   6.568
12782TIP3   OH238222   6.865   1.738   6.590
12782TIP3    H138223   6.880   1.644   6.577
12782TIP3    H238224   6.920   1.761   6.664
12783TIP3   OH238225   6.144   1.566   6.083
12783TIP3    H138226   6.060   1.538   6.047
12783TIP3    H238227   6.153   1.657   6.056
12784TIP3   OH238228   6.960   1.707   5.681
12784TIP3    H138229   7.042   1.736   5.640
12784TIP3    H238230   6.932   1.633   5.627
12785TIP3   OH238231   7.659   1.840   5.781
12785TIP3    H138232   7.650   1.745   5.771
12785TIP3    H238233   7.615   1.876   5.704
12786TIP3   OH238234   6.259   1.553   5.748
12786TIP3    H138235   6.259   1.560   5.843
12786TIP3    H238236   6.341   1.507   5.727
12787TIP3   OH238237   7.872   1.998   6.972
12787TIP3    H138238   7.798   1.970   6.918
12787TIP3    H238239   7.860   2.093   6.982
12788TIP3   OH238240   9.164   1.353   5.737
12788TIP3    H138241   9.144   1.446   5.727
12788TIP3    H238242   9.096   1.308   5.687
12789TIP3   OH238243   9.090   1.371   6.115
12789TIP3    H138244   9.163   1.367   6.176
12789TIP3    H238245   9.044   1.287   6.126
12790TIP3   OH238246   8.421   1.316   6.469
12790TIP3    H138247   8.461   1.261   6.536
12790TIP3    H238248   8.496   1.352   6.420
12791TIP3   OH238249   9.408   1.668   5.808
12791TIP3    H138250   9.386   1.603   5.875
12791TIP3    H238251   9.431   1.746   5.858
12792TIP3   OH238252   8.413   1.672   6.178
12792TIP3    H138253   8.398   1.578   6.165
12792TIP3    H238254   8.508   1.681   6.176
12793TIP3   OH238255   8.118   0.915   5.959
12793TIP3    H138256   8.087   1.005   5.970
12793TIP3    H238257   8.038   0.863   5.957
12794TIP3   OH238258   8.191   1.224   6.145
12794TIP3    H138259   8.238   1.145   6.171
12794TIP3    H238260   8.259   1.286   6.121
12795TIP3   OH238261   9.068   2.116   5.856
12795TIP3    H138262   9.087   2.025   5.836
12795TIP3    H238263   9.074   2.122   5.951
12796TIP3   OH238264   8.938   1.606   6.141
12796TIP3    H138265   8.973   1.521   6.116
12796TIP3    H238266   9.016   1.659   6.160
12797TIP3   OH238267   9.483   1.153   6.133
12797TIP3    H138268   9.483   1.060   6.157
12797TIP3    H238269   9.426   1.157   6.056
12798TIP3   OH238270   8.301   1.001   6.254
12798TIP3    H138271   8.391   0.970   6.260
12798TIP3    H238272   8.248   0.922   6.257
12799TIP3   OH238273   8.746   1.255   6.084
12799TIP3    H138274   8.829   1.214   6.106
12799TIP3    H238275   8.685   1.182   6.071
12800TIP3   OH238276   9.062   1.592   5.594
12800TIP3    H138277   9.021   1.563   5.513
12800TIP3    H238278   9.006   1.663   5.626
12801TIP3   OH238279   8.820   1.557   6.387
12801TIP3    H138280   8.755   1.624   6.407
12801TIP3    H238281   8.859   1.584   6.304
12802TIP3   OH238282   8.558   0.915   6.276
12802TIP3    H138283   8.600   0.985   6.326
12802TIP3    H238284   8.630   0.872   6.229
12803TIP3   OH238285   8.628   1.736   6.457
12803TIP3    H138286   8.620   1.828   6.431
12803TIP3    H238287   8.550   1.720   6.510
12804TIP3   OH238288   8.012   1.448   5.712
12804TIP3    H138289   7.979   1.464   5.624
12804TIP3    H238290   8.035   1.534   5.746
12805TIP3   OH238291   9.441   1.904   5.952
12805TIP3    H138292   9.349   1.901   5.979
12805TIP3    H238293   9.457   1.995   5.928
12806TIP3   OH238294   9.161   1.942   5.589
12806TIP3    H138295   9.225   1.871   5.585
12806TIP3    H238296   9.213   2.022   5.585
12807TIP3   OH238297   9.310   1.704   5.557
12807TIP3    H138298   9.224   1.665   5.573
12807TIP3    H238299   9.357   1.692   5.639
12808TIP3   OH238300   8.996   1.234   5.552
12808TIP3    H138301   8.907   1.269   5.543
12808TIP3    H238302   9.033   1.238   5.465
12809TIP3   OH238303   8.926   1.030   5.308
12809TIP3    H138304   9.000   1.089   5.317
12809TIP3    H238305   8.947   0.956   5.365
12810TIP3   OH238306   9.334   1.286   5.525
12810TIP3    H138307   9.286   1.311   5.604
12810TIP3    H238308   9.416   1.249   5.557
12811TIP3   OH238309   9.572   1.354   6.428
12811TIP3    H138310   9.595   1.421   6.493
12811TIP3    H238311   9.494   1.388   6.385
12812TIP3   OH238312   8.556   1.349   5.896
12812TIP3    H138313   8.522   1.271   5.853
12812TIP3    H238314   8.630   1.317   5.948
12813TIP3   OH238315   8.683   1.710   6.081
12813TIP3    H138316   8.668   1.701   5.987
12813TIP3    H238317   8.771   1.675   6.096
12814TIP3   OH238318   8.638   1.371   6.303
12814TIP3    H138319   8.682   1.342   6.223
12814TIP3    H238320   8.699   1.432   6.344
12815TIP3   OH238321   9.187   1.914   6.043
12815TIP3    H138322   9.174   1.994   6.094
12815TIP3    H238323   9.178   1.843   6.107
12816TIP3   OH238324   8.830   1.818   6.632
12816TIP3    H138325   8.771   1.878   6.677
12816TIP3    H238326   8.774   1.767   6.574
12817TIP3   OH238327   9.170   1.162   5.338
12817TIP3    H138328   9.232   1.197   5.401
12817TIP3    H238329   9.194   1.204   5.255
12818TIP3   OH238330   8.568   1.405   6.767
12818TIP3    H138331   8.577   1.495   6.799
12818TIP3    H238332   8.475   1.385   6.777
12819TIP3   OH238333   8.917   1.824   5.636
12819TIP3    H138334   8.997   1.875   5.629
12819TIP3    H238335   8.849   1.879   5.597
12820TIP3   OH238336   8.626   1.985   6.709
12820TIP3    H138337   8.603   2.001   6.617
12820TIP3    H238338   8.541   1.974   6.753
12821TIP3   OH238339   8.438   1.157   5.723
12821TIP3    H138340   8.367   1.215   5.699
12821TIP3    H238341   8.396   1.072   5.736
12822TIP3   OH238342   8.215   1.557   6.662
12822TIP3    H138343   8.144   1.543   6.600
12822TIP3    H238344   8.246   1.469   6.684
12823TIP3   OH238345   8.137   1.727   6.303
12823TIP3    H138346   8.221   1.702   6.265
12823TIP3    H238347   8.158   1.800   6.362
12824TIP3   OH238348   9.016   1.962   6.490
12824TIP3    H138349   9.007   2.053   6.520
12824TIP3    H238350   8.952   1.913   6.541
12825TIP3   OH238351   8.781   2.093   5.445
12825TIP3    H138352   8.700   2.068   5.400
12825TIP3    H238353   8.764   2.181   5.478
12826TIP3   OH238354   8.241   1.923   5.821
12826TIP3    H138355   8.283   1.918   5.907
12826TIP3    H238356   8.191   1.842   5.814
12827TIP3   OH238357   9.027   2.009   5.084
12827TIP3    H138358   9.069   1.929   5.052
12827TIP3    H238359   9.044   2.008   5.178
12828TIP3   OH238360   9.034   2.036   5.358
12828TIP3    H138361   8.945   2.043   5.394
12828TIP3    H238362   9.085   1.997   5.428
12829TIP3   OH238363   8.414   1.744   6.630
12829TIP3    H138364   8.464   1.737   6.711
12829TIP3    H238365   8.344   1.680   6.639
12830TIP3   OH238366   9.256   1.274   5.103
12830TIP3    H138367   9.197   1.253   5.030
12830TIP3    H238368   9.269   1.369   5.097
12831TIP3   OH238369   8.680   1.120   6.410
12831TIP3    H138370   8.640   1.118   6.497
12831TIP3    H238371   8.654   1.204   6.373
12832TIP3   OH238372   8.563   1.075   6.013
12832TIP3    H138373   8.505   1.001   6.033
12832TIP3    H238374   8.602   1.053   5.928
12833TIP3   OH238375   9.180   1.041   5.670
12833TIP3    H138376   9.132   1.089   5.603
12833TIP3    H238377   9.223   0.970   5.623
12834TIP3   OH238378   9.283   1.360   6.748
12834TIP3    H138379   9.311   1.309   6.824
12834TIP3    H238380   9.316   1.448   6.765
12835TIP3   OH238381   9.283   1.153   5.935
12835TIP3    H138382   9.254   1.224   5.878
12835TIP3    H238383   9.315   1.086   5.874
12836TIP3   OH238384   8.554   1.153   6.649
12836TIP3    H138385   8.569   1.226   6.710
12836TIP3    H238386   8.518   1.083   6.704
12837TIP3   OH238387   9.316   1.332   6.270
12837TIP3    H138388   9.380   1.265   6.248
12837TIP3    H238389   9.281   1.306   6.355
12838TIP3   OH238390   8.400   0.852   6.012
12838TIP3    H138391   8.325   0.911   6.014
12838TIP3    H238392   8.362   0.764   6.018
12839TIP3   OH238393   8.692   0.827   5.602
12839TIP3    H138394   8.744   0.748   5.588
12839TIP3    H238395   8.605   0.804   5.567
12840TIP3   OH238396   8.462   0.847   5.433
12840TIP3    H138397   8.417   0.898   5.500
12840TIP3    H238398   8.529   0.905   5.399
12841TIP3   OH238399   9.610   2.492   6.442
12841TIP3    H138400   9.581   2.515   6.354
12841TIP3    H238401   9.700   2.525   6.448
12842TIP3   OH238402   8.571   1.664   6.867
12842TIP3    H138403   8.655   1.674   6.913
12842TIP3    H238404   8.506   1.667   6.937
12843TIP3   OH238405   8.972   1.116   6.155
12843TIP3    H138406   8.965   1.035   6.104
12843TIP3    H238407   8.975   1.087   6.246
12844TIP3   OH238408   9.021   1.010   6.401
12844TIP3    H138409   8.945   0.956   6.423
12844TIP3    H238410   9.085   0.991   6.470
12845TIP3   OH238411   8.748   1.352   5.504
12845TIP3    H138412   8.670   1.306   5.472
12845TIP3    H238413   8.716   1.409   5.573
12846TIP3   OH238414   9.201   1.736   6.487
12846TIP3    H138415   9.158   1.656   6.517
12846TIP3    H238416   9.139   1.806   6.509
12847TIP3   OH238417   8.411   1.396   6.131
12847TIP3    H138418   8.454   1.385   6.046
12847TIP3    H238419   8.480   1.378   6.195
12848TIP3   OH238420   8.903   1.536   5.372
12848TIP3    H138421   8.852   1.617   5.369
12848TIP3    H238422   8.843   1.473   5.413
12849TIP3   OH238423   8.305   1.322   6.792
12849TIP3    H138424   8.305   1.291   6.883
12849TIP3    H238425   8.241   1.268   6.748
12850TIP3   OH238426   9.043   1.464   6.853
12850TIP3    H138427   8.965   1.428   6.810
12850TIP3    H238428   9.116   1.437   6.797
12851TIP3   OH238429   9.272   2.037   6.406
12851TIP3    H138430   9.184   2.000   6.409
12851TIP3    H238431   9.295   2.049   6.498
12852TIP3   OH238432   9.366   1.831   5.250
12852TIP3    H138433   9.371   1.784   5.333
12852TIP3    H238434   9.338   1.766   5.186
12853TIP3   OH238435   9.330   1.496   6.016
12853TIP3    H138436   9.241   1.463   6.015
12853TIP3    H238437   9.376   1.440   6.079
12854TIP3   OH238438   8.562   1.735   5.828
12854TIP3    H138439   8.550   1.813   5.773
12854TIP3    H238440   8.475   1.718   5.863
12855TIP3   OH238441   8.134   1.063   5.508
12855TIP3    H138442   8.190   1.132   5.544
12855TIP3    H238443   8.047   1.082   5.543
12856TIP3   OH238444   8.621   1.510   5.683
12856TIP3    H138445   8.625   1.597   5.724
12856TIP3    H238446   8.596   1.451   5.754
12857TIP3   OH238447   8.838   2.038   6.280
12857TIP3    H138448   8.868   2.118   6.238
12857TIP3    H238449   8.912   2.009   6.332
12858TIP3   OH238450   8.469   1.947   5.672
12858TIP3    H138451   8.383   1.949   5.714
12858TIP3    H238452   8.502   2.036   5.679
12859TIP3   OH238453   9.189   1.700   6.215
12859TIP3    H138454   9.201   1.711   6.309
12859TIP3    H238455   9.264   1.647   6.187
12860TIP3   OH238456   9.211   1.564   5.119
12860TIP3    H138457   9.247   1.545   5.206
12860TIP3    H238458   9.120   1.536   5.124
12861TIP3   OH238459   9.480   2.154   6.283
12861TIP3    H138460   9.403   2.108   6.317
12861TIP3    H238461   9.444   2.217   6.220
12862TIP3   OH238462   9.323   1.513   5.359
12862TIP3    H138463   9.335   1.429   5.405
12862TIP3    H238464   9.329   1.579   5.428
12863TIP3   OH238465   8.254   1.940   6.453
12863TIP3    H138466   8.312   1.888   6.509
12863TIP3    H238467   8.266   2.030   6.483
12864TIP3   OH238468   8.536   1.571   5.162
12864TIP3    H138469   8.543   1.481   5.130
12864TIP3    H238470   8.527   1.562   5.257
12865TIP3   OH238471   8.484   1.570   5.436
12865TIP3    H138472   8.529   1.546   5.517
12865TIP3    H238473   8.485   1.666   5.435
12866TIP3   OH238474   8.228   1.298   5.625
12866TIP3    H138475   8.155   1.335   5.675
12866TIP3    H238476   8.238   1.356   5.550
12867TIP3   OH238477   8.756   1.764   5.347
12867TIP3    H138478   8.668   1.781   5.381
12867TIP3    H238479   8.772   1.835   5.285
12868TIP3   OH238480   8.976   0.800   5.756
12868TIP3    H138481   8.983   0.883   5.802
12868TIP3    H238482   9.013   0.735   5.816
12869TIP3   OH238483   9.208   1.244   6.510
12869TIP3    H138484   9.236   1.279   6.594
12869TIP3    H238485   9.259   1.165   6.498
12870TIP3   OH238486   8.504   1.844   5.423
12870TIP3    H138487   8.488   1.918   5.364
12870TIP3    H238488   8.489   1.879   5.511
12871TIP3   OH238489   8.234   1.455   5.397
12871TIP3    H138490   8.311   1.511   5.409
12871TIP3    H238491   8.263   1.388   5.335
12872TIP3   OH238492   8.129   0.775   5.539
12872TIP3    H138493   8.170   0.857   5.565
12872TIP3    H238494   8.082   0.796   5.458
12873TIP3   OH238495   9.487   2.170   5.901
12873TIP3    H138496   9.470   2.223   5.823
12873TIP3    H238497   9.580   2.184   5.919
12874TIP3   OH238498   8.062   1.710   5.796
12874TIP3    H138499   8.017   1.743   5.874
12874TIP3    H238500   8.016   1.751   5.723
12875TIP3   OH238501   8.275   2.244   6.858
12875TIP3    H138502   8.355   2.251   6.909
12875TIP3    H238503   8.264   2.151   6.841
12876TIP3   OH238504   8.730   2.143   6.908
12876TIP3    H138505   8.823   2.122   6.914
12876TIP3    H238506   8.698   2.091   6.835
12877TIP3   OH238507   8.691   1.742   5.015
12877TIP3    H138508   8.645   1.680   5.070
12877TIP3    H238509   8.763   1.691   4.977
12878TIP3   OH238510   9.353   2.094   6.661
12878TIP3    H138511   9.370   2.019   6.718
12878TIP3    H238512   9.440   2.127   6.639
12879TIP3   OH238513   9.133   1.785   4.978
12879TIP3    H138514   9.172   1.708   5.020
12879TIP3    H238515   9.165   1.782   4.888
12880TIP3   OH238516   8.378   1.644   7.065
12880TIP3    H138517   8.407   1.553   7.071
12880TIP3    H238518   8.294   1.639   7.021
12881TIP3   OH238519   8.349   1.254   5.252
12881TIP3    H138520   8.401   1.229   5.328
12881TIP3    H238521   8.413   1.276   5.185
12882TIP3   OH238522   8.993   1.740   6.840
12882TIP3    H138523   8.947   1.753   6.757
12882TIP3    H238524   9.028   1.651   6.834
12883TIP3   OH238525   8.946   1.488   5.108
12883TIP3    H138526   8.924   1.506   5.199
12883TIP3    H238527   8.933   1.394   5.099
12884TIP3   OH238528   9.476   1.733   6.437
12884TIP3    H138529   9.494   1.789   6.361
12884TIP3    H238530   9.383   1.748   6.456
12885TIP3   OH238531   8.530   1.410   7.082
12885TIP3    H138532   8.611   1.373   7.047
12885TIP3    H238533   8.548   1.424   7.174
12886TIP3   OH238534   8.523   1.193   5.460
12886TIP3    H138535   8.507   1.176   5.553
12886TIP3    H238536   8.575   1.118   5.430
12887TIP3   OH238537   8.833   1.345   6.727
12887TIP3    H138538   8.742   1.374   6.736
12887TIP3    H238539   8.847   1.338   6.632
12888TIP3   OH238540   8.654   1.001   5.308
12888TIP3    H138541   8.631   1.031   5.220
12888TIP3    H238542   8.747   1.019   5.317
12889TIP3   OH238543   9.357   1.606   6.855
12889TIP3    H138544   9.451   1.622   6.849
12889TIP3    H238545   9.345   1.570   6.943
12890TIP3   OH238546   8.976   1.103   6.752
12890TIP3    H138547   8.895   1.070   6.790
12890TIP3    H238548   8.953   1.190   6.718
12891TIP3   OH238549   9.058   1.507   6.530
12891TIP3    H138550   9.084   1.416   6.518
12891TIP3    H238551   8.972   1.513   6.488
12892TIP3   OH238552   9.655   1.586   6.571
12892TIP3    H138553   9.585   1.639   6.533
12892TIP3    H238554   9.730   1.600   6.513
12893TIP3   OH238555   8.796   1.288   7.085
12893TIP3    H138556   8.786   1.201   7.124
12893TIP3    H238557   8.890   1.299   7.074
12894TIP3   OH238558   9.338   1.194   6.978
12894TIP3    H138559   9.262   1.146   7.011
12894TIP3    H238560   9.377   1.136   6.912
12895TIP3   OH238561   8.538   2.072   5.258
12895TIP3    H138562   8.615   2.035   5.216
12895TIP3    H238563   8.486   2.109   5.186
12896TIP3   OH238564   7.963   1.446   5.424
12896TIP3    H138565   8.057   1.458   5.417
12896TIP3    H238566   7.946   1.358   5.392
12897TIP3   OH238567   7.861   1.997   5.882
12897TIP3    H138568   7.802   1.940   5.834
12897TIP3    H238569   7.907   1.939   5.943
12898TIP3   OH238570   8.010   1.840   6.056
12898TIP3    H138571   8.009   1.770   6.120
12898TIP3    H238572   8.059   1.911   6.098
12899TIP3   OH238573   9.537   1.888   6.218
12899TIP3    H138574   9.537   1.982   6.237
12899TIP3    H238575   9.517   1.882   6.124
12900TIP3   OH238576   8.165   1.328   6.394
12900TIP3    H138577   8.163   1.301   6.302
12900TIP3    H238578   8.258   1.330   6.416
12901TIP3   OH238579   8.104   1.037   6.460
12901TIP3    H138580   8.161   1.074   6.393
12901TIP3    H238581   8.076   1.113   6.512
12902TIP3   OH238582   9.289   2.172   5.519
12902TIP3    H138583   9.330   2.139   5.440
12902TIP3    H238584   9.348   2.241   5.550
12903TIP3   OH238585   8.399   1.967   6.871
12903TIP3    H138586   8.305   1.946   6.868
12903TIP3    H238587   8.423   1.958   6.963
12904TIP3   OH238588   8.609   2.009   6.429
12904TIP3    H138589   8.554   2.076   6.391
12904TIP3    H238590   8.695   2.021   6.387
12905TIP3   OH238591   9.003   2.229   6.564
12905TIP3    H138592   9.045   2.230   6.650
12905TIP3    H238593   9.054   2.290   6.511
12906TIP3   OH238594   9.189   2.394   6.438
12906TIP3    H138595   9.250   2.332   6.397
12906TIP3    H238596   9.243   2.444   6.499
12907TIP3   OH238597   8.264   2.225   6.487
12907TIP3    H138598   8.176   2.257   6.467
12907TIP3    H238599   8.301   2.292   6.545
12908TIP3   OH238600   8.472   2.207   6.304
12908TIP3    H138601   8.393   2.223   6.357
12908TIP3    H238602   8.453   2.248   6.220
12909TIP3   OH238603   8.893   2.262   6.126
12909TIP3    H138604   8.815   2.277   6.072
12909TIP3    H238605   8.916   2.349   6.159
12910TIP3   OH238606   9.147   2.165   6.136
12910TIP3    H138607   9.064   2.211   6.146
12910TIP3    H238608   9.213   2.233   6.139
12911TIP3   OH238609   9.371   2.325   6.098
12911TIP3    H138610   9.350   2.412   6.062
12911TIP3    H238611   9.397   2.273   6.022
12912TIP3   OH238612   8.175   2.025   6.198
12912TIP3    H138613   8.202   2.005   6.288
12912TIP3    H238614   8.249   1.996   6.144
12913TIP3   OH238615   8.382   1.916   6.057
12913TIP3    H138616   8.391   1.832   6.102
12913TIP3    H238617   8.469   1.956   6.063
12914TIP3   OH238618   8.652   1.990   6.078
12914TIP3    H138619   8.669   1.896   6.068
12914TIP3    H238620   8.708   2.016   6.151
12915TIP3   OH238621   7.941   1.822   5.576
12915TIP3    H138622   7.858   1.791   5.540
12915TIP3    H238623   7.949   1.912   5.544
12916TIP3   OH238624   8.760   1.965   5.148
12916TIP3    H138625   8.850   1.981   5.120
12916TIP3    H238626   8.730   1.893   5.093
12917TIP3   OH238627   9.440   2.094   5.303
12917TIP3    H138628   9.422   2.004   5.276
12917TIP3    H238629   9.419   2.146   5.226
12918TIP3   OH238630   8.059   1.808   5.229
12918TIP3    H138631   8.058   1.813   5.324
12918TIP3    H238632   8.140   1.762   5.207
12919TIP3   OH238633   9.583   2.226   6.531
12919TIP3    H138634   9.562   2.184   6.448
12919TIP3    H238635   9.598   2.318   6.507
12920TIP3   OH238636   1.600   2.169   7.405
12920TIP3    H138637   1.562   2.255   7.388
12920TIP3    H238638   1.532   2.107   7.377
12921TIP3   OH238639   1.572   2.160   7.799
12921TIP3    H138640   1.641   2.129   7.857
12921TIP3    H238641   1.538   2.080   7.758
12922TIP3   OH238642   4.238   6.740   0.037
12922TIP3    H138643   4.291   6.685   0.095
12922TIP3    H238644   4.302   6.781  -0.022
12923TIP3   OH238645   1.876   2.475   7.488
12923TIP3    H138646   1.870   2.409   7.557
12923TIP3    H238647   1.893   2.557   7.534
12924TIP3   OH238648   0.907   2.464   7.833
12924TIP3    H138649   0.872   2.376   7.822
12924TIP3    H238650   0.997   2.459   7.802
12925TIP3   OH238651   1.541   2.879   7.513
12925TIP3    H138652   1.558   2.818   7.441
12925TIP3    H238653   1.564   2.830   7.592
12926TIP3   OH238654   1.413   2.392   7.801
12926TIP3    H138655   1.455   2.307   7.783
12926TIP3    H238656   1.485   2.455   7.798
12927TIP3   OH238657   2.438   1.718   7.792
12927TIP3    H138658   2.446   1.806   7.827
12927TIP3    H238659   2.484   1.721   7.708
12928TIP3   OH238660   1.831   1.850   7.846
12928TIP3    H138661   1.869   1.766   7.874
12928TIP3    H238662   1.791   1.832   7.761
12929TIP3   OH238663   1.865   1.634   7.446
12929TIP3    H138664   1.927   1.620   7.517
12929TIP3    H238665   1.918   1.669   7.374
12930TIP3   OH238666   1.238   1.955   7.731
12930TIP3    H138667   1.331   1.933   7.734
12930TIP3    H238668   1.193   1.872   7.719
12931TIP3   OH238669   2.465   1.971   7.897
12931TIP3    H138670   2.375   1.989   7.922
12931TIP3    H238671   2.509   1.950   7.979
12932TIP3   OH238672   1.446   2.372   7.297
12932TIP3    H138673   1.440   2.363   7.201
12932TIP3    H238674   1.410   2.458   7.315
12933TIP3   OH238675   4.534   7.046   0.039
12933TIP3    H138676   4.442   7.063   0.017
12933TIP3    H238677   4.577   7.036  -0.046
12934TIP3   OH238678   2.027   1.629   7.659
12934TIP3    H138679   2.012   1.599   7.749
12934TIP3    H238680   2.085   1.704   7.669
12935TIP3   OH238681   4.268   7.136   0.083
12935TIP3    H138682   4.281   7.230   0.083
12935TIP3    H238683   4.220   7.118   0.001
12936TIP3   OH238684   1.897   2.719   7.628
12936TIP3    H138685   1.805   2.720   7.654
12936TIP3    H238686   1.909   2.801   7.580
12937TIP3   OH238687   2.212   1.606   7.893
12937TIP3    H138688   2.162   1.687   7.900
12937TIP3    H238689   2.295   1.632   7.854
12938TIP3   OH238690   1.608   2.733   7.289
12938TIP3    H138691   1.660   2.654   7.275
12938TIP3    H238692   1.667   2.804   7.264
12939TIP3   OH238693   1.766   2.519   7.239
12939TIP3    H138694   1.785   2.445   7.182
12939TIP3    H238695   1.808   2.497   7.322
12940TIP3   OH238696   2.137   2.601   7.975
12940TIP3    H138697   2.139   2.538   7.903
12940TIP3    H238698   2.125   2.686   7.932
12941TIP3   OH238699   1.430   2.009   7.248
12941TIP3    H138700   1.351   2.060   7.231
12941TIP3    H238701   1.479   2.012   7.165
12942TIP3   OH238702   1.397   1.816   6.940
12942TIP3    H138703   1.460   1.866   6.991
12942TIP3    H238704   1.449   1.749   6.896
12943TIP3   OH238705   2.319   2.261   7.806
12943TIP3    H138706   2.246   2.322   7.802
12943TIP3    H238707   2.365   2.273   7.723
12944TIP3   OH238708   1.783   2.097   7.213
12944TIP3    H138709   1.730   2.126   7.287
12944TIP3    H238710   1.867   2.072   7.251
12945TIP3   OH238711   5.231   6.784   0.009
12945TIP3    H138712   5.225   6.880   0.004
12945TIP3    H238713   5.141   6.754  -0.004
12946TIP3   OH238714   1.018   2.095   7.619
12946TIP3    H138715   0.973   2.029   7.566
12946TIP3    H238716   1.095   2.049   7.653
12947TIP3   OH238717   1.161   2.492   7.733
12947TIP3    H138718   1.145   2.478   7.640
12947TIP3    H238719   1.247   2.453   7.749
12948TIP3   OH238720   1.189   2.177   7.889
12948TIP3    H138721   1.208   2.105   7.830
12948TIP3    H238722   1.270   2.191   7.937
12949TIP3   OH238723   1.639   2.731   7.723
12949TIP3    H138724   1.642   2.801   7.788
12949TIP3    H238725   1.642   2.650   7.775
12950TIP3   OH238726   4.591   7.179   0.267
12950TIP3    H138727   4.507   7.217   0.290
12950TIP3    H238728   4.573   7.125   0.191
12951TIP3   OH238729   1.619   1.959   7.041
12951TIP3    H138730   1.678   2.016   7.089
12951TIP3    H238731   1.651   1.961   6.951
12952TIP3   OH238732   4.290   6.701   0.395
12952TIP3    H138733   4.309   6.792   0.370
12952TIP3    H238734   4.205   6.682   0.356
12953TIP3   OH238735   1.352   2.634   7.304
12953TIP3    H138736   1.441   2.669   7.309
12953TIP3    H238737   1.303   2.699   7.254
12954TIP3   OH238738   4.350   7.279   0.346
12954TIP3    H138739   4.329   7.338   0.274
12954TIP3    H238740   4.278   7.292   0.409
12955TIP3   OH238741   2.122   1.185   7.097
12955TIP3    H138742   2.051   1.208   7.158
12955TIP3    H238743   2.132   1.263   7.043
12956TIP3   OH238744   0.905   1.921   7.442
12956TIP3    H138745   0.899   1.947   7.350
12956TIP3    H238746   0.954   1.838   7.440
12957TIP3   OH238747   1.957   2.560   6.654
12957TIP3    H138748   1.950   2.654   6.635
12957TIP3    H238749   2.046   2.537   6.628
12958TIP3   OH238750   0.526   2.472   7.922
12958TIP3    H138751   0.575   2.398   7.958
12958TIP3    H238752   0.546   2.545   7.980
12959TIP3   OH238753   5.644   7.633   0.006
12959TIP3    H138754   5.650   7.538   0.011
12959TIP3    H238755   5.572   7.656   0.065
12960TIP3   OH238756   4.809   7.311   0.163
12960TIP3    H138757   4.800   7.401   0.132
12960TIP3    H238758   4.724   7.291   0.202
12961TIP3   OH238759   1.256   2.842   7.133
12961TIP3    H138760   1.217   2.829   7.046
12961TIP3    H238761   1.225   2.929   7.160
12962TIP3   OH238762   0.672   2.694   7.517
12962TIP3    H138763   0.734   2.705   7.589
12962TIP3    H238764   0.596   2.651   7.557
12963TIP3   OH238765   1.458   2.782   6.757
12963TIP3    H138766   1.509   2.708   6.724
12963TIP3    H238767   1.494   2.799   6.844
12964TIP3   OH238768   1.511   2.827   7.025
12964TIP3    H138769   1.427   2.827   7.072
12964TIP3    H238770   1.575   2.798   7.090
12965TIP3   OH238771   5.565   6.762   0.150
12965TIP3    H138772   5.509   6.839   0.145
12965TIP3    H238773   5.538   6.707   0.076
12966TIP3   OH238774   4.025   7.156   0.275
12966TIP3    H138775   4.117   7.129   0.272
12966TIP3    H238776   3.999   7.140   0.366
12967TIP3   OH238777   4.910   5.962   0.359
12967TIP3    H138778   4.989   5.927   0.399
12967TIP3    H238779   4.900   6.049   0.397
12968TIP3   OH238780   5.258   6.547   0.165
12968TIP3    H138781   5.269   6.592   0.249
12968TIP3    H238782   5.258   6.617   0.100
12969TIP3   OH238783   1.703   1.923   6.780
12969TIP3    H138784   1.657   1.935   6.697
12969TIP3    H238785   1.786   1.970   6.767
12970TIP3   OH238786   1.374   1.343   7.090
12970TIP3    H138787   1.346   1.364   7.179
12970TIP3    H238788   1.411   1.255   7.097
12971TIP3   OH238789   4.518   6.363   0.075
12971TIP3    H138790   4.461   6.344   0.150
12971TIP3    H238791   4.479   6.441   0.035
12972TIP3   OH238792   1.100   1.725   7.680
12972TIP3    H138793   1.085   1.637   7.714
12972TIP3    H238794   1.087   1.718   7.586
12973TIP3   OH238795   1.549   1.802   7.381
12973TIP3    H138796   1.503   1.875   7.340
12973TIP3    H238797   1.607   1.769   7.312
12974TIP3   OH238798   5.057   6.711   0.464
12974TIP3    H138799   5.047   6.682   0.555
12974TIP3    H238800   5.118   6.784   0.469
12975TIP3   OH238801   1.721   1.816   7.596
12975TIP3    H138802   1.654   1.834   7.530
12975TIP3    H238803   1.772   1.744   7.559
12976TIP3   OH238804   4.986   6.661  -0.005
12976TIP3    H138805   5.023   6.592  -0.059
12976TIP3    H238806   4.969   6.618   0.080
12977TIP3   OH238807   1.430   1.566   7.717
12977TIP3    H138808   1.381   1.579   7.798
12977TIP3    H238809   1.519   1.546   7.745
12978TIP3   OH238810   1.084   1.715   7.397
12978TIP3    H138811   1.176   1.690   7.410
12978TIP3    H238812   1.056   1.663   7.321
12979TIP3   OH238813   1.899   1.593   7.911
12979TIP3    H138814   1.883   1.573   8.003
12979TIP3    H238815   1.824   1.555   7.865
12980TIP3   OH238816   1.003   1.613   7.156
12980TIP3    H138817   0.944   1.553   7.111
12980TIP3    H238818   1.046   1.662   7.086
12981TIP3   OH238819   5.355   7.954   0.123
12981TIP3    H138820   5.347   7.967   0.028
12981TIP3    H238821   5.435   8.000   0.147
12982TIP3   OH238822   4.174   7.006   0.696
12982TIP3    H138823   4.258   7.032   0.659
12982TIP3    H238824   4.194   6.928   0.748
12983TIP3   OH238825   1.506   1.890   7.768
12983TIP3    H138826   1.573   1.850   7.713
12983TIP3    H238827   1.511   1.841   7.851
12984TIP3   OH238828   4.781   6.369   0.003
12984TIP3    H138829   4.689   6.363   0.030
12984TIP3    H238830   4.831   6.345   0.081
12985TIP3   OH238831   1.197   2.149   7.193
12985TIP3    H138832   1.129   2.083   7.178
12985TIP3    H238833   1.169   2.194   7.272
12986TIP3   OH238834   2.094   2.415   7.779
12986TIP3    H138835   2.130   2.462   7.703
12986TIP3    H238836   2.014   2.373   7.746
12987TIP3   OH238837   1.634   1.468   7.104
12987TIP3    H138838   1.539   1.459   7.099
12987TIP3    H238839   1.647   1.562   7.116
12988TIP3   OH238840   4.833   7.041   0.108
12988TIP3    H138841   4.908   7.032   0.167
12988TIP3    H238842   4.801   7.130   0.123
12989TIP3   OH238843   1.716   1.727   7.167
12989TIP3    H138844   1.811   1.731   7.181
12989TIP3    H238845   1.696   1.806   7.118
12990TIP3   OH238846   0.842   2.202   7.805
12990TIP3    H138847   0.899   2.164   7.738
12990TIP3    H238848   0.870   2.161   7.887
12991TIP3   OH238849   1.353   2.306   7.030
12991TIP3    H138850   1.305   2.389   7.029
12991TIP3    H238851   1.302   2.248   7.085
12992TIP3   OH238852   4.803   6.861   0.446
12992TIP3    H138853   4.812   6.781   0.497
12992TIP3    H238854   4.879   6.861   0.388
12993TIP3   OH238855   5.066   7.372  -0.017
12993TIP3    H138856   4.990   7.315  -0.010
12993TIP3    H238857   5.087   7.394   0.074
12994TIP3   OH238858   2.127   1.813   6.984
12994TIP3    H138859   2.071   1.769   6.921
12994TIP3    H238860   2.135   1.903   6.951
12995TIP3   OH238861   5.656   7.363   0.036
12995TIP3    H138862   5.577   7.324   0.074
12995TIP3    H238863   5.673   7.311  -0.042
12996TIP3   OH238864   1.869   2.634   6.913
12996TIP3    H138865   1.857   2.560   6.973
12996TIP3    H238866   1.900   2.594   6.832
12997TIP3   OH238867   1.862   2.277   7.689
12997TIP3    H138868   1.767   2.266   7.695
12997TIP3    H238869   1.894   2.193   7.657
12998TIP3   OH238870   1.002   2.513   7.502
12998TIP3    H138871   1.000   2.587   7.441
12998TIP3    H238872   0.932   2.531   7.564
12999TIP3   OH238873   1.071   2.265   7.403
12999TIP3    H138874   1.057   2.355   7.435
12999TIP3    H238875   1.056   2.211   7.480
13000TIP3   OH238876   1.282   2.842   7.915
13000TIP3    H138877   1.333   2.912   7.874
13000TIP3    H238878   1.293   2.855   8.009
13001TIP3   OH238879   0.903   2.732   7.360
13001TIP3    H138880   0.818   2.739   7.403
13001TIP3    H238881   0.940   2.820   7.367
13002TIP3   OH238882   1.668   2.500   7.871
13002TIP3    H138883   1.628   2.464   7.950
13002TIP3    H238884   1.760   2.473   7.876
13003TIP3   OH238885   1.642   2.372   6.842
13003TIP3    H138886   1.699   2.359   6.918
13003TIP3    H238887   1.555   2.348   6.872
13004TIP3   OH238888   1.891   3.019   7.977
13004TIP3    H138889   1.834   2.942   7.971
13004TIP3    H238890   1.882   3.062   7.892
13005TIP3   OH238891   1.952   2.834   6.621
13005TIP3    H138892   1.982   2.901   6.560
13005TIP3    H238893   1.879   2.875   6.668
13006TIP3   OH238894   1.820   2.316   7.048
13006TIP3    H138895   1.802   2.241   7.104
13006TIP3    H238896   1.912   2.307   7.024
13007TIP3   OH238897   3.891   7.301   0.080
13007TIP3    H138898   3.937   7.243   0.141
13007TIP3    H238899   3.866   7.377   0.133
13008TIP3   OH238900   0.977   2.336   6.842
13008TIP3    H138901   0.985   2.244   6.816
13008TIP3    H238902   0.974   2.333   6.938
13009TIP3   OH238903   0.945   2.350   7.122
13009TIP3    H138904   1.018   2.326   7.180
13009TIP3    H238905   0.948   2.446   7.118
13010TIP3   OH238906   5.064   6.300   0.174
13010TIP3    H138907   5.126   6.368   0.149
13010TIP3    H238908   5.105   6.256   0.249
13011TIP3   OH238909   1.726   1.415   7.362
13011TIP3    H138910   1.694   1.432   7.273
13011TIP3    H238911   1.766   1.497   7.390
13012TIP3   OH238912   1.198   2.529   7.034
13012TIP3    H138913   1.117   2.559   7.076
13012TIP3    H238914   1.229   2.604   6.984
13013TIP3   OH238915   1.341   1.642   7.468
13013TIP3    H138916   1.413   1.699   7.439
13013TIP3    H238917   1.365   1.618   7.557
13014TIP3   OH238918   4.963   6.555   0.253
13014TIP3    H138919   4.994   6.578   0.341
13014TIP3    H238920   4.986   6.463   0.243
13015TIP3   OH238921   1.531   1.324   7.534
13015TIP3    H138922   1.530   1.379   7.611
13015TIP3    H238923   1.603   1.357   7.481
13016TIP3   OH238924   0.949   2.622   7.116
13016TIP3    H138925   0.933   2.691   7.051
13016TIP3    H238926   0.935   2.665   7.200
13017TIP3   OH238927   5.577   6.454   0.144
13017TIP3    H138928   5.546   6.483   0.230
13017TIP3    H238929   5.566   6.359   0.146
13018TIP3   OH238930   1.936   2.016   7.608
13018TIP3    H138931   1.860   1.959   7.615
13018TIP3    H238932   2.006   1.968   7.652
13019TIP3   OH238933   0.692   2.266   7.167
13019TIP3    H138934   0.781   2.297   7.152
13019TIP3    H238935   0.685   2.185   7.116
13020TIP3   OH238936   1.928   2.975   7.530
13020TIP3    H138937   1.881   3.027   7.465
13020TIP3    H238938   2.020   3.001   7.519
13021TIP3   OH238939   0.489   2.450   7.427
13021TIP3    H138940   0.480   2.466   7.521
13021TIP3    H238941   0.427   2.512   7.387
13022TIP3   OH238942   3.953   7.596   0.608
13022TIP3    H138943   4.039   7.611   0.648
13022TIP3    H238944   3.936   7.503   0.620
13023TIP3   OH238945   4.519   7.599   0.449
13023TIP3    H138946   4.565   7.522   0.483
13023TIP3    H238947   4.427   7.575   0.449
13024TIP3   OH238948   1.139   2.532   6.724
13024TIP3    H138949   1.094   2.462   6.771
13024TIP3    H238950   1.214   2.489   6.683
13025TIP3   OH238951   5.106   7.462   0.233
13025TIP3    H138952   5.058   7.440   0.312
13025TIP3    H238953   5.138   7.551   0.248
13026TIP3   OH238954   1.587   2.566   6.647
13026TIP3    H138955   1.625   2.506   6.711
13026TIP3    H238956   1.647   2.563   6.572
13027TIP3   OH238957   0.803   2.053   7.000
13027TIP3    H138958   0.860   2.014   7.066
13027TIP3    H238959   0.857   2.057   6.921
13028TIP3   OH238960   4.782   7.155   0.457
13028TIP3    H138961   4.719   7.146   0.386
13028TIP3    H238962   4.827   7.071   0.459
13029TIP3   OH238963   1.345   2.250   6.760
13029TIP3    H138964   1.343   2.258   6.855
13029TIP3    H238965   1.349   2.155   6.745
13030TIP3   OH238966   5.175   7.062   0.021
13030TIP3    H138967   5.227   7.137  -0.007
13030TIP3    H238968   5.125   7.095   0.096
13031TIP3   OH238969   1.019   1.932   7.176
13031TIP3    H138970   1.054   1.878   7.247
13031TIP3    H238971   1.047   1.886   7.096
13032TIP3   OH238972   4.537   6.617   0.482
13032TIP3    H138973   4.459   6.653   0.440
13032TIP3    H238974   4.599   6.605   0.411
13033TIP3   OH238975   1.124   1.781   6.973
13033TIP3    H138976   1.097   1.789   6.881
13033TIP3    H238977   1.219   1.789   6.970
13034TIP3   OH238978   5.085   7.094   0.533
13034TIP3    H138979   5.156   7.112   0.471
13034TIP3    H238980   5.116   7.018   0.582
13035TIP3   OH238981   1.918   2.066   6.682
13035TIP3    H138982   1.905   2.031   6.594
13035TIP3    H238983   1.894   2.159   6.675
13036TIP3   OH238984   4.619   6.390   0.619
13036TIP3    H138985   4.588   6.332   0.550
13036TIP3    H238986   4.621   6.477   0.579
13037TIP3   OH238987   4.716   6.802   0.057
13037TIP3    H138988   4.762   6.765  -0.019
13037TIP3    H238989   4.745   6.893   0.062
13038TIP3   OH238990   5.318   6.615   0.442
13038TIP3    H138991   5.227   6.585   0.451
13038TIP3    H238992   5.328   6.681   0.510
13039TIP3   OH238993   5.416   6.987   0.149
13039TIP3    H138994   5.351   7.031   0.095
13039TIP3    H238995   5.496   7.039   0.138
13040TIP3   OH238996   4.874   6.351   0.744
13040TIP3    H138997   4.879   6.405   0.823
13040TIP3    H238998   4.788   6.371   0.707
13041TIP3   OH238999   5.125   6.415   0.451
13041TIP3    H139000   5.124   6.379   0.540
13041TIP3    H239001   5.196   6.368   0.407
13042TIP3   OH239002   5.436   6.287   0.796
13042TIP3    H139003   5.448   6.320   0.707
13042TIP3    H239004   5.445   6.364   0.852
13043TIP3   OH239005   0.946   2.824   6.929
13043TIP3    H139006   1.037   2.808   6.904
13043TIP3    H239007   0.910   2.875   6.856
13044TIP3   OH239008   0.313   2.734   7.488
13044TIP3    H139009   0.218   2.728   7.490
13044TIP3    H239010   0.343   2.692   7.568
13045TIP3   OH239011   0.468   2.604   7.687
13045TIP3    H139012   0.470   2.538   7.757
13045TIP3    H239013   0.497   2.685   7.730
13046TIP3   OH239014   2.181   3.075   7.522
13046TIP3    H139015   2.206   3.081   7.614
13046TIP3    H239016   2.262   3.092   7.474
13047TIP3   OH239017   2.197   3.066   7.801
13047TIP3    H139018   2.153   2.981   7.803
13047TIP3    H239019   2.272   3.055   7.859
13048TIP3   OH239020   5.494   7.411   0.299
13048TIP3    H139021   5.542   7.385   0.378
13048TIP3    H239022   5.540   7.489   0.268
13049TIP3   OH239023   2.087   2.274   7.000
13049TIP3    H139024   2.140   2.347   6.968
13049TIP3    H239025   2.140   2.236   7.070
13050TIP3   OH239026   2.220   2.125   7.191
13050TIP3    H139027   2.156   2.095   7.256
13050TIP3    H239028   2.290   2.164   7.243
13051TIP3   OH239029   2.277   2.542   7.616
13051TIP3    H139030   2.330   2.471   7.580
13051TIP3    H239031   2.296   2.617   7.560
13052TIP3   OH239032   2.061   2.823   7.829
13052TIP3    H139033   1.987   2.843   7.887
13052TIP3    H239034   2.021   2.781   7.753
13053TIP3   OH239035   2.139   2.050   6.845
13053TIP3    H139036   2.066   2.051   6.784
13053TIP3    H239037   2.127   2.128   6.899
13054TIP3   OH239038   1.982   1.697   6.783
13054TIP3    H139039   1.933   1.736   6.711
13054TIP3    H239040   1.973   1.602   6.770
13055TIP3   OH239041   2.012   2.005   7.341
13055TIP3    H139042   2.024   1.910   7.333
13055TIP3    H239043   1.995   2.018   7.434
13056TIP3   OH239044   5.673   7.082   0.142
13056TIP3    H139045   5.723   7.015   0.187
13056TIP3    H239046   5.706   7.082   0.053
13057TIP3   OH239047   5.779   6.873   0.278
13057TIP3    H139048   5.711   6.824   0.232
13057TIP3    H239049   5.861   6.832   0.248
13058TIP3   OH239050   1.944   1.423   6.750
13058TIP3    H139051   2.006   1.404   6.820
13058TIP3    H239052   1.860   1.393   6.784
13059TIP3   OH239053   2.006   1.724   7.224
13059TIP3    H139054   2.054   1.643   7.239
13059TIP3    H239055   2.048   1.763   7.147
13060TIP3   OH239056   2.154   1.870   7.711
13060TIP3    H139057   2.234   1.889   7.661
13060TIP3    H239058   2.163   1.922   7.791
13061TIP3   OH239059   2.194   2.050   7.914
13061TIP3    H139060   2.109   2.088   7.939
13061TIP3    H239061   2.239   2.121   7.868
13062TIP3   OH239062   5.955   6.203   0.594
13062TIP3    H139063   5.984   6.121   0.555
13062TIP3    H239064   6.032   6.259   0.595
13063TIP3   OH239065   2.122   1.480   7.288
13063TIP3    H139066   2.173   1.468   7.368
13063TIP3    H239067   2.064   1.404   7.285
13064TIP3   OH239068   5.844   6.477   0.125
13064TIP3    H139069   5.749   6.469   0.136
13064TIP3    H239070   5.880   6.402   0.173
13065TIP3   OH239071   2.160   1.390   6.917
13065TIP3    H139072   2.211   1.331   6.862
13065TIP3    H239073   2.216   1.468   6.927
13066TIP3   OH239074   1.744   2.943   7.189
13066TIP3    H139075   1.804   2.936   7.115
13066TIP3    H239076   1.781   3.012   7.244
13067TIP3   OH239077   4.163   7.278   0.543
13067TIP3    H139078   4.081   7.316   0.575
13067TIP3    H239079   4.180   7.204   0.601
13068TIP3   OH239080   4.295   7.411   0.105
13068TIP3    H139081   4.261   7.479   0.047
13068TIP3    H239082   4.385   7.437   0.123
13069TIP3   OH239083   4.779   7.575   0.094
13069TIP3    H139084   4.830   7.604   0.170
13069TIP3    H239085   4.828   7.607   0.018
13070TIP3   OH239086   4.957   7.803   0.088
13070TIP3    H139087   5.027   7.755   0.044
13070TIP3    H239088   5.003   7.853   0.157
13071TIP3   OH239089   5.765   6.082   0.026
13071TIP3    H139090   5.713   6.145   0.077
13071TIP3    H239091   5.783   6.011   0.087
13072TIP3   OH239092   3.955   7.646   0.066
13072TIP3    H139093   3.870   7.678   0.037
13072TIP3    H239094   3.954   7.656   0.161
13073TIP3   OH239095   0.945   3.012   7.971
13073TIP3    H139096   0.858   3.021   8.009
13073TIP3    H239097   0.935   3.044   7.881
13074TIP3   OH239098   1.381   3.059   7.774
13074TIP3    H139099   1.305   3.064   7.716
13074TIP3    H239100   1.385   3.146   7.815
13075TIP3   OH239101   1.631   2.984   7.843
13075TIP3    H139102   1.546   3.005   7.805
13075TIP3    H239103   1.692   3.042   7.797
13076TIP3   OH239104   1.840   3.134   7.735
13076TIP3    H139105   1.847   3.223   7.699
13076TIP3    H239106   1.870   3.077   7.664
13077TIP3   OH239107   0.605   2.801   7.829
13077TIP3    H139108   0.602   2.773   7.921
13077TIP3    H239109   0.693   2.776   7.799
13078TIP3   OH239110   0.841   2.706   7.730
13078TIP3    H139111   0.855   2.624   7.778
13078TIP3    H239112   0.927   2.747   7.729
13079TIP3   OH239113   1.105   2.774   7.726
13079TIP3    H139114   1.132   2.683   7.709
13079TIP3    H239115   1.162   2.802   7.798
13080TIP3   OH239116   1.674   1.467   7.792
13080TIP3    H139117   1.663   1.444   7.884
13080TIP3    H239118   1.738   1.405   7.758
13081TIP3   OH239119   2.156   1.325   7.709
13081TIP3    H139120   2.198   1.387   7.649
13081TIP3    H239121   2.064   1.352   7.711
13082TIP3   OH239122   2.296   1.433   7.495
13082TIP3    H139123   2.363   1.369   7.471
13082TIP3    H239124   2.339   1.518   7.483
13083TIP3   OH239125   1.868   1.303   7.691
13083TIP3    H139126   1.864   1.289   7.597
13083TIP3    H239127   1.849   1.217   7.729
13084TIP3   OH239128   1.945   1.261   7.294
13084TIP3    H139129   1.865   1.309   7.314
13084TIP3    H239130   1.930   1.173   7.328
13085TIP3   OH239131   0.385   2.564   7.194
13085TIP3    H139132   0.299   2.543   7.157
13085TIP3    H239133   0.387   2.660   7.197
13086TIP3   OH239134   1.333   1.392   7.353
13086TIP3    H139135   1.390   1.348   7.417
13086TIP3    H239136   1.322   1.480   7.387
13087TIP3   OH239137   1.205   2.757   6.864
13087TIP3    H139138   1.289   2.783   6.825
13087TIP3    H239139   1.175   2.685   6.808
13088TIP3   OH239140   1.902   2.901   6.963
13088TIP3    H139141   1.895   2.806   6.952
13088TIP3    H239142   1.863   2.938   6.884
13089TIP3   OH239143   0.480   2.562   6.903
13089TIP3    H139144   0.477   2.599   6.992
13089TIP3    H239145   0.571   2.536   6.890
13090TIP3   OH239146   5.511   6.016   0.729
13090TIP3    H139147   5.564   5.970   0.795
13090TIP3    H239148   5.540   6.107   0.735
13091TIP3   OH239149   5.391   7.683   0.121
13091TIP3    H139150   5.318   7.648   0.069
13091TIP3    H239151   5.379   7.778   0.118
13092TIP3   OH239152   3.404   2.426   6.882
13092TIP3    H139153   3.373   2.512   6.857
13092TIP3    H239154   3.331   2.367   6.864
13093TIP3   OH239155   3.406   2.421   7.313
13093TIP3    H139156   3.457   2.403   7.391
13093TIP3    H239157   3.360   2.339   7.294
13094TIP3   OH239158   2.692   2.278   7.667
13094TIP3    H139159   2.734   2.216   7.726
13094TIP3    H239160   2.761   2.302   7.604
13095TIP3   OH239161   3.666   2.728   6.989
13095TIP3    H139162   3.656   2.660   7.056
13095TIP3    H239163   3.688   2.807   7.038
13096TIP3   OH239164   2.680   2.724   7.361
13096TIP3    H139165   2.668   2.629   7.355
13096TIP3    H239166   2.774   2.738   7.352
13097TIP3   OH239167   2.372   1.890   7.112
13097TIP3    H139168   2.359   1.981   7.136
13097TIP3    H239169   2.285   1.860   7.085
13098TIP3   OH239170   2.453   2.213   7.310
13098TIP3    H139171   2.507   2.145   7.351
13098TIP3    H239172   2.504   2.243   7.235
13099TIP3   OH239173   3.334   3.149   7.007
13099TIP3    H139174   3.357   3.088   6.937
13099TIP3    H239175   3.344   3.097   7.088
13100TIP3   OH239176   3.201   2.640   7.316
13100TIP3    H139177   3.246   2.561   7.286
13100TIP3    H239178   3.271   2.697   7.348
13101TIP3   OH239179   4.246   1.961   7.334
13101TIP3    H139180   4.262   2.044   7.378
13101TIP3    H239181   4.271   1.976   7.243
13102TIP3   OH239182   3.618   2.128   7.352
13102TIP3    H139183   3.646   2.041   7.381
13102TIP3    H239184   3.581   2.114   7.265
13103TIP3   OH239185   2.959   1.813   7.296
13103TIP3    H139186   2.933   1.885   7.238
13103TIP3    H239187   2.903   1.740   7.270
13104TIP3   OH239188   3.665   1.886   6.947
13104TIP3    H139189   3.728   1.880   7.019
13104TIP3    H239190   3.715   1.921   6.874
13105TIP3   OH239191   2.595   2.012   7.435
13105TIP3    H139192   2.683   2.007   7.474
13105TIP3    H239193   2.595   1.946   7.366
13106TIP3   OH239194   3.021   2.189   7.296
13106TIP3    H139195   3.115   2.179   7.282
13106TIP3    H239196   2.980   2.136   7.228
13107TIP3   OH239197   4.297   2.182   7.497
13107TIP3    H139198   4.207   2.216   7.494
13107TIP3    H239199   4.334   2.221   7.576
13108TIP3   OH239200   2.953   1.787   7.740
13108TIP3    H139201   2.902   1.831   7.672
13108TIP3    H239202   2.900   1.798   7.819
13109TIP3   OH239203   3.298   2.644   6.749
13109TIP3    H139204   3.257   2.613   6.668
13109TIP3    H239205   3.246   2.721   6.774
13110TIP3   OH239206   3.038   2.565   7.527
13110TIP3    H139207   2.985   2.637   7.559
13110TIP3    H239208   3.086   2.601   7.452
13111TIP3   OH239209   3.822   1.909   7.170
13111TIP3    H139210   3.776   1.889   7.252
13111TIP3    H239211   3.877   1.984   7.191
13112TIP3   OH239212   2.843   1.916   7.525
13112TIP3    H139213   2.899   1.989   7.551
13112TIP3    H239214   2.885   1.879   7.447
13113TIP3   OH239215   2.886   2.773   7.627
13113TIP3    H139216   2.876   2.865   7.601
13113TIP3    H239217   2.804   2.751   7.671
13114TIP3   OH239218   2.234   2.479   6.888
13114TIP3    H139219   2.232   2.495   6.794
13114TIP3    H239220   2.285   2.552   6.924
13115TIP3   OH239221   3.702   2.973   7.132
13115TIP3    H139222   3.613   2.968   7.168
13115TIP3    H239223   3.703   3.055   7.082
13116TIP3   OH239224   4.048   1.851   7.501
13116TIP3    H139225   3.963   1.876   7.464
13116TIP3    H239226   4.112   1.879   7.436
13117TIP3   OH239227   3.294   1.486   7.483
13117TIP3    H139228   3.288   1.393   7.507
13117TIP3    H239229   3.216   1.525   7.522
13118TIP3   OH239230   3.412   3.004   6.783
13118TIP3    H139231   3.465   2.925   6.772
13118TIP3    H239232   3.469   3.075   6.753
13119TIP3   OH239233   3.549   2.772   6.743
13119TIP3    H139234   3.474   2.712   6.743
13119TIP3    H239235   3.598   2.749   6.822
13120TIP3   OH239236   3.949   2.854   7.473
13120TIP3    H139237   3.926   2.782   7.415
13120TIP3    H239238   3.935   2.933   7.421
13121TIP3   OH239239   3.224   2.259   6.744
13121TIP3    H139240   3.141   2.304   6.730
13121TIP3    H239241   3.270   2.267   6.660
13122TIP3   OH239242   3.180   2.062   6.445
13122TIP3    H139243   3.243   2.115   6.492
13122TIP3    H239244   3.233   2.002   6.393
13123TIP3   OH239245   4.116   2.523   7.339
13123TIP3    H139246   4.031   2.567   7.336
13123TIP3    H239247   4.154   2.538   7.253
13124TIP3   OH239248   3.587   2.346   6.695
13124TIP3    H139249   3.533   2.378   6.767
13124TIP3    H239250   3.671   2.325   6.735
13125TIP3   OH239251   3.818   2.386   7.643
13125TIP3    H139252   3.813   2.468   7.691
13125TIP3    H239253   3.735   2.381   7.595
13126TIP3   OH239254   2.944   2.765   7.248
13126TIP3    H139255   2.912   2.738   7.161
13126TIP3    H239256   3.029   2.722   7.256
13127TIP3   OH239257   2.898   2.330   7.491
13127TIP3    H139258   2.939   2.288   7.415
13127TIP3    H239259   2.946   2.413   7.501
13128TIP3   OH239260   3.458   2.970   7.255
13128TIP3    H139261   3.443   3.047   7.309
13128TIP3    H239262   3.443   2.896   7.315
13129TIP3   OH239263   3.087   2.860   7.800
13129TIP3    H139264   3.027   2.919   7.846
13129TIP3    H239265   3.031   2.809   7.742
13130TIP3   OH239266   3.411   2.211   6.530
13130TIP3    H139267   3.472   2.267   6.577
13130TIP3    H239268   3.439   2.215   6.439
13131TIP3   OH239269   2.865   2.425   7.897
13131TIP3    H139270   2.866   2.515   7.929
13131TIP3    H239271   2.779   2.415   7.856
13132TIP3   OH239272   3.164   2.885   6.783
13132TIP3    H139273   3.246   2.934   6.793
13132TIP3    H239274   3.105   2.946   6.739
13133TIP3   OH239275   2.886   3.030   7.880
13133TIP3    H139276   2.863   3.042   7.787
13133TIP3    H239277   2.802   3.016   7.923
13134TIP3   OH239278   3.924   1.443   6.595
13134TIP3    H139279   3.848   1.465   6.650
13134TIP3    H239280   3.934   1.519   6.537
13135TIP3   OH239281   3.754   2.816   6.150
13135TIP3    H139282   3.746   2.909   6.131
13135TIP3    H239283   3.843   2.794   6.124
13136TIP3   OH239284   2.458   2.581   7.829
13136TIP3    H139285   2.396   2.564   7.758
13136TIP3    H239286   2.498   2.496   7.847
13137TIP3   OH239287   2.389   2.757   7.474
13137TIP3    H139288   2.473   2.735   7.435
13137TIP3    H239289   2.408   2.829   7.534
13138TIP3   OH239290   4.174   3.245   7.542
13138TIP3    H139291   4.180   3.150   7.549
13138TIP3    H239292   4.092   3.268   7.586
13139TIP3   OH239293   3.274   3.011   7.667
13139TIP3    H139294   3.263   3.101   7.696
13139TIP3    H239295   3.207   2.962   7.714
13140TIP3   OH239296   3.055   3.106   6.619
13140TIP3    H139297   3.011   3.087   6.537
13140TIP3    H239298   3.018   3.188   6.649
13141TIP3   OH239299   2.493   2.975   7.002
13141TIP3    H139300   2.536   2.968   7.087
13141TIP3    H239301   2.445   2.893   6.993
13142TIP3   OH239302   3.255   3.044   6.243
13142TIP3    H139303   3.305   2.970   6.209
13142TIP3    H239304   3.290   3.058   6.331
13143TIP3   OH239305   3.309   3.084   6.513
13143TIP3    H139306   3.224   3.086   6.556
13143TIP3    H239307   3.369   3.051   6.579
13144TIP3   OH239308   4.056   2.342   7.809
13144TIP3    H139309   3.976   2.344   7.756
13144TIP3    H239310   4.078   2.249   7.815
13145TIP3   OH239311   2.657   2.772   7.786
13145TIP3    H139312   2.714   2.763   7.861
13145TIP3    H239313   2.589   2.707   7.799
13146TIP3   OH239314   3.052   1.580   7.590
13146TIP3    H139315   2.968   1.551   7.555
13146TIP3    H239316   3.032   1.659   7.640
13147TIP3   OH239317   3.613   1.707   7.808
13147TIP3    H139318   3.691   1.677   7.855
13147TIP3    H239319   3.544   1.710   7.874
13148TIP3   OH239320   3.819   2.122   7.727
13148TIP3    H139321   3.774   2.115   7.811
13148TIP3    H239322   3.803   2.212   7.698
13149TIP3   OH239323   3.490   2.183   6.265
13149TIP3    H139324   3.450   2.192   6.178
13149TIP3    H239325   3.574   2.229   6.257
13150TIP3   OH239326   3.153   1.632   6.572
13150TIP3    H139327   3.144   1.640   6.667
13150TIP3    H239328   3.130   1.541   6.553
13151TIP3   OH239329   2.999   2.115   7.636
13151TIP3    H139330   2.952   2.120   7.719
13151TIP3    H239331   2.974   2.195   7.590
13152TIP3   OH239332   2.867   2.016   7.125
13152TIP3    H139333   2.799   2.083   7.126
13152TIP3    H239334   2.873   1.989   7.033
13153TIP3   OH239335   3.353   2.058   6.880
13153TIP3    H139336   3.305   2.131   6.840
13153TIP3    H239337   3.410   2.026   6.810
13154TIP3   OH239338   3.548   2.339   7.936
13154TIP3    H139339   3.513   2.270   7.993
13154TIP3    H239340   3.640   2.346   7.960
13155TIP3   OH239341   3.523   2.074   7.101
13155TIP3    H139342   3.454   2.095   7.038
13155TIP3    H239343   3.570   2.000   7.061
13156TIP3   OH239344   2.827   2.113   7.852
13156TIP3    H139345   2.835   2.169   7.929
13156TIP3    H239346   2.813   2.025   7.886
13157TIP3   OH239347   2.431   1.660   7.429
13157TIP3    H139348   2.496   1.690   7.493
13157TIP3    H239349   2.458   1.702   7.347
13158TIP3   OH239350   2.319   1.621   6.927
13158TIP3    H139351   2.378   1.664   6.865
13158TIP3    H239352   2.258   1.690   6.953
13159TIP3   OH239353   3.568   2.330   7.526
13159TIP3    H139354   3.592   2.263   7.462
13159TIP3    H239355   3.521   2.283   7.594
13160TIP3   OH239356   3.235   1.768   7.209
13160TIP3    H139357   3.156   1.781   7.262
13160TIP3    H239358   3.306   1.761   7.272
13161TIP3   OH239359   2.603   1.813   7.248
13161TIP3    H139360   2.541   1.838   7.180
13161TIP3    H239361   2.666   1.757   7.204
13162TIP3   OH239362   2.917   1.917   6.854
13162TIP3    H139363   2.999   1.897   6.900
13162TIP3    H239364   2.945   1.947   6.767
13163TIP3   OH239365   3.675   1.861   7.402
13163TIP3    H139366   3.658   1.881   7.494
13163TIP3    H239367   3.607   1.798   7.378
13164TIP3   OH239368   2.708   1.805   6.612
13164TIP3    H139369   2.710   1.858   6.692
13164TIP3    H239370   2.774   1.845   6.555
13165TIP3   OH239371   3.877   3.575   7.613
13165TIP3    H139372   3.872   3.591   7.519
13165TIP3    H239373   3.955   3.624   7.641
13166TIP3   OH239374   6.116   7.308  -0.002
13166TIP3    H139375   6.193   7.326   0.051
13166TIP3    H239376   6.043   7.314   0.060
13167TIP3   OH239377   3.299   2.152   7.303
13167TIP3    H139378   3.367   2.100   7.259
13167TIP3    H239379   3.292   2.112   7.390
13168TIP3   OH239380   2.798   1.606   7.193
13168TIP3    H139381   2.751   1.536   7.239
13168TIP3    H239382   2.868   1.562   7.146
13169TIP3   OH239383   3.260   2.057   7.563
13169TIP3    H139384   3.173   2.090   7.587
13169TIP3    H239385   3.321   2.107   7.617
13170TIP3   OH239386   2.985   2.392   6.694
13170TIP3    H139387   2.914   2.339   6.657
13170TIP3    H239388   2.948   2.427   6.775
13171TIP3   OH239389   3.881   2.659   7.291
13171TIP3    H139390   3.917   2.710   7.218
13171TIP3    H239391   3.802   2.618   7.256
13172TIP3   OH239392   3.427   1.718   6.601
13172TIP3    H139393   3.332   1.711   6.588
13172TIP3    H239394   3.443   1.812   6.610
13173TIP3   OH239395   3.403   2.744   7.704
13173TIP3    H139396   3.454   2.731   7.784
13173TIP3    H239397   3.364   2.830   7.714
13174TIP3   OH239398   3.511   1.979   6.658
13174TIP3    H139399   3.606   1.983   6.671
13174TIP3    H239400   3.490   2.058   6.608
13175TIP3   OH239401   2.688   2.454   7.331
13175TIP3    H139402   2.673   2.406   7.250
13175TIP3    H239403   2.750   2.400   7.380
13176TIP3   OH239404   3.136   2.555   6.535
13176TIP3    H139405   3.090   2.639   6.530
13176TIP3    H239406   3.081   2.501   6.590
13177TIP3   OH239407   2.578   2.364   7.948
13177TIP3    H139408   2.639   2.360   8.021
13177TIP3    H239409   2.564   2.272   7.924
13178TIP3   OH239410   3.309   2.482   7.977
13178TIP3    H139411   3.241   2.420   7.951
13178TIP3    H239412   3.390   2.444   7.943
13179TIP3   OH239413   3.545   3.031   7.595
13179TIP3    H139414   3.450   3.019   7.595
13179TIP3    H239415   3.564   3.068   7.680
13180TIP3   OH239416   3.924   2.072   6.477
13180TIP3    H139417   3.866   2.027   6.415
13180TIP3    H239418   3.931   2.161   6.443
13181TIP3   OH239419   4.190   2.969   7.557
13181TIP3    H139420   4.100   2.940   7.564
13181TIP3    H239421   4.221   2.932   7.475
13182TIP3   OH239422   3.669   2.890   6.415
13182TIP3    H139423   3.643   2.821   6.477
13182TIP3    H239424   3.690   2.843   6.334
13183TIP3   OH239425   3.653   2.523   7.187
13183TIP3    H139426   3.565   2.501   7.215
13183TIP3    H239427   3.688   2.442   7.149
13184TIP3   OH239428   2.794   2.738   7.009
13184TIP3    H139429   2.796   2.815   6.952
13184TIP3    H239430   2.701   2.725   7.029
13185TIP3   OH239431   2.388   2.008   6.724
13185TIP3    H139432   2.445   2.082   6.745
13185TIP3    H239433   2.307   2.025   6.772
13186TIP3   OH239434   2.835   2.480   6.902
13186TIP3    H139435   2.833   2.563   6.951
13186TIP3    H239436   2.788   2.418   6.958
13187TIP3   OH239437   3.094   3.085   7.458
13187TIP3    H139438   3.128   3.160   7.409
13187TIP3    H239439   3.169   3.051   7.507
13188TIP3   OH239440   2.728   2.973   6.859
13188TIP3    H139441   2.642   2.985   6.898
13188TIP3    H239442   2.769   3.059   6.862
13189TIP3   OH239443   3.435   2.748   7.429
13189TIP3    H139444   3.424   2.746   7.524
13189TIP3    H239445   3.510   2.692   7.412
13190TIP3   OH239446   3.436   2.623   6.300
13190TIP3    H139447   3.488   2.593   6.374
13190TIP3    H239448   3.352   2.578   6.310
13191TIP3   OH239449   3.700   3.231   7.476
13191TIP3    H139450   3.631   3.169   7.500
13191TIP3    H239451   3.663   3.281   7.403
13192TIP3   OH239452   3.744   3.088   6.107
13192TIP3    H139453   3.761   3.148   6.035
13192TIP3    H239454   3.674   3.131   6.157
13193TIP3   OH239455   2.799   1.852   7.959
13193TIP3    H139456   2.712   1.849   7.997
13193TIP3    H239457   2.853   1.798   8.016
13194TIP3   OH239458   3.615   2.528   6.484
13194TIP3    H139459   3.600   2.475   6.563
13194TIP3    H239460   3.710   2.540   6.482
13195TIP3   OH239461   2.507   2.971   7.630
13195TIP3    H139462   2.563   2.911   7.679
13195TIP3    H239463   2.526   3.057   7.668
13196TIP3   OH239464   2.786   2.589   6.323
13196TIP3    H139465   2.799   2.498   6.296
13196TIP3    H239466   2.774   2.585   6.418
13197TIP3   OH239467   2.726   2.601   6.597
13197TIP3    H139468   2.778   2.575   6.674
13197TIP3    H239469   2.727   2.697   6.600
13198TIP3   OH239470   2.540   2.235   6.784
13198TIP3    H139471   2.567   2.246   6.875
13198TIP3    H239472   2.510   2.321   6.756
13199TIP3   OH239473   3.625   1.935   7.659
13199TIP3    H139474   3.703   1.982   7.691
13199TIP3    H239475   3.620   1.858   7.715
13200TIP3   OH239476   3.513   1.667   6.863
13200TIP3    H139477   3.484   1.688   6.774
13200TIP3    H239478   3.557   1.747   6.893
13201TIP3   OH239479   2.996   2.787   6.519
13201TIP3    H139480   2.913   2.810   6.559
13201TIP3    H239481   3.022   2.864   6.469
13202TIP3   OH239482   3.167   1.873   6.964
13202TIP3    H139483   3.232   1.940   6.940
13202TIP3    H239484   3.190   1.848   7.053
13203TIP3   OH239485   3.464   2.164   7.719
13203TIP3    H139486   3.491   2.206   7.801
13203TIP3    H239487   3.514   2.082   7.716
13204TIP3   OH239488   3.329   1.562   7.040
13204TIP3    H139489   3.307   1.637   7.095
13204TIP3    H239490   3.400   1.593   6.984
13205TIP3   OH239491   2.749   2.875   6.603
13205TIP3    H139492   2.730   2.948   6.544
13205TIP3    H239493   2.740   2.912   6.691
13206TIP3   OH239494   4.081   2.056   7.713
13206TIP3    H139495   3.987   2.072   7.724
13206TIP3    H239496   4.087   1.996   7.639
13207TIP3   OH239497   3.746   2.265   7.098
13207TIP3    H139498   3.669   2.209   7.109
13207TIP3    H239499   3.812   2.226   7.155
13208TIP3   OH239500   2.483   2.465   6.596
13208TIP3    H139501   2.554   2.528   6.606
13208TIP3    H239502   2.513   2.405   6.528
13209TIP3   OH239503   2.426   1.737   6.679
13209TIP3    H139504   2.425   1.830   6.701
13209TIP3    H239505   2.339   1.719   6.645
13210TIP3   OH239506   3.723   3.234   7.034
13210TIP3    H139507   3.680   3.287   6.967
13210TIP3    H239508   3.816   3.253   7.025
13211TIP3   OH239509   2.791   1.504   7.548
13211TIP3    H139510   2.759   1.466   7.466
13211TIP3    H239511   2.779   1.435   7.613
13212TIP3   OH239512   2.329   2.751   6.965
13212TIP3    H139513   2.272   2.777   7.038
13212TIP3    H239514   2.286   2.787   6.887
13213TIP3   OH239515   5.780   7.898   0.022
13213TIP3    H139516   5.861   7.888   0.072
13213TIP3    H239517   5.747   7.808   0.012
13214TIP3   OH239518   6.260   7.810   0.073
13214TIP3    H139519   6.351   7.782   0.081
13214TIP3    H239520   6.225   7.758   0.001
13215TIP3   OH239521   2.937   2.790   6.204
13215TIP3    H139522   2.892   2.722   6.253
13215TIP3    H239523   3.013   2.746   6.165
13216TIP3   OH239524   3.598   3.134   7.843
13216TIP3    H139525   3.617   3.061   7.901
13216TIP3    H239526   3.673   3.193   7.853
13217TIP3   OH239527   3.382   2.830   6.127
13217TIP3    H139528   3.416   2.766   6.190
13217TIP3    H239529   3.441   2.824   6.053
13218TIP3   OH239530   5.899   7.305   0.164
13218TIP3    H139531   5.916   7.210   0.165
13218TIP3    H239532   5.810   7.313   0.131
13219TIP3   OH239533   2.602   2.289   6.419
13219TIP3    H139534   2.654   2.265   6.496
13219TIP3    H239535   2.666   2.306   6.351
13220TIP3   OH239536   3.249   2.759   7.998
13220TIP3    H139537   3.201   2.778   7.918
13220TIP3    H239538   3.281   2.669   7.986
13221TIP3   OH239539   3.181   2.501   6.269
13221TIP3    H139540   3.157   2.514   6.361
13221TIP3    H239541   3.160   2.410   6.251
13222TIP3   OH239542   3.717   2.810   7.624
13222TIP3    H139543   3.794   2.838   7.575
13222TIP3    H239544   3.653   2.879   7.608
13223TIP3   OH239545   5.992   7.046   0.174
13223TIP3    H139546   6.079   7.005   0.170
13223TIP3    H239547   5.968   7.042   0.267
13224TIP3   OH239548   2.774   2.224   6.625
13224TIP3    H139549   2.713   2.214   6.698
13224TIP3    H239550   2.813   2.137   6.615
13225TIP3   OH239551   3.109   2.299   7.882
13225TIP3    H139552   3.024   2.342   7.889
13225TIP3    H239553   3.144   2.328   7.798
13226TIP3   OH239554   2.909   1.994   6.511
13226TIP3    H139555   2.879   2.016   6.423
13226TIP3    H239556   3.003   2.012   6.509
13227TIP3   OH239557   3.596   2.674   7.962
13227TIP3    H139558   3.663   2.636   7.905
13227TIP3    H239559   3.591   2.614   8.036
13228TIP3   OH239560   3.709   2.324   6.171
13228TIP3    H139561   3.699   2.286   6.084
13228TIP3    H239562   3.687   2.416   6.159
13229TIP3   OH239563   3.200   2.053   7.964
13229TIP3    H139564   3.209   1.984   7.898
13229TIP3    H239565   3.168   2.129   7.915
13230TIP3   OH239566   3.214   1.862   7.762
13230TIP3    H139567   3.238   1.911   7.683
13230TIP3    H239568   3.121   1.843   7.751
13231TIP3   OH239569   3.219   2.406   7.660
13231TIP3    H139570   3.303   2.451   7.648
13231TIP3    H239571   3.156   2.461   7.613
13232TIP3   OH239572   7.082   6.971   0.036
13232TIP3    H139573   7.122   6.885   0.051
13232TIP3    H239574   7.156   7.028   0.014
13233TIP3   OH239575   3.833   2.628   7.787
13233TIP3    H139576   3.781   2.691   7.738
13233TIP3    H239577   3.923   2.640   7.754
13234TIP3   OH239578   6.420   6.824   0.192
13234TIP3    H139579   6.332   6.855   0.215
13234TIP3    H239580   6.411   6.792   0.102
13235TIP3   OH239581   3.319   1.618   7.837
13235TIP3    H139582   3.282   1.701   7.806
13235TIP3    H239583   3.247   1.555   7.831
13236TIP3   OH239584   6.711   6.748   0.069
13236TIP3    H139585   6.709   6.739   0.165
13236TIP3    H239586   6.625   6.717   0.041
13237TIP3   OH239587   3.687   2.066   7.952
13237TIP3    H139588   3.610   2.074   8.008
13237TIP3    H239589   3.758   2.045   8.013
13238TIP3   OH239590   7.204   6.661   0.077
13238TIP3    H139591   7.219   6.566   0.084
13238TIP3    H239592   7.197   6.690   0.168
13239TIP3   OH239593   6.194   6.601   0.218
13239TIP3    H139594   6.246   6.535   0.173
13239TIP3    H239595   6.246   6.624   0.295
13240TIP3   OH239596   6.730   6.285   0.052
13240TIP3    H139597   6.773   6.204   0.079
13240TIP3    H239598   6.674   6.259  -0.022
13241TIP3   OH239599   6.782   6.474   0.239
13241TIP3    H139600   6.765   6.414   0.166
13241TIP3    H239601   6.699   6.521   0.251
13242TIP3   OH239602   2.748   3.087   6.422
13242TIP3    H139603   2.837   3.066   6.394
13242TIP3    H239604   2.709   3.133   6.347
13243TIP3   OH239605   2.211   2.478   6.575
13243TIP3    H139606   2.306   2.484   6.587
13243TIP3    H239607   2.196   2.389   6.543
13244TIP3   OH239608   2.116   3.045   7.058
13244TIP3    H139609   2.050   2.991   7.016
13244TIP3    H239610   2.159   2.986   7.121
13245TIP3   OH239611   2.257   2.887   7.237
13245TIP3    H139612   2.258   2.815   7.301
13245TIP3    H239613   2.304   2.958   7.281
13246TIP3   OH239614   3.990   3.304   7.038
13246TIP3    H139615   4.007   3.322   7.130
13246TIP3    H239616   4.031   3.377   6.992
13247TIP3   OH239617   4.006   3.323   7.315
13247TIP3    H139618   3.963   3.237   7.315
13247TIP3    H239619   4.078   3.314   7.377
13248TIP3   OH239620   4.069   3.026   7.878
13248TIP3    H139621   3.995   3.036   7.937
13248TIP3    H239622   4.118   3.108   7.886
13249TIP3   OH239623   3.895   2.537   6.493
13249TIP3    H139624   3.950   2.610   6.464
13249TIP3    H239625   3.942   2.501   6.569
13250TIP3   OH239626   4.027   2.396   6.696
13250TIP3    H139627   3.959   2.361   6.753
13250TIP3    H239628   4.091   2.434   6.756
13251TIP3   OH239629   4.064   2.804   7.135
13251TIP3    H139630   4.117   2.738   7.091
13251TIP3    H239631   4.066   2.880   7.076
13252TIP3   OH239632   3.874   3.076   7.327
13252TIP3    H139633   3.807   3.121   7.378
13252TIP3    H239634   3.826   3.036   7.254
13253TIP3   OH239635   3.924   2.311   6.341
13253TIP3    H139636   3.850   2.310   6.281
13253TIP3    H239637   3.911   2.390   6.394
13254TIP3   OH239638   3.767   1.959   6.282
13254TIP3    H139639   3.721   1.993   6.205
13254TIP3    H239640   3.763   1.864   6.272
13255TIP3   OH239641   3.817   2.259   6.829
13255TIP3    H139642   3.822   2.164   6.817
13255TIP3    H239643   3.798   2.270   6.922
13256TIP3   OH239644   2.441   2.329   7.566
13256TIP3    H139645   2.440   2.298   7.475
13256TIP3    H239646   2.531   2.316   7.595
13257TIP3   OH239647   4.086   2.669   7.681
13257TIP3    H139648   4.155   2.605   7.665
13257TIP3    H239649   4.078   2.717   7.599
13258TIP3   OH239650   4.269   2.461   7.681
13258TIP3    H139651   4.196   2.420   7.727
13258TIP3    H239652   4.345   2.407   7.703
13259TIP3   OH239653   3.735   1.687   6.252
13259TIP3    H139654   3.803   1.662   6.315
13259TIP3    H239655   3.654   1.650   6.287
13260TIP3   OH239656   3.803   1.978   6.716
13260TIP3    H139657   3.851   1.896   6.729
13260TIP3    H239658   3.844   2.018   6.639
13261TIP3   OH239659   3.959   2.142   7.242
13261TIP3    H139660   4.040   2.160   7.194
13261TIP3    H239661   3.973   2.183   7.328
13262TIP3   OH239662   4.034   2.293   7.469
13262TIP3    H139663   3.962   2.322   7.524
13262TIP3    H239664   4.066   2.373   7.427
13263TIP3   OH239665   5.966   6.727   0.134
13263TIP3    H139666   6.055   6.707   0.164
13263TIP3    H239667   5.921   6.642   0.132
13264TIP3   OH239668   4.501   1.904   7.991
13264TIP3    H139669   4.565   1.841   7.959
13264TIP3    H239670   4.468   1.947   7.912
13265TIP3   OH239671   3.923   1.730   6.769
13265TIP3    H139672   3.969   1.717   6.851
13265TIP3    H239673   3.860   1.659   6.765
13266TIP3   OH239674   2.640   1.727   7.601
13266TIP3    H139675   2.695   1.651   7.586
13266TIP3    H239676   2.693   1.802   7.574
13267TIP3   OH239677   2.393   1.974   7.624
13267TIP3    H139678   2.457   1.993   7.554
13267TIP3    H239679   2.439   1.997   7.705
13268TIP3   OH239680   4.348   2.010   7.794
13268TIP3    H139681   4.267   2.050   7.826
13268TIP3    H239682   4.319   1.937   7.739
13269TIP3   OH239683   3.961   1.641   6.407
13269TIP3    H139684   4.011   1.581   6.352
13269TIP3    H239685   4.016   1.720   6.412
13270TIP3   OH239686   2.372   1.465   7.149
13270TIP3    H139687   2.295   1.474   7.205
13270TIP3    H239688   2.364   1.535   7.085
13271TIP3   OH239689   3.549   3.207   6.673
13271TIP3    H139690   3.608   3.198   6.599
13271TIP3    H239691   3.588   3.275   6.728
13272TIP3   OH239692   2.679   1.561   7.852
13272TIP3    H139693   2.610   1.537   7.913
13272TIP3    H239694   2.641   1.630   7.798
13273TIP3   OH239695   5.922   7.620   0.020
13273TIP3    H139696   5.828   7.614   0.003
13273TIP3    H239697   5.929   7.608   0.115
13274TIP3   OH239698   2.865   3.050   7.603
13274TIP3    H139699   2.815   3.125   7.572
13274TIP3    H239700   2.949   3.058   7.559
13275TIP3   OH239701   3.254   3.277   7.744
13275TIP3    H139702   3.293   3.272   7.831
13275TIP3    H239703   3.316   3.330   7.694
13276TIP3   OH239704   3.445   3.431   7.617
13276TIP3    H139705   3.502   3.376   7.563
13276TIP3    H239706   3.505   3.485   7.669
13277TIP3   OH239707   4.261   1.761   7.690
13277TIP3    H139708   4.175   1.761   7.647
13277TIP3    H239709   4.289   1.670   7.686
13278TIP3   OH239710   2.525   3.282   7.656
13278TIP3    H139711   2.436   3.307   7.632
13278TIP3    H239712   2.552   3.347   7.720
13279TIP3   OH239713   2.754   3.281   7.504
13279TIP3    H139714   2.671   3.283   7.551
13279TIP3    H239715   2.731   3.302   7.413
13280TIP3   OH239716   3.162   3.300   7.298
13280TIP3    H139717   3.091   3.310   7.235
13280TIP3    H239718   3.172   3.388   7.336
13281TIP3   OH239719   3.417   3.221   7.361
13281TIP3    H139720   3.329   3.247   7.334
13281TIP3    H239721   3.475   3.279   7.311
13282TIP3   OH239722   3.619   3.369   7.250
13282TIP3    H139723   3.628   3.461   7.223
13282TIP3    H239724   3.652   3.320   7.175
13283TIP3   OH239725   2.429   3.070   7.380
13283TIP3    H139726   2.456   3.043   7.468
13283TIP3    H239727   2.500   3.041   7.323
13284TIP3   OH239728   2.636   2.965   7.238
13284TIP3    H139729   2.647   2.880   7.281
13284TIP3    H239730   2.724   3.003   7.238
13285TIP3   OH239731   2.907   3.040   7.255
13285TIP3    H139732   2.924   2.947   7.237
13285TIP3    H239733   2.964   3.061   7.329
13286TIP3   OH239734   3.465   1.676   7.343
13286TIP3    H139735   3.420   1.606   7.392
13286TIP3    H239736   3.533   1.631   7.293
13287TIP3   OH239737   3.967   1.603   7.226
13287TIP3    H139738   4.004   1.653   7.153
13287TIP3    H239739   3.876   1.631   7.231
13288TIP3   OH239740   4.082   1.680   6.989
13288TIP3    H139741   4.151   1.617   6.965
13288TIP3    H239742   4.123   1.766   6.976
13289TIP3   OH239743   2.702   1.378   7.321
13289TIP3    H139744   2.613   1.348   7.338
13289TIP3    H239745   2.754   1.297   7.318
13290TIP3   OH239746   2.482   1.264   7.002
13290TIP3    H139747   2.514   1.321   6.932
13290TIP3    H239748   2.447   1.325   7.067
13291TIP3   OH239749   3.172   1.428   7.232
13291TIP3    H139750   3.223   1.470   7.163
13291TIP3    H239751   3.215   1.455   7.313
13292TIP3   OH239752   3.676   1.549   7.216
13292TIP3    H139753   3.703   1.513   7.132
13292TIP3    H239754   3.687   1.477   7.278
13293TIP3   OH239755   3.735   1.521   6.779
13293TIP3    H139756   3.656   1.569   6.806
13293TIP3    H239757   3.725   1.434   6.818
13294TIP3   OH239758   2.204   2.856   6.742
13294TIP3    H139759   2.119   2.822   6.716
13294TIP3    H239760   2.204   2.947   6.712
13295TIP3   OH239761   2.701   1.509   6.701
13295TIP3    H139762   2.716   1.422   6.666
13295TIP3    H239763   2.769   1.520   6.767
13296TIP3   OH239764   3.137   1.631   6.841
13296TIP3    H139765   3.188   1.576   6.901
13296TIP3    H239766   3.139   1.718   6.881
13297TIP3   OH239767   3.002   3.013   6.349
13297TIP3    H139768   3.085   3.040   6.311
13297TIP3    H239769   2.972   2.942   6.292
13298TIP3   OH239770   3.705   3.159   6.449
13298TIP3    H139771   3.698   3.064   6.442
13298TIP3    H239772   3.661   3.192   6.371
13299TIP3   OH239773   6.209   6.314   0.131
13299TIP3    H139774   6.175   6.285   0.215
13299TIP3    H239775   6.303   6.295   0.135
13300TIP3   OH239776   6.479   6.286   0.183
13300TIP3    H139777   6.542   6.332   0.127
13300TIP3    H239778   6.528   6.213   0.219
13301TIP3   OH239779   2.311   2.853   6.411
13301TIP3    H139780   2.312   2.858   6.507
13301TIP3    H239781   2.392   2.807   6.389
13302TIP3   OH239782   7.274   6.393   0.085
13302TIP3    H139783   7.293   6.372   0.177
13302TIP3    H239784   7.359   6.390   0.041
13303TIP3   OH239785   3.919   3.303   7.632
13303TIP3    H139786   3.846   3.268   7.582
13303TIP3    H239787   3.905   3.398   7.632
13304TIP3   OH239788   5.198   2.685   6.374
13304TIP3    H139789   5.167   2.771   6.348
13304TIP3    H239790   5.128   2.625   6.349
13305TIP3   OH239791   5.199   2.678   6.810
13305TIP3    H139792   5.246   2.657   6.891
13305TIP3    H239793   5.152   2.597   6.787
13306TIP3   OH239794   4.491   2.529   7.149
13306TIP3    H139795   4.531   2.480   7.220
13306TIP3    H239796   4.565   2.557   7.095
13307TIP3   OH239797   5.459   2.985   6.479
13307TIP3    H139798   5.449   2.918   6.547
13307TIP3    H239799   5.480   3.065   6.528
13308TIP3   OH239800   4.493   2.956   6.818
13308TIP3    H139801   4.472   2.863   6.829
13308TIP3    H239802   4.588   2.959   6.815
13309TIP3   OH239803   4.167   2.166   6.611
13309TIP3    H139804   4.131   2.251   6.637
13309TIP3    H239805   4.093   2.119   6.572
13310TIP3   OH239806   4.252   2.485   6.841
13310TIP3    H139807   4.301   2.407   6.867
13310TIP3    H239808   4.318   2.550   6.820
13311TIP3   OH239809   5.132   3.406   6.494
13311TIP3    H139810   5.154   3.347   6.422
13311TIP3    H239811   5.136   3.350   6.572
13312TIP3   OH239812   5.008   2.898   6.804
13312TIP3    H139813   5.055   2.817   6.781
13312TIP3    H239814   5.077   2.957   6.836
13313TIP3   OH239815   6.036   2.219   6.828
13313TIP3    H139816   6.051   2.301   6.873
13313TIP3    H239817   6.046   2.240   6.735
13314TIP3   OH239818   5.397   2.387   6.847
13314TIP3    H139819   5.433   2.303   6.875
13314TIP3    H239820   5.367   2.372   6.757
13315TIP3   OH239821   4.764   2.040   6.795
13315TIP3    H139822   4.742   2.114   6.739
13315TIP3    H239823   4.707   1.969   6.765
13316TIP3   OH239824   5.464   2.145   6.439
13316TIP3    H139825   5.527   2.139   6.511
13316TIP3    H239826   5.515   2.181   6.365
13317TIP3   OH239827   4.387   2.259   6.929
13317TIP3    H139828   4.471   2.241   6.972
13317TIP3    H239829   4.391   2.208   6.848
13318TIP3   OH239830   4.805   2.460   6.746
13318TIP3    H139831   4.899   2.445   6.753
13318TIP3    H239832   4.770   2.377   6.713
13319TIP3   OH239833   6.091   2.444   6.984
13319TIP3    H139834   6.000   2.475   6.982
13319TIP3    H239835   6.124   2.477   7.068
13320TIP3   OH239836   4.745   2.047   7.249
13320TIP3    H139837   4.694   2.084   7.177
13320TIP3    H239838   4.691   2.063   7.327
13321TIP3   OH239839   5.094   2.902   6.237
13321TIP3    H139840   5.054   2.871   6.156
13321TIP3    H239841   5.041   2.978   6.261
13322TIP3   OH239842   4.842   2.821   7.013
13322TIP3    H139843   4.788   2.892   7.046
13322TIP3    H239844   4.891   2.860   6.940
13323TIP3   OH239845   5.618   2.166   6.664
13323TIP3    H139846   5.572   2.147   6.745
13323TIP3    H239847   5.671   2.243   6.685
13324TIP3   OH239848   4.635   2.152   7.017
13324TIP3    H139849   4.689   2.228   7.040
13324TIP3    H239850   4.683   2.109   6.946
13325TIP3   OH239851   4.683   3.024   7.115
13325TIP3    H139852   4.669   3.114   7.085
13325TIP3    H239853   4.607   3.004   7.169
13326TIP3   OH239854   4.061   2.733   6.376
13326TIP3    H139855   4.026   2.755   6.290
13326TIP3    H239856   4.084   2.817   6.415
13327TIP3   OH239857   5.492   3.235   6.615
13327TIP3    H139858   5.405   3.235   6.654
13327TIP3    H239859   5.496   3.318   6.566
13328TIP3   OH239860   5.835   2.096   6.986
13328TIP3    H139861   5.751   2.122   6.949
13328TIP3    H239862   5.899   2.127   6.922
13329TIP3   OH239863   5.086   1.736   6.988
13329TIP3    H139864   5.079   1.644   7.013
13329TIP3    H239865   5.009   1.778   7.026
13330TIP3   OH239866   5.209   3.268   6.265
13330TIP3    H139867   5.261   3.188   6.257
13330TIP3    H239868   5.267   3.338   6.236
13331TIP3   OH239869   5.342   3.034   6.234
13331TIP3    H139870   5.270   2.971   6.232
13331TIP3    H239871   5.393   3.009   6.312
13332TIP3   OH239872   5.733   3.124   6.949
13332TIP3    H139873   5.715   3.048   6.894
13332TIP3    H239874   5.721   3.199   6.891
13333TIP3   OH239875   5.025   2.520   6.230
13333TIP3    H139876   4.941   2.562   6.211
13333TIP3    H239877   5.071   2.519   6.146
13334TIP3   OH239878   4.989   2.338   5.913
13334TIP3    H139879   5.055   2.384   5.964
13334TIP3    H239880   5.037   2.271   5.866
13335TIP3   OH239881   5.909   2.779   6.824
13335TIP3    H139882   5.825   2.826   6.824
13335TIP3    H239883   5.943   2.791   6.735
13336TIP3   OH239884   5.384   2.610   6.188
13336TIP3    H139885   5.330   2.640   6.261
13336TIP3    H239886   5.468   2.588   6.228
13337TIP3   OH239887   5.601   2.647   7.130
13337TIP3    H139888   5.602   2.727   7.182
13337TIP3    H239889   5.513   2.643   7.094
13338TIP3   OH239890   4.610   2.591   6.589
13338TIP3    H139891   4.574   2.529   6.526
13338TIP3    H239892   4.683   2.544   6.630
13339TIP3   OH239893   4.758   3.013   6.731
13339TIP3    H139894   4.734   2.999   6.640
13339TIP3    H239895   4.845   2.974   6.740
13340TIP3   OH239896   4.703   2.588   6.969
13340TIP3    H139897   4.742   2.551   6.890
13340TIP3    H239898   4.753   2.668   6.986
13341TIP3   OH239899   5.257   3.239   6.756
13341TIP3    H139900   5.248   3.312   6.817
13341TIP3    H239901   5.247   3.161   6.810
13342TIP3   OH239902   4.880   3.126   7.283
13342TIP3    H139903   4.817   3.182   7.330
13342TIP3    H239904   4.825   3.072   7.225
13343TIP3   OH239905   5.213   2.472   6.020
13343TIP3    H139906   5.273   2.529   6.068
13343TIP3    H239907   5.244   2.474   5.930
13344TIP3   OH239908   4.634   2.680   7.431
13344TIP3    H139909   4.633   2.774   7.452
13344TIP3    H239910   4.542   2.656   7.424
13345TIP3   OH239911   4.962   3.144   6.274
13345TIP3    H139912   5.044   3.194   6.278
13345TIP3    H239913   4.902   3.201   6.226
13346TIP3   OH239914   4.670   3.280   7.377
13346TIP3    H139915   4.641   3.289   7.286
13346TIP3    H239916   4.590   3.262   7.426
13347TIP3   OH239917   5.723   1.700   6.084
13347TIP3    H139918   5.647   1.721   6.138
13347TIP3    H239919   5.732   1.776   6.026
13348TIP3   OH239920   4.483   2.430   6.391
13348TIP3    H139921   4.405   2.478   6.364
13348TIP3    H239922   4.452   2.342   6.410
13349TIP3   OH239923   5.552   3.084   5.632
13349TIP3    H139924   5.549   3.179   5.617
13349TIP3    H239925   5.640   3.058   5.602
13350TIP3   OH239926   4.268   2.845   7.327
13350TIP3    H139927   4.198   2.826   7.265
13350TIP3    H239928   4.301   2.760   7.354
13351TIP3   OH239929   4.104   3.049   6.992
13351TIP3    H139930   4.191   3.078   7.017
13351TIP3    H239931   4.048   3.125   7.009
13352TIP3   OH239932   5.968   3.457   7.040
13352TIP3    H139933   5.973   3.362   7.049
13352TIP3    H239934   5.888   3.482   7.087
13353TIP3   OH239935   5.063   3.277   7.145
13353TIP3    H139936   5.050   3.364   7.185
13353TIP3    H239937   5.003   3.220   7.192
13354TIP3   OH239938   4.852   3.362   6.106
13354TIP3    H139939   4.806   3.341   6.025
13354TIP3    H239940   4.812   3.445   6.135
13355TIP3   OH239941   4.284   3.221   6.483
13355TIP3    H139942   4.329   3.213   6.567
13355TIP3    H239943   4.235   3.139   6.474
13356TIP3   OH239944   5.052   3.300   5.730
13356TIP3    H139945   5.102   3.226   5.695
13356TIP3    H239946   5.087   3.314   5.818
13357TIP3   OH239947   5.105   3.342   6.000
13357TIP3    H139948   5.019   3.345   6.042
13357TIP3    H239949   5.162   3.303   6.066
13358TIP3   OH239950   5.877   2.582   7.294
13358TIP3    H139951   5.783   2.601   7.293
13358TIP3    H239952   5.882   2.487   7.284
13359TIP3   OH239953   4.471   3.029   7.292
13359TIP3    H139954   4.520   3.017   7.373
13359TIP3    H239955   4.397   2.968   7.298
13360TIP3   OH239956   4.848   1.828   7.110
13360TIP3    H139957   4.764   1.796   7.078
13360TIP3    H239958   4.827   1.910   7.155
13361TIP3   OH239959   5.386   1.950   7.309
13361TIP3    H139960   5.455   1.931   7.372
13361TIP3    H239961   5.305   1.939   7.357
13362TIP3   OH239962   5.643   2.389   7.219
13362TIP3    H139963   5.599   2.374   7.303
13362TIP3    H239964   5.611   2.474   7.190
13363TIP3   OH239965   5.294   2.447   5.758
13363TIP3    H139966   5.245   2.452   5.676
13363TIP3    H239967   5.375   2.495   5.740
13364TIP3   OH239968   5.001   1.868   6.079
13364TIP3    H139969   4.964   1.877   6.167
13364TIP3    H239970   4.964   1.787   6.044
13365TIP3   OH239971   4.785   2.363   7.111
13365TIP3    H139972   4.744   2.369   7.197
13365TIP3    H239973   4.764   2.446   7.068
13366TIP3   OH239974   4.666   2.243   6.638
13366TIP3    H139975   4.577   2.220   6.664
13366TIP3    H239976   4.675   2.211   6.549
13367TIP3   OH239977   5.146   2.316   6.368
13367TIP3    H139978   5.099   2.389   6.328
13367TIP3    H239979   5.204   2.284   6.299
13368TIP3   OH239980   5.318   2.333   6.589
13368TIP3    H139981   5.248   2.352   6.526
13368TIP3    H239982   5.365   2.259   6.551
13369TIP3   OH239983   4.629   2.372   7.338
13369TIP3    H139984   4.678   2.425   7.401
13369TIP3    H239985   4.611   2.290   7.384
13370TIP3   OH239986   4.667   1.851   6.056
13370TIP3    H139987   4.658   1.857   6.151
13370TIP3    H239988   4.589   1.895   6.022
13371TIP3   OH239989   4.220   1.899   6.917
13371TIP3    H139990   4.289   1.936   6.973
13371TIP3    H239991   4.262   1.888   6.831
13372TIP3   OH239992   4.111   1.875   6.419
13372TIP3    H139993   4.158   1.912   6.344
13372TIP3    H239994   4.048   1.942   6.444
13373TIP3   OH239995   5.339   2.578   7.034
13373TIP3    H139996   5.366   2.513   6.969
13373TIP3    H239997   5.306   2.526   7.107
13374TIP3   OH239998   5.033   2.029   6.689
13374TIP3    H139999   4.954   2.029   6.744
13374TIP3    H240000   5.105   2.023   6.752
13375TIP3   OH240001   4.426   2.119   6.696
13375TIP3    H140002   4.339   2.123   6.658
13375TIP3    H240003   4.455   2.029   6.681
13376TIP3   OH240004   4.679   2.121   6.392
13376TIP3    H140005   4.774   2.131   6.383
13376TIP3    H240006   4.645   2.138   6.304
13377TIP3   OH240007   5.474   2.126   6.900
13377TIP3    H140008   5.465   2.141   6.994
13377TIP3    H240009   5.403   2.066   6.879
13378TIP3   OH240010   4.572   2.142   6.141
13378TIP3    H140011   4.509   2.093   6.088
13378TIP3    H240012   4.625   2.189   6.077
13379TIP3   OH240013   5.652   3.893   7.214
13379TIP3    H140014   5.610   3.888   7.129
13379TIP3    H240015   5.745   3.900   7.195
13380TIP3   OH240016   4.618   2.943   7.526
13380TIP3    H140017   4.699   2.959   7.574
13380TIP3    H240018   4.549   2.952   7.592
13381TIP3   OH240019   5.077   2.410   6.795
13381TIP3    H140020   5.146   2.362   6.750
13381TIP3    H240021   5.074   2.371   6.882
13382TIP3   OH240022   4.565   1.869   6.682
13382TIP3    H140023   4.539   1.794   6.735
13382TIP3    H240024   4.585   1.833   6.596
13383TIP3   OH240025   5.051   2.306   7.054
13383TIP3    H140026   4.964   2.337   7.081
13383TIP3    H240027   5.111   2.350   7.113
13384TIP3   OH240028   4.785   2.651   6.174
13384TIP3    H140029   4.709   2.599   6.147
13384TIP3    H240030   4.756   2.696   6.253
13385TIP3   OH240031   5.678   2.921   6.772
13385TIP3    H140032   5.712   2.969   6.697
13385TIP3    H240033   5.599   2.878   6.739
13386TIP3   OH240034   5.254   1.973   6.090
13386TIP3    H140035   5.161   1.951   6.082
13386TIP3    H240036   5.255   2.069   6.098
13387TIP3   OH240037   5.223   3.000   7.194
13387TIP3    H140038   5.282   2.972   7.264
13387TIP3    H240039   5.167   3.066   7.235
13388TIP3   OH240040   5.309   2.241   6.151
13388TIP3    H140041   5.404   2.246   6.162
13388TIP3    H240042   5.287   2.318   6.099
13389TIP3   OH240043   4.474   2.666   6.819
13389TIP3    H140044   4.513   2.650   6.733
13389TIP3    H240045   4.541   2.638   6.881
13390TIP3   OH240046   4.937   2.815   6.018
13390TIP3    H140047   4.889   2.898   6.015
13390TIP3    H240048   4.882   2.757   6.071
13391TIP3   OH240049   4.357   2.613   7.456
13391TIP3    H140050   4.365   2.585   7.547
13391TIP3    H240051   4.285   2.561   7.421
13392TIP3   OH240052   5.074   2.761   7.472
13392TIP3    H140053   5.031   2.687   7.428
13392TIP3    H240054   5.165   2.733   7.481
13393TIP3   OH240055   5.333   3.302   7.070
13393TIP3    H140056   5.241   3.278   7.078
13393TIP3    H240057   5.360   3.323   7.159
13394TIP3   OH240058   5.722   2.326   5.962
13394TIP3    H140059   5.666   2.280   5.900
13394TIP3    H240060   5.727   2.415   5.928
13395TIP3   OH240061   5.978   3.180   7.050
13395TIP3    H140062   5.884   3.170   7.035
13395TIP3    H240063   6.018   3.157   6.966
13396TIP3   OH240064   5.459   3.150   5.897
13396TIP3    H140065   5.436   3.078   5.957
13396TIP3    H240066   5.483   3.105   5.816
13397TIP3   OH240067   5.448   2.780   6.677
13397TIP3    H140068   5.360   2.755   6.706
13397TIP3    H240069   5.483   2.699   6.638
13398TIP3   OH240070   4.605   3.018   6.494
13398TIP3    H140071   4.597   3.092   6.434
13398TIP3    H240072   4.522   3.017   6.541
13399TIP3   OH240073   4.163   2.301   6.204
13399TIP3    H140074   4.205   2.384   6.227
13399TIP3    H240075   4.081   2.301   6.254
13400TIP3   OH240076   4.676   2.774   6.388
13400TIP3    H140077   4.662   2.863   6.421
13400TIP3    H240078   4.654   2.718   6.462
13401TIP3   OH240079   4.885   3.345   6.941
13401TIP3    H140080   4.921   3.419   6.893
13401TIP3    H240081   4.958   3.313   6.994
13402TIP3   OH240082   4.520   3.237   6.341
13402TIP3    H140083   4.433   3.244   6.379
13402TIP3    H240084   4.556   3.326   6.347
13403TIP3   OH240085   5.240   3.009   6.918
13403TIP3    H140086   5.232   3.007   7.014
13403TIP3    H240087   5.306   2.942   6.898
13404TIP3   OH240088   5.235   2.881   5.782
13404TIP3    H140089   5.285   2.853   5.859
13404TIP3    H240090   5.152   2.835   5.789
13405TIP3   OH240091   5.500   3.497   6.959
13405TIP3    H140092   5.433   3.431   6.981
13405TIP3    H240093   5.461   3.547   6.888
13406TIP3   OH240094   5.563   3.361   5.603
13406TIP3    H140095   5.609   3.438   5.570
13406TIP3    H240096   5.481   3.395   5.640
13407TIP3   OH240097   4.574   2.120   7.457
13407TIP3    H140098   4.479   2.131   7.464
13407TIP3    H240099   4.600   2.075   7.537
13408TIP3   OH240100   5.405   2.791   5.977
13408TIP3    H140101   5.389   2.739   6.055
13408TIP3    H240102   5.501   2.799   5.972
13409TIP3   OH240103   4.314   3.237   7.103
13409TIP3    H140104   4.370   3.182   7.158
13409TIP3    H240105   4.326   3.325   7.138
13410TIP3   OH240106   4.583   2.843   5.806
13410TIP3    H140107   4.594   2.752   5.779
13410TIP3    H240108   4.571   2.839   5.901
13411TIP3   OH240109   4.524   2.861   6.079
13411TIP3    H140110   4.580   2.837   6.152
13411TIP3    H240111   4.522   2.957   6.081
13412TIP3   OH240112   4.256   2.552   6.287
13412TIP3    H140113   4.192   2.602   6.338
13412TIP3    H240114   4.276   2.609   6.212
13413TIP3   OH240115   5.439   2.180   7.167
13413TIP3    H140116   5.508   2.225   7.215
13413TIP3    H240117   5.419   2.102   7.220
13414TIP3   OH240118   5.315   1.926   6.356
13414TIP3    H140119   5.293   1.944   6.264
13414TIP3    H240120   5.358   2.006   6.386
13415TIP3   OH240121   4.793   3.044   6.010
13415TIP3    H140122   4.709   3.069   6.048
13415TIP3    H240123   4.817   3.119   5.956
13416TIP3   OH240124   4.959   2.126   6.439
13416TIP3    H140125   5.021   2.194   6.413
13416TIP3    H240126   4.983   2.105   6.529
13417TIP3   OH240127   5.256   2.388   7.221
13417TIP3    H140128   5.253   2.393   7.316
13417TIP3    H240129   5.314   2.314   7.202
13418TIP3   OH240130   5.125   1.821   6.526
13418TIP3    H140131   5.101   1.898   6.578
13418TIP3    H240132   5.196   1.851   6.469
13419TIP3   OH240133   4.544   3.134   6.088
13419TIP3    H140134   4.526   3.207   6.029
13419TIP3    H240135   4.534   3.172   6.176
13420TIP3   OH240136   4.637   1.847   6.335
13420TIP3    H140137   4.625   1.938   6.362
13420TIP3    H240138   4.731   1.832   6.342
13421TIP3   OH240139   5.892   2.291   7.186
13421TIP3    H140140   5.802   2.322   7.198
13421TIP3    H240141   5.886   2.223   7.120
13422TIP3   OH240142   5.539   2.521   6.587
13422TIP3    H140143   5.462   2.465   6.597
13422TIP3    H240144   5.605   2.482   6.645
13423TIP3   OH240145   4.281   2.725   6.068
13423TIP3    H140146   4.353   2.788   6.077
13423TIP3    H240147   4.313   2.663   6.002
13424TIP3   OH240148   4.188   2.024   6.203
13424TIP3    H140149   4.199   2.118   6.212
13424TIP3    H240150   4.140   2.012   6.121
13425TIP3   OH240151   5.532   3.501   6.528
13425TIP3    H140152   5.488   3.552   6.460
13425TIP3    H240153   5.625   3.515   6.512
13426TIP3   OH240154   4.587   1.743   7.068
13426TIP3    H140155   4.557   1.711   6.983
13426TIP3    H240156   4.579   1.668   7.127
13427TIP3   OH240157   4.107   3.000   6.462
13427TIP3    H140158   4.067   3.038   6.541
13427TIP3    H240159   4.061   3.044   6.390
13428TIP3   OH240160   4.308   3.526   7.549
13428TIP3    H140161   4.392   3.522   7.594
13428TIP3    H240162   4.282   3.435   7.540
13429TIP3   OH240163   4.784   3.441   7.569
13429TIP3    H140164   4.873   3.407   7.578
13429TIP3    H240165   4.745   3.389   7.498
13430TIP3   OH240166   4.734   3.045   5.691
13430TIP3    H140167   4.688   2.975   5.738
13430TIP3    H240168   4.809   3.001   5.651
13431TIP3   OH240169   5.402   3.371   7.326
13431TIP3    H140170   5.416   3.298   7.387
13431TIP3    H240171   5.477   3.428   7.340
13432TIP3   OH240172   5.179   3.088   5.612
13432TIP3    H140173   5.213   3.024   5.675
13432TIP3    H240174   5.238   3.083   5.537
13433TIP3   OH240175   4.415   2.939   7.718
13433TIP3    H140176   4.431   2.845   7.726
13433TIP3    H240177   4.330   2.945   7.675
13434TIP3   OH240178   4.401   2.537   5.910
13434TIP3    H140179   4.452   2.512   5.988
13434TIP3    H240180   4.468   2.551   5.842
13435TIP3   OH240181   5.030   3.032   7.491
13435TIP3    H140182   4.981   3.051   7.411
13435TIP3    H240183   5.059   2.941   7.480
13436TIP3   OH240184   4.986   2.758   5.754
13436TIP3    H140185   4.960   2.768   5.846
13436TIP3    H240186   4.963   2.667   5.733
13437TIP3   OH240187   5.520   3.077   7.117
13437TIP3    H140188   5.592   3.103   7.060
13437TIP3    H240189   5.448   3.135   7.092
13438TIP3   OH240190   4.530   2.682   7.722
13438TIP3    H140191   4.603   2.664   7.662
13438TIP3    H240192   4.571   2.703   7.805
13439TIP3   OH240193   4.572   2.479   6.123
13439TIP3    H140194   4.552   2.450   6.212
13439TIP3    H240195   4.622   2.408   6.085
13440TIP3   OH240196   4.872   2.548   7.369
13440TIP3    H140197   4.797   2.606   7.385
13440TIP3    H240198   4.913   2.583   7.290
13441TIP3   OH240199   4.719   2.299   5.971
13441TIP3    H140200   4.688   2.303   5.880
13441TIP3    H240201   4.814   2.310   5.964
13442TIP3   OH240202   5.398   2.940   7.417
13442TIP3    H140203   5.480   2.919   7.373
13442TIP3    H240204   5.377   2.863   7.469
13443TIP3   OH240205   5.509   2.585   5.647
13443TIP3    H140206   5.495   2.546   5.560
13443TIP3    H240207   5.490   2.677   5.636
13444TIP3   OH240208   4.938   2.315   7.497
13444TIP3    H140209   4.978   2.252   7.436
13444TIP3    H240210   4.928   2.395   7.445
13445TIP3   OH240211   5.005   2.129   7.285
13445TIP3    H140212   5.031   2.169   7.202
13445TIP3    H240213   4.913   2.105   7.272
13446TIP3   OH240214   5.008   2.656   7.161
13446TIP3    H140215   5.100   2.681   7.146
13446TIP3    H240216   4.958   2.719   7.109
13447TIP3   OH240217   5.641   2.892   7.274
13447TIP3    H140218   5.594   2.957   7.222
13447TIP3    H240219   5.732   2.900   7.245
13448TIP3   OH240220   4.864   2.410   7.742
13448TIP3    H140221   4.796   2.350   7.771
13448TIP3    H240222   4.885   2.382   7.653
13449TIP3   OH240223   5.124   1.902   7.393
13449TIP3    H140224   5.085   1.983   7.359
13449TIP3    H240225   5.057   1.835   7.379
13450TIP3   OH240226   5.259   2.379   7.501
13450TIP3    H140227   5.289   2.468   7.522
13450TIP3    H240228   5.197   2.358   7.570
13451TIP3   OH240229   5.523   2.308   7.444
13451TIP3    H140230   5.435   2.331   7.476
13451TIP3    H240231   5.578   2.314   7.522
13452TIP3   OH240232   5.720   2.279   7.653
13452TIP3    H140233   5.735   2.186   7.638
13452TIP3    H240234   5.658   2.283   7.725
13453TIP3   OH240235   4.705   2.186   7.809
13453TIP3    H140236   4.715   2.101   7.768
13453TIP3    H240237   4.751   2.177   7.893
13454TIP3   OH240238   5.188   1.876   7.658
13454TIP3    H140239   5.257   1.810   7.651
13454TIP3    H240240   5.159   1.891   7.568
13455TIP3   OH240241   5.293   2.095   7.792
13455TIP3    H140242   5.255   2.024   7.740
13455TIP3    H240243   5.225   2.163   7.792
13456TIP3   OH240244   4.547   3.347   5.909
13456TIP3    H140245   4.635   3.324   5.880
13456TIP3    H240246   4.507   3.391   5.834
13457TIP3   OH240247   4.007   2.732   6.076
13457TIP3    H140248   4.103   2.740   6.077
13457TIP3    H240249   3.991   2.645   6.039
13458TIP3   OH240250   3.911   3.310   6.548
13458TIP3    H140251   3.846   3.256   6.502
13458TIP3    H240252   3.955   3.249   6.607
13459TIP3   OH240253   4.056   3.139   6.713
13459TIP3    H140254   4.048   3.073   6.782
13459TIP3    H240255   4.109   3.209   6.753
13460TIP3   OH240256   5.792   3.580   6.489
13460TIP3    H140257   5.812   3.663   6.531
13460TIP3    H240258   5.866   3.565   6.430
13461TIP3   OH240259   5.817   3.581   6.833
13461TIP3    H140260   5.779   3.505   6.790
13461TIP3    H240261   5.892   3.546   6.881
13462TIP3   OH240262   5.880   3.297   7.371
13462TIP3    H140263   5.808   3.296   7.435
13462TIP3    H240264   5.921   3.383   7.383
13463TIP3   OH240265   5.684   2.787   5.982
13463TIP3    H140266   5.739   2.858   5.950
13463TIP3    H240267   5.732   2.752   6.057
13464TIP3   OH240268   5.820   2.650   6.182
13464TIP3    H140269   5.752   2.615   6.240
13464TIP3    H240270   5.885   2.688   6.241
13465TIP3   OH240271   5.871   3.059   6.614
13465TIP3    H140272   5.918   2.985   6.578
13465TIP3    H240273   5.887   3.130   6.552
13466TIP3   OH240274   5.673   3.343   6.798
13466TIP3    H140275   5.608   3.391   6.848
13466TIP3    H240276   5.624   3.304   6.725
13467TIP3   OH240277   5.719   2.565   5.826
13467TIP3    H140278   5.647   2.565   5.762
13467TIP3    H240279   5.703   2.642   5.880
13468TIP3   OH240280   5.575   2.211   5.762
13468TIP3    H140281   5.528   2.250   5.688
13468TIP3    H240282   5.565   2.116   5.749
13469TIP3   OH240283   5.614   2.516   6.319
13469TIP3    H140284   5.617   2.421   6.305
13469TIP3    H240285   5.593   2.525   6.412
13470TIP3   OH240286   4.229   2.580   7.098
13470TIP3    H140287   4.220   2.548   7.008
13470TIP3    H240288   4.323   2.572   7.116
13471TIP3   OH240289   5.901   2.929   7.181
13471TIP3    H140290   5.965   2.859   7.167
13471TIP3    H240291   5.924   2.996   7.118
13472TIP3   OH240292   6.078   2.717   7.170
13472TIP3    H140293   6.003   2.674   7.212
13472TIP3    H240294   6.152   2.661   7.192
13473TIP3   OH240295   5.538   1.938   5.734
13473TIP3    H140296   5.600   1.916   5.804
13473TIP3    H240297   5.454   1.906   5.766
13474TIP3   OH240298   5.603   2.238   6.207
13474TIP3    H140299   5.649   2.154   6.219
13474TIP3    H240300   5.642   2.276   6.128
13475TIP3   OH240301   5.752   2.401   6.733
13475TIP3    H140302   5.834   2.416   6.686
13475TIP3    H240303   5.765   2.442   6.819
13476TIP3   OH240304   5.826   2.551   6.960
13476TIP3    H140305   5.756   2.577   7.019
13476TIP3    H240306   5.854   2.633   6.919
13477TIP3   OH240307   4.450   2.258   7.731
13477TIP3    H140308   4.542   2.254   7.756
13477TIP3    H240309   4.413   2.175   7.764
13478TIP3   OH240310   6.290   2.146   7.496
13478TIP3    H140311   6.354   2.093   7.449
13478TIP3    H240312   6.249   2.199   7.428
13479TIP3   OH240313   5.721   1.988   6.256
13479TIP3    H140314   5.765   1.974   6.340
13479TIP3    H240315   5.657   1.917   6.250
13480TIP3   OH240316   4.427   1.970   7.088
13480TIP3    H140317   4.480   1.891   7.093
13480TIP3    H240318   4.490   2.040   7.068
13481TIP3   OH240319   4.203   2.230   7.144
13481TIP3    H140320   4.255   2.224   7.063
13481TIP3    H240321   4.236   2.309   7.187
13482TIP3   OH240322   6.120   2.300   7.340
13482TIP3    H140323   6.069   2.329   7.416
13482TIP3    H240324   6.055   2.279   7.273
13483TIP3   OH240325   5.762   1.896   5.895
13483TIP3    H140326   5.810   1.837   5.837
13483TIP3    H240327   5.816   1.975   5.898
13484TIP3   OH240328   4.191   1.737   6.641
13484TIP3    H140329   4.107   1.728   6.687
13484TIP3    H240330   4.171   1.794   6.567
13485TIP3   OH240331   5.353   3.469   6.162
13485TIP3    H140332   5.408   3.456   6.085
13485TIP3    H240333   5.399   3.537   6.212
13486TIP3   OH240334   4.422   1.786   7.460
13486TIP3    H140335   4.374   1.785   7.543
13486TIP3    H240336   4.369   1.841   7.402
13487TIP3   OH240337   4.453   3.245   7.550
13487TIP3    H140338   4.359   3.235   7.535
13487TIP3    H240339   4.464   3.234   7.645
13488TIP3   OH240340   4.658   3.301   7.092
13488TIP3    H140341   4.606   3.376   7.063
13488TIP3    H240342   4.742   3.311   7.048
13489TIP3   OH240343   5.049   3.537   7.243
13489TIP3    H140344   5.092   3.525   7.328
13489TIP3    H240345   5.117   3.576   7.188
13490TIP3   OH240346   5.241   3.639   7.076
13490TIP3    H140347   5.233   3.591   6.994
13490TIP3    H240348   5.333   3.628   7.101
13491TIP3   OH240349   6.051   2.002   7.191
13491TIP3    H140350   5.964   1.997   7.152
13491TIP3    H240351   6.085   1.913   7.185
13492TIP3   OH240352   4.330   3.526   7.156
13492TIP3    H140353   4.242   3.550   7.127
13492TIP3    H240354   4.353   3.592   7.221
13493TIP3   OH240355   4.552   3.537   6.993
13493TIP3    H140356   4.471   3.538   7.043
13493TIP3    H240357   4.526   3.561   6.904
13494TIP3   OH240358   4.957   3.563   6.782
13494TIP3    H140359   4.884   3.560   6.720
13494TIP3    H240360   4.955   3.652   6.817
13495TIP3   OH240361   5.223   3.514   6.835
13495TIP3    H140362   5.134   3.521   6.801
13495TIP3    H240363   5.276   3.562   6.771
13496TIP3   OH240364   5.441   3.663   6.730
13496TIP3    H140365   5.434   3.748   6.687
13496TIP3    H240366   5.474   3.604   6.662
13497TIP3   OH240367   4.231   3.318   6.847
13497TIP3    H140368   4.249   3.296   6.938
13497TIP3    H240369   4.306   3.282   6.798
13498TIP3   OH240370   4.437   3.200   6.713
13498TIP3    H140371   4.448   3.115   6.756
13498TIP3    H240372   4.523   3.242   6.719
13499TIP3   OH240373   4.702   3.288   6.740
13499TIP3    H140374   4.724   3.196   6.725
13499TIP3    H240375   4.755   3.313   6.816
13500TIP3   OH240376   5.260   1.942   6.834
13500TIP3    H140377   5.222   1.871   6.885
13500TIP3    H240378   5.329   1.901   6.782
13501TIP3   OH240379   5.759   1.859   6.717
13501TIP3    H140380   5.795   1.910   6.644
13501TIP3    H240381   5.667   1.883   6.719
13502TIP3   OH240382   5.876   1.935   6.480
13502TIP3    H140383   5.946   1.874   6.455
13502TIP3    H240384   5.914   2.022   6.467
13503TIP3   OH240385   4.497   1.641   6.827
13503TIP3    H140386   4.409   1.607   6.838
13503TIP3    H240387   4.552   1.563   6.819
13504TIP3   OH240388   4.321   1.547   6.477
13504TIP3    H140389   4.347   1.597   6.400
13504TIP3    H240390   4.283   1.613   6.536
13505TIP3   OH240391   4.984   1.679   6.727
13505TIP3    H140392   5.032   1.727   6.659
13505TIP3    H240393   5.024   1.708   6.809
13506TIP3   OH240394   5.471   1.823   6.701
13506TIP3    H140395   5.482   1.789   6.612
13506TIP3    H240396   5.479   1.747   6.758
13507TIP3   OH240397   5.535   1.778   6.269
13507TIP3    H140398   5.456   1.825   6.294
13507TIP3    H240399   5.524   1.691   6.307
13508TIP3   OH240400   3.987   3.120   6.245
13508TIP3    H140401   3.903   3.088   6.212
13508TIP3    H240402   3.994   3.209   6.211
13509TIP3   OH240403   4.428   1.679   6.243
13509TIP3    H140404   4.474   1.617   6.185
13509TIP3    H240405   4.497   1.735   6.278
13510TIP3   OH240406   4.912   1.874   6.342
13510TIP3    H140407   4.972   1.822   6.396
13510TIP3    H240408   4.927   1.964   6.370
13511TIP3   OH240409   4.799   3.267   5.836
13511TIP3    H140410   4.882   3.295   5.797
13511TIP3    H240411   4.768   3.197   5.779
13512TIP3   OH240412   5.503   3.417   5.934
13512TIP3    H140413   5.494   3.322   5.927
13512TIP3    H240414   5.461   3.451   5.855
13513TIP3   OH240415   4.728   1.921   7.706
13513TIP3    H140416   4.695   1.854   7.766
13513TIP3    H240417   4.820   1.931   7.729
13514TIP3   OH240418   4.973   1.925   7.834
13514TIP3    H140419   5.051   1.907   7.782
13514TIP3    H240420   4.970   1.854   7.898
13515TIP3   OH240421   4.111   3.115   5.893
13515TIP3    H140422   4.112   3.125   5.988
13515TIP3    H240423   4.191   3.066   5.873
13516TIP3   OH240424   5.796   2.014   7.614
13516TIP3    H140425   5.816   1.990   7.704
13516TIP3    H240426   5.881   2.015   7.570
13517TIP3   OH240427   5.718   3.559   7.122
13517TIP3    H140428   5.645   3.521   7.073
13517TIP3    H240429   5.747   3.633   7.068
13518TIP3   OH240430   6.995   2.936   5.863
13518TIP3    H140431   6.965   3.023   5.836
13518TIP3    H240432   6.925   2.877   5.835
13519TIP3   OH240433   7.027   2.958   6.285
13519TIP3    H140434   7.064   2.926   6.368
13519TIP3    H240435   6.975   2.884   6.253
13520TIP3   OH240436   6.288   2.797   6.631
13520TIP3    H140437   6.327   2.745   6.701
13520TIP3    H240438   6.362   2.825   6.577
13521TIP3   OH240439   7.262   3.246   5.956
13521TIP3    H140440   7.257   3.179   6.024
13521TIP3    H240441   7.284   3.326   6.004
13522TIP3   OH240442   6.232   3.175   6.365
13522TIP3    H140443   6.230   3.081   6.345
13522TIP3    H240444   6.321   3.203   6.342
13523TIP3   OH240445   5.963   2.424   6.096
13523TIP3    H140446   5.925   2.508   6.122
13523TIP3    H240447   5.891   2.376   6.057
13524TIP3   OH240448   6.043   2.734   6.327
13524TIP3    H140449   6.092   2.656   6.353
13524TIP3    H240450   6.111   2.798   6.304
13525TIP3   OH240451   6.919   3.670   5.972
13525TIP3    H140452   6.947   3.606   5.906
13525TIP3    H240453   6.911   3.620   6.053
13526TIP3   OH240454   6.790   3.167   6.298
13526TIP3    H140455   6.838   3.103   6.246
13526TIP3    H240456   6.858   3.222   6.337
13527TIP3   OH240457   7.831   2.467   6.305
13527TIP3    H140458   7.844   2.551   6.350
13527TIP3    H240459   7.870   2.480   6.219
13528TIP3   OH240460   7.144   2.626   6.319
13528TIP3    H140461   7.181   2.541   6.347
13528TIP3    H240462   7.148   2.624   6.224
13529TIP3   OH240463   6.545   2.296   6.279
13529TIP3    H140464   6.520   2.368   6.221
13529TIP3    H240465   6.490   2.222   6.251
13530TIP3   OH240466   7.280   2.395   5.926
13530TIP3    H140467   7.345   2.390   5.995
13530TIP3    H240468   7.328   2.429   5.850
13531TIP3   OH240469   6.182   2.512   6.417
13531TIP3    H140470   6.266   2.494   6.460
13531TIP3    H240471   6.186   2.461   6.336
13532TIP3   OH240472   6.613   2.698   6.231
13532TIP3    H140473   6.701   2.664   6.244
13532TIP3    H240474   6.564   2.624   6.194
13533TIP3   OH240475   7.867   2.678   6.484
13533TIP3    H140476   7.794   2.739   6.469
13533TIP3    H240477   7.923   2.724   6.546
13534TIP3   OH240478   6.538   2.306   6.738
13534TIP3    H140479   6.489   2.342   6.664
13534TIP3    H240480   6.482   2.322   6.814
13535TIP3   OH240481   6.894   3.154   5.722
13535TIP3    H140482   6.852   3.124   5.642
13535TIP3    H240483   6.843   3.229   5.750
13536TIP3   OH240484   6.632   3.074   6.503
13536TIP3    H140485   6.574   3.143   6.536
13536TIP3    H240486   6.677   3.114   6.429
13537TIP3   OH240487   7.428   2.414   6.161
13537TIP3    H140488   7.361   2.415   6.229
13537TIP3    H240489   7.479   2.493   6.177
13538TIP3   OH240490   6.433   2.412   6.505
13538TIP3    H140491   6.489   2.487   6.526
13538TIP3    H240492   6.477   2.370   6.431
13539TIP3   OH240493   6.481   3.280   6.607
13539TIP3    H140494   6.467   3.367   6.570
13539TIP3    H240495   6.404   3.264   6.661
13540TIP3   OH240496   5.845   2.974   5.855
13540TIP3    H140497   5.809   2.998   5.770
13540TIP3    H240498   5.865   3.057   5.897
13541TIP3   OH240499   7.296   3.492   6.097
13541TIP3    H140500   7.211   3.482   6.140
13541TIP3    H240501   7.292   3.577   6.054
13542TIP3   OH240502   7.641   2.344   6.471
13542TIP3    H140503   7.570   2.408   6.467
13542TIP3    H240504   7.705   2.375   6.406
13543TIP3   OH240505   6.880   1.993   6.472
13543TIP3    H140506   6.873   1.902   6.500
13543TIP3    H240507   6.804   2.036   6.510
13544TIP3   OH240508   7.005   3.522   5.750
13544TIP3    H140509   7.057   3.442   5.741
13544TIP3    H240510   7.064   3.593   5.724
13545TIP3   OH240511   7.141   3.289   5.712
13545TIP3    H140512   7.067   3.227   5.713
13545TIP3    H240513   7.191   3.267   5.791
13546TIP3   OH240514   7.533   3.377   6.446
13546TIP3    H140515   7.515   3.302   6.389
13546TIP3    H240516   7.517   3.454   6.390
13547TIP3   OH240517   6.820   2.774   5.719
13547TIP3    H140518   6.737   2.818   5.704
13547TIP3    H240519   6.863   2.774   5.634
13548TIP3   OH240520   6.784   2.593   5.402
13548TIP3    H140521   6.851   2.638   5.452
13548TIP3    H240522   6.831   2.525   5.354
13549TIP3   OH240523   7.703   3.026   6.315
13549TIP3    H140524   7.623   3.077   6.311
13549TIP3    H240525   7.749   3.046   6.233
13550TIP3   OH240526   7.180   2.869   5.672
13550TIP3    H140527   7.126   2.897   5.745
13550TIP3    H240528   7.265   2.847   5.711
13551TIP3   OH240529   7.405   2.891   6.627
13551TIP3    H140530   7.402   2.976   6.670
13551TIP3    H240531   7.323   2.887   6.577
13552TIP3   OH240532   6.413   2.842   6.073
13552TIP3    H140533   6.374   2.781   6.010
13552TIP3    H240534   6.486   2.793   6.111
13553TIP3   OH240535   6.493   3.211   6.250
13553TIP3    H140536   6.471   3.239   6.161
13553TIP3    H240537   6.588   3.213   6.253
13554TIP3   OH240538   6.502   2.840   6.447
13554TIP3    H140539   6.544   2.805   6.368
13554TIP3    H240540   6.546   2.923   6.462
13555TIP3   OH240541   7.066   3.482   6.240
13555TIP3    H140542   7.050   3.564   6.286
13555TIP3    H240543   7.044   3.414   6.303
13556TIP3   OH240544   6.675   3.376   6.779
13556TIP3    H140545   6.613   3.435   6.822
13556TIP3    H240546   6.622   3.327   6.717
13557TIP3   OH240547   7.010   2.724   5.507
13557TIP3    H140548   7.069   2.784   5.554
13557TIP3    H240549   7.040   2.727   5.416
13558TIP3   OH240550   6.428   2.915   6.925
13558TIP3    H140551   6.434   3.008   6.945
13558TIP3    H240552   6.334   2.897   6.918
13559TIP3   OH240553   6.762   3.393   5.762
13559TIP3    H140554   6.840   3.447   5.766
13559TIP3    H240555   6.697   3.447   5.718
13560TIP3   OH240556   6.464   3.539   6.857
13560TIP3    H140557   6.447   3.549   6.764
13560TIP3    H240558   6.378   3.530   6.897
13561TIP3   OH240559   7.518   1.956   5.571
13561TIP3    H140560   7.441   1.978   5.625
13561TIP3    H240561   7.527   2.031   5.512
13562TIP3   OH240562   6.277   2.687   5.878
13562TIP3    H140563   6.201   2.738   5.850
13562TIP3    H240564   6.241   2.600   5.898
13563TIP3   OH240565   7.347   3.330   5.123
13563TIP3    H140566   7.338   3.424   5.104
13563TIP3    H240567   7.436   3.309   5.096
13564TIP3   OH240568   6.070   3.091   6.811
13564TIP3    H140569   6.001   3.080   6.746
13564TIP3    H240570   6.101   3.002   6.829
13565TIP3   OH240571   5.980   3.261   6.447
13565TIP3    H140572   6.065   3.230   6.414
13565TIP3    H240573   6.002   3.340   6.497
13566TIP3   OH240574   7.760   3.739   6.517
13566TIP3    H140575   7.766   3.645   6.530
13566TIP3    H240576   7.681   3.765   6.564
13567TIP3   OH240577   6.879   3.514   6.655
13567TIP3    H140578   6.865   3.606   6.678
13567TIP3    H240579   6.804   3.469   6.695
13568TIP3   OH240580   6.644   3.630   5.599
13568TIP3    H140581   6.584   3.611   5.526
13568TIP3    H240582   6.616   3.715   5.631
13569TIP3   OH240583   6.848   3.558   5.218
13569TIP3    H140584   6.899   3.483   5.185
13569TIP3    H240585   6.880   3.571   5.308
13570TIP3   OH240586   6.895   3.601   5.490
13570TIP3    H140587   6.808   3.606   5.529
13570TIP3    H240588   6.950   3.562   5.559
13571TIP3   OH240589   7.643   2.866   6.805
13571TIP3    H140590   7.562   2.871   6.754
13571TIP3    H240591   7.666   2.773   6.806
13572TIP3   OH240592   6.273   3.276   6.785
13572TIP3    H140593   6.323   3.255   6.864
13572TIP3    H240594   6.198   3.216   6.788
13573TIP3   OH240595   6.647   2.091   6.595
13573TIP3    H140596   6.564   2.055   6.564
13573TIP3    H240597   6.622   2.171   6.642
13574TIP3   OH240598   7.188   2.209   6.805
13574TIP3    H140599   7.258   2.185   6.866
13574TIP3    H240600   7.108   2.195   6.854
13575TIP3   OH240601   7.407   2.619   6.697
13575TIP3    H140602   7.366   2.611   6.784
13575TIP3    H240603   7.395   2.710   6.673
13576TIP3   OH240604   7.090   2.699   5.244
13576TIP3    H140605   7.043   2.704   5.161
13576TIP3    H240606   7.170   2.749   5.229
13577TIP3   OH240607   6.798   2.127   5.560
13577TIP3    H140608   6.753   2.139   5.644
13577TIP3    H240609   6.763   2.045   5.526
13578TIP3   OH240610   6.584   2.625   6.601
13578TIP3    H140611   6.536   2.631   6.683
13578TIP3    H240612   6.557   2.703   6.552
13579TIP3   OH240613   6.459   2.499   6.118
13579TIP3    H140614   6.369   2.477   6.141
13579TIP3    H240615   6.469   2.467   6.028
13580TIP3   OH240616   6.945   2.568   5.852
13580TIP3    H140617   6.896   2.641   5.815
13580TIP3    H240618   7.002   2.538   5.780
13581TIP3   OH240619   7.129   2.849   6.936
13581TIP3    H140620   7.103   2.780   6.997
13581TIP3    H240621   7.222   2.861   6.953
13582TIP3   OH240622   7.140   2.596   6.050
13582TIP3    H140623   7.061   2.609   5.997
13582TIP3    H240624   7.182   2.519   6.011
13583TIP3   OH240625   6.424   2.640   6.822
13583TIP3    H140626   6.428   2.707   6.890
13583TIP3    H240627   6.403   2.559   6.868
13584TIP3   OH240628   6.465   2.109   5.542
13584TIP3    H140629   6.452   2.115   5.636
13584TIP3    H240630   6.386   2.148   5.504
13585TIP3   OH240631   6.008   2.156   6.401
13585TIP3    H140632   6.083   2.189   6.449
13585TIP3    H240633   6.042   2.136   6.314
13586TIP3   OH240634   5.911   2.131   5.904
13586TIP3    H140635   5.956   2.167   5.827
13586TIP3    H240636   5.847   2.197   5.928
13587TIP3   OH240637   7.156   2.829   6.503
13587TIP3    H140638   7.162   2.759   6.439
13587TIP3    H240639   7.113   2.789   6.579
13588TIP3   OH240640   6.809   2.333   6.189
13588TIP3    H140641   6.728   2.307   6.233
13588TIP3    H240642   6.832   2.416   6.229
13589TIP3   OH240643   6.221   2.375   6.180
13589TIP3    H140644   6.133   2.382   6.145
13589TIP3    H240645   6.246   2.284   6.167
13590TIP3   OH240646   6.485   2.381   5.873
13590TIP3    H140647   6.579   2.379   5.855
13590TIP3    H240648   6.444   2.395   5.787
13591TIP3   OH240649   7.236   2.364   6.350
13591TIP3    H140650   7.251   2.369   6.444
13591TIP3    H240651   7.169   2.296   6.340
13592TIP3   OH240652   6.365   2.395   5.628
13592TIP3    H140653   6.301   2.346   5.576
13592TIP3    H240654   6.416   2.443   5.563
13593TIP3   OH240655   7.473   4.082   6.605
13593TIP3    H140656   7.471   4.092   6.510
13593TIP3    H240657   7.552   4.129   6.632
13594TIP3   OH240658   6.417   3.184   7.016
13594TIP3    H140659   6.497   3.204   7.064
13594TIP3    H240660   6.347   3.194   7.080
13595TIP3   OH240661   6.866   2.578   6.305
13595TIP3    H140662   6.959   2.602   6.296
13595TIP3    H240663   6.852   2.569   6.399
13596TIP3   OH240664   6.355   2.122   6.162
13596TIP3    H140665   6.329   2.048   6.216
13596TIP3    H240666   6.363   2.086   6.074
13597TIP3   OH240667   6.851   2.568   6.577
13597TIP3    H140668   6.764   2.605   6.592
13597TIP3    H240669   6.910   2.626   6.625
13598TIP3   OH240670   6.583   2.910   5.670
13598TIP3    H140671   6.507   2.858   5.642
13598TIP3    H240672   6.552   2.957   5.747
13599TIP3   OH240673   7.478   3.177   6.267
13599TIP3    H140674   7.518   3.226   6.195
13599TIP3    H240675   7.401   3.136   6.229
13600TIP3   OH240676   7.051   2.227   5.579
13600TIP3    H140677   6.959   2.205   5.569
13600TIP3    H240678   7.053   2.323   5.585
13601TIP3   OH240679   6.999   3.249   6.692
13601TIP3    H140680   7.050   3.240   6.773
13601TIP3    H240681   6.960   3.336   6.698
13602TIP3   OH240682   7.110   2.496   5.638
13602TIP3    H140683   7.206   2.502   5.647
13602TIP3    H240684   7.086   2.572   5.586
13603TIP3   OH240685   6.266   2.901   6.302
13603TIP3    H140686   6.307   2.897   6.216
13603TIP3    H240687   6.336   2.881   6.363
13604TIP3   OH240688   6.729   3.075   5.507
13604TIP3    H140689   6.682   3.158   5.506
13604TIP3    H240690   6.675   3.017   5.562
13605TIP3   OH240691   6.154   2.848   6.937
13605TIP3    H140692   6.150   2.818   7.028
13605TIP3    H240693   6.076   2.810   6.896
13606TIP3   OH240694   6.896   3.002   6.968
13606TIP3    H140695   6.828   2.941   6.940
13606TIP3    H240696   6.978   2.960   6.942
13607TIP3   OH240697   7.142   3.549   6.571
13607TIP3    H140698   7.049   3.529   6.577
13607TIP3    H240699   7.166   3.583   6.657
13608TIP3   OH240700   7.517   2.584   5.450
13608TIP3    H140701   7.461   2.538   5.388
13608TIP3    H240702   7.522   2.673   5.417
13609TIP3   OH240703   7.777   3.464   6.534
13609TIP3    H140704   7.683   3.444   6.531
13609TIP3    H240705   7.811   3.434   6.450
13610TIP3   OH240706   7.265   3.402   5.391
13610TIP3    H140707   7.234   3.336   5.454
13610TIP3    H240708   7.282   3.353   5.311
13611TIP3   OH240709   7.261   3.044   6.154
13611TIP3    H140710   7.174   3.025   6.190
13611TIP3    H240711   7.291   2.961   6.116
13612TIP3   OH240712   6.386   3.279   5.994
13612TIP3    H140713   6.387   3.354   5.934
13612TIP3    H240714   6.297   3.277   6.029
13613TIP3   OH240715   5.962   2.556   5.697
13613TIP3    H140716   6.003   2.640   5.718
13613TIP3    H240717   5.879   2.556   5.744
13614TIP3   OH240718   6.468   3.038   5.880
13614TIP3    H140719   6.452   3.125   5.917
13614TIP3    H240720   6.449   2.978   5.952
13615TIP3   OH240721   6.691   3.588   6.448
13615TIP3    H140722   6.717   3.656   6.386
13615TIP3    H240723   6.773   3.561   6.489
13616TIP3   OH240724   6.315   3.504   5.834
13616TIP3    H140725   6.265   3.530   5.912
13616TIP3    H240726   6.335   3.587   5.791
13617TIP3   OH240727   7.026   3.266   6.416
13617TIP3    H140728   7.018   3.258   6.511
13617TIP3    H240729   7.098   3.207   6.393
13618TIP3   OH240730   7.030   3.137   5.269
13618TIP3    H140731   7.081   3.107   5.344
13618TIP3    H240732   6.946   3.092   5.278
13619TIP3   OH240733   7.293   3.754   6.447
13619TIP3    H140734   7.225   3.690   6.471
13619TIP3    H240735   7.252   3.806   6.377
13620TIP3   OH240736   7.335   3.603   5.077
13620TIP3    H140737   7.344   3.660   5.001
13620TIP3    H240738   7.267   3.644   5.130
13621TIP3   OH240739   6.364   2.389   6.940
13621TIP3    H140740   6.269   2.400   6.943
13621TIP3    H240741   6.385   2.344   7.022
13622TIP3   OH240742   7.208   3.045   5.457
13622TIP3    H140743   7.191   2.995   5.536
13622TIP3    H240744   7.303   3.055   5.455
13623TIP3   OH240745   6.117   3.485   6.572
13623TIP3    H140746   6.177   3.436   6.628
13623TIP3    H240747   6.119   3.574   6.607
13624TIP3   OH240748   6.378   3.100   5.295
13624TIP3    H140749   6.388   3.009   5.269
13624TIP3    H240750   6.365   3.096   5.390
13625TIP3   OH240751   6.318   3.117   5.568
13625TIP3    H140752   6.366   3.092   5.647
13625TIP3    H240753   6.315   3.212   5.571
13626TIP3   OH240754   6.053   2.810   5.772
13626TIP3    H140755   5.985   2.855   5.821
13626TIP3    H240756   6.070   2.868   5.697
13627TIP3   OH240757   7.272   2.389   6.613
13627TIP3    H140758   7.320   2.462   6.652
13627TIP3    H240759   7.245   2.335   6.687
13628TIP3   OH240760   7.108   2.191   5.848
13628TIP3    H140761   7.086   2.203   5.756
13628TIP3    H240762   7.160   2.268   5.870
13629TIP3   OH240763   6.587   3.307   5.501
13629TIP3    H140764   6.502   3.327   5.539
13629TIP3    H240765   6.607   3.382   5.445
13630TIP3   OH240766   6.774   2.362   5.918
13630TIP3    H140767   6.832   2.433   5.891
13630TIP3    H240768   6.778   2.362   6.013
13631TIP3   OH240769   7.063   2.687   6.722
13631TIP3    H140770   7.074   2.752   6.792
13631TIP3    H240771   7.106   2.608   6.756
13632TIP3   OH240772   6.952   2.123   6.068
13632TIP3    H140773   6.907   2.205   6.090
13632TIP3    H240774   6.999   2.143   5.987
13633TIP3   OH240775   6.336   3.390   5.581
13633TIP3    H140776   6.316   3.462   5.522
13633TIP3    H240777   6.318   3.425   5.668
13634TIP3   OH240778   6.421   2.107   5.821
13634TIP3    H140779   6.408   2.199   5.846
13634TIP3    H240780   6.516   2.094   5.825
13635TIP3   OH240781   7.682   2.605   6.706
13635TIP3    H140782   7.588   2.592   6.697
13635TIP3    H240783   7.715   2.610   6.616
13636TIP3   OH240784   7.344   2.785   6.071
13636TIP3    H140785   7.270   2.724   6.071
13636TIP3    H240786   7.410   2.743   6.127
13637TIP3   OH240787   6.075   2.982   5.552
13637TIP3    H140788   6.146   3.045   5.563
13637TIP3    H240789   6.107   2.920   5.488
13638TIP3   OH240790   5.981   2.278   5.684
13638TIP3    H140791   5.994   2.373   5.695
13638TIP3    H240792   5.920   2.271   5.611
13639TIP3   OH240793   7.316   3.762   6.021
13639TIP3    H140794   7.274   3.813   5.951
13639TIP3    H240795   7.410   3.770   6.004
13640TIP3   OH240796   6.391   1.998   6.550
13640TIP3    H140797   6.358   1.967   6.467
13640TIP3    H240798   6.379   1.924   6.610
13641TIP3   OH240799   5.893   3.229   5.942
13641TIP3    H140800   5.887   3.284   6.020
13641TIP3    H240801   5.880   3.290   5.869
13642TIP3   OH240802   6.127   3.801   7.023
13642TIP3    H140803   6.208   3.827   7.066
13642TIP3    H240804   6.141   3.710   6.998
13643TIP3   OH240805   6.579   3.692   7.054
13643TIP3    H140806   6.669   3.660   7.060
13643TIP3    H240807   6.541   3.643   6.981
13644TIP3   OH240808   6.533   3.294   5.175
13644TIP3    H140809   6.485   3.227   5.224
13644TIP3    H240810   6.608   3.247   5.138
13645TIP3   OH240811   7.199   3.641   6.823
13645TIP3    H140812   7.215   3.570   6.886
13645TIP3    H240813   7.272   3.701   6.836
13646TIP3   OH240814   6.975   3.345   5.101
13646TIP3    H140815   7.008   3.280   5.163
13646TIP3    H240816   7.035   3.338   5.026
13647TIP3   OH240817   6.208   3.202   7.205
13647TIP3    H140818   6.233   3.111   7.220
13647TIP3    H240819   6.121   3.197   7.165
13648TIP3   OH240820   6.201   2.795   5.399
13648TIP3    H140821   6.251   2.771   5.477
13648TIP3    H240822   6.267   2.808   5.332
13649TIP3   OH240823   6.830   3.277   6.983
13649TIP3    H140824   6.784   3.298   6.902
13649TIP3    H240825   6.864   3.189   6.969
13650TIP3   OH240826   6.777   3.018   5.243
13650TIP3    H140827   6.751   3.029   5.334
13650TIP3    H240828   6.755   2.927   5.223
13651TIP3   OH240829   7.309   3.322   6.600
13651TIP3    H140830   7.386   3.349   6.550
13651TIP3    H240831   7.245   3.392   6.584
13652TIP3   OH240832   6.328   2.954   7.220
13652TIP3    H140833   6.400   2.917   7.168
13652TIP3    H240834   6.364   2.963   7.308
13653TIP3   OH240835   6.372   2.738   5.614
13653TIP3    H140836   6.348   2.707   5.701
13653TIP3    H240837   6.419   2.664   5.575
13654TIP3   OH240838   6.696   2.826   6.867
13654TIP3    H140839   6.607   2.860   6.877
13654TIP3    H240840   6.725   2.857   6.782
13655TIP3   OH240841   6.514   2.554   5.460
13655TIP3    H140842   6.483   2.558   5.369
13655TIP3    H240843   6.609   2.564   5.453
13656TIP3   OH240844   7.185   3.194   6.942
13656TIP3    H140845   7.256   3.159   6.889
13656TIP3    H240846   7.183   3.139   7.019
13657TIP3   OH240847   7.305   2.841   5.140
13657TIP3    H140848   7.292   2.801   5.054
13657TIP3    H240849   7.282   2.933   5.127
13658TIP3   OH240850   6.793   2.594   6.980
13658TIP3    H140851   6.790   2.521   6.917
13658TIP3    H240852   6.758   2.668   6.931
13659TIP3   OH240853   6.796   2.388   6.784
13659TIP3    H140854   6.822   2.433   6.703
13659TIP3    H240855   6.705   2.361   6.768
13660TIP3   OH240856   6.815   2.928   6.643
13660TIP3    H140857   6.892   2.985   6.646
13660TIP3    H240858   6.750   2.977   6.592
13661TIP3   OH240859   7.400   2.870   7.026
13661TIP3    H140860   7.443   2.785   7.037
13661TIP3    H240861   7.472   2.932   7.012
13662TIP3   OH240862   7.429   3.139   6.760
13662TIP3    H140863   7.377   3.203   6.711
13662TIP3    H240864   7.519   3.153   6.730
13663TIP3   OH240865   6.680   2.670   7.225
13663TIP3    H140866   6.608   2.610   7.246
13663TIP3    H240867   6.705   2.647   7.136
13664TIP3   OH240868   6.921   2.157   6.877
13664TIP3    H140869   6.879   2.239   6.848
13664TIP3    H240870   6.853   2.091   6.866
13665TIP3   OH240871   7.049   2.629   7.080
13665TIP3    H140872   7.042   2.614   7.174
13665TIP3    H240873   6.962   2.610   7.046
13666TIP3   OH240874   7.285   2.576   6.936
13666TIP3    H140875   7.208   2.581   6.994
13666TIP3    H240876   7.358   2.558   6.995
13667TIP3   OH240877   7.516   2.554   7.096
13667TIP3    H140878   7.535   2.460   7.102
13667TIP3    H240879   7.514   2.584   7.187
13668TIP3   OH240880   6.513   2.447   7.283
13668TIP3    H140881   6.519   2.358   7.248
13668TIP3    H240882   6.551   2.440   7.371
13669TIP3   OH240883   6.988   2.134   7.143
13669TIP3    H140884   7.057   2.068   7.136
13669TIP3    H240885   6.956   2.145   7.054
13670TIP3   OH240886   7.086   2.348   7.288
13670TIP3    H140887   7.053   2.275   7.234
13670TIP3    H240888   7.013   2.410   7.290
13671TIP3   OH240889   6.344   3.599   5.396
13671TIP3    H140890   6.430   3.574   5.365
13671TIP3    H240891   6.304   3.646   5.322
13672TIP3   OH240892   5.801   2.991   5.552
13672TIP3    H140893   5.896   2.998   5.559
13672TIP3    H240894   5.786   2.903   5.518
13673TIP3   OH240895   5.715   3.559   6.039
13673TIP3    H140896   5.649   3.507   5.993
13673TIP3    H240897   5.763   3.495   6.092
13674TIP3   OH240898   5.873   3.382   6.186
13674TIP3    H140899   5.869   3.315   6.255
13674TIP3    H240900   5.929   3.450   6.223
13675TIP3   OH240901   7.590   3.798   6.009
13675TIP3    H140902   7.614   3.821   6.099
13675TIP3    H240903   7.651   3.849   5.955
13676TIP3   OH240904   7.620   3.823   6.288
13676TIP3    H140905   7.568   3.743   6.283
13676TIP3    H240906   7.685   3.805   6.355
13677TIP3   OH240907   7.668   3.536   6.859
13677TIP3    H140908   7.595   3.545   6.921
13677TIP3    H240909   7.715   3.620   6.865
13678TIP3   OH240910   7.489   3.051   5.467
13678TIP3    H140911   7.543   3.124   5.438
13678TIP3    H240912   7.536   3.015   5.542
13679TIP3   OH240913   7.622   2.911   5.669
13679TIP3    H140914   7.553   2.877   5.726
13679TIP3    H240915   7.686   2.949   5.729
13680TIP3   OH240916   7.655   3.312   6.105
13680TIP3    H140917   7.709   3.243   6.067
13680TIP3    H240918   7.660   3.383   6.041
13681TIP3   OH240919   7.464   3.596   6.294
13681TIP3    H140920   7.396   3.641   6.344
13681TIP3    H240921   7.416   3.555   6.221
13682TIP3   OH240922   7.515   2.824   5.316
13682TIP3    H140923   7.442   2.824   5.254
13682TIP3    H240924   7.502   2.903   5.368
13683TIP3   OH240925   7.368   2.470   5.250
13683TIP3    H140926   7.320   2.508   5.176
13683TIP3    H240927   7.360   2.376   5.239
13684TIP3   OH240928   7.412   2.777   5.801
13684TIP3    H140929   7.417   2.682   5.790
13684TIP3    H240930   7.394   2.789   5.894
13685TIP3   OH240931   6.023   2.828   6.582
13685TIP3    H140932   6.013   2.797   6.492
13685TIP3    H240933   6.117   2.826   6.598
13686TIP3   OH240934   7.687   3.181   6.663
13686TIP3    H140935   7.749   3.110   6.646
13686TIP3    H240936   7.698   3.241   6.589
13687TIP3   OH240937   7.852   2.961   6.650
13687TIP3    H140938   7.785   2.928   6.709
13687TIP3    H240939   7.930   2.909   6.671
13688TIP3   OH240940   7.331   2.199   5.220
13688TIP3    H140941   7.396   2.173   5.285
13688TIP3    H240942   7.248   2.163   5.252
13689TIP3   OH240943   7.408   2.492   5.694
13689TIP3    H140944   7.455   2.409   5.704
13689TIP3    H240945   7.444   2.531   5.615
13690TIP3   OH240946   7.548   2.657   6.220
13690TIP3    H140947   7.628   2.675   6.171
13690TIP3    H240948   7.562   2.700   6.305
13691TIP3   OH240949   7.616   2.805   6.450
13691TIP3    H140950   7.547   2.837   6.508
13691TIP3    H240951   7.649   2.883   6.406
13692TIP3   OH240952   6.252   2.512   7.222
13692TIP3    H140953   6.345   2.504   7.243
13692TIP3    H240954   6.210   2.441   7.271
13693TIP3   OH240955   8.091   2.402   6.983
13693TIP3    H140956   8.158   2.350   6.939
13693TIP3    H240957   8.050   2.453   6.913
13694TIP3   OH240958   7.524   2.242   5.749
13694TIP3    H140959   7.569   2.223   5.832
13694TIP3    H240960   7.458   2.173   5.742
13695TIP3   OH240961   6.228   2.223   6.555
13695TIP3    H140962   6.281   2.145   6.566
13695TIP3    H240963   6.291   2.294   6.544
13696TIP3   OH240964   6.000   2.478   6.634
13696TIP3    H140965   6.051   2.473   6.553
13696TIP3    H240966   6.022   2.564   6.670
13697TIP3   OH240967   7.936   2.517   6.790
13697TIP3    H140968   7.852   2.560   6.809
13697TIP3    H240969   7.912   2.441   6.737
13698TIP3   OH240970   7.555   2.153   5.382
13698TIP3    H140971   7.603   2.094   5.324
13698TIP3    H240972   7.609   2.232   5.385
13699TIP3   OH240973   5.990   2.010   6.136
13699TIP3    H140974   5.904   1.994   6.177
13699TIP3    H240975   5.969   2.060   6.057
13700TIP3   OH240976   7.154   3.721   5.651
13700TIP3    H140977   7.209   3.710   5.574
13700TIP3    H240978   7.193   3.795   5.699
13701TIP3   OH240979   6.209   2.044   6.959
13701TIP3    H140980   6.163   2.044   7.043
13701TIP3    H240981   6.155   2.100   6.903
13702TIP3   OH240982   6.230   3.533   7.017
13702TIP3    H140983   6.141   3.499   7.015
13702TIP3    H240984   6.265   3.506   7.102
13703TIP3   OH240985   6.454   3.558   6.579
13703TIP3    H140986   6.407   3.635   6.549
13703TIP3    H240987   6.538   3.562   6.533
13704TIP3   OH240988   6.857   3.784   6.717
13704TIP3    H140989   6.892   3.779   6.806
13704TIP3    H240990   6.918   3.840   6.670
13705TIP3   OH240991   7.042   3.946   6.593
13705TIP3    H140992   7.102   3.893   6.542
13705TIP3    H240993   7.099   4.002   6.647
13706TIP3   OH240994   7.850   2.272   6.681
13706TIP3    H140995   7.767   2.271   6.633
13706TIP3    H240996   7.884   2.183   6.672
13707TIP3   OH240997   6.105   3.780   6.614
13707TIP3    H140998   6.012   3.793   6.593
13707TIP3    H240999   6.125   3.849   6.677
13708TIP3   OH241000   6.350   3.795   6.486
13708TIP3    H141001   6.262   3.793   6.524
13708TIP3    H241002   6.336   3.824   6.396
13709TIP3   OH241003   6.763   3.798   6.275
13709TIP3    H141004   6.691   3.805   6.211
13709TIP3    H241005   6.767   3.884   6.316
13710TIP3   OH241006   7.030   3.749   6.318
13710TIP3    H141007   6.936   3.760   6.303
13710TIP3    H241008   7.071   3.817   6.265
13711TIP3   OH241009   7.240   3.931   6.225
13711TIP3    H141010   7.229   4.015   6.180
13711TIP3    H241011   7.264   3.870   6.155
13712TIP3   OH241012   6.032   3.570   6.319
13712TIP3    H141013   6.080   3.537   6.394
13712TIP3    H241014   6.099   3.587   6.253
13713TIP3   OH241015   7.127   2.084   6.280
13713TIP3    H141016   7.067   2.051   6.347
13713TIP3    H241017   7.073   2.097   6.202
13714TIP3   OH241018   7.455   2.144   6.200
13714TIP3    H141019   7.529   2.123   6.142
13714TIP3    H241020   7.449   2.239   6.197
13715TIP3   OH241021   7.661   2.158   5.986
13715TIP3    H141022   7.733   2.103   5.955
13715TIP3    H241023   7.696   2.247   5.983
13716TIP3   OH241024   6.294   1.898   6.312
13716TIP3    H141025   6.206   1.864   6.325
13716TIP3    H241026   6.349   1.820   6.302
13717TIP3   OH241027   6.133   1.819   5.980
13717TIP3    H141028   6.148   1.863   5.896
13717TIP3    H241029   6.089   1.885   6.034
13718TIP3   OH241030   6.790   1.945   6.205
13718TIP3    H141031   6.836   2.012   6.154
13718TIP3    H241032   6.812   1.966   6.296
13719TIP3   OH241033   7.332   2.039   5.761
13719TIP3    H141034   7.251   2.084   5.785
13719TIP3    H241035   7.320   1.950   5.794
13720TIP3   OH241036   5.824   3.372   5.708
13720TIP3    H141037   5.737   3.335   5.694
13720TIP3    H241038   5.814   3.464   5.685
13721TIP3   OH241039   6.219   1.934   5.728
13721TIP3    H141040   6.267   1.872   5.673
13721TIP3    H241041   6.287   1.992   5.763
13722TIP3   OH241042   6.695   2.119   5.818
13722TIP3    H141043   6.742   2.047   5.859
13722TIP3    H241044   6.731   2.198   5.859
13723TIP3   OH241045   6.593   3.519   5.318
13723TIP3    H141046   6.677   3.548   5.282
13723TIP3    H241047   6.566   3.447   5.261
13724TIP3   OH241048   7.302   3.671   5.421
13724TIP3    H141049   7.294   3.576   5.416
13724TIP3    H241050   7.255   3.703   5.344
13725TIP3   OH241051   6.529   2.177   7.197
13725TIP3    H141052   6.492   2.110   7.255
13725TIP3    H241053   6.620   2.185   7.223
13726TIP3   OH241054   6.774   2.184   7.324
13726TIP3    H141055   6.851   2.160   7.273
13726TIP3    H241056   6.766   2.114   7.389
13727TIP3   OH241057   5.902   3.365   5.390
13727TIP3    H141058   5.898   3.363   5.485
13727TIP3    H241059   5.983   3.318   5.368
13728TIP3   OH241060   7.595   2.286   7.106
13728TIP3    H141061   7.611   2.257   7.195
13728TIP3    H241062   7.680   2.280   7.062
13729TIP3   OH241063   7.511   3.809   6.611
13729TIP3    H141064   7.437   3.778   6.559
13729TIP3    H241065   7.496   3.903   6.620
13730TIP3   OH241066   8.774   3.206   5.357
13730TIP3    H141067   8.752   3.293   5.323
13730TIP3    H241068   8.698   3.152   5.336
13731TIP3   OH241069   8.781   3.191   5.790
13731TIP3    H141070   8.824   3.171   5.873
13731TIP3    H241071   8.739   3.109   5.764
13732TIP3   OH241072   8.081   3.043   6.128
13732TIP3    H141073   8.111   2.985   6.198
13732TIP3    H241074   8.160   3.064   6.078
13733TIP3   OH241075   9.048   3.489   5.424
13733TIP3    H141076   9.027   3.424   5.491
13733TIP3    H241077   9.062   3.570   5.472
13734TIP3   OH241078   8.078   3.471   5.791
13734TIP3    H141079   8.057   3.378   5.802
13734TIP3    H241080   8.174   3.474   5.791
13735TIP3   OH241081   7.757   2.678   5.586
13735TIP3    H141082   7.722   2.763   5.612
13735TIP3    H241083   7.683   2.633   5.545
13736TIP3   OH241084   7.844   2.998   5.817
13736TIP3    H141085   7.894   2.920   5.842
13736TIP3    H241086   7.911   3.063   5.797
13737TIP3   OH241087   8.719   3.921   5.464
13737TIP3    H141088   8.746   3.855   5.400
13737TIP3    H241089   8.726   3.878   5.549
13738TIP3   OH241090   8.595   3.411   5.784
13738TIP3    H141091   8.641   3.330   5.762
13738TIP3    H241092   8.664   3.469   5.817
13739TIP3   OH241093   9.475   2.683   5.778
13739TIP3    H141094   9.523   2.737   5.841
13739TIP3    H241095   9.415   2.745   5.735
13740TIP3   OH241096   8.978   2.889   5.850
13740TIP3    H141097   9.014   2.811   5.891
13740TIP3    H241098   8.953   2.861   5.762
13741TIP3   OH241099   8.342   2.556   5.777
13741TIP3    H141100   8.322   2.630   5.719
13741TIP3    H241101   8.286   2.485   5.746
13742TIP3   OH241102   7.975   2.768   5.901
13742TIP3    H141103   8.055   2.747   5.949
13742TIP3    H241104   7.983   2.720   5.818
13743TIP3   OH241105   8.398   2.975   5.713
13743TIP3    H141106   8.493   2.961   5.721
13743TIP3    H241107   8.363   2.891   5.685
13744TIP3   OH241108   9.581   2.851   5.968
13744TIP3    H141109   9.565   2.946   5.970
13744TIP3    H241110   9.675   2.843   5.984
13745TIP3   OH241111   8.317   2.528   6.230
13745TIP3    H141112   8.279   2.585   6.163
13745TIP3    H241113   8.281   2.559   6.312
13746TIP3   OH241114   8.693   3.422   5.199
13746TIP3    H141115   8.650   3.386   5.121
13746TIP3    H241116   8.636   3.493   5.227
13747TIP3   OH241117   8.438   3.333   6.000
13747TIP3    H141118   8.382   3.404   6.030
13747TIP3    H241119   8.487   3.370   5.926
13748TIP3   OH241120   9.134   2.686   5.576
13748TIP3    H141121   9.140   2.617   5.642
13748TIP3    H241122   9.200   2.751   5.602
13749TIP3   OH241123   8.212   2.659   6.003
13749TIP3    H141124   8.263   2.736   6.029
13749TIP3    H241125   8.264   2.617   5.935
13750TIP3   OH241126   8.276   3.538   6.092
13750TIP3    H141127   8.263   3.628   6.061
13750TIP3    H241128   8.198   3.519   6.143
13751TIP3   OH241129   7.653   3.248   5.349
13751TIP3    H141130   7.615   3.269   5.263
13751TIP3    H241131   7.676   3.332   5.387
13752TIP3   OH241132   9.057   3.734   5.559
13752TIP3    H141133   8.976   3.723   5.609
13752TIP3    H241134   9.049   3.820   5.518
13753TIP3   OH241135   9.338   2.577   5.997
13753TIP3    H141136   9.249   2.613   5.994
13753TIP3    H241137   9.379   2.611   5.917
13754TIP3   OH241138   8.667   2.246   5.952
13754TIP3    H141139   8.664   2.156   5.984
13754TIP3    H241140   8.591   2.289   5.992
13755TIP3   OH241141   8.803   3.769   5.243
13755TIP3    H141142   8.857   3.692   5.230
13755TIP3    H241143   8.859   3.843   5.219
13756TIP3   OH241144   8.946   3.541   5.173
13756TIP3    H141145   8.867   3.486   5.172
13756TIP3    H241146   8.991   3.518   5.255
13757TIP3   OH241147   9.281   3.642   5.918
13757TIP3    H141148   9.271   3.565   5.862
13757TIP3    H241149   9.280   3.716   5.857
13758TIP3   OH241150   8.599   3.032   5.222
13758TIP3    H141151   8.517   3.077   5.200
13758TIP3    H241152   8.643   3.020   5.138
13759TIP3   OH241153   8.565   2.825   4.887
13759TIP3    H141154   8.619   2.883   4.941
13759TIP3    H241155   8.623   2.753   4.863
13760TIP3   OH241156   9.417   3.228   5.734
13760TIP3    H141157   9.356   3.301   5.751
13760TIP3    H241158   9.503   3.268   5.739
13761TIP3   OH241159   8.936   3.073   5.184
13761TIP3    H141160   8.893   3.124   5.253
13761TIP3    H241161   9.021   3.050   5.220
13762TIP3   OH241162   9.158   3.149   6.125
13762TIP3    H141163   9.159   3.232   6.173
13762TIP3    H241164   9.070   3.143   6.089
13763TIP3   OH241165   8.200   3.105   5.562
13763TIP3    H141166   8.165   3.042   5.500
13763TIP3    H241167   8.273   3.059   5.604
13764TIP3   OH241168   8.345   3.527   5.709
13764TIP3    H141169   8.325   3.511   5.617
13764TIP3    H241170   8.432   3.488   5.722
13765TIP3   OH241171   8.293   3.107   5.935
13765TIP3    H141172   8.335   3.073   5.856
13765TIP3    H241173   8.345   3.184   5.959
13766TIP3   OH241174   8.838   3.728   5.718
13766TIP3    H141175   8.825   3.810   5.765
13766TIP3    H241176   8.827   3.660   5.784
13767TIP3   OH241177   8.471   3.637   6.264
13767TIP3    H141178   8.407   3.692   6.311
13767TIP3    H241179   8.417   3.583   6.206
13768TIP3   OH241180   8.765   2.968   5.003
13768TIP3    H141181   8.833   3.002   5.062
13768TIP3    H241182   8.808   2.965   4.917
13769TIP3   OH241183   8.236   3.203   6.399
13769TIP3    H141184   8.232   3.296   6.420
13769TIP3    H241185   8.145   3.177   6.389
13770TIP3   OH241186   8.551   3.654   5.247
13770TIP3    H141187   8.631   3.705   5.258
13770TIP3    H241188   8.490   3.714   5.204
13771TIP3   OH241189   8.259   3.794   6.348
13771TIP3    H141190   8.235   3.803   6.256
13771TIP3    H241191   8.176   3.781   6.393
13772TIP3   OH241192   9.301   2.268   5.105
13772TIP3    H141193   9.242   2.196   5.087
13772TIP3    H241194   9.338   2.292   5.020
13773TIP3   OH241195   8.072   2.943   5.365
13773TIP3    H141196   7.994   2.992   5.338
13773TIP3    H241197   8.037   2.858   5.392
13774TIP3   OH241198   9.047   3.613   4.603
13774TIP3    H141199   9.066   3.705   4.583
13774TIP3    H241200   9.128   3.580   4.640
13775TIP3   OH241201   7.858   3.360   6.296
13775TIP3    H141202   7.789   3.336   6.235
13775TIP3    H241203   7.891   3.276   6.329
13776TIP3   OH241204   7.703   3.545   5.952
13776TIP3    H141205   7.792   3.570   5.976
13776TIP3    H241206   7.649   3.619   5.980
13777TIP3   OH241207   9.447   3.945   5.971
13777TIP3    H141208   9.479   3.859   5.997
13777TIP3    H241209   9.380   3.966   6.036
13778TIP3   OH241210   8.654   3.788   6.127
13778TIP3    H141211   8.645   3.877   6.160
13778TIP3    H241212   8.589   3.737   6.176
13779TIP3   OH241213   8.436   3.877   5.083
13779TIP3    H141214   8.387   3.856   5.004
13779TIP3    H241215   8.398   3.960   5.114
13780TIP3   OH241216   7.877   3.735   5.458
13780TIP3    H141217   7.921   3.726   5.542
13780TIP3    H241218   7.827   3.654   5.448
13781TIP3   OH241219   8.634   3.831   4.714
13781TIP3    H141220   8.675   3.751   4.680
13781TIP3    H241221   8.668   3.839   4.803
13782TIP3   OH241222   8.690   3.846   4.987
13782TIP3    H141223   8.601   3.849   5.023
13782TIP3    H241224   8.743   3.810   5.057
13783TIP3   OH241225   9.392   3.099   6.287
13783TIP3    H141226   9.312   3.115   6.236
13783TIP3    H241227   9.409   3.006   6.275
13784TIP3   OH241228   8.056   3.548   6.261
13784TIP3    H141229   8.107   3.536   6.341
13784TIP3    H241230   7.985   3.484   6.268
13785TIP3   OH241231   8.433   2.342   6.067
13785TIP3    H141232   8.346   2.314   6.039
13785TIP3    H241233   8.417   2.420   6.120
13786TIP3   OH241234   9.011   2.491   6.217
13786TIP3    H141235   9.057   2.481   6.301
13786TIP3    H241236   8.941   2.555   6.235
13787TIP3   OH241237   9.155   2.863   6.165
13787TIP3    H141238   9.125   2.851   6.255
13787TIP3    H241239   9.143   2.957   6.147
13788TIP3   OH241240   8.865   2.931   4.743
13788TIP3    H141241   8.814   2.940   4.662
13788TIP3    H241242   8.934   2.997   4.735
13789TIP3   OH241243   8.666   2.342   5.057
13789TIP3    H141244   8.622   2.369   5.137
13789TIP3    H241245   8.610   2.274   5.020
13790TIP3   OH241246   8.359   2.875   6.069
13790TIP3    H141247   8.399   2.903   6.151
13790TIP3    H241248   8.341   2.956   6.021
13791TIP3   OH241249   8.260   2.756   5.605
13791TIP3    H141250   8.170   2.732   5.628
13791TIP3    H241251   8.273   2.720   5.517
13792TIP3   OH241252   8.762   2.841   5.342
13792TIP3    H141253   8.692   2.904   5.322
13792TIP3    H241254   8.832   2.863   5.282
13793TIP3   OH241255   8.920   3.122   6.403
13793TIP3    H141256   8.894   3.039   6.444
13793TIP3    H241257   9.012   3.132   6.424
13794TIP3   OH241258   8.901   2.837   5.587
13794TIP3    H141259   8.851   2.840   5.505
13794TIP3    H241260   8.972   2.776   5.569
13795TIP3   OH241261   8.177   2.876   6.333
13795TIP3    H141262   8.266   2.909   6.340
13795TIP3    H241263   8.178   2.792   6.378
13796TIP3   OH241264   8.279   2.371   5.020
13796TIP3    H141265   8.268   2.371   5.115
13796TIP3    H241266   8.197   2.407   4.986
13797TIP3   OH241267   7.796   2.383   5.914
13797TIP3    H141268   7.863   2.427   5.965
13797TIP3    H241269   7.832   2.377   5.825
13798TIP3   OH241270   7.705   2.388   5.391
13798TIP3    H141271   7.752   2.423   5.315
13798TIP3    H241272   7.642   2.455   5.415
13799TIP3   OH241273   8.903   3.079   6.029
13799TIP3    H141274   8.933   3.014   5.965
13799TIP3    H241275   8.871   3.027   6.102
13800TIP3   OH241276   8.612   2.589   5.692
13800TIP3    H141277   8.530   2.575   5.740
13800TIP3    H241278   8.679   2.546   5.746
13801TIP3   OH241279   8.019   2.635   5.662
13801TIP3    H141280   7.930   2.637   5.629
13801TIP3    H241281   8.045   2.543   5.655
13802TIP3   OH241282   8.289   2.634   5.359
13802TIP3    H141283   8.379   2.646   5.330
13802TIP3    H241284   8.237   2.648   5.279
13803TIP3   OH241285   9.048   2.638   5.949
13803TIP3    H141286   9.037   2.652   6.043
13803TIP3    H241287   8.980   2.574   5.927
13804TIP3   OH241288   8.156   2.648   5.121
13804TIP3    H141289   8.095   2.594   5.070
13804TIP3    H241290   8.205   2.698   5.055
13805TIP3   OH241291   9.244   4.334   6.084
13805TIP3    H141292   9.242   4.352   5.990
13805TIP3    H241293   9.319   4.384   6.116
13806TIP3   OH241294   8.206   3.467   6.496
13806TIP3    H141295   8.287   3.479   6.545
13806TIP3    H241296   8.137   3.470   6.563
13807TIP3   OH241297   8.675   2.928   5.755
13807TIP3    H141298   8.741   2.889   5.698
13807TIP3    H241299   8.682   2.879   5.837
13808TIP3   OH241300   8.151   2.381   5.658
13808TIP3    H141301   8.123   2.308   5.713
13808TIP3    H241302   8.173   2.342   5.574
13809TIP3   OH241303   8.369   3.168   5.147
13809TIP3    H141304   8.294   3.115   5.121
13809TIP3    H241305   8.341   3.213   5.226
13810TIP3   OH241306   9.237   3.437   5.742
13810TIP3    H141307   9.280   3.471   5.663
13810TIP3    H241308   9.155   3.400   5.710
13811TIP3   OH241309   8.880   2.524   5.081
13811TIP3    H141310   8.802   2.470   5.072
13811TIP3    H241311   8.872   2.590   5.013
13812TIP3   OH241312   8.785   3.512   6.178
13812TIP3    H141313   8.836   3.491   6.257
13812TIP3    H241314   8.747   3.598   6.197
13813TIP3   OH241315   8.062   3.181   5.791
13813TIP3    H141316   8.102   3.164   5.706
13813TIP3    H241317   8.129   3.155   5.855
13814TIP3   OH241318   8.525   3.330   4.991
13814TIP3    H141319   8.478   3.413   4.989
13814TIP3    H241320   8.470   3.272   5.045
13815TIP3   OH241321   7.958   3.150   6.447
13815TIP3    H141322   7.994   3.149   6.535
13815TIP3    H241323   7.906   3.069   6.441
13816TIP3   OH241324   8.697   3.277   6.433
13816TIP3    H141325   8.646   3.251   6.356
13816TIP3    H241326   8.781   3.231   6.423
13817TIP3   OH241327   8.921   3.804   6.048
13817TIP3    H141328   8.826   3.792   6.053
13817TIP3    H241329   8.945   3.838   6.134
13818TIP3   OH241330   9.316   2.829   4.943
13818TIP3    H141331   9.241   2.783   4.907
13818TIP3    H241332   9.308   2.918   4.910
13819TIP3   OH241333   9.507   3.693   6.064
13819TIP3    H141334   9.412   3.684   6.053
13819TIP3    H241335   9.545   3.626   6.007
13820TIP3   OH241336   9.062   3.640   4.935
13820TIP3    H141337   9.015   3.606   5.010
13820TIP3    H241338   9.025   3.593   4.860
13821TIP3   OH241339   9.008   3.310   5.645
13821TIP3    H141340   8.922   3.289   5.683
13821TIP3    H241341   9.042   3.225   5.616
13822TIP3   OH241342   8.196   3.532   5.468
13822TIP3    H141343   8.187   3.607   5.408
13822TIP3    H241344   8.112   3.529   5.514
13823TIP3   OH241345   7.756   2.814   5.182
13823TIP3    H141346   7.797   2.897   5.204
13823TIP3    H241347   7.674   2.813   5.232
13824TIP3   OH241348   8.269   3.289   5.364
13824TIP3    H141349   8.254   3.378   5.397
13824TIP3    H241350   8.246   3.232   5.438
13825TIP3   OH241351   8.477   3.854   5.917
13825TIP3    H141352   8.512   3.929   5.869
13825TIP3    H241353   8.551   3.824   5.971
13826TIP3   OH241354   8.111   3.751   5.314
13826TIP3    H141355   8.024   3.757   5.353
13826TIP3    H241356   8.147   3.839   5.321
13827TIP3   OH241357   8.824   3.518   5.904
13827TIP3    H141358   8.806   3.515   5.998
13827TIP3    H241359   8.909   3.476   5.894
13828TIP3   OH241360   8.798   3.390   4.773
13828TIP3    H141361   8.839   3.352   4.851
13828TIP3    H241362   8.712   3.350   4.769
13829TIP3   OH241363   9.074   4.003   5.921
13829TIP3    H141364   9.008   3.938   5.943
13829TIP3    H241365   9.035   4.054   5.850
13830TIP3   OH241366   9.100   3.878   4.562
13830TIP3    H141367   9.152   3.954   4.535
13830TIP3    H241368   9.021   3.916   4.600
13831TIP3   OH241369   8.181   2.616   6.457
13831TIP3    H141370   8.088   2.597   6.466
13831TIP3    H241371   8.223   2.562   6.524
13832TIP3   OH241372   8.932   3.271   4.980
13832TIP3    H141373   8.909   3.206   5.047
13832TIP3    H241374   9.020   3.300   5.004
13833TIP3   OH241375   7.910   3.743   6.084
13833TIP3    H141376   7.962   3.681   6.136
13833TIP3    H241377   7.924   3.827   6.126
13834TIP3   OH241378   8.175   3.359   4.779
13834TIP3    H141379   8.186   3.267   4.753
13834TIP3    H241380   8.162   3.354   4.874
13835TIP3   OH241381   8.116   3.376   5.052
13835TIP3    H141382   8.173   3.352   5.124
13835TIP3    H241383   8.113   3.471   5.054
13836TIP3   OH241384   7.846   3.067   5.260
13836TIP3    H141385   7.782   3.116   5.312
13836TIP3    H241386   7.866   3.123   5.186
13837TIP3   OH241387   8.383   3.560   4.983
13837TIP3    H141388   8.299   3.583   5.022
13837TIP3    H241389   8.405   3.635   4.927
13838TIP3   OH241390   8.620   2.608   5.420
13838TIP3    H141391   8.666   2.687   5.391
13838TIP3    H241392   8.607   2.620   5.514
13839TIP3   OH241393   8.721   2.358   5.521
13839TIP3    H141394   8.770   2.376   5.601
13839TIP3    H241395   8.694   2.444   5.489
13840TIP3   OH241396   8.134   3.649   5.061
13840TIP3    H141397   8.113   3.721   5.002
13840TIP3    H241398   8.124   3.686   5.149
13841TIP3   OH241399   8.244   2.359   5.297
13841TIP3    H141400   8.229   2.447   5.330
13841TIP3    H241401   8.339   2.347   5.301
13842TIP3   OH241402   9.425   2.843   6.199
13842TIP3    H141403   9.332   2.829   6.183
13842TIP3    H241404   9.467   2.835   6.113
13843TIP3   OH241405   9.093   3.053   5.584
13843TIP3    H141406   9.018   2.996   5.597
13843TIP3    H241407   9.164   3.010   5.631
13844TIP3   OH241408   7.873   3.239   5.042
13844TIP3    H141409   7.945   3.302   5.051
13844TIP3    H241410   7.904   3.177   4.976
13845TIP3   OH241411   7.777   2.535   5.171
13845TIP3    H141412   7.790   2.630   5.182
13845TIP3    H241413   7.715   2.528   5.099
13846TIP3   OH241414   9.068   3.998   5.482
13846TIP3    H141415   9.022   4.056   5.422
13846TIP3    H241416   9.160   4.026   5.477
13847TIP3   OH241417   8.169   2.257   6.039
13847TIP3    H141418   8.140   2.221   5.955
13847TIP3    H241419   8.162   2.183   6.100
13848TIP3   OH241420   7.698   3.517   5.430
13848TIP3    H141421   7.655   3.552   5.508
13848TIP3    H241422   7.654   3.559   5.357
13849TIP3   OH241423   7.911   4.056   6.509
13849TIP3    H141424   7.993   4.062   6.558
13849TIP3    H241425   7.900   3.962   6.493
13850TIP3   OH241426   8.371   3.954   6.541
13850TIP3    H141427   8.460   3.922   6.553
13850TIP3    H241428   8.335   3.901   6.470
13851TIP3   OH241429   8.324   3.561   4.665
13851TIP3    H141430   8.277   3.492   4.712
13851TIP3    H241431   8.397   3.515   4.622
13852TIP3   OH241432   8.976   3.893   6.300
13852TIP3    H141433   8.989   3.822   6.362
13852TIP3    H241434   9.046   3.955   6.320
13853TIP3   OH241435   8.742   3.606   4.610
13853TIP3    H141436   8.781   3.543   4.671
13853TIP3    H241437   8.801   3.607   4.535
13854TIP3   OH241438   8.005   3.456   6.690
13854TIP3    H141439   8.025   3.363   6.699
13854TIP3    H241440   7.918   3.458   6.651
13855TIP3   OH241441   7.993   3.051   4.884
13855TIP3    H141442   8.042   3.026   4.962
13855TIP3    H241443   8.060   3.066   4.817
13856TIP3   OH241444   8.627   3.543   6.471
13856TIP3    H141445   8.580   3.561   6.389
13856TIP3    H241446   8.665   3.456   6.458
13857TIP3   OH241447   8.552   3.268   4.725
13857TIP3    H141448   8.531   3.280   4.818
13857TIP3    H241449   8.532   3.177   4.708
13858TIP3   OH241450   9.081   3.575   6.089
13858TIP3    H141451   9.154   3.601   6.033
13858TIP3    H241452   9.016   3.643   6.078
13859TIP3   OH241453   8.117   3.198   6.682
13859TIP3    H141454   8.196   3.180   6.631
13859TIP3    H241455   8.148   3.210   6.772
13860TIP3   OH241456   8.160   2.993   5.100
13860TIP3    H141457   8.139   2.964   5.189
13860TIP3    H241458   8.207   2.919   5.061
13861TIP3   OH241459   8.424   3.025   6.301
13861TIP3    H141460   8.363   3.088   6.340
13861TIP3    H241461   8.493   3.080   6.262
13862TIP3   OH241462   8.296   2.806   4.946
13862TIP3    H141463   8.264   2.813   4.856
13862TIP3    H241464   8.392   2.810   4.938
13863TIP3   OH241465   8.965   3.448   6.428
13863TIP3    H141466   9.036   3.413   6.373
13863TIP3    H241467   8.964   3.391   6.505
13864TIP3   OH241468   9.044   3.118   4.650
13864TIP3    H141469   9.034   3.071   4.567
13864TIP3    H241470   9.020   3.208   4.630
13865TIP3   OH241471   8.589   2.841   6.439
13865TIP3    H141472   8.635   2.783   6.379
13865TIP3    H241473   8.538   2.899   6.382
13866TIP3   OH241474   8.602   3.201   6.181
13866TIP3    H141475   8.689   3.206   6.142
13866TIP3    H241476   8.546   3.250   6.122
13867TIP3   OH241477   9.183   3.129   6.500
13867TIP3    H141478   9.172   3.035   6.485
13867TIP3    H241479   9.273   3.148   6.473
13868TIP3   OH241480   9.193   3.395   6.260
13868TIP3    H141481   9.147   3.459   6.206
13868TIP3    H241482   9.284   3.399   6.231
13869TIP3   OH241483   8.481   2.919   6.689
13869TIP3    H141484   8.413   2.854   6.707
13869TIP3    H241485   8.511   2.897   6.601
13870TIP3   OH241486   8.696   2.411   6.369
13870TIP3    H141487   8.708   2.494   6.324
13870TIP3    H241488   8.621   2.370   6.325
13871TIP3   OH241489   8.856   2.889   6.545
13871TIP3    H141490   8.830   2.874   6.636
13871TIP3    H241491   8.784   2.854   6.493
13872TIP3   OH241492   9.115   2.872   6.437
13872TIP3    H141493   9.030   2.855   6.477
13872TIP3    H241494   9.177   2.822   6.491
13873TIP3   OH241495   9.330   2.783   6.591
13873TIP3    H141496   9.336   2.689   6.607
13873TIP3    H241497   9.320   2.822   6.678
13874TIP3   OH241498   8.303   2.715   6.772
13874TIP3    H141499   8.310   2.629   6.732
13874TIP3    H241500   8.345   2.706   6.858
13875TIP3   OH241501   8.779   2.389   6.626
13875TIP3    H141502   8.847   2.322   6.616
13875TIP3    H241503   8.745   2.402   6.538
13876TIP3   OH241504   8.879   2.600   6.775
13876TIP3    H141505   8.850   2.530   6.716
13876TIP3    H241506   8.813   2.668   6.766
13877TIP3   OH241507   8.130   3.863   4.883
13877TIP3    H141508   8.218   3.839   4.854
13877TIP3    H241509   8.091   3.908   4.808
13878TIP3   OH241510   7.599   3.247   5.045
13878TIP3    H141511   7.695   3.254   5.049
13878TIP3    H241512   7.583   3.160   5.010
13879TIP3   OH241513   7.504   3.824   5.523
13879TIP3    H141514   7.440   3.770   5.476
13879TIP3    H241515   7.548   3.763   5.582
13880TIP3   OH241516   7.650   3.654   5.686
13880TIP3    H141517   7.641   3.583   5.750
13880TIP3    H241518   7.702   3.720   5.731
13881TIP3   OH241519   9.320   4.105   5.498
13881TIP3    H141520   9.335   4.099   5.592
13881TIP3    H241521   9.353   4.191   5.473
13882TIP3   OH241522   9.383   4.121   5.763
13882TIP3    H141523   9.377   4.044   5.820
13882TIP3    H241524   9.476   4.142   5.760
13883TIP3   OH241525   9.395   3.807   6.337
13883TIP3    H141526   9.333   3.808   6.410
13883TIP3    H241527   9.429   3.897   6.334
13884TIP3   OH241528   9.188   3.325   5.069
13884TIP3    H141529   9.257   3.324   5.003
13884TIP3    H241530   9.196   3.411   5.111
13885TIP3   OH241531   9.380   3.171   5.207
13885TIP3    H141532   9.296   3.211   5.183
13885TIP3    H241533   9.380   3.172   5.302
13886TIP3   OH241534   9.399   3.532   5.541
13886TIP3    H141535   9.423   3.490   5.458
13886TIP3    H241536   9.382   3.623   5.518
13887TIP3   OH241537   9.232   3.847   5.740
13887TIP3    H141538   9.186   3.904   5.801
13887TIP3    H241539   9.164   3.804   5.689
13888TIP3   OH241540   9.249   3.064   4.825
13888TIP3    H141541   9.166   3.087   4.783
13888TIP3    H241542   9.283   3.147   4.859
13889TIP3   OH241543   9.121   2.716   4.788
13889TIP3    H141544   9.058   2.748   4.724
13889TIP3    H241545   9.113   2.621   4.784
13890TIP3   OH241546   9.157   2.996   5.321
13890TIP3    H141547   9.245   2.959   5.327
13890TIP3    H241548   9.140   3.032   5.409
13891TIP3   OH241549   7.820   3.093   6.074
13891TIP3    H141550   7.813   3.059   5.984
13891TIP3    H241551   7.914   3.085   6.094
13892TIP3   OH241552   9.459   3.408   6.179
13892TIP3    H141553   9.523   3.346   6.214
13892TIP3    H241554   9.495   3.436   6.095
13893TIP3   OH241555   9.634   3.222   6.282
13893TIP3    H141556   9.553   3.170   6.279
13893TIP3    H241557   9.703   3.160   6.260
13894TIP3   OH241558   9.084   2.445   4.779
13894TIP3    H141559   9.143   2.370   4.775
13894TIP3    H241560   8.998   2.407   4.795
13895TIP3   OH241561   9.309   2.882   5.676
13895TIP3    H141562   9.390   2.922   5.646
13895TIP3    H241563   9.293   2.921   5.762
13896TIP3   OH241564   9.298   3.022   5.905
13896TIP3    H141565   9.251   3.060   5.978
13896TIP3    H241566   9.366   3.086   5.884
13897TIP3   OH241567   8.036   2.761   6.701
13897TIP3    H141568   8.130   2.761   6.716
13897TIP3    H241569   8.005   2.681   6.743
13898TIP3   OH241570   9.190   2.485   5.271
13898TIP3    H141571   9.229   2.537   5.342
13898TIP3    H241572   9.255   2.418   5.253
13899TIP3   OH241573   8.005   2.478   6.074
13899TIP3    H141574   8.061   2.400   6.075
13899TIP3    H241575   8.066   2.551   6.057
13900TIP3   OH241576   7.788   2.747   6.115
13900TIP3    H141577   7.841   2.739   6.036
13900TIP3    H241578   7.822   2.824   6.159
13901TIP3   OH241579   9.700   2.781   6.261
13901TIP3    H141580   9.628   2.824   6.307
13901TIP3    H241581   9.657   2.710   6.213
13902TIP3   OH241582   9.412   2.368   4.867
13902TIP3    H141583   9.507   2.352   4.866
13902TIP3    H241584   9.404   2.461   4.846
13903TIP3   OH241585   7.784   2.260   5.620
13903TIP3    H141586   7.699   2.246   5.662
13903TIP3    H241587   7.765   2.313   5.543
13904TIP3   OH241588   8.937   3.979   5.144
13904TIP3    H141589   8.987   3.970   5.062
13904TIP3    H241590   8.972   4.057   5.185
13905TIP3   OH241591   8.016   2.332   6.461
13905TIP3    H141592   7.961   2.317   6.538
13905TIP3    H241593   7.956   2.368   6.395
13906TIP3   OH241594   8.033   3.777   6.513
13906TIP3    H141595   7.940   3.753   6.508
13906TIP3    H241596   8.057   3.760   6.604
13907TIP3   OH241597   8.250   3.816   6.066
13907TIP3    H141598   8.200   3.892   6.036
13907TIP3    H241599   8.335   3.824   6.022
13908TIP3   OH241600   8.642   4.053   6.210
13908TIP3    H141601   8.680   4.043   6.298
13908TIP3    H241602   8.707   4.103   6.161
13909TIP3   OH241603   8.838   4.199   6.080
13909TIP3    H141604   8.903   4.144   6.037
13909TIP3    H241605   8.889   4.259   6.135
13910TIP3   OH241606   9.567   2.551   6.170
13910TIP3    H141607   9.485   2.581   6.129
13910TIP3    H241608   9.578   2.462   6.139
13911TIP3   OH241609   7.912   4.060   6.117
13911TIP3    H141610   7.820   4.077   6.096
13911TIP3    H241611   7.934   4.126   6.183
13912TIP3   OH241612   8.143   4.051   5.968
13912TIP3    H141613   8.060   4.054   6.015
13912TIP3    H241614   8.119   4.072   5.877
13913TIP3   OH241615   8.545   4.071   5.759
13913TIP3    H141616   8.471   4.083   5.699
13913TIP3    H241617   8.557   4.157   5.799
13914TIP3   OH241618   8.800   3.986   5.801
13914TIP3    H141619   8.710   4.014   5.784
13914TIP3    H241620   8.854   4.054   5.760
13915TIP3   OH241621   8.993   4.154   5.700
13915TIP3    H141622   9.000   4.245   5.671
13915TIP3    H241623   9.017   4.102   5.624
13916TIP3   OH241624   7.825   3.830   5.834
13916TIP3    H141625   7.852   3.806   5.922
13916TIP3    H241626   7.895   3.798   5.778
13917TIP3   OH241627   8.026   3.717   5.689
13917TIP3    H141628   8.037   3.632   5.731
13917TIP3    H241629   8.113   3.758   5.696
13918TIP3   OH241630   8.294   3.803   5.716
13918TIP3    H141631   8.313   3.710   5.701
13918TIP3    H241632   8.348   3.827   5.790
13919TIP3   OH241633   8.835   2.404   5.767
13919TIP3    H141634   8.803   2.347   5.837
13919TIP3    H241635   8.927   2.379   5.756
13920TIP3   OH241636   9.409   2.361   5.715
13920TIP3    H141637   9.420   2.400   5.629
13920TIP3    H241638   9.316   2.371   5.735
13921TIP3   OH241639   9.432   2.415   5.446
13921TIP3    H141640   9.514   2.379   5.414
13921TIP3    H241641   9.439   2.509   5.431
13922TIP3   OH241642   8.084   2.150   5.798
13922TIP3    H141643   7.996   2.114   5.808
13922TIP3    H241644   8.141   2.074   5.791
13923TIP3   OH241645   7.919   2.069   5.457
13923TIP3    H141646   7.942   2.117   5.378
13923TIP3    H241647   7.880   2.135   5.514
13924TIP3   OH241648   8.559   2.202   5.695
13924TIP3    H141649   8.605   2.261   5.636
13924TIP3    H241650   8.594   2.222   5.781
13925TIP3   OH241651   9.111   2.323   5.688
13925TIP3    H141652   9.145   2.277   5.611
13925TIP3    H241653   9.095   2.254   5.752
13926TIP3   OH241654   8.988   2.267   5.212
13926TIP3    H141655   8.952   2.207   5.147
13926TIP3    H241656   9.016   2.211   5.284
13927TIP3   OH241657   7.581   3.635   5.210
13927TIP3    H141658   7.497   3.604   5.177
13927TIP3    H241659   7.587   3.726   5.180
13928TIP3   OH241660   8.024   2.195   5.215
13928TIP3    H141661   8.067   2.130   5.159
13928TIP3    H241662   8.096   2.249   5.247
13929TIP3   OH241663   8.523   2.383   5.294
13929TIP3    H141664   8.558   2.314   5.350
13929TIP3    H241665   8.551   2.464   5.337
13930TIP3   OH241666   8.382   3.784   4.811
13930TIP3    H141667   8.463   3.816   4.773
13930TIP3    H241668   8.354   3.713   4.753
13931TIP3   OH241669   9.070   3.924   4.906
13931TIP3    H141670   9.072   3.828   4.903
13931TIP3    H241671   9.023   3.949   4.827
13932TIP3   OH241672   8.318   2.448   6.672
13932TIP3    H141673   8.285   2.382   6.733
13932TIP3    H241674   8.411   2.455   6.693
13933TIP3   OH241675   8.565   2.445   6.799
13933TIP3    H141676   8.641   2.425   6.745
13933TIP3    H241677   8.563   2.375   6.864
13934TIP3   OH241678   7.702   3.627   4.869
13934TIP3    H141679   7.701   3.633   4.964
13934TIP3    H241680   7.782   3.579   4.848
13935TIP3   OH241681   9.384   2.511   6.607
13935TIP3    H141682   9.410   2.479   6.693
13935TIP3    H241683   9.464   2.505   6.555
13936TIP3   OH241684   9.253   4.061   6.122
13936TIP3    H141685   9.186   4.037   6.057
13936TIP3    H241686   9.258   4.156   6.116
13937TIP3   OH241687   9.425   2.903   5.192
13937TIP3    H141688   9.399   2.995   5.189
13937TIP3    H241689   9.381   2.863   5.117
13938TIP3   OH241690   9.688   3.169   5.354
13938TIP3    H141691   9.684   3.077   5.377
13938TIP3    H241692   9.640   3.176   5.272
13939TIP3   OH241693   9.531   3.540   4.837
13939TIP3    H141694   9.482   3.484   4.897
13939TIP3    H241695   9.590   3.591   4.894
13940TIP3   OH241696   9.630   3.648   5.669
13940TIP3    H141697   9.561   3.592   5.633
13940TIP3    H241698   9.710   3.596   5.663
13941TIP3   OH241699   9.381   3.803   5.483
13941TIP3    H141700   9.458   3.840   5.527
13941TIP3    H241701   9.308   3.827   5.540
13942TIP3   OH241702   9.649   3.980   5.012
13942TIP3    H141703   9.726   3.945   5.058
13942TIP3    H241704   9.598   3.903   4.988
13943TIP3   OH241705   9.740   3.810   5.859
13943TIP3    H141706   9.781   3.744   5.915
13943TIP3    H241707   9.689   3.759   5.795
13944TIP3   OH241708   9.466   2.677   5.383
13944TIP3    H141709   9.482   2.771   5.391
13944TIP3    H241710   9.478   2.658   5.290
13945TIP3   OH241711   0.013   3.230   5.994
13945TIP3    H141712   0.067   3.295   6.038
13945TIP3    H241713   0.005   3.261   5.904
13946TIP3   OH241714   9.515   3.181   4.638
13946TIP3    H141715   9.558   3.121   4.700
13946TIP3    H241716   9.442   3.130   4.603
13947TIP3   OH241717   9.604   3.917   5.600
13947TIP3    H141718   9.625   3.830   5.635
13947TIP3    H241719   9.622   3.977   5.672
13948TIP3   OH241720   9.447   3.800   4.968
13948TIP3    H141721   9.403   3.849   5.037
13948TIP3    H241722   9.400   3.825   4.888
13949TIP3   OH241723   9.687   4.399   6.003
13949TIP3    H141724   9.765   4.402   6.058
13949TIP3    H241725   9.649   4.313   6.018
13950TIP3   OH241726   0.016   3.609   6.024
13950TIP3    H141727   0.082   3.546   6.051
13950TIP3    H241728  -0.009   3.654   6.105
13951TIP3   OH241729   9.269   3.464   4.664
13951TIP3    H141730   9.338   3.523   4.633
13951TIP3    H241731   9.257   3.401   4.593
13952TIP3   OH241732   9.259   4.088   5.017
13952TIP3    H141733   9.200   4.036   4.963
13952TIP3    H241734   9.283   4.029   5.089
13953TIP3   OH241735   9.355   3.914   5.205
13953TIP3    H141736   9.326   3.858   5.277
13953TIP3    H241737   9.426   3.967   5.243
13954TIP3   OH241738   9.695   3.416   5.482
13954TIP3    H141739   9.688   3.334   5.434
13954TIP3    H241740   9.697   3.483   5.414
13955TIP3   OH241741   0.016   3.029   6.215
13955TIP3    H141742   0.030   3.050   6.123
13955TIP3    H241743  -0.015   2.938   6.215
13956TIP3   OH241744   9.572   2.967   5.636
13956TIP3    H141745   9.637   2.899   5.654
13956TIP3    H241746   9.599   3.041   5.690
13957TIP3   OH241747   9.522   2.583   5.133
13957TIP3    H141748   9.474   2.511   5.094
13957TIP3    H241749   9.614   2.559   5.123
13958TIP3   OH241750   0.045   4.014   6.004
13958TIP3    H141751   0.015   3.951   5.937
13958TIP3    H241752   0.086   3.959   6.071
13959TIP3   OH241753   9.677   4.317   5.548
13959TIP3    H141754   9.586   4.345   5.533
13959TIP3    H241755   9.672   4.260   5.625
13960TIP3   OH241756   0.114   4.259   5.428
13960TIP3    H141757   0.031   4.280   5.471
13960TIP3    H241758   0.117   4.318   5.352
13961TIP3   OH241759   9.562   4.041   5.337
13961TIP3    H141760   9.518   4.034   5.422
13961TIP3    H241761   9.654   4.024   5.356
13962TIP3   OH241762   0.032   3.847   5.175
13962TIP3    H141763   0.101   3.781   5.183
13962TIP3    H241764   0.064   3.921   5.227
13963TIP3   OH241765   9.332   3.865   4.726
13963TIP3    H141766   9.251   3.887   4.681
13963TIP3    H241767   9.390   3.940   4.711
13964TIP3   OH241768   9.490   3.934   4.343
13964TIP3    H141769   9.527   3.985   4.415
13964TIP3    H241770   9.560   3.873   4.319
13965TIP3   OH241771   1.237   3.988   7.036
13965TIP3    H141772   1.198   4.073   7.018
13965TIP3    H241773   1.168   3.925   7.016
13966TIP3   OH241774   1.235   3.968   7.461
13966TIP3    H141775   1.292   3.950   7.535
13966TIP3    H241776   1.194   3.884   7.442
13967TIP3   OH241777   0.573   3.880   7.853
13967TIP3    H141778   0.608   3.806   7.901
13967TIP3    H241779   0.628   3.887   7.775
13968TIP3   OH241780   1.502   4.297   7.141
13968TIP3    H141781   1.487   4.230   7.208
13968TIP3    H241782   1.533   4.373   7.190
13969TIP3   OH241783   0.591   4.265   7.477
13969TIP3    H141784   0.576   4.170   7.473
13969TIP3    H241785   0.683   4.275   7.450
13970TIP3   OH241786   0.039   3.521   7.273
13970TIP3    H141787   0.037   3.591   7.338
13970TIP3    H241788   0.009   3.443   7.322
13971TIP3   OH241789   0.316   3.788   7.555
13971TIP3    H141790   0.374   3.714   7.575
13971TIP3    H241791   0.336   3.809   7.463
13972TIP3   OH241792   1.193   4.701   7.156
13972TIP3    H141793   1.206   4.638   7.085
13972TIP3    H241794   1.199   4.649   7.236
13973TIP3   OH241795   1.071   4.194   7.469
13973TIP3    H141796   1.113   4.111   7.447
13973TIP3    H241797   1.143   4.251   7.496
13974TIP3   OH241798   2.082   3.526   7.484
13974TIP3    H141799   2.099   3.611   7.525
13974TIP3    H241800   2.124   3.533   7.398
13975TIP3   OH241801   1.473   3.701   7.463
13975TIP3    H141802   1.496   3.615   7.498
13975TIP3    H241803   1.414   3.683   7.390
13976TIP3   OH241804   0.837   3.346   7.455
13976TIP3    H141805   0.816   3.421   7.400
13976TIP3    H241806   0.785   3.275   7.419
13977TIP3   OH241807   1.496   3.441   7.102
13977TIP3    H141808   1.563   3.427   7.170
13977TIP3    H241809   1.544   3.480   7.029
13978TIP3   OH241810   0.441   3.555   7.630
13978TIP3    H141811   0.530   3.522   7.637
13978TIP3    H241812   0.405   3.513   7.552
13979TIP3   OH241813   0.866   3.764   7.424
13979TIP3    H141814   0.961   3.752   7.425
13979TIP3    H241815   0.832   3.684   7.382
13980TIP3   OH241816   2.152   3.750   7.646
13980TIP3    H141817   2.067   3.794   7.637
13980TIP3    H241818   2.190   3.787   7.725
13981TIP3   OH241819   0.802   3.342   7.897
13981TIP3    H141820   0.749   3.375   7.824
13981TIP3    H241821   0.751   3.363   7.975
13982TIP3   OH241822   1.094   4.195   6.926
13982TIP3    H141823   1.091   4.191   6.830
13982TIP3    H241824   1.054   4.279   6.947
13983TIP3   OH241825   0.890   4.124   7.666
13983TIP3    H141826   0.838   4.197   7.701
13983TIP3    H241827   0.941   4.163   7.595
13984TIP3   OH241828   1.673   3.427   7.312
13984TIP3    H141829   1.625   3.433   7.394
13984TIP3    H241830   1.750   3.482   7.326
13985TIP3   OH241831   0.692   3.447   7.671
13985TIP3    H141832   0.747   3.523   7.692
13985TIP3    H241833   0.736   3.406   7.597
13986TIP3   OH241834   0.738   4.324   7.780
13986TIP3    H141835   0.725   4.415   7.755
13986TIP3    H241836   0.662   4.303   7.835
13987TIP3   OH241837   0.140   3.948   7.062
13987TIP3    H141838   0.068   3.964   7.001
13987TIP3    H241839   0.181   4.034   7.073
13988TIP3   OH241840   1.546   4.548   7.281
13988TIP3    H141841   1.454   4.537   7.308
13988TIP3    H241842   1.546   4.632   7.234
13989TIP3   OH241843   1.896   3.392   7.647
13989TIP3    H141844   1.820   3.451   7.646
13989TIP3    H241845   1.956   3.430   7.583
13990TIP3   OH241846   1.139   3.044   7.624
13990TIP3    H141847   1.132   2.952   7.648
13990TIP3    H241848   1.061   3.085   7.661
13991TIP3   OH241849   1.250   4.561   6.920
13991TIP3    H141850   1.301   4.481   6.912
13991TIP3    H241851   1.311   4.631   6.898
13992TIP3   OH241852   1.406   4.343   6.886
13992TIP3    H141853   1.422   4.266   6.832
13992TIP3    H241854   1.441   4.319   6.972
13993TIP3   OH241855   1.794   4.408   7.613
13993TIP3    H141856   1.768   4.340   7.550
13993TIP3    H241857   1.783   4.490   7.565
13994TIP3   OH241858   1.068   3.821   6.885
13994TIP3    H141859   0.993   3.878   6.866
13994TIP3    H241860   1.119   3.821   6.805
13995TIP3   OH241861   1.035   3.632   6.572
13995TIP3    H141862   1.097   3.681   6.625
13995TIP3    H241863   1.088   3.564   6.530
13996TIP3   OH241864   1.423   3.916   6.849
13996TIP3    H141865   1.366   3.944   6.921
13996TIP3    H241866   1.502   3.885   6.893
13997TIP3   OH241867   1.650   3.947   7.802
13997TIP3    H141868   1.639   4.028   7.851
13997TIP3    H241869   1.571   3.941   7.748
13998TIP3   OH241870   0.665   3.886   7.270
13998TIP3    H141871   0.637   3.825   7.201
13998TIP3    H241872   0.739   3.842   7.311
13999TIP3   OH241873   0.843   4.324   7.380
13999TIP3    H141874   0.821   4.306   7.289
13999TIP3    H241875   0.926   4.279   7.395
14000TIP3   OH241876   0.754   3.889   7.639
14000TIP3    H141877   0.792   3.850   7.561
14000TIP3    H241878   0.803   3.971   7.652
14001TIP3   OH241879   1.295   4.527   7.395
14001TIP3    H141880   1.301   4.605   7.451
14001TIP3    H241881   1.293   4.454   7.456
14002TIP3   OH241882   0.937   4.419   7.946
14002TIP3    H141883   0.878   4.482   7.988
14002TIP3    H241884   0.882   4.371   7.885
14003TIP3   OH241885   1.257   3.774   6.681
14003TIP3    H141886   1.317   3.832   6.727
14003TIP3    H241887   1.287   3.775   6.590
14004TIP3   OH241888   3.989   8.637   0.049
14004TIP3    H141889   3.970   8.729   0.069
14004TIP3    H241890   3.920   8.611  -0.012
14005TIP3   OH241891   0.993   4.454   6.951
14005TIP3    H141892   1.080   4.494   6.949
14005TIP3    H241893   0.937   4.515   6.902
14006TIP3   OH241894   4.011   9.214   0.031
14006TIP3    H141895   3.986   9.224  -0.061
14006TIP3    H241896   3.929   9.197   0.076
14007TIP3   OH241897   1.766   2.999   6.742
14007TIP3    H141898   1.691   3.022   6.797
14007TIP3    H241899   1.777   3.074   6.684
14008TIP3   OH241900   0.560   3.734   7.058
14008TIP3    H141901   0.496   3.783   7.006
14008TIP3    H241902   0.508   3.669   7.105
14009TIP3   OH241903   1.598   4.368   6.304
14009TIP3    H141904   1.591   4.459   6.277
14009TIP3    H241905   1.688   4.343   6.280
14010TIP3   OH241906   3.586   8.800   0.077
14010TIP3    H141907   3.523   8.800   0.004
14010TIP3    H241908   3.601   8.707   0.095
14011TIP3   OH241909   2.015   4.789   7.694
14011TIP3    H141910   2.025   4.694   7.701
14011TIP3    H241911   1.932   4.808   7.739
14012TIP3   OH241912   1.134   4.564   7.823
14012TIP3    H141913   1.122   4.654   7.855
14012TIP3    H241914   1.065   4.514   7.866
14013TIP3   OH241915   0.883   4.660   6.778
14013TIP3    H141916   0.807   4.644   6.723
14013TIP3    H241917   0.875   4.752   6.804
14014TIP3   OH241918   0.478   4.456   7.184
14014TIP3    H141919   0.496   4.497   7.268
14014TIP3    H241920   0.396   4.409   7.197
14015TIP3   OH241921   1.128   4.604   6.393
14015TIP3    H141922   1.175   4.525   6.365
14015TIP3    H241923   1.151   4.614   6.486
14016TIP3   OH241924   1.138   4.639   6.670
14016TIP3    H141925   1.048   4.643   6.701
14016TIP3    H241926   1.187   4.599   6.742
14017TIP3   OH241927   1.886   3.930   7.974
14017TIP3    H141928   1.810   3.932   7.916
14017TIP3    H241929   1.910   3.838   7.978
14018TIP3   OH241930   3.810   8.921  -0.025
14018TIP3    H141931   3.859   8.924   0.057
14018TIP3    H241932   3.727   8.881  -0.002
14019TIP3   OH241933   0.903   3.139   7.734
14019TIP3    H141934   0.817   3.106   7.706
14019TIP3    H241935   0.883   3.217   7.785
14020TIP3   OH241936   1.457   3.265   7.957
14020TIP3    H141937   1.531   3.237   8.009
14020TIP3    H241938   1.381   3.227   8.001
14021TIP3   OH241939   1.663   3.676   7.862
14021TIP3    H141940   1.618   3.673   7.946
14021TIP3    H241941   1.653   3.767   7.833
14022TIP3   OH241942   1.335   3.741   6.418
14022TIP3    H141943   1.292   3.748   6.333
14022TIP3    H241944   1.419   3.787   6.407
14023TIP3   OH241945   1.036   3.179   6.738
14023TIP3    H141946   1.007   3.183   6.829
14023TIP3    H241947   1.002   3.095   6.707
14024TIP3   OH241948   0.840   3.661   7.771
14024TIP3    H141949   0.798   3.668   7.857
14024TIP3    H241950   0.816   3.742   7.726
14025TIP3   OH241951   0.742   3.556   7.300
14025TIP3    H141952   0.661   3.520   7.336
14025TIP3    H241953   0.746   3.522   7.211
14026TIP3   OH241954   1.188   3.614   7.018
14026TIP3    H141955   1.142   3.689   6.979
14026TIP3    H241956   1.249   3.586   6.951
14027TIP3   OH241957   4.654   8.542   0.048
14027TIP3    H141958   4.619   8.475   0.106
14027TIP3    H241959   4.745   8.552   0.074
14028TIP3   OH241960   1.315   3.593   7.261
14028TIP3    H141961   1.263   3.620   7.186
14028TIP3    H241962   1.378   3.530   7.225
14029TIP3   OH241963   3.964   8.307   0.002
14029TIP3    H141964   4.009   8.347   0.077
14029TIP3    H241965   3.938   8.220   0.034
14030TIP3   OH241966   0.700   3.159   6.715
14030TIP3    H141967   0.697   3.170   6.810
14030TIP3    H241968   0.639   3.225   6.681
14031TIP3   OH241969   0.235   3.223   7.564
14031TIP3    H141970   0.302   3.245   7.629
14031TIP3    H241971   0.273   3.153   7.512
14032TIP3   OH241972   0.299   3.361   7.125
14032TIP3    H141973   0.369   3.341   7.063
14032TIP3    H241974   0.219   3.361   7.073
14033TIP3   OH241975   1.409   3.881   7.664
14033TIP3    H141976   1.437   3.819   7.598
14033TIP3    H241977   1.363   3.828   7.730
14034TIP3   OH241978   1.092   3.323   7.342
14034TIP3    H141979   1.015   3.329   7.399
14034TIP3    H241980   1.166   3.321   7.402
14035TIP3   OH241981   0.540   3.403   7.386
14035TIP3    H141982   0.445   3.411   7.378
14035TIP3    H241983   0.559   3.312   7.361
14036TIP3   OH241984   0.739   3.413   7.066
14036TIP3    H141985   0.834   3.423   7.058
14036TIP3    H241986   0.704   3.434   6.980
14037TIP3   OH241987   1.511   3.437   7.539
14037TIP3    H141988   1.498   3.453   7.632
14037TIP3    H241989   1.445   3.372   7.516
14038TIP3   OH241990   0.626   3.436   6.824
14038TIP3    H141991   0.534   3.413   6.808
14038TIP3    H241992   0.654   3.478   6.743
14039TIP3   OH241993   1.729   5.138   7.775
14039TIP3    H141994   1.730   5.141   7.679
14039TIP3    H241995   1.811   5.181   7.801
14040TIP3   OH241996   3.945   8.911   0.212
14040TIP3    H141997   4.031   8.916   0.253
14040TIP3    H241998   3.905   8.997   0.230
14041TIP3   OH241999   1.135   3.702   7.448
14041TIP3    H142000   1.193   3.652   7.390
14041TIP3    H242001   1.134   3.652   7.530
14042TIP3   OH242002   0.670   3.160   7.330
14042TIP3    H142003   0.639   3.085   7.381
14042TIP3    H242004   0.704   3.123   7.249
14043TIP3   OH242005   1.102   3.598   7.705
14043TIP3    H142006   1.016   3.632   7.728
14043TIP3    H242007   1.163   3.650   7.757
14044TIP3   OH242008   0.850   3.984   6.822
14044TIP3    H142009   0.784   3.916   6.804
14044TIP3    H242010   0.832   4.011   6.912
14045TIP3   OH242011   1.711   4.225   7.428
14045TIP3    H142012   1.770   4.151   7.420
14045TIP3    H242013   1.625   4.191   7.403
14046TIP3   OH242014   1.292   3.277   6.743
14046TIP3    H142015   1.198   3.260   6.738
14046TIP3    H242016   1.299   3.372   6.755
14047TIP3   OH242017   1.264   4.296   7.848
14047TIP3    H142018   1.312   4.279   7.929
14047TIP3    H242019   1.225   4.382   7.861
14048TIP3   OH242020   1.356   3.541   6.807
14048TIP3    H142021   1.451   3.544   6.821
14048TIP3    H242022   1.337   3.620   6.756
14049TIP3   OH242023   0.539   3.996   7.488
14049TIP3    H142024   0.562   3.958   7.404
14049TIP3    H242025   0.597   3.954   7.551
14050TIP3   OH242026   1.017   4.122   6.650
14050TIP3    H142027   0.975   4.208   6.649
14050TIP3    H242028   0.963   4.070   6.710
14051TIP3   OH242029   3.648   8.538   0.123
14051TIP3    H142030   3.710   8.490   0.178
14051TIP3    H242031   3.630   8.480   0.050
14052TIP3   OH242032   4.419   8.674   0.106
14052TIP3    H142033   4.356   8.611   0.073
14052TIP3    H242034   4.503   8.645   0.072
14053TIP3   OH242035   1.398   4.596   7.736
14053TIP3    H142036   1.305   4.574   7.742
14053TIP3    H242037   1.419   4.634   7.821
14054TIP3   OH242038   1.764   3.631   6.632
14054TIP3    H142039   1.706   3.587   6.570
14054TIP3    H242040   1.772   3.720   6.598
14055TIP3   OH242041   2.036   4.517   7.705
14055TIP3    H142042   1.946   4.484   7.712
14055TIP3    H242043   2.070   4.477   7.625
14056TIP3   OH242044   1.511   4.444   6.560
14056TIP3    H142045   1.491   4.369   6.617
14056TIP3    H242046   1.539   4.404   6.478
14057TIP3   OH242047   1.472   4.096   7.344
14057TIP3    H142048   1.384   4.063   7.362
14057TIP3    H242049   1.518   4.021   7.306
14058TIP3   OH242050   0.715   4.308   7.138
14058TIP3    H142051   0.747   4.371   7.074
14058TIP3    H242052   0.624   4.335   7.154
14059TIP3   OH242053   0.233   3.602   6.812
14059TIP3    H142054   0.281   3.684   6.815
14059TIP3    H242055   0.145   3.624   6.842
14060TIP3   OH242056   0.761   4.049   7.067
14060TIP3    H142057   0.748   4.140   7.092
14060TIP3    H242058   0.727   3.999   7.141
14061TIP3   OH242059   0.964   4.656   7.618
14061TIP3    H142060   1.007   4.731   7.576
14061TIP3    H242061   1.033   4.616   7.671
14062TIP3   OH242062   0.655   4.535   6.986
14062TIP3    H142063   0.583   4.507   7.043
14062TIP3    H242064   0.643   4.629   6.976
14063TIP3   OH242065   1.304   4.306   7.572
14063TIP3    H142066   1.296   4.299   7.667
14063TIP3    H242067   1.380   4.252   7.551
14064TIP3   OH242068   1.280   4.177   6.484
14064TIP3    H142069   1.339   4.167   6.559
14064TIP3    H242070   1.194   4.154   6.520
14065TIP3   OH242071   1.552   4.809   7.629
14065TIP3    H142072   1.483   4.744   7.641
14065TIP3    H242073   1.522   4.863   7.556
14066TIP3   OH242074   1.587   4.638   6.250
14066TIP3    H142075   1.599   4.691   6.171
14066TIP3    H242076   1.520   4.686   6.300
14067TIP3   OH242077   3.899   8.057   0.095
14067TIP3    H142078   3.804   8.050   0.093
14067TIP3    H242079   3.927   8.004   0.169
14068TIP3   OH242080   1.461   4.140   6.690
14068TIP3    H142081   1.442   4.063   6.744
14068TIP3    H242082   1.554   4.131   6.668
14069TIP3   OH242083   0.448   4.504   7.814
14069TIP3    H142084   0.420   4.438   7.750
14069TIP3    H242085   0.486   4.454   7.885
14070TIP3   OH242086   0.651   4.134   6.453
14070TIP3    H142087   0.668   4.042   6.433
14070TIP3    H242088   0.650   4.137   6.549
14071TIP3   OH242089   0.652   4.170   6.721
14071TIP3    H142090   0.726   4.141   6.774
14071TIP3    H242091   0.648   4.265   6.734
14072TIP3   OH242092   0.343   3.838   6.912
14072TIP3    H142093   0.270   3.870   6.966
14072TIP3    H242094   0.375   3.915   6.867
14073TIP3   OH242095   1.468   3.490   7.803
14073TIP3    H142096   1.548   3.537   7.830
14073TIP3    H242097   1.465   3.414   7.861
14074TIP3   OH242098   1.356   3.222   7.008
14074TIP3    H142099   1.335   3.243   6.917
14074TIP3    H242100   1.397   3.302   7.042
14075TIP3   OH242101   0.893   4.362   6.656
14075TIP3    H142102   0.808   4.385   6.693
14075TIP3    H242103   0.916   4.436   6.600
14076TIP3   OH242104   1.013   3.421   7.096
14076TIP3    H142105   1.071   3.491   7.067
14076TIP3    H242106   1.043   3.400   7.185
14077TIP3   OH242107   1.304   3.711   7.857
14077TIP3    H142108   1.335   3.757   7.935
14077TIP3    H242109   1.357   3.632   7.853
14078TIP3   OH242110   1.173   3.111   7.182
14078TIP3    H142111   1.153   3.186   7.237
14078TIP3    H242112   1.244   3.141   7.125
14079TIP3   OH242113   0.640   4.444   6.731
14079TIP3    H142114   0.607   4.520   6.684
14079TIP3    H242115   0.639   4.470   6.823
14080TIP3   OH242116   0.692   3.145   7.000
14080TIP3    H142117   0.680   3.234   7.031
14080TIP3    H242118   0.787   3.132   6.999
14081TIP3   OH242119   1.936   3.669   7.874
14081TIP3    H142120   1.846   3.639   7.888
14081TIP3    H242121   1.932   3.717   7.791
14082TIP3   OH242122   1.622   3.861   7.275
14082TIP3    H142123   1.588   3.808   7.348
14082TIP3    H242124   1.708   3.891   7.305
14083TIP3   OH242125   0.409   4.073   6.789
14083TIP3    H142126   0.499   4.093   6.762
14083TIP3    H242127   0.365   4.045   6.709
14084TIP3   OH242128   0.366   3.324   6.855
14084TIP3    H142129   0.282   3.370   6.863
14084TIP3    H242130   0.343   3.240   6.816
14085TIP3   OH242131   1.571   4.815   7.195
14085TIP3    H142132   1.522   4.869   7.132
14085TIP3    H242133   1.662   4.837   7.179
14086TIP3   OH242134   0.643   3.048   7.708
14086TIP3    H142135   0.620   3.019   7.620
14086TIP3    H242136   0.624   2.973   7.764
14087TIP3   OH242137   0.258   4.191   7.083
14087TIP3    H142138   0.180   4.240   7.059
14087TIP3    H242139   0.328   4.230   7.030
14088TIP3   OH242140   7.390   0.145   0.217
14088TIP3    H142141   7.479   0.111   0.230
14088TIP3    H242142   7.353   0.089   0.149
14089TIP3   OH242143   0.805   4.332   6.348
14089TIP3    H142144   0.754   4.264   6.392
14089TIP3    H242145   0.880   4.286   6.310
14090TIP3   OH242146   7.977   0.080  -0.016
14090TIP3    H142147   7.990   0.007   0.044
14090TIP3    H242148   8.053   0.137  -0.001
14091TIP3   OH242149   1.233   4.375   6.294
14091TIP3    H142150   1.267   4.310   6.355
14091TIP3    H242151   1.290   4.367   6.217
14092TIP3   OH242152   3.652   8.907   0.327
14092TIP3    H142153   3.721   8.842   0.344
14092TIP3    H242154   3.621   8.886   0.239
14093TIP3   OH242155   0.501   3.861   6.602
14093TIP3    H142156   0.547   3.838   6.683
14093TIP3    H242157   0.569   3.861   6.535
14094TIP3   OH242158   4.363   8.944   0.143
14094TIP3    H142159   4.315   8.967   0.064
14094TIP3    H242160   4.398   8.857   0.127
14095TIP3   OH242161   0.983   4.054   6.384
14095TIP3    H142162   0.988   4.065   6.479
14095TIP3    H242163   0.978   3.959   6.371
14096TIP3   OH242164   1.568   4.374   7.773
14096TIP3    H142165   1.644   4.394   7.718
14096TIP3    H242166   1.505   4.444   7.752
14097TIP3   OH242167   3.841   8.432   0.295
14097TIP3    H142168   3.929   8.428   0.256
14097TIP3    H242169   3.856   8.415   0.388
14098TIP3   OH242170   0.671   3.776   6.803
14098TIP3    H142171   0.652   3.745   6.892
14098TIP3    H242172   0.704   3.699   6.757
14099TIP3   OH242173   0.957   3.871   8.006
14099TIP3    H142174   0.879   3.925   8.014
14099TIP3    H242175   0.998   3.899   7.924
14100TIP3   OH242176   0.764   3.581   6.629
14100TIP3    H142177   0.736   3.585   6.538
14100TIP3    H242178   0.859   3.593   6.626
14101TIP3   OH242179   4.694   8.865   0.088
14101TIP3    H142180   4.769   8.834   0.038
14101TIP3    H242181   4.698   8.816   0.170
14102TIP3   OH242182   1.551   3.884   6.323
14102TIP3    H142183   1.543   3.843   6.237
14102TIP3    H242184   1.526   3.975   6.309
14103TIP3   OH242185   4.304   8.236   0.090
14103TIP3    H142186   4.317   8.160   0.033
14103TIP3    H242187   4.281   8.307   0.030
14104TIP3   OH242188   1.066   3.408   7.908
14104TIP3    H142189   1.087   3.454   7.826
14104TIP3    H242190   0.973   3.388   7.901
14105TIP3   OH242191   1.084   3.971   7.791
14105TIP3    H142192   1.171   4.009   7.777
14105TIP3    H242193   1.025   4.029   7.743
14106TIP3   OH242194   4.907   8.546   0.151
14106TIP3    H142195   4.921   8.453   0.170
14106TIP3    H242196   4.995   8.581   0.137
14107TIP3   OH242197   1.671   4.194   7.945
14107TIP3    H142198   1.624   4.258   7.891
14107TIP3    H242199   1.761   4.198   7.913
14108TIP3   OH242200   4.104   8.396   0.240
14108TIP3    H142201   4.116   8.307   0.274
14108TIP3    H242202   4.178   8.409   0.180
14109TIP3   OH242203   1.184   3.171   7.986
14109TIP3    H142204   1.148   3.254   7.954
14109TIP3    H242205   1.111   3.109   7.978
14110TIP3   OH242206   4.533   8.347   0.187
14110TIP3    H142207   4.520   8.333   0.281
14110TIP3    H242208   4.457   8.305   0.146
14111TIP3   OH242209   4.795   8.261   0.088
14111TIP3    H142210   4.717   8.241   0.139
14111TIP3    H242211   4.864   8.210   0.129
14112TIP3   OH242212   5.038   8.168   0.180
14112TIP3    H142213   5.061   8.082   0.217
14112TIP3    H242214   5.046   8.229   0.253
14113TIP3   OH242215   4.039   8.165   0.390
14113TIP3    H142216   4.032   8.079   0.350
14113TIP3    H242217   3.970   8.166   0.456
14114TIP3   OH242218   4.464   7.834   0.250
14114TIP3    H142219   4.553   7.808   0.274
14114TIP3    H242220   4.458   7.815   0.156
14115TIP3   OH242221   4.637   8.075   0.269
14115TIP3    H142222   4.670   7.985   0.274
14115TIP3    H242223   4.542   8.065   0.265
14116TIP3   OH242224   0.664   4.690   6.588
14116TIP3    H142225   0.739   4.651   6.543
14116TIP3    H242226   0.604   4.713   6.517
14117TIP3   OH242227   9.760   4.020   6.858
14117TIP3    H142228   9.802   4.096   6.817
14117TIP3    H242229   9.668   4.026   6.832
14118TIP3   OH242230   1.829   4.905   7.182
14118TIP3    H142231   1.865   4.890   7.269
14118TIP3    H242232   1.905   4.901   7.124
14119TIP3   OH242233   1.880   4.865   7.457
14119TIP3    H142234   1.827   4.786   7.451
14119TIP3    H242235   1.947   4.845   7.522
14120TIP3   OH242236   5.174   9.207   0.017
14120TIP3    H142237   5.097   9.215   0.073
14120TIP3    H242238   5.224   9.287   0.033
14121TIP3   OH242239   1.730   4.101   6.644
14121TIP3    H142240   1.793   4.168   6.616
14121TIP3    H242241   1.772   4.057   6.717
14122TIP3   OH242242   1.837   3.943   6.842
14122TIP3    H142243   1.775   3.909   6.906
14122TIP3    H242244   1.911   3.976   6.893
14123TIP3   OH242245   1.913   4.376   7.288
14123TIP3    H142246   1.963   4.303   7.250
14123TIP3    H242247   1.832   4.336   7.319
14124TIP3   OH242248   1.721   4.639   7.477
14124TIP3    H142249   1.654   4.685   7.529
14124TIP3    H242250   1.672   4.600   7.404
14125TIP3   OH242251   1.765   3.870   6.494
14125TIP3    H142252   1.692   3.870   6.432
14125TIP3    H242253   1.752   3.950   6.546
14126TIP3   OH242254   1.607   3.517   6.437
14126TIP3    H142255   1.561   3.551   6.360
14126TIP3    H242256   1.607   3.422   6.426
14127TIP3   OH242257   1.636   3.814   6.996
14127TIP3    H142258   1.648   3.719   6.990
14127TIP3    H242259   1.630   3.831   7.090
14128TIP3   OH242260   0.301   3.850   7.824
14128TIP3    H142261   0.290   3.845   7.730
14128TIP3    H242262   0.394   3.873   7.836
14129TIP3   OH242263   1.917   4.227   7.822
14129TIP3    H142264   1.987   4.165   7.802
14129TIP3    H242265   1.895   4.266   7.737
14130TIP3   OH242266   2.108   4.023   7.827
14130TIP3    H142267   2.035   3.990   7.879
14130TIP3    H242268   2.183   3.971   7.857
14131TIP3   OH242269   1.581   3.245   6.397
14131TIP3    H142270   1.647   3.220   6.462
14131TIP3    H242271   1.499   3.208   6.431
14132TIP3   OH242272   1.639   3.533   6.871
14132TIP3    H142273   1.688   3.451   6.884
14132TIP3    H242274   1.683   3.576   6.798
14133TIP3   OH242275   1.883   3.840   7.664
14133TIP3    H142276   1.803   3.881   7.698
14133TIP3    H242277   1.892   3.875   7.575
14134TIP3   OH242278   3.704   8.195   0.406
14134TIP3    H142279   3.754   8.248   0.344
14134TIP3    H242280   3.766   8.174   0.476
14135TIP3   OH242281   5.606   8.088   0.116
14135TIP3    H142282   5.668   8.022   0.086
14135TIP3    H242283   5.570   8.126   0.036
14136TIP3   OH242284   1.764   3.288   6.922
14136TIP3    H142285   1.813   3.272   7.003
14136TIP3    H242286   1.702   3.215   6.917
14137TIP3   OH242287   0.462   3.257   7.725
14137TIP3    H142288   0.524   3.184   7.728
14137TIP3    H242289   0.516   3.335   7.719
14138TIP3   OH242290   0.226   3.581   7.814
14138TIP3    H142291   0.301   3.551   7.763
14138TIP3    H242292   0.245   3.672   7.835
14139TIP3   OH242293   2.182   3.567   7.920
14139TIP3    H142294   2.097   3.611   7.917
14139TIP3    H242295   2.167   3.484   7.876
14140TIP3   OH242296   1.803   3.199   6.557
14140TIP3    H142297   1.854   3.139   6.502
14140TIP3    H242298   1.857   3.278   6.563
14141TIP3   OH242299   0.311   3.009   7.395
14141TIP3    H142300   0.267   2.927   7.418
14141TIP3    H242301   0.257   3.045   7.324
14142TIP3   OH242302   1.399   4.772   6.831
14142TIP3    H142303   1.446   4.750   6.750
14142TIP3    H242304   1.454   4.839   6.873
14143TIP3   OH242305   3.707   7.766   0.131
14143TIP3    H142306   3.706   7.806   0.218
14143TIP3    H242307   3.681   7.836   0.072
14144TIP3   OH242308   3.806   9.169   0.213
14144TIP3    H142309   3.711   9.160   0.210
14144TIP3    H242310   3.821   9.249   0.263
14145TIP3   OH242311   0.730   4.599   7.755
14145TIP3    H142312   0.657   4.651   7.720
14145TIP3    H242313   0.806   4.627   7.705
14146TIP3   OH242314   1.110   4.834   7.889
14146TIP3    H142315   1.143   4.830   7.979
14146TIP3    H242316   1.176   4.884   7.841
14147TIP3   OH242317   1.305   4.986   7.767
14147TIP3    H142318   1.366   4.930   7.720
14147TIP3    H242319   1.361   5.043   7.820
14148TIP3   OH242320   2.093   3.319   7.837
14148TIP3    H142321   2.014   3.331   7.784
14148TIP3    H242322   2.116   3.227   7.826
14149TIP3   OH242323   0.551   4.789   7.659
14149TIP3    H142324   0.540   4.863   7.718
14149TIP3    H242325   0.541   4.826   7.571
14150TIP3   OH242326   1.052   4.874   7.472
14150TIP3    H142327   0.971   4.878   7.421
14150TIP3    H242328   1.064   4.962   7.506
14151TIP3   OH242329   1.308   4.789   7.486
14151TIP3    H142330   1.215   4.811   7.476
14151TIP3    H242331   1.353   4.851   7.429
14152TIP3   OH242332   1.509   4.980   7.404
14152TIP3    H142333   1.491   5.063   7.358
14152TIP3    H242334   1.535   4.920   7.334
14153TIP3   OH242335   0.301   4.581   7.541
14153TIP3    H142336   0.289   4.557   7.633
14153TIP3    H242337   0.396   4.578   7.527
14154TIP3   OH242338   0.547   4.532   7.440
14154TIP3    H142339   0.568   4.441   7.460
14154TIP3    H242340   0.632   4.574   7.426
14155TIP3   OH242341   0.808   4.602   7.399
14155TIP3    H142342   0.827   4.511   7.375
14155TIP3    H242343   0.865   4.619   7.475
14156TIP3   OH242344   1.310   3.241   7.492
14156TIP3    H142345   1.261   3.172   7.537
14156TIP3    H242346   1.377   3.194   7.441
14157TIP3   OH242347   1.802   3.152   7.362
14157TIP3    H142348   1.850   3.197   7.292
14157TIP3    H242349   1.722   3.202   7.373
14158TIP3   OH242350   1.929   3.232   7.136
14158TIP3    H142351   1.997   3.169   7.111
14158TIP3    H242352   1.972   3.318   7.125
14159TIP3   OH242353   0.569   2.947   7.465
14159TIP3    H142354   0.475   2.954   7.449
14159TIP3    H242355   0.585   2.853   7.469
14160TIP3   OH242356   0.377   2.839   7.143
14160TIP3    H142357   0.409   2.878   7.062
14160TIP3    H242358   0.391   2.906   7.210
14161TIP3   OH242359   1.015   2.980   7.376
14161TIP3    H142360   1.066   3.019   7.304
14161TIP3    H242361   1.060   3.009   7.455
14162TIP3   OH242362   1.506   3.102   7.362
14162TIP3    H142363   1.548   3.072   7.281
14162TIP3    H242364   1.518   3.030   7.424
14163TIP3   OH242365   1.579   3.077   6.928
14163TIP3    H142366   1.500   3.125   6.954
14163TIP3    H242367   1.568   2.990   6.967
14164TIP3   OH242368   0.502   2.958   6.920
14164TIP3    H142369   0.548   2.904   6.856
14164TIP3    H242370   0.568   3.020   6.950
14165TIP3   OH242371   0.965   3.169   7.004
14165TIP3    H142372   1.027   3.119   7.056
14165TIP3    H242373   0.978   3.260   7.031
14166TIP3   OH242374   0.868   4.569   6.464
14166TIP3    H142375   0.955   4.590   6.430
14166TIP3    H242376   0.843   4.490   6.416
14167TIP3   OH242377   1.541   4.712   6.601
14167TIP3    H142378   1.536   4.617   6.593
14167TIP3    H242379   1.504   4.745   6.520
14168TIP3   OH242380   4.000   7.910   0.303
14168TIP3    H142381   3.950   7.829   0.317
14168TIP3    H242382   4.090   7.887   0.326
14169TIP3   OH242383   4.243   7.840   0.403
14169TIP3    H142384   4.317   7.834   0.342
14169TIP3    H242385   4.268   7.909   0.464
14170TIP3   OH242386   0.213   4.429   6.598
14170TIP3    H142387   0.248   4.496   6.657
14170TIP3    H242388   0.289   4.399   6.548
14171TIP3   OH242389   5.124   7.926   0.274
14171TIP3    H142390   5.145   7.911   0.367
14171TIP3    H242391   5.209   7.928   0.230
14172TIP3   OH242392   1.769   4.865   7.787
14172TIP3    H142393   1.696   4.832   7.735
14172TIP3    H242394   1.754   4.959   7.793
14173TIP3   OH242395   3.039   4.242   6.524
14173TIP3    H142396   3.002   4.329   6.508
14173TIP3    H242397   2.970   4.181   6.497
14174TIP3   OH242398   3.038   4.240   6.955
14174TIP3    H142399   3.092   4.217   7.031
14174TIP3    H242400   2.992   4.159   6.933
14175TIP3   OH242401   2.338   4.108   7.292
14175TIP3    H142402   2.366   4.043   7.356
14175TIP3    H242403   2.414   4.119   7.235
14176TIP3   OH242404   3.308   4.548   6.625
14176TIP3    H142405   3.293   4.480   6.691
14176TIP3    H242406   3.325   4.627   6.677
14177TIP3   OH242407   2.335   4.545   6.996
14177TIP3    H142408   2.321   4.450   6.994
14177TIP3    H242409   2.428   4.555   6.978
14178TIP3   OH242410   2.006   3.714   6.773
14178TIP3    H142411   1.978   3.801   6.800
14178TIP3    H242412   1.930   3.676   6.730
14179TIP3   OH242413   2.070   4.020   6.960
14179TIP3    H142414   2.133   3.959   6.999
14179TIP3    H242415   2.091   4.104   7.001
14180TIP3   OH242416   2.978   4.958   6.652
14180TIP3    H142417   3.001   4.898   6.581
14180TIP3    H242418   2.988   4.905   6.731
14181TIP3   OH242419   2.838   4.460   6.950
14181TIP3    H142420   2.882   4.380   6.922
14181TIP3    H242421   2.909   4.517   6.980
14182TIP3   OH242422   3.811   3.766   6.987
14182TIP3    H142423   3.888   3.821   7.004
14182TIP3    H242424   3.806   3.760   6.892
14183TIP3   OH242425   3.246   3.946   6.989
14183TIP3    H142426   3.277   3.860   7.017
14183TIP3    H242427   3.211   3.931   6.901
14184TIP3   OH242428   2.604   3.596   6.947
14184TIP3    H142429   2.584   3.671   6.891
14184TIP3    H242430   2.548   3.526   6.915
14185TIP3   OH242431   3.305   3.703   6.589
14185TIP3    H142432   3.367   3.699   6.662
14185TIP3    H242433   3.357   3.736   6.515
14186TIP3   OH242434   2.265   3.849   7.053
14186TIP3    H142435   2.328   3.811   7.114
14186TIP3    H242436   2.262   3.788   6.980
14187TIP3   OH242437   2.648   4.018   6.891
14187TIP3    H142438   2.743   4.003   6.897
14187TIP3    H242439   2.612   3.936   6.858
14188TIP3   OH242440   2.589   3.601   7.403
14188TIP3    H142441   2.539   3.634   7.329
14188TIP3    H242442   2.535   3.620   7.480
14189TIP3   OH242443   2.899   4.455   6.420
14189TIP3    H142444   2.882   4.434   6.328
14189TIP3    H242445   2.861   4.542   6.432
14190TIP3   OH242446   2.678   4.381   7.162
14190TIP3    H142447   2.622   4.451   7.195
14190TIP3    H242448   2.724   4.420   7.088
14191TIP3   OH242449   3.458   3.733   6.814
14191TIP3    H142450   3.418   3.712   6.898
14191TIP3    H242451   3.515   3.808   6.832
14192TIP3   OH242452   2.478   3.703   7.173
14192TIP3    H142453   2.533   3.779   7.194
14192TIP3    H242454   2.522   3.661   7.099
14193TIP3   OH242455   2.525   4.585   7.273
14193TIP3    H142456   2.507   4.673   7.240
14193TIP3    H242457   2.448   4.562   7.325
14194TIP3   OH242458   1.904   4.289   6.528
14194TIP3    H142459   1.875   4.305   6.438
14194TIP3    H242460   1.928   4.375   6.562
14195TIP3   OH242461   3.331   4.804   6.764
14195TIP3    H142462   3.243   4.800   6.801
14195TIP3    H242463   3.332   4.886   6.714
14196TIP3   OH242464   3.662   3.630   7.168
14196TIP3    H142465   3.575   3.667   7.154
14196TIP3    H242466   3.718   3.674   7.104
14197TIP3   OH242467   2.927   3.298   7.134
14197TIP3    H142468   2.922   3.206   7.160
14197TIP3    H242469   2.848   3.338   7.171
14198TIP3   OH242470   3.058   4.833   6.415
14198TIP3    H142471   3.102   4.749   6.403
14198TIP3    H242472   3.126   4.898   6.398
14199TIP3   OH242473   3.204   4.608   6.376
14199TIP3    H142474   3.216   4.535   6.316
14199TIP3    H242475   3.241   4.579   6.458
14200TIP3   OH242476   3.583   4.659   7.109
14200TIP3    H142477   3.562   4.586   7.051
14200TIP3    H242478   3.571   4.737   7.054
14201TIP3   OH242479   2.868   4.078   6.375
14201TIP3    H142480   2.787   4.125   6.356
14201TIP3    H242481   2.915   4.076   6.292
14202TIP3   OH242482   2.833   3.864   6.091
14202TIP3    H142483   2.900   3.915   6.136
14202TIP3    H242484   2.881   3.803   6.036
14203TIP3   OH242485   3.750   4.318   6.982
14203TIP3    H142486   3.667   4.365   6.970
14203TIP3    H242487   3.787   4.312   6.894
14204TIP3   OH242488   3.223   4.174   6.333
14204TIP3    H142489   3.168   4.199   6.407
14204TIP3    H242490   3.305   4.144   6.374
14205TIP3   OH242491   3.443   4.197   7.297
14205TIP3    H142492   3.435   4.281   7.344
14205TIP3    H242493   3.363   4.190   7.246
14206TIP3   OH242494   2.452   4.155   6.739
14206TIP3    H142495   2.415   4.092   6.678
14206TIP3    H242496   2.522   4.107   6.784
14207TIP3   OH242497   2.589   4.584   6.880
14207TIP3    H142498   2.561   4.564   6.791
14207TIP3    H242499   2.674   4.540   6.889
14208TIP3   OH242500   2.558   4.135   7.125
14208TIP3    H142501   2.588   4.103   7.040
14208TIP3    H242502   2.599   4.221   7.134
14209TIP3   OH242503   3.091   4.804   6.900
14209TIP3    H142504   3.090   4.874   6.966
14209TIP3    H242505   3.082   4.723   6.951
14210TIP3   OH242506   2.724   4.680   7.439
14210TIP3    H142507   2.659   4.732   7.486
14210TIP3    H242508   2.673   4.627   7.378
14211TIP3   OH242509   3.059   4.022   6.168
14211TIP3    H142510   3.117   4.083   6.213
14211TIP3    H242511   3.071   4.041   6.075
14212TIP3   OH242512   2.470   4.218   7.597
14212TIP3    H142513   2.474   4.313   7.608
14212TIP3    H242514   2.378   4.200   7.579
14213TIP3   OH242515   2.800   4.719   6.414
14213TIP3    H142516   2.885   4.763   6.418
14213TIP3    H242517   2.744   4.779   6.366
14214TIP3   OH242518   2.513   4.837   7.530
14214TIP3    H142519   2.485   4.842   7.439
14214TIP3    H242520   2.433   4.821   7.579
14215TIP3   OH242521   3.562   3.254   6.231
14215TIP3    H142522   3.487   3.276   6.286
14215TIP3    H242523   3.572   3.330   6.174
14216TIP3   OH242524   2.334   3.994   6.534
14216TIP3    H142525   2.251   4.036   6.510
14216TIP3    H242526   2.311   3.902   6.550
14217TIP3   OH242527   3.381   4.624   5.783
14217TIP3    H142528   3.380   4.714   5.752
14217TIP3    H242529   3.470   4.593   5.764
14218TIP3   OH242530   2.122   4.395   7.477
14218TIP3    H142531   2.054   4.386   7.410
14218TIP3    H242532   2.149   4.305   7.496
14219TIP3   OH242533   2.000   4.569   7.104
14219TIP3    H142534   2.061   4.506   7.065
14219TIP3    H242535   1.951   4.517   7.168
14220TIP3   OH242536   3.807   5.051   7.175
14220TIP3    H142537   3.813   4.956   7.185
14220TIP3    H242538   3.727   5.075   7.223
14221TIP3   OH242539   2.911   4.830   7.305
14221TIP3    H142540   2.898   4.919   7.336
14221TIP3    H242541   2.845   4.778   7.351
14222TIP3   OH242542   2.663   4.929   6.248
14222TIP3    H142543   2.603   4.911   6.176
14222TIP3    H242544   2.637   5.015   6.281
14223TIP3   OH242545   2.131   4.779   6.630
14223TIP3    H142546   2.172   4.773   6.717
14223TIP3    H242547   2.080   4.699   6.623
14224TIP3   OH242548   2.928   4.999   6.222
14224TIP3    H142549   2.838   4.967   6.222
14224TIP3    H242550   2.978   4.929   6.264
14225TIP3   OH242551   3.689   4.179   7.456
14225TIP3    H142552   3.610   4.189   7.402
14225TIP3    H242553   3.716   4.088   7.444
14226TIP3   OH242554   2.313   4.591   7.455
14226TIP3    H142555   2.368   4.570   7.530
14226TIP3    H242556   2.243   4.525   7.457
14227TIP3   OH242557   2.687   3.385   7.257
14227TIP3    H142558   2.602   3.353   7.226
14227TIP3    H242559   2.667   3.465   7.304
14228TIP3   OH242560   3.229   3.518   7.461
14228TIP3    H142561   3.298   3.489   7.520
14228TIP3    H242562   3.147   3.499   7.508
14229TIP3   OH242563   3.467   3.924   7.375
14229TIP3    H142564   3.431   3.922   7.463
14229TIP3    H242565   3.452   4.013   7.344
14230TIP3   OH242566   3.078   4.065   5.895
14230TIP3    H142567   3.072   4.041   5.802
14230TIP3    H242568   3.096   4.159   5.894
14231TIP3   OH242569   2.842   3.426   6.230
14231TIP3    H142570   2.804   3.435   6.318
14231TIP3    H242571   2.806   3.345   6.196
14232TIP3   OH242572   2.632   3.914   7.270
14232TIP3    H142573   2.583   3.922   7.352
14232TIP3    H242574   2.612   3.994   7.222
14233TIP3   OH242575   2.512   3.799   6.788
14233TIP3    H142576   2.422   3.779   6.813
14233TIP3    H242577   2.520   3.766   6.698
14234TIP3   OH242578   2.986   3.874   6.516
14234TIP3    H142579   2.939   3.946   6.475
14234TIP3    H242580   3.044   3.841   6.448
14235TIP3   OH242581   3.171   4.143   7.583
14235TIP3    H142582   3.147   4.073   7.645
14235TIP3    H242583   3.263   4.160   7.601
14236TIP3   OH242584   3.156   3.891   6.736
14236TIP3    H142585   3.088   3.909   6.672
14236TIP3    H242586   3.205   3.817   6.699
14237TIP3   OH242587   2.464   3.937   7.486
14237TIP3    H142588   2.469   4.004   7.554
14237TIP3    H242589   2.448   3.855   7.534
14238TIP3   OH242590   2.510   3.409   6.205
14238TIP3    H142591   2.501   3.415   6.300
14238TIP3    H242592   2.432   3.454   6.171
14239TIP3   OH242593   2.061   3.460   7.082
14239TIP3    H142594   2.125   3.499   7.140
14239TIP3    H242595   2.094   3.478   6.994
14240TIP3   OH242596   1.950   3.434   6.569
14240TIP3    H142597   1.995   3.470   6.493
14240TIP3    H242598   1.890   3.503   6.596
14241TIP3   OH242599   3.199   4.144   7.167
14241TIP3    H142600   3.224   4.079   7.101
14241TIP3    H242601   3.154   4.093   7.235
14242TIP3   OH242602   2.873   3.586   6.839
14242TIP3    H142603   2.794   3.586   6.894
14242TIP3    H242604   2.945   3.578   6.901
14243TIP3   OH242605   2.272   3.673   6.844
14243TIP3    H142606   2.183   3.677   6.809
14243TIP3    H242607   2.301   3.583   6.827
14244TIP3   OH242608   2.520   3.677   6.542
14244TIP3    H142609   2.615   3.688   6.531
14244TIP3    H242610   2.484   3.694   6.455
14245TIP3   OH242611   3.309   3.684   7.051
14245TIP3    H142612   3.289   3.701   7.143
14245TIP3    H242613   3.243   3.620   7.023
14246TIP3   OH242614   2.405   3.697   6.295
14246TIP3    H142615   2.344   3.648   6.240
14246TIP3    H242616   2.458   3.748   6.233
14247TIP3   OH242617   3.516   5.383   7.266
14247TIP3    H142618   3.522   5.377   7.170
14247TIP3    H242619   3.592   5.434   7.292
14248TIP3   OH242620   2.461   4.494   7.678
14248TIP3    H142621   2.542   4.509   7.727
14248TIP3    H242622   2.392   4.499   7.744
14249TIP3   OH242623   2.923   3.970   6.942
14249TIP3    H142624   2.988   3.920   6.893
14249TIP3    H242625   2.919   3.926   7.028
14250TIP3   OH242626   2.410   3.424   6.831
14250TIP3    H142627   2.381   3.351   6.885
14250TIP3    H242628   2.430   3.385   6.746
14251TIP3   OH242629   2.896   3.864   7.203
14251TIP3    H142630   2.808   3.892   7.230
14251TIP3    H242631   2.955   3.914   7.259
14252TIP3   OH242632   2.640   4.222   6.307
14252TIP3    H142633   2.564   4.172   6.277
14252TIP3    H242634   2.611   4.263   6.389
14253TIP3   OH242635   3.520   4.465   6.926
14253TIP3    H142636   3.556   4.515   6.853
14253TIP3    H242637   3.441   4.425   6.891
14254TIP3   OH242638   3.093   3.533   6.234
14254TIP3    H142639   3.001   3.510   6.231
14254TIP3    H242640   3.095   3.628   6.247
14255TIP3   OH242641   3.049   4.564   7.334
14255TIP3    H142642   3.099   4.545   7.413
14255TIP3    H242643   3.006   4.647   7.352
14256TIP3   OH242644   3.152   3.797   6.304
14256TIP3    H142645   3.247   3.800   6.315
14256TIP3    H242646   3.131   3.873   6.250
14257TIP3   OH242647   2.333   4.273   6.966
14257TIP3    H142648   2.362   4.236   6.883
14257TIP3    H242649   2.360   4.210   7.032
14258TIP3   OH242650   2.818   4.383   6.158
14258TIP3    H142651   2.763   4.455   6.128
14258TIP3    H242652   2.757   4.322   6.199
14259TIP3   OH242653   2.194   4.144   7.587
14259TIP3    H142654   2.176   4.112   7.676
14259TIP3    H242655   2.144   4.085   7.530
14260TIP3   OH242656   2.944   4.298   7.626
14260TIP3    H142657   2.873   4.239   7.600
14260TIP3    H242658   3.023   4.255   7.595
14261TIP3   OH242659   3.181   4.858   7.228
14261TIP3    H142660   3.087   4.838   7.232
14261TIP3    H242661   3.203   4.887   7.316
14262TIP3   OH242662   3.560   3.889   6.110
14262TIP3    H142663   3.504   3.841   6.049
14262TIP3    H242664   3.565   3.978   6.075
14263TIP3   OH242665   3.823   4.778   7.188
14263TIP3    H142666   3.734   4.744   7.196
14263TIP3    H242667   3.857   4.736   7.109
14264TIP3   OH242668   3.322   4.687   6.048
14264TIP3    H142669   3.290   4.612   6.097
14264TIP3    H242670   3.337   4.654   5.959
14265TIP3   OH242671   3.287   4.340   6.822
14265TIP3    H142672   3.197   4.316   6.847
14265TIP3    H242673   3.322   4.260   6.782
14266TIP3   OH242674   2.448   4.575   6.637
14266TIP3    H142675   2.444   4.650   6.577
14266TIP3    H242676   2.356   4.553   6.653
14267TIP3   OH242677   2.001   3.856   6.349
14267TIP3    H142678   2.046   3.937   6.373
14267TIP3    H242679   1.921   3.857   6.401
14268TIP3   OH242680   2.523   4.330   6.529
14268TIP3    H142681   2.516   4.418   6.567
14268TIP3    H242682   2.501   4.271   6.602
14269TIP3   OH242683   2.724   4.898   7.098
14269TIP3    H142684   2.762   4.967   7.044
14269TIP3    H242685   2.799   4.861   7.145
14270TIP3   OH242686   2.363   4.794   6.477
14270TIP3    H142687   2.276   4.796   6.517
14270TIP3    H242688   2.396   4.883   6.489
14271TIP3   OH242689   3.075   4.568   7.057
14271TIP3    H142690   3.068   4.564   7.153
14271TIP3    H242691   3.135   4.497   7.035
14272TIP3   OH242692   3.054   4.353   5.997
14272TIP3    H142693   3.118   4.380   6.063
14272TIP3    H242694   2.969   4.363   6.040
14273TIP3   OH242695   3.346   5.044   7.103
14273TIP3    H142696   3.282   4.982   7.139
14273TIP3    H242697   3.296   5.097   7.041
14274TIP3   OH242698   3.396   4.898   5.723
14274TIP3    H142699   3.389   4.943   5.639
14274TIP3    H242700   3.330   4.940   5.778
14275TIP3   OH242701   2.420   3.681   7.609
14275TIP3    H142702   2.325   3.692   7.610
14275TIP3    H242703   2.438   3.618   7.678
14276TIP3   OH242704   3.261   4.403   6.182
14276TIP3    H142705   3.240   4.326   6.235
14276TIP3    H242706   3.353   4.391   6.159
14277TIP3   OH242707   2.155   4.763   7.257
14277TIP3    H142708   2.112   4.690   7.212
14277TIP3    H242709   2.215   4.721   7.318
14278TIP3   OH242710   2.338   4.365   5.978
14278TIP3    H142711   2.392   4.412   5.914
14278TIP3    H242712   2.368   4.398   6.063
14279TIP3   OH242713   2.372   4.433   6.249
14279TIP3    H142714   2.433   4.401   6.314
14279TIP3    H242715   2.389   4.527   6.244
14280TIP3   OH242716   2.097   4.104   6.438
14280TIP3    H142717   2.035   4.153   6.491
14280TIP3    H242718   2.121   4.164   6.367
14281TIP3   OH242719   3.260   3.748   7.315
14281TIP3    H142720   3.343   3.787   7.341
14281TIP3    H242721   3.252   3.670   7.369
14282TIP3   OH242722   3.155   3.485   6.502
14282TIP3    H142723   3.134   3.503   6.411
14282TIP3    H242724   3.199   3.564   6.533
14283TIP3   OH242725   2.648   4.590   6.087
14283TIP3    H142726   2.577   4.621   6.142
14283TIP3    H242727   2.674   4.667   6.036
14284TIP3   OH242728   2.800   3.682   6.588
14284TIP3    H142729   2.861   3.751   6.562
14284TIP3    H242730   2.824   3.662   6.678
14285TIP3   OH242731   3.098   3.976   7.359
14285TIP3    H142732   3.124   4.018   7.441
14285TIP3    H242733   3.150   3.896   7.356
14286TIP3   OH242734   2.966   3.377   6.674
14286TIP3    H142735   2.942   3.454   6.726
14286TIP3    H242736   3.037   3.408   6.617
14287TIP3   OH242737   2.432   4.700   6.224
14287TIP3    H142738   2.426   4.774   6.164
14287TIP3    H242739   2.410   4.738   6.310
14288TIP3   OH242740   2.476   3.403   6.485
14288TIP3    H142741   2.463   3.494   6.512
14288TIP3    H242742   2.570   3.389   6.492
14289TIP3   OH242743   3.743   3.934   7.336
14289TIP3    H142744   3.654   3.900   7.350
14289TIP3    H242745   3.742   3.967   7.246
14290TIP3   OH242746   3.378   4.085   6.732
14290TIP3    H142747   3.304   4.025   6.745
14290TIP3    H242748   3.449   4.048   6.785
14291TIP3   OH242749   2.130   4.291   6.234
14291TIP3    H142750   2.203   4.351   6.246
14291TIP3    H242751   2.157   4.235   6.161
14292TIP3   OH242752   2.024   3.578   6.348
14292TIP3    H142753   2.038   3.672   6.358
14292TIP3    H242754   1.981   3.569   6.264
14293TIP3   OH242755   3.356   5.079   6.673
14293TIP3    H142756   3.307   5.119   6.601
14293TIP3    H242757   3.447   5.105   6.658
14294TIP3   OH242758   2.420   3.307   7.223
14294TIP3    H142759   2.391   3.275   7.138
14294TIP3    H242760   2.411   3.232   7.282
14295TIP3   OH242761   1.949   4.564   6.608
14295TIP3    H142762   1.902   4.597   6.685
14295TIP3    H242763   1.904   4.604   6.534
14296TIP3   OH242764   2.121   5.047   7.693
14296TIP3    H142765   2.210   5.012   7.686
14296TIP3    H242766   2.065   4.970   7.695
14297TIP3   OH242767   2.688   4.995   7.665
14297TIP3    H142768   2.760   4.939   7.693
14297TIP3    H242769   2.628   4.936   7.619
14298TIP3   OH242770   3.238   4.942   7.482
14298TIP3    H142771   3.255   4.870   7.543
14298TIP3    H242772   3.312   5.002   7.494
14299TIP3   OH242773   2.257   4.499   7.869
14299TIP3    H142774   2.275   4.406   7.882
14299TIP3    H242775   2.172   4.502   7.826
14300TIP3   OH242776   2.235   4.121   6.044
14300TIP3    H142777   2.301   4.087   6.105
14300TIP3    H242778   2.278   4.196   6.002
14301TIP3   OH242779   2.878   4.569   7.642
14301TIP3    H142780   2.834   4.590   7.560
14301TIP3    H242781   2.912   4.480   7.629
14302TIP3   OH242782   3.359   4.636   7.274
14302TIP3    H142783   3.435   4.654   7.217
14302TIP3    H242784   3.294   4.700   7.247
14303TIP3   OH242785   2.370   4.246   7.874
14303TIP3    H142786   2.434   4.217   7.810
14303TIP3    H242787   2.420   4.262   7.954
14304TIP3   OH242788   2.420   4.053   6.258
14304TIP3    H142789   2.400   4.025   6.347
14304TIP3    H242790   2.466   3.978   6.219
14305TIP3   OH242791   2.736   4.125   7.539
14305TIP3    H142792   2.647   4.159   7.548
14305TIP3    H242793   2.763   4.152   7.451
14306TIP3   OH242794   2.555   3.851   6.125
14306TIP3    H142795   2.529   3.844   6.033
14306TIP3    H242796   2.651   3.854   6.122
14307TIP3   OH242797   3.236   4.495   7.607
14307TIP3    H142798   3.308   4.462   7.553
14307TIP3    H242799   3.235   4.437   7.683
14308TIP3   OH242800   3.391   4.183   5.753
14308TIP3    H142801   3.351   4.130   5.683
14308TIP3    H242802   3.330   4.256   5.765
14309TIP3   OH242803   2.839   3.889   7.637
14309TIP3    H142804   2.840   3.820   7.571
14309TIP3    H242805   2.805   3.966   7.591
14310TIP3   OH242806   2.846   3.693   7.434
14310TIP3    H142807   2.873   3.727   7.349
14310TIP3    H242808   2.756   3.664   7.421
14311TIP3   OH242809   2.844   4.217   7.308
14311TIP3    H142810   2.934   4.240   7.282
14311TIP3    H242811   2.789   4.276   7.257
14312TIP3   OH242812   3.442   4.172   7.675
14312TIP3    H142813   3.447   4.077   7.672
14312TIP3    H242814   3.529   4.202   7.652
14313TIP3   OH242815   3.467   4.445   7.433
14313TIP3    H142816   3.419   4.512   7.384
14313TIP3    H242817   3.557   4.452   7.402
14314TIP3   OH242818   2.721   3.970   7.879
14314TIP3    H142819   2.648   3.912   7.901
14314TIP3    H242820   2.745   3.944   7.790
14315TIP3   OH242821   2.965   3.464   7.542
14315TIP3    H142822   2.925   3.544   7.507
14315TIP3    H242823   2.899   3.396   7.527
14316TIP3   OH242824   3.096   3.927   7.735
14316TIP3    H142825   3.086   3.913   7.830
14316TIP3    H242826   3.010   3.906   7.699
14317TIP3   OH242827   3.354   3.904   7.621
14317TIP3    H142828   3.271   3.892   7.667
14317TIP3    H242829   3.419   3.863   7.677
14318TIP3   OH242830   3.571   3.835   7.771
14318TIP3    H142831   3.588   3.741   7.777
14318TIP3    H242832   3.568   3.864   7.862
14319TIP3   OH242833   2.552   3.749   7.944
14319TIP3    H142834   2.559   3.663   7.903
14319TIP3    H242835   2.595   3.739   8.029
14320TIP3   OH242836   3.030   3.433   7.805
14320TIP3    H142837   3.098   3.366   7.797
14320TIP3    H242838   3.000   3.447   7.716
14321TIP3   OH242839   3.129   3.649   7.944
14321TIP3    H142840   3.099   3.575   7.892
14321TIP3    H242841   3.057   3.711   7.942
14322TIP3   OH242842   2.480   4.907   6.032
14322TIP3    H142843   2.547   4.932   5.969
14322TIP3    H242844   2.397   4.916   5.985
14323TIP3   OH242845   1.854   4.282   6.235
14323TIP3    H142846   1.949   4.295   6.233
14323TIP3    H242847   1.841   4.195   6.196
14324TIP3   OH242848   1.746   4.870   6.699
14324TIP3    H142849   1.685   4.813   6.652
14324TIP3    H242850   1.793   4.811   6.758
14325TIP3   OH242851   1.902   4.716   6.871
14325TIP3    H142852   1.904   4.646   6.936
14325TIP3    H242853   1.951   4.788   6.911
14326TIP3   OH242854   3.618   5.176   6.670
14326TIP3    H142855   3.652   5.145   6.754
14326TIP3    H242856   3.691   5.164   6.609
14327TIP3   OH242857   3.677   5.101   6.933
14327TIP3    H142858   3.628   5.019   6.930
14327TIP3    H242859   3.737   5.091   7.007
14328TIP3   OH242860   3.713   4.847   7.522
14328TIP3    H142861   3.640   4.852   7.584
14328TIP3    H242862   3.757   4.931   7.530
14329TIP3   OH242863   3.530   4.350   6.135
14329TIP3    H142864   3.588   4.420   6.105
14329TIP3    H242865   3.577   4.309   6.208
14330TIP3   OH242866   3.660   4.208   6.336
14330TIP3    H142867   3.591   4.170   6.390
14330TIP3    H242868   3.725   4.238   6.398
14331TIP3   OH242869   3.699   4.615   6.770
14331TIP3    H142870   3.749   4.540   6.739
14331TIP3    H242871   3.714   4.683   6.704
14332TIP3   OH242872   3.515   4.880   6.957
14332TIP3    H142873   3.452   4.932   7.007
14332TIP3    H242874   3.464   4.844   6.884
14333TIP3   OH242875   3.556   4.129   5.970
14333TIP3    H142876   3.495   4.139   5.897
14333TIP3    H242877   3.540   4.205   6.026
14334TIP3   OH242878   3.410   3.767   5.916
14334TIP3    H142879   3.363   3.801   5.839
14334TIP3    H242880   3.407   3.672   5.905
14335TIP3   OH242881   3.449   4.072   6.464
14335TIP3    H142882   3.455   3.977   6.452
14335TIP3    H242883   3.430   4.082   6.557
14336TIP3   OH242884   2.081   4.175   7.214
14336TIP3    H142885   2.030   4.101   7.248
14336TIP3    H242886   2.171   4.155   7.239
14337TIP3   OH242887   3.720   4.481   7.323
14337TIP3    H142888   3.793   4.420   7.312
14337TIP3    H242889   3.706   4.519   7.237
14338TIP3   OH242890   3.919   4.285   7.336
14338TIP3    H142891   3.844   4.243   7.377
14338TIP3    H242892   3.994   4.233   7.364
14339TIP3   OH242893   3.380   3.493   5.883
14339TIP3    H142894   3.442   3.471   5.952
14339TIP3    H242895   3.295   3.463   5.916
14340TIP3   OH242896   3.443   3.794   6.355
14340TIP3    H142897   3.490   3.711   6.367
14340TIP3    H242898   3.483   3.832   6.277
14341TIP3   OH242899   3.597   3.973   6.868
14341TIP3    H142900   3.681   3.992   6.827
14341TIP3    H242901   3.608   3.996   6.960
14342TIP3   OH242902   3.649   4.093   7.118
14342TIP3    H142903   3.578   4.138   7.163
14342TIP3    H242904   3.698   4.163   7.074
14343TIP3   OH242905   2.291   3.822   7.888
14343TIP3    H142906   2.385   3.815   7.905
14343TIP3    H242907   2.255   3.737   7.916
14344TIP3   OH242908   4.124   3.711   7.635
14344TIP3    H142909   4.191   3.655   7.596
14344TIP3    H242910   4.091   3.763   7.562
14345TIP3   OH242911   3.561   3.545   6.406
14345TIP3    H142912   3.607   3.531   6.489
14345TIP3    H242913   3.498   3.472   6.402
14346TIP3   OH242914   2.263   3.535   7.260
14346TIP3    H142915   2.315   3.455   7.256
14346TIP3    H242916   2.323   3.604   7.233
14347TIP3   OH242917   3.984   3.838   7.432
14347TIP3    H142918   3.901   3.882   7.417
14347TIP3    H242919   3.979   3.759   7.379
14348TIP3   OH242920   3.601   3.453   6.044
14348TIP3    H142921   3.653   3.393   5.991
14348TIP3    H242922   3.654   3.532   6.050
14349TIP3   OH242923   2.026   3.287   6.786
14349TIP3    H142924   1.944   3.284   6.835
14349TIP3    H242925   2.009   3.348   6.715
14350TIP3   OH242926   3.236   5.024   6.333
14350TIP3    H142927   3.272   4.980   6.255
14350TIP3    H242928   3.256   5.117   6.318
14351TIP3   OH242929   2.273   3.381   7.628
14351TIP3    H142930   2.215   3.355   7.700
14351TIP3    H242931   2.214   3.422   7.564
14352TIP3   OH242932   2.298   4.828   7.716
14352TIP3    H142933   2.211   4.796   7.692
14352TIP3    H242934   2.309   4.802   7.807
14353TIP3   OH242935   2.497   4.864   7.250
14353TIP3    H142936   2.444   4.938   7.220
14353TIP3    H242937   2.580   4.872   7.202
14354TIP3   OH242938   2.891   5.095   7.394
14354TIP3    H142939   2.937   5.080   7.477
14354TIP3    H242940   2.952   5.148   7.342
14355TIP3   OH242941   3.065   5.251   7.251
14355TIP3    H142942   3.111   5.199   7.185
14355TIP3    H242943   3.134   5.301   7.295
14356TIP3   OH242944   3.899   3.587   7.326
14356TIP3    H142945   3.816   3.594   7.279
14356TIP3    H242946   3.925   3.496   7.316
14357TIP3   OH242947   2.150   5.113   7.276
14357TIP3    H142948   2.067   5.160   7.280
14357TIP3    H242949   2.131   5.028   7.316
14358TIP3   OH242950   2.394   5.104   7.152
14358TIP3    H142951   2.309   5.112   7.196
14358TIP3    H242952   2.375   5.120   7.060
14359TIP3   OH242953   2.805   5.105   6.934
14359TIP3    H142954   2.736   5.112   6.868
14359TIP3    H242955   2.806   5.191   6.976
14360TIP3   OH242956   3.073   5.078   7.001
14360TIP3    H142957   2.982   5.078   6.971
14360TIP3    H242958   3.119   5.132   6.937
14361TIP3   OH242959   3.275   5.237   6.882
14361TIP3    H142960   3.260   5.322   6.842
14361TIP3    H242961   3.299   5.180   6.809
14362TIP3   OH242962   2.073   4.891   7.025
14362TIP3    H142963   2.102   4.865   7.112
14362TIP3    H242964   2.139   4.856   6.966
14363TIP3   OH242965   2.267   4.778   6.873
14363TIP3    H142966   2.279   4.694   6.917
14363TIP3    H242967   2.354   4.818   6.872
14364TIP3   OH242968   2.538   4.856   6.893
14364TIP3    H142969   2.557   4.765   6.872
14364TIP3    H242970   2.592   4.875   6.970
14365TIP3   OH242971   3.097   3.497   6.985
14365TIP3    H142972   3.056   3.425   7.033
14365TIP3    H242973   3.166   3.454   6.933
14366TIP3   OH242974   3.604   3.409   6.859
14366TIP3    H142975   3.643   3.461   6.789
14366TIP3    H242976   3.516   3.445   6.869
14367TIP3   OH242977   3.721   3.496   6.627
14367TIP3    H142978   3.790   3.434   6.604
14367TIP3    H242979   3.759   3.582   6.609
14368TIP3   OH242980   2.337   3.202   6.981
14368TIP3    H142981   2.249   3.165   6.990
14368TIP3    H242982   2.394   3.126   6.974
14369TIP3   OH242983   2.146   3.097   6.619
14369TIP3    H142984   2.179   3.149   6.545
14369TIP3    H242985   2.112   3.161   6.680
14370TIP3   OH242986   2.831   3.226   6.873
14370TIP3    H142987   2.875   3.277   6.805
14370TIP3    H242988   2.868   3.259   6.955
14371TIP3   OH242989   3.308   3.375   6.855
14371TIP3    H142990   3.330   3.341   6.768
14371TIP3    H242991   3.320   3.301   6.914
14372TIP3   OH242992   3.375   3.335   6.417
14372TIP3    H142993   3.296   3.382   6.443
14372TIP3    H242994   3.364   3.248   6.455
14373TIP3   OH242995   1.824   4.683   6.395
14373TIP3    H142996   1.744   4.648   6.354
14373TIP3    H242997   1.831   4.772   6.361
14374TIP3   OH242998   2.267   3.234   6.393
14374TIP3    H142999   2.315   3.173   6.336
14374TIP3    H243000   2.335   3.291   6.429
14375TIP3   OH243001   2.751   3.430   6.493
14375TIP3    H143002   2.812   3.378   6.546
14375TIP3    H243003   2.766   3.521   6.520
14376TIP3   OH243004   3.348   4.955   6.089
14376TIP3    H143005   3.342   4.860   6.079
14376TIP3    H243006   3.306   4.990   6.010
14377TIP3   OH243007   2.578   3.483   7.854
14377TIP3    H143008   2.543   3.414   7.911
14377TIP3    H243009   2.670   3.491   7.880
14378TIP3   OH243010   2.822   3.482   7.986
14378TIP3    H143011   2.898   3.460   7.931
14378TIP3    H243012   2.813   3.408   8.046
14379TIP3   OH243013   1.968   4.684   6.037
14379TIP3    H143014   1.968   4.645   6.124
14379TIP3    H243015   2.030   4.631   5.987
14380TIP3   OH243016   3.641   3.568   7.762
14380TIP3    H143017   3.664   3.541   7.851
14380TIP3    H243018   3.724   3.568   7.715
14381TIP3   OH243019   3.556   5.110   7.276
14381TIP3    H143020   3.486   5.077   7.220
14381TIP3    H243021   3.538   5.204   7.284
14382TIP3   OH243022   4.837   4.500   6.015
14382TIP3    H143023   4.808   4.588   5.992
14382TIP3    H243024   4.765   4.443   5.987
14383TIP3   OH243025   4.834   4.494   6.438
14383TIP3    H143026   4.890   4.473   6.512
14383TIP3    H243027   4.788   4.413   6.418
14384TIP3   OH243028   4.126   4.378   6.779
14384TIP3    H143029   4.155   4.312   6.842
14384TIP3    H243030   4.200   4.391   6.720
14385TIP3   OH243031   5.106   4.801   6.111
14385TIP3    H143032   5.092   4.733   6.176
14385TIP3    H243033   5.124   4.880   6.161
14386TIP3   OH243034   4.109   4.780   6.475
14386TIP3    H143035   4.096   4.685   6.471
14386TIP3    H243036   4.203   4.792   6.462
14387TIP3   OH243037   3.804   3.982   6.243
14387TIP3    H143038   3.767   4.066   6.273
14387TIP3    H243039   3.730   3.935   6.206
14388TIP3   OH243040   3.887   4.282   6.486
14388TIP3    H143041   3.938   4.207   6.515
14388TIP3    H243042   3.951   4.345   6.456
14389TIP3   OH243043   4.767   5.219   6.125
14389TIP3    H143044   4.792   5.162   6.052
14389TIP3    H243045   4.777   5.165   6.203
14390TIP3   OH243046   4.632   4.717   6.434
14390TIP3    H143047   4.676   4.637   6.403
14390TIP3    H243048   4.704   4.773   6.463
14391TIP3   OH243049   5.677   4.027   6.465
14391TIP3    H143050   5.696   4.109   6.510
14391TIP3    H243051   5.706   4.043   6.375
14392TIP3   OH243052   5.045   4.198   6.474
14392TIP3    H143053   5.076   4.111   6.502
14392TIP3    H243054   5.007   4.183   6.387
14393TIP3   OH243055   4.415   3.856   6.420
14393TIP3    H143056   4.385   3.928   6.365
14393TIP3    H243057   4.353   3.785   6.402
14394TIP3   OH243058   5.099   3.960   6.073
14394TIP3    H143059   5.162   3.955   6.145
14394TIP3    H243060   5.150   3.993   5.999
14395TIP3   OH243061   4.038   4.067   6.576
14395TIP3    H143062   4.118   4.040   6.620
14395TIP3    H243063   4.037   4.016   6.495
14396TIP3   OH243064   4.443   4.274   6.382
14396TIP3    H143065   4.537   4.259   6.387
14396TIP3    H243066   4.407   4.192   6.348
14397TIP3   OH243067   5.730   4.244   6.630
14397TIP3    H143068   5.646   4.287   6.622
14397TIP3    H243069   5.768   4.278   6.711
14398TIP3   OH243070   4.373   3.865   6.875
14398TIP3    H143071   4.336   3.903   6.796
14398TIP3    H243072   4.302   3.866   6.939
14399TIP3   OH243073   4.739   4.728   5.890
14399TIP3    H143074   4.704   4.698   5.806
14399TIP3    H243075   4.683   4.801   5.915
14400TIP3   OH243076   4.473   4.641   6.647
14400TIP3    H143077   4.420   4.713   6.681
14400TIP3    H243078   4.521   4.679   6.573
14401TIP3   OH243079   5.253   3.986   6.299
14401TIP3    H143080   5.210   3.963   6.381
14401TIP3    H243081   5.309   4.060   6.320
14402TIP3   OH243082   4.301   3.987   6.641
14402TIP3    H143083   4.359   4.060   6.663
14402TIP3    H243084   4.347   3.941   6.570
14403TIP3   OH243085   4.320   4.845   6.758
14403TIP3    H143086   4.305   4.936   6.731
14403TIP3    H243087   4.241   4.820   6.804
14404TIP3   OH243088   3.697   4.541   6.018
14404TIP3    H143089   3.663   4.553   5.930
14404TIP3    H243090   3.719   4.630   6.048
14405TIP3   OH243091   5.131   5.048   6.253
14405TIP3    H143092   5.043   5.042   6.288
14405TIP3    H243093   5.132   5.130   6.205
14406TIP3   OH243094   5.464   3.922   6.619
14406TIP3    H143095   5.383   3.937   6.570
14406TIP3    H243096   5.533   3.948   6.559
14407TIP3   OH243097   4.723   3.550   6.623
14407TIP3    H143098   4.713   3.458   6.646
14407TIP3    H243099   4.646   3.593   6.661
14408TIP3   OH243100   4.849   5.087   5.896
14408TIP3    H143101   4.902   5.008   5.884
14408TIP3    H243102   4.906   5.158   5.866
14409TIP3   OH243103   4.989   4.853   5.864
14409TIP3    H143104   4.914   4.794   5.867
14409TIP3    H243105   5.040   4.830   5.942
14410TIP3   OH243106   5.371   4.933   6.595
14410TIP3    H143107   5.352   4.858   6.539
14410TIP3    H243108   5.358   5.009   6.539
14411TIP3   OH243109   4.660   4.342   5.865
14411TIP3    H143110   4.580   4.389   5.843
14411TIP3    H243111   4.708   4.335   5.783
14412TIP3   OH243112   4.620   4.159   5.540
14412TIP3    H143113   4.686   4.206   5.592
14412TIP3    H243114   4.669   4.092   5.493
14413TIP3   OH243115   5.542   4.597   6.480
14413TIP3    H143116   5.458   4.642   6.469
14413TIP3    H243117   5.587   4.608   6.396
14414TIP3   OH243118   5.021   4.423   5.827
14414TIP3    H143119   4.968   4.454   5.900
14414TIP3    H243120   5.105   4.400   5.867
14415TIP3   OH243121   5.246   4.444   6.782
14415TIP3    H143122   5.242   4.531   6.822
14415TIP3    H243123   5.168   4.440   6.727
14416TIP3   OH243124   4.246   4.407   6.228
14416TIP3    H143125   4.209   4.346   6.164
14416TIP3    H243126   4.317   4.358   6.270
14417TIP3   OH243127   4.372   4.831   6.370
14417TIP3    H143128   4.345   4.816   6.279
14417TIP3    H243129   4.459   4.792   6.375
14418TIP3   OH243130   4.339   4.406   6.601
14418TIP3    H143131   4.377   4.366   6.523
14418TIP3    H243132   4.389   4.486   6.614
14419TIP3   OH243133   4.888   5.049   6.378
14419TIP3    H143134   4.881   5.126   6.434
14419TIP3    H243135   4.876   4.975   6.437
14420TIP3   OH243136   4.517   4.936   6.933
14420TIP3    H143137   4.453   4.993   6.975
14420TIP3    H243138   4.465   4.884   6.871
14421TIP3   OH243139   4.846   4.289   5.660
14421TIP3    H143140   4.907   4.346   5.708
14421TIP3    H243141   4.877   4.291   5.570
14422TIP3   OH243142   4.267   4.489   7.078
14422TIP3    H143143   4.262   4.584   7.093
14422TIP3    H243144   4.176   4.462   7.065
14423TIP3   OH243145   4.600   4.967   5.920
14423TIP3    H143146   4.684   5.013   5.915
14423TIP3    H243147   4.538   5.028   5.880
14424TIP3   OH243148   4.311   5.098   7.016
14424TIP3    H143149   4.287   5.110   6.924
14424TIP3    H243150   4.227   5.083   7.061
14425TIP3   OH243151   5.361   3.515   5.715
14425TIP3    H143152   5.285   3.534   5.770
14425TIP3    H243153   5.370   3.591   5.658
14426TIP3   OH243154   4.122   4.246   6.031
14426TIP3    H143155   4.044   4.293   6.001
14426TIP3    H243156   4.092   4.157   6.050
14427TIP3   OH243157   5.191   4.881   5.240
14427TIP3    H143158   5.179   4.976   5.229
14427TIP3    H243159   5.284   4.872   5.260
14428TIP3   OH243160   3.906   4.644   6.965
14428TIP3    H143161   3.836   4.625   6.902
14428TIP3    H243162   3.939   4.558   6.990
14429TIP3   OH243163   3.813   4.819   6.600
14429TIP3    H143164   3.893   4.791   6.556
14429TIP3    H243165   3.842   4.886   6.662
14430TIP3   OH243166   5.600   5.294   6.663
14430TIP3    H143167   5.606   5.199   6.676
14430TIP3    H243168   5.522   5.320   6.712
14431TIP3   OH243169   4.706   5.083   6.796
14431TIP3    H143170   4.696   5.174   6.826
14431TIP3    H243171   4.639   5.035   6.844
14432TIP3   OH243172   4.472   5.181   5.777
14432TIP3    H143173   4.425   5.157   5.697
14432TIP3    H243174   4.441   5.270   5.797
14433TIP3   OH243175   3.921   5.035   6.121
14433TIP3    H143176   3.964   5.025   6.206
14433TIP3    H243177   3.870   4.954   6.111
14434TIP3   OH243178   4.708   5.195   5.634
14434TIP3    H143179   4.640   5.186   5.701
14434TIP3    H243180   4.782   5.145   5.668
14435TIP3   OH243181   5.482   4.405   6.940
14435TIP3    H143182   5.403   4.414   6.886
14435TIP3    H243183   5.505   4.312   6.932
14436TIP3   OH243184   4.094   4.841   6.923
14436TIP3    H143185   4.148   4.831   7.002
14436TIP3    H243186   4.028   4.772   6.930
14437TIP3   OH243187   4.488   3.647   6.747
14437TIP3    H143188   4.407   3.609   6.713
14437TIP3    H243189   4.462   3.728   6.789
14438TIP3   OH243190   5.021   3.787   6.963
14438TIP3    H143191   5.084   3.736   7.014
14438TIP3    H243192   4.935   3.762   6.998
14439TIP3   OH243193   5.246   4.183   6.892
14439TIP3    H143194   5.206   4.183   6.979
14439TIP3    H243195   5.230   4.272   6.859
14440TIP3   OH243196   4.934   4.267   5.403
14440TIP3    H143197   4.894   4.253   5.318
14440TIP3    H243198   5.012   4.319   5.385
14441TIP3   OH243199   4.638   3.683   5.717
14441TIP3    H143200   4.600   3.691   5.804
14441TIP3    H243201   4.602   3.601   5.682
14442TIP3   OH243202   4.435   4.199   6.762
14442TIP3    H143203   4.375   4.191   6.836
14442TIP3    H243204   4.405   4.277   6.715
14443TIP3   OH243205   4.305   4.060   6.273
14443TIP3    H143206   4.216   4.037   6.302
14443TIP3    H243207   4.311   4.027   6.184
14444TIP3   OH243208   4.780   4.135   6.003
14444TIP3    H143209   4.733   4.208   5.963
14444TIP3    H243210   4.837   4.102   5.933
14445TIP3   OH243211   4.976   4.401   7.068
14445TIP3    H143212   4.943   4.340   7.135
14445TIP3    H243213   5.067   4.417   7.093
14446TIP3   OH243214   4.952   4.147   6.222
14446TIP3    H143215   4.883   4.167   6.159
14446TIP3    H243216   4.999   4.074   6.183
14447TIP3   OH243217   4.235   4.189   6.952
14447TIP3    H143218   4.231   4.223   7.041
14447TIP3    H243219   4.188   4.105   6.956
14448TIP3   OH243220   4.304   3.665   5.694
14448TIP3    H143221   4.295   3.671   5.789
14448TIP3    H243222   4.226   3.709   5.660
14449TIP3   OH243223   3.847   3.716   6.539
14449TIP3    H143224   3.918   3.745   6.597
14449TIP3    H243225   3.891   3.695   6.456
14450TIP3   OH243226   3.747   3.689   6.056
14450TIP3    H143227   3.792   3.723   5.979
14450TIP3    H243228   3.685   3.757   6.080
14451TIP3   OH243229   5.003   4.402   6.646
14451TIP3    H143230   5.026   4.335   6.581
14451TIP3    H243231   4.955   4.354   6.714
14452TIP3   OH243232   4.679   3.845   6.323
14452TIP3    H143233   4.597   3.844   6.372
14452TIP3    H243234   4.748   3.836   6.389
14453TIP3   OH243235   4.064   3.939   6.332
14453TIP3    H143236   3.976   3.941   6.295
14453TIP3    H243237   4.092   3.848   6.322
14454TIP3   OH243238   4.317   3.937   6.028
14454TIP3    H143239   4.412   3.946   6.018
14454TIP3    H243240   4.283   3.953   5.940
14455TIP3   OH243241   5.112   3.937   6.538
14455TIP3    H143242   5.091   3.956   6.629
14455TIP3    H243243   5.045   3.873   6.511
14456TIP3   OH243244   4.208   3.957   5.777
14456TIP3    H143245   4.146   3.907   5.725
14456TIP3    H243246   4.260   4.005   5.713
14457TIP3   OH243247   5.312   5.639   6.756
14457TIP3    H143248   5.309   5.653   6.661
14457TIP3    H243249   5.391   5.685   6.784
14458TIP3   OH243250   4.247   4.766   7.156
14458TIP3    H143251   4.326   4.788   7.205
14458TIP3    H243252   4.177   4.765   7.221
14459TIP3   OH243253   4.718   4.225   6.431
14459TIP3    H143254   4.780   4.173   6.381
14459TIP3    H243255   4.713   4.183   6.517
14460TIP3   OH243256   4.204   3.687   6.321
14460TIP3    H143257   4.177   3.612   6.375
14460TIP3    H243258   4.221   3.650   6.235
14461TIP3   OH243259   4.689   4.124   6.694
14461TIP3    H143260   4.604   4.159   6.720
14461TIP3    H243261   4.752   4.175   6.746
14462TIP3   OH243262   4.432   4.489   5.795
14462TIP3    H143263   4.359   4.430   5.775
14462TIP3    H243264   4.410   4.526   5.881
14463TIP3   OH243265   5.309   4.732   6.417
14463TIP3    H143266   5.349   4.779   6.343
14463TIP3    H243267   5.232   4.689   6.379
14464TIP3   OH243268   4.889   3.791   5.720
14464TIP3    H143269   4.796   3.767   5.717
14464TIP3    H243270   4.889   3.886   5.733
14465TIP3   OH243271   4.835   4.818   6.818
14465TIP3    H143272   4.888   4.806   6.897
14465TIP3    H243273   4.793   4.903   6.829
14466TIP3   OH243274   4.944   4.057   5.788
14466TIP3    H143275   5.039   4.062   5.797
14466TIP3    H243276   4.921   4.134   5.736
14467TIP3   OH243277   4.111   4.499   6.452
14467TIP3    H143278   4.149   4.476   6.368
14467TIP3    H243279   4.173   4.465   6.517
14468TIP3   OH243280   4.611   4.655   5.655
14468TIP3    H143281   4.557   4.733   5.640
14468TIP3    H243282   4.550   4.591   5.691
14469TIP3   OH243283   3.993   4.407   7.094
14469TIP3    H143284   3.990   4.378   7.185
14469TIP3    H243285   3.923   4.358   7.050
14470TIP3   OH243286   4.735   4.554   7.125
14470TIP3    H143287   4.662   4.499   7.097
14470TIP3    H243288   4.811   4.517   7.080
14471TIP3   OH243289   4.975   5.110   6.713
14471TIP3    H143290   4.881   5.093   6.718
14471TIP3    H243291   4.997   5.149   6.798
14472TIP3   OH243292   5.363   4.140   5.596
14472TIP3    H143293   5.309   4.092   5.533
14472TIP3    H243294   5.361   4.231   5.567
14473TIP3   OH243295   5.618   5.016   6.685
14473TIP3    H143296   5.524   4.997   6.678
14473TIP3    H243297   5.655   4.984   6.603
14474TIP3   OH243298   5.117   4.972   5.571
14474TIP3    H143299   5.091   4.909   5.638
14474TIP3    H243300   5.055   4.957   5.500
14475TIP3   OH243301   5.085   4.594   6.308
14475TIP3    H143302   4.995   4.572   6.331
14475TIP3    H243303   5.121   4.514   6.271
14476TIP3   OH243304   4.239   4.824   6.122
14476TIP3    H143305   4.239   4.903   6.068
14476TIP3    H243306   4.150   4.791   6.117
14477TIP3   OH243307   3.807   4.112   5.851
14477TIP3    H143308   3.847   4.196   5.871
14477TIP3    H243309   3.723   4.114   5.896
14478TIP3   OH243310   4.350   4.582   6.036
14478TIP3    H143311   4.327   4.671   6.063
14478TIP3    H243312   4.315   4.527   6.106
14479TIP3   OH243313   4.522   5.155   6.585
14479TIP3    H143314   4.559   5.227   6.534
14479TIP3    H243315   4.597   5.119   6.633
14480TIP3   OH243316   4.157   5.052   5.977
14480TIP3    H143317   4.069   5.055   6.016
14480TIP3    H243318   4.190   5.141   5.985
14481TIP3   OH243319   4.868   4.822   6.544
14481TIP3    H143320   4.859   4.817   6.639
14481TIP3    H243321   4.936   4.758   6.523
14482TIP3   OH243322   4.831   4.692   5.465
14482TIP3    H143323   4.905   4.662   5.518
14482TIP3    H243324   4.754   4.676   5.519
14483TIP3   OH243325   5.135   5.312   6.594
14483TIP3    H143326   5.064   5.251   6.614
14483TIP3    H243327   5.100   5.367   6.524
14484TIP3   OH243328   5.201   5.158   5.213
14484TIP3    H143329   5.195   5.195   5.125
14484TIP3    H243330   5.128   5.198   5.261
14485TIP3   OH243331   5.044   4.601   5.613
14485TIP3    H143332   5.033   4.548   5.692
14485TIP3    H243333   5.138   4.617   5.608
14486TIP3   OH243334   3.944   5.022   6.755
14486TIP3    H143335   3.999   4.960   6.803
14486TIP3    H243336   3.950   5.103   6.806
14487TIP3   OH243337   4.144   4.683   5.751
14487TIP3    H143338   4.231   4.644   5.759
14487TIP3    H243339   4.161   4.777   5.738
14488TIP3   OH243340   3.895   4.366   5.925
14488TIP3    H143341   3.830   4.414   5.978
14488TIP3    H243342   3.913   4.424   5.851
14489TIP3   OH243343   5.054   4.006   6.800
14489TIP3    H143344   5.135   4.047   6.831
14489TIP3    H243345   5.043   3.929   6.856
14490TIP3   OH243346   4.951   3.740   5.987
14490TIP3    H143347   4.930   3.759   5.896
14490TIP3    H243348   4.994   3.820   6.018
14491TIP3   OH243349   4.447   4.874   5.621
14491TIP3    H143350   4.363   4.889   5.665
14491TIP3    H243351   4.463   4.954   5.572
14492TIP3   OH243352   4.598   3.940   6.074
14492TIP3    H143353   4.658   4.010   6.047
14492TIP3    H243354   4.624   3.918   6.163
14493TIP3   OH243355   4.896   4.240   6.840
14493TIP3    H143356   4.919   4.281   6.923
14493TIP3    H243357   4.945   4.158   6.839
14494TIP3   OH243358   4.764   3.633   6.161
14494TIP3    H143359   4.741   3.711   6.212
14494TIP3    H243360   4.833   3.663   6.102
14495TIP3   OH243361   4.203   4.951   5.725
14495TIP3    H143362   4.178   5.021   5.665
14495TIP3    H243363   4.186   4.988   5.812
14496TIP3   OH243364   4.273   3.662   5.972
14496TIP3    H143365   4.261   3.753   6.000
14496TIP3    H243366   4.367   3.647   5.980
14497TIP3   OH243367   5.510   4.133   6.850
14497TIP3    H143368   5.416   4.138   6.863
14497TIP3    H243369   5.521   4.089   6.766
14498TIP3   OH243370   5.177   4.336   6.224
14498TIP3    H143371   5.101   4.279   6.233
14498TIP3    H243372   5.244   4.297   6.281
14499TIP3   OH243373   3.911   4.548   5.711
14499TIP3    H143374   3.983   4.607   5.731
14499TIP3    H243375   3.947   4.487   5.648
14500TIP3   OH243376   3.820   3.834   5.835
14500TIP3    H143377   3.838   3.926   5.853
14500TIP3    H243378   3.766   3.835   5.755
14501TIP3   OH243379   5.155   5.313   6.167
14501TIP3    H143380   5.111   5.369   6.103
14501TIP3    H243381   5.248   5.325   6.151
14502TIP3   OH243382   4.235   3.553   6.697
14502TIP3    H143383   4.200   3.525   6.613
14502TIP3    H243384   4.221   3.479   6.756
14503TIP3   OH243385   3.742   4.817   6.092
14503TIP3    H143386   3.690   4.847   6.166
14503TIP3    H243387   3.700   4.857   6.016
14504TIP3   OH243388   3.941   5.351   7.175
14504TIP3    H143389   4.025   5.352   7.221
14504TIP3    H243390   3.918   5.259   7.169
14505TIP3   OH243391   4.407   5.263   7.214
14505TIP3    H143392   4.501   5.277   7.203
14505TIP3    H243393   4.383   5.206   7.142
14506TIP3   OH243394   5.030   5.216   6.961
14506TIP3    H143395   5.050   5.138   7.013
14506TIP3    H243396   5.106   5.273   6.974
14507TIP3   OH243397   4.914   4.949   5.390
14507TIP3    H143398   4.870   4.864   5.400
14507TIP3    H243399   4.879   4.984   5.308
14508TIP3   OH243400   4.046   4.767   7.351
14508TIP3    H143401   4.071   4.675   7.363
14508TIP3    H243402   3.960   4.764   7.309
14509TIP3   OH243403   4.038   4.354   5.568
14509TIP3    H143404   4.098   4.336   5.641
14509TIP3    H243405   4.095   4.363   5.492
14510TIP3   OH243406   4.640   4.820   7.152
14510TIP3    H143407   4.603   4.844   7.067
14510TIP3    H243408   4.679   4.733   7.138
14511TIP3   OH243409   5.149   4.889   6.756
14511TIP3    H143410   5.226   4.912   6.704
14511TIP3    H243411   5.084   4.956   6.734
14512TIP3   OH243412   4.167   4.524   7.357
14512TIP3    H143413   4.226   4.473   7.302
14512TIP3    H243414   4.201   4.514   7.446
14513TIP3   OH243415   4.226   4.303   5.769
14513TIP3    H143416   4.204   4.270   5.856
14513TIP3    H243417   4.269   4.228   5.726
14514TIP3   OH243418   4.527   4.391   7.030
14514TIP3    H143419   4.437   4.421   7.038
14514TIP3    H243420   4.552   4.416   6.941
14515TIP3   OH243421   4.352   4.114   5.604
14515TIP3    H143422   4.320   4.115   5.514
14515TIP3    H243423   4.447   4.128   5.596
14516TIP3   OH243424   5.034   4.743   7.092
14516TIP3    H143425   5.098   4.704   7.033
14516TIP3    H243426   5.032   4.685   7.168
14517TIP3   OH243427   5.144   4.405   5.284
14517TIP3    H143428   5.131   4.373   5.195
14517TIP3    H243429   5.112   4.495   5.282
14518TIP3   OH243430   4.637   4.156   7.120
14518TIP3    H143431   4.629   4.083   7.058
14518TIP3    H243432   4.595   4.230   7.076
14519TIP3   OH243433   4.630   3.950   6.923
14519TIP3    H143434   4.655   3.986   6.838
14519TIP3    H243435   4.539   3.923   6.913
14520TIP3   OH243436   4.639   4.483   6.798
14520TIP3    H143437   4.728   4.507   6.771
14520TIP3    H243438   4.582   4.539   6.746
14521TIP3   OH243439   5.240   4.448   7.165
14521TIP3    H143440   5.297   4.371   7.162
14521TIP3    H243441   5.300   4.522   7.155
14522TIP3   OH243442   5.264   4.697   6.908
14522TIP3    H143443   5.215   4.763   6.860
14522TIP3    H243444   5.355   4.708   6.878
14523TIP3   OH243445   4.527   4.223   7.373
14523TIP3    H143446   4.458   4.161   7.394
14523TIP3    H243447   4.549   4.207   7.281
14524TIP3   OH243448   4.758   3.723   7.028
14524TIP3    H143449   4.714   3.801   6.996
14524TIP3    H243450   4.695   3.652   7.016
14525TIP3   OH243451   4.882   4.204   7.234
14525TIP3    H143452   4.865   4.183   7.326
14525TIP3    H243453   4.800   4.184   7.190
14526TIP3   OH243454   5.127   4.120   7.133
14526TIP3    H143455   5.051   4.157   7.178
14526TIP3    H243456   5.108   4.026   7.129
14527TIP3   OH243457   5.429   4.034   7.342
14527TIP3    H143458   5.355   4.031   7.282
14527TIP3    H243459   5.409   4.106   7.402
14528TIP3   OH243460   4.367   3.998   7.425
14528TIP3    H143461   4.363   3.911   7.384
14528TIP3    H243462   4.403   3.981   7.513
14529TIP3   OH243463   4.827   3.695   7.295
14529TIP3    H143464   4.894   3.626   7.286
14529TIP3    H243465   4.793   3.706   7.206
14530TIP3   OH243466   4.934   3.908   7.433
14530TIP3    H143467   4.899   3.834   7.383
14530TIP3    H243468   4.861   3.970   7.438
14531TIP3   OH243469   4.189   5.152   5.534
14531TIP3    H143470   4.282   5.144   5.512
14531TIP3    H243471   4.148   5.188   5.456
14532TIP3   OH243472   3.638   4.526   5.736
14532TIP3    H143473   3.730   4.548   5.724
14532TIP3    H243474   3.628   4.441   5.695
14533TIP3   OH243475   3.544   5.120   6.187
14533TIP3    H143476   3.484   5.063   6.138
14533TIP3    H243477   3.589   5.061   6.247
14534TIP3   OH243478   3.686   4.956   6.359
14534TIP3    H143479   3.678   4.881   6.418
14534TIP3    H243480   3.741   5.018   6.406
14535TIP3   OH243481   5.427   5.360   6.159
14535TIP3    H143482   5.449   5.386   6.248
14535TIP3    H243483   5.485   5.411   6.103
14536TIP3   OH243484   5.451   5.388   6.440
14536TIP3    H143485   5.402   5.306   6.433
14536TIP3    H243486   5.519   5.370   6.505
14537TIP3   OH243487   5.507   5.088   7.014
14537TIP3    H143488   5.433   5.099   7.074
14537TIP3    H243489   5.552   5.172   7.015
14538TIP3   OH243490   5.327   4.605   5.628
14538TIP3    H143491   5.380   4.681   5.605
14538TIP3    H243492   5.372   4.565   5.702
14539TIP3   OH243493   5.461   4.461   5.825
14539TIP3    H143494   5.392   4.424   5.881
14539TIP3    H243495   5.522   4.501   5.887
14540TIP3   OH243496   5.497   4.867   6.259
14540TIP3    H143497   5.548   4.798   6.217
14540TIP3    H243498   5.500   4.940   6.198
14541TIP3   OH243499   5.305   5.152   6.443
14541TIP3    H143500   5.239   5.198   6.495
14541TIP3    H243501   5.256   5.112   6.372
14542TIP3   OH243502   5.345   4.383   5.469
14542TIP3    H143503   5.273   4.386   5.405
14542TIP3    H243504   5.331   4.461   5.523
14543TIP3   OH243505   5.226   4.022   5.390
14543TIP3    H143506   5.175   4.061   5.319
14543TIP3    H243507   5.214   3.928   5.380
14544TIP3   OH243508   5.251   4.327   5.956
14544TIP3    H143509   5.253   4.232   5.941
14544TIP3    H243510   5.231   4.336   6.049
14545TIP3   OH243511   3.858   4.398   6.734
14545TIP3    H143512   3.850   4.351   6.651
14545TIP3    H243513   3.952   4.396   6.752
14546TIP3   OH243514   5.524   4.737   6.818
14546TIP3    H143515   5.587   4.667   6.801
14546TIP3    H243516   5.534   4.797   6.743
14547TIP3   OH243517   5.691   4.520   6.804
14547TIP3    H143518   5.619   4.479   6.853
14547TIP3    H243519   5.768   4.468   6.827
14548TIP3   OH243520   5.177   3.750   5.364
14548TIP3    H143521   5.238   3.730   5.435
14548TIP3    H243522   5.092   3.720   5.397
14549TIP3   OH243523   5.240   4.051   5.842
14549TIP3    H143524   5.286   3.968   5.856
14549TIP3    H243525   5.281   4.087   5.763
14550TIP3   OH243526   5.392   4.217   6.370
14550TIP3    H143527   5.470   4.238   6.318
14550TIP3    H243528   5.410   4.255   6.456
14551TIP3   OH243529   5.469   4.361   6.602
14551TIP3    H143530   5.395   4.389   6.655
14551TIP3    H243531   5.501   4.442   6.561
14552TIP3   OH243532   4.112   4.104   7.431
14552TIP3    H143533   4.202   4.075   7.417
14552TIP3    H243534   4.061   4.024   7.434
14553TIP3   OH243535   5.912   3.929   7.132
14553TIP3    H143536   5.986   3.886   7.090
14553TIP3    H243537   5.876   3.986   7.064
14554TIP3   OH243538   5.355   3.802   5.899
14554TIP3    H143539   5.404   3.785   5.979
14554TIP3    H243540   5.294   3.730   5.891
14555TIP3   OH243541   4.050   3.763   6.714
14555TIP3    H143542   4.121   3.699   6.717
14555TIP3    H243543   4.062   3.816   6.793
14556TIP3   OH243544   3.857   4.041   6.796
14556TIP3    H143545   3.908   4.049   6.715
14556TIP3    H243546   3.921   4.016   6.862
14557TIP3   OH243547   5.758   4.056   6.943
14557TIP3    H143548   5.676   4.104   6.932
14557TIP3    H243549   5.745   3.974   6.896
14558TIP3   OH243550   5.396   3.718   5.530
14558TIP3    H143551   5.441   3.654   5.475
14558TIP3    H243552   5.456   3.792   5.534
14559TIP3   OH243553   3.828   3.551   6.278
14559TIP3    H143554   3.744   3.542   6.324
14559TIP3    H243555   3.808   3.608   6.203
14560TIP3   OH243556   4.996   5.292   5.794
14560TIP3    H143557   5.038   5.267   5.712
14560TIP3    H243558   5.037   5.375   5.818
14561TIP3   OH243559   4.081   3.618   7.095
14561TIP3    H143560   4.013   3.626   7.161
14561TIP3    H243561   4.086   3.705   7.055
14562TIP3   OH243562   4.082   5.071   7.175
14562TIP3    H143563   3.990   5.053   7.159
14562TIP3    H243564   4.093   5.056   7.269
14563TIP3   OH243565   4.295   5.123   6.736
14563TIP3    H143566   4.243   5.198   6.705
14563TIP3    H243567   4.378   5.130   6.689
14564TIP3   OH243568   4.691   5.349   6.883
14564TIP3    H143569   4.733   5.344   6.969
14564TIP3    H243570   4.752   5.403   6.830
14565TIP3   OH243571   4.874   5.504   6.744
14565TIP3    H143572   4.931   5.450   6.688
14565TIP3    H243573   4.935   5.556   6.796
14566TIP3   OH243574   5.685   3.817   6.833
14566TIP3    H143575   5.598   3.795   6.799
14566TIP3    H243576   5.732   3.733   6.834
14567TIP3   OH243577   3.943   5.389   6.775
14567TIP3    H143578   3.849   5.405   6.765
14567TIP3    H243579   3.969   5.444   6.850
14568TIP3   OH243580   4.180   5.354   6.637
14568TIP3    H143581   4.095   5.364   6.681
14568TIP3    H243582   4.162   5.373   6.545
14569TIP3   OH243583   4.599   5.367   6.424
14569TIP3    H143584   4.529   5.374   6.359
14569TIP3    H243585   4.608   5.455   6.460
14570TIP3   OH243586   4.864   5.310   6.478
14570TIP3    H143587   4.772   5.325   6.453
14570TIP3    H243588   4.914   5.372   6.425
14571TIP3   OH243589   5.067   5.475   6.372
14571TIP3    H143590   5.064   5.561   6.330
14571TIP3    H243591   5.095   5.416   6.302
14572TIP3   OH243592   3.859   5.127   6.510
14572TIP3    H143593   3.888   5.098   6.596
14572TIP3    H243594   3.929   5.099   6.451
14573TIP3   OH243595   4.063   5.027   6.361
14573TIP3    H143596   4.075   4.940   6.398
14573TIP3    H243597   4.150   5.066   6.360
14574TIP3   OH243598   4.335   5.108   6.381
14574TIP3    H143599   4.352   5.015   6.363
14574TIP3    H243600   4.392   5.128   6.456
14575TIP3   OH243601   4.903   3.751   6.473
14575TIP3    H143602   4.859   3.679   6.519
14575TIP3    H243603   4.969   3.709   6.419
14576TIP3   OH243604   5.403   3.675   6.357
14576TIP3    H143605   5.441   3.722   6.283
14576TIP3    H243606   5.309   3.694   6.353
14577TIP3   OH243607   5.520   3.744   6.116
14577TIP3    H143608   5.589   3.681   6.094
14577TIP3    H243609   5.560   3.829   6.098
14578TIP3   OH243610   4.135   3.454   6.459
14578TIP3    H143611   4.046   3.421   6.473
14578TIP3    H243612   4.190   3.376   6.452
14579TIP3   OH243613   3.957   3.360   6.114
14579TIP3    H143614   3.984   3.411   6.037
14579TIP3    H243615   3.920   3.425   6.173
14580TIP3   OH243616   4.622   3.490   6.361
14580TIP3    H143617   4.669   3.538   6.292
14580TIP3    H243618   4.660   3.521   6.443
14581TIP3   OH243619   5.115   3.632   6.339
14581TIP3    H143620   5.129   3.596   6.251
14581TIP3    H243621   5.123   3.556   6.397
14582TIP3   OH243622   5.172   3.591   5.902
14582TIP3    H143623   5.092   3.638   5.927
14582TIP3    H243624   5.162   3.504   5.939
14583TIP3   OH243625   3.627   4.940   5.874
14583TIP3    H143626   3.548   4.908   5.831
14583TIP3    H243627   3.634   5.032   5.847
14584TIP3   OH243628   4.065   3.493   5.880
14584TIP3    H143629   4.113   3.432   5.822
14584TIP3    H243630   4.133   3.549   5.916
14585TIP3   OH243631   4.548   3.688   5.979
14585TIP3    H143632   4.607   3.635   6.033
14585TIP3    H243633   4.564   3.778   6.008
14586TIP3   OH243634   4.465   5.123   5.483
14586TIP3    H143635   4.551   5.160   5.505
14586TIP3    H243636   4.467   5.117   5.387
14587TIP3   OH243637   5.130   5.243   5.558
14587TIP3    H143638   5.133   5.147   5.558
14587TIP3    H243639   5.081   5.265   5.478
14588TIP3   OH243640   4.387   3.716   7.363
14588TIP3    H143641   4.349   3.652   7.424
14588TIP3    H243642   4.476   3.729   7.395
14589TIP3   OH243643   4.631   3.739   7.492
14589TIP3    H143644   4.702   3.715   7.432
14589TIP3    H243645   4.623   3.665   7.552
14590TIP3   OH243646   3.740   4.947   5.521
14590TIP3    H143647   3.673   4.982   5.580
14590TIP3    H243648   3.791   4.887   5.576
14591TIP3   OH243649   5.352   5.366   6.762
14591TIP3    H143650   5.279   5.335   6.708
14591TIP3    H243651   5.338   5.460   6.769
14592TIP3   OH243652   6.633   4.745   5.492
14592TIP3    H143653   6.593   4.831   5.479
14592TIP3    H243654   6.565   4.683   5.464
14593TIP3   OH243655   6.636   4.746   5.932
14593TIP3    H143656   6.687   4.721   6.009
14593TIP3    H243657   6.588   4.666   5.909
14594TIP3   OH243658   5.925   4.598   6.274
14594TIP3    H143659   5.963   4.545   6.345
14594TIP3    H243660   6.000   4.627   6.222
14595TIP3   OH243661   6.922   5.049   5.606
14595TIP3    H143662   6.894   4.985   5.672
14595TIP3    H243663   6.930   5.131   5.653
14596TIP3   OH243664   5.924   5.033   5.948
14596TIP3    H143665   5.904   4.940   5.959
14596TIP3    H243666   6.019   5.036   5.938
14597TIP3   OH243667   5.605   4.243   5.722
14597TIP3    H143668   5.567   4.324   5.756
14597TIP3    H243669   5.530   4.191   5.692
14598TIP3   OH243670   5.685   4.558   5.971
14598TIP3    H143671   5.735   4.479   5.991
14598TIP3    H243672   5.751   4.624   5.949
14599TIP3   OH243673   6.556   5.480   5.619
14599TIP3    H143674   6.585   5.419   5.551
14599TIP3    H243675   6.559   5.428   5.700
14600TIP3   OH243676   6.435   4.968   5.923
14600TIP3    H143677   6.479   4.888   5.894
14600TIP3    H243678   6.505   5.026   5.951
14601TIP3   OH243679   7.472   4.288   5.943
14601TIP3    H143680   7.487   4.374   5.984
14601TIP3    H243681   7.496   4.301   5.852
14602TIP3   OH243682   6.839   4.455   5.966
14602TIP3    H143683   6.872   4.368   5.990
14602TIP3    H243684   6.803   4.443   5.878
14603TIP3   OH243685   6.203   4.120   5.924
14603TIP3    H143686   6.179   4.192   5.865
14603TIP3    H243687   6.149   4.047   5.896
14604TIP3   OH243688   6.898   4.224   5.557
14604TIP3    H143689   6.960   4.215   5.630
14604TIP3    H243690   6.950   4.257   5.485
14605TIP3   OH243691   5.822   4.330   6.044
14605TIP3    H143692   5.903   4.309   6.090
14605TIP3    H243693   5.825   4.277   5.964
14606TIP3   OH243694   6.237   4.528   5.868
14606TIP3    H143695   6.331   4.514   5.873
14606TIP3    H243696   6.202   4.446   5.833
14607TIP3   OH243697   7.525   4.511   6.106
14607TIP3    H143698   7.435   4.545   6.102
14607TIP3    H243699   7.559   4.543   6.190
14608TIP3   OH243700   6.167   4.107   6.378
14608TIP3    H143701   6.109   4.136   6.307
14608TIP3    H243702   6.117   4.120   6.458
14609TIP3   OH243703   6.480   4.953   5.399
14609TIP3    H143704   6.462   4.937   5.306
14609TIP3    H243705   6.447   5.042   5.414
14610TIP3   OH243706   6.271   4.892   6.134
14610TIP3    H143707   6.217   4.963   6.169
14610TIP3    H243708   6.318   4.931   6.061
14611TIP3   OH243709   7.052   4.241   5.781
14611TIP3    H143710   7.009   4.216   5.863
14611TIP3    H243711   7.107   4.316   5.805
14612TIP3   OH243712   6.061   4.222   6.145
14612TIP3    H143713   6.118   4.293   6.174
14612TIP3    H243714   6.111   4.179   6.076
14613TIP3   OH243715   6.116   5.096   6.241
14613TIP3    H143716   6.100   5.186   6.211
14613TIP3    H243717   6.040   5.074   6.293
14614TIP3   OH243718   5.503   4.803   5.533
14614TIP3    H143719   5.467   4.817   5.445
14614TIP3    H243720   5.522   4.891   5.566
14615TIP3   OH243721   6.935   5.301   5.741
14615TIP3    H143722   6.846   5.296   5.778
14615TIP3    H243723   6.935   5.382   5.691
14616TIP3   OH243724   7.261   4.193   6.109
14616TIP3    H143725   7.178   4.206   6.062
14616TIP3    H243726   7.328   4.216   6.045
14617TIP3   OH243727   6.544   3.832   6.102
14617TIP3    H143728   6.506   3.748   6.077
14617TIP3    H243729   6.475   3.875   6.152
14618TIP3   OH243730   6.651   5.339   5.400
14618TIP3    H143731   6.696   5.255   5.391
14618TIP3    H243732   6.717   5.405   5.381
14619TIP3   OH243733   6.799   5.117   5.366
14619TIP3    H143734   6.823   5.057   5.296
14619TIP3    H243735   6.844   5.082   5.444
14620TIP3   OH243736   7.177   5.180   6.086
14620TIP3    H143737   7.153   5.108   6.028
14620TIP3    H243738   7.162   5.259   6.033
14621TIP3   OH243739   6.459   4.580   5.346
14621TIP3    H143740   6.379   4.628   5.323
14621TIP3    H243741   6.510   4.579   5.265
14622TIP3   OH243742   7.341   4.855   5.955
14622TIP3    H143743   7.256   4.898   5.949
14622TIP3    H243744   7.379   4.865   5.867
14623TIP3   OH243745   6.827   4.703   5.303
14623TIP3    H143746   6.767   4.724   5.374
14623TIP3    H243747   6.906   4.673   5.347
14624TIP3   OH243748   7.044   4.704   6.257
14624TIP3    H143749   7.039   4.787   6.304
14624TIP3    H243750   6.961   4.697   6.210
14625TIP3   OH243751   6.048   4.671   5.718
14625TIP3    H143752   6.005   4.608   5.660
14625TIP3    H243753   6.119   4.621   5.759
14626TIP3   OH243754   6.185   5.086   5.851
14626TIP3    H143755   6.161   5.071   5.760
14626TIP3    H243756   6.272   5.046   5.859
14627TIP3   OH243757   6.138   4.654   6.096
14627TIP3    H143758   6.176   4.616   6.017
14627TIP3    H243759   6.186   4.735   6.110
14628TIP3   OH243760   6.694   5.304   5.868
14628TIP3    H143761   6.680   5.381   5.923
14628TIP3    H243762   6.679   5.230   5.926
14629TIP3   OH243763   6.308   5.192   6.416
14629TIP3    H143764   6.246   5.249   6.462
14629TIP3    H243765   6.254   5.141   6.356
14630TIP3   OH243766   6.660   4.545   5.149
14630TIP3    H143767   6.718   4.611   5.187
14630TIP3    H243768   6.671   4.554   5.055
14631TIP3   OH243769   6.080   4.753   6.526
14631TIP3    H143770   6.083   4.840   6.566
14631TIP3    H243771   5.987   4.729   6.529
14632TIP3   OH243772   6.394   5.220   5.410
14632TIP3    H143773   6.480   5.262   5.412
14632TIP3    H243774   6.339   5.281   5.361
14633TIP3   OH243775   6.101   5.354   6.501
14633TIP3    H143776   6.078   5.364   6.409
14633TIP3    H243777   6.018   5.339   6.545
14634TIP3   OH243778   7.156   3.767   5.206
14634TIP3    H143779   7.080   3.788   5.261
14634TIP3    H243780   7.166   3.844   5.150
14635TIP3   OH243781   5.901   4.510   5.539
14635TIP3    H143782   5.826   4.558   5.503
14635TIP3    H243783   5.862   4.435   5.583
14636TIP3   OH243784   6.978   5.137   4.770
14636TIP3    H143785   6.962   5.226   4.739
14636TIP3    H243786   7.071   5.122   4.754
14637TIP3   OH243787   5.704   4.905   6.451
14637TIP3    H143788   5.633   4.884   6.390
14637TIP3    H243789   5.737   4.820   6.480
14638TIP3   OH243790   5.538   5.105   6.110
14638TIP3    H143791   5.626   5.133   6.133
14638TIP3    H243792   5.482   5.180   6.134
14639TIP3   OH243793   7.397   5.566   6.149
14639TIP3    H143794   7.403   5.471   6.155
14639TIP3    H243795   7.316   5.589   6.196
14640TIP3   OH243796   6.497   5.339   6.279
14640TIP3    H143797   6.489   5.430   6.306
14640TIP3    H243798   6.428   5.293   6.328
14641TIP3   OH243799   6.268   5.432   5.247
14641TIP3    H143800   6.202   5.396   5.188
14641TIP3    H243801   6.236   5.519   5.269
14642TIP3   OH243802   5.720   5.293   5.607
14642TIP3    H143803   5.763   5.284   5.692
14642TIP3    H243804   5.668   5.213   5.598
14643TIP3   OH243805   6.474   5.412   4.909
14643TIP3    H143806   6.546   5.450   4.859
14643TIP3    H243807   6.504   5.416   5.000
14644TIP3   OH243808   6.530   5.453   5.176
14644TIP3    H143809   6.439   5.441   5.203
14644TIP3    H243810   6.582   5.405   5.241
14645TIP3   OH243811   7.275   4.665   6.429
14645TIP3    H143812   7.202   4.671   6.368
14645TIP3    H243813   7.299   4.573   6.429
14646TIP3   OH243814   5.902   5.094   6.416
14646TIP3    H143815   5.953   5.080   6.496
14646TIP3    H243816   5.831   5.031   6.422
14647TIP3   OH243817   6.319   3.914   6.240
14647TIP3    H143818   6.270   3.852   6.185
14647TIP3    H243819   6.252   3.973   6.275
14648TIP3   OH243820   6.824   4.024   6.432
14648TIP3    H143821   6.889   3.996   6.496
14648TIP3    H243822   6.740   4.009   6.475
14649TIP3   OH243823   7.043   4.445   6.371
14649TIP3    H143824   6.998   4.448   6.455
14649TIP3    H243825   7.025   4.530   6.331
14650TIP3   OH243826   6.679   4.535   4.869
14650TIP3    H143827   6.659   4.506   4.779
14650TIP3    H243828   6.762   4.582   4.860
14651TIP3   OH243829   6.433   3.944   5.209
14651TIP3    H143830   6.402   3.947   5.300
14651TIP3    H243831   6.397   3.862   5.174
14652TIP3   OH243832   6.217   4.431   6.244
14652TIP3    H143833   6.173   4.434   6.329
14652TIP3    H243834   6.192   4.512   6.200
14653TIP3   OH243835   6.102   4.312   5.753
14653TIP3    H143836   6.015   4.284   5.779
14653TIP3    H243837   6.111   4.280   5.663
14654TIP3   OH243838   6.578   4.382   5.492
14654TIP3    H143839   6.530   4.454   5.450
14654TIP3    H243840   6.637   4.350   5.424
14655TIP3   OH243841   6.794   4.719   6.674
14655TIP3    H143842   6.758   4.632   6.691
14655TIP3    H243843   6.889   4.703   6.665
14656TIP3   OH243844   6.752   4.408   5.710
14656TIP3    H143845   6.681   4.427   5.649
14656TIP3    H243846   6.798   4.334   5.670
14657TIP3   OH243847   6.058   4.438   6.470
14657TIP3    H143848   6.066   4.501   6.541
14657TIP3    H243849   6.042   4.355   6.513
14658TIP3   OH243850   6.102   3.925   5.169
14658TIP3    H143851   6.093   3.925   5.264
14658TIP3    H243852   6.020   3.964   5.137
14659TIP3   OH243853   5.658   3.960   6.031
14659TIP3    H143854   5.716   4.003   6.094
14659TIP3    H243855   5.718   3.919   5.968
14660TIP3   OH243856   5.559   3.950   5.538
14660TIP3    H143857   5.620   3.993   5.478
14660TIP3    H243858   5.494   4.017   5.559
14661TIP3   OH243859   6.789   4.646   6.151
14661TIP3    H143860   6.812   4.581   6.084
14661TIP3    H243861   6.749   4.594   6.221
14662TIP3   OH243862   6.470   4.104   5.819
14662TIP3    H143863   6.391   4.107   5.874
14662TIP3    H243864   6.542   4.095   5.881
14663TIP3   OH243865   5.864   4.188   5.811
14663TIP3    H143866   5.775   4.190   5.776
14663TIP3    H243867   5.893   4.098   5.798
14664TIP3   OH243868   6.120   4.197   5.501
14664TIP3    H143869   6.216   4.201   5.502
14664TIP3    H243870   6.096   4.222   5.411
14665TIP3   OH243871   6.914   4.194   6.020
14665TIP3    H143872   6.898   4.208   6.113
14665TIP3    H243873   6.845   4.133   5.993
14666TIP3   OH243874   5.941   4.229   5.263
14666TIP3    H143875   5.867   4.206   5.319
14666TIP3    H243876   5.929   4.176   5.184
14667TIP3   OH243877   7.109   5.896   6.236
14667TIP3    H143878   7.101   5.910   6.142
14667TIP3    H243879   7.187   5.944   6.261
14668TIP3   OH243880   6.056   5.009   6.651
14668TIP3    H143881   6.136   5.022   6.703
14668TIP3    H243882   5.985   5.012   6.715
14669TIP3   OH243883   6.513   4.484   5.913
14669TIP3    H143884   6.574   4.428   5.866
14669TIP3    H243885   6.505   4.444   6.000
14670TIP3   OH243886   6.022   3.945   5.802
14670TIP3    H143887   5.976   3.879   5.854
14670TIP3    H243888   6.076   3.894   5.741
14671TIP3   OH243889   6.480   4.385   6.171
14671TIP3    H143890   6.392   4.407   6.201
14671TIP3    H243891   6.538   4.428   6.233
14672TIP3   OH243892   6.212   4.704   5.286
14672TIP3    H143893   6.145   4.636   5.277
14672TIP3    H243894   6.186   4.754   5.364
14673TIP3   OH243895   7.106   4.987   5.904
14673TIP3    H143896   7.140   5.036   5.829
14673TIP3    H243897   7.027   4.944   5.870
14674TIP3   OH243898   6.683   4.052   5.197
14674TIP3    H143899   6.591   4.028   5.201
14674TIP3    H243900   6.684   4.146   5.214
14675TIP3   OH243901   6.618   5.082   6.299
14675TIP3    H143902   6.631   5.063   6.392
14675TIP3    H243903   6.574   5.167   6.298
14676TIP3   OH243904   6.742   4.313   5.275
14676TIP3    H143905   6.837   4.321   5.285
14676TIP3    H243906   6.716   4.392   5.228
14677TIP3   OH243907   5.909   4.742   5.948
14677TIP3    H143908   5.950   4.728   5.862
14677TIP3    H243909   5.974   4.711   6.011
14678TIP3   OH243910   6.376   4.880   5.143
14678TIP3    H143911   6.330   4.962   5.127
14678TIP3    H243912   6.312   4.825   5.188
14679TIP3   OH243913   5.815   4.692   6.599
14679TIP3    H143914   5.857   4.697   6.685
14679TIP3    H243915   5.748   4.624   6.609
14680TIP3   OH243916   6.520   4.817   6.600
14680TIP3    H143917   6.456   4.754   6.569
14680TIP3    H243918   6.604   4.775   6.586
14681TIP3   OH243919   6.773   5.365   6.208
14681TIP3    H143920   6.679   5.350   6.207
14681TIP3    H243921   6.793   5.393   6.297
14682TIP3   OH243922   7.157   4.402   5.082
14682TIP3    H143923   7.100   4.356   5.021
14682TIP3    H243924   7.162   4.491   5.048
14683TIP3   OH243925   7.418   5.292   6.165
14683TIP3    H143926   7.328   5.261   6.168
14683TIP3    H243927   7.454   5.255   6.085
14684TIP3   OH243928   6.899   5.193   5.031
14684TIP3    H143929   6.879   5.113   5.080
14684TIP3    H243930   6.920   5.163   4.943
14685TIP3   OH243931   6.880   4.848   5.805
14685TIP3    H143932   6.791   4.824   5.830
14685TIP3    H243933   6.915   4.769   5.763
14686TIP3   OH243934   6.040   5.085   5.609
14686TIP3    H143935   6.035   5.161   5.553
14686TIP3    H243936   5.952   5.075   5.645
14687TIP3   OH243937   5.583   4.383   5.335
14687TIP3    H143938   5.624   4.466   5.361
14687TIP3    H243939   5.499   4.383   5.382
14688TIP3   OH243940   6.105   4.838   5.499
14688TIP3    H143941   6.099   4.928   5.529
14688TIP3    H243942   6.088   4.785   5.577
14689TIP3   OH243943   6.319   5.410   6.069
14689TIP3    H143944   6.354   5.484   6.019
14689TIP3    H243945   6.393   5.377   6.119
14690TIP3   OH243946   5.954   5.309   5.463
14690TIP3    H143947   5.867   5.315   5.503
14690TIP3    H243948   5.990   5.398   5.471
14691TIP3   OH243949   6.670   5.077   6.029
14691TIP3    H143950   6.657   5.074   6.124
14691TIP3    H243951   6.736   5.009   6.012
14692TIP3   OH243952   6.931   5.564   6.082
14692TIP3    H143953   6.860   5.504   6.107
14692TIP3    H243954   6.895   5.617   6.012
14693TIP3   OH243955   6.944   5.400   4.708
14693TIP3    H143956   6.908   5.428   4.624
14693TIP3    H243957   6.892   5.447   4.773
14694TIP3   OH243958   6.017   4.184   6.599
14694TIP3    H143959   5.923   4.190   6.612
14694TIP3    H243960   6.049   4.133   6.674
14695TIP3   OH243961   6.881   4.940   5.163
14695TIP3    H143962   6.845   4.861   5.203
14695TIP3    H243963   6.969   4.915   5.135
14696TIP3   OH243964   5.748   5.299   6.233
14696TIP3    H143965   5.801   5.239   6.286
14696TIP3    H243966   5.763   5.385   6.273
14697TIP3   OH243967   6.026   4.900   4.923
14697TIP3    H143968   6.048   4.807   4.917
14697TIP3    H243969   6.007   4.914   5.016
14698TIP3   OH243970   5.964   4.929   5.200
14698TIP3    H143971   6.025   4.902   5.270
14698TIP3    H243972   5.965   5.024   5.202
14699TIP3   OH243973   5.686   4.630   5.416
14699TIP3    H143974   5.626   4.680   5.472
14699TIP3    H243975   5.704   4.688   5.342
14700TIP3   OH243976   6.863   4.250   6.283
14700TIP3    H143977   6.938   4.294   6.321
14700TIP3    H243978   6.851   4.171   6.336
14701TIP3   OH243979   6.752   4.006   5.466
14701TIP3    H143980   6.729   4.024   5.374
14701TIP3    H243981   6.794   4.087   5.496
14702TIP3   OH243982   6.231   5.114   5.115
14702TIP3    H143983   6.149   5.136   5.160
14702TIP3    H243984   6.238   5.177   5.044
14703TIP3   OH243985   6.394   4.192   5.567
14703TIP3    H143986   6.456   4.260   5.541
14703TIP3    H243987   6.417   4.172   5.657
14704TIP3   OH243988   6.694   4.465   6.338
14704TIP3    H143989   6.679   4.455   6.432
14704TIP3    H243990   6.743   4.387   6.314
14705TIP3   OH243991   6.579   3.899   5.654
14705TIP3    H143992   6.553   3.975   5.706
14705TIP3    H243993   6.640   3.934   5.589
14706TIP3   OH243994   5.987   5.202   5.213
14706TIP3    H143995   5.960   5.271   5.152
14706TIP3    H243996   5.973   5.240   5.300
14707TIP3   OH243997   6.075   3.921   5.443
14707TIP3    H143998   6.062   4.008   5.482
14707TIP3    H243999   6.167   3.901   5.459
14708TIP3   OH244000   7.305   4.381   6.329
14708TIP3    H144001   7.212   4.395   6.350
14708TIP3    H244002   7.304   4.322   6.254
14709TIP3   OH244003   6.974   4.593   5.711
14709TIP3    H144004   6.897   4.537   5.719
14709TIP3    H244005   7.040   4.551   5.767
14710TIP3   OH244006   5.722   4.793   5.190
14710TIP3    H144007   5.792   4.858   5.198
14710TIP3    H244008   5.759   4.726   5.133
14711TIP3   OH244009   5.654   4.119   5.328
14711TIP3    H144010   5.631   4.211   5.341
14711TIP3    H244011   5.577   4.080   5.286
14712TIP3   OH244012   6.952   5.565   5.652
14712TIP3    H144013   6.908   5.623   5.589
14712TIP3    H244014   7.045   5.579   5.634
14713TIP3   OH244015   5.995   3.841   6.240
14713TIP3    H144016   6.046   3.811   6.165
14713TIP3    H244017   5.982   3.763   6.293
14714TIP3   OH244018   5.542   5.077   5.587
14714TIP3    H144019   5.494   5.112   5.662
14714TIP3    H244020   5.497   5.114   5.511
14715TIP3   OH244021   5.752   5.607   6.657
14715TIP3    H144022   5.833   5.614   6.707
14715TIP3    H244023   5.741   5.514   6.641
14716TIP3   OH244024   6.213   5.512   6.697
14716TIP3    H144025   6.303   5.482   6.703
14716TIP3    H244026   6.175   5.460   6.626
14717TIP3   OH244027   6.829   5.442   6.466
14717TIP3    H144028   6.849   5.370   6.526
14717TIP3    H244029   6.901   5.504   6.477
14718TIP3   OH244030   5.851   5.025   6.840
14718TIP3    H144031   5.864   4.948   6.895
14718TIP3    H244032   5.765   5.012   6.801
14719TIP3   OH244033   5.867   4.601   5.061
14719TIP3    H144034   5.916   4.570   5.138
14719TIP3    H244035   5.934   4.618   4.995
14720TIP3   OH244036   6.471   5.090   6.611
14720TIP3    H144037   6.415   5.111   6.536
14720TIP3    H244038   6.489   4.996   6.602
14721TIP3   OH244039   6.952   5.146   6.248
14721TIP3    H144040   7.026   5.170   6.192
14721TIP3    H244041   6.884   5.210   6.226
14722TIP3   OH244042   5.964   4.702   6.838
14722TIP3    H144043   6.011   4.623   6.863
14722TIP3    H244044   5.976   4.762   6.911
14723TIP3   OH244045   6.011   4.501   5.280
14723TIP3    H144046   5.985   4.516   5.371
14723TIP3    H244047   5.995   4.408   5.265
14724TIP3   OH244048   6.329   4.636   6.501
14724TIP3    H144049   6.242   4.675   6.507
14724TIP3    H244050   6.360   4.660   6.413
14725TIP3   OH244051   6.918   4.979   6.635
14725TIP3    H144052   6.957   4.958   6.550
14725TIP3    H244053   6.862   4.904   6.655
14726TIP3   OH244054   6.913   4.660   4.784
14726TIP3    H144055   6.915   4.626   4.695
14726TIP3    H244056   6.888   4.752   4.774
14727TIP3   OH244057   6.458   4.408   6.593
14727TIP3    H144058   6.437   4.333   6.537
14727TIP3    H244059   6.402   4.479   6.560
14728TIP3   OH244060   6.425   4.201   6.403
14728TIP3    H144061   6.447   4.227   6.314
14728TIP3    H244062   6.336   4.166   6.397
14729TIP3   OH244063   6.444   4.727   6.271
14729TIP3    H144064   6.531   4.750   6.238
14729TIP3    H244065   6.385   4.787   6.226
14730TIP3   OH244066   7.076   4.677   6.655
14730TIP3    H144067   7.065   4.582   6.658
14730TIP3    H244068   7.150   4.691   6.596
14731TIP3   OH244069   7.055   4.944   6.396
14731TIP3    H144070   7.008   5.013   6.348
14731TIP3    H244071   7.147   4.961   6.378
14732TIP3   OH244072   6.308   4.481   6.905
14732TIP3    H144073   6.238   4.445   6.960
14732TIP3    H244074   6.292   4.444   6.819
14733TIP3   OH244075   6.561   3.979   6.509
14733TIP3    H144076   6.515   4.056   6.476
14733TIP3    H244077   6.496   3.908   6.502
14734TIP3   OH244078   6.679   4.472   6.738
14734TIP3    H144079   6.663   4.444   6.828
14734TIP3    H244080   6.599   4.447   6.691
14735TIP3   OH244081   6.928   4.431   6.616
14735TIP3    H144082   6.846   4.427   6.667
14735TIP3    H244083   6.991   4.384   6.670
14736TIP3   OH244084   7.165   4.360   6.748
14736TIP3    H144085   7.179   4.265   6.750
14736TIP3    H244086   7.160   4.385   6.840
14737TIP3   OH244087   6.634   3.944   6.771
14737TIP3    H144088   6.700   3.875   6.762
14737TIP3    H244089   6.602   3.958   6.682
14738TIP3   OH244090   6.712   4.157   6.927
14738TIP3    H144091   6.681   4.085   6.872
14738TIP3    H244092   6.637   4.216   6.933
14739TIP3   OH244093   5.971   5.401   5.019
14739TIP3    H144094   6.056   5.374   4.983
14739TIP3    H244095   5.921   5.432   4.943
14740TIP3   OH244096   5.457   4.804   5.259
14740TIP3    H144097   5.547   4.813   5.229
14740TIP3    H244098   5.425   4.724   5.216
14741TIP3   OH244099   5.340   5.382   5.666
14741TIP3    H144100   5.274   5.332   5.617
14741TIP3    H244101   5.380   5.318   5.725
14742TIP3   OH244102   5.481   5.213   5.837
14742TIP3    H144103   5.472   5.143   5.901
14742TIP3    H244104   5.535   5.279   5.881
14743TIP3   OH244105   7.224   5.616   5.643
14743TIP3    H144106   7.242   5.645   5.732
14743TIP3    H244107   7.280   5.670   5.588
14744TIP3   OH244108   7.238   5.647   5.924
14744TIP3    H144109   7.193   5.563   5.920
14744TIP3    H244110   7.309   5.634   5.986
14745TIP3   OH244111   7.320   5.349   6.508
14745TIP3    H144112   7.240   5.364   6.559
14745TIP3    H244113   7.363   5.435   6.506
14746TIP3   OH244114   7.140   4.858   5.103
14746TIP3    H144115   7.196   4.932   5.080
14746TIP3    H244116   7.184   4.818   5.178
14747TIP3   OH244117   7.259   4.717   5.310
14747TIP3    H144118   7.188   4.684   5.366
14747TIP3    H244119   7.321   4.757   5.371
14748TIP3   OH244120   7.298   5.127   5.749
14748TIP3    H144121   7.345   5.058   5.703
14748TIP3    H244122   7.297   5.200   5.688
14749TIP3   OH244123   7.104   5.402   5.938
14749TIP3    H144124   7.037   5.449   5.987
14749TIP3    H244125   7.057   5.363   5.864
14750TIP3   OH244126   7.145   4.639   4.938
14750TIP3    H144127   7.065   4.640   4.886
14750TIP3    H244128   7.138   4.717   4.994
14751TIP3   OH244129   7.007   4.286   4.885
14751TIP3    H144130   6.969   4.313   4.802
14751TIP3    H244131   7.002   4.191   4.884
14752TIP3   OH244132   7.045   4.589   5.441
14752TIP3    H144133   7.046   4.495   5.426
14752TIP3    H244134   7.024   4.598   5.534
14753TIP3   OH244135   5.660   4.636   6.233
14753TIP3    H144136   5.651   4.610   6.141
14753TIP3    H244137   5.754   4.633   6.249
14754TIP3   OH244138   7.313   4.996   6.308
14754TIP3    H144139   7.382   4.932   6.289
14754TIP3    H244140   7.301   5.042   6.226
14755TIP3   OH244141   7.494   4.785   6.303
14755TIP3    H144142   7.419   4.744   6.347
14755TIP3    H244143   7.568   4.727   6.323
14756TIP3   OH244144   6.971   4.016   4.868
14756TIP3    H144145   7.035   3.986   4.933
14756TIP3    H244146   6.889   3.975   4.895
14757TIP3   OH244147   7.038   4.311   5.327
14757TIP3    H144148   7.084   4.227   5.339
14757TIP3    H244149   7.078   4.349   5.249
14758TIP3   OH244150   7.190   4.472   5.856
14758TIP3    H144151   7.270   4.489   5.807
14758TIP3    H244152   7.205   4.511   5.942
14759TIP3   OH244153   7.264   4.622   6.084
14759TIP3    H144154   7.188   4.648   6.136
14759TIP3    H244155   7.292   4.703   6.041
14760TIP3   OH244156   5.860   4.308   6.867
14760TIP3    H144157   5.933   4.337   6.922
14760TIP3    H244158   5.839   4.221   6.900
14761TIP3   OH244159   7.720   4.223   6.612
14761TIP3    H144160   7.788   4.168   6.574
14761TIP3    H244161   7.681   4.268   6.537
14762TIP3   OH244162   7.153   4.059   5.379
14762TIP3    H144163   7.198   4.045   5.462
14762TIP3    H244164   7.090   3.988   5.373
14763TIP3   OH244165   5.836   4.058   6.223
14763TIP3    H144166   5.885   3.977   6.234
14763TIP3    H244167   5.902   4.123   6.199
14764TIP3   OH244168   5.625   4.317   6.257
14764TIP3    H144169   5.682   4.294   6.184
14764TIP3    H244170   5.651   4.406   6.281
14765TIP3   OH244171   7.564   4.322   6.405
14765TIP3    H144172   7.476   4.359   6.405
14765TIP3    H244173   7.555   4.238   6.359
14766TIP3   OH244174   7.198   3.967   5.021
14766TIP3    H144175   7.247   3.906   4.966
14766TIP3    H244176   7.251   4.046   5.024
14767TIP3   OH244177   5.612   3.795   5.759
14767TIP3    H144178   5.531   3.798   5.810
14767TIP3    H244179   5.599   3.860   5.690
14768TIP3   OH244180   6.814   5.539   5.307
14768TIP3    H144181   6.855   5.502   5.228
14768TIP3    H244182   6.851   5.626   5.315
14769TIP3   OH244183   5.834   3.837   6.591
14769TIP3    H144184   5.792   3.844   6.677
14769TIP3    H244185   5.786   3.898   6.536
14770TIP3   OH244186   5.874   5.330   6.661
14770TIP3    H144187   5.781   5.306   6.654
14770TIP3    H244188   5.898   5.305   6.750
14771TIP3   OH244189   6.091   5.375   6.219
14771TIP3    H144190   6.041   5.450   6.189
14771TIP3    H244191   6.175   5.383   6.174
14772TIP3   OH244192   6.483   5.604   6.356
14772TIP3    H144193   6.521   5.598   6.443
14772TIP3    H244194   6.543   5.660   6.307
14773TIP3   OH244195   6.671   5.762   6.231
14773TIP3    H144196   6.726   5.712   6.171
14773TIP3    H244197   6.732   5.815   6.282
14774TIP3   OH244198   7.490   4.064   6.318
14774TIP3    H144199   7.400   4.042   6.293
14774TIP3    H244200   7.537   3.981   6.313
14775TIP3   OH244201   5.754   5.613   6.269
14775TIP3    H144202   5.663   5.630   6.245
14775TIP3    H244203   5.775   5.680   6.334
14776TIP3   OH244204   5.984   5.608   6.118
14776TIP3    H144205   5.901   5.611   6.165
14776TIP3    H244206   5.961   5.630   6.027
14777TIP3   OH244207   6.395   5.624   5.910
14777TIP3    H144208   6.323   5.631   5.847
14777TIP3    H244209   6.402   5.711   5.948
14778TIP3   OH244210   6.657   5.563   5.967
14778TIP3    H144211   6.567   5.581   5.943
14778TIP3    H244212   6.709   5.623   5.913
14779TIP3   OH244213   6.860   5.723   5.858
14779TIP3    H144214   6.859   5.810   5.818
14779TIP3    H244215   6.889   5.665   5.787
14780TIP3   OH244216   5.661   5.387   5.983
14780TIP3    H144217   5.688   5.362   6.072
14780TIP3    H244218   5.731   5.355   5.927
14781TIP3   OH244219   5.866   5.276   5.841
14781TIP3    H144220   5.877   5.191   5.883
14781TIP3    H244221   5.952   5.317   5.846
14782TIP3   OH244222   6.134   5.361   5.865
14782TIP3    H144223   6.154   5.269   5.848
14782TIP3    H244224   6.188   5.383   5.941
14783TIP3   OH244225   6.699   4.019   5.958
14783TIP3    H144226   6.655   3.952   6.009
14783TIP3    H244227   6.764   3.972   5.906
14784TIP3   OH244228   7.195   3.933   5.843
14784TIP3    H144229   7.227   3.983   5.768
14784TIP3    H244230   7.100   3.946   5.841
14785TIP3   OH244231   7.309   4.006   5.602
14785TIP3    H144232   7.378   3.944   5.578
14785TIP3    H244233   7.348   4.092   5.590
14786TIP3   OH244234   5.909   3.742   5.944
14786TIP3    H144235   5.841   3.680   5.968
14786TIP3    H244236   5.990   3.702   5.976
14787TIP3   OH244237   5.724   3.605   5.590
14787TIP3    H144238   5.761   3.660   5.521
14787TIP3    H244239   5.693   3.667   5.656
14788TIP3   OH244240   6.326   3.780   5.787
14788TIP3    H144241   6.408   3.827   5.804
14788TIP3    H244242   6.288   3.768   5.873
14789TIP3   OH244243   6.911   3.898   5.824
14789TIP3    H144244   6.907   3.862   5.735
14789TIP3    H244245   6.916   3.821   5.881
14790TIP3   OH244246   6.968   3.848   5.390
14790TIP3    H144247   6.889   3.897   5.413
14790TIP3    H244248   6.955   3.761   5.428
14791TIP3   OH244249   5.431   5.195   5.364
14791TIP3    H144250   5.351   5.162   5.322
14791TIP3    H244251   5.434   5.287   5.340
14792TIP3   OH244252   5.861   3.751   5.366
14792TIP3    H144253   5.907   3.684   5.315
14792TIP3    H244254   5.931   3.805   5.403
14793TIP3   OH244255   6.349   3.937   5.474
14793TIP3    H144256   6.394   3.879   5.535
14793TIP3    H244257   6.367   4.025   5.506
14794TIP3   OH244258   6.217   5.322   4.922
14794TIP3    H144259   6.304   5.360   4.919
14794TIP3    H244260   6.207   5.279   4.836
14795TIP3   OH244261   6.936   5.460   5.072
14795TIP3    H144262   6.927   5.365   5.064
14795TIP3    H244263   6.887   5.495   4.998
14796TIP3   OH244264   6.133   3.985   6.801
14796TIP3    H144265   6.107   3.930   6.875
14796TIP3    H244266   6.224   4.009   6.820
14797TIP3   OH244267   6.390   3.983   6.902
14797TIP3    H144268   6.475   3.961   6.863
14797TIP3    H244269   6.393   3.943   6.989
14798TIP3   OH244270   5.558   5.259   5.086
14798TIP3    H144271   5.500   5.318   5.135
14798TIP3    H244272   5.571   5.184   5.144
14799TIP3   OH244273   7.231   4.091   6.742
14799TIP3    H144274   7.249   4.061   6.831
14799TIP3    H244275   7.316   4.086   6.698
14800TIP3   OH244276   7.145   5.623   6.250
14800TIP3    H144277   7.074   5.591   6.194
14800TIP3    H244278   7.133   5.718   6.251
14801TIP3   OH244279   8.426   5.017   4.986
14801TIP3    H144280   8.395   5.103   4.959
14801TIP3    H244281   8.355   4.957   4.962
14802TIP3   OH244282   8.423   5.003   5.413
14802TIP3    H144283   8.478   4.986   5.489
14802TIP3    H244284   8.378   4.921   5.396
14803TIP3   OH244285   7.722   4.860   5.757
14803TIP3    H144286   7.763   4.808   5.827
14803TIP3    H244287   7.795   4.884   5.700
14804TIP3   OH244288   8.691   5.313   5.080
14804TIP3    H144289   8.678   5.247   5.148
14804TIP3    H244290   8.712   5.393   5.129
14805TIP3   OH244291   7.721   5.289   5.434
14805TIP3    H144292   7.701   5.196   5.443
14805TIP3    H244293   7.816   5.293   5.426
14806TIP3   OH244294   7.398   4.491   5.220
14806TIP3    H144295   7.361   4.574   5.249
14806TIP3    H244296   7.324   4.446   5.179
14807TIP3   OH244297   7.483   4.812   5.454
14807TIP3    H144298   7.534   4.735   5.477
14807TIP3    H244299   7.548   4.878   5.430
14808TIP3   OH244300   8.360   5.734   5.103
14808TIP3    H144301   8.381   5.669   5.036
14808TIP3    H244302   8.364   5.685   5.185
14809TIP3   OH244303   8.236   5.224   5.414
14809TIP3    H144304   8.282   5.144   5.390
14809TIP3    H244305   8.304   5.283   5.445
14810TIP3   OH244306   9.217   4.541   5.455
14810TIP3    H144307   9.243   4.628   5.487
14810TIP3    H244308   9.231   4.545   5.361
14811TIP3   OH244309   8.635   4.710   5.453
14811TIP3    H144310   8.666   4.624   5.482
14811TIP3    H244311   8.598   4.693   5.367
14812TIP3   OH244312   7.993   4.368   5.406
14812TIP3    H144313   7.970   4.441   5.349
14812TIP3    H244314   7.937   4.296   5.377
14813TIP3   OH244315   8.685   4.474   5.052
14813TIP3    H144316   8.748   4.467   5.123
14813TIP3    H244317   8.735   4.508   4.978
14814TIP3   OH244318   7.620   4.586   5.539
14814TIP3    H144319   7.703   4.566   5.582
14814TIP3    H244320   7.621   4.534   5.459
14815TIP3   OH244321   8.034   4.785   5.357
14815TIP3    H144322   8.129   4.771   5.362
14815TIP3    H244323   7.999   4.703   5.323
14816TIP3   OH244324   9.292   4.770   5.598
14816TIP3    H144325   9.204   4.807   5.595
14816TIP3    H244326   9.333   4.811   5.673
14817TIP3   OH244327   7.975   4.377   5.861
14817TIP3    H144328   7.925   4.412   5.787
14817TIP3    H244329   7.919   4.392   5.937
14818TIP3   OH244330   8.326   5.233   4.843
14818TIP3    H144331   8.287   5.201   4.762
14818TIP3    H244332   8.270   5.306   4.870
14819TIP3   OH244333   8.064   5.150   5.619
14819TIP3    H144334   8.012   5.223   5.653
14819TIP3    H244335   8.115   5.188   5.547
14820TIP3   OH244336   8.841   4.493   5.274
14820TIP3    H144337   8.800   4.472   5.358
14820TIP3    H244338   8.896   4.569   5.293
14821TIP3   OH244339   7.868   4.481   5.628
14821TIP3    H144340   7.923   4.556   5.651
14821TIP3    H244341   7.914   4.438   5.556
14822TIP3   OH244342   7.913   5.356   5.728
14822TIP3    H144343   7.900   5.445   5.698
14822TIP3    H244344   7.835   5.336   5.780
14823TIP3   OH244345   7.302   5.061   4.999
14823TIP3    H144346   7.263   5.072   4.912
14823TIP3    H244347   7.316   5.150   5.030
14824TIP3   OH244348   8.721   5.562   5.218
14824TIP3    H144349   8.633   5.558   5.257
14824TIP3    H244350   8.722   5.645   5.171
14825TIP3   OH244351   9.035   4.421   5.621
14825TIP3    H144352   8.947   4.441   5.588
14825TIP3    H244353   9.094   4.455   5.554
14826TIP3   OH244354   8.312   4.066   5.597
14826TIP3    H144355   8.307   3.974   5.622
14826TIP3    H244356   8.234   4.105   5.635
14827TIP3   OH244357   8.435   5.579   4.883
14827TIP3    H144358   8.491   5.503   4.869
14827TIP3    H244359   8.489   5.654   4.857
14828TIP3   OH244360   8.580   5.352   4.830
14828TIP3    H144361   8.503   5.295   4.833
14828TIP3    H244362   8.628   5.332   4.911
14829TIP3   OH244363   8.945   5.446   5.564
14829TIP3    H144364   8.931   5.371   5.507
14829TIP3    H244365   8.936   5.522   5.507
14830TIP3   OH244366   8.253   4.852   4.841
14830TIP3    H144367   8.171   4.897   4.822
14830TIP3    H244368   8.299   4.849   4.756
14831TIP3   OH244369   8.223   4.661   4.518
14831TIP3    H144370   8.287   4.710   4.569
14831TIP3    H244371   8.273   4.592   4.476
14832TIP3   OH244372   9.122   5.098   5.421
14832TIP3    H144373   9.041   5.149   5.418
14832TIP3    H244374   9.158   5.106   5.333
14833TIP3   OH244375   8.609   4.936   4.800
14833TIP3    H144376   8.556   4.968   4.873
14833TIP3    H244377   8.692   4.911   4.841
14834TIP3   OH244378   8.834   4.971   5.752
14834TIP3    H144379   8.831   5.056   5.797
14834TIP3    H244380   8.753   4.969   5.701
14835TIP3   OH244381   7.837   4.916   5.201
14835TIP3    H144382   7.801   4.856   5.136
14835TIP3    H244383   7.909   4.868   5.241
14836TIP3   OH244384   7.984   5.340   5.342
14836TIP3    H144385   7.959   5.327   5.250
14836TIP3    H244386   8.071   5.301   5.349
14837TIP3   OH244387   7.932   4.913   5.579
14837TIP3    H144388   7.971   4.876   5.500
14837TIP3    H244389   7.980   4.995   5.593
14838TIP3   OH244390   8.483   5.559   5.354
14838TIP3    H144391   8.473   5.638   5.407
14838TIP3    H244392   8.471   5.487   5.415
14839TIP3   OH244393   8.108   5.450   5.902
14839TIP3    H144394   8.046   5.506   5.947
14839TIP3    H244395   8.055   5.399   5.841
14840TIP3   OH244396   8.439   4.801   4.631
14840TIP3    H144397   8.500   4.857   4.679
14840TIP3    H244398   8.471   4.804   4.540
14841TIP3   OH244399   7.861   4.991   6.056
14841TIP3    H144400   7.864   5.086   6.068
14841TIP3    H244401   7.767   4.972   6.046
14842TIP3   OH244402   8.184   5.469   4.883
14842TIP3    H144403   8.267   5.515   4.892
14842TIP3    H244404   8.127   5.530   4.838
14843TIP3   OH244405   7.899   5.610   5.986
14843TIP3    H144406   7.876   5.621   5.894
14843TIP3    H244407   7.815   5.595   6.030
14844TIP3   OH244408   8.917   4.030   4.693
14844TIP3    H144409   8.844   4.049   4.752
14844TIP3    H244410   8.928   4.111   4.643
14845TIP3   OH244411   7.710   4.759   4.998
14845TIP3    H144412   7.632   4.806   4.968
14845TIP3    H244413   7.679   4.671   5.019
14846TIP3   OH244414   8.773   5.417   4.269
14846TIP3    H144415   8.794   5.510   4.269
14846TIP3    H244416   8.857   5.373   4.259
14847TIP3   OH244417   7.502   5.166   5.939
14847TIP3    H144418   7.431   5.149   5.877
14847TIP3    H244419   7.532   5.079   5.964
14848TIP3   OH244420   7.336   5.363   5.598
14848TIP3    H144421   7.425   5.393   5.619
14848TIP3    H244422   7.281   5.438   5.619
14849TIP3   OH244423   9.181   5.801   5.644
14849TIP3    H144424   9.184   5.706   5.655
14849TIP3    H244425   9.102   5.827   5.691
14850TIP3   OH244426   8.298   5.596   5.768
14850TIP3    H144427   8.286   5.687   5.797
14850TIP3    H244428   8.231   5.547   5.814
14851TIP3   OH244429   8.080   5.689   4.712
14851TIP3    H144430   8.031   5.674   4.631
14851TIP3    H244431   8.045   5.772   4.745
14852TIP3   OH244432   7.513   5.546   5.089
14852TIP3    H144433   7.554   5.536   5.175
14852TIP3    H244434   7.458   5.469   5.079
14853TIP3   OH244435   8.273   5.627   4.343
14853TIP3    H144436   8.325   5.555   4.308
14853TIP3    H244437   8.309   5.641   4.431
14854TIP3   OH244438   8.334   5.665   4.612
14854TIP3    H144439   8.247   5.670   4.652
14854TIP3    H244440   8.391   5.632   4.681
14855TIP3   OH244441   9.066   4.932   5.925
14855TIP3    H144442   8.991   4.933   5.865
14855TIP3    H244443   9.089   4.840   5.932
14856TIP3   OH244444   7.698   5.356   5.902
14856TIP3    H144445   7.749   5.341   5.982
14856TIP3    H244446   7.626   5.293   5.907
14857TIP3   OH244447   8.077   4.157   5.721
14857TIP3    H144448   7.993   4.122   5.691
14857TIP3    H244449   8.054   4.238   5.767
14858TIP3   OH244450   8.619   4.282   5.924
14858TIP3    H144451   8.690   4.255   5.982
14858TIP3    H244452   8.539   4.265   5.974
14859TIP3   OH244453   8.822   4.705   5.835
14859TIP3    H144454   8.786   4.699   5.923
14859TIP3    H244455   8.811   4.797   5.810
14860TIP3   OH244456   8.520   4.775   4.369
14860TIP3    H144457   8.473   4.777   4.286
14860TIP3    H244458   8.599   4.827   4.353
14861TIP3   OH244459   8.226   4.200   4.689
14861TIP3    H144460   8.191   4.207   4.778
14861TIP3    H244461   8.189   4.119   4.654
14862TIP3   OH244462   8.018   4.693   5.727
14862TIP3    H144463   7.973   4.699   5.811
14862TIP3    H244464   7.996   4.774   5.682
14863TIP3   OH244465   7.894   4.571   5.250
14863TIP3    H144466   7.805   4.546   5.276
14863TIP3    H244467   7.903   4.538   5.161
14864TIP3   OH244468   8.371   4.646   4.979
14864TIP3    H144469   8.325   4.720   4.939
14864TIP3    H244470   8.429   4.614   4.910
14865TIP3   OH244471   8.562   4.909   6.048
14865TIP3    H144472   8.534   4.842   6.111
14865TIP3    H244473   8.654   4.924   6.067
14866TIP3   OH244474   8.537   4.658   5.203
14866TIP3    H144475   8.469   4.678   5.138
14866TIP3    H244476   8.586   4.585   5.164
14867TIP3   OH244477   7.859   4.707   5.950
14867TIP3    H144478   7.868   4.771   6.021
14867TIP3    H244479   7.839   4.625   5.995
14868TIP3   OH244480   7.885   4.181   4.663
14868TIP3    H144481   7.878   4.186   4.758
14868TIP3    H244482   7.806   4.224   4.630
14869TIP3   OH244483   7.446   4.225   5.528
14869TIP3    H144484   7.519   4.260   5.579
14869TIP3    H244485   7.483   4.207   5.442
14870TIP3   OH244486   7.345   4.204   5.027
14870TIP3    H144487   7.389   4.240   4.950
14870TIP3    H244488   7.281   4.271   5.051
14871TIP3   OH244489   8.588   4.914   5.625
14871TIP3    H144490   8.614   4.847   5.562
14871TIP3    H244491   8.544   4.865   5.695
14872TIP3   OH244492   8.259   4.359   5.300
14872TIP3    H144493   8.180   4.358   5.354
14872TIP3    H244494   8.331   4.350   5.363
14873TIP3   OH244495   7.656   4.444   5.308
14873TIP3    H144496   7.568   4.448   5.269
14873TIP3    H244497   7.684   4.354   5.293
14874TIP3   OH244498   7.908   4.448   5.006
14874TIP3    H144499   8.003   4.457   4.996
14874TIP3    H244500   7.873   4.464   4.918
14875TIP3   OH244501   8.699   4.444   5.512
14875TIP3    H144502   8.679   4.463   5.603
14875TIP3    H244503   8.631   4.384   5.483
14876TIP3   OH244504   7.796   4.468   4.757
14876TIP3    H144505   7.732   4.421   4.703
14876TIP3    H244506   7.854   4.511   4.693
14877TIP3   OH244507   8.902   6.148   5.724
14877TIP3    H144508   8.896   6.161   5.629
14877TIP3    H244509   8.979   6.199   5.750
14878TIP3   OH244510   7.846   5.263   6.136
14878TIP3    H144511   7.927   5.282   6.184
14878TIP3    H244512   7.777   5.273   6.202
14879TIP3   OH244513   8.308   4.736   5.404
14879TIP3    H144514   8.375   4.687   5.356
14879TIP3    H244515   8.307   4.694   5.491
14880TIP3   OH244516   7.797   4.195   5.295
14880TIP3    H144517   7.770   4.120   5.348
14880TIP3    H244518   7.816   4.157   5.209
14881TIP3   OH244519   8.283   4.637   5.667
14881TIP3    H144520   8.196   4.667   5.692
14881TIP3    H244521   8.343   4.688   5.721
14882TIP3   OH244522   8.017   4.991   4.784
14882TIP3    H144523   7.946   4.930   4.764
14882TIP3    H244524   7.991   5.033   4.865
14883TIP3   OH244525   8.895   5.248   5.381
14883TIP3    H144526   8.931   5.298   5.308
14883TIP3    H244527   8.817   5.205   5.345
14884TIP3   OH244528   8.478   4.306   4.696
14884TIP3    H144529   8.385   4.284   4.691
14884TIP3    H244530   8.480   4.401   4.707
14885TIP3   OH244531   8.425   5.328   5.804
14885TIP3    H144532   8.481   5.315   5.881
14885TIP3    H244533   8.389   5.415   5.816
14886TIP3   OH244534   8.532   4.571   4.762
14886TIP3    H144535   8.627   4.575   4.775
14886TIP3    H244536   8.511   4.648   4.710
14887TIP3   OH244537   7.705   4.999   5.429
14887TIP3    H144538   7.742   4.981   5.343
14887TIP3    H244539   7.772   4.970   5.491
14888TIP3   OH244540   8.170   5.146   4.623
14888TIP3    H144541   8.124   5.230   4.621
14888TIP3    H244542   8.117   5.090   4.679
14889TIP3   OH244543   7.585   4.928   6.072
14889TIP3    H144544   7.585   4.900   6.163
14889TIP3    H244545   7.509   4.884   6.033
14890TIP3   OH244546   8.333   5.069   6.089
14890TIP3    H144547   8.263   5.009   6.063
14890TIP3    H244548   8.414   5.026   6.059
14891TIP3   OH244549   8.567   5.623   5.692
14891TIP3    H144550   8.472   5.608   5.696
14891TIP3    H244551   8.590   5.656   5.779
14892TIP3   OH244552   8.940   4.663   4.576
14892TIP3    H144553   8.890   4.617   4.509
14892TIP3    H244554   8.942   4.754   4.546
14893TIP3   OH244555   9.187   5.522   5.662
14893TIP3    H144556   9.093   5.506   5.652
14893TIP3    H244557   9.224   5.499   5.576
14894TIP3   OH244558   8.702   5.465   4.540
14894TIP3    H144559   8.662   5.399   4.597
14894TIP3    H244560   8.710   5.421   4.455
14895TIP3   OH244561   8.671   5.109   5.280
14895TIP3    H144562   8.582   5.088   5.308
14895TIP3    H244563   8.705   5.028   5.243
14896TIP3   OH244564   7.832   5.345   5.103
14896TIP3    H144565   7.827   5.418   5.041
14896TIP3    H244566   7.745   5.342   5.143
14897TIP3   OH244567   7.383   4.633   4.794
14897TIP3    H144568   7.426   4.714   4.822
14897TIP3    H244569   7.300   4.633   4.840
14898TIP3   OH244570   7.921   5.101   5.010
14898TIP3    H144571   7.899   5.190   5.037
14898TIP3    H244572   7.892   5.045   5.082
14899TIP3   OH244573   8.117   5.664   5.556
14899TIP3    H144574   8.152   5.737   5.504
14899TIP3    H244575   8.193   5.633   5.606
14900TIP3   OH244576   7.748   5.563   4.945
14900TIP3    H144577   7.662   5.571   4.984
14900TIP3    H244578   7.786   5.651   4.954
14901TIP3   OH244579   8.464   5.337   5.529
14901TIP3    H144580   8.449   5.332   5.624
14901TIP3    H244581   8.544   5.286   5.515
14902TIP3   OH244582   8.454   5.207   4.392
14902TIP3    H144583   8.504   5.174   4.467
14902TIP3    H244584   8.370   5.162   4.397
14903TIP3   OH244585   8.723   5.822   5.568
14903TIP3    H144586   8.653   5.761   5.592
14903TIP3    H244587   8.685   5.874   5.497
14904TIP3   OH244588   8.851   5.701   4.278
14904TIP3    H144589   8.877   5.708   4.186
14904TIP3    H244590   8.764   5.741   4.282
14905TIP3   OH244591   7.799   4.454   6.065
14905TIP3    H144592   7.704   4.464   6.067
14905TIP3    H244593   7.818   4.394   6.138
14906TIP3   OH244594   8.622   5.106   4.582
14906TIP3    H144595   8.607   5.057   4.663
14906TIP3    H244596   8.717   5.119   4.579
14907TIP3   OH244597   7.545   5.564   5.718
14907TIP3    H144598   7.600   5.507   5.772
14907TIP3    H244599   7.559   5.651   5.754
14908TIP3   OH244600   7.804   5.136   4.351
14908TIP3    H144601   7.806   5.041   4.346
14908TIP3    H244602   7.779   5.156   4.442
14909TIP3   OH244603   7.753   5.196   4.625
14909TIP3    H144604   7.817   5.159   4.685
14909TIP3    H244605   7.752   5.290   4.645
14910TIP3   OH244606   7.484   4.880   4.889
14910TIP3    H144607   7.425   4.930   4.946
14910TIP3    H244608   7.503   4.939   4.816
14911TIP3   OH244609   8.640   4.509   5.770
14911TIP3    H144610   8.716   4.558   5.802
14911TIP3    H244611   8.634   4.433   5.829
14912TIP3   OH244612   8.530   4.260   4.965
14912TIP3    H144613   8.513   4.277   4.873
14912TIP3    H244614   8.576   4.338   4.997
14913TIP3   OH244615   8.024   5.374   4.616
14913TIP3    H144616   7.941   5.398   4.658
14913TIP3    H244617   8.050   5.452   4.568
14914TIP3   OH244618   8.187   4.454   5.049
14914TIP3    H144619   8.249   4.523   5.024
14914TIP3    H244620   8.211   4.433   5.140
14915TIP3   OH244621   8.487   4.748   5.821
14915TIP3    H144622   8.512   4.789   5.903
14915TIP3    H244623   8.534   4.666   5.819
14916TIP3   OH244624   8.349   4.148   5.139
14916TIP3    H144625   8.324   4.225   5.191
14916TIP3    H244626   8.418   4.180   5.080
14917TIP3   OH244627   7.773   5.461   4.691
14917TIP3    H144628   7.745   5.530   4.631
14917TIP3    H244629   7.761   5.498   4.778
14918TIP3   OH244630   7.865   4.175   4.942
14918TIP3    H144631   7.853   4.265   4.973
14918TIP3    H244632   7.960   4.160   4.948
14919TIP3   OH244633   9.086   4.658   5.819
14919TIP3    H144634   8.991   4.665   5.828
14919TIP3    H244635   9.099   4.599   5.745
14920TIP3   OH244636   8.757   4.850   5.197
14920TIP3    H144637   8.680   4.794   5.209
14920TIP3    H244638   8.824   4.811   5.254
14921TIP3   OH244639   7.509   5.059   4.670
14921TIP3    H144640   7.574   5.129   4.671
14921TIP3    H244641   7.547   4.991   4.613
14922TIP3   OH244642   7.401   4.355   4.804
14922TIP3    H144643   7.411   4.450   4.811
14922TIP3    H244644   7.333   4.342   4.738
14923TIP3   OH244645   8.751   5.829   5.129
14923TIP3    H144646   8.711   5.880   5.059
14923TIP3    H244647   8.845   5.843   5.120
14924TIP3   OH244648   7.817   4.069   5.682
14924TIP3    H144649   7.787   4.036   5.597
14924TIP3    H244650   7.808   3.993   5.741
14925TIP3   OH244651   7.323   5.339   5.056
14925TIP3    H144652   7.276   5.372   5.132
14925TIP3    H244653   7.276   5.376   4.981
14926TIP3   OH244654   7.547   5.864   6.143
14926TIP3    H144655   7.631   5.866   6.190
14926TIP3    H244656   7.530   5.772   6.126
14927TIP3   OH244657   8.014   5.761   6.184
14927TIP3    H144658   8.103   5.727   6.191
14927TIP3    H244659   7.976   5.713   6.111
14928TIP3   OH244660   7.959   5.370   4.302
14928TIP3    H144661   7.919   5.294   4.342
14928TIP3    H244662   8.038   5.337   4.259
14929TIP3   OH244663   8.626   5.710   5.946
14929TIP3    H144664   8.644   5.639   6.007
14929TIP3    H244665   8.699   5.771   5.956
14930TIP3   OH244666   8.405   5.419   4.226
14930TIP3    H144667   8.440   5.353   4.286
14930TIP3    H244668   8.461   5.414   4.149
14931TIP3   OH244669   7.641   5.270   6.328
14931TIP3    H144670   7.659   5.176   6.338
14931TIP3    H244671   7.556   5.274   6.285
14932TIP3   OH244672   7.656   4.884   4.528
14932TIP3    H144673   7.714   4.855   4.598
14932TIP3    H244674   7.703   4.863   4.447
14933TIP3   OH244675   8.262   5.343   6.105
14933TIP3    H144676   8.219   5.365   6.023
14933TIP3    H244677   8.300   5.256   6.091
14934TIP3   OH244678   8.202   5.085   4.358
14934TIP3    H144679   8.182   5.095   4.451
14934TIP3    H244680   8.184   4.993   4.339
14935TIP3   OH244681   8.731   5.396   5.726
14935TIP3    H144682   8.808   5.419   5.674
14935TIP3    H244683   8.669   5.467   5.709
14936TIP3   OH244684   7.754   5.016   6.335
14936TIP3    H144685   7.825   4.996   6.275
14936TIP3    H244686   7.797   5.030   6.420
14937TIP3   OH244687   7.820   4.806   4.739
14937TIP3    H144688   7.790   4.778   4.826
14937TIP3    H244689   7.865   4.729   4.704
14938TIP3   OH244690   8.125   4.896   6.000
14938TIP3    H144691   8.037   4.933   6.010
14938TIP3    H244692   8.152   4.923   5.912
14939TIP3   OH244693   7.957   4.615   4.590
14939TIP3    H144694   7.925   4.612   4.500
14939TIP3    H244695   8.051   4.628   4.582
14940TIP3   OH244696   8.622   5.265   6.067
14940TIP3    H144697   8.693   5.232   6.012
14940TIP3    H244698   8.622   5.207   6.143
14941TIP3   OH244699   8.729   4.922   4.263
14941TIP3    H144700   8.719   4.883   4.177
14941TIP3    H244701   8.710   5.015   4.250
14942TIP3   OH244702   8.222   4.661   6.104
14942TIP3    H144703   8.226   4.591   6.038
14942TIP3    H244704   8.190   4.737   6.056
14943TIP3   OH244705   8.233   4.465   5.898
14943TIP3    H144706   8.261   4.500   5.814
14943TIP3    H244707   8.143   4.436   5.884
14944TIP3   OH244708   8.230   4.990   5.768
14944TIP3    H144709   8.319   5.022   5.755
14944TIP3    H244710   8.175   5.048   5.716
14945TIP3   OH244711   8.832   4.934   6.144
14945TIP3    H144712   8.862   4.845   6.161
14945TIP3    H244713   8.910   4.981   6.115
14946TIP3   OH244714   8.854   5.218   5.889
14946TIP3    H144715   8.802   5.280   5.838
14946TIP3    H244716   8.944   5.231   5.858
14947TIP3   OH244717   8.108   4.738   6.348
14947TIP3    H144718   8.041   4.672   6.366
14947TIP3    H244719   8.138   4.718   6.259
14948TIP3   OH244720   8.354   4.234   6.004
14948TIP3    H144721   8.313   4.314   5.970
14948TIP3    H244722   8.288   4.166   5.990
14949TIP3   OH244723   8.477   4.701   6.207
14949TIP3    H144724   8.469   4.687   6.302
14949TIP3    H244725   8.391   4.679   6.172
14950TIP3   OH244726   8.720   4.652   6.078
14950TIP3    H144727   8.641   4.653   6.133
14950TIP3    H244728   8.790   4.628   6.137
14951TIP3   OH244729   8.950   4.624   6.229
14951TIP3    H144730   8.966   4.530   6.234
14951TIP3    H244731   8.951   4.653   6.320
14952TIP3   OH244732   7.937   4.523   6.413
14952TIP3    H144733   7.944   4.437   6.373
14952TIP3    H244734   7.978   4.513   6.499
14953TIP3   OH244735   8.418   4.209   6.269
14953TIP3    H144736   8.486   4.142   6.264
14953TIP3    H244737   8.389   4.221   6.179
14954TIP3   OH244738   8.518   4.421   6.414
14954TIP3    H144739   8.487   4.348   6.360
14954TIP3    H244740   8.445   4.482   6.415
14955TIP3   OH244741   7.749   5.650   4.487
14955TIP3    H144742   7.843   5.643   4.471
14955TIP3    H244743   7.715   5.693   4.409
14956TIP3   OH244744   7.239   5.056   4.725
14956TIP3    H144745   7.331   5.072   4.702
14956TIP3    H244746   7.215   4.979   4.675
14957TIP3   OH244747   7.135   5.632   5.154
14957TIP3    H144748   7.072   5.575   5.111
14957TIP3    H244749   7.182   5.575   5.215
14958TIP3   OH244750   7.283   5.469   5.322
14958TIP3    H144751   7.273   5.398   5.385
14958TIP3    H244752   7.336   5.535   5.368
14959TIP3   OH244753   9.017   5.903   5.136
14959TIP3    H144754   9.040   5.895   5.228
14959TIP3    H244755   9.044   5.992   5.112
14960TIP3   OH244756   9.036   5.900   5.417
14960TIP3    H144757   8.989   5.817   5.410
14960TIP3    H244758   9.104   5.884   5.482
14961TIP3   OH244759   9.081   5.607   5.984
14961TIP3    H144760   9.014   5.614   6.052
14961TIP3    H244761   9.122   5.694   5.983
14962TIP3   OH244762   8.898   5.131   4.606
14962TIP3    H144763   8.925   5.221   4.621
14962TIP3    H244764   8.943   5.080   4.674
14963TIP3   OH244765   9.029   4.980   4.793
14963TIP3    H144766   8.965   4.938   4.851
14963TIP3    H244767   9.093   5.020   4.852
14964TIP3   OH244768   9.070   5.390   5.216
14964TIP3    H144769   9.122   5.319   5.178
14964TIP3    H244770   9.079   5.462   5.154
14965TIP3   OH244771   8.892   5.666   5.412
14965TIP3    H144772   8.825   5.710   5.464
14965TIP3    H244773   8.844   5.627   5.339
14966TIP3   OH244774   8.929   4.906   4.449
14966TIP3    H144775   8.858   4.908   4.385
14966TIP3    H244776   8.918   4.988   4.499
14967TIP3   OH244777   8.807   4.554   4.367
14967TIP3    H144778   8.756   4.591   4.295
14967TIP3    H244779   8.790   4.460   4.361
14968TIP3   OH244780   8.835   4.840   4.932
14968TIP3    H144781   8.837   4.745   4.917
14968TIP3    H244782   8.814   4.848   5.025
14969TIP3   OH244783   7.458   4.896   5.712
14969TIP3    H144784   7.448   4.869   5.621
14969TIP3    H244785   7.552   4.893   5.728
14970TIP3   OH244786   9.111   5.263   5.794
14970TIP3    H144787   9.174   5.191   5.782
14970TIP3    H244788   9.139   5.330   5.732
14971TIP3   OH244789   9.277   5.046   5.791
14971TIP3    H144790   9.207   5.006   5.841
14971TIP3    H244791   9.353   4.990   5.806
14972TIP3   OH244792   8.740   4.289   4.353
14972TIP3    H144793   8.806   4.264   4.418
14972TIP3    H244794   8.661   4.243   4.380
14973TIP3   OH244795   8.816   4.572   4.815
14973TIP3    H144796   8.856   4.487   4.828
14973TIP3    H244797   8.859   4.609   4.738
14974TIP3   OH244798   8.971   4.732   5.338
14974TIP3    H144799   9.048   4.757   5.288
14974TIP3    H244800   8.984   4.770   5.425
14975TIP3   OH244801   9.038   4.880   5.567
14975TIP3    H144802   8.970   4.912   5.626
14975TIP3    H244803   9.068   4.958   5.520
14976TIP3   OH244804   7.670   4.574   6.348
14976TIP3    H144805   7.764   4.571   6.368
14976TIP3    H244806   7.635   4.491   6.382
14977TIP3   OH244807   9.458   4.503   6.114
14977TIP3    H144808   9.546   4.473   6.091
14977TIP3    H244809   9.427   4.552   6.038
14978TIP3   OH244810   8.906   4.318   4.872
14978TIP3    H144811   8.952   4.306   4.955
14978TIP3    H244812   8.847   4.243   4.867
14979TIP3   OH244813   7.658   4.297   5.694
14979TIP3    H144814   7.710   4.217   5.702
14979TIP3    H244815   7.722   4.366   5.675
14980TIP3   OH244816   7.433   4.561   5.753
14980TIP3    H144817   7.485   4.547   5.674
14980TIP3    H244818   7.455   4.650   5.782
14981TIP3   OH244819   9.344   4.603   5.892
14981TIP3    H144820   9.256   4.639   5.904
14981TIP3    H244821   9.329   4.518   5.850
14982TIP3   OH244822   8.956   4.248   4.525
14982TIP3    H144823   8.997   4.188   4.463
14982TIP3    H244824   9.017   4.321   4.532
14983TIP3   OH244825   7.423   4.078   5.257
14983TIP3    H144826   7.338   4.063   5.299
14983TIP3    H244827   7.402   4.130   5.179
14984TIP3   OH244828   8.562   5.792   4.783
14984TIP3    H144829   8.619   5.782   4.707
14984TIP3    H244830   8.602   5.862   4.835
14985TIP3   OH244831   7.648   4.131   6.090
14985TIP3    H144832   7.590   4.111   6.164
14985TIP3    H244833   7.592   4.178   6.028
14986TIP3   OH244834   7.673   5.585   6.150
14986TIP3    H144835   7.580   5.566   6.141
14986TIP3    H244836   7.692   5.568   6.243
14987TIP3   OH244837   7.889   5.633   5.705
14987TIP3    H144838   7.838   5.707   5.673
14987TIP3    H244839   7.974   5.640   5.661
14988TIP3   OH244840   8.279   5.860   5.852
14988TIP3    H144841   8.319   5.851   5.938
14988TIP3    H244842   8.340   5.913   5.802
14989TIP3   OH244843   8.466   6.012   5.720
14989TIP3    H144844   8.520   5.962   5.658
14989TIP3    H244845   8.528   6.064   5.770
14990TIP3   OH244846   9.255   4.361   5.796
14990TIP3    H144847   9.172   4.363   5.749
14990TIP3    H244848   9.285   4.270   5.789
14991TIP3   OH244849   7.549   5.861   5.759
14991TIP3    H144850   7.459   5.880   5.734
14991TIP3    H244851   7.572   5.930   5.821
14992TIP3   OH244852   7.778   5.863   5.604
14992TIP3    H144853   7.694   5.864   5.650
14992TIP3    H244854   7.755   5.887   5.514
14993TIP3   OH244855   8.189   5.873   5.391
14993TIP3    H144856   8.117   5.884   5.329
14993TIP3    H244857   8.198   5.959   5.433
14994TIP3   OH244858   8.452   5.818   5.449
14994TIP3    H144859   8.361   5.836   5.425
14994TIP3    H244860   8.503   5.880   5.398
14995TIP3   OH244861   8.654   5.978   5.340
14995TIP3    H144862   8.651   6.066   5.304
14995TIP3    H244863   8.685   5.923   5.268
14996TIP3   OH244864   7.458   5.645   5.467
14996TIP3    H144865   7.485   5.621   5.556
14996TIP3    H244866   7.529   5.612   5.411
14997TIP3   OH244867   7.661   5.531   5.325
14997TIP3    H144868   7.673   5.446   5.368
14997TIP3    H244869   7.747   5.573   5.329
14998TIP3   OH244870   7.929   5.616   5.354
14998TIP3    H144871   7.950   5.524   5.337
14998TIP3    H244872   7.984   5.639   5.429
14999TIP3   OH244873   8.480   4.266   5.446
14999TIP3    H144874   8.440   4.196   5.497
14999TIP3    H244875   8.545   4.222   5.392
15000TIP3   OH244876   8.962   4.198   5.330
15000TIP3    H144877   8.998   4.249   5.258
15000TIP3    H244878   8.869   4.218   5.329
15001TIP3   OH244879   9.070   4.275   5.091
15001TIP3    H144880   9.143   4.220   5.064
15001TIP3    H244881   9.096   4.364   5.067
15002TIP3   OH244882   7.729   3.968   5.440
15002TIP3    H144883   7.640   3.934   5.451
15002TIP3    H244884   7.783   3.890   5.430
15003TIP3   OH244885   7.554   3.883   5.095
15003TIP3    H144886   7.577   3.931   5.016
15003TIP3    H244887   7.516   3.949   5.153
15004TIP3   OH244888   8.211   4.003   5.337
15004TIP3    H144889   8.258   4.052   5.270
15004TIP3    H244890   8.250   4.033   5.420
15005TIP3   OH244891   8.682   4.142   5.307
15005TIP3    H144892   8.702   4.106   5.221
15005TIP3    H244893   8.696   4.069   5.367
15006TIP3   OH244894   8.741   4.098   4.891
15006TIP3    H144895   8.661   4.144   4.917
15006TIP3    H244896   8.732   4.011   4.930
15007TIP3   OH244897   7.195   5.447   4.831
15007TIP3    H144898   7.113   5.414   4.794
15007TIP3    H244899   7.201   5.537   4.800
15008TIP3   OH244900   7.657   4.007   4.852
15008TIP3    H144901   7.702   3.944   4.797
15008TIP3    H244902   7.726   4.062   4.889
15009TIP3   OH244903   8.141   4.202   4.952
15009TIP3    H144904   8.198   4.149   5.007
15009TIP3    H244905   8.156   4.292   4.981
15010TIP3   OH244906   8.018   5.599   4.442
15010TIP3    H144907   8.101   5.626   4.404
15010TIP3    H244908   7.991   5.524   4.390
15011TIP3   OH244909   8.712   5.735   4.560
15011TIP3    H144910   8.709   5.640   4.557
15011TIP3    H244911   8.672   5.763   4.478
15012TIP3   OH244912   7.960   4.255   6.322
15012TIP3    H144913   7.926   4.188   6.382
15012TIP3    H244914   8.052   4.264   6.345
15013TIP3   OH244915   8.206   4.261   6.447
15013TIP3    H144916   8.282   4.239   6.393
15013TIP3    H244917   8.202   4.191   6.512
15014TIP3   OH244918   7.343   5.495   4.555
15014TIP3    H144919   7.280   5.558   4.590
15014TIP3    H244920   7.342   5.423   4.617
15015TIP3   OH244921   9.013   4.354   6.234
15015TIP3    H144922   9.033   4.331   6.325
15015TIP3    H244923   9.096   4.345   6.188
15016TIP3   OH244924   8.934   5.875   5.741
15016TIP3    H144925   8.863   5.845   5.685
15016TIP3    H244926   8.925   5.971   5.743
15017TIP3   OH244927   9.473   5.131   5.303
15017TIP3    H144928   9.509   5.062   5.359
15017TIP3    H244929   9.503   5.212   5.343
15018TIP3   OH244930   9.411   5.566   5.000
15018TIP3    H144931   9.419   5.471   5.008
15018TIP3    H244932   9.485   5.601   5.049
15019TIP3   OH244933   9.174   4.752   4.709
15019TIP3    H144934   9.141   4.837   4.737
15019TIP3    H244935   9.098   4.708   4.671
15020TIP3   OH244936   9.259   5.080   4.912
15020TIP3    H144937   9.310   5.000   4.923
15020TIP3    H244938   9.307   5.129   4.845
15021TIP3   OH244939   0.211   5.870   4.658
15021TIP3    H144940   0.305   5.864   4.674
15021TIP3    H244941   0.187   5.958   4.688
15022TIP3   OH244942   0.205   5.516   4.978
15022TIP3    H144943   0.241   5.527   4.890
15022TIP3    H244944   0.268   5.561   5.036
15023TIP3   OH244945   0.055   4.648   5.088
15023TIP3    H144946   0.011   4.727   5.056
15023TIP3    H244947   0.089   4.606   5.009
15024TIP3   OH244948   9.379   4.842   4.979
15024TIP3    H144949   9.428   4.813   5.056
15024TIP3    H244950   9.396   4.775   4.913
15025TIP3   OH244951   0.124   5.040   4.827
15025TIP3    H144952   0.211   5.055   4.863
15025TIP3    H244953   0.140   5.010   4.737
15026TIP3   OH244954   9.723   4.586   5.383
15026TIP3    H144955   9.671   4.541   5.316
15026TIP3    H244956   9.660   4.613   5.449
15027TIP3   OH244957   0.027   5.388   5.133
15027TIP3    H144958  -0.020   5.455   5.181
15027TIP3    H244959   0.096   5.435   5.086
15028TIP3   OH244960   9.493   4.766   5.220
15028TIP3    H144961   9.557   4.835   5.237
15028TIP3    H244962   9.546   4.687   5.207
15029TIP3   OH244963   9.640   5.600   5.192
15029TIP3    H144964   9.645   5.693   5.173
15029TIP3    H244965   9.569   5.592   5.255
15030TIP3   OH244966   9.407   5.265   4.737
15030TIP3    H144967   9.407   5.205   4.662
15030TIP3    H244968   9.437   5.349   4.701
15031TIP3   OH244969  -0.013   5.727   4.870
15031TIP3    H144970  -0.043   5.637   4.883
15031TIP3    H244971   0.067   5.732   4.921
15032TIP3   OH244972   9.729   5.181   4.975
15032TIP3    H144973   9.791   5.130   4.923
15032TIP3    H244974   9.784   5.240   5.026
15033TIP3   OH244975   9.818   5.699   5.391
15033TIP3    H144976   9.766   5.772   5.425
15033TIP3    H244977   9.757   5.650   5.336
15034TIP3   OH244978   9.551   5.338   5.470
15034TIP3    H144979   9.580   5.416   5.518
15034TIP3    H244980   9.487   5.297   5.528
15035TIP3   OH244981   0.226   5.752   4.410
15035TIP3    H144982   0.232   5.789   4.498
15035TIP3    H244983   0.280   5.809   4.356
15036TIP3   OH244984   9.653   5.909   5.455
15036TIP3    H144985   9.624   5.901   5.364
15036TIP3    H244986   9.574   5.892   5.507
15037TIP3   OH244987   9.409   5.098   4.529
15037TIP3    H144988   9.345   5.093   4.459
15037TIP3    H244989   9.433   5.007   4.546
15038TIP3   OH244990   9.262   5.439   5.414
15038TIP3    H144991   9.193   5.418   5.350
15038TIP3    H244992   9.292   5.353   5.445
15039TIP3   OH244993   9.144   5.618   5.056
15039TIP3    H144994   9.237   5.605   5.039
15039TIP3    H244995   9.140   5.700   5.106
15040TIP3   OH244996   0.242   5.806   5.278
15040TIP3    H144997   0.250   5.887   5.329
15040TIP3    H244998   0.161   5.766   5.310
15041TIP3   OH244999   0.051   6.151   4.084
15041TIP3    H145000   0.017   6.065   4.060
15041TIP3    H245001   0.014   6.167   4.171
15042TIP3   OH245002   9.200   5.750   4.513
15042TIP3    H145003   9.292   5.765   4.491
15042TIP3    H245004   9.201   5.724   4.604
15043TIP3   OH245005   9.445   5.641   5.382
15043TIP3    H145006   9.494   5.634   5.464
15043TIP3    H245007   9.379   5.572   5.387
15044TIP3   OH245008   0.096   4.399   5.198
15044TIP3    H145009   0.017   4.349   5.178
15044TIP3    H245010   0.076   4.489   5.174
15045TIP3   OH245011   0.142   5.010   5.127
15045TIP3    H145012   0.201   4.970   5.191
15045TIP3    H245013   0.055   4.978   5.151
15046TIP3   OH245014   9.742   4.738   4.700
15046TIP3    H145015   9.659   4.781   4.682
15046TIP3    H245016   9.806   4.787   4.648
15047TIP3   OH245017   9.621   4.942   5.466
15047TIP3    H145018   9.645   4.996   5.541
15047TIP3    H245019   9.599   4.857   5.503
15048TIP3   OH245020   9.719   4.495   4.067
15048TIP3    H145021   9.736   4.450   4.150
15048TIP3    H245022   9.685   4.581   4.092
15049TIP3   OH245023   9.152   4.509   4.980
15049TIP3    H145024   9.211   4.535   5.050
15049TIP3    H245025   9.210   4.475   4.911
15050TIP3   OH245026   9.132   4.465   4.541
15050TIP3    H145027   9.190   4.500   4.473
15050TIP3    H245028   9.068   4.535   4.556
15051TIP3   OH245029   9.417   4.647   4.773
15051TIP3    H145030   9.326   4.667   4.751
15051TIP3    H245031   9.426   4.554   4.754
15052TIP3   OH245032   9.659   4.755   4.418
15052TIP3    H145033   9.734   4.716   4.374
15052TIP3    H245034   9.591   4.757   4.351
15053TIP3   OH245035   9.438   4.780   4.260
15053TIP3    H145036   9.367   4.727   4.297
15053TIP3    H245037   9.427   4.773   4.166
15054TIP3   OH245038   9.586   5.573   5.616
15054TIP3    H145039   9.675   5.581   5.652
15054TIP3    H245040   9.530   5.564   5.693
15055TIP3   OH245041   9.754   4.295   4.722
15055TIP3    H145042   9.717   4.324   4.806
15055TIP3    H245043   9.730   4.364   4.660
15056TIP3   OH245044   0.027   5.294   4.257
15056TIP3    H145045   0.097   5.229   4.257
15056TIP3    H245046  -0.027   5.271   4.332
15057TIP3   OH245047   0.391   5.617   5.152
15057TIP3    H145048   0.476   5.609   5.197
15057TIP3    H245049   0.352   5.697   5.188
15058TIP3   OH245050   9.486   5.303   4.993
15058TIP3    H145051   9.445   5.276   4.910
15058TIP3    H245052   9.563   5.247   5.000
15059TIP3   OH245053   9.325   5.212   5.570
15059TIP3    H145054   9.341   5.167   5.653
15059TIP3    H245055   9.262   5.156   5.525
15060TIP3   OH245056   0.346   5.237   5.500
15060TIP3    H145057   0.251   5.224   5.507
15060TIP3    H245058   0.383   5.151   5.518
15061TIP3   OH245059   9.569   5.524   4.590
15061TIP3    H145060   9.647   5.579   4.599
15061TIP3    H245061   9.500   5.573   4.636
15062TIP3   OH245062   9.146   4.879   4.285
15062TIP3    H145063   9.189   4.964   4.290
15062TIP3    H245064   9.071   4.887   4.344
15063TIP3   OH245065   9.668   5.294   4.482
15063TIP3    H145066   9.641   5.370   4.535
15063TIP3    H245067   9.673   5.222   4.544
15064TIP3   OH245068   0.078   5.969   5.069
15064TIP3    H145069   0.097   6.034   5.001
15064TIP3    H245070   0.154   5.911   5.068
15065TIP3   OH245071   9.456   5.863   4.476
15065TIP3    H145072   9.526   5.835   4.536
15065TIP3    H245073   9.477   5.955   4.457
15066TIP3   OH245074   9.557   4.689   5.570
15066TIP3    H145075   9.463   4.706   5.581
15066TIP3    H245076   9.586   4.657   5.655
15067TIP3   OH245077   9.321   5.829   5.202
15067TIP3    H145078   9.362   5.772   5.267
15067TIP3    H245079   9.324   5.916   5.242
15068TIP3   OH245080   9.459   5.427   3.853
15068TIP3    H145081   9.483   5.335   3.860
15068TIP3    H245082   9.450   5.456   3.944
15069TIP3   OH245083   9.441   5.500   4.118
15069TIP3    H145084   9.465   5.442   4.190
15069TIP3    H245085   9.452   5.588   4.154
15070TIP3   OH245086   9.229   5.143   4.324
15070TIP3    H145087   9.147   5.189   4.311
15070TIP3    H245088   9.297   5.209   4.307
15071TIP3   OH245089   9.727   5.626   4.077
15071TIP3    H145090   9.704   5.590   4.163
15071TIP3    H245091   9.769   5.709   4.096
15072TIP3   OH245092   9.457   5.757   4.218
15072TIP3    H145093   9.480   5.830   4.161
15072TIP3    H245094   9.461   5.794   4.306
15073TIP3   OH245095   9.764   4.365   4.299
15073TIP3    H145096   9.677   4.375   4.338
15073TIP3    H245097   9.815   4.320   4.367
15074TIP3   OH245098   9.212   5.357   4.064
15074TIP3    H145099   9.276   5.426   4.083
15074TIP3    H245100   9.265   5.283   4.035
15075TIP3   OH245101   9.216   4.616   4.318
15075TIP3    H145102   9.179   4.704   4.310
15075TIP3    H245103   9.171   4.565   4.251
15076TIP3   OH245104   9.650   4.259   5.186
15076TIP3    H145105   9.614   4.232   5.101
15076TIP3    H245106   9.620   4.190   5.246
15077TIP3   OH245107   9.315   6.119   5.621
15077TIP3    H145108   9.384   6.132   5.686
15077TIP3    H245109   9.321   6.026   5.598
15078TIP3   OH245110   9.725   6.098   5.650
15078TIP3    H145111   9.817   6.118   5.667
15078TIP3    H245112   9.727   6.017   5.600
15079TIP3   OH245113   0.059   5.688   3.810
15079TIP3    H145114   0.014   5.613   3.847
15079TIP3    H245115   0.151   5.661   3.804
15080TIP3   OH245116   9.407   5.531   5.826
15080TIP3    H145117   9.437   5.440   5.827
15080TIP3    H245118   9.322   5.528   5.782
15081TIP3   OH245119   9.386   5.157   3.985
15081TIP3    H145120   9.421   5.118   4.065
15081TIP3    H245121   9.458   5.152   3.923
15082TIP3   OH245122   0.219   5.653   5.566
15082TIP3    H145123   0.156   5.652   5.494
15082TIP3    H245124   0.293   5.601   5.534
15083TIP3   OH245125   9.521   5.283   5.806
15083TIP3    H145126   9.576   5.215   5.765
15083TIP3    H245127   9.565   5.301   5.889
15084TIP3   OH245128   9.521   5.038   4.199
15084TIP3    H145129   9.485   4.957   4.237
15084TIP3    H245130   9.614   5.035   4.221
15085TIP3   OH245131   0.132   5.054   5.482
15085TIP3    H145132   0.067   5.104   5.432
15085TIP3    H245133   0.192   5.020   5.416
15086TIP3   OH245134   9.736   4.768   4.125
15086TIP3    H145135   9.702   4.827   4.058
15086TIP3    H245136   9.832   4.774   4.116
15087TIP3   OH245137   0.118   4.830   5.634
15087TIP3    H145138   0.134   4.765   5.565
15087TIP3    H245139   0.106   4.912   5.586
15088TIP3   OH245140   0.244   4.646   5.457
15088TIP3    H145141   0.336   4.650   5.433
15088TIP3    H245142   0.199   4.698   5.390
15089TIP3   OH245143   0.289   5.238   5.160
15089TIP3    H145144   0.244   5.156   5.138
15089TIP3    H245145   0.219   5.301   5.171
15090TIP3   OH245146   0.083   4.968   5.869
15090TIP3    H145147   0.017   4.915   5.913
15090TIP3    H245148   0.109   4.916   5.793
15091TIP3   OH245149   9.687   4.803   5.955
15091TIP3    H145150   9.695   4.719   5.912
15091TIP3    H245151   9.699   4.784   6.048
15092TIP3   OH245152   9.536   5.975   4.057
15092TIP3    H145153   9.624   5.942   4.037
15092TIP3    H245154   9.490   5.972   3.973
15093TIP3   OH245155   9.007   5.282   4.224
15093TIP3    H145156   9.076   5.324   4.173
15093TIP3    H245157   8.981   5.206   4.171
15094TIP3   OH245158   8.949   5.856   4.588
15094TIP3    H145159   8.861   5.820   4.591
15094TIP3    H245160   8.989   5.829   4.670
15095TIP3   OH245161   9.098   5.772   4.805
15095TIP3    H145162   9.078   5.707   4.871
15095TIP3    H245163   9.167   5.826   4.845
15096TIP3   OH245164   9.232   5.168   5.173
15096TIP3    H145165   9.238   5.142   5.081
15096TIP3    H245166   9.321   5.163   5.206
15097TIP3   OH245167   9.451   4.842   5.823
15097TIP3    H145168   9.540   4.846   5.857
15097TIP3    H245169   9.417   4.758   5.855
15098TIP3   OH245170   9.316   4.551   5.195
15098TIP3    H145171   9.405   4.519   5.178
15098TIP3    H245172   9.326   4.645   5.208
15099TIP3   OH245173   9.205   4.824   5.223
15099TIP3    H145174   9.223   4.845   5.131
15099TIP3    H245175   9.281   4.859   5.271
15100TIP3   OH245176   9.165   4.307   4.763
15100TIP3    H145177   9.075   4.312   4.794
15100TIP3    H245178   9.169   4.369   4.690
15101TIP3   OH245179   9.409   4.372   5.551
15101TIP3    H145180   9.385   4.376   5.643
15101TIP3    H245181   9.348   4.431   5.507
15102TIP3   OH245182   9.449   5.863   5.635
15102TIP3    H145183   9.361   5.828   5.645
15102TIP3    H245184   9.497   5.833   5.712
15103TIP3   OH245185   9.649   5.872   5.175
15103TIP3    H145186   9.598   5.951   5.155
15103TIP3    H245187   9.737   5.893   5.144
15104TIP3   OH245188   0.276   6.059   5.384
15104TIP3    H145189   0.340   6.123   5.416
15104TIP3    H245190   0.278   6.069   5.289
15105TIP3   OH245191   9.318   6.111   5.258
15105TIP3    H145192   9.230   6.129   5.224
15105TIP3    H245193   9.337   6.184   5.316
15106TIP3   OH245194   9.562   6.129   5.136
15106TIP3    H145195   9.471   6.127   5.166
15106TIP3    H245196   9.556   6.156   5.044
15107TIP3   OH245197   0.481   6.071   4.875
15107TIP3    H145198   0.398   6.105   4.842
15107TIP3    H245199   0.548   6.118   4.825
15108TIP3   OH245200   9.305   5.914   4.937
15108TIP3    H145201   9.305   5.883   5.027
15108TIP3    H245202   9.398   5.913   4.911
15109TIP3   OH245203   9.408   5.682   4.744
15109TIP3    H145204   9.392   5.640   4.829
15109TIP3    H245205   9.455   5.762   4.767
15110TIP3   OH245206   9.566   5.893   4.830
15110TIP3    H145207   9.642   5.844   4.861
15110TIP3    H245208   9.602   5.966   4.780
15111TIP3   OH245209   9.502   4.197   4.952
15111TIP3    H145210   9.411   4.173   4.970
15111TIP3    H245211   9.552   4.119   4.978
15112TIP3   OH245212   9.243   4.112   4.583
15112TIP3    H145213   9.274   4.172   4.516
15112TIP3    H245214   9.223   4.168   4.658
15113TIP3   OH245215   9.370   4.276   4.400
15113TIP3    H145216   9.399   4.232   4.320
15113TIP3    H245217   9.438   4.257   4.464
15114TIP3   OH245218  -0.001   5.887   4.001
15114TIP3    H145219   0.093   5.898   4.016
15114TIP3    H245220  -0.006   5.830   3.924
15115TIP3   OH245221   9.674   4.577   5.796
15115TIP3    H145222   9.671   4.511   5.865
15115TIP3    H245223   9.753   4.556   5.747
15116TIP3   OH245224   0.133   4.578   5.979
15116TIP3    H145225   0.202   4.585   5.913
15116TIP3    H245226   0.155   4.499   6.028
15117TIP3   OH245227   9.045   5.695   4.054
15117TIP3    H145228   9.084   5.764   4.107
15117TIP3    H245229   9.119   5.654   4.009
15118TIP3   OH245230   0.908   5.828   6.695
15118TIP3    H145231   0.879   5.907   6.650
15118TIP3    H245232   0.851   5.758   6.661
15119TIP3   OH245233   0.918   5.817   7.122
15119TIP3    H145234   0.979   5.791   7.192
15119TIP3    H245235   0.881   5.734   7.091
15120TIP3   OH245236   1.160   6.107   6.782
15120TIP3    H145237   1.153   6.034   6.843
15120TIP3    H245238   1.186   6.181   6.837
15121TIP3   OH245239   0.790   6.548   6.780
15121TIP3    H145240   0.833   6.473   6.739
15121TIP3    H245241   0.790   6.526   6.874
15122TIP3   OH245242   0.676   5.967   7.121
15122TIP3    H145243   0.744   5.901   7.110
15122TIP3    H245244   0.724   6.047   7.144
15123TIP3   OH245245   1.718   5.325   7.103
15123TIP3    H145246   1.713   5.418   7.123
15123TIP3    H245247   1.758   5.322   7.016
15124TIP3   OH245248   1.114   5.504   7.150
15124TIP3    H145249   1.150   5.419   7.174
15124TIP3    H245250   1.067   5.489   7.069
15125TIP3   OH245251   0.460   5.292   7.094
15125TIP3    H145252   0.389   5.325   7.039
15125TIP3    H245253   0.437   5.200   7.111
15126TIP3   OH245254   1.154   5.263   6.730
15126TIP3    H145255   1.216   5.256   6.803
15126TIP3    H245256   1.208   5.295   6.657
15127TIP3   OH245257   0.548   5.645   7.058
15127TIP3    H145258   0.640   5.621   7.051
15127TIP3    H245259   0.512   5.630   6.971
15128TIP3   OH245260   1.730   5.552   7.289
15128TIP3    H145261   1.657   5.608   7.263
15128TIP3    H245262   1.694   5.496   7.358
15129TIP3   OH245263   0.764   6.006   6.544
15129TIP3    H145264   0.740   5.982   6.454
15129TIP3    H245265   0.743   6.099   6.550
15130TIP3   OH245266   1.300   5.294   6.957
15130TIP3    H145267   1.269   5.265   7.042
15130TIP3    H245268   1.360   5.366   6.977
15131TIP3   OH245269   1.230   6.341   6.950
15131TIP3    H145270   1.141   6.331   6.984
15131TIP3    H245271   1.227   6.423   6.899
15132TIP3   OH245272   1.495   5.224   7.269
15132TIP3    H145273   1.409   5.224   7.227
15132TIP3    H245274   1.557   5.238   7.197
15133TIP3   OH245275   0.795   4.892   7.383
15133TIP3    H145276   0.772   4.799   7.374
15133TIP3    H245277   0.752   4.935   7.309
15134TIP3   OH245278   0.913   6.371   6.611
15134TIP3    H145279   0.961   6.290   6.591
15134TIP3    H245280   0.961   6.439   6.564
15135TIP3   OH245281   1.049   6.152   6.533
15135TIP3    H145282   1.055   6.075   6.476
15135TIP3    H245283   1.095   6.126   6.613
15136TIP3   OH245284   0.756   5.661   6.530
15136TIP3    H145285   0.676   5.712   6.515
15136TIP3    H245286   0.799   5.658   6.444
15137TIP3   OH245287   0.740   5.445   6.210
15137TIP3    H145288   0.805   5.497   6.256
15137TIP3    H245289   0.789   5.374   6.170
15138TIP3   OH245290   1.578   5.929   7.143
15138TIP3    H145291   1.495   5.978   7.139
15138TIP3    H245292   1.610   5.931   7.053
15139TIP3   OH245293   1.090   5.748   6.501
15139TIP3    H145294   1.043   5.776   6.580
15139TIP3    H245295   1.171   5.709   6.534
15140TIP3   OH245296   1.307   5.763   7.444
15140TIP3    H145297   1.307   5.849   7.484
15140TIP3    H245298   1.223   5.757   7.398
15141TIP3   OH245299   0.460   5.779   7.279
15141TIP3    H145300   0.493   5.746   7.195
15141TIP3    H245301   0.538   5.816   7.322
15142TIP3   OH245302   0.983   6.323   7.056
15142TIP3    H145303   0.938   6.404   7.082
15142TIP3    H245304   0.947   6.256   7.114
15143TIP3   OH245305   0.938   5.601   6.327
15143TIP3    H145306   0.998   5.656   6.377
15143TIP3    H245307   0.964   5.615   6.235
15144TIP3   OH245308   0.665   6.259   6.598
15144TIP3    H145309   0.751   6.294   6.618
15144TIP3    H245310   0.615   6.334   6.567
15145TIP3   OH245311   1.412   4.809   6.375
15145TIP3    H145312   1.335   4.828   6.430
15145TIP3    H245313   1.419   4.886   6.318
15146TIP3   OH245314   1.238   6.193   5.929
15146TIP3    H145315   1.232   6.286   5.906
15146TIP3    H245316   1.329   6.170   5.911
15147TIP3   OH245317   0.778   6.345   7.438
15147TIP3    H145318   0.779   6.437   7.464
15147TIP3    H245319   0.688   6.328   7.410
15148TIP3   OH245320   0.552   6.487   6.488
15148TIP3    H145321   0.524   6.470   6.398
15148TIP3    H245322   0.544   6.581   6.498
15149TIP3   OH245323   0.787   6.452   6.023
15149TIP3    H145324   0.839   6.375   5.999
15149TIP3    H245325   0.782   6.448   6.119
15150TIP3   OH245326   0.805   6.463   6.309
15150TIP3    H145327   0.729   6.462   6.367
15150TIP3    H245328   0.879   6.477   6.367
15151TIP3   OH245329   1.551   5.712   7.596
15151TIP3    H145330   1.468   5.716   7.548
15151TIP3    H245331   1.561   5.620   7.619
15152TIP3   OH245332   0.506   4.948   7.435
15152TIP3    H145333   0.527   4.893   7.360
15152TIP3    H245334   0.526   5.037   7.406
15153TIP3   OH245335   1.089   5.097   7.630
15153TIP3    H145336   1.162   5.063   7.682
15153TIP3    H245337   1.011   5.070   7.678
15154TIP3   OH245338   1.336   5.502   7.546
15154TIP3    H145339   1.284   5.492   7.626
15154TIP3    H245340   1.305   5.585   7.508
15155TIP3   OH245341   1.003   5.618   6.067
15155TIP3    H145342   0.957   5.594   5.987
15155TIP3    H245343   1.087   5.652   6.037
15156TIP3   OH245344   0.678   4.983   6.350
15156TIP3    H145345   0.645   4.996   6.439
15156TIP3    H245346   0.666   4.889   6.334
15157TIP3   OH245347   0.399   5.513   7.564
15157TIP3    H145348   0.400   5.426   7.604
15157TIP3    H245349   0.331   5.508   7.497
15158TIP3   OH245350   0.277   5.415   6.937
15158TIP3    H145351   0.215   5.478   6.974
15158TIP3    H245352   0.333   5.468   6.881
15159TIP3   OH245353   0.877   5.453   6.660
15159TIP3    H145354   0.840   5.530   6.618
15159TIP3    H245355   0.932   5.413   6.593
15160TIP3   OH245356   1.039   5.707   7.753
15160TIP3    H145357   1.008   5.638   7.812
15160TIP3    H245358   1.132   5.716   7.775
15161TIP3   OH245359   1.020   5.446   6.895
15161TIP3    H145360   0.953   5.463   6.830
15161TIP3    H245361   1.067   5.369   6.862
15162TIP3   OH245362   0.361   4.952   6.365
15162TIP3    H145363   0.372   5.038   6.405
15162TIP3    H245364   0.295   4.965   6.297
15163TIP3   OH245365   1.064   5.704   7.324
15163TIP3    H145366   1.088   5.636   7.261
15163TIP3    H245367   1.024   5.657   7.397
15164TIP3   OH245368   0.825   5.158   6.944
15164TIP3    H145369   0.784   5.241   6.966
15164TIP3    H245370   0.891   5.145   7.012
15165TIP3   OH245371   0.460   5.281   6.750
15165TIP3    H145372   0.503   5.350   6.699
15165TIP3    H245373   0.413   5.229   6.685
15166TIP3   OH245374   1.192   5.242   7.213
15166TIP3    H145375   1.169   5.264   7.303
15166TIP3    H245376   1.128   5.176   7.187
15167TIP3   OH245377   0.136   5.298   6.399
15167TIP3    H145378   0.097   5.222   6.443
15167TIP3    H245379   0.186   5.260   6.326
15168TIP3   OH245380   1.380   6.911   7.423
15168TIP3    H145381   1.367   6.939   7.332
15168TIP3    H245382   1.458   6.960   7.451
15169TIP3   OH245383   0.812   5.563   7.099
15169TIP3    H145384   0.794   5.496   7.033
15169TIP3    H245385   0.824   5.514   7.180
15170TIP3   OH245386   0.272   4.912   6.922
15170TIP3    H145387   0.282   4.817   6.924
15170TIP3    H245388   0.296   4.937   6.833
15171TIP3   OH245389   0.798   5.439   7.346
15171TIP3    H145390   0.705   5.457   7.355
15171TIP3    H245391   0.840   5.488   7.417
15172TIP3   OH245392   0.506   5.768   6.516
15172TIP3    H145393   0.437   5.706   6.492
15172TIP3    H245394   0.472   5.811   6.595
15173TIP3   OH245395   1.335   6.068   7.116
15173TIP3    H145396   1.376   6.121   7.048
15173TIP3    H245397   1.272   6.013   7.069
15174TIP3   OH245398   0.932   5.100   6.375
15174TIP3    H145399   0.838   5.083   6.369
15174TIP3    H245400   0.938   5.194   6.389
15175TIP3   OH245401   0.858   6.078   7.488
15175TIP3    H145402   0.885   6.067   7.580
15175TIP3    H245403   0.830   6.170   7.483
15176TIP3   OH245404   1.016   5.358   6.441
15176TIP3    H145405   1.111   5.352   6.451
15176TIP3    H245406   1.003   5.436   6.387
15177TIP3   OH245407   0.619   5.922   6.322
15177TIP3    H145408   0.565   6.001   6.322
15177TIP3    H245409   0.572   5.860   6.377
15178TIP3   OH245410   0.796   5.837   7.770
15178TIP3    H145411   0.734   5.776   7.732
15178TIP3    H245412   0.882   5.800   7.750
15179TIP3   OH245413   1.052   6.382   7.386
15179TIP3    H145414   0.959   6.359   7.388
15179TIP3    H245415   1.068   6.426   7.470
15180TIP3   OH245416   1.409   5.450   6.265
15180TIP3    H145417   1.348   5.406   6.206
15180TIP3    H245418   1.419   5.538   6.230
15181TIP3   OH245419   1.150   6.252   6.193
15181TIP3    H145420   1.119   6.177   6.243
15181TIP3    H245421   1.172   6.216   6.107
15182TIP3   OH245422   1.157   5.897   6.974
15182TIP3    H145423   1.068   5.876   7.002
15182TIP3    H245424   1.190   5.816   6.935
15183TIP3   OH245425   0.360   5.857   6.727
15183TIP3    H145426   0.360   5.882   6.820
15183TIP3    H245427   0.268   5.860   6.702
15184TIP3   OH245428   0.908   6.104   7.214
15184TIP3    H145429   0.902   6.093   7.309
15184TIP3    H245430   0.941   6.020   7.182
15185TIP3   OH245431   0.943   5.999   6.075
15185TIP3    H145432   0.979   5.978   6.161
15185TIP3    H245433   0.852   5.969   6.080
15186TIP3   OH245434   1.141   6.629   7.253
15186TIP3    H145435   1.078   6.557   7.254
15186TIP3    H245436   1.124   6.676   7.171
15187TIP3   OH245437   1.230   6.464   5.880
15187TIP3    H145438   1.235   6.520   5.803
15187TIP3    H245439   1.165   6.507   5.937
15188TIP3   OH245440   1.096   5.950   6.311
15188TIP3    H145441   1.082   5.877   6.372
15188TIP3    H245442   1.189   5.945   6.289
15189TIP3   OH245443   0.331   5.992   6.107
15189TIP3    H145444   0.366   5.904   6.093
15189TIP3    H245445   0.278   5.985   6.186
15190TIP3   OH245446   1.127   5.319   7.475
15190TIP3    H145447   1.210   5.354   7.507
15190TIP3    H245448   1.111   5.243   7.530
15191TIP3   OH245449   1.019   5.043   6.631
15191TIP3    H145450   0.990   5.068   6.544
15191TIP3    H245451   1.056   5.124   6.668
15192TIP3   OH245452   0.468   6.151   6.353
15192TIP3    H145453   0.448   6.140   6.446
15192TIP3    H245454   0.383   6.166   6.312
15193TIP3   OH245455   0.748   5.210   6.681
15193TIP3    H145456   0.783   5.298   6.669
15193TIP3    H245457   0.777   5.185   6.769
15194TIP3   OH245458   0.969   5.551   7.529
15194TIP3    H145459   0.992   5.592   7.612
15194TIP3    H245460   1.020   5.470   7.527
15195TIP3   OH245461   0.829   4.928   6.789
15195TIP3    H145462   0.823   4.994   6.859
15195TIP3    H245463   0.899   4.960   6.732
15196TIP3   OH245464   0.339   4.981   6.668
15196TIP3    H145465   0.308   5.049   6.607
15196TIP3    H245466   0.431   4.968   6.646
15197TIP3   OH245467   1.578   5.400   7.464
15197TIP3    H145468   1.494   5.432   7.498
15197TIP3    H245469   1.555   5.332   7.402
15198TIP3   OH245470   1.229   5.636   6.886
15198TIP3    H145471   1.154   5.577   6.896
15198TIP3    H245472   1.297   5.597   6.940
15199TIP3   OH245473   1.222   6.602   6.830
15199TIP3    H145474   1.173   6.646   6.761
15199TIP3    H245475   1.312   6.630   6.817
15200TIP3   OH245476   0.496   6.207   6.055
15200TIP3    H145477   0.441   6.132   6.080
15200TIP3    H245478   0.584   6.181   6.080
15201TIP3   OH245479   1.114   6.499   7.630
15201TIP3    H145480   1.119   6.430   7.697
15201TIP3    H245481   1.185   6.559   7.652
15202TIP3   OH245482   0.907   6.226   5.922
15202TIP3    H145483   0.928   6.157   5.984
15202TIP3    H245484   0.963   6.208   5.846
15203TIP3   OH245485   0.738   6.109   7.774
15203TIP3    H145486   0.643   6.100   7.765
15203TIP3    H245487   0.770   6.019   7.781
15204TIP3   OH245488   0.670   5.920   6.053
15204TIP3    H145489   0.664   5.931   6.148
15204TIP3    H245490   0.607   5.852   6.032
15205TIP3   OH245491   1.265   6.201   7.369
15205TIP3    H145492   1.277   6.158   7.284
15205TIP3    H245493   1.182   6.248   7.361
15206TIP3   OH245494   0.257   5.628   6.531
15206TIP3    H145495   0.192   5.693   6.559
15206TIP3    H245496   0.207   5.566   6.477
15207TIP3   OH245497   0.628   5.660   7.629
15207TIP3    H145498   0.544   5.620   7.610
15207TIP3    H245499   0.649   5.711   7.551
15208TIP3   OH245500   0.491   5.426   6.336
15208TIP3    H145501   0.423   5.416   6.269
15208TIP3    H245502   0.572   5.434   6.286
15209TIP3   OH245503   1.083   6.046   7.771
15209TIP3    H145504   1.141   5.995   7.713
15209TIP3    H245505   1.079   5.995   7.852
15210TIP3   OH245506   1.222   5.713   5.931
15210TIP3    H145507   1.211   5.666   5.848
15210TIP3    H245508   1.194   5.802   5.911
15211TIP3   OH245509   0.707   5.437   7.783
15211TIP3    H145510   0.711   5.368   7.718
15211TIP3    H245511   0.675   5.514   7.735
15212TIP3   OH245512   0.734   5.259   7.569
15212TIP3    H145513   0.796   5.295   7.506
15212TIP3    H245514   0.656   5.240   7.518
15213TIP3   OH245515   0.717   5.823   7.416
15213TIP3    H145516   0.787   5.785   7.363
15213TIP3    H245517   0.752   5.908   7.443
15214TIP3   OH245518   1.302   5.731   7.852
15214TIP3    H145519   1.343   5.645   7.866
15214TIP3    H245520   1.376   5.792   7.845
15215TIP3   OH245521   1.347   6.017   7.558
15215TIP3    H145522   1.300   6.083   7.506
15215TIP3    H245523   1.438   6.024   7.529
15216TIP3   OH245524   0.806   5.010   7.658
15216TIP3    H145525   0.784   5.098   7.626
15216TIP3    H245526   0.797   4.953   7.582
15217TIP3   OH245527   0.949   5.495   7.899
15217TIP3    H145528   0.941   5.479   7.993
15217TIP3    H245529   0.864   5.469   7.863
15218TIP3   OH245530   1.188   5.445   7.764
15218TIP3    H145531   1.109   5.445   7.818
15218TIP3    H245532   1.257   5.418   7.824
15219TIP3   OH245533   1.421   5.410   7.913
15219TIP3    H145534   1.435   5.315   7.918
15219TIP3    H245535   1.414   5.438   8.004
15220TIP3   OH245536   0.884   4.991   7.923
15220TIP3    H145537   0.953   4.925   7.926
15220TIP3    H245538   0.854   4.991   7.832
15221TIP3   OH245539   7.506   0.583   0.081
15221TIP3    H145540   7.479   0.511   0.024
15221TIP3    H245541   7.432   0.643   0.081
15222TIP3   OH245542   1.471   6.717   6.808
15222TIP3    H145543   1.483   6.809   6.828
15222TIP3    H245544   1.535   6.699   6.739
15223TIP3   OH245545   1.464   6.716   7.088
15223TIP3    H145546   1.465   6.692   6.995
15223TIP3    H245547   1.545   6.677   7.123
15224TIP3   OH245548   1.493   6.414   7.555
15224TIP3    H145549   1.449   6.395   7.637
15224TIP3    H245550   1.556   6.483   7.577
15225TIP3   OH245551   1.370   5.916   6.284
15225TIP3    H145552   1.430   5.984   6.252
15225TIP3    H245553   1.417   5.875   6.357
15226TIP3   OH245554   1.499   5.772   6.485
15226TIP3    H145555   1.436   5.726   6.540
15226TIP3    H245556   1.565   5.804   6.547
15227TIP3   OH245557   1.545   6.179   6.949
15227TIP3    H145558   1.592   6.105   6.910
15227TIP3    H245559   1.549   6.247   6.883
15228TIP3   OH245560   1.347   6.425   7.200
15228TIP3    H145561   1.290   6.499   7.181
15228TIP3    H245562   1.340   6.368   7.123
15229TIP3   OH245563   1.409   5.689   6.130
15229TIP3    H145564   1.344   5.691   6.059
15229TIP3    H245565   1.390   5.768   6.181
15230TIP3   OH245566   1.243   5.344   6.080
15230TIP3    H145567   1.210   5.373   5.995
15230TIP3    H245568   1.240   5.249   6.076
15231TIP3   OH245569   1.305   5.620   6.619
15231TIP3    H145570   1.310   5.526   6.600
15231TIP3    H245571   1.285   5.625   6.712
15232TIP3   OH245572   1.607   6.066   7.465
15232TIP3    H145573   1.666   5.991   7.474
15232TIP3    H245574   1.611   6.089   7.372
15233TIP3   OH245575   1.764   5.840   7.482
15233TIP3    H145576   1.690   5.791   7.517
15233TIP3    H245577   1.840   5.784   7.498
15234TIP3   OH245578   1.217   5.076   6.049
15234TIP3    H145579   1.292   5.042   6.099
15234TIP3    H245580   1.143   5.022   6.077
15235TIP3   OH245581   1.298   5.349   6.502
15235TIP3    H145582   1.342   5.265   6.515
15235TIP3    H245583   1.340   5.386   6.425
15236TIP3   OH245584   1.443   5.522   7.025
15236TIP3    H145585   1.527   5.539   6.982
15236TIP3    H245586   1.450   5.567   7.110
15237TIP3   OH245587   1.494   5.688   7.245
15237TIP3    H145588   1.427   5.709   7.310
15237TIP3    H245589   1.522   5.772   7.211
15238TIP3   OH245590   1.985   5.260   7.789
15238TIP3    H145591   2.041   5.193   7.749
15238TIP3    H245592   1.953   5.312   7.715
15239TIP3   OH245593   1.404   5.098   6.560
15239TIP3    H145594   1.447   5.084   6.644
15239TIP3    H245595   1.345   5.023   6.550
15240TIP3   OH245596   1.834   5.407   7.609
15240TIP3    H145597   1.766   5.441   7.667
15240TIP3    H245598   1.785   5.359   7.542
15241TIP3   OH245599   1.448   5.011   6.190
15241TIP3    H145600   1.498   4.949   6.137
15241TIP3    H245601   1.504   5.088   6.198
15242TIP3   OH245602   1.020   6.570   6.456
15242TIP3    H145603   1.082   6.555   6.385
15242TIP3    H245604   1.064   6.631   6.514
15243TIP3   OH245605   0.775   6.613   7.496
15243TIP3    H145606   0.788   6.616   7.590
15243TIP3    H245607   0.838   6.677   7.461
15244TIP3   OH245608   0.961   6.794   7.397
15244TIP3    H145609   1.030   6.743   7.354
15244TIP3    H245610   1.007   6.855   7.454
15245TIP3   OH245611   1.751   5.108   7.495
15245TIP3    H145612   1.663   5.082   7.468
15245TIP3    H245613   1.803   5.028   7.485
15246TIP3   OH245614   0.657   6.712   7.035
15246TIP3    H145615   0.563   6.693   7.040
15246TIP3    H245616   0.673   6.770   7.110
15247TIP3   OH245617   0.893   6.583   7.091
15247TIP3    H145618   0.807   6.622   7.080
15247TIP3    H245619   0.954   6.649   7.059
15248TIP3   OH245620   1.096   6.759   7.018
15248TIP3    H145621   1.106   6.849   6.986
15248TIP3    H245622   1.139   6.705   6.951
15249TIP3   OH245623   1.003   5.055   7.125
15249TIP3    H145624   0.938   4.987   7.142
15249TIP3    H245625   1.068   5.014   7.068
15250TIP3   OH245626   1.444   4.996   7.034
15250TIP3    H145627   1.478   5.035   6.953
15250TIP3    H245628   1.350   4.985   7.017
15251TIP3   OH245629   1.555   5.050   6.787
15251TIP3    H145630   1.624   4.989   6.759
15251TIP3    H245631   1.594   5.136   6.775
15252TIP3   OH245632   0.820   4.835   7.081
15252TIP3    H145633   0.756   4.826   7.011
15252TIP3    H245634   0.803   4.762   7.140
15253TIP3   OH245635   1.184   4.913   6.980
15253TIP3    H145636   1.209   4.869   6.899
15253TIP3    H245637   1.180   4.843   7.045
15254TIP3   OH245638   1.226   4.881   6.564
15254TIP3    H145639   1.150   4.933   6.587
15254TIP3    H245640   1.209   4.795   6.604
15255TIP3   OH245641   0.033   4.807   6.619
15255TIP3    H145642   0.111   4.769   6.580
15255TIP3    H245643   0.032   4.774   6.709
15256TIP3   OH245644   0.610   4.986   6.616
15256TIP3    H145645   0.669   4.917   6.647
15256TIP3    H245646   0.660   5.067   6.630
15257TIP3   OH245647   0.511   6.431   6.230
15257TIP3    H145648   0.517   6.476   6.145
15257TIP3    H245649   0.487   6.341   6.207
15258TIP3   OH245650   1.184   6.519   6.243
15258TIP3    H145651   1.178   6.424   6.230
15258TIP3    H245652   1.148   6.556   6.162
15259TIP3   OH245653   7.187   0.417   0.077
15259TIP3    H145654   7.273   0.391   0.043
15259TIP3    H245655   7.163   0.348   0.138
15260TIP3   OH245656   1.487   5.141   7.914
15260TIP3    H145657   1.504   5.112   8.003
15260TIP3    H245658   1.572   5.136   7.870
15261TIP3   OH245659   1.364   6.629   7.404
15261TIP3    H145660   1.283   6.643   7.354
15261TIP3    H245661   1.392   6.716   7.430
15262TIP3   OH245662   2.679   6.044   6.169
15262TIP3    H145663   2.643   6.130   6.148
15262TIP3    H245664   2.611   5.982   6.143
15263TIP3   OH245665   2.661   6.052   6.585
15263TIP3    H145666   2.718   6.030   6.659
15263TIP3    H245667   2.621   5.968   6.560
15264TIP3   OH245668   1.961   5.906   6.935
15264TIP3    H145669   2.000   5.850   7.002
15264TIP3    H245670   2.034   5.929   6.877
15265TIP3   OH245671   2.945   6.360   6.260
15265TIP3    H145672   2.930   6.291   6.324
15265TIP3    H245673   2.965   6.438   6.312
15266TIP3   OH245674   1.955   6.336   6.627
15266TIP3    H145675   1.941   6.241   6.623
15266TIP3    H245676   2.049   6.347   6.614
15267TIP3   OH245677   1.648   5.544   6.400
15267TIP3    H145678   1.607   5.628   6.422
15267TIP3    H245679   1.578   5.494   6.357
15268TIP3   OH245680   1.724   5.851   6.639
15268TIP3    H145681   1.773   5.772   6.660
15268TIP3    H245682   1.789   5.912   6.606
15269TIP3   OH245683   2.610   6.763   6.283
15269TIP3    H145684   2.627   6.703   6.211
15269TIP3    H245685   2.633   6.714   6.362
15270TIP3   OH245686   2.470   6.269   6.599
15270TIP3    H145687   2.516   6.190   6.569
15270TIP3    H245688   2.540   6.328   6.626
15271TIP3   OH245689   3.538   5.621   6.577
15271TIP3    H145690   3.502   5.699   6.535
15271TIP3    H245691   3.587   5.577   6.508
15272TIP3   OH245692   2.896   5.747   6.629
15272TIP3    H145693   2.945   5.670   6.656
15272TIP3    H245694   2.858   5.724   6.545
15273TIP3   OH245695   2.240   5.412   6.588
15273TIP3    H145696   2.221   5.484   6.528
15273TIP3    H245697   2.188   5.339   6.556
15274TIP3   OH245698   2.937   5.525   6.222
15274TIP3    H145699   3.003   5.518   6.290
15274TIP3    H245700   2.985   5.552   6.144
15275TIP3   OH245701   1.868   5.627   6.716
15275TIP3    H145702   1.952   5.607   6.758
15275TIP3    H245703   1.869   5.576   6.635
15276TIP3   OH245704   2.282   5.829   6.538
15276TIP3    H145705   2.376   5.814   6.541
15276TIP3    H245706   2.246   5.748   6.503
15277TIP3   OH245707   3.552   5.813   6.778
15277TIP3    H145708   3.473   5.860   6.750
15277TIP3    H245709   3.555   5.735   6.722
15278TIP3   OH245710   2.221   5.424   7.046
15278TIP3    H145711   2.169   5.456   6.972
15278TIP3    H245712   2.161   5.426   7.120
15279TIP3   OH245713   2.541   6.249   6.054
15279TIP3    H145714   2.522   6.235   5.962
15279TIP3    H245715   2.501   6.334   6.073
15280TIP3   OH245716   2.311   6.193   6.814
15280TIP3    H145717   2.256   6.265   6.845
15280TIP3    H245718   2.360   6.229   6.740
15281TIP3   OH245719   3.113   5.540   6.427
15281TIP3    H145720   3.145   5.467   6.479
15281TIP3    H245721   3.158   5.617   6.462
15282TIP3   OH245722   2.114   5.522   6.808
15282TIP3    H145723   2.171   5.596   6.829
15282TIP3    H245724   2.158   5.477   6.737
15283TIP3   OH245725   2.149   6.400   6.922
15283TIP3    H145726   2.138   6.489   6.889
15283TIP3    H245727   2.071   6.383   6.974
15284TIP3   OH245728   1.541   6.103   6.163
15284TIP3    H145729   1.510   6.118   6.074
15284TIP3    H245730   1.565   6.190   6.196
15285TIP3   OH245731   2.980   6.604   6.413
15285TIP3    H145732   2.890   6.598   6.445
15285TIP3    H245733   2.982   6.684   6.362
15286TIP3   OH245734   3.288   5.528   6.786
15286TIP3    H145735   3.194   5.529   6.765
15286TIP3    H245736   3.331   5.530   6.700
15287TIP3   OH245737   2.567   5.110   6.772
15287TIP3    H145738   2.558   5.018   6.798
15287TIP3    H245739   2.490   5.153   6.810
15288TIP3   OH245740   2.675   6.631   6.042
15288TIP3    H145741   2.731   6.554   6.032
15288TIP3    H245742   2.732   6.705   6.021
15289TIP3   OH245743   2.840   6.419   6.009
15289TIP3    H145744   2.853   6.344   5.950
15289TIP3    H245745   2.879   6.391   6.092
15290TIP3   OH245746   3.222   6.473   6.755
15290TIP3    H145747   3.199   6.406   6.691
15290TIP3    H245748   3.210   6.556   6.709
15291TIP3   OH245749   2.498   5.892   6.017
15291TIP3    H145750   2.419   5.941   5.994
15291TIP3    H245751   2.549   5.889   5.936
15292TIP3   OH245752   2.470   5.713   5.696
15292TIP3    H145753   2.534   5.759   5.749
15292TIP3    H245754   2.520   5.646   5.651
15293TIP3   OH245755   3.377   6.142   6.590
15293TIP3    H145756   3.296   6.193   6.587
15293TIP3    H245757   3.427   6.171   6.514
15294TIP3   OH245758   2.863   5.995   5.972
15294TIP3    H145759   2.809   6.015   6.048
15294TIP3    H245760   2.945   5.962   6.010
15295TIP3   OH245761   3.078   6.018   6.888
15295TIP3    H145762   3.070   6.096   6.944
15295TIP3    H245763   2.992   6.010   6.846
15296TIP3   OH245764   2.086   5.961   6.377
15296TIP3    H145765   2.051   5.899   6.314
15296TIP3    H245766   2.159   5.914   6.418
15297TIP3   OH245767   2.217   6.385   6.527
15297TIP3    H145768   2.196   6.372   6.435
15297TIP3    H245769   2.304   6.347   6.537
15298TIP3   OH245770   2.176   5.958   6.758
15298TIP3    H145771   2.216   5.922   6.679
15298TIP3    H245772   2.226   6.038   6.775
15299TIP3   OH245773   2.728   6.600   6.522
15299TIP3    H145774   2.718   6.679   6.575
15299TIP3    H245775   2.714   6.528   6.583
15300TIP3   OH245776   2.356   6.497   7.081
15300TIP3    H145777   2.297   6.557   7.127
15300TIP3    H245778   2.299   6.445   7.025
15301TIP3   OH245779   2.688   5.853   5.812
15301TIP3    H145780   2.750   5.909   5.859
15301TIP3    H245781   2.715   5.859   5.720
15302TIP3   OH245782   2.108   6.050   7.229
15302TIP3    H145783   2.107   6.143   7.249
15302TIP3    H245784   2.016   6.025   7.222
15303TIP3   OH245785   2.431   6.504   6.066
15303TIP3    H145786   2.514   6.550   6.067
15303TIP3    H245787   2.380   6.547   5.998
15304TIP3   OH245788   2.151   6.668   7.158
15304TIP3    H145789   2.137   6.680   7.064
15304TIP3    H245790   2.063   6.668   7.196
15305TIP3   OH245791   3.223   5.061   5.869
15305TIP3    H145792   3.133   5.070   5.899
15305TIP3    H245793   3.235   5.135   5.809
15306TIP3   OH245794   1.965   5.800   6.179
15306TIP3    H145795   1.884   5.843   6.150
15306TIP3    H245796   1.942   5.708   6.187
15307TIP3   OH245797   3.029   6.452   5.424
15307TIP3    H145798   3.025   6.544   5.399
15307TIP3    H245799   3.118   6.425   5.403
15308TIP3   OH245800   1.728   6.232   7.157
15308TIP3    H145801   1.661   6.212   7.093
15308TIP3    H245802   1.766   6.148   7.181
15309TIP3   OH245803   1.641   6.390   6.768
15309TIP3    H145804   1.724   6.361   6.729
15309TIP3    H245805   1.665   6.464   6.823
15310TIP3   OH245806   3.451   6.893   6.814
15310TIP3    H145807   3.457   6.797   6.818
15310TIP3    H245808   3.370   6.913   6.860
15311TIP3   OH245809   2.549   6.639   6.944
15311TIP3    H145810   2.541   6.730   6.972
15311TIP3    H245811   2.481   6.593   6.994
15312TIP3   OH245812   2.298   6.756   5.878
15312TIP3    H145813   2.211   6.716   5.882
15312TIP3    H245814   2.287   6.842   5.919
15313TIP3   OH245815   1.766   6.594   6.272
15313TIP3    H145816   1.810   6.584   6.356
15313TIP3    H245817   1.716   6.513   6.261
15314TIP3   OH245818   2.549   6.689   5.523
15314TIP3    H145819   2.597   6.617   5.482
15314TIP3    H245820   2.580   6.690   5.614
15315TIP3   OH245821   2.560   6.733   5.797
15315TIP3    H145822   2.469   6.732   5.827
15315TIP3    H245823   2.610   6.695   5.869
15316TIP3   OH245824   1.932   6.411   7.116
15316TIP3    H145825   1.996   6.377   7.179
15316TIP3    H245826   1.857   6.352   7.123
15317TIP3   OH245827   2.330   5.205   6.901
15317TIP3    H145828   2.248   5.169   6.868
15317TIP3    H245829   2.305   5.285   6.947
15318TIP3   OH245830   2.839   5.322   7.102
15318TIP3    H145831   2.913   5.299   7.159
15318TIP3    H245832   2.762   5.307   7.156
15319TIP3   OH245833   3.152   5.815   7.064
15319TIP3    H145834   3.077   5.780   7.111
15319TIP3    H245835   3.115   5.879   7.004
15320TIP3   OH245836   2.765   5.859   5.552
15320TIP3    H145837   2.723   5.840   5.468
15320TIP3    H245838   2.850   5.895   5.528
15321TIP3   OH245839   2.503   5.214   5.849
15321TIP3    H145840   2.454   5.208   5.931
15321TIP3    H245841   2.551   5.131   5.844
15322TIP3   OH245842   2.266   5.735   6.899
15322TIP3    H145843   2.220   5.739   6.983
15322TIP3    H245844   2.240   5.816   6.854
15323TIP3   OH245845   2.143   5.615   6.429
15323TIP3    H145846   2.054   5.587   6.453
15323TIP3    H245847   2.154   5.585   6.339
15324TIP3   OH245848   2.617   5.689   6.159
15324TIP3    H145849   2.569   5.759   6.115
15324TIP3    H245850   2.677   5.655   6.093
15325TIP3   OH245851   2.813   5.960   7.225
15325TIP3    H145852   2.782   5.891   7.285
15325TIP3    H245853   2.905   5.973   7.250
15326TIP3   OH245854   2.789   5.701   6.378
15326TIP3    H145855   2.719   5.720   6.315
15326TIP3    H245856   2.838   5.629   6.339
15327TIP3   OH245857   2.093   5.739   7.118
15327TIP3    H145858   2.148   5.790   7.178
15327TIP3    H245859   2.064   5.664   7.169
15328TIP3   OH245860   2.161   5.217   5.844
15328TIP3    H145861   2.151   5.220   5.939
15328TIP3    H245862   2.082   5.259   5.810
15329TIP3   OH245863   1.687   5.273   6.708
15329TIP3    H145864   1.766   5.303   6.752
15329TIP3    H245865   1.716   5.246   6.621
15330TIP3   OH245866   1.593   5.247   6.213
15330TIP3    H145867   1.642   5.281   6.138
15330TIP3    H245868   1.528   5.314   6.233
15331TIP3   OH245869   2.823   5.953   6.790
15331TIP3    H145870   2.853   5.885   6.729
15331TIP3    H245871   2.784   5.905   6.863
15332TIP3   OH245872   2.512   5.405   6.481
15332TIP3    H145873   2.437   5.402   6.540
15332TIP3    H245874   2.588   5.393   6.538
15333TIP3   OH245875   1.905   5.486   6.485
15333TIP3    H145876   1.818   5.491   6.446
15333TIP3    H245877   1.933   5.395   6.469
15334TIP3   OH245878   2.157   5.498   6.180
15334TIP3    H145879   2.252   5.501   6.174
15334TIP3    H245880   2.126   5.514   6.091
15335TIP3   OH245881   3.006   5.512   6.736
15335TIP3    H145882   2.966   5.530   6.821
15335TIP3    H245883   2.948   5.446   6.697
15336TIP3   OH245884   2.053   5.524   5.927
15336TIP3    H145885   1.995   5.465   5.879
15336TIP3    H245886   2.106   5.566   5.860
15337TIP3   OH245887   3.154   7.202   6.903
15337TIP3    H145888   3.148   7.220   6.809
15337TIP3    H245889   3.233   7.248   6.931
15338TIP3   OH245890   2.086   6.314   7.325
15338TIP3    H145891   2.169   6.330   7.371
15338TIP3    H245892   2.021   6.309   7.394
15339TIP3   OH245893   2.558   5.778   6.579
15339TIP3    H145894   2.622   5.731   6.526
15339TIP3    H245895   2.558   5.731   6.663
15340TIP3   OH245896   2.048   5.237   6.472
15340TIP3    H145897   2.021   5.162   6.525
15340TIP3    H245898   2.069   5.199   6.387
15341TIP3   OH245899   2.532   5.674   6.845
15341TIP3    H145900   2.444   5.703   6.868
15341TIP3    H245901   2.589   5.727   6.901
15342TIP3   OH245902   2.263   6.036   5.951
15342TIP3    H145903   2.192   5.977   5.928
15342TIP3    H245904   2.236   6.074   6.035
15343TIP3   OH245905   3.149   6.293   6.560
15343TIP3    H145906   3.184   6.344   6.487
15343TIP3    H245907   3.071   6.251   6.525
15344TIP3   OH245908   2.732   5.365   5.841
15344TIP3    H145909   2.642   5.333   5.846
15344TIP3    H245910   2.728   5.454   5.877
15345TIP3   OH245911   2.676   6.378   6.978
15345TIP3    H145912   2.728   6.368   7.058
15345TIP3    H245913   2.639   6.466   6.984
15346TIP3   OH245914   2.784   5.623   5.946
15346TIP3    H145915   2.880   5.619   5.948
15346TIP3    H245916   2.765   5.698   5.889
15347TIP3   OH245917   1.954   6.053   6.604
15347TIP3    H145918   1.991   6.030   6.518
15347TIP3    H245919   2.018   6.020   6.667
15348TIP3   OH245920   2.427   6.194   5.799
15348TIP3    H145921   2.383   6.279   5.796
15348TIP3    H245922   2.369   6.138   5.850
15349TIP3   OH245923   1.830   5.988   7.253
15349TIP3    H145924   1.837   5.948   7.339
15349TIP3    H245925   1.758   5.942   7.210
15350TIP3   OH245926   2.588   6.122   7.251
15350TIP3    H145927   2.532   6.093   7.178
15350TIP3    H245928   2.671   6.077   7.236
15351TIP3   OH245929   2.822   6.658   6.872
15351TIP3    H145930   2.726   6.649   6.872
15351TIP3    H245931   2.842   6.697   6.957
15352TIP3   OH245932   3.198   5.692   5.744
15352TIP3    H145933   3.140   5.644   5.684
15352TIP3    H245934   3.201   5.781   5.710
15353TIP3   OH245935   3.464   6.617   6.832
15353TIP3    H145936   3.375   6.586   6.847
15353TIP3    H245937   3.491   6.574   6.751
15354TIP3   OH245938   2.939   6.518   5.682
15354TIP3    H145939   2.917   6.442   5.735
15354TIP3    H245940   2.966   6.482   5.597
15355TIP3   OH245941   2.925   6.151   6.456
15355TIP3    H145942   2.833   6.131   6.477
15355TIP3    H245943   2.959   6.070   6.419
15356TIP3   OH245944   2.083   6.391   6.280
15356TIP3    H145945   2.085   6.467   6.222
15356TIP3    H245946   1.990   6.373   6.292
15357TIP3   OH245947   1.645   5.670   5.989
15357TIP3    H145948   1.688   5.752   6.012
15357TIP3    H245949   1.565   5.670   6.040
15358TIP3   OH245950   2.152   6.144   6.174
15358TIP3    H145951   2.147   6.232   6.211
15358TIP3    H245952   2.132   6.085   6.247
15359TIP3   OH245953   2.365   6.708   6.736
15359TIP3    H145954   2.399   6.783   6.687
15359TIP3    H245955   2.440   6.676   6.785
15360TIP3   OH245956   2.000   6.615   6.124
15360TIP3    H145957   1.913   6.621   6.166
15360TIP3    H245958   2.036   6.703   6.133
15361TIP3   OH245959   2.705   6.381   6.701
15361TIP3    H145960   2.697   6.378   6.796
15361TIP3    H245961   2.777   6.321   6.681
15362TIP3   OH245962   2.715   6.261   5.590
15362TIP3    H145963   2.763   6.246   5.671
15362TIP3    H245964   2.632   6.215   5.603
15363TIP3   OH245965   2.974   6.865   6.747
15363TIP3    H145966   2.902   6.805   6.768
15363TIP3    H245967   2.941   6.917   6.674
15364TIP3   OH245968   3.028   6.725   5.384
15364TIP3    H145969   3.067   6.795   5.332
15364TIP3    H245970   2.953   6.766   5.427
15365TIP3   OH245971   1.999   5.513   7.265
15365TIP3    H145972   1.907   5.539   7.261
15365TIP3    H245973   1.997   5.419   7.284
15366TIP3   OH245974   2.891   6.217   5.807
15366TIP3    H145975   2.871   6.141   5.861
15366TIP3    H245976   2.984   6.207   5.786
15367TIP3   OH245977   1.775   6.616   6.904
15367TIP3    H145978   1.837   6.568   6.959
15367TIP3    H245979   1.789   6.708   6.928
15368TIP3   OH245980   2.065   6.226   5.592
15368TIP3    H145981   2.077   6.136   5.561
15368TIP3    H245982   2.051   6.216   5.686
15369TIP3   OH245983   2.012   6.233   5.866
15369TIP3    H145984   2.072   6.198   5.933
15369TIP3    H245985   2.018   6.328   5.875
15370TIP3   OH245986   1.737   5.921   6.074
15370TIP3    H145987   1.672   5.970   6.125
15370TIP3    H245988   1.759   5.979   6.001
15371TIP3   OH245989   2.898   5.564   6.988
15371TIP3    H145990   2.937   5.601   7.067
15371TIP3    H245991   2.870   5.476   7.014
15372TIP3   OH245992   2.758   5.324   6.141
15372TIP3    H145993   2.781   5.309   6.050
15372TIP3    H245994   2.816   5.394   6.170
15373TIP3   OH245995   2.286   6.427   5.776
15373TIP3    H145996   2.204   6.452   5.819
15373TIP3    H245997   2.271   6.446   5.683
15374TIP3   OH245998   2.434   5.492   6.226
15374TIP3    H145999   2.497   5.559   6.199
15374TIP3    H246000   2.460   5.469   6.315
15375TIP3   OH246001   2.733   5.797   6.998
15375TIP3    H146002   2.761   5.842   7.078
15375TIP3    H246003   2.786   5.717   6.996
15376TIP3   OH246004   2.593   5.195   6.315
15376TIP3    H146005   2.568   5.270   6.369
15376TIP3    H246006   2.658   5.230   6.254
15377TIP3   OH246007   2.044   6.506   5.878
15377TIP3    H146008   2.022   6.575   5.816
15377TIP3    H246009   2.023   6.542   5.964
15378TIP3   OH246010   2.117   5.223   6.124
15378TIP3    H146011   2.106   5.314   6.151
15378TIP3    H246012   2.212   5.208   6.126
15379TIP3   OH246013   3.387   5.707   6.990
15379TIP3    H146014   3.307   5.739   7.031
15379TIP3    H246015   3.358   5.642   6.926
15380TIP3   OH246016   3.012   5.889   6.372
15380TIP3    H146017   2.934   5.835   6.380
15380TIP3    H246018   3.076   5.847   6.430
15381TIP3   OH246019   1.768   6.100   5.859
15381TIP3    H146020   1.841   6.160   5.868
15381TIP3    H246021   1.796   6.037   5.793
15382TIP3   OH246022   1.674   5.392   5.998
15382TIP3    H146023   1.678   5.488   5.996
15382TIP3    H246024   1.663   5.367   5.907
15383TIP3   OH246025   2.997   6.863   6.307
15383TIP3    H146026   2.957   6.919   6.240
15383TIP3    H246027   3.091   6.877   6.298
15384TIP3   OH246028   2.068   5.119   6.860
15384TIP3    H146029   2.039   5.082   6.777
15384TIP3    H246030   2.060   5.047   6.923
15385TIP3   OH246031   1.588   6.376   6.241
15385TIP3    H146032   1.539   6.407   6.317
15385TIP3    H246033   1.544   6.417   6.166
15386TIP3   OH246034   1.812   6.906   7.300
15386TIP3    H146035   1.888   6.929   7.353
15386TIP3    H246036   1.820   6.812   7.285
15387TIP3   OH246037   2.262   6.807   7.371
15387TIP3    H146038   2.354   6.783   7.379
15387TIP3    H246039   2.232   6.762   7.292
15388TIP3   OH246040   2.217   6.439   5.501
15388TIP3    H146041   2.164   6.366   5.532
15388TIP3    H246042   2.290   6.399   5.455
15389TIP3   OH246043   2.874   6.758   7.122
15389TIP3    H146044   2.891   6.689   7.186
15389TIP3    H246045   2.947   6.819   7.133
15390TIP3   OH246046   2.652   6.461   5.408
15390TIP3    H146047   2.688   6.398   5.471
15390TIP3    H246048   2.710   6.456   5.332
15391TIP3   OH246049   1.886   6.285   7.521
15391TIP3    H146050   1.929   6.199   7.524
15391TIP3    H246051   1.793   6.266   7.530
15392TIP3   OH246052   1.884   5.913   5.697
15392TIP3    H146053   1.934   5.884   5.774
15392TIP3    H246054   1.950   5.927   5.629
15393TIP3   OH246055   2.512   6.392   7.285
15393TIP3    H146056   2.469   6.415   7.202
15393TIP3    H246057   2.552   6.307   7.269
15394TIP3   OH246058   2.442   6.136   5.530
15394TIP3    H146059   2.430   6.140   5.624
15394TIP3    H246060   2.434   6.043   5.508
15395TIP3   OH246061   2.990   6.435   6.906
15395TIP3    H146062   3.064   6.462   6.852
15395TIP3    H246063   2.924   6.503   6.891
15396TIP3   OH246064   2.025   6.052   7.512
15396TIP3    H146065   2.098   6.030   7.454
15396TIP3    H246066   2.065   6.059   7.599
15397TIP3   OH246067   2.057   5.853   5.910
15397TIP3    H146068   2.039   5.820   5.998
15397TIP3    H246069   2.104   5.782   5.867
15398TIP3   OH246070   2.331   5.904   7.164
15398TIP3    H146071   2.262   5.966   7.186
15398TIP3    H246072   2.383   5.949   7.097
15399TIP3   OH246073   2.196   5.675   5.746
15399TIP3    H146074   2.168   5.675   5.655
15399TIP3    H246075   2.292   5.683   5.742
15400TIP3   OH246076   2.864   6.311   7.250
15400TIP3    H146077   2.928   6.266   7.195
15400TIP3    H246078   2.861   6.259   7.330
15401TIP3   OH246079   2.992   5.966   5.436
15401TIP3    H146080   2.980   5.921   5.352
15401TIP3    H246081   2.966   6.057   5.418
15402TIP3   OH246082   2.463   5.700   7.291
15402TIP3    H146083   2.472   5.629   7.228
15402TIP3    H246084   2.423   5.772   7.241
15403TIP3   OH246085   2.480   5.508   7.084
15403TIP3    H146086   2.511   5.538   6.999
15403TIP3    H246087   2.391   5.479   7.069
15404TIP3   OH246088   2.480   6.056   6.989
15404TIP3    H146089   2.565   6.059   6.945
15404TIP3    H246090   2.422   6.105   6.931
15405TIP3   OH246091   3.073   5.988   7.338
15405TIP3    H146092   3.117   5.903   7.339
15405TIP3    H246093   3.143   6.052   7.328
15406TIP3   OH246094   3.109   6.248   7.061
15406TIP3    H146095   3.056   6.314   7.017
15406TIP3    H246096   3.196   6.257   7.021
15407TIP3   OH246097   2.365   5.796   7.541
15407TIP3    H146098   2.277   5.768   7.562
15407TIP3    H246099   2.380   5.764   7.452
15408TIP3   OH246100   2.588   5.289   7.222
15408TIP3    H146101   2.553   5.367   7.178
15408TIP3    H246102   2.529   5.219   7.198
15409TIP3   OH246103   2.726   5.749   7.376
15409TIP3    H146104   2.730   5.743   7.472
15409TIP3    H246105   2.636   5.728   7.355
15410TIP3   OH246106   2.959   5.689   7.225
15410TIP3    H146107   2.882   5.698   7.282
15410TIP3    H246108   3.032   5.673   7.285
15411TIP3   OH246109   3.170   5.663   7.395
15411TIP3    H146110   3.206   5.574   7.394
15411TIP3    H246111   3.192   5.696   7.482
15412TIP3   OH246112   2.668   5.228   7.477
15412TIP3    H146113   2.741   5.175   7.446
15412TIP3    H246114   2.621   5.253   7.398
15413TIP3   OH246115   2.778   5.487   7.560
15413TIP3    H146116   2.749   5.426   7.493
15413TIP3    H246117   2.701   5.540   7.579
15414TIP3   OH246118   2.047   6.711   5.696
15414TIP3    H146119   2.134   6.725   5.658
15414TIP3    H246120   1.986   6.737   5.627
15415TIP3   OH246121   1.495   6.105   5.876
15415TIP3    H146122   1.590   6.114   5.872
15415TIP3    H246123   1.477   6.019   5.839
15416TIP3   OH246124   1.392   6.674   6.334
15416TIP3    H146125   1.326   6.620   6.289
15416TIP3    H246126   1.436   6.614   6.394
15417TIP3   OH246127   1.530   6.506   6.505
15417TIP3    H146128   1.519   6.437   6.570
15417TIP3    H246129   1.588   6.569   6.546
15418TIP3   OH246130   3.267   6.917   6.309
15418TIP3    H146131   3.280   6.947   6.399
15418TIP3    H246132   3.317   6.979   6.256
15419TIP3   OH246133   3.272   6.953   6.588
15419TIP3    H146134   3.235   6.865   6.592
15419TIP3    H246135   3.347   6.950   6.648
15420TIP3   OH246136   3.352   6.642   7.155
15420TIP3    H146137   3.278   6.652   7.215
15420TIP3    H246138   3.397   6.726   7.158
15421TIP3   OH246139   3.163   6.170   5.771
15421TIP3    H146140   3.223   6.237   5.738
15421TIP3    H246141   3.210   6.130   5.844
15422TIP3   OH246142   3.291   6.025   5.972
15422TIP3    H146143   3.223   5.984   6.026
15422TIP3    H246144   3.355   6.058   6.035
15423TIP3   OH246145   3.341   6.429   6.406
15423TIP3    H146146   3.398   6.365   6.363
15423TIP3    H246147   3.343   6.505   6.349
15424TIP3   OH246148   3.151   6.699   6.615
15424TIP3    H146149   3.085   6.749   6.662
15424TIP3    H246150   3.104   6.661   6.540
15425TIP3   OH246151   3.193   5.938   5.621
15425TIP3    H146152   3.125   5.941   5.554
15425TIP3    H246153   3.179   6.018   5.672
15426TIP3   OH246154   3.039   5.567   5.557
15426TIP3    H146155   2.998   5.589   5.473
15426TIP3    H246156   3.040   5.471   5.559
15427TIP3   OH246157   3.086   5.881   6.102
15427TIP3    H146158   3.089   5.787   6.084
15427TIP3    H246159   3.064   5.887   6.195
15428TIP3   OH246160   1.695   5.949   6.894
15428TIP3    H146161   1.685   5.918   6.804
15428TIP3    H246162   1.789   5.945   6.911
15429TIP3   OH246163   3.358   6.299   6.927
15429TIP3    H146164   3.437   6.284   6.875
15429TIP3    H246165   3.306   6.361   6.875
15430TIP3   OH246166   3.486   6.040   6.999
15430TIP3    H146167   3.419   6.105   6.979
15430TIP3    H246168   3.560   6.092   7.032
15431TIP3   OH246169   3.030   5.292   5.535
15431TIP3    H146170   3.094   5.266   5.601
15431TIP3    H246171   2.949   5.250   5.562
15432TIP3   OH246172   3.080   5.605   5.989
15432TIP3    H146173   3.118   5.518   6.001
15432TIP3    H246174   3.120   5.638   5.910
15433TIP3   OH246175   3.230   5.773   6.521
15433TIP3    H146176   3.310   5.797   6.474
15433TIP3    H246177   3.240   5.815   6.607
15434TIP3   OH246178   3.306   5.930   6.745
15434TIP3    H146179   3.228   5.955   6.795
15434TIP3    H246180   3.327   6.009   6.694
15435TIP3   OH246181   1.961   5.647   7.527
15435TIP3    H146182   1.993   5.613   7.443
15435TIP3    H246183   1.923   5.571   7.571
15436TIP3   OH246184   3.763   5.535   7.276
15436TIP3    H146185   3.829   5.468   7.257
15436TIP3    H246186   3.726   5.558   7.191
15437TIP3   OH246187   3.174   5.344   6.038
15437TIP3    H146188   3.209   5.313   6.121
15437TIP3    H246189   3.111   5.276   6.012
15438TIP3   OH246190   1.903   5.340   6.875
15438TIP3    H146191   1.956   5.260   6.878
15438TIP3    H246192   1.966   5.409   6.853
15439TIP3   OH246193   1.690   5.613   6.937
15439TIP3    H146194   1.738   5.588   6.859
15439TIP3    H246195   1.714   5.704   6.953
15440TIP3   OH246196   3.643   5.584   7.039
15440TIP3    H146197   3.547   5.582   7.043
15440TIP3    H246198   3.664   5.532   6.961
15441TIP3   OH246199   3.264   5.261   5.686
15441TIP3    H146200   3.306   5.203   5.623
15441TIP3    H246201   3.316   5.342   5.683
15442TIP3   OH246202   1.674   5.137   6.450
15442TIP3    H146203   1.589   5.111   6.484
15442TIP3    H246204   1.654   5.182   6.367
15443TIP3   OH246205   2.804   6.854   5.955
15443TIP3    H146206   2.863   6.836   5.882
15443TIP3    H246207   2.852   6.916   6.009
15444TIP3   OH246208   1.904   5.246   7.297
15444TIP3    H146209   1.854   5.200   7.365
15444TIP3    H246210   1.842   5.257   7.225
15445TIP3   OH246211   1.899   6.639   7.292
15445TIP3    H146212   1.896   6.552   7.252
15445TIP3    H246213   1.919   6.621   7.384
15446TIP3   OH246214   2.134   6.677   6.880
15446TIP3    H146215   2.086   6.753   6.848
15446TIP3    H246216   2.219   6.682   6.837
15447TIP3   OH246217   2.534   6.905   7.020
15447TIP3    H146218   2.570   6.899   7.108
15447TIP3    H246219   2.596   6.960   6.972
15448TIP3   OH246220   2.724   7.064   6.899
15448TIP3    H146221   2.789   7.017   6.846
15448TIP3    H246222   2.776   7.124   6.952
15449TIP3   OH246223   3.519   5.322   6.990
15449TIP3    H146224   3.432   5.295   6.963
15449TIP3    H246225   3.574   5.245   6.974
15450TIP3   OH246226   1.780   6.905   6.925
15450TIP3    H146227   1.689   6.928   6.903
15450TIP3    H246228   1.808   6.973   6.986
15451TIP3   OH246229   2.019   6.906   6.781
15451TIP3    H146230   1.934   6.911   6.824
15451TIP3    H246231   2.002   6.930   6.690
15452TIP3   OH246232   2.436   6.923   6.579
15452TIP3    H146233   2.370   6.940   6.511
15452TIP3    H246234   2.450   7.008   6.620
15453TIP3   OH246235   2.699   6.852   6.628
15453TIP3    H146236   2.608   6.876   6.607
15453TIP3    H246237   2.752   6.916   6.581
15454TIP3   OH246238   2.899   7.010   6.519
15454TIP3    H146239   2.911   7.099   6.487
15454TIP3    H246240   2.930   6.954   6.447
15455TIP3   OH246241   1.701   6.686   6.644
15455TIP3    H146242   1.729   6.668   6.734
15455TIP3    H246243   1.774   6.658   6.590
15456TIP3   OH246244   1.910   6.580   6.508
15456TIP3    H146245   1.923   6.495   6.549
15456TIP3    H246246   1.997   6.621   6.511
15457TIP3   OH246247   2.178   6.663   6.533
15457TIP3    H146248   2.197   6.571   6.516
15457TIP3    H246249   2.236   6.687   6.605
15458TIP3   OH246250   2.744   5.306   6.614
15458TIP3    H146251   2.706   5.232   6.661
15458TIP3    H246252   2.813   5.268   6.560
15459TIP3   OH246253   3.208   5.291   6.524
15459TIP3    H146254   3.251   5.287   6.439
15459TIP3    H246255   3.122   5.250   6.509
15460TIP3   OH246256   3.335   5.280   6.274
15460TIP3    H146257   3.408   5.226   6.246
15460TIP3    H246258   3.366   5.370   6.262
15461TIP3   OH246259   1.978   5.011   6.621
15461TIP3    H146260   1.889   4.976   6.629
15461TIP3    H246261   2.033   4.934   6.608
15462TIP3   OH246262   1.797   4.934   6.282
15462TIP3    H146263   1.824   4.979   6.202
15462TIP3    H246264   1.766   5.005   6.339
15463TIP3   OH246265   2.455   5.049   6.514
15463TIP3    H146266   2.502   5.096   6.444
15463TIP3    H246267   2.499   5.077   6.594
15464TIP3   OH246268   2.955   5.171   6.477
15464TIP3    H146269   2.948   5.131   6.391
15464TIP3    H246270   2.961   5.097   6.538
15465TIP3   OH246271   2.977   5.124   5.979
15465TIP3    H146272   2.909   5.089   5.922
15465TIP3    H246273   2.960   5.084   6.064
15466TIP3   OH246274   1.470   6.495   6.022
15466TIP3    H146275   1.389   6.464   5.982
15466TIP3    H246276   1.477   6.586   5.995
15467TIP3   OH246277   1.898   5.063   6.045
15467TIP3    H146278   1.938   4.998   5.987
15467TIP3    H246279   1.971   5.117   6.076
15468TIP3   OH246280   2.393   5.239   6.115
15468TIP3    H146281   2.454   5.189   6.168
15468TIP3    H246282   2.411   5.331   6.138
15469TIP3   OH246283   2.287   6.719   5.520
15469TIP3    H146284   2.379   6.693   5.523
15469TIP3    H246285   2.240   6.638   5.504
15470TIP3   OH246286   2.964   6.787   5.734
15470TIP3    H146287   2.960   6.692   5.724
15470TIP3    H246288   2.927   6.821   5.652
15471TIP3   OH246289   1.588   6.479   5.680
15471TIP3    H146290   1.587   6.481   5.775
15471TIP3    H246291   1.669   6.432   5.658
15472TIP3   OH246292   3.268   5.394   7.394
15472TIP3    H146293   3.283   5.367   7.485
15472TIP3    H246294   3.354   5.391   7.354
15473TIP3   OH246295   3.193   6.930   6.911
15473TIP3    H146296   3.120   6.898   6.859
15473TIP3    H246297   3.178   7.024   6.917
15474TIP3   OH246298   4.473   6.313   5.647
15474TIP3    H146299   4.436   6.399   5.627
15474TIP3    H246300   4.404   6.251   5.622
15475TIP3   OH246301   4.469   6.304   6.079
15475TIP3    H146302   4.528   6.284   6.152
15475TIP3    H246303   4.427   6.220   6.058
15476TIP3   OH246304   3.786   6.202   6.457
15476TIP3    H146305   3.816   6.124   6.504
15476TIP3    H246306   3.849   6.212   6.385
15477TIP3   OH246307   4.746   6.614   5.745
15477TIP3    H146308   4.729   6.547   5.812
15477TIP3    H246309   4.761   6.694   5.795
15478TIP3   OH246310   3.762   6.593   6.104
15478TIP3    H146311   3.744   6.500   6.110
15478TIP3    H246312   3.857   6.599   6.092
15479TIP3   OH246313   3.436   5.796   5.888
15479TIP3    H146314   3.394   5.880   5.909
15479TIP3    H246315   3.368   5.746   5.843
15480TIP3   OH246316   3.523   6.104   6.121
15480TIP3    H146317   3.572   6.024   6.142
15480TIP3    H246318   3.587   6.162   6.081
15481TIP3   OH246319   4.408   7.029   5.765
15481TIP3    H146320   4.427   6.968   5.694
15481TIP3    H246321   4.418   6.978   5.845
15482TIP3   OH246322   4.274   6.518   6.087
15482TIP3    H146323   4.322   6.441   6.057
15482TIP3    H246324   4.342   6.580   6.114
15483TIP3   OH246325   5.313   5.843   6.094
15483TIP3    H146326   5.328   5.930   6.132
15483TIP3    H246327   5.332   5.854   6.001
15484TIP3   OH246328   4.683   6.009   6.115
15484TIP3    H146329   4.718   5.924   6.141
15484TIP3    H246330   4.645   5.994   6.028
15485TIP3   OH246331   4.036   5.665   6.071
15485TIP3    H146332   4.015   5.739   6.014
15485TIP3    H246333   3.983   5.593   6.038
15486TIP3   OH246334   4.738   5.780   5.717
15486TIP3    H146335   4.804   5.772   5.786
15486TIP3    H246336   4.788   5.807   5.640
15487TIP3   OH246337   3.658   5.878   6.214
15487TIP3    H146338   3.744   5.858   6.251
15487TIP3    H246339   3.655   5.829   6.132
15488TIP3   OH246340   4.078   6.085   6.029
15488TIP3    H146341   4.172   6.071   6.029
15488TIP3    H246342   4.041   6.004   5.994
15489TIP3   OH246343   5.366   6.068   6.257
15489TIP3    H146344   5.277   6.102   6.252
15489TIP3    H246345   5.400   6.101   6.340
15490TIP3   OH246346   4.015   5.678   6.527
15490TIP3    H146347   3.965   5.710   6.452
15490TIP3    H246348   3.958   5.692   6.602
15491TIP3   OH246349   4.332   6.520   5.534
15491TIP3    H146350   4.308   6.500   5.444
15491TIP3    H246351   4.292   6.605   5.552
15492TIP3   OH246352   4.117   6.445   6.303
15492TIP3    H146353   4.062   6.519   6.331
15492TIP3    H246354   4.166   6.479   6.229
15493TIP3   OH246355   4.897   5.798   5.938
15493TIP3    H146356   4.858   5.773   6.022
15493TIP3    H246357   4.952   5.873   5.959
15494TIP3   OH246358   3.909   5.775   6.290
15494TIP3    H146359   3.965   5.850   6.309
15494TIP3    H246360   3.953   5.730   6.218
15495TIP3   OH246361   3.958   6.652   6.397
15495TIP3    H146362   3.944   6.741   6.364
15495TIP3    H246363   3.881   6.634   6.451
15496TIP3   OH246364   3.336   6.356   5.653
15496TIP3    H146365   3.306   6.373   5.564
15496TIP3    H246366   3.360   6.442   5.688
15497TIP3   OH246367   4.771   6.861   5.891
15497TIP3    H146368   4.683   6.855   5.927
15497TIP3    H246369   4.771   6.943   5.842
15498TIP3   OH246370   5.112   5.741   6.266
15498TIP3    H146371   5.028   5.750   6.222
15498TIP3    H246372   5.177   5.764   6.200
15499TIP3   OH246373   4.363   5.366   6.261
15499TIP3    H146374   4.355   5.274   6.285
15499TIP3    H246375   4.285   5.407   6.299
15500TIP3   OH246376   4.481   6.884   5.538
15500TIP3    H146377   4.533   6.804   5.527
15500TIP3    H246378   4.538   6.955   5.512
15501TIP3   OH246379   4.641   6.669   5.494
15501TIP3    H146380   4.645   6.592   5.438
15501TIP3    H246381   4.680   6.641   5.576
15502TIP3   OH246382   5.013   6.741   6.234
15502TIP3    H146383   4.991   6.669   6.175
15502TIP3    H246384   4.998   6.820   6.182
15503TIP3   OH246385   4.297   6.149   5.503
15503TIP3    H146386   4.216   6.194   5.483
15503TIP3    H246387   4.344   6.146   5.420
15504TIP3   OH246388   4.262   5.962   5.200
15504TIP3    H146389   4.331   6.013   5.241
15504TIP3    H246390   4.299   5.874   5.190
15505TIP3   OH246391   5.183   6.412   6.102
15505TIP3    H146392   5.098   6.456   6.098
15505TIP3    H246393   5.219   6.422   6.014
15506TIP3   OH246394   4.658   6.244   5.458
15506TIP3    H146395   4.603   6.271   5.532
15506TIP3    H246396   4.740   6.215   5.498
15507TIP3   OH246397   4.887   6.267   6.413
15507TIP3    H146398   4.880   6.351   6.460
15507TIP3    H246399   4.807   6.263   6.361
15508TIP3   OH246400   3.878   6.215   5.867
15508TIP3    H146401   3.843   6.155   5.801
15508TIP3    H246402   3.952   6.167   5.905
15509TIP3   OH246403   4.024   6.639   6.011
15509TIP3    H146404   4.002   6.628   5.918
15509TIP3    H246405   4.110   6.599   6.020
15510TIP3   OH246406   3.976   6.217   6.248
15510TIP3    H146407   4.013   6.180   6.168
15510TIP3    H246408   4.028   6.296   6.264
15511TIP3   OH246409   4.528   6.858   6.016
15511TIP3    H146410   4.516   6.938   6.067
15511TIP3    H246411   4.512   6.787   6.078
15512TIP3   OH246412   4.158   6.748   6.565
15512TIP3    H146413   4.097   6.807   6.610
15512TIP3    H246414   4.102   6.698   6.505
15513TIP3   OH246415   4.487   6.100   5.296
15513TIP3    H146416   4.548   6.158   5.342
15513TIP3    H246417   4.516   6.102   5.205
15514TIP3   OH246418   3.906   6.317   6.702
15514TIP3    H146419   3.899   6.409   6.730
15514TIP3    H246420   3.852   6.312   6.623
15515TIP3   OH246421   4.226   6.778   5.551
15515TIP3    H146422   4.313   6.817   5.554
15515TIP3    H246423   4.174   6.841   5.501
15516TIP3   OH246424   3.952   6.908   6.650
15516TIP3    H146425   3.926   6.922   6.559
15516TIP3    H246426   3.870   6.890   6.696
15517TIP3   OH246427   4.997   5.303   5.322
15517TIP3    H146428   4.908   5.280   5.297
15517TIP3    H246429   5.016   5.382   5.273
15518TIP3   OH246430   3.757   6.055   5.667
15518TIP3    H146431   3.677   6.100   5.637
15518TIP3    H246432   3.733   5.963   5.671
15519TIP3   OH246433   4.825   6.705   4.910
15519TIP3    H146434   4.818   6.798   4.887
15519TIP3    H246435   4.914   6.681   4.885
15520TIP3   OH246436   3.530   6.468   6.613
15520TIP3    H146437   3.464   6.452   6.546
15520TIP3    H246438   3.544   6.383   6.654
15521TIP3   OH246439   3.384   6.666   6.260
15521TIP3    H146440   3.475   6.692   6.274
15521TIP3    H246441   3.333   6.744   6.284
15522TIP3   OH246442   5.237   7.119   6.300
15522TIP3    H146443   5.243   7.024   6.309
15522TIP3    H246444   5.157   7.143   6.347
15523TIP3   OH246445   4.346   6.897   6.431
15523TIP3    H146446   4.335   6.987   6.459
15523TIP3    H246447   4.278   6.848   6.478
15524TIP3   OH246448   4.124   6.990   5.380
15524TIP3    H146449   4.082   6.971   5.297
15524TIP3    H246450   4.087   7.074   5.408
15525TIP3   OH246451   3.559   6.851   5.758
15525TIP3    H146452   3.605   6.843   5.842
15525TIP3    H246453   3.512   6.767   5.749
15526TIP3   OH246454   4.325   6.927   5.006
15526TIP3    H146455   4.375   6.853   4.971
15526TIP3    H246456   4.361   6.942   5.093
15527TIP3   OH246457   4.379   6.970   5.275
15527TIP3    H146458   4.293   6.973   5.318
15527TIP3    H246459   4.437   6.932   5.341
15528TIP3   OH246460   5.128   6.222   6.569
15528TIP3    H146461   5.047   6.230   6.518
15528TIP3    H246462   5.147   6.128   6.568
15529TIP3   OH246463   3.745   6.639   6.571
15529TIP3    H146464   3.786   6.637   6.657
15529TIP3    H246465   3.668   6.583   6.579
15530TIP3   OH246466   4.124   5.457   6.387
15530TIP3    H146467   4.042   5.419   6.354
15530TIP3    H246468   4.097   5.538   6.430
15531TIP3   OH246469   4.659   5.588   6.584
15531TIP3    H146470   4.729   5.561   6.644
15531TIP3    H246471   4.578   5.569   6.632
15532TIP3   OH246472   4.886   6.002   6.503
15532TIP3    H146473   4.848   5.999   6.591
15532TIP3    H246474   4.872   6.092   6.474
15533TIP3   OH246475   4.566   6.083   5.033
15533TIP3    H146476   4.518   6.087   4.951
15533TIP3    H246477   4.650   6.125   5.015
15534TIP3   OH246478   4.279   5.486   5.345
15534TIP3    H146479   4.249   5.499   5.434
15534TIP3    H246480   4.246   5.399   5.321
15535TIP3   OH246481   4.063   5.988   6.378
15535TIP3    H146482   4.018   5.993   6.462
15535TIP3    H246483   4.039   6.069   6.333
15536TIP3   OH246484   3.935   5.872   5.922
15536TIP3    H146485   3.845   5.846   5.944
15536TIP3    H246486   3.946   5.844   5.831
15537TIP3   OH246487   4.417   5.946   5.645
15537TIP3    H146488   4.371   6.017   5.601
15537TIP3    H246489   4.477   5.911   5.579
15538TIP3   OH246490   4.610   6.209   6.710
15538TIP3    H146491   4.583   6.141   6.772
15538TIP3    H246492   4.702   6.225   6.730
15539TIP3   OH246493   4.584   5.959   5.865
15539TIP3    H146494   4.517   5.978   5.800
15539TIP3    H246495   4.635   5.887   5.827
15540TIP3   OH246496   3.900   5.993   6.603
15540TIP3    H146497   3.968   6.038   6.652
15540TIP3    H246498   3.882   5.914   6.654
15541TIP3   OH246499   3.948   5.485   5.336
15541TIP3    H146500   3.938   5.494   5.431
15541TIP3    H246501   3.873   5.532   5.300
15542TIP3   OH246502   3.473   5.505   6.206
15542TIP3    H146503   3.555   5.539   6.242
15542TIP3    H246504   3.493   5.481   6.116
15543TIP3   OH246505   3.400   5.503   5.701
15543TIP3    H146506   3.444   5.536   5.623
15543TIP3    H246507   3.330   5.566   5.717
15544TIP3   OH246508   4.640   6.211   6.288
15544TIP3    H146509   4.664   6.145   6.223
15544TIP3    H246510   4.593   6.163   6.356
15545TIP3   OH246511   4.308   5.662   5.968
15545TIP3    H146512   4.230   5.659   6.025
15545TIP3    H246513   4.382   5.653   6.028
15546TIP3   OH246514   3.694   5.744   5.977
15546TIP3    H146515   3.608   5.750   5.936
15546TIP3    H246516   3.723   5.654   5.959
15547TIP3   OH246517   3.954   5.760   5.673
15547TIP3    H146518   4.049   5.766   5.666
15547TIP3    H246519   3.922   5.777   5.584
15548TIP3   OH246520   4.756   5.749   6.178
15548TIP3    H146521   4.731   5.768   6.269
15548TIP3    H246522   4.690   5.685   6.149
15549TIP3   OH246523   3.849   5.783   5.423
15549TIP3    H146524   3.786   5.731   5.372
15549TIP3    H246525   3.901   5.828   5.357
15550TIP3   OH246526   4.951   7.455   6.388
15550TIP3    H146527   4.945   7.470   6.293
15550TIP3    H246528   5.031   7.501   6.414
15551TIP3   OH246529   3.881   6.565   6.818
15551TIP3    H146530   3.963   6.586   6.862
15551TIP3    H246531   3.814   6.579   6.885
15552TIP3   OH246532   4.356   6.034   6.066
15552TIP3    H146533   4.419   5.989   6.010
15552TIP3    H246534   4.357   5.985   6.148
15553TIP3   OH246535   3.841   5.495   5.957
15553TIP3    H146536   3.813   5.419   6.008
15553TIP3    H246537   3.859   5.459   5.870
15554TIP3   OH246538   4.328   5.925   6.329
15554TIP3    H146539   4.240   5.956   6.349
15554TIP3    H246540   4.386   5.979   6.383
15555TIP3   OH246541   4.058   6.283   5.445
15555TIP3    H146542   3.982   6.231   5.420
15555TIP3    H246543   4.032   6.325   5.527
15556TIP3   OH246544   4.948   6.546   6.051
15556TIP3    H146545   4.985   6.595   5.978
15556TIP3    H246546   4.870   6.504   6.015
15557TIP3   OH246547   4.420   5.715   5.258
15557TIP3    H146548   4.380   5.632   5.286
15557TIP3    H246549   4.481   5.738   5.328
15558TIP3   OH246550   4.473   6.632   6.468
15558TIP3    H146551   4.530   6.625   6.545
15558TIP3    H246552   4.436   6.720   6.474
15559TIP3   OH246553   4.588   5.873   5.437
15559TIP3    H146554   4.684   5.871   5.442
15559TIP3    H246555   4.569   5.947   5.379
15560TIP3   OH246556   3.751   6.303   6.096
15560TIP3    H146557   3.786   6.285   6.009
15560TIP3    H246558   3.821   6.276   6.156
15561TIP3   OH246559   4.212   6.444   5.287
15561TIP3    H146560   4.163   6.526   5.284
15561TIP3    H246561   4.158   6.386   5.341
15562TIP3   OH246562   3.590   6.253   6.789
15562TIP3    H146563   3.667   6.257   6.846
15562TIP3    H246564   3.604   6.175   6.735
15563TIP3   OH246565   4.396   6.385   6.733
15563TIP3    H146566   4.344   6.366   6.655
15563TIP3    H246567   4.476   6.334   6.721
15564TIP3   OH246568   4.617   6.920   6.359
15564TIP3    H146569   4.522   6.909   6.359
15564TIP3    H246570   4.637   6.955   6.446
15565TIP3   OH246571   5.003   5.943   5.230
15565TIP3    H146572   4.946   5.893   5.172
15565TIP3    H246573   5.003   6.032   5.193
15566TIP3   OH246574   5.256   6.844   6.318
15566TIP3    H146575   5.164   6.818   6.317
15566TIP3    H246576   5.292   6.809   6.236
15567TIP3   OH246577   4.742   6.775   5.170
15567TIP3    H146578   4.714   6.702   5.225
15567TIP3    H246579   4.764   6.736   5.086
15568TIP3   OH246580   4.723   6.407   5.945
15568TIP3    H146581   4.633   6.387   5.967
15568TIP3    H246582   4.758   6.327   5.907
15569TIP3   OH246583   3.884   6.646   5.766
15569TIP3    H146584   3.886   6.721   5.707
15569TIP3    H246585   3.793   6.638   5.793
15570TIP3   OH246586   3.431   5.919   5.480
15570TIP3    H146587   3.476   6.001   5.502
15570TIP3    H246588   3.351   5.921   5.532
15571TIP3   OH246589   3.952   6.397   5.666
15571TIP3    H146590   3.943   6.487   5.698
15571TIP3    H246591   3.927   6.342   5.741
15572TIP3   OH246592   4.162   6.966   6.221
15572TIP3    H146593   4.195   7.041   6.171
15572TIP3    H246594   4.238   6.934   6.270
15573TIP3   OH246595   3.796   6.868   5.616
15573TIP3    H146596   3.709   6.875   5.655
15573TIP3    H246597   3.832   6.956   5.622
15574TIP3   OH246598   4.504   6.638   6.192
15574TIP3    H146599   4.494   6.633   6.287
15574TIP3    H246600   4.580   6.582   6.173
15575TIP3   OH246601   4.514   6.512   5.068
15575TIP3    H146602   4.555   6.495   5.153
15575TIP3    H246603   4.431   6.464   5.071
15576TIP3   OH246604   4.770   7.125   6.233
15576TIP3    H146605   4.698   7.065   6.255
15576TIP3    H246606   4.735   7.178   6.161
15577TIP3   OH246607   4.817   6.977   4.868
15577TIP3    H146608   4.842   7.040   4.800
15577TIP3    H246609   4.746   7.020   4.915
15578TIP3   OH246610   3.841   5.756   6.741
15578TIP3    H146611   3.750   5.778   6.759
15578TIP3    H246612   3.862   5.687   6.805
15579TIP3   OH246613   4.683   6.464   5.291
15579TIP3    H146614   4.665   6.388   5.346
15579TIP3    H246615   4.776   6.456   5.269
15580TIP3   OH246616   3.586   6.877   6.376
15580TIP3    H146617   3.645   6.824   6.429
15580TIP3    H246618   3.598   6.966   6.408
15581TIP3   OH246619   3.854   6.471   5.078
15581TIP3    H146620   3.866   6.380   5.051
15581TIP3    H246621   3.843   6.467   5.173
15582TIP3   OH246622   3.798   6.489   5.351
15582TIP3    H146623   3.863   6.464   5.417
15582TIP3    H246624   3.797   6.585   5.355
15583TIP3   OH246625   3.528   6.172   5.559
15583TIP3    H146626   3.465   6.223   5.610
15583TIP3    H246627   3.550   6.230   5.485
15584TIP3   OH246628   4.685   5.821   6.438
15584TIP3    H146629   4.767   5.862   6.466
15584TIP3    H246630   4.678   5.742   6.492
15585TIP3   OH246631   4.581   5.558   5.646
15585TIP3    H146632   4.634   5.517   5.578
15585TIP3    H246633   4.626   5.640   5.666
15586TIP3   OH246634   4.065   6.671   5.283
15586TIP3    H146635   3.982   6.697   5.322
15586TIP3    H246636   4.092   6.746   5.230
15587TIP3   OH246637   4.231   5.756   5.716
15587TIP3    H146638   4.294   5.822   5.687
15587TIP3    H246639   4.258   5.733   5.805
15588TIP3   OH246640   4.526   6.051   6.482
15588TIP3    H146641   4.554   6.092   6.564
15588TIP3    H246642   4.576   5.970   6.477
15589TIP3   OH246643   4.389   5.451   5.805
15589TIP3    H146644   4.365   5.528   5.857
15589TIP3    H246645   4.458   5.482   5.747
15590TIP3   OH246646   3.817   6.763   5.364
15590TIP3    H146647   3.800   6.835   5.304
15590TIP3    H246648   3.809   6.801   5.451
15591TIP3   OH246649   3.913   5.488   5.617
15591TIP3    H146650   3.904   5.579   5.644
15591TIP3    H246651   4.007   5.471   5.620
15592TIP3   OH246652   5.150   5.941   6.479
15592TIP3    H146653   5.056   5.953   6.491
15592TIP3    H246654   5.157   5.881   6.404
15593TIP3   OH246655   4.813   6.147   5.859
15593TIP3    H146656   4.737   6.090   5.870
15593TIP3    H246657   4.880   6.108   5.915
15594TIP3   OH246658   3.557   6.353   5.344
15594TIP3    H146659   3.629   6.414   5.354
15594TIP3    H246660   3.586   6.291   5.277
15595TIP3   OH246661   3.460   5.639   5.473
15595TIP3    H146662   3.459   5.734   5.469
15595TIP3    H246663   3.398   5.612   5.404
15596TIP3   OH246664   4.793   7.126   5.798
15596TIP3    H146665   4.753   7.178   5.729
15596TIP3    H246666   4.887   7.137   5.786
15597TIP3   OH246667   3.866   5.360   6.345
15597TIP3    H146668   3.837   5.328   6.260
15597TIP3    H246669   3.853   5.287   6.405
15598TIP3   OH246670   3.386   6.625   5.740
15598TIP3    H146671   3.347   6.662   5.819
15598TIP3    H246672   3.342   6.669   5.668
15599TIP3   OH246673   3.579   7.158   6.793
15599TIP3    H146674   3.662   7.154   6.840
15599TIP3    H246675   3.547   7.068   6.793
15600TIP3   OH246676   4.051   7.067   6.853
15600TIP3    H146677   4.144   7.046   6.860
15600TIP3    H246678   4.021   7.016   6.778
15601TIP3   OH246679   4.008   6.675   4.967
15601TIP3    H146680   3.961   6.604   5.013
15601TIP3    H246681   4.083   6.631   4.927
15602TIP3   OH246682   4.669   7.011   6.614
15602TIP3    H146683   4.690   6.941   6.676
15602TIP3    H246684   4.742   7.073   6.622
15603TIP3   OH246685   4.452   6.713   4.890
15603TIP3    H146686   4.490   6.651   4.952
15603TIP3    H246687   4.509   6.709   4.813
15604TIP3   OH246688   3.675   6.577   7.007
15604TIP3    H146689   3.655   6.495   7.050
15604TIP3    H246690   3.598   6.595   6.953
15605TIP3   OH246691   3.674   6.166   5.182
15605TIP3    H146692   3.724   6.142   5.260
15605TIP3    H246693   3.740   6.179   5.114
15606TIP3   OH246694   4.311   6.652   6.772
15606TIP3    H146695   4.267   6.673   6.689
15606TIP3    H246696   4.354   6.568   6.756
15607TIP3   OH246697   4.266   6.383   5.026
15607TIP3    H146698   4.238   6.394   5.117
15607TIP3    H246699   4.246   6.292   5.005
15608TIP3   OH246700   4.787   6.697   6.391
15608TIP3    H146701   4.863   6.721   6.339
15608TIP3    H246702   4.723   6.767   6.374
15609TIP3   OH246703   3.796   6.261   6.971
15609TIP3    H146704   3.867   6.277   6.909
15609TIP3    H246705   3.825   6.300   7.053
15610TIP3   OH246706   3.844   6.112   5.397
15610TIP3    H146707   3.828   6.079   5.486
15610TIP3    H246708   3.895   6.043   5.355
15611TIP3   OH246709   4.123   6.157   6.650
15611TIP3    H146710   4.058   6.221   6.678
15611TIP3    H246711   4.181   6.205   6.592
15612TIP3   OH246712   3.990   5.935   5.244
15612TIP3    H146713   3.963   5.933   5.153
15612TIP3    H246714   4.085   5.946   5.241
15613TIP3   OH246715   4.673   6.570   6.733
15613TIP3    H146716   4.740   6.532   6.677
15613TIP3    H246717   4.670   6.511   6.809
15614TIP3   OH246718   4.787   6.213   4.925
15614TIP3    H146719   4.773   6.171   4.840
15614TIP3    H246720   4.764   6.305   4.910
15615TIP3   OH246721   4.268   5.957   6.770
15615TIP3    H146722   4.276   5.884   6.708
15615TIP3    H246723   4.225   6.026   6.720
15616TIP3   OH246724   4.276   5.762   6.564
15616TIP3    H146725   4.306   5.793   6.479
15616TIP3    H246726   4.186   5.733   6.548
15617TIP3   OH246727   4.280   6.315   6.487
15617TIP3    H146728   4.363   6.310   6.440
15617TIP3    H246729   4.223   6.366   6.429
15618TIP3   OH246730   4.877   6.246   6.808
15618TIP3    H146731   4.905   6.154   6.813
15618TIP3    H246732   4.957   6.295   6.789
15619TIP3   OH246733   4.901   6.514   6.555
15619TIP3    H146734   4.850   6.577   6.504
15619TIP3    H246735   4.991   6.525   6.525
15620TIP3   OH246736   4.147   6.035   7.014
15620TIP3    H146737   4.086   5.963   7.027
15620TIP3    H246738   4.182   6.021   6.926
15621TIP3   OH246739   4.397   5.533   6.670
15621TIP3    H146740   4.357   5.612   6.635
15621TIP3    H246741   4.331   5.465   6.656
15622TIP3   OH246742   4.527   5.999   6.869
15622TIP3    H146743   4.518   5.986   6.963
15622TIP3    H246744   4.440   5.979   6.833
15623TIP3   OH246745   4.781   5.965   6.749
15623TIP3    H146746   4.701   5.958   6.801
15623TIP3    H246747   4.850   5.931   6.805
15624TIP3   OH246748   5.011   5.914   6.894
15624TIP3    H146749   5.025   5.819   6.902
15624TIP3    H246750   5.006   5.945   6.984
15625TIP3   OH246751   3.982   5.825   7.088
15625TIP3    H146752   3.982   5.739   7.045
15625TIP3    H246753   4.026   5.810   7.171
15626TIP3   OH246754   4.464   5.504   6.934
15626TIP3    H146755   4.535   5.440   6.926
15626TIP3    H246756   4.433   5.517   6.844
15627TIP3   OH246757   4.563   5.719   7.075
15627TIP3    H146758   4.533   5.648   7.020
15627TIP3    H246759   4.490   5.781   7.077
15628TIP3   OH246760   3.819   6.974   5.183
15628TIP3    H146761   3.908   6.952   5.156
15628TIP3    H246762   3.781   7.019   5.108
15629TIP3   OH246763   3.284   6.358   5.367
15629TIP3    H146764   3.378   6.368   5.360
15629TIP3    H246765   3.264   6.276   5.322
15630TIP3   OH246766   3.185   6.930   5.818
15630TIP3    H146767   3.117   6.877   5.777
15630TIP3    H246768   3.230   6.870   5.877
15631TIP3   OH246769   3.330   6.764   5.987
15631TIP3    H146770   3.323   6.698   6.056
15631TIP3    H246771   3.382   6.834   6.027
15632TIP3   OH246772   5.064   7.173   5.795
15632TIP3    H146773   5.083   7.205   5.884
15632TIP3    H246774   5.118   7.228   5.738
15633TIP3   OH246775   5.076   7.210   6.077
15633TIP3    H146776   5.032   7.125   6.072
15633TIP3    H246777   5.148   7.196   6.139
15634TIP3   OH246778   5.153   6.910   6.651
15634TIP3    H146779   5.081   6.921   6.713
15634TIP3    H246780   5.196   6.995   6.650
15635TIP3   OH246781   4.958   6.423   5.255
15635TIP3    H146782   5.016   6.493   5.224
15635TIP3    H246783   5.006   6.384   5.329
15636TIP3   OH246784   5.089   6.280   5.456
15636TIP3    H146785   5.022   6.242   5.512
15636TIP3    H246786   5.153   6.316   5.518
15637TIP3   OH246787   5.138   6.684   5.896
15637TIP3    H146788   5.187   6.615   5.851
15637TIP3    H246789   5.139   6.758   5.836
15638TIP3   OH246790   4.942   6.963   6.087
15638TIP3    H146791   4.876   7.011   6.137
15638TIP3    H246792   4.894   6.925   6.014
15639TIP3   OH246793   4.993   6.191   5.105
15639TIP3    H146794   4.923   6.192   5.040
15639TIP3    H246795   4.977   6.269   5.158
15640TIP3   OH246796   4.842   5.796   5.057
15640TIP3    H146797   4.802   5.803   4.970
15640TIP3    H246798   4.817   5.710   5.089
15641TIP3   OH246799   4.883   6.140   5.589
15641TIP3    H146800   4.887   6.046   5.572
15641TIP3    H246801   4.864   6.147   5.683
15642TIP3   OH246802   3.521   6.215   6.372
15642TIP3    H146803   3.517   6.183   6.282
15642TIP3    H246804   3.614   6.221   6.392
15643TIP3   OH246805   5.156   6.553   6.455
15643TIP3    H146806   5.225   6.490   6.438
15643TIP3    H246807   5.152   6.606   6.375
15644TIP3   OH246808   5.340   6.345   6.448
15644TIP3    H146809   5.266   6.303   6.490
15644TIP3    H246810   5.415   6.289   6.469
15645TIP3   OH246811   4.881   5.864   5.480
15645TIP3    H146812   4.919   5.778   5.493
15645TIP3    H246813   4.923   5.898   5.401
15646TIP3   OH246814   5.031   6.033   6.005
15646TIP3    H146815   5.111   6.049   5.955
15646TIP3    H246816   5.047   6.072   6.091
15647TIP3   OH246817   5.106   6.181   6.233
15647TIP3    H146818   5.032   6.208   6.288
15647TIP3    H246819   5.135   6.261   6.190
15648TIP3   OH246820   3.699   5.846   7.054
15648TIP3    H146821   3.787   5.879   7.075
15648TIP3    H246822   3.705   5.751   7.069
15649TIP3   OH246823   5.564   5.771   6.770
15649TIP3    H146824   5.632   5.718   6.728
15649TIP3    H246825   5.525   5.821   6.698
15650TIP3   OH246826   4.977   5.606   5.527
15650TIP3    H146827   5.013   5.574   5.609
15650TIP3    H246828   4.912   5.541   5.502
15651TIP3   OH246829   3.705   5.582   6.355
15651TIP3    H146830   3.760   5.503   6.355
15651TIP3    H246831   3.764   5.653   6.330
15652TIP3   OH246832   3.483   5.860   6.439
15652TIP3    H146833   3.534   5.851   6.358
15652TIP3    H246834   3.479   5.954   6.455
15653TIP3   OH246835   5.413   5.886   6.570
15653TIP3    H146836   5.327   5.925   6.587
15653TIP3    H246837   5.394   5.809   6.517
15654TIP3   OH246838   5.101   5.502   5.161
15654TIP3    H146839   5.143   5.451   5.092
15654TIP3    H246840   5.140   5.589   5.155
15655TIP3   OH246841   3.457   5.384   5.940
15655TIP3    H146842   3.368   5.357   5.965
15655TIP3    H246843   3.445   5.432   5.859
15656TIP3   OH246844   4.620   7.093   5.441
15656TIP3    H146845   4.677   7.082   5.364
15656TIP3    H246846   4.661   7.162   5.492
15657TIP3   OH246847   3.672   5.473   6.784
15657TIP3    H146848   3.619   5.397   6.806
15657TIP3    H246849   3.627   5.512   6.708
15658TIP3   OH246850   3.732   6.872   6.815
15658TIP3    H146851   3.636   6.873   6.809
15658TIP3    H246852   3.750   6.889   6.908
15659TIP3   OH246853   3.933   6.931   6.369
15659TIP3    H146854   3.883   7.006   6.337
15659TIP3    H246855   4.018   6.938   6.325
15660TIP3   OH246856   4.325   7.162   6.511
15660TIP3    H146857   4.363   7.157   6.599
15660TIP3    H246858   4.387   7.217   6.462
15661TIP3   OH246859   4.516   7.319   6.388
15661TIP3    H146860   4.575   7.274   6.329
15661TIP3    H246861   4.572   7.379   6.438
15662TIP3   OH246862   5.330   5.637   6.466
15662TIP3    H146863   5.243   5.629   6.428
15662TIP3    H246864   5.367   5.549   6.461
15663TIP3   OH246865   3.592   7.160   6.420
15663TIP3    H146866   3.501   7.177   6.396
15663TIP3    H246867   3.614   7.229   6.482
15664TIP3   OH246868   3.822   7.162   6.267
15664TIP3    H146869   3.739   7.166   6.314
15664TIP3    H246870   3.801   7.188   6.177
15665TIP3   OH246871   4.233   7.180   6.063
15665TIP3    H146872   4.163   7.193   5.998
15665TIP3    H246873   4.245   7.266   6.103
15666TIP3   OH246874   4.497   7.115   6.113
15666TIP3    H146875   4.406   7.136   6.092
15666TIP3    H246876   4.548   7.178   6.064
15667TIP3   OH246877   4.698   7.278   6.008
15667TIP3    H146878   4.701   7.367   5.973
15667TIP3    H246879   4.727   7.222   5.935
15668TIP3   OH246880   3.500   6.949   6.122
15668TIP3    H146881   3.524   6.929   6.213
15668TIP3    H246882   3.574   6.917   6.071
15669TIP3   OH246883   3.708   6.835   5.990
15669TIP3    H146884   3.720   6.751   6.034
15669TIP3    H246885   3.794   6.876   5.994
15670TIP3   OH246886   3.975   6.918   6.018
15670TIP3    H146887   3.996   6.826   6.002
15670TIP3    H246888   4.031   6.942   6.092
15671TIP3   OH246889   4.537   5.567   6.108
15671TIP3    H146890   4.497   5.494   6.154
15671TIP3    H246891   4.605   5.527   6.053
15672TIP3   OH246892   5.029   5.508   6.019
15672TIP3    H146893   5.063   5.545   5.938
15672TIP3    H246894   4.934   5.507   6.007
15673TIP3   OH246895   5.135   5.545   5.761
15673TIP3    H146896   5.207   5.491   5.729
15673TIP3    H246897   5.165   5.635   5.751
15674TIP3   OH246898   3.770   5.267   6.104
15674TIP3    H146899   3.681   5.233   6.113
15674TIP3    H246900   3.825   5.189   6.092
15675TIP3   OH246901   3.609   5.195   5.767
15675TIP3    H146902   3.625   5.247   5.688
15675TIP3    H246903   3.563   5.254   5.826
15676TIP3   OH246904   4.247   5.309   6.004
15676TIP3    H146905   4.292   5.356   5.934
15676TIP3    H246906   4.294   5.335   6.084
15677TIP3   OH246907   4.751   5.449   5.976
15677TIP3    H146908   4.758   5.418   5.886
15677TIP3    H246909   4.758   5.370   6.029
15678TIP3   OH246910   4.758   5.419   5.476
15678TIP3    H146911   4.752   5.388   5.386
15678TIP3    H246912   4.753   5.340   5.530
15679TIP3   OH246913   3.265   6.751   5.529
15679TIP3    H146914   3.183   6.714   5.496
15679TIP3    H246915   3.270   6.838   5.490
15680TIP3   OH246916   3.695   5.332   5.530
15680TIP3    H146917   3.746   5.271   5.476
15680TIP3    H246918   3.760   5.392   5.565
15681TIP3   OH246919   4.190   5.506   5.609
15681TIP3    H146920   4.250   5.455   5.664
15681TIP3    H246921   4.205   5.597   5.635
15682TIP3   OH246922   4.073   6.897   5.112
15682TIP3    H146923   4.156   6.924   5.073
15682TIP3    H246924   4.042   6.826   5.055
15683TIP3   OH246925   4.773   7.044   5.213
15683TIP3    H146926   4.767   6.949   5.204
15683TIP3    H246927   4.732   7.079   5.134
15684TIP3   OH246928   3.994   5.558   6.996
15684TIP3    H146929   3.961   5.490   7.055
15684TIP3    H246930   4.087   5.565   7.017
15685TIP3   OH246931   4.247   5.561   7.106
15685TIP3    H146932   4.324   5.538   7.054
15685TIP3    H246933   4.240   5.490   7.171
15686TIP3   OH246934   3.389   6.749   5.167
15686TIP3    H146935   3.394   6.755   5.262
15686TIP3    H246936   3.467   6.698   5.142
15687TIP3   OH246937   5.069   5.642   6.894
15687TIP3    H146938   5.085   5.612   6.984
15687TIP3    H246939   5.155   5.638   6.851
15688TIP3   OH246940   4.986   7.182   6.400
15688TIP3    H146941   4.914   7.151   6.345
15688TIP3    H246942   4.974   7.277   6.404
15689TIP3   OH246943   6.268   6.570   5.138
15689TIP3    H146944   6.238   6.657   5.110
15689TIP3    H246945   6.198   6.511   5.110
15690TIP3   OH246946   6.269   6.562   5.562
15690TIP3    H146947   6.323   6.542   5.639
15690TIP3    H246948   6.223   6.480   5.544
15691TIP3   OH246949   5.562   6.418   5.906
15691TIP3    H146950   5.603   6.366   5.975
15691TIP3    H246951   5.635   6.443   5.849
15692TIP3   OH246952   6.539   6.869   5.238
15692TIP3    H146953   6.525   6.802   5.305
15692TIP3    H246954   6.558   6.949   5.287
15693TIP3   OH246955   5.559   6.850   5.587
15693TIP3    H146956   5.539   6.756   5.594
15693TIP3    H246957   5.654   6.854   5.578
15694TIP3   OH246958   5.236   6.054   5.370
15694TIP3    H146959   5.195   6.137   5.395
15694TIP3    H246960   5.166   6.004   5.328
15695TIP3   OH246961   5.318   6.366   5.601
15695TIP3    H146962   5.369   6.288   5.625
15695TIP3    H246963   5.383   6.430   5.575
15696TIP3   OH246964   6.197   7.293   5.248
15696TIP3    H146965   6.222   7.233   5.178
15696TIP3    H246966   6.202   7.240   5.328
15697TIP3   OH246967   6.074   6.782   5.562
15697TIP3    H146968   6.121   6.703   5.535
15697TIP3    H246969   6.143   6.840   5.595
15698TIP3   OH246970   7.114   6.098   5.580
15698TIP3    H146971   7.125   6.186   5.616
15698TIP3    H246972   7.137   6.107   5.488
15699TIP3   OH246973   6.479   6.267   5.601
15699TIP3    H146974   6.511   6.181   5.628
15699TIP3    H246975   6.442   6.252   5.514
15700TIP3   OH246976   5.838   5.924   5.555
15700TIP3    H146977   5.813   5.997   5.499
15700TIP3    H246978   5.781   5.852   5.526
15701TIP3   OH246979   6.535   6.034   5.201
15701TIP3    H146980   6.597   6.028   5.273
15701TIP3    H246981   6.586   6.066   5.127
15702TIP3   OH246982   5.460   6.143   5.689
15702TIP3    H146983   5.543   6.124   5.732
15702TIP3    H246984   5.461   6.091   5.609
15703TIP3   OH246985   5.875   6.343   5.508
15703TIP3    H146986   5.970   6.328   5.512
15703TIP3    H246987   5.840   6.260   5.475
15704TIP3   OH246988   7.161   6.325   5.744
15704TIP3    H146989   7.072   6.360   5.736
15704TIP3    H246990   7.194   6.361   5.826
15705TIP3   OH246991   5.814   5.934   6.010
15705TIP3    H146992   5.765   5.967   5.935
15705TIP3    H246993   5.758   5.951   6.085
15706TIP3   OH246994   6.167   6.787   4.999
15706TIP3    H146995   6.127   6.756   4.917
15706TIP3    H246996   6.115   6.863   5.024
15707TIP3   OH246997   5.903   6.709   5.768
15707TIP3    H146998   5.851   6.782   5.803
15707TIP3    H246999   5.953   6.746   5.696
15708TIP3   OH247000   6.686   6.055   5.425
15708TIP3    H147001   6.647   6.031   5.509
15708TIP3    H247002   6.744   6.129   5.446
15709TIP3   OH247003   5.709   6.038   5.776
15709TIP3    H147004   5.764   6.113   5.798
15709TIP3    H247005   5.756   5.995   5.704
15710TIP3   OH247006   5.754   6.914   5.879
15710TIP3    H147007   5.740   7.004   5.849
15710TIP3    H247008   5.677   6.895   5.931
15711TIP3   OH247009   5.128   6.616   5.138
15711TIP3    H147010   5.094   6.635   5.051
15711TIP3    H247011   5.151   6.701   5.175
15712TIP3   OH247012   6.572   7.116   5.381
15712TIP3    H147013   6.484   7.109   5.418
15712TIP3    H247014   6.571   7.198   5.331
15713TIP3   OH247015   6.918   5.992   5.755
15713TIP3    H147016   6.833   6.001   5.713
15713TIP3    H247017   6.981   6.018   5.687
15714TIP3   OH247018   6.158   5.622   5.748
15714TIP3    H147019   6.150   5.530   5.772
15714TIP3    H247020   6.081   5.664   5.785
15715TIP3   OH247021   6.280   7.150   5.025
15715TIP3    H147022   6.333   7.071   5.016
15715TIP3    H247023   6.338   7.221   4.998
15716TIP3   OH247024   6.418   6.919   4.994
15716TIP3    H147025   6.346   6.855   4.991
15716TIP3    H247026   6.469   6.893   5.071
15717TIP3   OH247027   6.819   6.994   5.724
15717TIP3    H147028   6.794   6.923   5.664
15717TIP3    H247029   6.803   7.074   5.673
15718TIP3   OH247030   6.095   6.407   4.991
15718TIP3    H147031   6.011   6.449   4.973
15718TIP3    H247032   6.140   6.405   4.907
15719TIP3   OH247033   6.061   6.225   4.674
15719TIP3    H147034   6.129   6.267   4.725
15719TIP3    H247035   6.107   6.160   4.621
15720TIP3   OH247036   6.978   6.669   5.590
15720TIP3    H147037   6.893   6.713   5.585
15720TIP3    H247038   7.016   6.678   5.502
15721TIP3   OH247039   6.453   6.498   4.949
15721TIP3    H147040   6.399   6.528   5.022
15721TIP3    H247041   6.537   6.474   4.988
15722TIP3   OH247042   6.682   6.523   5.900
15722TIP3    H147043   6.675   6.607   5.946
15722TIP3    H247044   6.602   6.518   5.847
15723TIP3   OH247045   5.677   6.474   5.353
15723TIP3    H147046   5.641   6.413   5.288
15723TIP3    H247047   5.750   6.426   5.393
15724TIP3   OH247048   5.822   6.899   5.493
15724TIP3    H147049   5.796   6.887   5.402
15724TIP3    H247050   5.909   6.860   5.499
15725TIP3   OH247051   5.773   6.471   5.729
15725TIP3    H147052   5.811   6.434   5.650
15725TIP3    H247053   5.820   6.553   5.743
15726TIP3   OH247054   6.331   7.113   5.508
15726TIP3    H147055   6.316   7.193   5.558
15726TIP3    H247056   6.314   7.042   5.570
15727TIP3   OH247057   5.950   7.006   6.052
15727TIP3    H147058   5.889   7.063   6.098
15727TIP3    H247059   5.896   6.956   5.991
15728TIP3   OH247060   6.289   6.346   4.787
15728TIP3    H147061   6.346   6.406   4.834
15728TIP3    H247062   6.316   6.354   4.696
15729TIP3   OH247063   5.701   6.547   6.207
15729TIP3    H147064   5.706   6.642   6.220
15729TIP3    H247065   5.608   6.529   6.198
15730TIP3   OH247066   6.032   7.028   5.037
15730TIP3    H147067   6.114   7.078   5.040
15730TIP3    H247068   5.972   7.084   4.989
15731TIP3   OH247069   5.741   7.165   6.138
15731TIP3    H147070   5.718   7.178   6.046
15731TIP3    H247071   5.657   7.151   6.182
15732TIP3   OH247072   6.789   5.570   4.866
15732TIP3    H147073   6.720   5.619   4.911
15732TIP3    H247074   6.816   5.627   4.795
15733TIP3   OH247075   5.552   6.315   5.154
15733TIP3    H147076   5.475   6.365   5.125
15733TIP3    H247077   5.518   6.227   5.171
15734TIP3   OH247078   6.622   6.961   4.398
15734TIP3    H147079   6.614   7.054   4.375
15734TIP3    H247080   6.712   6.939   4.374
15735TIP3   OH247081   5.340   6.723   6.089
15735TIP3    H147082   5.270   6.706   6.026
15735TIP3    H247083   5.373   6.636   6.112
15736TIP3   OH247084   5.178   6.921   5.747
15736TIP3    H147085   5.268   6.948   5.764
15736TIP3    H247086   5.125   6.997   5.771
15737TIP3   OH247087   7.047   7.393   5.786
15737TIP3    H147088   7.054   7.297   5.792
15737TIP3    H247089   6.966   7.413   5.833
15738TIP3   OH247090   6.141   7.152   5.918
15738TIP3    H147091   6.130   7.243   5.945
15738TIP3    H247092   6.073   7.105   5.964
15739TIP3   OH247093   5.922   7.250   4.867
15739TIP3    H147094   5.878   7.229   4.785
15739TIP3    H247095   5.881   7.331   4.896
15740TIP3   OH247096   5.354   7.109   5.243
15740TIP3    H147097   5.398   7.101   5.328
15740TIP3    H247098   5.304   7.028   5.234
15741TIP3   OH247099   6.123   7.186   4.493
15741TIP3    H147100   6.173   7.112   4.457
15741TIP3    H247101   6.159   7.199   4.581
15742TIP3   OH247102   6.176   7.228   4.763
15742TIP3    H147103   6.089   7.232   4.804
15742TIP3    H247104   6.231   7.188   4.830
15743TIP3   OH247105   6.924   6.479   6.055
15743TIP3    H147106   6.842   6.490   6.006
15743TIP3    H247107   6.943   6.386   6.048
15744TIP3   OH247108   5.541   6.910   6.054
15744TIP3    H147109   5.591   6.895   6.134
15744TIP3    H247110   5.467   6.849   6.059
15745TIP3   OH247111   5.920   5.715   5.871
15745TIP3    H147112   5.837   5.679   5.839
15745TIP3    H247113   5.896   5.796   5.916
15746TIP3   OH247114   6.454   5.844   6.071
15746TIP3    H147115   6.522   5.818   6.134
15746TIP3    H247116   6.372   5.828   6.117
15747TIP3   OH247117   6.685   6.258   5.992
15747TIP3    H147118   6.645   6.256   6.080
15747TIP3    H247119   6.668   6.346   5.960
15748TIP3   OH247120   6.360   6.345   4.523
15748TIP3    H147121   6.313   6.346   4.440
15748TIP3    H247122   6.443   6.389   4.504
15749TIP3   OH247123   6.090   5.747   4.848
15749TIP3    H147124   6.046   5.757   4.933
15749TIP3    H247125   6.067   5.658   4.819
15750TIP3   OH247126   5.859   6.250   5.876
15750TIP3    H147127   5.814   6.256   5.960
15750TIP3    H247128   5.836   6.331   5.831
15751TIP3   OH247129   5.734   6.127   5.403
15751TIP3    H147130   5.645   6.103   5.427
15751TIP3    H247131   5.743   6.097   5.313
15752TIP3   OH247132   6.216   6.201   5.127
15752TIP3    H147133   6.170   6.275   5.087
15752TIP3    H247134   6.274   6.169   5.058
15753TIP3   OH247135   6.398   6.466   6.197
15753TIP3    H147136   6.374   6.398   6.260
15753TIP3    H247137   6.490   6.485   6.216
15754TIP3   OH247138   6.384   6.217   5.350
15754TIP3    H147139   6.316   6.237   5.285
15754TIP3    H247140   6.433   6.145   5.311
15755TIP3   OH247141   5.700   6.267   6.100
15755TIP3    H147142   5.706   6.333   6.169
15755TIP3    H247143   5.680   6.185   6.145
15756TIP3   OH247144   5.743   5.742   4.818
15756TIP3    H147145   5.738   5.754   4.913
15756TIP3    H247146   5.664   5.785   4.784
15757TIP3   OH247147   5.266   5.773   5.696
15757TIP3    H147148   5.347   5.809   5.733
15757TIP3    H247149   5.289   5.752   5.605
15758TIP3   OH247150   5.211   5.760   5.179
15758TIP3    H147151   5.255   5.802   5.106
15758TIP3    H247152   5.138   5.819   5.200
15759TIP3   OH247153   6.436   6.470   5.774
15759TIP3    H147154   6.459   6.403   5.709
15759TIP3    H247155   6.388   6.423   5.841
15760TIP3   OH247156   6.106   5.914   5.451
15760TIP3    H147157   6.027   5.914   5.504
15760TIP3    H247158   6.178   5.906   5.514
15761TIP3   OH247159   5.494   6.002   5.457
15761TIP3    H147160   5.407   6.008   5.419
15761TIP3    H247161   5.520   5.911   5.445
15762TIP3   OH247162   5.753   6.010   5.156
15762TIP3    H147163   5.847   6.021   5.146
15762TIP3    H247164   5.718   6.028   5.068
15763TIP3   OH247165   6.545   6.005   5.663
15763TIP3    H147166   6.524   6.024   5.755
15763TIP3    H247167   6.477   5.943   5.636
15764TIP3   OH247168   5.647   6.029   4.905
15764TIP3    H147169   5.581   5.982   4.853
15764TIP3    H247170   5.698   6.077   4.840
15765TIP3   OH247171   6.747   7.711   5.875
15765TIP3    H147172   6.741   7.727   5.781
15765TIP3    H247173   6.825   7.760   5.903
15766TIP3   OH247174   5.688   6.818   6.288
15766TIP3    H147175   5.768   6.839   6.335
15766TIP3    H247176   5.618   6.830   6.353
15767TIP3   OH247177   6.151   6.294   5.554
15767TIP3    H147178   6.217   6.245   5.505
15767TIP3    H247179   6.148   6.251   5.639
15768TIP3   OH247180   5.640   5.752   5.446
15768TIP3    H147181   5.611   5.679   5.500
15768TIP3    H247182   5.653   5.714   5.359
15769TIP3   OH247183   6.123   6.192   5.816
15769TIP3    H147184   6.036   6.224   5.840
15769TIP3    H247185   6.183   6.245   5.869
15770TIP3   OH247186   5.854   6.537   4.936
15770TIP3    H147187   5.778   6.485   4.910
15770TIP3    H247188   5.827   6.581   5.017
15771TIP3   OH247189   6.744   6.803   5.540
15771TIP3    H147190   6.780   6.852   5.466
15771TIP3    H247191   6.666   6.761   5.504
15772TIP3   OH247192   6.260   5.927   4.729
15772TIP3    H147193   6.204   5.866   4.776
15772TIP3    H247194   6.304   5.977   4.798
15773TIP3   OH247195   6.269   6.888   5.956
15773TIP3    H147196   6.319   6.879   6.037
15773TIP3    H247197   6.229   6.974   5.962
15774TIP3   OH247198   6.381   6.110   4.915
15774TIP3    H147199   6.476   6.116   4.925
15774TIP3    H247200   6.357   6.188   4.863
15775TIP3   OH247201   5.544   6.559   5.580
15775TIP3    H147202   5.581   6.540   5.494
15775TIP3    H247203   5.610   6.530   5.642
15776TIP3   OH247204   6.008   6.701   4.782
15776TIP3    H147205   5.960   6.784   4.777
15776TIP3    H247206   5.951   6.643   4.833
15777TIP3   OH247207   5.427   6.485   6.218
15777TIP3    H147208   5.425   6.456   6.310
15777TIP3    H247209   5.351   6.442   6.178
15778TIP3   OH247210   6.172   6.627   6.241
15778TIP3    H147211   6.100   6.569   6.215
15778TIP3    H247212   6.251   6.583   6.210
15779TIP3   OH247213   6.413   7.177   5.845
15779TIP3    H147214   6.319   7.163   5.846
15779TIP3    H247215   6.434   7.211   5.932
15780TIP3   OH247216   6.791   6.190   4.715
15780TIP3    H147217   6.741   6.134   4.655
15780TIP3    H247218   6.788   6.277   4.675
15781TIP3   OH247219   7.061   7.116   5.800
15781TIP3    H147220   6.971   7.085   5.807
15781TIP3    H247221   7.094   7.077   5.719
15782TIP3   OH247222   6.537   7.028   4.662
15782TIP3    H147223   6.509   6.956   4.718
15782TIP3    H247224   6.559   6.987   4.578
15783TIP3   OH247225   6.520   6.664   5.436
15783TIP3    H147226   6.430   6.642   5.460
15783TIP3    H247227   6.554   6.583   5.396
15784TIP3   OH247228   5.674   6.902   5.254
15784TIP3    H147229   5.671   6.977   5.195
15784TIP3    H247230   5.585   6.895   5.288
15785TIP3   OH247231   5.235   6.191   4.969
15785TIP3    H147232   5.275   6.275   4.992
15785TIP3    H247233   5.153   6.189   5.019
15786TIP3   OH247234   5.751   6.657   5.155
15786TIP3    H147235   5.736   6.746   5.186
15786TIP3    H247236   5.726   6.602   5.228
15787TIP3   OH247237   5.959   7.225   5.707
15787TIP3    H147238   5.993   7.299   5.658
15787TIP3    H247239   6.034   7.192   5.756
15788TIP3   OH247240   5.592   7.123   5.103
15788TIP3    H147241   5.504   7.132   5.139
15788TIP3    H247242   5.629   7.211   5.108
15789TIP3   OH247243   6.303   6.892   5.681
15789TIP3    H147244   6.291   6.888   5.776
15789TIP3    H247245   6.378   6.835   5.663
15790TIP3   OH247246   6.307   6.769   4.543
15790TIP3    H147247   6.357   6.741   4.621
15790TIP3    H247248   6.225   6.722   4.549
15791TIP3   OH247249   6.569   7.379   5.719
15791TIP3    H147250   6.498   7.319   5.743
15791TIP3    H247251   6.533   7.432   5.648
15792TIP3   OH247252   6.607   7.232   4.349
15792TIP3    H147253   6.611   7.286   4.270
15792TIP3    H247254   6.540   7.275   4.403
15793TIP3   OH247255   5.640   6.014   6.214
15793TIP3    H147256   5.545   6.024   6.216
15793TIP3    H247257   5.660   5.957   6.289
15794TIP3   OH247258   6.478   6.684   4.741
15794TIP3    H147259   6.462   6.629   4.817
15794TIP3    H247260   6.573   6.688   4.733
15795TIP3   OH247261   5.385   7.129   5.866
15795TIP3    H147262   5.440   7.073   5.920
15795TIP3    H247263   5.399   7.217   5.900
15796TIP3   OH247264   5.655   6.730   4.566
15796TIP3    H147265   5.665   6.639   4.538
15796TIP3    H247266   5.641   6.726   4.660
15797TIP3   OH247267   5.594   6.747   4.838
15797TIP3    H147268   5.655   6.723   4.908
15797TIP3    H247269   5.591   6.843   4.840
15798TIP3   OH247270   5.327   6.441   5.050
15798TIP3    H147271   5.262   6.490   5.100
15798TIP3    H247272   5.347   6.498   4.975
15799TIP3   OH247273   6.487   6.074   5.924
15799TIP3    H147274   6.567   6.116   5.955
15799TIP3    H247275   6.477   5.997   5.979
15800TIP3   OH247276   6.371   5.834   5.107
15800TIP3    H147277   6.335   5.877   5.029
15800TIP3    H247278   6.424   5.902   5.149
15801TIP3   OH247279   5.864   6.931   4.773
15801TIP3    H147280   5.779   6.955   4.809
15801TIP3    H247281   5.888   7.004   4.717
15802TIP3   OH247282   6.032   6.010   5.200
15802TIP3    H147283   6.092   6.080   5.174
15802TIP3    H247284   6.056   5.990   5.290
15803TIP3   OH247285   6.327   6.308   5.967
15803TIP3    H147286   6.351   6.349   6.050
15803TIP3    H247287   6.377   6.226   5.966
15804TIP3   OH247288   6.196   5.708   5.285
15804TIP3    H147289   6.172   5.784   5.338
15804TIP3    H247290   6.263   5.740   5.224
15805TIP3   OH247291   5.614   7.020   4.849
15805TIP3    H147292   5.596   7.091   4.789
15805TIP3    H247293   5.604   7.058   4.936
15806TIP3   OH247294   5.707   5.739   5.097
15806TIP3    H147295   5.696   5.829   5.126
15806TIP3    H247296   5.801   5.722   5.106
15807TIP3   OH247297   6.949   6.203   5.967
15807TIP3    H147298   6.855   6.212   5.980
15807TIP3    H247299   6.958   6.148   5.889
15808TIP3   OH247300   6.611   6.404   5.348
15808TIP3    H147301   6.534   6.348   5.359
15808TIP3    H247302   6.678   6.364   5.404
15809TIP3   OH247303   5.352   6.611   4.829
15809TIP3    H147304   5.423   6.674   4.836
15809TIP3    H247305   5.382   6.549   4.763
15810TIP3   OH247306   5.273   5.916   4.962
15810TIP3    H147307   5.277   6.011   4.972
15810TIP3    H247308   5.215   5.902   4.886
15811TIP3   OH247309   6.588   7.379   5.288
15811TIP3    H147310   6.545   7.433   5.222
15811TIP3    H247311   6.682   7.394   5.273
15812TIP3   OH247312   5.660   5.626   5.830
15812TIP3    H147313   5.629   5.594   5.745
15812TIP3    H247314   5.649   5.551   5.889
15813TIP3   OH247315   5.180   6.884   5.224
15813TIP3    H147316   5.140   6.921   5.302
15813TIP3    H247317   5.135   6.926   5.151
15814TIP3   OH247318   5.389   7.420   6.290
15814TIP3    H147319   5.471   7.424   6.339
15814TIP3    H247320   5.375   7.327   6.274
15815TIP3   OH247321   5.851   7.321   6.336
15815TIP3    H147322   5.942   7.293   6.342
15815TIP3    H247323   5.815   7.270   6.263
15816TIP3   OH247324   5.805   6.933   4.453
15816TIP3    H147325   5.758   6.862   4.498
15816TIP3    H247326   5.880   6.889   4.412
15817TIP3   OH247327   6.467   7.269   6.098
15817TIP3    H147328   6.485   7.200   6.161
15817TIP3    H247329   6.540   7.330   6.108
15818TIP3   OH247330   6.249   6.975   4.373
15818TIP3    H147331   6.285   6.911   4.434
15818TIP3    H247332   6.305   6.969   4.296
15819TIP3   OH247333   5.482   6.827   6.478
15819TIP3    H147334   5.499   6.733   6.490
15819TIP3    H247335   5.396   6.830   6.436
15820TIP3   OH247336   5.472   6.422   4.671
15820TIP3    H147337   5.523   6.398   4.749
15820TIP3    H247338   5.538   6.437   4.603
15821TIP3   OH247339   6.106   6.903   6.256
15821TIP3    H147340   6.061   6.925   6.174
15821TIP3    H247341   6.140   6.815   6.242
15822TIP3   OH247342   6.060   6.644   4.518
15822TIP3    H147343   6.033   6.654   4.609
15822TIP3    H247344   6.036   6.554   4.495
15823TIP3   OH247345   6.584   6.953   5.874
15823TIP3    H147346   6.662   6.980   5.824
15823TIP3    H247347   6.520   7.022   5.858
15824TIP3   OH247348   5.595   6.571   6.491
15824TIP3    H147349   5.668   6.554   6.431
15824TIP3    H247350   5.637   6.589   6.575
15825TIP3   OH247351   5.642   6.365   4.886
15825TIP3    H147352   5.622   6.334   4.974
15825TIP3    H247353   5.693   6.294   4.846
15826TIP3   OH247354   5.966   6.454   6.150
15826TIP3    H147355   5.878   6.490   6.161
15826TIP3    H247356   5.993   6.483   6.062
15827TIP3   OH247357   5.792   6.186   4.734
15827TIP3    H147358   5.762   6.190   4.643
15827TIP3    H247359   5.887   6.198   4.729
15828TIP3   OH247360   6.460   6.824   6.220
15828TIP3    H147361   6.528   6.785   6.165
15828TIP3    H247362   6.456   6.767   6.297
15829TIP3   OH247363   6.582   6.469   4.410
15829TIP3    H147364   6.568   6.428   4.325
15829TIP3    H247365   6.561   6.561   4.396
15830TIP3   OH247366   6.069   6.219   6.249
15830TIP3    H147367   6.069   6.150   6.183
15830TIP3    H247368   6.034   6.296   6.203
15831TIP3   OH247369   6.073   6.022   6.045
15831TIP3    H147370   6.100   6.058   5.961
15831TIP3    H247371   5.982   5.994   6.032
15832TIP3   OH247372   6.070   6.551   5.919
15832TIP3    H147373   6.159   6.586   5.906
15832TIP3    H247374   6.014   6.607   5.866
15833TIP3   OH247375   6.667   6.513   6.290
15833TIP3    H147376   6.707   6.426   6.283
15833TIP3    H247377   6.740   6.574   6.281
15834TIP3   OH247378   6.694   6.770   6.041
15834TIP3    H147379   6.642   6.833   5.991
15834TIP3    H247380   6.784   6.782   6.010
15835TIP3   OH247381   5.955   6.293   6.496
15835TIP3    H147382   5.884   6.232   6.514
15835TIP3    H247383   5.982   6.272   6.406
15836TIP3   OH247384   6.193   5.793   6.154
15836TIP3    H147385   6.152   5.872   6.119
15836TIP3    H247386   6.127   5.724   6.140
15837TIP3   OH247387   6.323   6.253   6.356
15837TIP3    H147388   6.309   6.240   6.449
15837TIP3    H247389   6.238   6.234   6.315
15838TIP3   OH247390   6.577   6.225   6.237
15838TIP3    H147391   6.496   6.219   6.287
15838TIP3    H247392   6.645   6.194   6.297
15839TIP3   OH247393   6.810   6.173   6.383
15839TIP3    H147394   6.820   6.078   6.388
15839TIP3    H247395   6.803   6.202   6.474
15840TIP3   OH247396   5.779   6.080   6.558
15840TIP3    H147397   5.786   5.991   6.522
15840TIP3    H247398   5.819   6.073   6.645
15841TIP3   OH247399   6.258   5.762   6.419
15841TIP3    H147400   6.324   5.693   6.410
15841TIP3    H247401   6.227   5.777   6.330
15842TIP3   OH247402   6.358   5.971   6.567
15842TIP3    H147403   6.326   5.900   6.512
15842TIP3    H247404   6.287   6.036   6.568
15843TIP3   OH247405   5.615   7.229   4.669
15843TIP3    H147406   5.704   7.209   4.641
15843TIP3    H247407   5.576   7.274   4.594
15844TIP3   OH247408   5.078   6.615   4.844
15844TIP3    H147409   5.173   6.624   4.841
15844TIP3    H247410   5.061   6.530   4.804
15845TIP3   OH247411   4.985   7.195   5.306
15845TIP3    H147412   4.919   7.143   5.260
15845TIP3    H247413   5.029   7.132   5.363
15846TIP3   OH247414   5.127   7.021   5.473
15846TIP3    H147415   5.118   6.954   5.540
15846TIP3    H247416   5.178   7.090   5.515
15847TIP3   OH247417   6.859   7.432   5.280
15847TIP3    H147418   6.879   7.462   5.369
15847TIP3    H247419   6.915   7.484   5.223
15848TIP3   OH247420   6.876   7.464   5.561
15848TIP3    H147421   6.832   7.378   5.559
15848TIP3    H247422   6.948   7.453   5.623
15849TIP3   OH247423   6.947   7.161   6.136
15849TIP3    H147424   6.872   7.172   6.194
15849TIP3    H247425   6.992   7.246   6.139
15850TIP3   OH247426   6.757   6.675   4.736
15850TIP3    H147427   6.812   6.748   4.707
15850TIP3    H247428   6.803   6.640   4.813
15851TIP3   OH247429   6.882   6.539   4.944
15851TIP3    H147430   6.814   6.501   4.999
15851TIP3    H247431   6.947   6.573   5.005
15852TIP3   OH247432   6.938   6.941   5.385
15852TIP3    H147433   6.985   6.872   5.338
15852TIP3    H247434   6.937   7.015   5.326
15853TIP3   OH247435   6.743   7.216   5.578
15853TIP3    H147436   6.676   7.265   5.626
15853TIP3    H247437   6.696   7.178   5.504
15854TIP3   OH247438   6.783   6.439   4.593
15854TIP3    H147439   6.715   6.444   4.527
15854TIP3    H247440   6.772   6.519   4.645
15855TIP3   OH247441   6.652   6.016   4.536
15855TIP3    H147442   6.606   6.041   4.456
15855TIP3    H247443   6.639   5.922   4.543
15856TIP3   OH247444   6.680   6.399   5.078
15856TIP3    H147445   6.684   6.305   5.061
15856TIP3    H247446   6.662   6.405   5.172
15857TIP3   OH247447   5.298   6.453   5.859
15857TIP3    H147448   5.288   6.425   5.768
15857TIP3    H247449   5.392   6.451   5.875
15858TIP3   OH247450   6.946   6.813   5.935
15858TIP3    H147451   7.016   6.752   5.913
15858TIP3    H247452   6.932   6.863   5.855
15859TIP3   OH247453   7.135   6.605   5.932
15859TIP3    H147454   7.060   6.565   5.977
15859TIP3    H247455   7.209   6.550   5.955
15860TIP3   OH247456   6.672   6.123   4.966
15860TIP3    H147457   6.720   6.043   4.984
15860TIP3    H247458   6.710   6.156   4.885
15861TIP3   OH247459   6.827   6.286   5.493
15861TIP3    H147460   6.908   6.303   5.443
15861TIP3    H247461   6.843   6.327   5.578
15862TIP3   OH247462   6.901   6.437   5.720
15862TIP3    H147463   6.827   6.465   5.774
15862TIP3    H247464   6.930   6.517   5.676
15863TIP3   OH247465   5.514   6.135   6.497
15863TIP3    H147466   5.608   6.132   6.515
15863TIP3    H247467   5.480   6.054   6.534
15864TIP3   OH247468   7.361   6.029   6.257
15864TIP3    H147469   7.429   5.976   6.214
15864TIP3    H247470   7.322   6.079   6.186
15865TIP3   OH247471   6.788   5.881   5.034
15865TIP3    H147472   6.835   5.859   5.115
15865TIP3    H247473   6.722   5.811   5.026
15866TIP3   OH247474   5.497   5.852   5.838
15866TIP3    H147475   5.550   5.772   5.845
15866TIP3    H247476   5.560   5.921   5.818
15867TIP3   OH247477   5.275   6.120   5.905
15867TIP3    H147478   5.326   6.103   5.826
15867TIP3    H247479   5.298   6.209   5.930
15868TIP3   OH247480   7.210   6.145   6.062
15868TIP3    H147481   7.127   6.186   6.082
15868TIP3    H247482   7.188   6.071   6.005
15869TIP3   OH247483   6.896   5.718   4.656
15869TIP3    H147484   6.854   5.654   4.600
15869TIP3    H247485   6.864   5.803   4.625
15870TIP3   OH247486   5.255   5.652   5.430
15870TIP3    H147487   5.166   5.626   5.453
15870TIP3    H247488   5.246   5.694   5.344
15871TIP3   OH247489   6.425   7.353   4.928
15871TIP3    H147490   6.477   7.338   4.849
15871TIP3    H247491   6.468   7.427   4.971
15872TIP3   OH247492   5.492   5.684   6.236
15872TIP3    H147493   5.438   5.674   6.314
15872TIP3    H247494   5.436   5.732   6.174
15873TIP3   OH247495   5.514   7.142   6.302
15873TIP3    H147496   5.420   7.122   6.294
15873TIP3    H247497   5.533   7.131   6.395
15874TIP3   OH247498   5.731   7.192   5.857
15874TIP3    H147499   5.680   7.266   5.825
15874TIP3    H247500   5.815   7.199   5.812
15875TIP3   OH247501   6.121   7.418   5.995
15875TIP3    H147502   6.159   7.412   6.082
15875TIP3    H247503   6.182   7.474   5.946
15876TIP3   OH247504   6.310   7.576   5.869
15876TIP3    H147505   6.368   7.525   5.812
15876TIP3    H247506   6.369   7.630   5.921
15877TIP3   OH247507   7.122   5.902   5.949
15877TIP3    H147508   7.040   5.907   5.900
15877TIP3    H247509   7.150   5.811   5.940
15878TIP3   OH247510   5.393   7.418   5.909
15878TIP3    H147511   5.303   7.435   5.885
15878TIP3    H247512   5.415   7.488   5.971
15879TIP3   OH247513   5.621   7.422   5.753
15879TIP3    H147514   5.538   7.424   5.801
15879TIP3    H247515   5.597   7.444   5.663
15880TIP3   OH247516   6.032   7.438   5.547
15880TIP3    H147517   5.961   7.447   5.484
15880TIP3    H247518   6.041   7.526   5.585
15881TIP3   OH247519   6.294   7.373   5.601
15881TIP3    H147520   6.203   7.393   5.578
15881TIP3    H247521   6.346   7.435   5.550
15882TIP3   OH247522   6.495   7.535   5.494
15882TIP3    H147523   6.500   7.623   5.457
15882TIP3    H247524   6.524   7.478   5.424
15883TIP3   OH247525   5.296   7.205   5.613
15883TIP3    H147526   5.323   7.183   5.703
15883TIP3    H247527   5.368   7.173   5.559
15884TIP3   OH247528   5.503   7.092   5.476
15884TIP3    H147529   5.514   7.008   5.519
15884TIP3    H247530   5.589   7.134   5.480
15885TIP3   OH247531   5.772   7.176   5.505
15885TIP3    H147532   5.791   7.083   5.488
15885TIP3    H247533   5.826   7.199   5.579
15886TIP3   OH247534   6.336   5.821   5.592
15886TIP3    H147535   6.296   5.749   5.641
15886TIP3    H247536   6.404   5.780   5.539
15887TIP3   OH247537   6.827   5.770   5.513
15887TIP3    H147538   6.863   5.803   5.431
15887TIP3    H247539   6.732   5.768   5.498
15888TIP3   OH247540   6.942   5.802   5.258
15888TIP3    H147541   7.012   5.749   5.221
15888TIP3    H247542   6.975   5.892   5.254
15889TIP3   OH247543   5.568   5.525   5.590
15889TIP3    H147544   5.479   5.492   5.601
15889TIP3    H247545   5.622   5.447   5.580
15890TIP3   OH247546   5.413   5.448   5.243
15890TIP3    H147547   5.423   5.508   5.168
15890TIP3    H247548   5.355   5.495   5.303
15891TIP3   OH247549   6.056   5.563   5.486
15891TIP3    H147550   6.102   5.614   5.420
15891TIP3    H247551   6.094   5.591   5.569
15892TIP3   OH247552   6.550   5.702   5.460
15892TIP3    H147553   6.568   5.664   5.374
15892TIP3    H247554   6.554   5.627   5.520
15893TIP3   OH247555   6.598   5.681   5.039
15893TIP3    H147556   6.514   5.726   5.050
15893TIP3    H247557   6.589   5.600   5.089
15894TIP3   OH247558   5.058   7.002   5.010
15894TIP3    H147559   4.974   6.970   4.977
15894TIP3    H247560   5.068   7.089   4.972
15895TIP3   OH247561   5.490   5.586   5.007
15895TIP3    H147562   5.535   5.518   4.957
15895TIP3    H247563   5.561   5.641   5.041
15896TIP3   OH247564   5.983   5.758   5.103
15896TIP3    H147565   6.042   5.708   5.160
15896TIP3    H247566   5.996   5.849   5.130
15897TIP3   OH247567   5.870   7.154   4.599
15897TIP3    H147568   5.953   7.182   4.560
15897TIP3    H247569   5.839   7.084   4.541
15898TIP3   OH247570   6.570   7.297   4.699
15898TIP3    H147571   6.564   7.202   4.690
15898TIP3    H247572   6.527   7.331   4.620
15899TIP3   OH247573   5.800   5.809   6.473
15899TIP3    H147574   5.766   5.742   6.532
15899TIP3    H247575   5.892   5.819   6.498
15900TIP3   OH247576   6.046   5.817   6.599
15900TIP3    H147577   6.122   5.792   6.546
15900TIP3    H247578   6.039   5.748   6.665
15901TIP3   OH247579   5.178   6.998   4.651
15901TIP3    H147580   5.180   7.015   4.745
15901TIP3    H247581   5.259   6.950   4.634
15902TIP3   OH247582   6.868   5.901   6.378
15902TIP3    H147583   6.888   5.874   6.468
15902TIP3    H247584   6.952   5.897   6.332
15903TIP3   OH247585   6.790   7.440   5.882
15903TIP3    H147586   6.717   7.406   5.830
15903TIP3    H247587   6.774   7.534   5.889
15904TIP3   OH247588   8.056   6.825   4.622
15904TIP3    H147589   8.020   6.912   4.608
15904TIP3    H247590   7.987   6.765   4.595
15905TIP3   OH247591   8.077   6.793   5.042
15905TIP3    H147592   8.139   6.748   5.099
15905TIP3    H247593   8.017   6.724   5.012
15906TIP3   OH247594   7.361   6.677   5.390
15906TIP3    H147595   7.401   6.625   5.460
15906TIP3    H247596   7.434   6.705   5.336
15907TIP3   OH247597   8.322   7.115   4.693
15907TIP3    H147598   8.306   7.060   4.769
15907TIP3    H247599   8.354   7.198   4.728
15908TIP3   OH247600   7.368   7.115   5.082
15908TIP3    H147601   7.348   7.021   5.085
15908TIP3    H247602   7.462   7.119   5.068
15909TIP3   OH247603   7.028   6.314   4.858
15909TIP3    H147604   6.982   6.396   4.879
15909TIP3    H247605   6.962   6.260   4.816
15910TIP3   OH247606   7.111   6.618   5.089
15910TIP3    H147607   7.161   6.540   5.112
15910TIP3    H247608   7.175   6.679   5.053
15911TIP3   OH247609   8.010   7.529   4.745
15911TIP3    H147610   8.046   7.492   4.664
15911TIP3    H247611   8.029   7.464   4.812
15912TIP3   OH247612   7.893   7.031   5.070
15912TIP3    H147613   7.932   6.951   5.035
15912TIP3    H247614   7.968   7.088   5.089
15913TIP3   OH247615   8.896   6.360   5.073
15913TIP3    H147616   8.914   6.443   5.117
15913TIP3    H247617   8.934   6.370   4.986
15914TIP3   OH247618   8.236   6.545   5.084
15914TIP3    H147619   8.280   6.472   5.128
15914TIP3    H247620   8.216   6.512   4.997
15915TIP3   OH247621   7.632   6.179   5.037
15915TIP3    H147622   7.606   6.254   4.983
15915TIP3    H247623   7.576   6.107   5.008
15916TIP3   OH247624   8.335   6.284   4.686
15916TIP3    H147625   8.399   6.278   4.757
15916TIP3    H247626   8.383   6.322   4.613
15917TIP3   OH247627   7.253   6.395   5.176
15917TIP3    H147628   7.337   6.375   5.216
15917TIP3    H247629   7.252   6.344   5.095
15918TIP3   OH247630   7.665   6.594   4.997
15918TIP3    H147631   7.758   6.574   5.000
15918TIP3    H247632   7.624   6.515   4.963
15919TIP3   OH247633   8.958   6.577   5.235
15919TIP3    H147634   8.872   6.615   5.223
15919TIP3    H247635   8.989   6.613   5.319
15920TIP3   OH247636   7.611   6.193   5.496
15920TIP3    H147637   7.562   6.224   5.420
15920TIP3    H247638   7.553   6.210   5.571
15921TIP3   OH247639   7.903   7.032   4.522
15921TIP3    H147640   7.895   7.019   4.428
15921TIP3    H247641   7.889   7.126   4.534
15922TIP3   OH247642   7.740   6.949   5.284
15922TIP3    H147643   7.686   7.022   5.316
15922TIP3    H247644   7.787   6.986   5.209
15923TIP3   OH247645   8.497   6.300   4.909
15923TIP3    H147646   8.443   6.292   4.988
15923TIP3    H247647   8.549   6.379   4.924
15924TIP3   OH247648   7.503   6.288   5.259
15924TIP3    H147649   7.556   6.365   5.280
15924TIP3    H247650   7.549   6.246   5.187
15925TIP3   OH247651   7.587   7.167   5.378
15925TIP3    H147652   7.561   7.249   5.336
15925TIP3    H247653   7.511   7.143   5.432
15926TIP3   OH247654   6.924   6.872   4.623
15926TIP3    H147655   6.891   6.889   4.535
15926TIP3    H247656   6.945   6.958   4.658
15927TIP3   OH247657   8.362   7.367   4.858
15927TIP3    H147658   8.268   7.361   4.875
15927TIP3    H247659   8.372   7.446   4.805
15928TIP3   OH247660   8.700   6.246   5.242
15928TIP3    H147661   8.614   6.268   5.206
15928TIP3    H247662   8.763   6.278   5.177
15929TIP3   OH247663   7.952   5.879   5.235
15929TIP3    H147664   7.943   5.786   5.259
15929TIP3    H247665   7.874   5.921   5.272
15930TIP3   OH247666   8.116   7.410   4.519
15930TIP3    H147667   8.138   7.321   4.492
15930TIP3    H247668   8.195   7.461   4.499
15931TIP3   OH247669   8.194   7.159   4.445
15931TIP3    H147670   8.223   7.094   4.380
15931TIP3    H247671   8.243   7.137   4.524
15932TIP3   OH247672   8.597   7.241   5.229
15932TIP3    H147673   8.576   7.170   5.169
15932TIP3    H247674   8.583   7.321   5.177
15933TIP3   OH247675   7.886   6.660   4.473
15933TIP3    H147676   7.804   6.708   4.460
15933TIP3    H247677   7.931   6.667   4.390
15934TIP3   OH247678   7.856   6.474   4.161
15934TIP3    H147679   7.921   6.522   4.213
15934TIP3    H247680   7.907   6.407   4.116
15935TIP3   OH247681   8.770   6.930   5.087
15935TIP3    H147682   8.684   6.973   5.078
15935TIP3    H247683   8.809   6.936   5.000
15936TIP3   OH247684   8.244   6.752   4.436
15936TIP3    H147685   8.188   6.783   4.507
15936TIP3    H247686   8.327   6.731   4.478
15937TIP3   OH247687   7.470   6.730   4.840
15937TIP3    H147688   7.433   6.671   4.775
15937TIP3    H247689   7.543   6.681   4.879
15938TIP3   OH247690   7.630   7.165   4.986
15938TIP3    H147691   7.601   7.152   4.896
15938TIP3    H247692   7.716   7.123   4.990
15939TIP3   OH247693   7.579   6.733   5.221
15939TIP3    H147694   7.613   6.696   5.139
15939TIP3    H247695   7.636   6.807   5.240
15940TIP3   OH247696   8.103   7.365   4.960
15940TIP3    H147697   8.101   7.438   5.021
15940TIP3    H247698   8.109   7.287   5.016
15941TIP3   OH247699   7.794   7.323   5.485
15941TIP3    H147700   7.739   7.363   5.552
15941TIP3    H247701   7.739   7.254   5.447
15942TIP3   OH247702   8.081   6.608   4.266
15942TIP3    H147703   8.138   6.668   4.314
15942TIP3    H247704   8.112   6.614   4.175
15943TIP3   OH247705   7.497   6.803   5.691
15943TIP3    H147706   7.503   6.897   5.706
15943TIP3    H247707   7.404   6.785   5.681
15944TIP3   OH247708   7.856   7.308   4.509
15944TIP3    H147709   7.943   7.348   4.516
15944TIP3    H247710   7.802   7.375   4.466
15945TIP3   OH247711   7.554   7.413   5.624
15945TIP3    H147712   7.521   7.413   5.534
15945TIP3    H247713   7.477   7.392   5.677
15946TIP3   OH247714   8.602   5.837   4.328
15946TIP3    H147715   8.523   5.855   4.379
15946TIP3    H247716   8.608   5.910   4.267
15947TIP3   OH247717   7.345   6.571   4.641
15947TIP3    H147718   7.269   6.621   4.611
15947TIP3    H247719   7.312   6.483   4.655
15948TIP3   OH247720   8.439   7.247   3.893
15948TIP3    H147721   8.459   7.318   3.832
15948TIP3    H247722   8.515   7.189   3.889
15949TIP3   OH247723   7.142   6.985   5.574
15949TIP3    H147724   7.071   6.968   5.512
15949TIP3    H247725   7.172   6.898   5.600
15950TIP3   OH247726   6.972   7.179   5.238
15950TIP3    H147727   7.061   7.210   5.257
15950TIP3    H247728   6.916   7.254   5.257
15951TIP3   OH247729   8.862   7.624   5.335
15951TIP3    H147730   8.863   7.533   5.304
15951TIP3    H247731   8.769   7.644   5.345
15952TIP3   OH247732   7.718   7.490   4.348
15952TIP3    H147733   7.699   7.488   4.254
15952TIP3    H247734   7.693   7.578   4.375
15953TIP3   OH247735   7.148   7.363   4.725
15953TIP3    H147736   7.192   7.353   4.810
15953TIP3    H247737   7.099   7.282   4.713
15954TIP3   OH247738   8.717   6.746   5.536
15954TIP3    H147739   8.625   6.734   5.516
15954TIP3    H247740   8.749   6.658   5.556
15955TIP3   OH247741   7.358   7.159   5.539
15955TIP3    H147742   7.401   7.143   5.623
15955TIP3    H247743   7.280   7.103   5.541
15956TIP3   OH247744   7.715   5.972   5.359
15956TIP3    H147745   7.632   5.938   5.326
15956TIP3    H247746   7.692   6.054   5.402
15957TIP3   OH247747   8.247   6.085   5.557
15957TIP3    H147748   8.315   6.065   5.621
15957TIP3    H247749   8.165   6.076   5.605
15958TIP3   OH247750   8.472   6.638   5.473
15958TIP3    H147751   8.431   6.575   5.533
15958TIP3    H247752   8.401   6.696   5.447
15959TIP3   OH247753   8.160   6.580   4.001
15959TIP3    H147754   8.113   6.589   3.918
15959TIP3    H247755   8.241   6.630   3.988
15960TIP3   OH247756   7.865   5.998   4.325
15960TIP3    H147757   7.830   6.006   4.413
15960TIP3    H247758   7.818   5.925   4.286
15961TIP3   OH247759   7.647   6.502   5.357
15961TIP3    H147760   7.603   6.508   5.442
15961TIP3    H247761   7.626   6.584   5.312
15962TIP3   OH247762   7.522   6.383   4.890
15962TIP3    H147763   7.433   6.355   4.913
15962TIP3    H247764   7.533   6.353   4.800
15963TIP3   OH247765   8.012   6.457   4.607
15963TIP3    H147766   7.964   6.530   4.568
15963TIP3    H247767   8.069   6.426   4.537
15964TIP3   OH247768   8.228   6.780   5.763
15964TIP3    H147769   8.206   6.688   5.776
15964TIP3    H247770   8.238   6.788   5.668
15965TIP3   OH247771   8.174   6.463   4.832
15965TIP3    H147772   8.110   6.484   4.764
15965TIP3    H247773   8.227   6.393   4.794
15966TIP3   OH247774   7.497   6.524   5.585
15966TIP3    H147775   7.501   6.590   5.654
15966TIP3    H247776   7.474   6.443   5.631
15967TIP3   OH247777   7.540   6.002   4.309
15967TIP3    H147778   7.532   6.013   4.404
15967TIP3    H247779   7.463   6.045   4.273
15968TIP3   OH247780   7.058   6.040   5.207
15968TIP3    H147781   7.141   6.077   5.238
15968TIP3    H247782   7.071   6.029   5.113
15969TIP3   OH247783   7.021   6.031   4.681
15969TIP3    H147784   7.057   6.063   4.598
15969TIP3    H247785   6.940   6.080   4.693
15970TIP3   OH247786   7.899   6.167   4.931
15970TIP3    H147787   7.819   6.169   4.983
15970TIP3    H247788   7.970   6.165   4.995
15971TIP3   OH247789   7.283   6.255   4.944
15971TIP3    H147790   7.196   6.263   4.906
15971TIP3    H247791   7.306   6.163   4.930
15972TIP3   OH247792   7.549   6.266   4.644
15972TIP3    H147793   7.644   6.278   4.633
15972TIP3    H247794   7.513   6.284   4.557
15973TIP3   OH247795   8.342   6.282   5.140
15973TIP3    H147796   8.344   6.290   5.236
15973TIP3    H247797   8.269   6.223   5.123
15974TIP3   OH247798   7.442   6.286   4.395
15974TIP3    H147799   7.375   6.240   4.344
15974TIP3    H247800   7.493   6.334   4.329
15975TIP3   OH247801   8.539   7.957   5.357
15975TIP3    H147802   8.527   7.978   5.265
15975TIP3    H247803   8.615   8.008   5.383
15976TIP3   OH247804   7.484   7.070   5.779
15976TIP3    H147805   7.565   7.095   5.825
15976TIP3    H247806   7.415   7.085   5.843
15977TIP3   OH247807   7.933   6.527   5.032
15977TIP3    H147808   8.005   6.491   4.980
15977TIP3    H247809   7.950   6.497   5.121
15978TIP3   OH247810   7.438   6.006   4.929
15978TIP3    H147811   7.407   5.933   4.982
15978TIP3    H247812   7.440   5.972   4.840
15979TIP3   OH247813   7.918   6.466   5.329
15979TIP3    H147814   7.823   6.478   5.331
15979TIP3    H247815   7.953   6.551   5.356
15980TIP3   OH247816   7.650   6.797   4.422
15980TIP3    H147817   7.573   6.745   4.397
15980TIP3    H247818   7.623   6.842   4.502
15981TIP3   OH247819   8.530   7.057   5.038
15981TIP3    H147820   8.570   7.105   4.966
15981TIP3    H247821   8.451   7.018   5.000
15982TIP3   OH247822   8.117   6.111   4.334
15982TIP3    H147823   8.023   6.090   4.328
15982TIP3    H247824   8.119   6.207   4.342
15983TIP3   OH247825   8.065   7.203   5.475
15983TIP3    H147826   8.045   7.109   5.466
15983TIP3    H247827   8.158   7.210   5.454
15984TIP3   OH247828   8.177   6.378   4.394
15984TIP3    H147829   8.272   6.386   4.406
15984TIP3    H247830   8.153   6.456   4.343
15985TIP3   OH247831   7.353   6.830   5.070
15985TIP3    H147832   7.386   6.805   4.983
15985TIP3    H247833   7.419   6.796   5.131
15986TIP3   OH247834   7.798   6.958   4.257
15986TIP3    H147835   7.754   7.043   4.257
15986TIP3    H247836   7.745   6.904   4.316
15987TIP3   OH247837   7.222   6.744   5.704
15987TIP3    H147838   7.220   6.715   5.795
15987TIP3    H247839   7.147   6.702   5.663
15988TIP3   OH247840   7.959   6.884   5.755
15988TIP3    H147841   7.895   6.822   5.719
15988TIP3    H247842   8.043   6.852   5.722
15989TIP3   OH247843   8.133   7.449   5.332
15989TIP3    H147844   8.129   7.509   5.257
15989TIP3    H247845   8.187   7.494   5.396
15990TIP3   OH247846   8.590   6.467   4.210
15990TIP3    H147847   8.534   6.421   4.147
15990TIP3    H247848   8.596   6.557   4.177
15991TIP3   OH247849   8.861   7.346   5.279
15991TIP3    H147850   8.768   7.328   5.264
15991TIP3    H247851   8.906   7.268   5.247
15992TIP3   OH247852   8.302   6.927   4.927
15992TIP3    H147853   8.217   6.891   4.953
15992TIP3    H247854   8.347   6.855   4.883
15993TIP3   OH247855   7.480   7.162   4.749
15993TIP3    H147856   7.480   7.236   4.688
15993TIP3    H247857   7.388   7.152   4.773
15994TIP3   OH247858   7.025   6.441   4.455
15994TIP3    H147859   7.066   6.524   4.477
15994TIP3    H247860   6.944   6.439   4.507
15995TIP3   OH247861   7.541   6.914   4.640
15995TIP3    H147862   7.535   7.004   4.673
15995TIP3    H247863   7.516   6.859   4.715
15996TIP3   OH247864   7.393   7.379   4.594
15996TIP3    H147865   7.303   7.389   4.627
15996TIP3    H247866   7.428   7.468   4.592
15997TIP3   OH247867   8.149   7.139   5.124
15997TIP3    H147868   8.198   7.148   5.205
15997TIP3    H247869   8.198   7.073   5.074
15998TIP3   OH247870   8.092   7.036   4.036
15998TIP3    H147871   8.136   7.014   4.119
15998TIP3    H247872   8.010   6.987   4.039
15999TIP3   OH247873   8.373   7.636   5.196
15999TIP3    H147874   8.282   7.619   5.171
15999TIP3    H247875   8.400   7.707   5.138
16000TIP3   OH247876   8.387   7.512   3.856
16000TIP3    H147877   8.442   7.563   3.796
16000TIP3    H247878   8.313   7.570   3.875
16001TIP3   OH247879   7.433   6.270   5.699
16001TIP3    H147880   7.338   6.282   5.700
16001TIP3    H247881   7.451   6.210   5.772
16002TIP3   OH247882   8.264   6.954   4.248
16002TIP3    H147883   8.251   6.885   4.313
16002TIP3    H247884   8.358   6.956   4.233
16003TIP3   OH247885   7.183   7.381   5.351
16003TIP3    H147886   7.244   7.325   5.399
16003TIP3    H247887   7.197   7.468   5.388
16004TIP3   OH247888   7.466   6.996   4.046
16004TIP3    H147889   7.473   6.905   4.019
16004TIP3    H247890   7.448   6.992   4.140
16005TIP3   OH247891   7.395   7.000   4.317
16005TIP3    H147892   7.456   6.974   4.386
16005TIP3    H247893   7.391   7.095   4.324
16006TIP3   OH247894   7.120   6.694   4.533
16006TIP3    H147895   7.056   6.744   4.583
16006TIP3    H247896   7.141   6.750   4.459
16007TIP3   OH247897   8.341   6.302   5.414
16007TIP3    H147898   8.347   6.367   5.484
16007TIP3    H247899   8.305   6.225   5.456
16008TIP3   OH247900   8.188   6.064   4.599
16008TIP3    H147901   8.162   6.084   4.509
16008TIP3    H247902   8.229   6.144   4.630
16009TIP3   OH247903   7.666   7.196   4.268
16009TIP3    H147904   7.575   7.218   4.290
16009TIP3    H247905   7.716   7.273   4.292
16010TIP3   OH247906   7.828   6.266   4.680
16010TIP3    H147907   7.889   6.335   4.654
16010TIP3    H247908   7.852   6.246   4.770
16011TIP3   OH247909   7.996   5.960   4.770
16011TIP3    H147910   7.970   6.036   4.822
16011TIP3    H247911   8.067   5.991   4.715
16012TIP3   OH247912   7.409   7.270   4.341
16012TIP3    H147913   7.387   7.340   4.280
16012TIP3    H247914   7.404   7.311   4.427
16013TIP3   OH247915   7.508   5.994   4.589
16013TIP3    H147916   7.496   6.084   4.618
16013TIP3    H247917   7.602   5.978   4.597
16014TIP3   OH247918   8.715   6.465   5.460
16014TIP3    H147919   8.630   6.509   5.458
16014TIP3    H247920   8.710   6.401   5.388
16015TIP3   OH247921   8.404   6.667   4.836
16015TIP3    H147922   8.326   6.616   4.857
16015TIP3    H247923   8.473   6.628   4.890
16016TIP3   OH247924   7.150   6.867   4.315
16016TIP3    H147925   7.221   6.931   4.321
16016TIP3    H247926   7.180   6.805   4.248
16017TIP3   OH247927   7.057   6.164   4.442
16017TIP3    H147928   7.056   6.259   4.445
16017TIP3    H247929   6.987   6.140   4.382
16018TIP3   OH247930   8.389   7.631   4.771
16018TIP3    H147931   8.337   7.662   4.697
16018TIP3    H247932   8.480   7.644   4.744
16019TIP3   OH247933   7.455   5.883   5.315
16019TIP3    H147934   7.425   5.853   5.229
16019TIP3    H247935   7.445   5.807   5.372
16020TIP3   OH247936   6.970   7.142   4.704
16020TIP3    H147937   6.929   7.179   4.782
16020TIP3    H247938   6.925   7.184   4.631
16021TIP3   OH247939   7.174   7.671   5.776
16021TIP3    H147940   7.257   7.668   5.824
16021TIP3    H247941   7.146   7.580   5.771
16022TIP3   OH247942   7.645   7.587   5.816
16022TIP3    H147943   7.735   7.559   5.832
16022TIP3    H247944   7.613   7.529   5.748
16023TIP3   OH247945   7.626   7.205   3.941
16023TIP3    H147946   7.580   7.137   3.991
16023TIP3    H247947   7.699   7.159   3.900
16024TIP3   OH247948   8.251   7.518   5.575
16024TIP3    H147949   8.270   7.449   5.638
16024TIP3    H247950   8.323   7.580   5.584
16025TIP3   OH247951   8.148   7.276   3.911
16025TIP3    H147952   8.111   7.202   3.958
16025TIP3    H247953   8.124   7.260   3.819
16026TIP3   OH247954   7.279   7.080   5.969
16026TIP3    H147955   7.290   6.985   5.980
16026TIP3    H247956   7.195   7.089   5.924
16027TIP3   OH247957   7.272   6.679   4.157
16027TIP3    H147958   7.322   6.656   4.236
16027TIP3    H247959   7.339   6.698   4.091
16028TIP3   OH247960   7.908   7.156   5.738
16028TIP3    H147961   7.944   7.180   5.652
16028TIP3    H247962   7.931   7.064   5.749
16029TIP3   OH247963   7.852   6.897   3.998
16029TIP3    H147964   7.823   6.910   4.088
16029TIP3    H247965   7.827   6.807   3.978
16030TIP3   OH247966   8.315   7.224   5.338
16030TIP3    H147967   8.409   7.218   5.326
16030TIP3    H247968   8.294   7.316   5.320
16031TIP3   OH247969   7.395   6.821   5.980
16031TIP3    H147970   7.466   6.812   5.916
16031TIP3    H247971   7.439   6.846   6.061
16032TIP3   OH247972   7.440   6.622   4.374
16032TIP3    H147973   7.418   6.592   4.462
16032TIP3    H247974   7.490   6.550   4.335
16033TIP3   OH247975   7.768   6.710   5.638
16033TIP3    H147976   7.680   6.747   5.638
16033TIP3    H247977   7.802   6.729   5.550
16034TIP3   OH247978   7.587   6.440   4.221
16034TIP3    H147979   7.555   6.446   4.130
16034TIP3    H247980   7.682   6.452   4.214
16035TIP3   OH247981   8.283   7.070   5.737
16035TIP3    H147982   8.347   7.058   5.667
16035TIP3    H247983   8.247   6.982   5.751
16036TIP3   OH247984   8.371   6.732   3.904
16036TIP3    H147985   8.358   6.696   3.816
16036TIP3    H247986   8.354   6.825   3.896
16037TIP3   OH247987   7.874   6.478   5.740
16037TIP3    H147988   7.872   6.406   5.677
16037TIP3    H247989   7.838   6.553   5.692
16038TIP3   OH247990   7.870   6.278   5.542
16038TIP3    H147991   7.900   6.324   5.463
16038TIP3    H247992   7.780   6.252   5.521
16039TIP3   OH247993   7.921   6.757   5.411
16039TIP3    H147994   8.013   6.782   5.419
16039TIP3    H247995   7.881   6.827   5.359
16040TIP3   OH247996   8.552   6.756   5.872
16040TIP3    H147997   8.531   6.716   5.787
16040TIP3    H247998   8.587   6.842   5.850
16041TIP3   OH247999   8.488   7.006   5.558
16041TIP3    H148000   8.420   6.962   5.508
16041TIP3    H248001   8.562   7.014   5.497
16042TIP3   OH248002   7.746   6.549   5.982
16042TIP3    H148003   7.675   6.486   5.997
16042TIP3    H248004   7.773   6.534   5.891
16043TIP3   OH248005   7.986   6.047   5.649
16043TIP3    H148006   7.947   6.127   5.613
16043TIP3    H248007   7.921   5.979   5.632
16044TIP3   OH248008   8.141   6.520   5.822
16044TIP3    H148009   8.123   6.506   5.914
16044TIP3    H248010   8.058   6.502   5.778
16045TIP3   OH248011   8.372   6.460   5.659
16045TIP3    H148012   8.297   6.470   5.718
16045TIP3    H248013   8.445   6.438   5.716
16046TIP3   OH248014   8.600   6.413   5.823
16046TIP3    H148015   8.615   6.319   5.836
16046TIP3    H248016   8.594   6.448   5.911
16047TIP3   OH248017   7.573   6.334   6.041
16047TIP3    H148018   7.579   6.247   6.002
16047TIP3    H248019   7.611   6.324   6.128
16048TIP3   OH248020   8.059   6.023   5.911
16048TIP3    H148021   8.126   5.955   5.903
16048TIP3    H248022   8.027   6.037   5.822
16049TIP3   OH248023   8.158   6.235   6.060
16049TIP3    H148024   8.130   6.163   6.003
16049TIP3    H248025   8.094   6.305   6.044
16050TIP3   OH248026   7.394   7.473   4.156
16050TIP3    H148027   7.488   7.465   4.140
16050TIP3    H248028   7.360   7.520   4.080
16051TIP3   OH248029   6.876   6.873   4.333
16051TIP3    H148030   6.971   6.882   4.329
16051TIP3    H248031   6.858   6.788   4.291
16052TIP3   OH248032   6.776   7.449   4.795
16052TIP3    H148033   6.712   7.396   4.748
16052TIP3    H248034   6.822   7.387   4.852
16053TIP3   OH248035   6.921   7.278   4.959
16053TIP3    H148036   6.912   7.209   5.025
16053TIP3    H248037   6.973   7.345   5.002
16054TIP3   OH248038   8.664   7.697   4.747
16054TIP3    H148039   8.664   7.783   4.789
16054TIP3    H248040   8.729   7.705   4.676
16055TIP3   OH248041   8.630   7.726   5.058
16055TIP3    H148042   8.612   7.635   5.034
16055TIP3    H248043   8.724   7.736   5.043
16056TIP3   OH248044   8.742   7.417   5.647
16056TIP3    H148045   8.664   7.433   5.700
16056TIP3    H248046   8.779   7.505   5.633
16057TIP3   OH248047   8.545   6.930   4.232
16057TIP3    H148048   8.600   7.003   4.202
16057TIP3    H248049   8.592   6.893   4.306
16058TIP3   OH248050   8.684   6.788   4.429
16058TIP3    H148051   8.615   6.759   4.488
16058TIP3    H248052   8.747   6.832   4.485
16059TIP3   OH248053   8.694   7.182   4.860
16059TIP3    H148054   8.765   7.127   4.827
16059TIP3    H248055   8.710   7.268   4.823
16060TIP3   OH248056   8.532   7.451   5.066
16060TIP3    H148057   8.468   7.509   5.105
16060TIP3    H248058   8.489   7.416   4.988
16061TIP3   OH248059   8.586   6.708   4.075
16061TIP3    H148060   8.514   6.709   4.013
16061TIP3    H248061   8.571   6.785   4.130
16062TIP3   OH248062   8.438   6.354   4.013
16062TIP3    H148063   8.386   6.392   3.942
16062TIP3    H248064   8.430   6.259   4.000
16063TIP3   OH248065   8.475   6.661   4.568
16063TIP3    H148066   8.478   6.566   4.555
16063TIP3    H248067   8.454   6.672   4.661
16064TIP3   OH248068   7.095   6.705   5.347
16064TIP3    H148069   7.084   6.679   5.256
16064TIP3    H248070   7.189   6.706   5.361
16065TIP3   OH248071   8.728   7.080   5.414
16065TIP3    H148072   8.807   7.058   5.364
16065TIP3    H248073   8.680   7.141   5.358
16066TIP3   OH248074   8.956   6.874   5.524
16066TIP3    H148075   8.864   6.852   5.516
16066TIP3    H248076   9.003   6.793   5.501
16067TIP3   OH248077   8.399   6.082   3.983
16067TIP3    H148078   8.461   6.060   4.052
16067TIP3    H248079   8.315   6.047   4.014
16068TIP3   OH248080   8.469   6.379   4.453
16068TIP3    H148081   8.514   6.295   4.463
16068TIP3    H248082   8.508   6.418   4.375
16069TIP3   OH248083   8.622   6.544   4.970
16069TIP3    H148084   8.698   6.570   4.918
16069TIP3    H248085   8.639   6.580   5.057
16070TIP3   OH248086   8.705   6.686   5.199
16070TIP3    H148087   8.640   6.707   5.266
16070TIP3    H248088   8.729   6.770   5.161
16071TIP3   OH248089   7.308   6.394   5.982
16071TIP3    H148090   7.402   6.390   5.998
16071TIP3    H248091   7.274   6.313   6.020
16072TIP3   OH248092   9.143   6.295   5.735
16072TIP3    H148093   9.204   6.237   5.690
16072TIP3    H248094   9.099   6.343   5.665
16073TIP3   OH248095   8.584   6.129   4.503
16073TIP3    H148096   8.632   6.114   4.584
16073TIP3    H248097   8.522   6.056   4.498
16074TIP3   OH248098   7.295   6.110   5.338
16074TIP3    H148099   7.347   6.030   5.338
16074TIP3    H248100   7.357   6.178   5.311
16075TIP3   OH248101   7.070   6.380   5.393
16075TIP3    H148102   7.122   6.361   5.315
16075TIP3    H248103   7.085   6.473   5.411
16076TIP3   OH248104   8.979   6.399   5.540
16076TIP3    H148105   8.892   6.439   5.545
16076TIP3    H248106   8.966   6.319   5.489
16077TIP3   OH248107   8.619   6.041   4.145
16077TIP3    H148108   8.665   5.981   4.086
16077TIP3    H248109   8.677   6.118   4.150
16078TIP3   OH248110   7.054   5.956   4.943
16078TIP3    H148111   6.967   5.916   4.954
16078TIP3    H248112   7.061   5.974   4.849
16079TIP3   OH248113   7.290   5.939   5.722
16079TIP3    H148114   7.236   5.933   5.801
16079TIP3    H248115   7.237   5.988   5.660
16080TIP3   OH248116   7.332   7.384   5.798
16080TIP3    H148117   7.238   7.378   5.781
16080TIP3    H248118   7.339   7.381   5.893
16081TIP3   OH248119   7.538   7.441   5.341
16081TIP3    H148120   7.482   7.506   5.298
16081TIP3    H248121   7.626   7.478   5.335
16082TIP3   OH248122   7.937   7.581   5.477
16082TIP3    H148123   7.955   7.607   5.568
16082TIP3    H248124   7.976   7.650   5.424
16083TIP3   OH248125   8.089   7.792   5.363
16083TIP3    H148126   8.137   7.785   5.280
16083TIP3    H248127   8.146   7.842   5.420
16084TIP3   OH248128   8.914   6.151   5.435
16084TIP3    H148129   8.829   6.149   5.390
16084TIP3    H248130   8.946   6.061   5.430
16085TIP3   OH248131   7.193   7.676   5.394
16085TIP3    H148132   7.103   7.693   5.369
16085TIP3    H248133   7.215   7.744   5.457
16086TIP3   OH248134   7.422   7.667   5.237
16086TIP3    H148135   7.339   7.673   5.285
16086TIP3    H248136   7.399   7.695   5.148
16087TIP3   OH248137   7.847   7.670   5.042
16087TIP3    H148138   7.810   7.679   4.954
16087TIP3    H248139   7.849   7.760   5.076
16088TIP3   OH248140   8.109   7.612   5.104
16088TIP3    H148141   8.016   7.625   5.085
16088TIP3    H248142   8.154   7.670   5.043
16089TIP3   OH248143   8.283   7.784   4.971
16089TIP3    H148144   8.286   7.873   4.937
16089TIP3    H248145   8.314   7.730   4.898
16090TIP3   OH248146   7.092   7.459   5.101
16090TIP3    H148147   7.120   7.437   5.189
16090TIP3    H248148   7.162   7.428   5.044
16091TIP3   OH248149   7.296   7.349   4.960
16091TIP3    H148150   7.313   7.266   5.006
16091TIP3    H248151   7.382   7.392   4.958
16092TIP3   OH248152   7.565   7.440   4.979
16092TIP3    H148153   7.589   7.348   4.975
16092TIP3    H248154   7.637   7.481   5.028
16093TIP3   OH248155   8.127   6.090   5.082
16093TIP3    H148156   8.087   6.019   5.132
16093TIP3    H248157   8.195   6.048   5.030
16094TIP3   OH248158   8.638   6.003   4.944
16094TIP3    H148159   8.682   6.050   4.873
16094TIP3    H248160   8.554   6.048   4.955
16095TIP3   OH248161   8.765   6.074   4.706
16095TIP3    H148162   8.831   6.017   4.665
16095TIP3    H248163   8.801   6.163   4.696
16096TIP3   OH248164   7.364   5.781   5.076
16096TIP3    H148165   7.274   5.750   5.082
16096TIP3    H248166   7.416   5.701   5.065
16097TIP3   OH248167   7.170   5.677   4.673
16097TIP3    H148168   7.201   5.752   4.622
16097TIP3    H248169   7.075   5.687   4.675
16098TIP3   OH248170   7.858   5.812   4.971
16098TIP3    H148171   7.903   5.864   4.904
16098TIP3    H248172   7.894   5.845   5.054
16099TIP3   OH248173   8.333   5.961   4.951
16099TIP3    H148174   8.356   5.927   4.864
16099TIP3    H248175   8.345   5.887   5.010
16100TIP3   OH248176   8.406   5.913   4.511
16100TIP3    H148177   8.328   5.963   4.535
16100TIP3    H248178   8.392   5.827   4.550
16101TIP3   OH248179   6.849   7.265   4.490
16101TIP3    H148180   6.766   7.236   4.450
16101TIP3    H248181   6.860   7.355   4.459
16102TIP3   OH248182   7.297   5.842   4.483
16102TIP3    H148183   7.345   5.778   4.432
16102TIP3    H248184   7.365   5.895   4.525
16103TIP3   OH248185   7.785   6.011   4.589
16103TIP3    H148186   7.845   5.965   4.647
16103TIP3    H248187   7.795   6.104   4.612
16104TIP3   OH248188   7.657   7.447   4.079
16104TIP3    H148189   7.681   7.503   4.005
16104TIP3    H248190   7.650   7.359   4.041
16105TIP3   OH248191   8.316   7.470   4.139
16105TIP3    H148192   8.340   7.457   4.231
16105TIP3    H248193   8.286   7.560   4.135
16106TIP3   OH248194   7.596   6.064   5.957
16106TIP3    H148195   7.562   5.998   6.017
16106TIP3    H248196   7.688   6.073   5.980
16107TIP3   OH248197   7.842   6.071   6.082
16107TIP3    H148198   7.919   6.053   6.029
16107TIP3    H248199   7.838   5.999   6.145
16108TIP3   OH248200   6.973   7.257   4.136
16108TIP3    H148201   6.975   7.273   4.230
16108TIP3    H248202   7.054   7.209   4.118
16109TIP3   OH248203   8.664   6.147   5.865
16109TIP3    H148204   8.684   6.123   5.955
16109TIP3    H248205   8.748   6.143   5.820
16110TIP3   OH248206   8.592   7.685   5.376
16110TIP3    H148207   8.525   7.652   5.316
16110TIP3    H248208   8.580   7.780   5.375
16111TIP3   OH248209   9.801   7.136   4.149
16111TIP3    H148210   9.806   7.219   4.103
16111TIP3    H248211   9.725   7.092   4.112
16112TIP3   OH248212   9.791   7.080   4.511
16112TIP3    H148213   9.834   7.104   4.594
16112TIP3    H248214   9.751   6.995   4.528
16113TIP3   OH248215   9.142   7.010   4.886
16113TIP3    H148216   9.204   6.944   4.916
16113TIP3    H248217   9.189   7.093   4.894
16114TIP3   OH248218   9.124   7.353   4.590
16114TIP3    H148219   9.098   7.261   4.587
16114TIP3    H248220   9.219   7.350   4.606
16115TIP3   OH248221   8.814   6.546   4.370
16115TIP3    H148222   8.783   6.634   4.390
16115TIP3    H248223   8.744   6.507   4.317
16116TIP3   OH248224   8.905   6.883   4.573
16116TIP3    H148225   8.957   6.806   4.595
16116TIP3    H248226   8.969   6.951   4.556
16117TIP3   OH248227   9.759   7.852   4.253
16117TIP3    H148228   9.741   7.759   4.241
16117TIP3    H248229   9.714   7.875   4.335
16118TIP3   OH248230   9.641   7.314   4.517
16118TIP3    H148231   9.675   7.230   4.486
16118TIP3    H248232   9.717   7.358   4.555
16119TIP3   OH248233   0.271   6.932   4.528
16119TIP3    H148234   0.318   6.862   4.574
16119TIP3    H248235   0.205   6.886   4.476
16120TIP3   OH248236   9.384   6.447   4.553
16120TIP3    H148237   9.365   6.517   4.490
16120TIP3    H248238   9.341   6.370   4.517
16121TIP3   OH248239   0.322   6.439   4.168
16121TIP3    H148240   0.370   6.398   4.240
16121TIP3    H248241   0.346   6.531   4.173
16122TIP3   OH248242   9.041   6.655   4.658
16122TIP3    H148243   9.120   6.635   4.709
16122TIP3    H248244   9.051   6.605   4.578
16123TIP3   OH248245   9.469   6.853   4.449
16123TIP3    H148246   9.556   6.832   4.481
16123TIP3    H248247   9.431   6.769   4.425
16124TIP3   OH248248   9.402   6.451   5.002
16124TIP3    H148249   9.353   6.484   4.926
16124TIP3    H248250   9.348   6.476   5.078
16125TIP3   OH248251   9.778   7.334   3.943
16125TIP3    H148252   9.720   7.296   3.876
16125TIP3    H248253   9.729   7.409   3.977
16126TIP3   OH248254   9.531   7.191   4.748
16126TIP3    H148255   9.468   7.229   4.810
16126TIP3    H248256   9.543   7.259   4.682
16127TIP3   OH248257   9.271   6.550   4.777
16127TIP3    H148258   9.326   6.626   4.796
16127TIP3    H248259   9.315   6.507   4.703
16128TIP3   OH248260   8.717   7.117   4.118
16128TIP3    H148261   8.690   7.134   4.028
16128TIP3    H248262   8.742   7.203   4.153
16129TIP3   OH248263   0.087   7.686   3.975
16129TIP3    H148264   0.167   7.648   4.011
16129TIP3    H248265   0.095   7.780   3.995
16130TIP3   OH248266   9.659   6.979   3.967
16130TIP3    H148267   9.575   7.011   3.932
16130TIP3    H248268   9.725   7.017   3.909
16131TIP3   OH248269   9.614   6.723   3.653
16131TIP3    H148270   9.653   6.720   3.741
16131TIP3    H248271   9.673   6.673   3.598
16132TIP3   OH248272   9.257   6.990   4.336
16132TIP3    H148273   9.221   6.932   4.269
16132TIP3    H248274   9.336   6.944   4.366
16133TIP3   OH248275   9.397   7.427   4.465
16133TIP3    H148276   9.370   7.407   4.376
16133TIP3    H248277   9.484   7.389   4.474
16134TIP3   OH248278   9.382   6.970   4.683
16134TIP3    H148279   9.414   6.943   4.597
16134TIP3    H248280   9.434   7.047   4.704
16135TIP3   OH248281   0.075   7.659   4.525
16135TIP3    H148282   0.131   7.632   4.453
16135TIP3    H248283   0.042   7.578   4.563
16136TIP3   OH248284   9.519   7.500   5.007
16136TIP3    H148285   9.463   7.568   5.045
16136TIP3    H248286   9.459   7.428   4.986
16137TIP3   OH248287   0.144   6.836   3.761
16137TIP3    H148288   0.151   6.913   3.818
16137TIP3    H248289   0.111   6.870   3.678
16138TIP3   OH248290   9.230   7.056   5.197
16138TIP3    H148291   9.258   7.123   5.259
16138TIP3    H248292   9.243   7.097   5.111
16139TIP3   OH248293   9.643   7.563   4.014
16139TIP3    H148294   9.724   7.613   4.006
16139TIP3    H248295   9.578   7.613   3.965
16140TIP3   OH248296   9.354   7.693   5.122
16140TIP3    H148297   9.326   7.708   5.032
16140TIP3    H248298   9.274   7.662   5.166
16141TIP3   OH248299   9.138   6.831   4.133
16141TIP3    H148300   9.062   6.882   4.102
16141TIP3    H248301   9.102   6.744   4.151
16142TIP3   OH248302   8.772   7.436   4.763
16142TIP3    H148303   8.859   7.474   4.780
16142TIP3    H248304   8.713   7.511   4.766
16143TIP3   OH248305   9.734   7.622   4.878
16143TIP3    H148306   9.735   7.712   4.909
16143TIP3    H248307   9.657   7.583   4.919
16144TIP3   OH248308   9.514   7.765   3.838
16144TIP3    H148309   9.465   7.748   3.757
16144TIP3    H248310   9.475   7.845   3.873
16145TIP3   OH248311   8.931   7.616   4.220
16145TIP3    H148312   8.978   7.607   4.302
16145TIP3    H248313   8.885   7.533   4.209
16146TIP3   OH248314   9.731   7.705   3.464
16146TIP3    H148315   9.814   7.662   3.445
16146TIP3    H248316   9.731   7.719   3.558
16147TIP3   OH248317   9.762   7.706   3.733
16147TIP3    H148318   9.676   7.728   3.769
16147TIP3    H248319   9.817   7.692   3.811
16148TIP3   OH248320   9.494   6.221   4.884
16148TIP3    H148321   9.412   6.197   4.841
16148TIP3    H248322   9.477   6.308   4.921
16149TIP3   OH248323   0.365   6.319   5.037
16149TIP3    H148324   0.301   6.301   5.107
16149TIP3    H248325   0.335   6.265   4.964
16150TIP3   OH248326   9.629   6.193   3.833
16150TIP3    H148327   9.625   6.224   3.924
16150TIP3    H248328   9.549   6.143   3.821
16151TIP3   OH248329   9.433   6.757   4.846
16151TIP3    H148330   9.395   6.778   4.931
16151TIP3    H248331   9.417   6.835   4.792
16152TIP3   OH248332   9.313   6.637   4.371
16152TIP3    H148333   9.223   6.618   4.397
16152TIP3    H248334   9.321   6.602   4.283
16153TIP3   OH248335   9.741   6.791   4.148
16153TIP3    H148336   9.688   6.857   4.104
16153TIP3    H248337   9.817   6.778   4.091
16154TIP3   OH248338   0.174   7.041   5.166
16154TIP3    H148339   0.151   6.968   5.224
16154TIP3    H248340   0.222   7.001   5.094
16155TIP3   OH248341   0.092   6.776   4.387
16155TIP3    H148342   0.043   6.817   4.315
16155TIP3    H248343   0.103   6.685   4.359
16156TIP3   OH248344   9.284   6.807   5.070
16156TIP3    H148345   9.265   6.880   5.130
16156TIP3    H248346   9.268   6.728   5.122
16157TIP3   OH248347   9.311   6.270   3.791
16157TIP3    H148348   9.304   6.277   3.886
16157TIP3    H248349   9.233   6.315   3.758
16158TIP3   OH248350   8.881   6.313   4.654
16158TIP3    H148351   8.942   6.343   4.721
16158TIP3    H248352   8.876   6.386   4.592
16159TIP3   OH248353   8.780   6.269   4.161
16159TIP3    H148354   8.826   6.307   4.085
16159TIP3    H248355   8.717   6.335   4.186
16160TIP3   OH248356   0.164   7.088   4.740
16160TIP3    H148357   0.224   7.081   4.666
16160TIP3    H248358   0.151   6.998   4.769
16161TIP3   OH248359   9.635   6.519   4.464
16161TIP3    H148360   9.557   6.490   4.511
16161TIP3    H248361   9.703   6.457   4.489
16162TIP3   OH248362   9.079   6.507   4.432
16162TIP3    H148363   8.990   6.508   4.396
16162TIP3    H248364   9.111   6.418   4.414
16163TIP3   OH248365   9.319   6.516   4.127
16163TIP3    H148366   9.411   6.538   4.113
16163TIP3    H248367   9.277   6.535   4.043
16164TIP3   OH248368   0.097   6.534   4.692
16164TIP3    H148369   0.160   6.537   4.764
16164TIP3    H248370   0.015   6.563   4.730
16165TIP3   OH248371   9.198   6.544   3.885
16165TIP3    H148372   9.132   6.498   3.834
16165TIP3    H248373   9.250   6.592   3.820
16166TIP3   OH248374   9.287   7.297   5.319
16166TIP3    H148375   9.362   7.338   5.361
16166TIP3    H248376   9.291   7.326   5.228
16167TIP3   OH248377   9.714   6.820   4.588
16167TIP3    H148378   9.770   6.778   4.523
16167TIP3    H248379   9.696   6.752   4.652
16168TIP3   OH248380   9.229   6.265   4.411
16168TIP3    H148381   9.205   6.191   4.467
16168TIP3    H248382   9.278   6.226   4.339
16169TIP3   OH248383   9.688   6.662   4.815
16169TIP3    H148384   9.595   6.683   4.821
16169TIP3    H248385   9.720   6.668   4.905
16170TIP3   OH248386   9.408   7.083   3.899
16170TIP3    H148387   9.340   7.018   3.882
16170TIP3    H248388   9.390   7.113   3.988
16171TIP3   OH248389   0.206   6.448   3.748
16171TIP3    H148390   0.118   6.424   3.775
16171TIP3    H248391   0.241   6.500   3.821
16172TIP3   OH248392   0.096   7.396   4.918
16172TIP3    H148393   0.081   7.376   5.011
16172TIP3    H248394   0.048   7.478   4.904
16173TIP3   OH248395   0.251   6.641   3.936
16173TIP3    H148396   0.301   6.665   4.013
16173TIP3    H248397   0.247   6.721   3.884
16174TIP3   OH248398   9.123   7.060   4.569
16174TIP3    H148399   9.168   7.046   4.485
16174TIP3    H248400   9.186   7.032   4.635
16175TIP3   OH248401   9.593   7.226   3.760
16175TIP3    H148402   9.553   7.312   3.750
16175TIP3    H248403   9.525   7.173   3.804
16176TIP3   OH248404   8.951   7.080   5.237
16176TIP3    H148405   9.043   7.065   5.212
16176TIP3    H248406   8.901   7.024   5.178
16177TIP3   OH248407   9.728   7.152   5.225
16177TIP3    H148408   9.658   7.097   5.190
16177TIP3    H248409   9.809   7.114   5.190
16178TIP3   OH248410   0.235   7.675   4.788
16178TIP3    H148411   0.144   7.679   4.757
16178TIP3    H248412   0.228   7.690   4.882
16179TIP3   OH248413   9.249   7.413   4.228
16179TIP3    H148414   9.240   7.484   4.165
16179TIP3    H248415   9.171   7.421   4.284
16180TIP3   OH248416   8.829   6.697   3.945
16180TIP3    H148417   8.870   6.782   3.964
16180TIP3    H248418   8.746   6.699   3.992
16181TIP3   OH248419   9.347   7.171   4.145
16181TIP3    H148420   9.320   7.260   4.168
16181TIP3    H248421   9.317   7.117   4.218
16182TIP3   OH248422   9.547   7.731   4.678
16182TIP3    H148423   9.588   7.791   4.616
16182TIP3    H248424   9.621   7.689   4.723
16183TIP3   OH248425   9.164   7.628   4.073
16183TIP3    H148426   9.077   7.635   4.113
16183TIP3    H248427   9.200   7.716   4.080
16184TIP3   OH248428   0.071   7.400   4.640
16184TIP3    H148429   0.071   7.383   4.734
16184TIP3    H248430   0.163   7.410   4.617
16185TIP3   OH248431   9.234   6.535   5.202
16185TIP3    H148432   9.139   6.545   5.203
16185TIP3    H248433   9.253   6.480   5.278
16186TIP3   OH248434   9.018   7.585   4.815
16186TIP3    H148435   9.077   7.509   4.813
16186TIP3    H248436   9.068   7.654   4.857
16187TIP3   OH248437   9.253   7.256   3.537
16187TIP3    H148438   9.254   7.165   3.508
16187TIP3    H248439   9.231   7.252   3.630
16188TIP3   OH248440   9.182   7.257   3.804
16188TIP3    H148441   9.255   7.228   3.857
16188TIP3    H248442   9.182   7.353   3.814
16189TIP3   OH248443   8.917   6.952   4.020
16189TIP3    H148444   8.852   6.998   4.073
16189TIP3    H248445   8.936   7.011   3.947
16190TIP3   OH248446   0.260   6.570   4.908
16190TIP3    H148447   0.312   6.607   4.979
16190TIP3    H248448   0.196   6.513   4.951
16191TIP3   OH248449   0.062   6.423   4.006
16191TIP3    H148450   0.051   6.329   4.018
16191TIP3    H248451   0.156   6.437   4.011
16192TIP3   OH248452   9.460   7.458   3.750
16192TIP3    H148453   9.374   7.478   3.786
16192TIP3    H248454   9.479   7.531   3.691
16193TIP3   OH248455   9.597   6.558   4.189
16193TIP3    H148456   9.631   6.646   4.171
16193TIP3    H248457   9.601   6.550   4.284
16194TIP3   OH248458   0.018   6.832   5.016
16194TIP3    H148459  -0.023   6.915   4.994
16194TIP3    H248460   0.072   6.812   4.939
16195TIP3   OH248461   9.731   6.276   4.297
16195TIP3    H148462   9.770   6.263   4.384
16195TIP3    H248463   9.758   6.365   4.272
16196TIP3   OH248464   9.205   7.528   3.824
16196TIP3    H148465   9.187   7.599   3.763
16196TIP3    H248466   9.188   7.565   3.910
16197TIP3   OH248467   9.292   6.243   4.070
16197TIP3    H148468   9.275   6.332   4.103
16197TIP3    H248469   9.387   6.233   4.075
16198TIP3   OH248470   8.935   7.129   3.803
16198TIP3    H148471   9.006   7.193   3.810
16198TIP3    H248472   8.966   7.067   3.737
16199TIP3   OH248473   8.848   6.419   3.940
16199TIP3    H148474   8.864   6.512   3.951
16199TIP3    H248475   8.787   6.413   3.867
16200TIP3   OH248476   9.232   6.151   4.813
16200TIP3    H148477   9.215   6.121   4.724
16200TIP3    H248478   9.246   6.071   4.864
16201TIP3   OH248479   8.773   7.380   4.190
16201TIP3    H148480   8.737   7.413   4.272
16201TIP3    H248481   8.727   7.430   4.122
16202TIP3   OH248482   8.946   7.898   5.276
16202TIP3    H148483   9.025   7.902   5.330
16202TIP3    H248484   8.918   7.807   5.282
16203TIP3   OH248485   9.407   7.915   5.281
16203TIP3    H148486   9.494   7.946   5.253
16203TIP3    H248487   9.392   7.836   5.230
16204TIP3   OH248488   9.418   7.442   3.420
16204TIP3    H148489   9.366   7.377   3.467
16204TIP3    H248490   9.488   7.392   3.378
16205TIP3   OH248491   0.263   7.737   5.057
16205TIP3    H148492   0.264   7.676   5.130
16205TIP3    H248493   0.353   7.767   5.049
16206TIP3   OH248494   9.058   7.341   5.473
16206TIP3    H148495   9.139   7.351   5.422
16206TIP3    H248496   8.988   7.363   5.411
16207TIP3   OH248497   9.053   6.937   3.651
16207TIP3    H148498   9.105   6.915   3.728
16207TIP3    H248499   9.117   6.958   3.583
16208TIP3   OH248500   9.669   7.421   5.222
16208TIP3    H148501   9.619   7.439   5.142
16208TIP3    H248502   9.690   7.328   5.216
16209TIP3   OH248503   9.646   7.138   3.505
16209TIP3    H148504   9.626   7.169   3.593
16209TIP3    H248505   9.587   7.064   3.491
16210TIP3   OH248506   9.139   7.069   5.547
16210TIP3    H148507   9.194   7.074   5.469
16210TIP3    H248508   9.078   6.998   5.530
16211TIP3   OH248509   9.222   6.883   3.867
16211TIP3    H148510   9.203   6.853   3.955
16211TIP3    H248511   9.267   6.809   3.826
16212TIP3   OH248512   9.548   6.993   5.091
16212TIP3    H148513   9.463   7.036   5.080
16212TIP3    H248514   9.598   7.018   5.013
16213TIP3   OH248515   9.346   6.692   3.710
16213TIP3    H148516   9.308   6.701   3.623
16213TIP3    H248517   9.440   6.701   3.697
16214TIP3   OH248518   0.222   7.301   5.238
16214TIP3    H148519   0.195   7.223   5.190
16214TIP3    H248520   0.234   7.271   5.328
16215TIP3   OH248521   9.620   6.763   5.239
16215TIP3    H148522   9.635   6.685   5.185
16215TIP3    H248523   9.597   6.831   5.176
16216TIP3   OH248524   9.653   6.539   5.081
16216TIP3    H148525   9.720   6.482   5.044
16216TIP3    H248526   9.570   6.500   5.053
16217TIP3   OH248527   9.728   7.077   4.899
16217TIP3    H148528   9.809   7.113   4.861
16217TIP3    H248529   9.658   7.117   4.847
16218TIP3   OH248530   0.508   6.995   5.179
16218TIP3    H148531   0.454   6.960   5.109
16218TIP3    H248532   0.498   6.932   5.251
16219TIP3   OH248533   9.505   6.811   5.480
16219TIP3    H148534   9.442   6.740   5.494
16219TIP3    H248535   9.536   6.798   5.390
16220TIP3   OH248536   0.081   6.823   5.325
16220TIP3    H148537   0.065   6.796   5.415
16220TIP3    H248538  -0.000   6.803   5.279
16221TIP3   OH248539   0.288   6.743   5.159
16221TIP3    H148540   0.205   6.763   5.203
16221TIP3    H248541   0.335   6.685   5.220
16222TIP3   OH248542   0.690   6.625   5.413
16222TIP3    H148543   0.654   6.541   5.442
16222TIP3    H248544   0.613   6.678   5.392
16223TIP3   OH248545   9.351   6.590   5.545
16223TIP3    H148546   9.357   6.502   5.509
16223TIP3    H248547   9.391   6.583   5.632
16224TIP3   OH248548   9.745   6.231   5.377
16224TIP3    H148549   9.764   6.153   5.429
16224TIP3    H248550   9.690   6.198   5.305
16225TIP3   OH248551   0.071   6.475   5.555
16225TIP3    H148552   0.045   6.414   5.486
16225TIP3    H248553   0.017   6.553   5.538
16226TIP3   OH248554   9.204   7.733   3.643
16226TIP3    H148555   9.293   7.721   3.612
16226TIP3    H248556   9.160   7.779   3.571
16227TIP3   OH248557   8.666   7.111   3.836
16227TIP3    H148558   8.759   7.128   3.824
16227TIP3    H248559   8.649   7.030   3.788
16228TIP3   OH248560   8.578   7.713   4.286
16228TIP3    H148561   8.499   7.663   4.309
16228TIP3    H248562   8.650   7.664   4.326
16229TIP3   OH248563   8.703   7.504   4.427
16229TIP3    H148564   8.608   7.497   4.438
16229TIP3    H248565   8.737   7.493   4.516
16230TIP3   OH248566   8.881   6.946   4.839
16230TIP3    H148567   8.874   6.934   4.744
16230TIP3    H248568   8.972   6.974   4.852
16231TIP3   OH248569   9.090   6.642   5.475
16231TIP3    H148570   9.183   6.640   5.496
16231TIP3    H248571   9.056   6.559   5.509
16232TIP3   OH248572   9.069   6.371   4.849
16232TIP3    H148573   9.123   6.292   4.846
16232TIP3    H248574   9.130   6.443   4.833
16233TIP3   OH248575   8.847   6.660   4.859
16233TIP3    H148576   8.911   6.644   4.789
16233TIP3    H248577   8.850   6.755   4.873
16234TIP3   OH248578   8.835   6.095   4.368
16234TIP3    H148579   8.752   6.104   4.414
16234TIP3    H248580   8.833   6.163   4.300
16235TIP3   OH248581   9.062   6.179   5.195
16235TIP3    H148582   9.018   6.181   5.279
16235TIP3    H248583   9.013   6.240   5.140
16236TIP3   OH248584   9.144   7.612   5.281
16236TIP3    H148585   9.052   7.622   5.305
16236TIP3    H248586   9.190   7.607   5.365
16237TIP3   OH248587   9.318   7.715   4.850
16237TIP3    H148588   9.273   7.786   4.804
16237TIP3    H248589   9.400   7.704   4.802
16238TIP3   OH248590   9.753   7.887   4.951
16238TIP3    H148591   9.789   7.894   5.040
16238TIP3    H248592   9.805   7.947   4.899
16239TIP3   OH248593   0.104   8.056   4.798
16239TIP3    H148594   0.125   8.007   4.719
16239TIP3    H248595   0.171   8.124   4.802
16240TIP3   OH248596   8.976   7.949   4.859
16240TIP3    H148597   8.881   7.952   4.845
16240TIP3    H248598   8.991   8.006   4.934
16241TIP3   OH248599   9.202   7.917   4.712
16241TIP3    H148600   9.121   7.930   4.762
16241TIP3    H248601   9.180   7.947   4.624
16242TIP3   OH248602   9.614   7.922   4.476
16242TIP3    H148603   9.526   7.944   4.445
16242TIP3    H248604   9.639   7.995   4.533
16243TIP3   OH248605   0.160   7.920   4.568
16243TIP3    H148606   0.126   7.831   4.556
16243TIP3    H248607   0.141   7.964   4.485
16244TIP3   OH248608   8.896   7.707   4.595
16244TIP3    H148609   8.933   7.681   4.679
16244TIP3    H248610   8.952   7.664   4.530
16245TIP3   OH248611   9.090   7.581   4.442
16245TIP3    H148612   9.098   7.503   4.497
16245TIP3    H248613   9.171   7.629   4.457
16246TIP3   OH248614   9.347   7.695   4.485
16246TIP3    H148615   9.369   7.603   4.469
16246TIP3    H248616   9.400   7.719   4.561
16247TIP3   OH248617   0.025   6.315   4.548
16247TIP3    H148618   0.052   6.388   4.603
16247TIP3    H248619   0.072   6.239   4.582
16248TIP3   OH248620   9.175   6.042   4.567
16248TIP3    H148621   9.085   6.009   4.571
16248TIP3    H248622   9.228   5.964   4.549
16249TIP3   OH248623   9.033   5.930   4.285
16249TIP3    H148624   9.062   5.968   4.202
16249TIP3    H248625   8.964   5.990   4.315
16250TIP3   OH248626   9.543   6.121   4.447
16250TIP3    H148627   9.597   6.170   4.385
16250TIP3    H248628   9.594   6.120   4.528
16251TIP3   OH248629   8.648   7.518   3.989
16251TIP3    H148630   8.552   7.508   3.990
16251TIP3    H248631   8.663   7.602   3.946
16252TIP3   OH248632   9.094   6.047   4.041
16252TIP3    H148633   9.116   6.002   3.960
16252TIP3    H248634   9.158   6.117   4.049
16253TIP3   OH248635   9.565   6.303   4.077
16253TIP3    H148636   9.610   6.259   4.149
16253TIP3    H248637   9.575   6.396   4.097
16254TIP3   OH248638   9.462   7.668   3.566
16254TIP3    H148639   9.536   7.711   3.522
16254TIP3    H248640   9.438   7.595   3.509
16255TIP3   OH248641   9.354   6.324   5.443
16255TIP3    H148642   9.322   6.254   5.499
16255TIP3    H248643   9.446   6.336   5.470
16256TIP3   OH248644   9.585   6.341   5.589
16256TIP3    H148645   9.654   6.314   5.528
16256TIP3    H248646   9.583   6.271   5.655
16257TIP3   OH248647   8.772   7.512   3.633
16257TIP3    H148648   8.781   7.535   3.726
16257TIP3    H248649   8.852   7.464   3.613
16258TIP3   OH248650   0.814   7.883   6.356
16258TIP3    H148651   0.825   7.829   6.434
16258TIP3    H248652   0.863   7.963   6.376
16259TIP3   OH248653   1.348   7.166   6.760
16259TIP3    H148654   1.380   7.241   6.809
16259TIP3    H248655   1.393   7.171   6.675
16260TIP3   OH248656   0.792   7.317   6.824
16260TIP3    H148657   0.828   7.228   6.832
16260TIP3    H248658   0.741   7.315   6.744
16261TIP3   OH248659   0.780   7.095   6.379
16261TIP3    H148660   0.848   7.077   6.445
16261TIP3    H248661   0.830   7.120   6.301
16262TIP3   OH248662   1.430   7.370   6.932
16262TIP3    H148663   1.340   7.402   6.940
16262TIP3    H248664   1.474   7.405   7.010
16263TIP3   OH248665   0.959   7.094   6.585
16263TIP3    H148666   0.933   7.072   6.674
16263TIP3    H248667   1.018   7.169   6.595
16264TIP3   OH248668   1.161   7.023   6.930
16264TIP3    H148669   1.072   7.037   6.896
16264TIP3    H248670   1.218   7.059   6.862
16265TIP3   OH248671   0.734   7.941   6.090
16265TIP3    H148672   0.721   7.858   6.044
16265TIP3    H248673   0.756   7.917   6.179
16266TIP3   OH248674   1.043   8.069   6.915
16266TIP3    H148675   1.029   7.994   6.858
16266TIP3    H248676   1.021   8.145   6.861
16267TIP3   OH248677   1.234   7.690   6.723
16267TIP3    H148678   1.160   7.748   6.737
16267TIP3    H248679   1.280   7.726   6.647
16268TIP3   OH248680   0.715   7.553   6.133
16268TIP3    H148681   0.679   7.601   6.207
16268TIP3    H248682   0.797   7.517   6.166
16269TIP3   OH248683   0.926   7.663   7.047
16269TIP3    H148684   0.911   7.741   7.100
16269TIP3    H248685   0.840   7.640   7.013
16270TIP3   OH248686   0.587   7.369   5.965
16270TIP3    H148687   0.620   7.441   6.020
16270TIP3    H248688   0.580   7.407   5.878
16271TIP3   OH248689   1.065   6.632   6.022
16271TIP3    H148690   0.982   6.653   6.065
16271TIP3    H248691   1.085   6.709   5.969
16272TIP3   OH248692   0.865   8.013   5.563
16272TIP3    H148693   0.861   8.108   5.547
16272TIP3    H248694   0.957   7.991   5.551
16273TIP3   OH248695   1.293   8.386   6.942
16273TIP3    H148696   1.295   8.294   6.968
16273TIP3    H248697   1.214   8.421   6.982
16274TIP3   OH248698   1.143   7.510   7.238
16274TIP3    H148699   1.085   7.524   7.313
16274TIP3    H248700   1.200   7.438   7.265
16275TIP3   OH248701   0.724   6.850   7.265
16275TIP3    H148702   0.809   6.829   7.303
16275TIP3    H248703   0.663   6.848   7.339
16276TIP3   OH248704   0.949   7.355   7.059
16276TIP3    H148705   0.909   7.327   7.141
16276TIP3    H248706   0.879   7.348   6.994
16277TIP3   OH248707   0.595   7.437   5.692
16277TIP3    H148708   0.573   7.444   5.599
16277TIP3    H248709   0.681   7.477   5.700
16278TIP3   OH248710   0.678   7.277   6.564
16278TIP3    H148711   0.582   7.270   6.563
16278TIP3    H248712   0.708   7.210   6.503
16279TIP3   OH248713   0.891   7.057   6.856
16279TIP3    H148714   0.879   7.065   6.951
16279TIP3    H248715   0.823   6.996   6.828
16280TIP3   OH248716   1.024   7.869   6.723
16280TIP3    H148717   1.062   7.923   6.654
16280TIP3    H248718   0.954   7.820   6.680
16281TIP3   OH248719   0.487   6.965   6.084
16281TIP3    H148720   0.408   7.013   6.059
16281TIP3    H248721   0.557   7.029   6.077
16282TIP3   OH248722   0.691   7.134   6.051
16282TIP3    H148723   0.781   7.152   6.078
16282TIP3    H248724   0.658   7.219   6.020
16283TIP3   OH248725   1.063   7.266   5.911
16283TIP3    H148726   1.005   7.216   5.854
16283TIP3    H248727   1.064   7.354   5.874
16284TIP3   OH248728   1.300   8.105   6.997
16284TIP3    H148729   1.205   8.097   6.988
16284TIP3    H248730   1.334   8.078   6.911
16285TIP3   OH248731   0.792   8.086   5.862
16285TIP3    H148732   0.769   8.041   5.943
16285TIP3    H248733   0.801   8.016   5.797
16286TIP3   OH248734   0.835   7.716   6.586
16286TIP3    H148735   0.750   7.701   6.626
16286TIP3    H248736   0.867   7.628   6.563
16287TIP3   OH248737   0.875   8.286   5.498
16287TIP3    H148738   0.950   8.342   5.518
16287TIP3    H248739   0.823   8.337   5.436
16288TIP3   OH248740   0.737   7.718   5.913
16288TIP3    H148741   0.724   7.652   5.980
16288TIP3    H248742   0.832   7.725   5.903
16289TIP3   OH248743   0.841   7.059   7.121
16289TIP3    H148744   0.854   7.123   7.191
16289TIP3    H248745   0.793   6.987   7.162
16290TIP3   OH248746   0.653   6.860   6.287
16290TIP3    H148747   0.586   6.893   6.227
16290TIP3    H248748   0.685   6.938   6.332
16291TIP3   OH248749   1.196   7.242   7.108
16291TIP3    H148750   1.115   7.293   7.100
16291TIP3    H248751   1.178   7.161   7.059
16292TIP3   OH248752   0.896   7.447   6.536
16292TIP3    H148753   0.819   7.391   6.549
16292TIP3    H248754   0.964   7.405   6.590
16293TIP3   OH248755   0.896   8.352   6.491
16293TIP3    H148756   0.834   8.357   6.419
16293TIP3    H248757   0.965   8.414   6.467
16294TIP3   OH248758   0.841   7.528   5.587
16294TIP3    H148759   0.838   7.488   5.500
16294TIP3    H248760   0.809   7.617   5.574
16295TIP3   OH248761   0.985   7.550   7.456
16295TIP3    H148762   0.974   7.503   7.539
16295TIP3    H248763   1.003   7.640   7.481
16296TIP3   OH248764   0.965   7.890   7.200
16296TIP3    H148765   0.944   7.983   7.189
16296TIP3    H248766   1.053   7.881   7.163
16297TIP3   OH248767   0.877   7.251   7.315
16297TIP3    H148768   0.819   7.304   7.370
16297TIP3    H248769   0.954   7.235   7.369
16298TIP3   OH248770   1.071   7.213   7.509
16298TIP3    H148771   1.083   7.122   7.538
16298TIP3    H248772   1.041   7.260   7.587
16299TIP3   OH248773   1.102   8.528   6.448
16299TIP3    H148774   1.138   8.533   6.537
16299TIP3    H248775   1.177   8.543   6.391
16300TIP3   OH248776   1.150   8.504   6.726
16300TIP3    H148777   1.092   8.428   6.729
16300TIP3    H248778   1.222   8.482   6.785
16301TIP3   OH248779   1.157   8.216   7.351
16301TIP3    H148780   1.125   8.228   7.441
16301TIP3    H248781   1.206   8.296   7.333
16302TIP3   OH248782   1.012   7.725   5.921
16302TIP3    H148783   1.067   7.796   5.889
16302TIP3    H248784   1.061   7.689   5.995
16303TIP3   OH248785   1.144   7.587   6.122
16303TIP3    H148786   1.079   7.550   6.181
16303TIP3    H248787   1.210   7.625   6.181
16304TIP3   OH248788   1.162   7.995   6.525
16304TIP3    H148789   1.225   7.927   6.502
16304TIP3    H248790   1.193   8.074   6.481
16305TIP3   OH248791   0.969   8.285   6.747
16305TIP3    H148792   0.897   8.328   6.792
16305TIP3    H248793   0.947   8.289   6.654
16306TIP3   OH248794   1.044   7.499   5.770
16306TIP3    H148795   0.975   7.502   5.704
16306TIP3    H248796   1.032   7.579   5.821
16307TIP3   OH248797   0.899   7.143   5.737
16307TIP3    H148798   0.814   7.169   5.701
16307TIP3    H248799   0.897   7.047   5.737
16308TIP3   OH248800   0.939   7.444   6.258
16308TIP3    H148801   0.948   7.351   6.237
16308TIP3    H248802   0.932   7.446   6.354
16309TIP3   OH248803   1.206   7.768   7.067
16309TIP3    H148804   1.284   7.746   7.118
16309TIP3    H248805   1.237   7.830   7.001
16310TIP3   OH248806   1.416   7.673   7.207
16310TIP3    H148807   1.395   7.665   7.300
16310TIP3    H248808   1.475   7.599   7.189
16311TIP3   OH248809   0.873   6.869   5.747
16311TIP3    H148810   0.960   6.853   5.783
16311TIP3    H248811   0.816   6.807   5.794
16312TIP3   OH248812   0.952   7.174   6.155
16312TIP3    H148813   0.994   7.090   6.170
16312TIP3    H248814   0.995   7.209   6.077
16313TIP3   OH248815   1.116   7.311   6.666
16313TIP3    H148816   1.177   7.366   6.616
16313TIP3    H248817   1.173   7.248   6.711
16314TIP3   OH248818   1.171   7.504   6.909
16314TIP3    H148819   1.115   7.442   6.863
16314TIP3    H248820   1.203   7.562   6.840
16315TIP3   OH248821   1.618   7.066   7.415
16315TIP3    H148822   1.685   7.009   7.377
16315TIP3    H248823   1.581   7.113   7.341
16316TIP3   OH248824   1.053   6.918   6.197
16316TIP3    H148825   1.094   6.898   6.281
16316TIP3    H248826   0.988   6.850   6.185
16317TIP3   OH248827   1.462   7.202   7.236
16317TIP3    H148828   1.394   7.249   7.283
16317TIP3    H248829   1.416   7.136   7.185
16318TIP3   OH248830   1.126   6.831   5.844
16318TIP3    H148831   1.168   6.773   5.781
16318TIP3    H248832   1.178   6.911   5.842
16319TIP3   OH248833   1.357   6.961   7.136
16319TIP3    H148834   1.275   6.965   7.087
16319TIP3    H248835   1.385   6.870   7.127
16320TIP3   OH248836   0.701   6.875   6.800
16320TIP3    H148837   0.686   6.805   6.863
16320TIP3    H248838   0.724   6.830   6.719
16321TIP3   OH248839   1.091   6.765   6.651
16321TIP3    H148840   1.131   6.816   6.580
16321TIP3    H248841   0.998   6.788   6.647
16322TIP3   OH248842   1.205   6.858   6.421
16322TIP3    H148843   1.273   6.797   6.392
16322TIP3    H248844   1.243   6.945   6.410
16323TIP3   OH248845   0.816   6.739   6.590
16323TIP3    H148846   0.845   6.698   6.509
16323TIP3    H248847   0.804   6.666   6.651
16324TIP3   OH248848   0.859   6.714   6.188
16324TIP3    H148849   0.785   6.767   6.217
16324TIP3    H248850   0.840   6.626   6.221
16325TIP3   OH248851   0.870   8.340   5.822
16325TIP3    H148852   0.840   8.251   5.840
16325TIP3    H248853   0.794   8.383   5.785
16326TIP3   OH248854   1.134   6.944   7.555
16326TIP3    H148855   1.141   6.914   7.646
16326TIP3    H248856   1.221   6.934   7.519
16327TIP3   OH248857   1.060   8.489   7.044
16327TIP3    H148858   1.027   8.449   7.124
16327TIP3    H248859   1.062   8.583   7.063
16328TIP3   OH248860   2.314   7.863   5.797
16328TIP3    H148861   2.285   7.952   5.773
16328TIP3    H248862   2.240   7.807   5.774
16329TIP3   OH248863   2.309   7.861   6.235
16329TIP3    H148864   2.361   7.847   6.315
16329TIP3    H248865   2.265   7.777   6.221
16330TIP3   OH248866   1.605   7.729   6.576
16330TIP3    H148867   1.637   7.677   6.650
16330TIP3    H248868   1.683   7.747   6.524
16331TIP3   OH248869   2.574   8.170   5.900
16331TIP3    H148870   2.567   8.103   5.968
16331TIP3    H248871   2.596   8.250   5.947
16332TIP3   OH248872   1.585   8.134   6.265
16332TIP3    H148873   1.573   8.039   6.258
16332TIP3    H248874   1.680   8.146   6.262
16333TIP3   OH248875   1.293   7.361   6.044
16333TIP3    H148876   1.256   7.446   6.067
16333TIP3    H248877   1.221   7.315   6.000
16334TIP3   OH248878   1.369   7.673   6.265
16334TIP3    H148879   1.418   7.596   6.292
16334TIP3    H248880   1.435   7.736   6.238
16335TIP3   OH248881   2.245   8.582   5.923
16335TIP3    H148882   2.269   8.518   5.857
16335TIP3    H248883   2.255   8.536   6.007
16336TIP3   OH248884   2.123   8.083   6.243
16336TIP3    H148885   2.171   8.005   6.216
16336TIP3    H248886   2.190   8.143   6.277
16337TIP3   OH248887   3.160   7.395   6.248
16337TIP3    H148888   3.172   7.478   6.293
16337TIP3    H248889   3.192   7.411   6.159
16338TIP3   OH248890   2.502   7.563   6.273
16338TIP3    H148891   2.538   7.477   6.298
16338TIP3    H248892   2.477   7.553   6.181
16339TIP3   OH248893   1.874   7.230   6.229
16339TIP3    H148894   1.855   7.303   6.170
16339TIP3    H248895   1.819   7.159   6.198
16340TIP3   OH248896   2.591   7.339   5.873
16340TIP3    H148897   2.657   7.328   5.941
16340TIP3    H248898   2.640   7.370   5.797
16341TIP3   OH248899   1.509   7.452   6.356
16341TIP3    H148900   1.592   7.433   6.399
16341TIP3    H248901   1.511   7.400   6.276
16342TIP3   OH248902   1.924   7.645   6.166
16342TIP3    H148903   2.018   7.630   6.177
16342TIP3    H248904   1.890   7.562   6.133
16343TIP3   OH248905   3.202   7.614   6.414
16343TIP3    H148906   3.125   7.668   6.399
16343TIP3    H248907   3.246   7.654   6.489
16344TIP3   OH248908   1.866   7.231   6.674
16344TIP3    H148909   1.817   7.272   6.603
16344TIP3    H248910   1.815   7.249   6.752
16345TIP3   OH248911   2.210   8.082   5.662
16345TIP3    H148912   2.172   8.053   5.579
16345TIP3    H248913   2.158   8.158   5.688
16346TIP3   OH248914   1.955   7.999   6.447
16346TIP3    H148915   1.903   8.071   6.481
16346TIP3    H248916   2.009   8.039   6.379
16347TIP3   OH248917   2.758   7.338   6.090
16347TIP3    H148918   2.697   7.326   6.163
16347TIP3    H248919   2.805   7.418   6.110
16348TIP3   OH248920   1.749   7.345   6.452
16348TIP3    H148921   1.803   7.421   6.476
16348TIP3    H248922   1.797   7.304   6.380
16349TIP3   OH248923   1.795   8.204   6.547
16349TIP3    H148924   1.787   8.296   6.519
16349TIP3    H248925   1.716   8.188   6.598
16350TIP3   OH248926   1.179   7.913   5.806
16350TIP3    H148927   1.147   7.937   5.719
16350TIP3    H248928   1.204   7.996   5.847
16351TIP3   OH248929   2.603   8.415   6.039
16351TIP3    H148930   2.516   8.410   6.077
16351TIP3    H248931   2.606   8.501   5.996
16352TIP3   OH248932   2.968   7.263   6.412
16352TIP3    H148933   2.887   7.313   6.400
16352TIP3    H248934   3.028   7.298   6.346
16353TIP3   OH248935   2.200   6.921   6.406
16353TIP3    H148936   2.197   6.830   6.436
16353TIP3    H248937   2.123   6.962   6.446
16354TIP3   OH248938   2.325   8.439   5.700
16354TIP3    H148939   2.378   8.361   5.687
16354TIP3    H248940   2.381   8.511   5.670
16355TIP3   OH248941   2.461   8.209   5.652
16355TIP3    H148942   2.387   8.149   5.653
16355TIP3    H248943   2.511   8.189   5.731
16356TIP3   OH248944   2.850   8.308   6.381
16356TIP3    H148945   2.833   8.232   6.326
16356TIP3    H248946   2.837   8.383   6.323
16357TIP3   OH248947   2.140   7.702   5.648
16357TIP3    H148948   2.056   7.745   5.633
16357TIP3    H248949   2.188   7.713   5.567
16358TIP3   OH248950   2.106   7.514   5.341
16358TIP3    H148951   2.169   7.555   5.400
16358TIP3    H248952   2.158   7.450   5.292
16359TIP3   OH248953   3.009   7.942   6.239
16359TIP3    H148954   2.931   7.998   6.242
16359TIP3    H248955   3.055   7.970   6.160
16360TIP3   OH248956   2.499   7.783   5.613
16360TIP3    H148957   2.445   7.816   5.684
16360TIP3    H248958   2.585   7.766   5.653
16361TIP3   OH248959   2.725   7.817   6.557
16361TIP3    H148960   2.732   7.904   6.597
16361TIP3    H248961   2.639   7.818   6.515
16362TIP3   OH248962   1.726   7.775   6.011
16362TIP3    H148963   1.691   7.712   5.947
16362TIP3    H248964   1.800   7.730   6.051
16363TIP3   OH248965   1.857   8.188   6.170
16363TIP3    H148966   1.839   8.178   6.076
16363TIP3    H248967   1.946   8.155   6.181
16364TIP3   OH248968   1.814   7.774   6.385
16364TIP3    H148969   1.856   7.740   6.306
16364TIP3    H248970   1.864   7.853   6.407
16365TIP3   OH248971   2.362   8.409   6.170
16365TIP3    H148972   2.356   8.491   6.220
16365TIP3    H248973   2.351   8.341   6.236
16366TIP3   OH248974   2.004   8.306   6.704
16366TIP3    H148975   1.945   8.361   6.757
16366TIP3    H248976   1.945   8.252   6.651
16367TIP3   OH248977   2.345   7.621   5.451
16367TIP3    H148978   2.401   7.680   5.502
16367TIP3    H248979   2.370   7.636   5.360
16368TIP3   OH248980   1.771   7.891   6.845
16368TIP3    H148981   1.772   7.985   6.868
16368TIP3    H248982   1.678   7.869   6.843
16369TIP3   OH248983   2.076   8.320   5.700
16369TIP3    H148984   2.158   8.368   5.712
16369TIP3    H248985   2.020   8.379   5.650
16370TIP3   OH248986   1.792   8.461   6.800
16370TIP3    H148987   1.769   8.472   6.707
16370TIP3    H248988   1.708   8.455   6.844
16371TIP3   OH248989   2.839   6.889   5.508
16371TIP3    H148990   2.756   6.908   5.551
16371TIP3    H248991   2.855   6.965   5.452
16372TIP3   OH248992   1.598   7.614   5.813
16372TIP3    H148993   1.522   7.664   5.785
16372TIP3    H248994   1.565   7.526   5.830
16373TIP3   OH248995   2.666   8.261   5.062
16373TIP3    H148996   2.661   8.354   5.041
16373TIP3    H248997   2.755   8.236   5.039
16374TIP3   OH248998   1.392   8.005   6.759
16374TIP3    H148999   1.346   7.976   6.680
16374TIP3    H249000   1.431   7.926   6.795
16375TIP3   OH249001   1.313   8.191   6.391
16375TIP3    H149002   1.396   8.167   6.350
16375TIP3    H249003   1.336   8.263   6.450
16376TIP3   OH249004   3.076   8.651   6.454
16376TIP3    H149005   3.082   8.557   6.473
16376TIP3    H249006   2.997   8.680   6.500
16377TIP3   OH249007   2.185   8.458   6.565
16377TIP3    H149008   2.178   8.545   6.605
16377TIP3    H249009   2.124   8.403   6.615
16378TIP3   OH249010   1.970   8.523   5.533
16378TIP3    H149011   1.932   8.512   5.447
16378TIP3    H249012   1.939   8.609   5.562
16379TIP3   OH249013   1.406   8.392   5.915
16379TIP3    H149014   1.451   8.389   5.999
16379TIP3    H249015   1.357   8.310   5.910
16380TIP3   OH249016   2.175   8.475   5.163
16380TIP3    H149017   2.226   8.402   5.130
16380TIP3    H249018   2.209   8.490   5.252
16381TIP3   OH249019   2.225   8.517   5.430
16381TIP3    H149020   2.141   8.512   5.475
16381TIP3    H249021   2.289   8.489   5.496
16382TIP3   OH249022   2.972   7.785   6.737
16382TIP3    H149023   2.883   7.799   6.705
16382TIP3    H249024   2.986   7.690   6.730
16383TIP3   OH249025   1.570   8.216   6.713
16383TIP3    H149026   1.625   8.213   6.792
16383TIP3    H249027   1.505   8.147   6.727
16384TIP3   OH249028   1.961   7.011   6.533
16384TIP3    H149029   1.876   6.981   6.501
16384TIP3    H249030   1.943   7.094   6.576
16385TIP3   OH249031   2.505   7.136   6.740
16385TIP3    H149032   2.574   7.117   6.803
16385TIP3    H249033   2.423   7.126   6.790
16386TIP3   OH249034   2.724   7.550   6.633
16386TIP3    H149035   2.686   7.548   6.721
16386TIP3    H249036   2.715   7.641   6.606
16387TIP3   OH249037   2.399   7.629   5.179
16387TIP3    H149038   2.359   7.643   5.093
16387TIP3    H249039   2.484   7.674   5.173
16388TIP3   OH249040   2.139   6.971   5.549
16388TIP3    H149041   2.097   7.014   5.623
16388TIP3    H249042   2.069   6.921   5.507
16389TIP3   OH249043   1.902   7.558   6.534
16389TIP3    H149044   1.916   7.598   6.620
16389TIP3    H249045   1.878   7.632   6.477
16390TIP3   OH249046   1.784   7.428   6.063
16390TIP3    H149047   1.695   7.405   6.090
16390TIP3    H249048   1.791   7.396   5.973
16391TIP3   OH249049   2.269   7.497   5.780
16391TIP3    H149050   2.224   7.571   5.739
16391TIP3    H249051   2.328   7.464   5.713
16392TIP3   OH249052   2.430   7.519   6.013
16392TIP3    H149053   2.363   7.539   5.947
16392TIP3    H249054   2.481   7.449   5.974
16393TIP3   OH249055   1.691   7.580   6.799
16393TIP3    H149056   1.780   7.614   6.808
16393TIP3    H249057   1.698   7.488   6.825
16394TIP3   OH249058   1.794   7.044   5.481
16394TIP3    H149059   1.784   7.048   5.576
16394TIP3    H249060   1.714   7.084   5.446
16395TIP3   OH249061   1.334   7.084   6.356
16395TIP3    H149062   1.405   7.125   6.406
16395TIP3    H249063   1.370   7.074   6.268
16396TIP3   OH249064   1.257   7.074   5.850
16396TIP3    H149065   1.294   7.104   5.767
16396TIP3    H249066   1.192   7.140   5.873
16397TIP3   OH249067   2.463   7.762   6.455
16397TIP3    H149068   2.483   7.692   6.393
16397TIP3    H249069   2.429   7.717   6.532
16398TIP3   OH249070   2.141   7.226   6.115
16398TIP3    H149071   2.064   7.226   6.172
16398TIP3    H249072   2.215   7.213   6.174
16399TIP3   OH249073   1.547   7.304   6.129
16399TIP3    H149074   1.460   7.311   6.089
16399TIP3    H249075   1.574   7.213   6.111
16400TIP3   OH249076   1.793   7.307   5.816
16400TIP3    H149077   1.887   7.324   5.808
16400TIP3    H249078   1.758   7.325   5.729
16401TIP3   OH249079   2.577   7.296   6.290
16401TIP3    H149080   2.579   7.301   6.386
16401TIP3    H249081   2.505   7.235   6.271
16402TIP3   OH249082   1.687   7.328   5.565
16402TIP3    H149083   1.622   7.278   5.514
16402TIP3    H249084   1.738   7.375   5.499
16403TIP3   OH249085   2.781   8.996   6.539
16403TIP3    H149086   2.783   9.011   6.445
16403TIP3    H249087   2.862   9.033   6.572
16404TIP3   OH249088   1.726   8.148   6.946
16404TIP3    H149089   1.809   8.163   6.990
16404TIP3    H249090   1.660   8.154   7.015
16405TIP3   OH249091   2.193   7.589   6.225
16405TIP3    H149092   2.266   7.550   6.177
16405TIP3    H249093   2.200   7.553   6.313
16406TIP3   OH249094   1.683   7.055   6.110
16406TIP3    H149095   1.655   6.979   6.161
16406TIP3    H249096   1.702   7.019   6.023
16407TIP3   OH249097   2.184   7.503   6.496
16407TIP3    H149098   2.101   7.548   6.511
16407TIP3    H249099   2.246   7.549   6.552
16408TIP3   OH249100   1.902   7.835   5.597
16408TIP3    H149101   1.826   7.784   5.570
16408TIP3    H249102   1.874   7.881   5.676
16409TIP3   OH249103   2.789   8.106   6.204
16409TIP3    H149104   2.826   8.154   6.130
16409TIP3    H249105   2.710   8.065   6.169
16410TIP3   OH249106   2.392   7.077   5.451
16410TIP3    H149107   2.331   7.150   5.437
16410TIP3    H249108   2.478   7.112   5.427
16411TIP3   OH249109   2.316   8.179   6.640
16411TIP3    H149110   2.371   8.150   6.713
16411TIP3    H249111   2.290   8.268   6.663
16412TIP3   OH249112   2.435   7.379   5.574
16412TIP3    H149113   2.529   7.391   5.588
16412TIP3    H249114   2.409   7.453   5.518
16413TIP3   OH249115   1.587   7.851   6.237
16413TIP3    H149116   1.626   7.835   6.152
16413TIP3    H249117   1.654   7.825   6.300
16414TIP3   OH249118   2.056   7.996   5.441
16414TIP3    H149119   2.009   8.079   5.437
16414TIP3    H249120   2.001   7.939   5.494
16415TIP3   OH249121   1.508   7.801   6.907
16415TIP3    H149122   1.543   7.811   6.996
16415TIP3    H249123   1.532   7.712   6.882
16416TIP3   OH249124   2.456   8.476   6.503
16416TIP3    H149125   2.361   8.461   6.504
16416TIP3    H249126   2.476   8.508   6.591
16417TIP3   OH249127   2.834   7.515   5.390
16417TIP3    H149128   2.772   7.472   5.330
16417TIP3    H249129   2.842   7.604   5.355
16418TIP3   OH249130   3.096   8.375   6.478
16418TIP3    H149131   3.002   8.360   6.469
16418TIP3    H249132   3.132   8.353   6.391
16419TIP3   OH249133   2.577   8.332   5.325
16419TIP3    H149134   2.555   8.261   5.386
16419TIP3    H249135   2.600   8.287   5.244
16420TIP3   OH249136   2.564   7.969   6.100
16420TIP3    H149137   2.476   7.948   6.132
16420TIP3    H249138   2.597   7.886   6.065
16421TIP3   OH249139   1.724   8.201   5.920
16421TIP3    H149140   1.724   8.275   5.860
16421TIP3    H249141   1.634   8.196   5.952
16422TIP3   OH249142   1.280   7.480   5.630
16422TIP3    H149143   1.324   7.563   5.649
16422TIP3    H249144   1.200   7.483   5.683
16423TIP3   OH249145   1.791   7.958   5.809
16423TIP3    H149146   1.782   8.047   5.844
16423TIP3    H249147   1.770   7.902   5.883
16424TIP3   OH249148   1.999   8.528   6.368
16424TIP3    H149149   2.035   8.600   6.315
16424TIP3    H249150   2.074   8.498   6.420
16425TIP3   OH249151   1.633   8.415   5.764
16425TIP3    H149152   1.547   8.419   5.805
16425TIP3    H249153   1.668   8.504   5.771
16426TIP3   OH249154   2.350   8.197   6.364
16426TIP3    H149155   2.329   8.191   6.457
16426TIP3    H249156   2.441   8.168   6.357
16427TIP3   OH249157   2.349   8.065   5.217
16427TIP3    H149158   2.402   8.034   5.290
16427TIP3    H249159   2.263   8.023   5.230
16428TIP3   OH249160   2.611   8.672   6.381
16428TIP3    H149161   2.544   8.609   6.408
16428TIP3    H249162   2.570   8.724   6.313
16429TIP3   OH249163   2.669   8.534   5.025
16429TIP3    H149164   2.720   8.607   4.989
16429TIP3    H249165   2.588   8.575   5.056
16430TIP3   OH249166   1.702   7.301   6.886
16430TIP3    H149167   1.607   7.312   6.899
16430TIP3    H249168   1.732   7.256   6.965
16431TIP3   OH249169   2.526   7.964   5.400
16431TIP3    H149170   2.511   7.911   5.478
16431TIP3    H249171   2.620   7.979   5.398
16432TIP3   OH249172   1.426   8.405   6.544
16432TIP3    H149173   1.480   8.349   6.599
16432TIP3    H249174   1.433   8.492   6.584
16433TIP3   OH249175   1.701   8.032   5.234
16433TIP3    H149176   1.712   7.941   5.205
16433TIP3    H249177   1.689   8.026   5.328
16434TIP3   OH249178   1.643   8.039   5.507
16434TIP3    H149179   1.700   8.015   5.580
16434TIP3    H249180   1.642   8.135   5.509
16435TIP3   OH249181   1.372   7.735   5.708
16435TIP3    H149182   1.308   7.784   5.761
16435TIP3    H249183   1.391   7.793   5.634
16436TIP3   OH249184   2.575   7.329   6.555
16436TIP3    H149185   2.630   7.397   6.595
16436TIP3    H249186   2.553   7.271   6.628
16437TIP3   OH249187   2.423   7.150   5.765
16437TIP3    H149188   2.400   7.207   5.691
16437TIP3    H249189   2.478   7.205   5.821
16438TIP3   OH249190   1.910   8.222   5.431
16438TIP3    H149191   1.826   8.248   5.471
16438TIP3    H249192   1.937   8.299   5.381
16439TIP3   OH249193   2.071   7.323   5.861
16439TIP3    H149194   2.136   7.387   5.833
16439TIP3    H249195   2.094   7.304   5.952
16440TIP3   OH249196   2.376   7.607   6.672
16440TIP3    H149197   2.359   7.641   6.760
16440TIP3    H249198   2.442   7.539   6.685
16441TIP3   OH249199   2.246   7.025   5.950
16441TIP3    H149200   2.223   7.099   6.007
16441TIP3    H249201   2.317   7.059   5.895
16442TIP3   OH249202   1.662   8.310   5.514
16442TIP3    H149203   1.644   8.383   5.454
16442TIP3    H249204   1.651   8.349   5.601
16443TIP3   OH249205   1.757   7.033   5.759
16443TIP3    H149206   1.741   7.124   5.786
16443TIP3    H249207   1.851   7.021   5.772
16444TIP3   OH249208   2.997   7.523   6.628
16444TIP3    H149209   2.901   7.514   6.629
16444TIP3    H249210   3.018   7.543   6.537
16445TIP3   OH249211   2.654   7.710   6.017
16445TIP3    H149212   2.578   7.653   6.030
16445TIP3    H249213   2.722   7.671   6.072
16446TIP3   OH249214   1.398   7.912   5.493
16446TIP3    H149215   1.470   7.974   5.504
16446TIP3    H249216   1.428   7.851   5.426
16447TIP3   OH249217   1.297   7.200   5.612
16447TIP3    H149218   1.302   7.296   5.615
16447TIP3    H249219   1.227   7.182   5.550
16448TIP3   OH249220   2.636   8.680   5.957
16448TIP3    H149221   2.594   8.730   5.887
16448TIP3    H249222   2.730   8.697   5.945
16449TIP3   OH249223   1.695   6.930   6.495
16449TIP3    H149224   1.668   6.900   6.408
16449TIP3    H249225   1.687   6.853   6.551
16450TIP3   OH249226   1.236   8.168   5.912
16450TIP3    H149227   1.196   8.208   5.990
16450TIP3    H249228   1.193   8.211   5.838
16451TIP3   OH249229   1.433   8.735   6.952
16451TIP3    H149230   1.507   8.747   7.012
16451TIP3    H249231   1.435   8.642   6.931
16452TIP3   OH249232   1.891   8.631   6.994
16452TIP3    H149233   1.982   8.606   7.010
16452TIP3    H249234   1.863   8.575   6.922
16453TIP3   OH249235   1.855   8.232   5.121
16453TIP3    H149236   1.808   8.163   5.167
16453TIP3    H249237   1.929   8.188   5.079
16454TIP3   OH249238   2.507   8.564   6.757
16454TIP3    H149239   2.522   8.492   6.818
16454TIP3    H249240   2.582   8.622   6.770
16455TIP3   OH249241   2.298   8.267   5.039
16455TIP3    H149242   2.333   8.204   5.101
16455TIP3    H249243   2.356   8.261   4.963
16456TIP3   OH249244   1.532   8.119   7.145
16456TIP3    H149245   1.565   8.029   7.145
16456TIP3    H249246   1.448   8.113   7.100
16457TIP3   OH249247   1.521   7.725   5.335
16457TIP3    H149248   1.571   7.701   5.413
16457TIP3    H249249   1.587   7.741   5.268
16458TIP3   OH249250   2.148   8.214   6.928
16458TIP3    H149251   2.121   8.214   6.837
16458TIP3    H249252   2.187   8.128   6.942
16459TIP3   OH249253   2.087   7.946   5.174
16459TIP3    H149254   2.066   7.956   5.266
16459TIP3    H249255   2.068   7.855   5.154
16460TIP3   OH249256   2.620   8.246   6.519
16460TIP3    H149257   2.700   8.277   6.478
16460TIP3    H249258   2.560   8.320   6.515
16461TIP3   OH249259   1.667   7.872   7.131
16461TIP3    H149260   1.752   7.867   7.087
16461TIP3    H249261   1.690   7.886   7.223
16462TIP3   OH249262   1.690   7.664   5.547
16462TIP3    H149263   1.670   7.634   5.636
16462TIP3    H249264   1.738   7.591   5.508
16463TIP3   OH249265   1.949   7.702   6.765
16463TIP3    H149266   1.900   7.774   6.802
16463TIP3    H249267   2.019   7.744   6.714
16464TIP3   OH249268   1.832   7.481   5.389
16464TIP3    H149269   1.803   7.487   5.298
16464TIP3    H249270   1.927   7.493   5.385
16465TIP3   OH249271   2.459   8.110   6.879
16465TIP3    H149272   2.540   8.059   6.882
16465TIP3    H249273   2.396   8.057   6.928
16466TIP3   OH249274   2.620   7.767   5.085
16466TIP3    H149275   2.610   7.728   4.998
16466TIP3    H249276   2.598   7.860   5.072
16467TIP3   OH249277   2.089   7.518   6.921
16467TIP3    H149278   2.112   7.446   6.863
16467TIP3    H249279   2.051   7.584   6.863
16468TIP3   OH249280   2.124   7.323   6.714
16468TIP3    H149281   2.154   7.366   6.634
16468TIP3    H249282   2.034   7.296   6.694
16469TIP3   OH249283   2.116   7.815   6.581
16469TIP3    H149284   2.202   7.854   6.599
16469TIP3    H249285   2.067   7.884   6.536
16470TIP3   OH249286   2.736   7.830   7.003
16470TIP3    H149287   2.802   7.761   6.992
16470TIP3    H249288   2.783   7.911   6.986
16471TIP3   OH249289   2.765   8.066   6.671
16471TIP3    H149290   2.705   8.128   6.630
16471TIP3    H249291   2.852   8.092   6.641
16472TIP3   OH249292   1.982   7.608   7.159
16472TIP3    H149293   1.921   7.537   7.179
16472TIP3    H249294   2.018   7.586   7.073
16473TIP3   OH249295   2.236   7.090   6.817
16473TIP3    H149296   2.200   7.172   6.783
16473TIP3    H249297   2.167   7.025   6.802
16474TIP3   OH249298   2.352   7.640   6.948
16474TIP3    H149299   2.337   7.730   6.977
16474TIP3    H249300   2.271   7.594   6.970
16475TIP3   OH249301   2.600   7.524   6.871
16475TIP3    H149302   2.526   7.564   6.918
16475TIP3    H249303   2.668   7.515   6.937
16476TIP3   OH249304   2.844   7.488   7.030
16476TIP3    H149305   2.853   7.393   7.039
16476TIP3    H249306   2.834   7.520   7.120
16477TIP3   OH249307   1.831   7.378   7.226
16477TIP3    H149308   1.843   7.292   7.186
16477TIP3    H249309   1.874   7.370   7.312
16478TIP3   OH249310   2.309   7.062   7.078
16478TIP3    H149311   2.381   6.998   7.071
16478TIP3    H249312   2.280   7.075   6.987
16479TIP3   OH249313   2.391   7.280   7.227
16479TIP3    H149314   2.365   7.210   7.168
16479TIP3    H249315   2.316   7.339   7.230
16480TIP3   OH249316   1.665   8.521   5.337
16480TIP3    H149317   1.754   8.502   5.307
16480TIP3    H249318   1.621   8.554   5.259
16481TIP3   OH249319   1.125   7.921   5.522
16481TIP3    H149320   1.219   7.931   5.512
16481TIP3    H249321   1.104   7.838   5.477
16482TIP3   OH249322   1.038   8.486   5.980
16482TIP3    H149323   0.980   8.437   5.921
16482TIP3    H249324   1.071   8.421   6.041
16483TIP3   OH249325   1.175   8.312   6.153
16483TIP3    H149326   1.178   8.244   6.221
16483TIP3    H249327   1.222   8.386   6.192
16484TIP3   OH249328   2.900   8.753   5.943
16484TIP3    H149329   2.934   8.758   6.032
16484TIP3    H249330   2.975   8.775   5.887
16485TIP3   OH249331   2.947   8.741   6.221
16485TIP3    H149332   2.895   8.661   6.214
16485TIP3    H249333   3.009   8.723   6.292
16486TIP3   OH249334   2.984   8.470   6.804
16486TIP3    H149335   2.912   8.478   6.867
16486TIP3    H249336   3.028   8.556   6.806
16487TIP3   OH249337   2.806   7.980   5.407
16487TIP3    H149338   2.861   8.051   5.377
16487TIP3    H249339   2.853   7.943   5.482
16488TIP3   OH249340   2.939   7.839   5.607
16488TIP3    H149341   2.873   7.808   5.668
16488TIP3    H249342   3.007   7.878   5.663
16489TIP3   OH249343   2.965   8.237   6.036
16489TIP3    H149344   3.019   8.165   6.003
16489TIP3    H249345   2.980   8.309   5.975
16490TIP3   OH249346   2.783   8.521   6.224
16490TIP3    H149347   2.718   8.567   6.278
16490TIP3    H249348   2.731   8.480   6.154
16491TIP3   OH249349   2.834   7.754   5.254
16491TIP3    H149350   2.759   7.754   5.195
16491TIP3    H249351   2.823   7.833   5.307
16492TIP3   OH249352   2.659   7.398   5.210
16492TIP3    H149353   2.625   7.411   5.122
16492TIP3    H249354   2.644   7.305   5.228
16493TIP3   OH249355   2.732   7.708   5.750
16493TIP3    H149356   2.744   7.614   5.741
16493TIP3    H249357   2.710   7.722   5.842
16494TIP3   OH249358   1.355   7.803   6.507
16494TIP3    H149359   1.346   7.764   6.420
16494TIP3    H249360   1.447   7.789   6.530
16495TIP3   OH249361   3.027   8.121   6.600
16495TIP3    H149362   3.082   8.045   6.582
16495TIP3    H249363   3.062   8.190   6.543
16496TIP3   OH249364   3.174   7.888   6.581
16496TIP3    H149365   3.104   7.855   6.637
16496TIP3    H249366   3.251   7.837   6.607
16497TIP3   OH249367   2.621   7.127   5.267
16497TIP3    H149368   2.713   7.121   5.290
16497TIP3    H249369   2.602   7.044   5.223
16498TIP3   OH249370   2.715   7.412   5.628
16498TIP3    H149371   2.766   7.332   5.639
16498TIP3    H249372   2.756   7.457   5.554
16499TIP3   OH249373   2.868   7.586   6.157
16499TIP3    H149374   2.948   7.606   6.108
16499TIP3    H249375   2.881   7.625   6.243
16500TIP3   OH249376   2.941   7.726   6.391
16500TIP3    H149377   2.871   7.758   6.447
16500TIP3    H249378   2.970   7.803   6.342
16501TIP3   OH249379   1.571   7.443   7.162
16501TIP3    H149380   1.665   7.438   7.181
16501TIP3    H249381   1.535   7.362   7.197
16502TIP3   OH249382   3.411   7.327   6.925
16502TIP3    H149383   3.476   7.274   6.878
16502TIP3    H249384   3.371   7.381   6.858
16503TIP3   OH249385   2.837   7.169   5.679
16503TIP3    H149386   2.885   7.154   5.760
16503TIP3    H249387   2.774   7.097   5.675
16504TIP3   OH249388   1.541   7.161   6.534
16504TIP3    H149389   1.594   7.081   6.529
16504TIP3    H249390   1.600   7.231   6.511
16505TIP3   OH249391   1.330   7.444   6.569
16505TIP3    H149392   1.387   7.442   6.492
16505TIP3    H249393   1.353   7.525   6.614
16506TIP3   OH249394   3.256   7.457   6.744
16506TIP3    H149395   3.188   7.500   6.796
16506TIP3    H249396   3.208   7.402   6.683
16507TIP3   OH249397   2.885   7.088   5.320
16507TIP3    H149398   2.929   7.027   5.260
16507TIP3    H249399   2.944   7.163   5.324
16508TIP3   OH249400   1.322   6.946   6.083
16508TIP3    H149401   1.235   6.928   6.118
16508TIP3    H249402   1.307   6.999   6.005
16509TIP3   OH249403   2.455   8.645   5.586
16509TIP3    H149404   2.511   8.636   5.509
16509TIP3    H249405   2.500   8.708   5.642
16510TIP3   OH249406   1.511   6.977   6.892
16510TIP3    H149407   1.474   6.987   6.980
16510TIP3    H249408   1.463   7.040   6.839
16511TIP3   OH249409   1.557   8.458   6.954
16511TIP3    H149410   1.468   8.424   6.948
16511TIP3    H249411   1.577   8.458   7.047
16512TIP3   OH249412   1.775   8.478   6.519
16512TIP3    H149413   1.719   8.549   6.487
16512TIP3    H249414   1.859   8.493   6.475
16513TIP3   OH249415   2.178   8.714   6.665
16513TIP3    H149416   2.217   8.707   6.752
16513TIP3    H249417   2.241   8.765   6.614
16514TIP3   OH249418   2.361   8.861   6.524
16514TIP3    H149419   2.422   8.806   6.474
16514TIP3    H249420   2.417   8.915   6.580
16515TIP3   OH249421   3.160   7.213   6.616
16515TIP3    H149422   3.083   7.227   6.560
16515TIP3    H249423   3.181   7.121   6.605
16516TIP3   OH249424   1.418   8.733   6.569
16516TIP3    H149425   1.334   8.774   6.548
16516TIP3    H249426   1.456   8.789   6.636
16517TIP3   OH249427   1.647   8.696   6.418
16517TIP3    H149428   1.563   8.711   6.461
16517TIP3    H249429   1.633   8.724   6.327
16518TIP3   OH249430   2.079   8.731   6.199
16518TIP3    H149431   2.017   8.746   6.128
16518TIP3    H249432   2.085   8.816   6.243
16519TIP3   OH249433   2.342   8.671   6.254
16519TIP3    H149434   2.251   8.690   6.231
16519TIP3    H249435   2.392   8.739   6.209
16520TIP3   OH249436   2.547   8.840   6.163
16520TIP3    H149437   2.541   8.927   6.124
16520TIP3    H249438   2.577   8.784   6.091
16521TIP3   OH249439   1.348   8.493   6.290
16521TIP3    H149440   1.374   8.470   6.380
16521TIP3    H249441   1.420   8.460   6.236
16522TIP3   OH249442   1.551   8.381   6.147
16522TIP3    H149443   1.564   8.296   6.190
16522TIP3    H249444   1.637   8.423   6.150
16523TIP3   OH249445   1.816   8.467   6.169
16523TIP3    H149446   1.838   8.375   6.158
16523TIP3    H249447   1.872   8.497   6.241
16524TIP3   OH249448   2.367   7.110   6.235
16524TIP3    H149449   2.333   7.043   6.295
16524TIP3    H249450   2.434   7.064   6.184
16525TIP3   OH249451   2.889   7.051   6.132
16525TIP3    H149452   2.936   7.089   6.057
16525TIP3    H249453   2.821   7.115   6.153
16526TIP3   OH249454   3.002   7.121   5.894
16526TIP3    H149455   3.070   7.058   5.869
16526TIP3    H249456   3.043   7.206   5.882
16527TIP3   OH249457   1.615   6.826   6.253
16527TIP3    H149458   1.526   6.791   6.260
16527TIP3    H249459   1.670   6.748   6.243
16528TIP3   OH249460   1.450   6.748   5.918
16528TIP3    H149461   1.473   6.794   5.837
16528TIP3    H249462   1.413   6.816   5.974
16529TIP3   OH249463   2.108   6.865   6.143
16529TIP3    H149464   2.155   6.923   6.083
16529TIP3    H249465   2.142   6.889   6.230
16530TIP3   OH249466   2.570   6.972   6.107
16530TIP3    H149467   2.636   6.952   6.041
16530TIP3    H249468   2.583   6.907   6.176
16531TIP3   OH249469   2.629   6.975   5.678
16531TIP3    H149470   2.561   7.031   5.715
16531TIP3    H249471   2.620   6.892   5.725
16532TIP3   OH249472   1.115   8.296   5.708
16532TIP3    H149473   1.025   8.302   5.740
16532TIP3    H249474   1.122   8.366   5.643
16533TIP3   OH249475   1.549   6.864   5.672
16533TIP3    H149476   1.594   6.801   5.615
16533TIP3    H249477   1.618   6.921   5.704
16534TIP3   OH249478   2.030   7.065   5.780
16534TIP3    H149479   2.092   7.025   5.842
16534TIP3    H249480   2.037   7.159   5.797
16535TIP3   OH249481   1.920   8.454   5.263
16535TIP3    H149482   2.004   8.479   5.226
16535TIP3    H249483   1.889   8.384   5.206
16536TIP3   OH249484   2.605   8.601   5.358
16536TIP3    H149485   2.600   8.506   5.350
16536TIP3    H249486   2.567   8.634   5.276
16537TIP3   OH249487   1.838   7.111   7.113
16537TIP3    H149488   1.809   7.045   7.177
16537TIP3    H249489   1.931   7.122   7.131
16538TIP3   OH249490   2.084   7.117   7.230
16538TIP3    H149491   2.166   7.098   7.185
16538TIP3    H249492   2.083   7.055   7.303
16539TIP3   OH249493   1.215   8.291   5.315
16539TIP3    H149494   1.215   8.316   5.408
16539TIP3    H249495   1.299   8.246   5.303
16540TIP3   OH249496   2.911   7.214   7.043
16540TIP3    H149497   2.929   7.187   7.133
16540TIP3    H249498   2.996   7.211   6.999
16541TIP3   OH249499   2.829   8.726   6.548
16541TIP3    H149500   2.755   8.695   6.495
16541TIP3    H249501   2.814   8.820   6.557
16542TIP3   OH249502   4.110   8.130   5.280
16542TIP3    H149503   4.077   8.216   5.254
16542TIP3    H249504   4.039   8.069   5.258
16543TIP3   OH249505   4.110   8.122   5.717
16543TIP3    H149506   4.162   8.104   5.795
16543TIP3    H249507   4.061   8.041   5.702
16544TIP3   OH249508   3.389   7.980   6.057
16544TIP3    H149509   3.423   7.917   6.122
16544TIP3    H249510   3.464   8.035   6.036
16545TIP3   OH249511   4.376   8.425   5.388
16545TIP3    H149512   4.364   8.358   5.455
16545TIP3    H249513   4.395   8.505   5.438
16546TIP3   OH249514   3.389   8.391   5.744
16546TIP3    H149515   3.374   8.297   5.746
16546TIP3    H249516   3.484   8.401   5.741
16547TIP3   OH249517   3.078   7.607   5.525
16547TIP3    H149518   3.044   7.692   5.551
16547TIP3    H249519   3.003   7.563   5.485
16548TIP3   OH249520   3.165   7.925   5.747
16548TIP3    H149521   3.214   7.849   5.777
16548TIP3    H249522   3.232   7.991   5.730
16549TIP3   OH249523   4.040   8.849   5.403
16549TIP3    H149524   4.064   8.789   5.333
16549TIP3    H249525   4.051   8.798   5.483
16550TIP3   OH249526   3.912   8.340   5.723
16550TIP3    H149527   3.958   8.260   5.698
16550TIP3    H249528   3.981   8.400   5.751
16551TIP3   OH249529   4.960   7.656   5.738
16551TIP3    H149530   4.967   7.744   5.776
16551TIP3    H249531   4.997   7.666   5.650
16552TIP3   OH249532   4.313   7.821   5.748
16552TIP3    H149533   4.346   7.735   5.776
16552TIP3    H249534   4.283   7.807   5.658
16553TIP3   OH249535   3.675   7.481   5.710
16553TIP3    H149536   3.656   7.555   5.653
16553TIP3    H249537   3.617   7.411   5.678
16554TIP3   OH249538   4.375   7.586   5.344
16554TIP3    H149539   4.440   7.579   5.415
16554TIP3    H249540   4.424   7.620   5.270
16555TIP3   OH249541   3.295   7.700   5.844
16555TIP3    H149542   3.379   7.687   5.887
16555TIP3    H249543   3.302   7.650   5.762
16556TIP3   OH249544   3.725   7.904   5.639
16556TIP3    H149545   3.819   7.888   5.654
16556TIP3    H249546   3.691   7.819   5.612
16557TIP3   OH249547   5.000   7.885   5.896
16557TIP3    H149548   4.910   7.918   5.890
16557TIP3    H249549   5.034   7.919   5.978
16558TIP3   OH249550   3.656   7.493   6.163
16558TIP3    H149551   3.606   7.533   6.092
16558TIP3    H249552   3.605   7.509   6.242
16559TIP3   OH249553   4.003   8.347   5.145
16559TIP3    H149554   3.963   8.317   5.063
16559TIP3    H249555   3.951   8.423   5.171
16560TIP3   OH249556   3.757   8.255   5.938
16560TIP3    H149557   3.706   8.325   5.979
16560TIP3    H249558   3.806   8.299   5.869
16561TIP3   OH249559   4.537   7.606   5.564
16561TIP3    H149560   4.488   7.585   5.643
16561TIP3    H249561   4.590   7.682   5.587
16562TIP3   OH249562   3.544   7.594   5.929
16562TIP3    H149563   3.596   7.671   5.950
16562TIP3    H249564   3.592   7.550   5.859
16563TIP3   OH249565   3.600   8.458   6.046
16563TIP3    H149566   3.593   8.549   6.019
16563TIP3    H249567   3.517   8.440   6.091
16564TIP3   OH249568   2.973   8.171   5.290
16564TIP3    H149569   2.942   8.194   5.203
16564TIP3    H249570   2.997   8.254   5.331
16565TIP3   OH249571   4.406   8.672   5.528
16565TIP3    H149572   4.318   8.666   5.566
16565TIP3    H249573   4.407   8.757   5.484
16566TIP3   OH249574   4.762   7.546   5.906
16566TIP3    H149575   4.676   7.567   5.870
16566TIP3    H249576   4.824   7.573   5.839
16567TIP3   OH249577   3.997   7.181   5.898
16567TIP3    H149578   3.990   7.089   5.923
16567TIP3    H249579   3.920   7.223   5.936
16568TIP3   OH249580   4.120   8.710   5.176
16568TIP3    H149581   4.172   8.631   5.169
16568TIP3    H249582   4.179   8.780   5.148
16569TIP3   OH249583   4.253   8.476   5.146
16569TIP3    H149584   4.180   8.414   5.144
16569TIP3    H249585   4.304   8.450   5.223
16570TIP3   OH249586   4.646   8.557   5.869
16570TIP3    H149587   4.625   8.482   5.814
16570TIP3    H249588   4.631   8.633   5.813
16571TIP3   OH249589   3.935   7.963   5.139
16571TIP3    H149590   3.852   8.006   5.119
16571TIP3    H249591   3.982   7.963   5.056
16572TIP3   OH249592   3.899   7.779   4.822
16572TIP3    H149593   3.963   7.826   4.874
16572TIP3    H249594   3.949   7.710   4.778
16573TIP3   OH249595   4.824   8.223   5.735
16573TIP3    H149596   4.739   8.266   5.734
16573TIP3    H249597   4.859   8.236   5.647
16574TIP3   OH249598   4.295   8.054   5.095
16574TIP3    H149599   4.241   8.084   5.167
16574TIP3    H249600   4.378   8.028   5.135
16575TIP3   OH249601   4.528   8.082   6.050
16575TIP3    H149602   4.520   8.165   6.096
16575TIP3    H249603   4.447   8.076   5.998
16576TIP3   OH249604   3.523   8.035   5.498
16576TIP3    H149605   3.489   7.972   5.434
16576TIP3    H249606   3.598   7.991   5.537
16577TIP3   OH249607   3.656   8.450   5.653
16577TIP3    H149608   3.638   8.436   5.560
16577TIP3    H249609   3.743   8.413   5.666
16578TIP3   OH249610   3.619   8.032   5.862
16578TIP3    H149611   3.663   7.998   5.785
16578TIP3    H249612   3.670   8.109   5.887
16579TIP3   OH249613   4.164   8.676   5.654
16579TIP3    H149614   4.158   8.754   5.710
16579TIP3    H249615   4.153   8.602   5.714
16580TIP3   OH249616   3.797   8.587   6.212
16580TIP3    H149617   3.732   8.639   6.260
16580TIP3    H249618   3.748   8.513   6.177
16581TIP3   OH249619   4.122   7.916   4.929
16581TIP3    H149620   4.183   7.973   4.976
16581TIP3    H249621   4.153   7.917   4.839
16582TIP3   OH249622   3.553   8.065   6.301
16582TIP3    H149623   3.627   8.096   6.352
16582TIP3    H249624   3.487   8.134   6.309
16583TIP3   OH249625   3.871   8.586   5.182
16583TIP3    H149626   3.951   8.638   5.190
16583TIP3    H249627   3.812   8.643   5.132
16584TIP3   OH249628   3.574   8.738   6.288
16584TIP3    H149629   3.556   8.735   6.194
16584TIP3    H249630   3.489   8.719   6.329
16585TIP3   OH249631   4.635   7.143   4.992
16585TIP3    H149632   4.560   7.165   5.048
16585TIP3    H249633   4.644   7.218   4.934
16586TIP3   OH249634   3.397   7.873   5.299
16586TIP3    H149635   3.318   7.920   5.272
16586TIP3    H249636   3.367   7.786   5.322
16587TIP3   OH249637   4.465   8.515   4.546
16587TIP3    H149638   4.458   8.608   4.526
16587TIP3    H249639   4.554   8.491   4.519
16588TIP3   OH249640   3.169   8.285   6.230
16588TIP3    H149641   3.097   8.256   6.173
16588TIP3    H249642   3.200   8.204   6.271
16589TIP3   OH249643   3.067   8.450   5.880
16589TIP3    H149644   3.158   8.433   5.855
16589TIP3    H249645   3.073   8.523   5.942
16590TIP3   OH249646   4.883   8.923   5.946
16590TIP3    H149647   4.888   8.829   5.961
16590TIP3    H249648   4.803   8.950   5.991
16591TIP3   OH249649   3.976   8.719   6.060
16591TIP3    H149650   3.974   8.809   6.090
16591TIP3    H249651   3.912   8.673   6.115
16592TIP3   OH249652   3.756   8.790   5.017
16592TIP3    H149653   3.712   8.783   4.932
16592TIP3    H249654   3.728   8.874   5.052
16593TIP3   OH249655   3.196   8.654   5.402
16593TIP3    H149656   3.245   8.647   5.485
16593TIP3    H249657   3.150   8.571   5.394
16594TIP3   OH249658   3.968   8.734   4.646
16594TIP3    H149659   4.020   8.661   4.613
16594TIP3    H249660   3.998   8.745   4.737
16595TIP3   OH249661   4.011   8.770   4.917
16595TIP3    H149662   3.922   8.771   4.952
16595TIP3    H249663   4.064   8.735   4.988
16596TIP3   OH249664   4.771   8.035   6.203
16596TIP3    H149665   4.686   8.050   6.161
16596TIP3    H249666   4.786   7.941   6.193
16597TIP3   OH249667   3.357   8.480   6.190
16597TIP3    H149668   3.414   8.461   6.264
16597TIP3    H249669   3.287   8.415   6.196
16598TIP3   OH249670   3.758   7.273   6.023
16598TIP3    H149671   3.674   7.242   5.989
16598TIP3    H249672   3.737   7.356   6.066
16599TIP3   OH249673   4.297   7.394   6.227
16599TIP3    H149674   4.363   7.374   6.293
16599TIP3    H249675   4.214   7.384   6.274
16600TIP3   OH249676   4.521   7.815   6.145
16600TIP3    H149677   4.477   7.806   6.229
16600TIP3    H249678   4.502   7.905   6.118
16601TIP3   OH249679   4.203   7.884   4.667
16601TIP3    H149680   4.157   7.891   4.583
16601TIP3    H249681   4.285   7.931   4.653
16602TIP3   OH249682   3.906   7.318   4.987
16602TIP3    H149683   3.871   7.325   5.076
16602TIP3    H249684   3.873   7.234   4.955
16603TIP3   OH249685   3.690   7.809   6.012
16603TIP3    H149686   3.642   7.814   6.095
16603TIP3    H249687   3.670   7.892   5.969
16604TIP3   OH249688   3.580   7.682   5.549
16604TIP3    H149689   3.491   7.661   5.576
16604TIP3    H249690   3.587   7.649   5.459
16605TIP3   OH249691   4.054   7.756   5.276
16605TIP3    H149692   4.009   7.831   5.236
16605TIP3    H249693   4.114   7.725   5.207
16606TIP3   OH249694   4.280   8.025   6.341
16606TIP3    H149695   4.237   7.973   6.409
16606TIP3    H249696   4.369   8.039   6.375
16607TIP3   OH249697   4.231   7.774   5.492
16607TIP3    H149698   4.158   7.792   5.433
16607TIP3    H249699   4.277   7.701   5.452
16608TIP3   OH249700   3.527   7.804   6.232
16608TIP3    H149701   3.538   7.888   6.278
16608TIP3    H249702   3.519   7.740   6.302
16609TIP3   OH249703   3.574   7.292   4.965
16609TIP3    H149704   3.568   7.298   5.061
16609TIP3    H249705   3.497   7.340   4.933
16610TIP3   OH249706   3.136   7.344   5.831
16610TIP3    H149707   3.198   7.382   5.893
16610TIP3    H249708   3.182   7.348   5.747
16611TIP3   OH249709   3.029   7.324   5.333
16611TIP3    H149710   3.075   7.362   5.258
16611TIP3    H249711   2.964   7.390   5.357
16612TIP3   OH249712   4.284   8.028   5.921
16612TIP3    H149713   4.301   7.959   5.857
16612TIP3    H249714   4.238   7.984   5.992
16613TIP3   OH249715   3.942   7.469   5.597
16613TIP3    H149716   3.866   7.470   5.655
16613TIP3    H249717   4.017   7.461   5.657
16614TIP3   OH249718   3.338   7.561   5.610
16614TIP3    H149719   3.251   7.565   5.570
16614TIP3    H249720   3.369   7.472   5.593
16615TIP3   OH249721   3.588   7.562   5.300
16615TIP3    H149722   3.683   7.573   5.294
16615TIP3    H249723   3.556   7.581   5.212
16616TIP3   OH249724   4.387   7.556   5.789
16616TIP3    H149725   4.384   7.566   5.884
16616TIP3    H249726   4.314   7.498   5.768
16617TIP3   OH249727   3.483   7.587   5.047
16617TIP3    H149728   3.419   7.538   4.995
16617TIP3    H249729   3.536   7.633   4.982
16618TIP3   OH249730   7.853   0.021   6.029
16618TIP3    H149731   7.851   0.035   5.934
16618TIP3    H249732   7.928   0.073   6.059
16619TIP3   OH249733   3.514   8.377   6.396
16619TIP3    H149734   3.596   8.336   6.420
16619TIP3    H249735   3.469   8.392   6.479
16620TIP3   OH249736   3.992   7.851   5.711
16620TIP3    H149737   4.066   7.805   5.672
16620TIP3    H249738   3.987   7.817   5.801
16621TIP3   OH249739   3.475   7.313   5.593
16621TIP3    H149740   3.449   7.236   5.645
16621TIP3    H249741   3.500   7.277   5.508
16622TIP3   OH249742   3.964   7.760   5.980
16622TIP3    H149743   3.875   7.795   5.989
16622TIP3    H249744   4.020   7.826   6.022
16623TIP3   OH249745   3.696   8.094   5.081
16623TIP3    H149746   3.620   8.042   5.054
16623TIP3    H249747   3.668   8.139   5.161
16624TIP3   OH249748   4.587   8.356   5.690
16624TIP3    H149749   4.622   8.406   5.616
16624TIP3    H249750   4.508   8.315   5.656
16625TIP3   OH249751   4.161   7.418   4.997
16625TIP3    H149752   4.068   7.398   4.990
16625TIP3    H249753   4.165   7.513   5.007
16626TIP3   OH249754   4.095   8.450   6.094
16626TIP3    H149755   4.123   8.425   6.183
16626TIP3    H249756   4.041   8.528   6.107
16627TIP3   OH249757   4.220   7.685   5.060
16627TIP3    H149758   4.316   7.688   5.070
16627TIP3    H249759   4.199   7.762   5.008
16628TIP3   OH249760   3.384   8.105   5.728
16628TIP3    H149761   3.424   8.090   5.642
16628TIP3    H249762   3.451   8.076   5.791
16629TIP3   OH249763   3.843   8.265   4.927
16629TIP3    H149764   3.793   8.346   4.925
16629TIP3    H249765   3.790   8.206   4.980
16630TIP3   OH249766   3.268   8.097   6.414
16630TIP3    H149767   3.336   8.110   6.479
16630TIP3    H249768   3.230   8.011   6.435
16631TIP3   OH249769   4.251   8.735   5.991
16631TIP3    H149770   4.157   8.716   5.994
16631TIP3    H249771   4.272   8.766   6.079
16632TIP3   OH249772   4.630   7.772   4.872
16632TIP3    H149773   4.573   7.726   4.810
16632TIP3    H249774   4.636   7.861   4.836
16633TIP3   OH249775   4.890   8.645   5.960
16633TIP3    H149776   4.796   8.629   5.955
16633TIP3    H249777   4.924   8.617   5.875
16634TIP3   OH249778   4.376   8.578   4.811
16634TIP3    H149779   4.349   8.507   4.870
16634TIP3    H249780   4.398   8.534   4.729
16635TIP3   OH249781   4.360   8.221   5.587
16635TIP3    H149782   4.272   8.199   5.616
16635TIP3    H249783   4.394   8.140   5.548
16636TIP3   OH249784   3.520   8.459   5.405
16636TIP3    H149785   3.515   8.535   5.347
16636TIP3    H249786   3.432   8.452   5.442
16637TIP3   OH249787   3.064   7.745   5.102
16637TIP3    H149788   3.111   7.825   5.127
16637TIP3    H249789   2.986   7.745   5.158
16638TIP3   OH249790   3.590   8.217   5.297
16638TIP3    H149791   3.580   8.306   5.331
16638TIP3    H249792   3.569   8.160   5.371
16639TIP3   OH249793   3.798   8.782   5.855
16639TIP3    H149794   3.837   8.855   5.806
16639TIP3    H249795   3.869   8.750   5.910
16640TIP3   OH249796   3.429   8.676   5.255
16640TIP3    H149797   3.341   8.683   5.292
16640TIP3    H249798   3.466   8.764   5.263
16641TIP3   OH249799   4.147   8.453   5.825
16641TIP3    H149800   4.131   8.451   5.919
16641TIP3    H249801   4.218   8.390   5.811
16642TIP3   OH249802   4.146   8.323   4.694
16642TIP3    H149803   4.196   8.294   4.771
16642TIP3    H249804   4.062   8.277   4.703
16643TIP3   OH249805   4.412   8.929   5.871
16643TIP3    H149806   4.345   8.866   5.899
16643TIP3    H249807   4.369   8.981   5.804
16644TIP3   OH249808   4.464   8.788   4.508
16644TIP3    H149809   4.513   8.861   4.470
16644TIP3    H249810   4.383   8.827   4.541
16645TIP3   OH249811   3.493   7.553   6.381
16645TIP3    H149812   3.398   7.561   6.389
16645TIP3    H249813   3.520   7.505   6.459
16646TIP3   OH249814   4.321   8.237   4.887
16646TIP3    H149815   4.305   8.183   4.964
16646TIP3    H249816   4.416   8.244   4.882
16647TIP3   OH249817   3.213   8.668   6.026
16647TIP3    H149818   3.267   8.610   6.080
16647TIP3    H249819   3.225   8.755   6.064
16648TIP3   OH249820   3.495   8.291   4.720
16648TIP3    H149821   3.507   8.199   4.695
16648TIP3    H249822   3.484   8.288   4.815
16649TIP3   OH249823   3.431   8.312   4.993
16649TIP3    H149824   3.493   8.292   5.063
16649TIP3    H249825   3.428   8.408   4.992
16650TIP3   OH249826   3.166   7.991   5.194
16650TIP3    H149827   3.104   8.039   5.248
16650TIP3    H249828   3.188   8.050   5.123
16651TIP3   OH249829   4.374   7.595   6.054
16651TIP3    H149830   4.427   7.660   6.099
16651TIP3    H249831   4.348   7.533   6.122
16652TIP3   OH249832   4.225   7.367   5.263
16652TIP3    H149833   4.204   7.385   5.171
16652TIP3    H249834   4.269   7.446   5.294
16653TIP3   OH249835   3.691   8.491   4.919
16653TIP3    H149836   3.608   8.520   4.956
16653TIP3    H249837   3.723   8.565   4.868
16654TIP3   OH249838   3.866   7.569   5.349
16654TIP3    H149839   3.928   7.637   5.323
16654TIP3    H249840   3.891   7.547   5.439
16655TIP3   OH249841   4.182   7.880   6.129
16655TIP3    H149842   4.208   7.934   6.203
16655TIP3    H249843   4.212   7.792   6.151
16656TIP3   OH249844   4.035   7.260   5.433
16656TIP3    H149845   4.012   7.337   5.486
16656TIP3    H249846   4.107   7.290   5.378
16657TIP3   OH249847   3.443   8.588   4.997
16657TIP3    H149848   3.406   8.660   4.946
16657TIP3    H249849   3.441   8.620   5.087
16658TIP3   OH249850   3.547   7.289   5.245
16658TIP3    H149851   3.536   7.380   5.272
16658TIP3    H249852   3.641   7.273   5.252
16659TIP3   OH249853   4.785   7.762   6.115
16659TIP3    H149854   4.691   7.771   6.129
16659TIP3    H249855   4.792   7.704   6.039
16660TIP3   OH249856   4.452   7.963   5.497
16660TIP3    H149857   4.375   7.907   5.506
16660TIP3    H249858   4.517   7.923   5.554
16661TIP3   OH249859   3.193   8.170   4.981
16661TIP3    H149860   3.263   8.234   4.990
16661TIP3    H249861   3.226   8.109   4.914
16662TIP3   OH249862   3.101   7.469   5.113
16662TIP3    H149863   3.107   7.564   5.118
16662TIP3    H249864   3.075   7.451   5.023
16663TIP3   OH249865   4.431   8.938   5.451
16663TIP3    H149866   4.386   8.990   5.385
16663TIP3    H249867   4.524   8.952   5.434
16664TIP3   OH249868   3.495   7.189   5.976
16664TIP3    H149869   3.466   7.158   5.891
16664TIP3    H249870   3.487   7.113   6.034
16665TIP3   OH249871   3.023   8.432   5.390
16665TIP3    H149872   2.986   8.469   5.470
16665TIP3    H249873   2.977   8.477   5.319
16666TIP3   OH249874   3.242   8.975   6.437
16666TIP3    H149875   3.314   8.996   6.496
16666TIP3    H249876   3.249   8.881   6.423
16667TIP3   OH249877   3.684   8.901   6.480
16667TIP3    H149878   3.770   8.862   6.495
16667TIP3    H249879   3.646   8.849   6.409
16668TIP3   OH249880   3.644   8.493   4.602
16668TIP3    H149881   3.599   8.425   4.651
16668TIP3    H249882   3.721   8.449   4.565
16669TIP3   OH249883   4.308   8.826   6.243
16669TIP3    H149884   4.326   8.756   6.305
16669TIP3    H249885   4.381   8.887   6.253
16670TIP3   OH249886   4.093   8.527   4.522
16670TIP3    H149887   4.127   8.462   4.584
16670TIP3    H249888   4.151   8.520   4.446
16671TIP3   OH249889   3.335   8.393   6.621
16671TIP3    H149890   3.364   8.302   6.631
16671TIP3    H249891   3.247   8.386   6.583
16672TIP3   OH249892   3.312   7.982   4.821
16672TIP3    H149893   3.362   7.956   4.898
16672TIP3    H249894   3.378   7.998   4.753
16673TIP3   OH249895   3.894   8.203   4.665
16673TIP3    H149896   3.868   8.215   4.757
16673TIP3    H249897   3.872   8.112   4.646
16674TIP3   OH249898   4.422   8.508   6.027
16674TIP3    H149899   4.497   8.537   5.976
16674TIP3    H249900   4.355   8.574   6.011
16675TIP3   OH249901   3.460   8.142   6.619
16675TIP3    H149902   3.548   8.143   6.581
16675TIP3    H249903   3.475   8.148   6.714
16676TIP3   OH249904   3.484   7.921   5.031
16676TIP3    H149905   3.467   7.892   5.121
16676TIP3    H249906   3.533   7.850   4.991
16677TIP3   OH249907   3.626   7.741   4.870
16677TIP3    H149908   3.598   7.747   4.778
16677TIP3    H249909   3.721   7.752   4.867
16678TIP3   OH249910   4.299   8.385   6.378
16678TIP3    H149911   4.351   8.340   6.312
16678TIP3    H249912   4.296   8.324   6.452
16679TIP3   OH249913   4.419   8.024   4.562
16679TIP3    H149914   4.407   7.985   4.476
16679TIP3    H249915   4.397   8.117   4.549
16680TIP3   OH249916   3.942   7.792   6.363
16680TIP3    H149917   3.932   7.713   6.310
16680TIP3    H249918   3.898   7.860   6.314
16681TIP3   OH249919   3.919   7.574   6.187
16681TIP3    H149920   3.942   7.621   6.107
16681TIP3    H249921   3.827   7.551   6.176
16682TIP3   OH249922   3.925   8.050   6.026
16682TIP3    H149923   3.995   8.092   6.076
16682TIP3    H249924   3.866   8.121   6.003
16683TIP3   OH249925   4.531   8.060   6.464
16683TIP3    H149926   4.590   7.985   6.465
16683TIP3    H249927   4.588   8.136   6.457
16684TIP3   OH249928   4.544   8.326   6.187
16684TIP3    H149929   4.490   8.389   6.140
16684TIP3    H249930   4.632   8.342   6.155
16685TIP3   OH249931   3.791   7.871   6.660
16685TIP3    H149932   3.726   7.805   6.640
16685TIP3    H249933   3.777   7.940   6.595
16686TIP3   OH249934   4.031   7.349   6.306
16686TIP3    H149935   3.995   7.429   6.267
16686TIP3    H249936   3.965   7.282   6.290
16687TIP3   OH249937   4.169   7.831   6.509
16687TIP3    H149938   4.145   7.813   6.599
16687TIP3    H249939   4.089   7.817   6.459
16688TIP3   OH249940   4.401   7.748   6.378
16688TIP3    H149941   4.324   7.768   6.431
16688TIP3    H249942   4.473   7.742   6.441
16689TIP3   OH249943   4.647   7.743   6.526
16689TIP3    H149944   4.657   7.648   6.530
16689TIP3    H249945   4.640   7.770   6.618
16690TIP3   OH249946   3.619   7.640   6.707
16690TIP3    H149947   3.628   7.552   6.672
16690TIP3    H249948   3.662   7.637   6.792
16691TIP3   OH249949   4.098   7.318   6.570
16691TIP3    H149950   4.167   7.252   6.560
16691TIP3    H249951   4.068   7.334   6.480
16692TIP3   OH249952   4.197   7.531   6.717
16692TIP3    H149953   4.165   7.461   6.660
16692TIP3    H249954   4.128   7.597   6.713
16693TIP3   OH249955   2.920   8.172   4.997
16693TIP3    H149956   3.015   8.183   4.993
16693TIP3    H249957   2.903   8.087   4.957
16694TIP3   OH249958   2.809   8.740   5.476
16694TIP3    H149959   2.748   8.688   5.424
16694TIP3    H249960   2.853   8.676   5.532
16695TIP3   OH249961   2.965   8.572   5.635
16695TIP3    H149962   2.960   8.505   5.703
16695TIP3    H249963   3.017   8.642   5.674
16696TIP3   OH249964   4.701   8.988   5.435
16696TIP3    H149965   4.728   9.011   5.524
16696TIP3    H249966   4.755   9.044   5.379
16697TIP3   OH249967   4.741   9.002   5.714
16697TIP3    H149968   4.691   8.920   5.709
16697TIP3    H249969   4.806   8.986   5.782
16698TIP3   OH249970   4.790   8.724   6.288
16698TIP3    H149971   4.714   8.733   6.346
16698TIP3    H249972   4.833   8.809   6.291
16699TIP3   OH249973   4.599   8.237   4.891
16699TIP3    H149974   4.657   8.307   4.861
16699TIP3    H249975   4.643   8.200   4.967
16700TIP3   OH249976   4.724   8.096   5.095
16700TIP3    H149977   4.656   8.056   5.149
16700TIP3    H249978   4.789   8.127   5.158
16701TIP3   OH249979   4.773   8.496   5.533
16701TIP3    H149980   4.823   8.429   5.486
16701TIP3    H249981   4.775   8.572   5.474
16702TIP3   OH249982   4.582   8.776   5.717
16702TIP3    H149983   4.518   8.823   5.769
16702TIP3    H249984   4.532   8.737   5.646
16703TIP3   OH249985   4.631   8.012   4.737
16703TIP3    H149986   4.558   8.010   4.674
16703TIP3    H249987   4.616   8.090   4.790
16704TIP3   OH249988   4.476   7.657   4.676
16704TIP3    H149989   4.432   7.691   4.599
16704TIP3    H249990   4.471   7.561   4.666
16705TIP3   OH249991   4.521   7.955   5.228
16705TIP3    H149992   4.525   7.861   5.213
16705TIP3    H249993   4.502   7.964   5.321
16706TIP3   OH249994   3.128   8.019   6.002
16706TIP3    H149995   3.123   7.988   5.912
16706TIP3    H249996   3.222   8.014   6.024
16707TIP3   OH249997   4.801   8.371   6.093
16707TIP3    H149998   4.869   8.306   6.076
16707TIP3    H249999   4.810   8.434   6.021
16708TIP3   OH250000   4.983   8.162   6.085
16708TIP3    H150001   4.908   8.120   6.128
16708TIP3    H250002   5.057   8.105   6.106
16709TIP3   OH250003   4.444   7.384   4.643
16709TIP3    H150004   4.510   7.360   4.708
16709TIP3    H250005   4.362   7.348   4.677
16710TIP3   OH250006   4.513   7.680   5.114
16710TIP3    H150007   4.559   7.598   5.128
16710TIP3    H250008   4.553   7.718   5.036
16711TIP3   OH250009   4.664   7.842   5.644
16711TIP3    H150010   4.746   7.858   5.598
16711TIP3    H250011   4.676   7.883   5.730
16712TIP3   OH250012   4.740   7.995   5.870
16712TIP3    H150013   4.669   8.022   5.928
16712TIP3    H250014   4.768   8.075   5.827
16713TIP3   OH250015   3.357   7.689   6.636
16713TIP3    H150016   3.450   7.690   6.658
16713TIP3    H250017   3.323   7.612   6.683
16714TIP3   OH250018   5.206   7.585   6.406
16714TIP3    H150019   5.272   7.532   6.362
16714TIP3    H250020   5.167   7.638   6.336
16715TIP3   OH250021   4.631   7.434   5.171
16715TIP3    H150022   4.681   7.421   5.252
16715TIP3    H250023   4.571   7.360   5.168
16716TIP3   OH250024   3.336   7.415   6.011
16716TIP3    H150025   3.391   7.336   6.010
16716TIP3    H250026   3.396   7.486   5.989
16717TIP3   OH250027   3.107   7.679   6.055
16717TIP3    H150028   3.165   7.675   5.979
16717TIP3    H250029   3.125   7.764   6.094
16718TIP3   OH250030   5.054   7.712   6.219
16718TIP3    H150031   4.978   7.752   6.261
16718TIP3    H250032   5.016   7.645   6.161
16719TIP3   OH250033   4.667   7.340   4.802
16719TIP3    H150034   4.716   7.280   4.747
16719TIP3    H250035   4.722   7.418   4.810
16720TIP3   OH250036   3.105   7.172   5.547
16720TIP3    H150037   3.023   7.168   5.596
16720TIP3    H250038   3.089   7.236   5.478
16721TIP3   OH250039   4.271   8.908   5.073
16721TIP3    H150040   4.320   8.889   4.993
16721TIP3    H250041   4.320   8.978   5.116
16722TIP3   OH250042   3.329   7.223   6.384
16722TIP3    H150043   3.284   7.231   6.468
16722TIP3    H250044   3.277   7.277   6.324
16723TIP3   OH250045   3.343   8.709   6.444
16723TIP3    H150046   3.252   8.677   6.442
16723TIP3    H250047   3.375   8.681   6.530
16724TIP3   OH250048   3.574   8.731   6.006
16724TIP3    H150049   3.518   8.800   5.971
16724TIP3    H250050   3.658   8.743   5.963
16725TIP3   OH250051   3.972   8.978   6.151
16725TIP3    H150052   4.010   8.964   6.238
16725TIP3    H250053   4.038   9.028   6.104
16726TIP3   OH250054   4.159   9.119   6.011
16726TIP3    H150055   4.211   9.063   5.954
16726TIP3    H250056   4.224   9.163   6.066
16727TIP3   OH250057   4.962   7.467   6.101
16727TIP3    H150058   4.882   7.473   6.048
16727TIP3    H250059   4.988   7.375   6.093
16728TIP3   OH250060   3.219   8.962   6.046
16728TIP3    H150061   3.129   8.989   6.027
16728TIP3    H250062   3.249   9.024   6.113
16729TIP3   OH250063   3.451   8.949   5.898
16729TIP3    H150064   3.366   8.954   5.942
16729TIP3    H250065   3.432   8.975   5.807
16730TIP3   OH250066   3.880   8.994   5.696
16730TIP3    H150067   3.806   8.999   5.636
16730TIP3    H250068   3.881   9.080   5.739
16731TIP3   OH250069   4.145   8.940   5.749
16731TIP3    H150070   4.053   8.953   5.725
16731TIP3    H250071   4.192   9.005   5.697
16732TIP3   OH250072   4.352   9.108   5.654
16732TIP3    H150073   4.337   9.193   5.611
16732TIP3    H250074   4.377   9.050   5.582
16733TIP3   OH250075   3.143   8.749   5.774
16733TIP3    H150076   3.168   8.727   5.863
16733TIP3    H250077   3.214   8.716   5.719
16734TIP3   OH250078   3.347   8.638   5.632
16734TIP3    H150079   3.359   8.553   5.675
16734TIP3    H250080   3.433   8.679   5.637
16735TIP3   OH250081   3.613   8.726   5.657
16735TIP3    H150082   3.632   8.634   5.643
16735TIP3    H250083   3.668   8.751   5.731
16736TIP3   OH250084   4.170   7.376   5.734
16736TIP3    H150085   4.133   7.307   5.788
16736TIP3    H250086   4.239   7.333   5.683
16737TIP3   OH250087   4.681   7.303   5.617
16737TIP3    H150088   4.721   7.353   5.546
16737TIP3    H250089   4.591   7.336   5.622
16738TIP3   OH250090   4.802   7.387   5.383
16738TIP3    H150091   4.868   7.323   5.358
16738TIP3    H250092   4.844   7.472   5.369
16739TIP3   OH250093   3.408   7.082   5.736
16739TIP3    H150094   3.320   7.047   5.746
16739TIP3    H250095   3.465   7.005   5.729
16740TIP3   OH250096   3.215   6.979   5.376
16740TIP3    H150097   3.252   7.029   5.304
16740TIP3    H250098   3.185   7.045   5.439
16741TIP3   OH250099   3.894   7.121   5.637
16741TIP3    H150100   3.942   7.167   5.567
16741TIP3    H250101   3.935   7.152   5.718
16742TIP3   OH250102   4.384   7.254   5.608
16742TIP3    H150103   4.411   7.219   5.524
16742TIP3    H250104   4.395   7.180   5.669
16743TIP3   OH250105   4.448   7.220   5.180
16743TIP3    H150106   4.368   7.267   5.205
16743TIP3    H250107   4.437   7.133   5.217
16744TIP3   OH250108   2.898   8.558   5.185
16744TIP3    H150109   2.816   8.521   5.151
16744TIP3    H250110   2.908   8.641   5.138
16745TIP3   OH250111   3.339   7.119   5.154
16745TIP3    H150112   3.386   7.060   5.095
16745TIP3    H250113   3.407   7.176   5.191
16746TIP3   OH250114   3.822   7.317   5.252
16746TIP3    H150115   3.883   7.265   5.304
16746TIP3    H250116   3.837   7.407   5.281
16747TIP3   OH250117   3.712   8.715   4.750
16747TIP3    H150118   3.795   8.735   4.708
16747TIP3    H250119   3.671   8.649   4.693
16748TIP3   OH250120   4.405   8.847   4.839
16748TIP3    H150121   4.398   8.751   4.834
16748TIP3    H250122   4.363   8.878   4.759
16749TIP3   OH250123   3.633   7.367   6.616
16749TIP3    H150124   3.598   7.300   6.675
16749TIP3    H250125   3.725   7.375   6.641
16750TIP3   OH250126   3.880   7.369   6.741
16750TIP3    H150127   3.959   7.350   6.689
16750TIP3    H250128   3.875   7.296   6.803
16751TIP3   OH250129   3.025   8.565   4.798
16751TIP3    H150130   3.038   8.597   4.888
16751TIP3    H250131   3.103   8.513   4.780
16752TIP3   OH250132   4.709   7.470   6.528
16752TIP3    H150133   4.727   7.441   6.618
16752TIP3    H250134   4.793   7.464   6.483
16753TIP3   OH250135   4.631   8.989   6.033
16753TIP3    H150136   4.557   8.959   5.981
16753TIP3    H250137   4.617   9.084   6.041
16754TIP3   OH250138   5.895   8.374   4.771
16754TIP3    H150139   5.855   8.461   4.764
16754TIP3    H250140   5.830   8.315   4.733
16755TIP3   OH250141   5.954   8.395   5.208
16755TIP3    H150142   5.999   8.360   5.285
16755TIP3    H250143   5.890   8.327   5.186
16756TIP3   OH250144   5.209   8.293   5.563
16756TIP3    H150145   5.235   8.206   5.592
16756TIP3    H250146   5.252   8.353   5.623
16757TIP3   OH250147   6.172   8.686   4.868
16757TIP3    H150148   6.166   8.617   4.934
16757TIP3    H250149   6.191   8.766   4.918
16758TIP3   OH250150   5.206   8.655   5.269
16758TIP3    H150151   5.196   8.560   5.263
16758TIP3    H250152   5.264   8.668   5.345
16759TIP3   OH250153   4.873   7.874   4.999
16759TIP3    H150154   4.833   7.957   5.027
16759TIP3    H250155   4.801   7.826   4.959
16760TIP3   OH250156   4.954   8.167   5.242
16760TIP3    H150157   4.999   8.088   5.270
16760TIP3    H250158   5.021   8.221   5.201
16761TIP3   OH250159   5.852   9.087   4.901
16761TIP3    H150160   5.866   9.026   4.829
16761TIP3    H250161   5.874   9.037   4.979
16762TIP3   OH250162   6.757   7.912   5.219
16762TIP3    H150163   6.766   7.999   5.257
16762TIP3    H250164   6.786   7.922   5.129
16763TIP3   OH250165   6.108   8.083   5.230
16763TIP3    H150166   6.138   7.996   5.259
16763TIP3    H250167   6.074   8.068   5.142
16764TIP3   OH250168   5.462   7.771   5.167
16764TIP3    H150169   5.422   7.852   5.136
16764TIP3    H250170   5.407   7.702   5.130
16765TIP3   OH250171   6.173   7.845   4.835
16765TIP3    H150172   6.236   7.838   4.907
16765TIP3    H250173   6.224   7.878   4.761
16766TIP3   OH250174   5.093   7.953   5.341
16766TIP3    H150175   5.187   7.968   5.351
16766TIP3    H250176   5.087   7.884   5.275
16767TIP3   OH250177   6.796   8.137   5.383
16767TIP3    H150178   6.709   8.176   5.374
16767TIP3    H250179   6.831   8.175   5.464
16768TIP3   OH250180   5.456   7.744   5.653
16768TIP3    H150181   5.414   7.778   5.573
16768TIP3    H250182   5.393   7.764   5.723
16769TIP3   OH250183   5.726   8.575   4.681
16769TIP3    H150184   5.728   8.567   4.585
16769TIP3    H250185   5.699   8.666   4.697
16770TIP3   OH250186   5.590   8.560   5.449
16770TIP3    H150187   5.506   8.604   5.456
16770TIP3    H250188   5.651   8.629   5.421
16771TIP3   OH250189   6.325   7.866   5.062
16771TIP3    H150190   6.280   7.846   5.144
16771TIP3    H250191   6.381   7.941   5.083
16772TIP3   OH250192   5.356   7.835   5.417
16772TIP3    H150193   5.395   7.923   5.420
16772TIP3    H250194   5.389   7.797   5.336
16773TIP3   OH250195   5.364   8.716   5.502
16773TIP3    H150196   5.367   8.810   5.485
16773TIP3    H250197   5.294   8.705   5.566
16774TIP3   OH250198   4.770   8.424   4.773
16774TIP3    H150199   4.735   8.449   4.687
16774TIP3    H250200   4.794   8.508   4.813
16775TIP3   OH250201   6.202   8.933   5.012
16775TIP3    H150202   6.112   8.930   5.044
16775TIP3    H250203   6.208   9.017   4.965
16776TIP3   OH250204   6.559   7.799   5.388
16776TIP3    H150205   6.474   7.818   5.350
16776TIP3    H250206   6.622   7.826   5.322
16777TIP3   OH250207   5.795   7.438   5.385
16777TIP3    H150208   5.787   7.345   5.409
16777TIP3    H250209   5.717   7.479   5.422
16778TIP3   OH250210   5.914   8.954   4.665
16778TIP3    H150211   5.963   8.873   4.653
16778TIP3    H250212   5.975   9.024   4.641
16779TIP3   OH250213   6.058   8.732   4.621
16779TIP3    H150214   6.083   8.663   4.559
16779TIP3    H250215   6.101   8.708   4.703
16780TIP3   OH250216   6.440   8.816   5.359
16780TIP3    H150217   6.421   8.742   5.301
16780TIP3    H250218   6.424   8.894   5.306
16781TIP3   OH250219   5.726   8.216   4.616
16781TIP3    H150220   5.648   8.266   4.591
16781TIP3    H250221   5.778   8.212   4.536
16782TIP3   OH250222   5.709   8.027   4.304
16782TIP3    H150223   5.775   8.076   4.354
16782TIP3    H250224   5.760   7.962   4.255
16783TIP3   OH250225   6.614   8.477   5.223
16783TIP3    H150226   6.531   8.525   5.221
16783TIP3    H250227   6.651   8.488   5.136
16784TIP3   OH250228   6.090   8.320   4.584
16784TIP3    H150229   6.034   8.344   4.658
16784TIP3    H250230   6.172   8.292   4.623
16785TIP3   OH250231   6.329   8.340   5.543
16785TIP3    H150232   6.321   8.425   5.586
16785TIP3    H250233   6.249   8.332   5.491
16786TIP3   OH250234   5.441   8.215   4.962
16786TIP3    H150235   5.401   8.207   4.875
16786TIP3    H250236   5.367   8.210   5.023
16787TIP3   OH250237   5.952   8.938   5.126
16787TIP3    H150238   5.947   9.011   5.187
16787TIP3    H250239   5.949   8.860   5.181
16788TIP3   OH250240   5.578   8.811   5.679
16788TIP3    H150241   5.519   8.869   5.727
16788TIP3    H250242   5.520   8.755   5.628
16789TIP3   OH250243   5.924   8.172   4.419
16789TIP3    H150244   5.983   8.230   4.467
16789TIP3    H250245   5.951   8.180   4.328
16790TIP3   OH250246   5.322   8.394   5.803
16790TIP3    H150247   5.331   8.483   5.837
16790TIP3    H250248   5.234   8.368   5.831
16791TIP3   OH250249   5.660   8.844   4.676
16791TIP3    H150250   5.747   8.884   4.681
16791TIP3    H250251   5.608   8.905   4.624
16792TIP3   OH250252   5.379   8.978   5.774
16792TIP3    H150253   5.351   8.988   5.683
16792TIP3    H250254   5.298   8.966   5.823
16793TIP3   OH250255   6.430   7.398   4.481
16793TIP3    H150256   6.355   7.420   4.535
16793TIP3    H250257   6.441   7.472   4.422
16794TIP3   OH250258   5.216   8.148   4.784
16794TIP3    H150259   5.133   8.191   4.761
16794TIP3    H250260   5.190   8.061   4.813
16795TIP3   OH250261   6.258   8.775   4.032
16795TIP3    H150262   6.254   8.868   4.008
16795TIP3    H250263   6.348   8.748   4.012
16796TIP3   OH250264   4.975   8.541   5.723
16796TIP3    H150265   4.903   8.523   5.662
16796TIP3    H250266   5.003   8.454   5.752
16797TIP3   OH250267   4.815   8.735   5.392
16797TIP3    H150268   4.901   8.767   5.418
16797TIP3    H250269   4.756   8.809   5.411
16798TIP3   OH250270   6.679   9.183   5.427
16798TIP3    H150271   6.679   9.088   5.440
16798TIP3    H250272   6.599   9.213   5.470
16799TIP3   OH250273   5.770   8.960   5.545
16799TIP3    H150274   5.765   9.051   5.574
16799TIP3    H250275   5.701   8.915   5.595
16800TIP3   OH250276   5.560   9.043   4.501
16800TIP3    H150277   5.518   9.027   4.416
16800TIP3    H250278   5.530   9.130   4.527
16801TIP3   OH250279   4.999   8.901   4.896
16801TIP3    H150280   5.046   8.892   4.979
16801TIP3    H250281   4.953   8.817   4.886
16802TIP3   OH250282   5.768   8.990   4.138
16802TIP3    H150283   5.817   8.915   4.104
16802TIP3    H250284   5.803   9.003   4.226
16803TIP3   OH250285   5.817   9.034   4.406
16803TIP3    H150286   5.729   9.033   4.444
16803TIP3    H250287   5.873   8.997   4.474
16804TIP3   OH250288   6.560   8.296   5.702
16804TIP3    H150289   6.482   8.308   5.649
16804TIP3    H250290   6.580   8.202   5.694
16805TIP3   OH250291   5.169   8.733   5.693
16805TIP3    H150292   5.217   8.726   5.775
16805TIP3    H250293   5.098   8.669   5.701
16806TIP3   OH250294   5.555   7.528   5.506
16806TIP3    H150295   5.472   7.496   5.473
16806TIP3    H250296   5.533   7.608   5.553
16807TIP3   OH250297   6.094   7.658   5.709
16807TIP3    H150298   6.161   7.632   5.771
16807TIP3    H250299   6.011   7.641   5.755
16808TIP3   OH250300   6.320   8.070   5.628
16808TIP3    H150301   6.282   8.068   5.716
16808TIP3    H250302   6.309   8.161   5.599
16809TIP3   OH250303   5.997   8.180   4.158
16809TIP3    H150304   5.952   8.167   4.075
16809TIP3    H250305   6.083   8.216   4.134
16810TIP3   OH250306   5.709   7.569   4.475
16810TIP3    H150307   5.671   7.577   4.563
16810TIP3    H250308   5.672   7.487   4.441
16811TIP3   OH250309   5.517   8.057   5.528
16811TIP3    H150310   5.450   8.071   5.595
16811TIP3    H250311   5.482   8.100   5.450
16812TIP3   OH250312   5.847   8.015   4.760
16812TIP3    H150313   5.801   8.085   4.716
16812TIP3    H250314   5.908   7.981   4.694
16813TIP3   OH250315   6.033   8.280   5.833
16813TIP3    H150316   6.010   8.212   5.897
16813TIP3    H250317   6.125   8.300   5.852
16814TIP3   OH250318   6.025   8.036   4.974
16814TIP3    H150319   5.957   8.052   4.909
16814TIP3    H250320   6.074   7.961   4.940
16815TIP3   OH250321   5.315   8.080   5.714
16815TIP3    H150322   5.341   8.135   5.788
16815TIP3    H250323   5.297   7.994   5.753
16816TIP3   OH250324   5.378   7.554   4.454
16816TIP3    H150325   5.368   7.554   4.549
16816TIP3    H250326   5.299   7.598   4.421
16817TIP3   OH250327   4.941   7.613   5.328
16817TIP3    H150328   5.000   7.639   5.399
16817TIP3    H250329   4.976   7.657   5.251
16818TIP3   OH250330   4.818   7.574   4.817
16818TIP3    H150331   4.864   7.611   4.742
16818TIP3    H250332   4.755   7.642   4.842
16819TIP3   OH250333   6.090   8.275   5.418
16819TIP3    H150334   6.107   8.209   5.351
16819TIP3    H250335   6.039   8.228   5.485
16820TIP3   OH250336   5.736   7.738   5.084
16820TIP3    H150337   5.654   7.744   5.132
16820TIP3    H250338   5.803   7.729   5.152
16821TIP3   OH250339   5.086   7.766   5.142
16821TIP3    H150340   5.024   7.797   5.076
16821TIP3    H250341   5.146   7.708   5.095
16822TIP3   OH250342   5.371   7.801   4.796
16822TIP3    H150343   5.463   7.827   4.800
16822TIP3    H250344   5.341   7.830   4.710
16823TIP3   OH250345   6.175   7.823   5.297
16823TIP3    H150346   6.157   7.841   5.389
16823TIP3    H250347   6.107   7.761   5.271
16824TIP3   OH250348   5.278   7.854   4.541
16824TIP3    H150349   5.216   7.801   4.490
16824TIP3    H250350   5.336   7.893   4.476
16825TIP3   OH250351   9.657   0.285   5.511
16825TIP3    H150352   9.654   0.295   5.416
16825TIP3    H250353   9.737   0.330   5.537
16826TIP3   OH250354   5.327   8.646   5.925
16826TIP3    H150355   5.408   8.668   5.973
16826TIP3    H250356   5.258   8.651   5.991
16827TIP3   OH250357   5.744   8.119   5.163
16827TIP3    H150358   5.821   8.083   5.120
16827TIP3    H250359   5.751   8.091   5.254
16828TIP3   OH250360   5.285   7.576   5.068
16828TIP3    H150361   5.259   7.501   5.122
16828TIP3    H250362   5.300   7.539   4.981
16829TIP3   OH250363   5.769   8.038   5.426
16829TIP3    H150364   5.684   8.050   5.468
16829TIP3    H250365   5.832   8.072   5.489
16830TIP3   OH250366   5.487   8.366   4.569
16830TIP3    H150367   5.414   8.308   4.546
16830TIP3    H250368   5.468   8.394   4.659
16831TIP3   OH250369   6.388   8.622   5.173
16831TIP3    H150370   6.425   8.672   5.101
16831TIP3    H250371   6.310   8.580   5.135
16832TIP3   OH250372   5.961   7.672   4.488
16832TIP3    H150373   5.869   7.650   4.480
16832TIP3    H250374   5.963   7.767   4.494
16833TIP3   OH250375   5.892   8.700   5.562
16833TIP3    H150376   5.943   8.691   5.643
16833TIP3    H250377   5.854   8.788   5.567
16834TIP3   OH250378   6.018   7.941   4.550
16834TIP3    H150379   6.114   7.942   4.558
16834TIP3    H250380   5.998   8.015   4.494
16835TIP3   OH250381   5.210   8.370   5.296
16835TIP3    H150382   5.270   8.302   5.265
16835TIP3    H250383   5.206   8.357   5.391
16836TIP3   OH250384   5.651   8.513   4.409
16836TIP3    H150385   5.605   8.596   4.404
16836TIP3    H250386   5.595   8.457   4.463
16837TIP3   OH250387   5.060   8.309   5.860
16837TIP3    H150388   5.063   8.275   5.949
16837TIP3    H250389   4.986   8.262   5.819
16838TIP3   OH250390   5.803   8.437   5.875
16838TIP3    H150391   5.731   8.382   5.844
16838TIP3    H250392   5.882   8.393   5.844
16839TIP3   OH250393   6.045   8.995   5.475
16839TIP3    H150394   5.951   8.980   5.475
16839TIP3    H250395   6.065   9.025   5.564
16840TIP3   OH250396   6.432   8.036   4.367
16840TIP3    H150397   6.374   7.990   4.307
16840TIP3    H250398   6.440   8.124   4.331
16841TIP3   OH250399   6.684   8.905   5.448
16841TIP3    H150400   6.590   8.887   5.439
16841TIP3    H250401   6.722   8.874   5.366
16842TIP3   OH250402   6.170   8.840   4.290
16842TIP3    H150403   6.145   8.762   4.340
16842TIP3    H250404   6.196   8.806   4.205
16843TIP3   OH250405   6.175   8.480   5.060
16843TIP3    H150406   6.091   8.459   5.101
16843TIP3    H250407   6.205   8.398   5.023
16844TIP3   OH250408   5.338   8.787   4.920
16844TIP3    H150409   5.312   8.835   4.842
16844TIP3    H250410   5.282   8.709   4.920
16845TIP3   OH250411   4.873   8.002   4.603
16845TIP3    H150412   4.917   8.082   4.630
16845TIP3    H250413   4.791   8.002   4.653
16846TIP3   OH250414   5.594   9.015   5.321
16846TIP3    H150415   5.622   9.093   5.273
16846TIP3    H250416   5.671   8.991   5.373
16847TIP3   OH250417   5.211   8.945   4.726
16847TIP3    H150418   5.130   8.944   4.777
16847TIP3    H250419   5.243   9.035   4.735
16848TIP3   OH250420   5.957   8.713   5.291
16848TIP3    H150421   5.944   8.702   5.385
16848TIP3    H250422   5.974   8.625   5.258
16849TIP3   OH250423   5.948   8.584   4.202
16849TIP3    H150424   5.991   8.567   4.286
16849TIP3    H250425   5.865   8.536   4.208
16850TIP3   OH250426   6.202   9.198   5.359
16850TIP3    H150427   6.134   9.134   5.381
16850TIP3    H250428   6.166   9.247   5.286
16851TIP3   OH250429   6.256   9.046   3.990
16851TIP3    H150430   6.281   9.109   3.922
16851TIP3    H250431   6.183   9.088   4.036
16852TIP3   OH250432   5.271   7.833   5.843
16852TIP3    H150433   5.176   7.842   5.849
16852TIP3    H250434   5.295   7.786   5.923
16853TIP3   OH250435   6.124   8.541   4.420
16853TIP3    H150436   6.105   8.464   4.473
16853TIP3    H250437   6.217   8.532   4.398
16854TIP3   OH250438   5.018   8.922   5.511
16854TIP3    H150439   5.070   8.869   5.571
16854TIP3    H250440   5.026   9.012   5.544
16855TIP3   OH250441   5.288   8.543   4.190
16855TIP3    H150442   5.300   8.452   4.164
16855TIP3    H250443   5.271   8.539   4.284
16856TIP3   OH250444   5.237   8.560   4.463
16856TIP3    H150445   5.325   8.541   4.497
16856TIP3    H250446   5.229   8.655   4.470
16857TIP3   OH250447   4.973   8.252   4.687
16857TIP3    H150448   4.905   8.298   4.736
16857TIP3    H250449   4.989   8.308   4.611
16858TIP3   OH250450   6.124   7.887   5.561
16858TIP3    H150451   6.204   7.930   5.590
16858TIP3    H250452   6.116   7.809   5.616
16859TIP3   OH250453   6.022   7.626   4.754
16859TIP3    H150454   6.000   7.642   4.663
16859TIP3    H250455   6.067   7.705   4.783
16860TIP3   OH250456   5.496   8.735   4.404
16860TIP3    H150457   5.415   8.767   4.444
16860TIP3    H250458   5.526   8.807   4.349
16861TIP3   OH250459   5.652   7.833   4.837
16861TIP3    H150460   5.718   7.896   4.808
16861TIP3    H250461   5.681   7.808   4.925
16862TIP3   OH250462   5.966   8.119   5.606
16862TIP3    H150463   5.987   8.160   5.689
16862TIP3    H250464   6.015   8.037   5.607
16863TIP3   OH250465   5.831   7.524   4.925
16863TIP3    H150466   5.808   7.602   4.976
16863TIP3    H250467   5.902   7.553   4.869
16864TIP3   OH250468   5.250   8.832   4.482
16864TIP3    H150469   5.234   8.904   4.421
16864TIP3    H250470   5.235   8.870   4.568
16865TIP3   OH250471   5.347   7.533   4.733
16865TIP3    H150472   5.335   7.624   4.761
16865TIP3    H250473   5.442   7.519   4.738
16866TIP3   OH250474   6.588   8.025   5.608
16866TIP3    H150475   6.492   8.027   5.618
16866TIP3    H250476   6.602   7.981   5.524
16867TIP3   OH250477   6.255   8.218   4.980
16867TIP3    H150478   6.177   8.163   4.991
16867TIP3    H250479   6.320   8.178   5.038
16868TIP3   OH250480   4.994   8.424   4.467
16868TIP3    H150481   5.066   8.486   4.474
16868TIP3    H250482   5.022   8.362   4.400
16869TIP3   OH250483   4.890   7.722   4.598
16869TIP3    H150484   4.906   7.816   4.608
16869TIP3    H250485   4.836   7.716   4.519
16870TIP3   OH250486   6.231   9.197   4.927
16870TIP3    H150487   6.185   9.250   4.862
16870TIP3    H250488   6.323   9.219   4.916
16871TIP3   OH250489   5.293   7.446   5.464
16871TIP3    H150490   5.264   7.419   5.376
16871TIP3    H250491   5.281   7.368   5.518
16872TIP3   OH250492   4.824   8.682   4.871
16872TIP3    H150493   4.787   8.719   4.951
16872TIP3    H250494   4.778   8.727   4.801
16873TIP3   OH250495   5.030   9.248   5.965
16873TIP3    H150496   5.107   9.253   6.020
16873TIP3    H250497   5.006   9.155   5.966
16874TIP3   OH250498   5.495   9.150   5.956
16874TIP3    H150499   5.584   9.117   5.968
16874TIP3    H250500   5.457   9.092   5.890
16875TIP3   OH250501   5.441   8.744   4.079
16875TIP3    H150502   5.394   8.674   4.123
16875TIP3    H250503   5.516   8.702   4.038
16876TIP3   OH250504   6.105   9.078   5.730
16876TIP3    H150505   6.124   9.008   5.792
16876TIP3    H250506   6.179   9.138   5.738
16877TIP3   OH250507   5.888   8.778   4.016
16877TIP3    H150508   5.924   8.716   4.079
16877TIP3    H250509   5.945   8.772   3.940
16878TIP3   OH250510   5.123   8.629   6.111
16878TIP3    H150511   5.141   8.535   6.120
16878TIP3    H250512   5.034   8.632   6.074
16879TIP3   OH250513   5.111   8.237   4.306
16879TIP3    H150514   5.162   8.212   4.383
16879TIP3    H250515   5.175   8.250   4.237
16880TIP3   OH250516   5.740   8.713   5.883
16880TIP3    H150517   5.693   8.730   5.801
16880TIP3    H250518   5.773   8.624   5.873
16881TIP3   OH250519   5.693   8.456   4.144
16881TIP3    H150520   5.668   8.464   4.236
16881TIP3    H250521   5.674   8.364   4.123
16882TIP3   OH250522   6.219   8.775   5.523
16882TIP3    H150523   6.295   8.795   5.468
16882TIP3    H250524   6.152   8.837   5.495
16883TIP3   OH250525   5.250   8.377   6.124
16883TIP3    H150526   5.334   8.366   6.078
16883TIP3    H250527   5.276   8.401   6.214
16884TIP3   OH250528   5.290   8.181   4.514
16884TIP3    H150529   5.266   8.146   4.600
16884TIP3    H250530   5.339   8.110   4.472
16885TIP3   OH250531   5.576   8.267   5.785
16885TIP3    H150532   5.494   8.316   5.786
16885TIP3    H250533   5.613   8.284   5.699
16886TIP3   OH250534   5.436   7.997   4.366
16886TIP3    H150535   5.405   8.000   4.275
16886TIP3    H250536   5.531   8.003   4.358
16887TIP3   OH250537   6.106   8.637   5.865
16887TIP3    H150538   6.170   8.599   5.806
16887TIP3    H250539   6.104   8.577   5.940
16888TIP3   OH250540   6.224   8.285   4.039
16888TIP3    H150541   6.212   8.244   3.953
16888TIP3    H250542   6.199   8.376   4.026
16889TIP3   OH250543   5.700   8.039   5.883
16889TIP3    H150544   5.703   7.969   5.818
16889TIP3    H250545   5.658   8.112   5.838
16890TIP3   OH250546   5.712   7.837   5.683
16890TIP3    H150547   5.736   7.873   5.598
16890TIP3    H250548   5.621   7.810   5.673
16891TIP3   OH250549   5.711   8.345   5.564
16891TIP3    H150550   5.803   8.361   5.543
16891TIP3    H250551   5.663   8.415   5.520
16892TIP3   OH250552   6.303   8.321   5.925
16892TIP3    H150553   6.331   8.230   5.924
16892TIP3    H250554   6.382   8.371   5.906
16893TIP3   OH250555   6.337   8.587   5.679
16893TIP3    H150556   6.285   8.652   5.632
16893TIP3    H250557   6.426   8.600   5.647
16894TIP3   OH250558   5.591   8.112   6.133
16894TIP3    H150559   5.520   8.050   6.151
16894TIP3    H250560   5.616   8.092   6.042
16895TIP3   OH250561   5.830   7.607   5.791
16895TIP3    H150562   5.790   7.687   5.756
16895TIP3    H250563   5.765   7.539   5.776
16896TIP3   OH250564   5.956   8.067   5.990
16896TIP3    H150565   5.942   8.053   6.083
16896TIP3    H250566   5.871   8.051   5.950
16897TIP3   OH250567   6.213   8.039   5.874
16897TIP3    H150568   6.132   8.031   5.924
16897TIP3    H250569   6.281   8.005   5.933
16898TIP3   OH250570   6.446   7.986   6.019
16898TIP3    H150571   6.458   7.892   6.025
16898TIP3    H250572   6.441   8.016   6.110
16899TIP3   OH250573   5.420   7.893   6.194
16899TIP3    H150574   5.426   7.804   6.157
16899TIP3    H250575   5.459   7.885   6.281
16900TIP3   OH250576   5.896   7.576   6.055
16900TIP3    H150577   5.964   7.509   6.047
16900TIP3    H250578   5.866   7.591   5.965
16901TIP3   OH250579   5.995   7.789   6.201
16901TIP3    H150580   5.964   7.717   6.145
16901TIP3    H250581   5.923   7.852   6.201
16902TIP3   OH250582   5.261   9.044   4.302
16902TIP3    H150583   5.348   9.016   4.273
16902TIP3    H250584   5.218   9.077   4.224
16903TIP3   OH250585   4.719   8.431   4.472
16903TIP3    H150586   4.814   8.438   4.475
16903TIP3    H250587   4.702   8.343   4.437
16904TIP3   OH250588   4.620   8.976   4.951
16904TIP3    H150589   4.556   8.926   4.900
16904TIP3    H250590   4.663   8.912   5.006
16905TIP3   OH250591   4.771   8.816   5.117
16905TIP3    H150592   4.766   8.754   5.189
16905TIP3    H250593   4.821   8.890   5.153
16906TIP3   OH250594   9.755   0.047   4.913
16906TIP3    H150595   9.793   0.052   5.000
16906TIP3    H250596   9.830   0.057   4.854
16907TIP3   OH250597   6.520   9.272   5.198
16907TIP3    H150598   6.476   9.187   5.192
16907TIP3    H250599   6.596   9.255   5.253
16908TIP3   OH250600   6.582   8.975   5.778
16908TIP3    H150601   6.507   8.988   5.836
16908TIP3    H250602   6.626   9.059   5.777
16909TIP3   OH250603   6.396   8.497   4.380
16909TIP3    H150604   6.454   8.566   4.348
16909TIP3    H250605   6.444   8.456   4.452
16910TIP3   OH250606   6.528   8.354   4.578
16910TIP3    H150607   6.461   8.318   4.636
16910TIP3    H250608   6.594   8.391   4.638
16911TIP3   OH250609   6.580   8.754   5.016
16911TIP3    H150610   6.627   8.680   4.978
16911TIP3    H250611   6.595   8.826   4.955
16912TIP3   OH250612   6.373   9.035   5.209
16912TIP3    H150613   6.307   9.084   5.258
16912TIP3    H250614   6.325   8.997   5.136
16913TIP3   OH250615   6.429   8.271   4.223
16913TIP3    H150616   6.359   8.270   4.157
16913TIP3    H250617   6.412   8.351   4.274
16914TIP3   OH250618   6.276   7.924   4.178
16914TIP3    H150619   6.242   7.966   4.099
16914TIP3    H250620   6.262   7.830   4.162
16915TIP3   OH250621   6.318   8.216   4.710
16915TIP3    H150622   6.324   8.122   4.694
16915TIP3    H250623   6.302   8.223   4.805
16916TIP3   OH250624   4.941   8.274   5.494
16916TIP3    H150625   4.935   8.239   5.406
16916TIP3    H250626   5.035   8.285   5.509
16917TIP3   OH250627   6.592   8.626   5.579
16917TIP3    H150628   6.660   8.562   5.559
16917TIP3    H250629   6.599   8.691   5.508
16918TIP3   OH250630   6.770   8.415   5.569
16918TIP3    H150631   6.697   8.375   5.618
16918TIP3    H250632   6.846   8.362   5.593
16919TIP3   OH250633   6.239   7.654   4.144
16919TIP3    H150634   6.306   7.623   4.205
16919TIP3    H250635   6.158   7.611   4.174
16920TIP3   OH250636   6.312   7.937   4.604
16920TIP3    H150637   6.359   7.854   4.616
16920TIP3    H250638   6.352   7.977   4.527
16921TIP3   OH250639   6.466   8.098   5.131
16921TIP3    H150640   6.546   8.116   5.081
16921TIP3    H250641   6.480   8.140   5.215
16922TIP3   OH250642   6.538   8.249   5.358
16922TIP3    H150643   6.467   8.279   5.416
16922TIP3    H250644   6.566   8.328   5.312
16923TIP3   OH250645   5.157   7.952   6.131
16923TIP3    H150646   5.250   7.949   6.150
16923TIP3    H250647   5.121   7.872   6.169
16924TIP3   OH250648   7.001   7.845   5.895
16924TIP3    H150649   7.065   7.790   5.851
16924TIP3    H250650   6.960   7.896   5.825
16925TIP3   OH250651   6.429   7.688   4.658
16925TIP3    H150652   6.474   7.672   4.741
16925TIP3    H250653   6.366   7.616   4.650
16926TIP3   OH250654   5.139   7.673   5.513
16926TIP3    H150655   5.191   7.593   5.504
16926TIP3    H250656   5.195   7.743   5.481
16927TIP3   OH250657   4.909   7.931   5.553
16927TIP3    H150658   4.968   7.922   5.477
16927TIP3    H250659   4.932   8.017   5.590
16928TIP3   OH250660   6.848   7.959   5.702
16928TIP3    H150661   6.765   8.001   5.726
16928TIP3    H250662   6.822   7.887   5.645
16929TIP3   OH250663   6.468   7.595   4.294
16929TIP3    H150664   6.518   7.536   4.237
16929TIP3    H250665   6.520   7.676   4.296
16930TIP3   OH250666   4.891   7.412   5.026
16930TIP3    H150667   4.814   7.417   5.082
16930TIP3    H250668   4.876   7.480   4.959
16931TIP3   OH250669   6.055   9.165   4.567
16931TIP3    H150670   6.108   9.149   4.488
16931TIP3    H250671   6.105   9.229   4.616
16932TIP3   OH250672   5.132   7.486   5.872
16932TIP3    H150673   5.083   7.489   5.955
16932TIP3    H250674   5.080   7.539   5.812
16933TIP3   OH250675   5.157   8.954   5.942
16933TIP3    H150676   5.063   8.938   5.934
16933TIP3    H250677   5.175   8.947   6.036
16934TIP3   OH250678   5.376   8.987   5.487
16934TIP3    H150679   5.319   9.057   5.455
16934TIP3    H250680   5.455   8.995   5.435
16935TIP3   OH250681   9.044  -0.015   5.628
16935TIP3    H150682   9.083  -0.023   5.715
16935TIP3    H250683   9.106   0.039   5.578
16936TIP3   OH250684   9.231   0.144   5.500
16936TIP3    H150685   9.291   0.091   5.448
16936TIP3    H250686   9.288   0.201   5.552
16937TIP3   OH250687   6.760   7.719   5.585
16937TIP3    H150688   6.679   7.725   5.534
16937TIP3    H250689   6.786   7.628   5.578
16938TIP3   OH250690   8.287  -0.029   5.547
16938TIP3    H150691   8.197  -0.003   5.525
16938TIP3    H250692   8.314   0.032   5.615
16939TIP3   OH250693   5.247   9.205   5.389
16939TIP3    H150694   5.163   9.209   5.434
16939TIP3    H250695   5.227   9.228   5.299
16940TIP3   OH250696   8.934   0.002   5.177
16940TIP3    H150697   8.876   0.016   5.102
16940TIP3    H250698   8.945   0.090   5.214
16941TIP3   OH250699   5.931   9.191   5.239
16941TIP3    H150700   5.841   9.204   5.211
16941TIP3    H250701   5.982   9.252   5.187
16942TIP3   OH250702   9.399   0.111   5.132
16942TIP3    H150703   9.402   0.199   5.094
16942TIP3    H250704   9.432   0.054   5.062
16943TIP3   OH250705   4.938   9.007   5.256
16943TIP3    H150706   4.959   8.985   5.346
16943TIP3    H250707   5.011   8.973   5.205
16944TIP3   OH250708   5.145   8.887   5.131
16944TIP3    H150709   5.163   8.804   5.175
16944TIP3    H250710   5.231   8.925   5.115
16945TIP3   OH250711   5.411   8.991   5.096
16945TIP3    H150712   5.416   8.915   5.038
16945TIP3    H250713   5.475   8.973   5.164
16946TIP3   OH250714   5.964   7.639   5.231
16946TIP3    H150715   5.923   7.567   5.279
16946TIP3    H250716   6.032   7.598   5.178
16947TIP3   OH250717   6.468   7.564   5.123
16947TIP3    H150718   6.505   7.611   5.048
16947TIP3    H250719   6.374   7.582   5.119
16948TIP3   OH250720   6.585   7.630   4.882
16948TIP3    H150721   6.653   7.569   4.853
16948TIP3    H250722   6.624   7.716   4.869
16949TIP3   OH250723   5.211   7.348   5.218
16949TIP3    H150724   5.121   7.318   5.225
16949TIP3    H250725   5.263   7.267   5.211
16950TIP3   OH250726   5.031   7.234   4.866
16950TIP3    H150727   5.057   7.287   4.790
16950TIP3    H250728   4.987   7.296   4.924
16951TIP3   OH250729   5.696   7.374   5.123
16951TIP3    H150730   5.738   7.425   5.054
16951TIP3    H250731   5.734   7.406   5.204
16952TIP3   OH250732   6.180   7.522   5.100
16952TIP3    H150733   6.192   7.489   5.011
16952TIP3    H250734   6.188   7.445   5.156
16953TIP3   OH250735   6.243   7.477   4.667
16953TIP3    H150736   6.163   7.524   4.692
16953TIP3    H250737   6.232   7.390   4.703
16954TIP3   OH250738   4.699   8.801   4.661
16954TIP3    H150739   4.615   8.766   4.631
16954TIP3    H250740   4.707   8.887   4.618
16955TIP3   OH250741   5.136   7.373   4.637
16955TIP3    H150742   5.181   7.313   4.578
16955TIP3    H250743   5.205   7.427   4.675
16956TIP3   OH250744   5.622   7.576   4.738
16956TIP3    H150745   5.684   7.531   4.796
16956TIP3    H250746   5.627   7.668   4.766
16957TIP3   OH250747   5.511   8.960   4.230
16957TIP3    H150748   5.596   8.985   4.195
16957TIP3    H250749   5.480   8.892   4.170
16958TIP3   OH250750   6.200   9.109   4.336
16958TIP3    H150751   6.195   9.014   4.327
16958TIP3    H250752   6.163   9.143   4.255
16959TIP3   OH250753   5.439   7.622   6.108
16959TIP3    H150754   5.405   7.555   6.167
16959TIP3    H250755   5.531   7.632   6.132
16960TIP3   OH250756   5.685   7.631   6.233
16960TIP3    H150757   5.761   7.608   6.179
16960TIP3    H250758   5.679   7.560   6.297
16961TIP3   OH250759   4.809   8.801   4.289
16961TIP3    H150760   4.812   8.820   4.383
16961TIP3    H250761   4.891   8.757   4.271
16962TIP3   OH250762   6.505   7.715   6.016
16962TIP3    H150763   6.523   7.687   6.105
16962TIP3    H250764   6.590   7.711   5.971
16963TIP3   OH250765   9.692   0.011   5.521
16963TIP3    H150766   9.619  -0.018   5.466
16963TIP3    H250767   9.682   0.106   5.525
16964TIP3   OH250768   7.681   8.659   4.278
16964TIP3    H150769   7.653   8.741   4.238
16964TIP3    H250770   7.620   8.594   4.244
16965TIP3   OH250771   7.684   8.625   4.682
16965TIP3    H150772   7.738   8.598   4.756
16965TIP3    H250773   7.643   8.544   4.652
16966TIP3   OH250774   6.993   8.493   5.028
16966TIP3    H150775   7.035   8.442   5.098
16966TIP3    H250776   7.065   8.517   4.970
16967TIP3   OH250777   7.985   8.889   4.328
16967TIP3    H150778   7.958   8.827   4.396
16967TIP3    H250779   7.995   8.972   4.375
16968TIP3   OH250780   6.940   8.902   4.765
16968TIP3    H150781   6.950   8.810   4.740
16968TIP3    H250782   7.013   8.919   4.825
16969TIP3   OH250783   6.670   8.122   4.502
16969TIP3    H150784   6.635   8.208   4.523
16969TIP3    H250785   6.598   8.076   4.458
16970TIP3   OH250786   6.755   8.438   4.723
16970TIP3    H150787   6.806   8.361   4.747
16970TIP3    H250788   6.820   8.504   4.699
16971TIP3   OH250789   1.104   0.184   4.359
16971TIP3    H150790   1.114   0.095   4.325
16971TIP3    H250791   1.027   0.178   4.416
16972TIP3   OH250792   7.478   8.835   4.673
16972TIP3    H150793   7.519   8.755   4.639
16972TIP3    H250794   7.551   8.885   4.709
16973TIP3   OH250795   8.549   8.139   4.695
16973TIP3    H150796   8.550   8.225   4.737
16973TIP3    H250797   8.586   8.155   4.608
16974TIP3   OH250798   7.909   8.353   4.717
16974TIP3    H150799   7.930   8.262   4.738
16974TIP3    H250800   7.885   8.350   4.624
16975TIP3   OH250801   7.262   7.994   4.681
16975TIP3    H150802   7.244   8.069   4.624
16975TIP3    H250803   7.207   7.924   4.647
16976TIP3   OH250804   7.960   8.088   4.342
16976TIP3    H150805   8.027   8.074   4.408
16976TIP3    H250806   7.990   8.165   4.293
16977TIP3   OH250807   6.891   8.213   4.815
16977TIP3    H150808   6.976   8.197   4.857
16977TIP3    H250809   6.894   8.163   4.734
16978TIP3   OH250810   7.312   8.411   4.630
16978TIP3    H150811   7.406   8.394   4.634
16978TIP3    H250812   7.275   8.330   4.595
16979TIP3   OH250813   8.540   8.348   4.883
16979TIP3    H150814   8.466   8.387   4.839
16979TIP3    H250815   8.515   8.345   4.975
16980TIP3   OH250816   7.246   8.006   5.137
16980TIP3    H150817   7.201   8.042   5.060
16980TIP3    H250818   7.188   8.027   5.211
16981TIP3   OH250819   7.596   8.864   4.113
16981TIP3    H150820   7.555   8.830   4.034
16981TIP3    H250821   7.541   8.939   4.138
16982TIP3   OH250822   7.327   8.775   4.899
16982TIP3    H150823   7.266   8.844   4.924
16982TIP3    H250824   7.372   8.810   4.821
16983TIP3   OH250825   8.121   8.067   4.570
16983TIP3    H150826   8.061   8.077   4.644
16983TIP3    H250827   8.171   8.148   4.568
16984TIP3   OH250828   7.141   8.109   4.903
16984TIP3    H150829   7.195   8.185   4.924
16984TIP3    H250830   7.185   8.066   4.830
16985TIP3   OH250831   7.134   8.966   4.961
16985TIP3    H150832   7.169   9.055   4.951
16985TIP3    H250833   7.075   8.972   5.036
16986TIP3   OH250834   6.565   8.684   4.263
16986TIP3    H150835   6.535   8.703   4.174
16986TIP3    H250836   6.588   8.770   4.299
16987TIP3   OH250837   7.999   9.147   4.430
16987TIP3    H150838   7.918   9.134   4.481
16987TIP3    H250839   7.976   9.216   4.368
16988TIP3   OH250840   8.348   8.043   4.880
16988TIP3    H150841   8.275   8.104   4.877
16988TIP3    H250842   8.400   8.063   4.802
16989TIP3   OH250843   7.581   7.703   4.857
16989TIP3    H150844   7.571   7.610   4.876
16989TIP3    H250845   7.507   7.745   4.902
16990TIP3   OH250846   7.711   9.213   4.186
16990TIP3    H150847   7.759   9.133   4.167
16990TIP3    H250848   7.761   9.282   4.142
16991TIP3   OH250849   7.847   8.988   4.110
16991TIP3    H150850   7.772   8.929   4.101
16991TIP3    H250851   7.905   8.945   4.173
16992TIP3   OH250852   8.256   8.987   4.844
16992TIP3    H150853   8.262   8.920   4.776
16992TIP3    H250854   8.179   9.039   4.819
16993TIP3   OH250855   7.527   8.489   4.116
16993TIP3    H150856   7.443   8.528   4.094
16993TIP3    H250857   7.574   8.486   4.033
16994TIP3   OH250858   7.487   8.291   3.802
16994TIP3    H150859   7.551   8.343   3.851
16994TIP3    H250860   7.540   8.222   3.761
16995TIP3   OH250861   8.349   8.638   4.595
16995TIP3    H150862   8.273   8.692   4.616
16995TIP3    H250863   8.400   8.692   4.534
16996TIP3   OH250864   7.856   8.584   4.075
16996TIP3    H150865   7.813   8.616   4.154
16996TIP3    H250866   7.919   8.519   4.107
16997TIP3   OH250867   8.108   8.611   4.950
16997TIP3    H150868   8.096   8.635   5.042
16997TIP3    H250869   8.019   8.600   4.916
16998TIP3   OH250870   7.111   8.542   4.475
16998TIP3    H150871   7.077   8.481   4.410
16998TIP3    H250872   7.186   8.496   4.514
16999TIP3   OH250873   7.259   8.989   4.603
16999TIP3    H150874   7.230   8.969   4.514
16999TIP3    H250875   7.336   8.934   4.617
17000TIP3   OH250876   7.202   8.539   4.848
17000TIP3    H150877   7.243   8.503   4.769
17000TIP3    H250878   7.249   8.621   4.864
17001TIP3   OH250879   7.799   9.088   4.613
17001TIP3    H150880   7.737   9.157   4.638
17001TIP3    H250881   7.768   9.011   4.661
17002TIP3   OH250882   7.705   8.435   3.900
17002TIP3    H150883   7.762   8.493   3.950
17002TIP3    H250884   7.741   8.435   3.812
17003TIP3   OH250885   7.130   8.607   5.330
17003TIP3    H150886   7.141   8.700   5.350
17003TIP3    H250887   7.036   8.595   5.320
17004TIP3   OH250888   7.460   9.101   4.160
17004TIP3    H150889   7.542   9.148   4.177
17004TIP3    H250890   7.406   9.164   4.112
17005TIP3   OH250891   0.616   0.071   5.262
17005TIP3    H150892   0.639   0.063   5.170
17005TIP3    H250893   0.550   0.002   5.276
17006TIP3   OH250894   8.170   7.647   3.937
17006TIP3    H150895   8.109   7.659   4.009
17006TIP3    H250896   8.196   7.736   3.913
17007TIP3   OH250897   6.988   8.383   4.274
17007TIP3    H150898   6.910   8.431   4.247
17007TIP3    H250899   6.959   8.293   4.284
17008TIP3   OH250900   8.055   9.019   3.534
17008TIP3    H150901   8.047   9.113   3.517
17008TIP3    H250902   8.139   8.995   3.494
17009TIP3   OH250903   6.774   8.795   5.216
17009TIP3    H150904   6.707   8.779   5.150
17009TIP3    H250905   6.809   8.709   5.237
17010TIP3   OH250906   6.681   8.958   4.853
17010TIP3    H150907   6.765   8.933   4.815
17010TIP3    H250908   6.701   9.033   4.908
17011TIP3   OH250909   1.988   0.199   5.013
17011TIP3    H150910   1.923   0.157   4.957
17011TIP3    H250911   1.937   0.262   5.065
17012TIP3   OH250912   0.822   0.077   3.996
17012TIP3    H150913   0.775   0.056   3.916
17012TIP3    H250914   0.781   0.158   4.027
17013TIP3   OH250915   6.786   9.174   4.375
17013TIP3    H150916   6.832   9.160   4.458
17013TIP3    H250917   6.739   9.091   4.361
17014TIP3   OH250918   7.551   9.255   3.614
17014TIP3    H150919   7.601   9.182   3.578
17014TIP3    H250920   7.584   9.264   3.704
17015TIP3   OH250921   1.072   0.051   3.880
17015TIP3    H150922   0.990   0.049   3.930
17015TIP3    H250923   1.140   0.038   3.946
17016TIP3   OH250924   6.947   9.005   5.165
17016TIP3    H150925   6.964   9.043   5.251
17016TIP3    H250926   6.890   8.930   5.182
17017TIP3   OH250927   7.350   7.785   4.999
17017TIP3    H150928   7.267   7.753   4.964
17017TIP3    H250929   7.327   7.868   5.042
17018TIP3   OH250930   7.886   7.903   5.197
17018TIP3    H150931   7.946   7.876   5.267
17018TIP3    H250932   7.799   7.892   5.236
17019TIP3   OH250933   8.135   8.277   5.106
17019TIP3    H150934   8.097   8.297   5.191
17019TIP3    H250935   8.223   8.314   5.110
17020TIP3   OH250936   7.792   8.392   3.640
17020TIP3    H150937   7.748   8.401   3.556
17020TIP3    H250938   7.876   8.437   3.628
17021TIP3   OH250939   7.517   7.820   3.966
17021TIP3    H150940   7.478   7.830   4.053
17021TIP3    H250941   7.475   7.741   3.931
17022TIP3   OH250942   7.288   8.323   4.999
17022TIP3    H150943   7.243   8.332   5.083
17022TIP3    H250944   7.266   8.403   4.951
17023TIP3   OH250945   7.168   8.198   4.524
17023TIP3    H150946   7.079   8.174   4.548
17023TIP3    H250947   7.178   8.167   4.434
17024TIP3   OH250948   7.639   8.272   4.243
17024TIP3    H150949   7.599   8.352   4.207
17024TIP3    H250950   7.705   8.247   4.179
17025TIP3   OH250951   7.834   8.536   5.316
17025TIP3    H150952   7.817   8.466   5.379
17025TIP3    H250953   7.925   8.562   5.333
17026TIP3   OH250954   7.776   8.256   4.484
17026TIP3    H150955   7.727   8.283   4.406
17026TIP3    H250956   7.841   8.194   4.452
17027TIP3   OH250957   7.129   8.342   5.222
17027TIP3    H150958   7.134   8.412   5.287
17027TIP3    H250959   7.110   8.263   5.273
17028TIP3   OH250960   7.178   7.805   3.942
17028TIP3    H150961   7.169   7.814   4.037
17028TIP3    H250962   7.099   7.846   3.906
17029TIP3   OH250963   6.720   7.852   4.811
17029TIP3    H150964   6.792   7.891   4.862
17029TIP3    H250965   6.754   7.846   4.722
17030TIP3   OH250966   6.613   7.833   4.304
17030TIP3    H150967   6.660   7.868   4.228
17030TIP3    H250968   6.551   7.901   4.328
17031TIP3   OH250969   7.843   8.545   4.891
17031TIP3    H150970   7.874   8.478   4.831
17031TIP3    H250971   7.801   8.497   4.963
17032TIP3   OH250972   7.528   7.979   4.564
17032TIP3    H150973   7.450   7.980   4.620
17032TIP3    H250974   7.602   7.978   4.626
17033TIP3   OH250975   6.929   8.072   4.584
17033TIP3    H150976   6.842   8.077   4.545
17033TIP3    H250977   6.959   7.983   4.564
17034TIP3   OH250978   7.180   8.077   4.278
17034TIP3    H150979   7.275   8.087   4.270
17034TIP3    H250980   7.147   8.094   4.190
17035TIP3   OH250981   7.944   8.088   4.782
17035TIP3    H150982   7.929   8.106   4.875
17035TIP3    H250983   7.874   8.027   4.758
17036TIP3   OH250984   7.075   8.096   4.027
17036TIP3    H150985   7.014   8.045   3.974
17036TIP3    H250986   7.127   8.146   3.963
17037TIP3   OH250987   1.743   0.552   5.047
17037TIP3    H150988   1.757   0.584   4.958
17037TIP3    H250989   1.815   0.591   5.098
17038TIP3   OH250990   7.131   8.856   5.442
17038TIP3    H150991   7.208   8.895   5.481
17038TIP3    H250992   7.058   8.909   5.475
17039TIP3   OH250993   7.584   8.352   4.668
17039TIP3    H150994   7.650   8.314   4.609
17039TIP3    H250995   7.595   8.303   4.749
17040TIP3   OH250996   7.068   7.825   4.561
17040TIP3    H150997   7.042   7.748   4.612
17040TIP3    H250998   7.088   7.790   4.474
17041TIP3   OH250999   7.551   8.245   4.956
17041TIP3    H151000   7.465   8.286   4.968
17041TIP3    H251001   7.612   8.305   4.999
17042TIP3   OH251002   7.284   8.610   4.054
17042TIP3    H151003   7.209   8.557   4.028
17042TIP3    H251004   7.256   8.652   4.136
17043TIP3   OH251005   8.163   8.832   4.635
17043TIP3    H151006   8.181   8.896   4.566
17043TIP3    H251007   8.077   8.797   4.613
17044TIP3   OH251008   7.767   7.937   3.956
17044TIP3    H151009   7.673   7.917   3.961
17044TIP3    H251010   7.772   8.031   3.973
17045TIP3   OH251011   7.675   8.884   5.078
17045TIP3    H151012   7.733   8.877   5.154
17045TIP3    H251013   7.682   8.975   5.050
17046TIP3   OH251014   7.806   8.203   4.026
17046TIP3    H151015   7.886   8.232   4.069
17046TIP3    H251016   7.778   8.279   3.974
17047TIP3   OH251017   6.973   8.624   4.701
17047TIP3    H151018   7.010   8.610   4.614
17047TIP3    H251019   7.043   8.596   4.761
17048TIP3   OH251020   7.439   8.772   3.900
17048TIP3    H151021   7.391   8.855   3.897
17048TIP3    H251022   7.383   8.714   3.952
17049TIP3   OH251023   6.855   8.553   5.340
17049TIP3    H151024   6.854   8.523   5.431
17049TIP3    H251025   6.779   8.512   5.300
17050TIP3   OH251026   7.601   8.675   5.380
17050TIP3    H151027   7.532   8.620   5.343
17050TIP3    H251028   7.682   8.645   5.338
17051TIP3   OH251029   7.748   9.133   4.971
17051TIP3    H151030   7.700   9.151   4.890
17051TIP3    H251031   7.770   9.220   5.005
17052TIP3   OH251032   8.271   8.288   3.790
17052TIP3    H151033   8.198   8.243   3.747
17052TIP3    H251034   8.256   8.381   3.772
17053TIP3   OH251035   8.502   9.089   4.938
17053TIP3    H151036   8.421   9.053   4.900
17053TIP3    H251037   8.527   9.158   4.877
17054TIP3   OH251038   7.968   9.091   3.798
17054TIP3    H151039   7.935   9.026   3.861
17054TIP3    H251040   7.982   9.042   3.718
17055TIP3   OH251041   7.931   8.714   4.544
17055TIP3    H151042   7.840   8.687   4.560
17055TIP3    H251043   7.975   8.633   4.517
17056TIP3   OH251044   7.102   8.972   4.370
17056TIP3    H151045   7.097   9.045   4.308
17056TIP3    H251046   7.027   8.984   4.427
17057TIP3   OH251047   6.666   8.255   4.080
17057TIP3    H151048   6.710   8.337   4.104
17057TIP3    H251049   6.585   8.255   4.130
17058TIP3   OH251050   7.179   8.726   4.274
17058TIP3    H151051   7.162   8.815   4.304
17058TIP3    H251052   7.157   8.670   4.349
17059TIP3   OH251053   7.014   9.190   4.221
17059TIP3    H151054   6.929   9.198   4.264
17059TIP3    H251055   7.051   9.279   4.223
17060TIP3   OH251056   7.726   8.887   4.786
17060TIP3    H151057   7.724   8.876   4.881
17060TIP3    H251058   7.739   8.799   4.751
17061TIP3   OH251059   7.732   8.838   3.667
17061TIP3    H151060   7.781   8.813   3.746
17061TIP3    H251061   7.649   8.791   3.675
17062TIP3   OH251062   1.492   0.117   4.867
17062TIP3    H151063   1.423   0.116   4.933
17062TIP3    H251064   1.503   0.210   4.846
17063TIP3   OH251065   1.513   0.048   3.476
17063TIP3    H151066   1.522   0.058   3.381
17063TIP3    H251067   1.441   0.106   3.499
17064TIP3   OH251068   7.071   8.087   5.340
17064TIP3    H151069   6.976   8.099   5.341
17064TIP3    H251070   7.087   8.024   5.411
17065TIP3   OH251071   7.902   8.762   3.868
17065TIP3    H151072   7.881   8.709   3.945
17065TIP3    H251073   7.997   8.763   3.865
17066TIP3   OH251074   6.794   9.174   4.995
17066TIP3    H151075   6.858   9.123   5.045
17066TIP3    H251076   6.803   9.263   5.030
17067TIP3   OH251077   7.086   8.799   3.691
17067TIP3    H151078   7.095   8.708   3.663
17067TIP3    H251079   7.074   8.793   3.786
17068TIP3   OH251080   7.028   8.816   3.964
17068TIP3    H151081   7.087   8.792   4.036
17068TIP3    H251082   7.026   8.911   3.965
17069TIP3   OH251083   6.760   8.505   4.170
17069TIP3    H151084   6.697   8.553   4.222
17069TIP3    H251085   6.781   8.563   4.097
17070TIP3   OH251086   7.906   8.143   5.051
17070TIP3    H151087   7.992   8.181   5.065
17070TIP3    H251088   7.906   8.062   5.102
17071TIP3   OH251089   7.828   7.875   4.225
17071TIP3    H151090   7.812   7.903   4.135
17071TIP3    H251091   7.872   7.950   4.266
17072TIP3   OH251092   7.295   9.001   3.893
17072TIP3    H151093   7.211   9.024   3.932
17072TIP3    H251094   7.318   9.075   3.838
17073TIP3   OH251095   7.457   8.082   4.317
17073TIP3    H151096   7.518   8.150   4.289
17073TIP3    H251097   7.485   8.060   4.405
17074TIP3   OH251098   7.754   8.377   5.092
17074TIP3    H151099   7.789   8.424   5.168
17074TIP3    H251100   7.809   8.299   5.086
17075TIP3   OH251101   7.634   7.774   4.398
17075TIP3    H151102   7.612   7.850   4.451
17075TIP3    H251103   7.708   7.802   4.344
17076TIP3   OH251104   7.046   9.089   3.970
17076TIP3    H151105   7.028   9.161   3.911
17076TIP3    H251106   7.033   9.125   4.058
17077TIP3   OH251107   7.142   7.803   4.222
17077TIP3    H151108   7.130   7.894   4.247
17077TIP3    H251109   7.236   7.787   4.229
17078TIP3   OH251110   8.062   8.483   4.470
17078TIP3    H151111   8.045   8.453   4.381
17078TIP3    H251112   8.125   8.421   4.505
17079TIP3   OH251113   6.785   8.683   3.954
17079TIP3    H151114   6.858   8.744   3.964
17079TIP3    H251115   6.814   8.621   3.888
17080TIP3   OH251116   6.696   7.977   4.087
17080TIP3    H151117   6.701   8.073   4.090
17080TIP3    H251118   6.666   7.958   3.998
17081TIP3   OH251119   1.446   0.167   4.303
17081TIP3    H151120   1.406   0.242   4.260
17081TIP3    H251121   1.538   0.190   4.312
17082TIP3   OH251122   7.089   7.700   4.951
17082TIP3    H151123   7.060   7.670   4.864
17082TIP3    H251124   7.078   7.623   5.007
17083TIP3   OH251125   6.611   8.952   4.350
17083TIP3    H151126   6.572   8.988   4.430
17083TIP3    H251127   6.566   8.997   4.279
17084TIP3   OH251128   0.274   0.255   5.402
17084TIP3    H151129   0.358   0.252   5.449
17084TIP3    H251130   0.264   0.168   5.364
17085TIP3   OH251131   0.755   0.165   5.471
17085TIP3    H151132   0.835   0.112   5.475
17085TIP3    H251133   0.710   0.136   5.392
17086TIP3   OH251134   7.236   9.001   3.577
17086TIP3    H151135   7.190   8.931   3.624
17086TIP3    H251136   7.311   8.957   3.536
17087TIP3   OH251137   7.861   9.269   5.301
17087TIP3    H151138   7.824   9.191   5.343
17087TIP3    H251139   7.933   9.235   5.249
17088TIP3   OH251140   7.678   9.044   3.498
17088TIP3    H151141   7.712   8.979   3.559
17088TIP3    H251142   7.733   9.036   3.420
17089TIP3   OH251143   6.903   8.892   5.619
17089TIP3    H151144   6.924   8.799   5.619
17089TIP3    H251145   6.821   8.898   5.570
17090TIP3   OH251146   6.900   8.496   3.793
17090TIP3    H151147   6.950   8.470   3.870
17090TIP3    H251148   6.965   8.508   3.724
17091TIP3   OH251149   7.492   8.930   5.353
17091TIP3    H151150   7.484   8.947   5.259
17091TIP3    H251151   7.541   8.848   5.359
17092TIP3   OH251152   7.484   8.714   3.637
17092TIP3    H151153   7.459   8.724   3.728
17092TIP3    H251154   7.463   8.623   3.616
17093TIP3   OH251155   7.969   8.965   5.009
17093TIP3    H151156   8.009   8.969   4.923
17093TIP3    H251157   7.893   9.024   5.003
17094TIP3   OH251158   7.022   8.634   5.617
17094TIP3    H151159   7.084   8.651   5.546
17094TIP3    H251160   7.069   8.659   5.697
17095TIP3   OH251161   7.072   8.437   4.005
17095TIP3    H151162   7.056   8.407   4.095
17095TIP3    H251163   7.123   8.366   3.965
17096TIP3   OH251164   7.395   8.518   5.273
17096TIP3    H151165   7.308   8.556   5.285
17096TIP3    H251166   7.425   8.553   5.190
17097TIP3   OH251167   7.218   8.256   3.855
17097TIP3    H151168   7.189   8.260   3.764
17097TIP3    H251169   7.313   8.266   3.850
17098TIP3   OH251170   7.876   8.843   5.384
17098TIP3    H151171   7.943   8.822   5.318
17098TIP3    H251172   7.905   8.796   5.462
17099TIP3   OH251173   8.001   8.539   3.530
17099TIP3    H151174   7.991   8.498   3.445
17099TIP3    H251175   7.977   8.630   3.516
17100TIP3   OH251176   7.499   8.285   5.372
17100TIP3    H151177   7.501   8.214   5.308
17100TIP3    H251178   7.466   8.361   5.323
17101TIP3   OH251179   7.507   8.079   5.180
17101TIP3    H151180   7.537   8.120   5.099
17101TIP3    H251181   7.416   8.055   5.163
17102TIP3   OH251182   7.507   8.640   5.058
17102TIP3    H151183   7.585   8.696   5.057
17102TIP3    H251184   7.445   8.685   5.001
17103TIP3   OH251185   8.127   8.546   5.438
17103TIP3    H151186   8.108   8.461   5.398
17103TIP3    H251187   8.218   8.563   5.415
17104TIP3   OH251188   8.085   8.813   5.202
17104TIP3    H151189   8.034   8.863   5.138
17104TIP3    H251190   8.173   8.808   5.165
17105TIP3   OH251191   7.366   8.368   5.608
17105TIP3    H151192   7.298   8.302   5.618
17105TIP3    H251193   7.396   8.358   5.518
17106TIP3   OH251194   7.627   7.854   5.290
17106TIP3    H151195   7.590   7.935   5.254
17106TIP3    H251196   7.563   7.786   5.268
17107TIP3   OH251197   7.759   8.311   5.464
17107TIP3    H151198   7.756   8.255   5.541
17107TIP3    H251199   7.671   8.303   5.426
17108TIP3   OH251200   8.017   8.305   5.353
17108TIP3    H151201   7.928   8.291   5.386
17108TIP3    H251202   8.073   8.255   5.412
17109TIP3   OH251203   8.188   8.195   5.528
17109TIP3    H151204   8.218   8.104   5.517
17109TIP3    H251205   8.268   8.244   5.547
17110TIP3   OH251206   7.210   8.150   5.684
17110TIP3    H151207   7.213   8.063   5.644
17110TIP3    H251208   7.253   8.139   5.769
17111TIP3   OH251209   7.696   7.844   5.556
17111TIP3    H151210   7.746   7.762   5.561
17111TIP3    H251211   7.672   7.851   5.464
17112TIP3   OH251212   7.786   8.070   5.691
17112TIP3    H151213   7.761   7.993   5.640
17112TIP3    H251214   7.705   8.121   5.698
17113TIP3   OH251215   0.513   0.062   3.794
17113TIP3    H151216   0.602   0.041   3.766
17113TIP3    H251217   0.472   0.102   3.718
17114TIP3   OH251218   6.512   8.684   3.977
17114TIP3    H151219   6.607   8.694   3.970
17114TIP3    H251220   6.494   8.600   3.934
17115TIP3   OH251221   6.413   9.254   4.437
17115TIP3    H151222   6.349   9.201   4.391
17115TIP3    H251223   6.457   9.193   4.496
17116TIP3   OH251224   6.557   9.083   4.604
17116TIP3    H151225   6.555   9.014   4.669
17116TIP3    H251226   6.610   9.153   4.645
17117TIP3   OH251227   1.712   0.240   4.358
17117TIP3    H151228   1.686   0.208   4.445
17117TIP3    H251229   1.800   0.277   4.372
17118TIP3   OH251230   1.874   0.204   4.596
17118TIP3    H151231   1.848   0.113   4.604
17118TIP3    H251232   1.849   0.244   4.680
17119TIP3   OH251233   1.875   0.037   5.380
17119TIP3    H151234   1.798  -0.018   5.361
17119TIP3    H251235   1.933   0.023   5.305
17120TIP3   OH251236   8.180   8.746   3.876
17120TIP3    H151237   8.259   8.799   3.883
17120TIP3    H251238   8.189   8.680   3.945
17121TIP3   OH251239   8.234   8.550   4.055
17121TIP3    H151240   8.174   8.487   4.096
17121TIP3    H251241   8.294   8.574   4.125
17122TIP3   OH251242   8.272   9.009   4.446
17122TIP3    H151243   8.324   8.934   4.417
17122TIP3    H251244   8.228   9.040   4.367
17123TIP3   OH251245   1.601   0.098   4.581
17123TIP3    H151246   1.610   0.075   4.673
17123TIP3    H251247   1.586   0.015   4.537
17124TIP3   OH251248   8.222   8.542   3.693
17124TIP3    H151249   8.145   8.535   3.637
17124TIP3    H251250   8.201   8.611   3.756
17125TIP3   OH251251   8.079   8.169   3.633
17125TIP3    H151252   8.018   8.194   3.564
17125TIP3    H251253   8.076   8.073   3.634
17126TIP3   OH251254   6.729   8.520   4.982
17126TIP3    H151255   6.721   8.494   4.890
17126TIP3    H251256   6.823   8.521   4.998
17127TIP3   OH251257   8.568   8.904   5.178
17127TIP3    H151258   8.594   8.813   5.191
17127TIP3    H251259   8.494   8.899   5.117
17128TIP3   OH251260   8.589   8.638   5.246
17128TIP3    H151261   8.523   8.570   5.237
17128TIP3    H251262   8.668   8.601   5.206
17129TIP3   OH251263   8.045   7.894   3.623
17129TIP3    H151264   8.106   7.875   3.694
17129TIP3    H251265   7.960   7.862   3.655
17130TIP3   OH251266   8.258   8.301   4.589
17130TIP3    H151267   8.346   8.309   4.553
17130TIP3    H251268   8.262   8.350   4.672
17131TIP3   OH251269   8.297   8.471   4.804
17131TIP3    H151270   8.220   8.502   4.851
17131TIP3    H251271   8.306   8.531   4.730
17132TIP3   OH251272   6.945   8.205   5.618
17132TIP3    H151273   7.039   8.204   5.637
17132TIP3    H251274   6.912   8.124   5.657
17133TIP3   OH251275   8.781   8.105   5.363
17133TIP3    H151276   8.842   8.036   5.337
17133TIP3    H251277   8.759   8.150   5.281
17134TIP3   OH251278   8.273   7.881   4.123
17134TIP3    H151279   8.295   7.874   4.216
17134TIP3    H251280   8.196   7.939   4.121
17135TIP3   OH251281   6.931   7.927   4.980
17135TIP3    H151282   6.984   7.848   4.978
17135TIP3    H251283   6.992   7.997   4.956
17136TIP3   OH251284   6.706   8.195   5.029
17136TIP3    H151285   6.760   8.180   4.951
17136TIP3    H251286   6.722   8.286   5.052
17137TIP3   OH251287   8.660   8.220   5.146
17137TIP3    H151288   8.584   8.272   5.172
17137TIP3    H251289   8.623   8.139   5.111
17138TIP3   OH251290   8.271   7.857   3.781
17138TIP3    H151291   8.318   7.795   3.725
17138TIP3    H251292   8.329   7.932   3.789
17139TIP3   OH251293   6.695   7.704   4.531
17139TIP3    H151294   6.610   7.691   4.573
17139TIP3    H251295   6.675   7.756   4.453
17140TIP3   OH251296   1.290   0.164   4.028
17140TIP3    H151297   1.350   0.151   3.954
17140TIP3    H251298   1.322   0.242   4.072
17141TIP3   OH251299   6.933   7.750   5.360
17141TIP3    H151300   6.880   7.746   5.439
17141TIP3    H251301   6.879   7.800   5.298
17142TIP3   OH251302   6.955   9.147   5.408
17142TIP3    H151303   6.861   9.164   5.415
17142TIP3    H251304   6.993   9.193   5.483
17143TIP3   OH251305   1.039   0.266   5.101
17143TIP3    H151306   1.028   0.212   5.179
17143TIP3    H251307   1.055   0.354   5.134
17144TIP3   OH251308   1.298   0.440   5.052
17144TIP3    H151309   1.304   0.372   4.984
17144TIP3    H251310   1.340   0.401   5.128
17145TIP3   OH251311   8.536   7.984   5.075
17145TIP3    H151312   8.461   8.001   5.018
17145TIP3    H251313   8.553   7.891   5.065
17146TIP3   OH251314   0.269   0.200   5.061
17146TIP3    H151315   0.197   0.260   5.040
17146TIP3    H251316   0.344   0.237   5.016
17147TIP3   OH251317   0.485   0.267   4.898
17147TIP3    H151318   0.537   0.188   4.913
17147TIP3    H251319   0.471   0.268   4.803
17148TIP3   OH251320   0.901   0.273   4.528
17148TIP3    H151321   0.808   0.252   4.526
17148TIP3    H251322   0.921   0.284   4.621
17149TIP3   OH251323   1.126   0.067   4.716
17149TIP3    H151324   1.054   0.128   4.730
17149TIP3    H251325   1.181   0.107   4.649
17150TIP3   OH251326   1.480   0.390   4.563
17150TIP3    H151327   1.434   0.460   4.517
17150TIP3    H251328   1.418   0.318   4.567
17151TIP3   OH251329   0.196   0.023   4.741
17151TIP3    H151330   0.222   0.002   4.831
17151TIP3    H251331   0.267  -0.011   4.687
17152TIP3   OH251332   6.929   9.128   4.605
17152TIP3    H151333   6.935   9.049   4.658
17152TIP3    H251334   7.013   9.173   4.619
17153TIP3   OH251335   7.174   9.241   4.658
17153TIP3    H151336   7.217   9.157   4.640
17153TIP3    H251337   7.190   9.257   4.751
17154TIP3   OH251338   7.740   7.900   4.727
17154TIP3    H151339   7.693   7.832   4.775
17154TIP3    H251340   7.807   7.853   4.679
17155TIP3   OH251341   8.238   7.820   4.609
17155TIP3    H151342   8.291   7.812   4.529
17155TIP3    H251343   8.203   7.909   4.606
17156TIP3   OH251344   8.376   7.886   4.378
17156TIP3    H151345   8.451   7.830   4.361
17156TIP3    H251346   8.409   7.975   4.362
17157TIP3   OH251347   7.001   7.598   4.710
17157TIP3    H151348   6.912   7.564   4.719
17157TIP3    H251349   7.055   7.520   4.698
17158TIP3   OH251350   6.839   7.514   4.373
17158TIP3    H151351   6.860   7.560   4.292
17158TIP3    H251352   6.796   7.580   4.428
17159TIP3   OH251353   7.486   7.636   4.596
17159TIP3    H151354   7.534   7.677   4.524
17159TIP3    H251355   7.524   7.674   4.675
17160TIP3   OH251356   7.945   7.764   4.613
17160TIP3    H151357   8.031   7.792   4.580
17160TIP3    H251358   7.963   7.682   4.659
17161TIP3   OH251359   7.999   7.668   4.149
17161TIP3    H151360   7.939   7.738   4.173
17161TIP3    H251361   8.013   7.620   4.231
17162TIP3   OH251362   6.492   9.079   4.139
17162TIP3    H151363   6.411   9.044   4.101
17162TIP3    H251364   6.500   9.166   4.100
17163TIP3   OH251365   6.933   7.636   4.127
17163TIP3    H151366   6.978   7.576   4.068
17163TIP3    H251367   7.002   7.692   4.162
17164TIP3   OH251368   7.417   7.828   4.225
17164TIP3    H151369   7.481   7.780   4.278
17164TIP3    H251370   7.429   7.919   4.251
17165TIP3   OH251371   7.299   9.224   3.722
17165TIP3    H151372   7.382   9.252   3.683
17165TIP3    H251373   7.268   9.153   3.665
17166TIP3   OH251374   1.443   0.125   3.801
17166TIP3    H151375   1.448   0.030   3.803
17166TIP3    H251376   1.401   0.145   3.717
17167TIP3   OH251377   7.231   7.879   5.599
17167TIP3    H151378   7.196   7.810   5.655
17167TIP3    H251379   7.323   7.887   5.625
17168TIP3   OH251380   7.478   7.887   5.726
17168TIP3    H151381   7.556   7.868   5.674
17168TIP3    H251382   7.471   7.813   5.787
17169TIP3   OH251383   6.622   9.076   3.777
17169TIP3    H151384   6.625   9.084   3.872
17169TIP3    H251385   6.700   9.026   3.754
17170TIP3   OH251386   8.293   7.936   5.496
17170TIP3    H151387   8.316   7.920   5.587
17170TIP3    H251388   8.377   7.942   5.451
17171TIP3   OH251389   1.652   0.291   5.091
17171TIP3    H151390   1.600   0.320   5.016
17171TIP3    H251391   1.717   0.360   5.103
17172TIP3   OH251392   8.945   8.732   4.518
17172TIP3    H151393   8.911   8.656   4.566
17172TIP3    H251394   8.918   8.807   4.571
17173TIP3   OH251395   8.825   9.172   4.189
17173TIP3    H151396   8.837   9.081   4.219
17173TIP3    H251397   8.859   9.225   4.260
17174TIP3   OH251398   8.464   8.373   3.978
17174TIP3    H151399   8.414   8.441   4.023
17174TIP3    H251400   8.400   8.330   3.921
17175TIP3   OH251401   8.464   8.619   4.187
17175TIP3    H151402   8.524   8.555   4.224
17175TIP3    H251403   8.521   8.684   4.146
17176TIP3   OH251404   9.051   8.242   4.156
17176TIP3    H151405   9.021   8.317   4.103
17176TIP3    H251406   8.998   8.169   4.125
17177TIP3   OH251407   8.649   8.453   4.301
17177TIP3    H151408   8.731   8.502   4.308
17177TIP3    H251409   8.665   8.391   4.229
17178TIP3   OH251410   9.068   8.660   4.091
17178TIP3    H151411   9.161   8.665   4.070
17178TIP3    H251412   9.038   8.579   4.049
17179TIP3   OH251413   9.020   8.231   4.645
17179TIP3    H151414   8.982   8.271   4.567
17179TIP3    H251415   8.947   8.226   4.707
17180TIP3   OH251416   8.939   8.321   4.399
17180TIP3    H151417   8.921   8.410   4.370
17180TIP3    H251418   8.988   8.282   4.327
17181TIP3   OH251419   8.357   8.937   3.722
17181TIP3    H151420   8.262   8.945   3.726
17181TIP3    H251421   8.390   9.016   3.766
17182TIP3   OH251422   9.357   7.944   4.357
17182TIP3    H151423   9.351   7.854   4.389
17182TIP3    H251424   9.282   7.989   4.396
17183TIP3   OH251425   8.877   8.820   3.980
17183TIP3    H151426   8.840   8.777   3.903
17183TIP3    H251427   8.950   8.763   4.007
17184TIP3   OH251428   9.159   8.718   4.349
17184TIP3    H151429   9.122   8.725   4.262
17184TIP3    H251430   9.093   8.758   4.407
17185TIP3   OH251431   9.025   8.786   4.868
17185TIP3    H151432   9.045   8.873   4.901
17185TIP3    H251433   8.963   8.801   4.796
17186TIP3   OH251434   8.760   8.645   3.793
17186TIP3    H151435   8.686   8.685   3.747
17186TIP3    H251436   8.725   8.564   3.829
17187TIP3   OH251437   8.597   9.025   4.620
17187TIP3    H151438   8.592   9.012   4.525
17187TIP3    H251439   8.558   8.946   4.657
17188TIP3   OH251440   8.560   9.175   4.385
17188TIP3    H151441   8.596   9.215   4.306
17188TIP3    H251442   8.467   9.163   4.366
17189TIP3   OH251443   8.826   9.176   4.596
17189TIP3    H151444   8.843   9.209   4.684
17189TIP3    H251445   8.734   9.149   4.598
17190TIP3   OH251446   9.131   8.041   4.477
17190TIP3    H151447   9.047   8.005   4.449
17190TIP3    H251448   9.108   8.117   4.530
17191TIP3   OH251449   9.669   8.116   4.655
17191TIP3    H151450   9.737   8.112   4.722
17191TIP3    H251451   9.587   8.115   4.703
17192TIP3   OH251452   9.350   7.993   3.506
17192TIP3    H151453   9.296   8.029   3.576
17192TIP3    H251454   9.289   7.947   3.449
17193TIP3   OH251455   9.158   8.540   4.574
17193TIP3    H151456   9.068   8.520   4.599
17193TIP3    H251457   9.151   8.581   4.488
17194TIP3   OH251458   8.948   8.437   3.993
17194TIP3    H151459   8.861   8.410   4.022
17194TIP3    H251460   8.955   8.404   3.903
17195TIP3   OH251461   8.912   8.512   4.696
17195TIP3    H151462   8.853   8.567   4.749
17195TIP3    H251463   8.898   8.424   4.729
17196TIP3   OH251464   8.950   8.057   3.431
17196TIP3    H151465   8.941   8.062   3.527
17196TIP3    H251466   8.872   8.100   3.397
17197TIP3   OH251467   8.512   8.104   4.292
17197TIP3    H151468   8.584   8.135   4.346
17197TIP3    H251469   8.552   8.086   4.207
17198TIP3   OH251470   8.446   8.079   3.789
17198TIP3    H151471   8.511   8.119   3.732
17198TIP3    H251472   8.379   8.147   3.800
17199TIP3   OH251473   9.308   8.298   4.062
17199TIP3    H151474   9.225   8.279   4.106
17199TIP3    H251475   9.373   8.249   4.112
17200TIP3   OH251476   8.716   8.315   4.070
17200TIP3    H151477   8.629   8.322   4.032
17200TIP3    H251478   8.743   8.225   4.051
17201TIP3   OH251479   8.972   8.328   3.743
17201TIP3    H151480   9.066   8.340   3.727
17201TIP3    H251481   8.931   8.352   3.660
17202TIP3   OH251482   8.807   8.359   3.523
17202TIP3    H151483   8.727   8.327   3.563
17202TIP3    H251484   8.807   8.321   3.435
17203TIP3   OH251485   9.044   9.036   4.968
17203TIP3    H151486   9.094   9.118   4.963
17203TIP3    H251487   8.961   9.061   5.009
17204TIP3   OH251488   8.860   8.073   4.034
17204TIP3    H151489   8.834   8.000   4.089
17204TIP3    H251490   8.871   8.036   3.947
17205TIP3   OH251491   9.429   8.385   4.517
17205TIP3    H151492   9.405   8.435   4.439
17205TIP3    H251493   9.468   8.450   4.575
17206TIP3   OH251494   8.640   8.818   4.123
17206TIP3    H151495   8.718   8.829   4.069
17206TIP3    H251496   8.665   8.851   4.209
17207TIP3   OH251497   8.731   8.638   4.857
17207TIP3    H151498   8.774   8.688   4.926
17207TIP3    H251499   8.662   8.590   4.903
17208TIP3   OH251500   8.467   8.513   3.577
17208TIP3    H151501   8.508   8.598   3.594
17208TIP3    H251502   8.381   8.520   3.619
17209TIP3   OH251503   8.819   8.287   4.837
17209TIP3    H151504   8.727   8.312   4.847
17209TIP3    H251505   8.848   8.263   4.925
17210TIP3   OH251506   2.136   0.206   4.529
17210TIP3    H151507   2.041   0.191   4.530
17210TIP3    H251508   2.152   0.264   4.603
17211TIP3   OH251509   8.562   8.767   3.645
17211TIP3    H151510   8.493   8.822   3.682
17211TIP3    H251511   8.614   8.827   3.592
17212TIP3   OH251512   9.256   8.337   3.796
17212TIP3    H151513   9.305   8.415   3.770
17212TIP3    H251514   9.272   8.329   3.890
17213TIP3   OH251515   9.425   8.025   3.919
17213TIP3    H151516   9.454   8.064   4.002
17213TIP3    H251517   9.467   8.079   3.852
17214TIP3   OH251518   8.927   8.053   3.713
17214TIP3    H151519   8.919   8.146   3.735
17214TIP3    H251520   9.021   8.035   3.720
17215TIP3   OH251521   8.558   8.254   3.597
17215TIP3    H151522   8.522   8.343   3.604
17215TIP3    H251523   8.505   8.213   3.529
17216TIP3   OH251524   8.879   7.939   4.439
17216TIP3    H151525   8.849   7.908   4.353
17216TIP3    H251526   8.873   7.862   4.495
17217TIP3   OH251527   8.410   9.187   3.832
17217TIP3    H151528   8.371   9.244   3.897
17217TIP3    H251529   8.382   9.223   3.748
17218TIP3   OH251530   8.829   9.158   5.094
17218TIP3    H151531   8.858   9.117   5.175
17218TIP3    H251532   8.737   9.181   5.110
17219TIP3   OH251533   8.854   8.835   5.154
17219TIP3    H151534   8.942   8.799   5.145
17219TIP3    H251535   8.863   8.905   5.218
17220TIP3   OH251536   8.885   8.631   3.540
17220TIP3    H151537   8.857   8.641   3.631
17220TIP3    H251538   8.861   8.541   3.518
17221TIP3   OH251539   9.292   8.755   4.685
17221TIP3    H151540   9.240   8.834   4.670
17221TIP3    H251541   9.237   8.683   4.654
17222TIP3   OH251542   9.440   8.509   4.808
17222TIP3    H151543   9.383   8.433   4.799
17222TIP3    H251544   9.381   8.585   4.805
17223TIP3   OH251545   9.275   8.297   4.725
17223TIP3    H151546   9.313   8.324   4.641
17223TIP3    H251547   9.184   8.275   4.704
17224TIP3   OH251548   9.231   8.484   5.121
17224TIP3    H151549   9.154   8.432   5.143
17224TIP3    H251550   9.227   8.494   5.026
17225TIP3   OH251551   9.422   8.074   4.775
17225TIP3    H151552   9.376   8.157   4.764
17225TIP3    H251553   9.357   8.008   4.754
17226TIP3   OH251554   9.630   8.512   5.005
17226TIP3    H151555   9.577   8.542   5.079
17226TIP3    H251556   9.567   8.503   4.933
17227TIP3   OH251557   8.998   8.350   5.178
17227TIP3    H151558   9.002   8.262   5.140
17227TIP3    H251559   9.017   8.336   5.271
17228TIP3   OH251560   9.538   8.044   5.021
17228TIP3    H151561   9.606   7.982   4.998
17228TIP3    H251562   9.488   8.056   4.940
17229TIP3   OH251563   9.520   8.282   5.153
17229TIP3    H151564   9.537   8.199   5.108
17229TIP3    H251565   9.576   8.346   5.109
17230TIP3   OH251566   8.296   8.920   3.440
17230TIP3    H151567   8.338   8.909   3.525
17230TIP3    H251568   8.290   8.832   3.404
17231TIP3   OH251569   1.640   0.311   3.836
17231TIP3    H151570   1.565   0.253   3.817
17231TIP3    H251571   1.700   0.256   3.887
17232TIP3   OH251572   1.772   0.138   4.002
17232TIP3    H151573   1.737   0.085   4.074
17232TIP3    H251574   1.811   0.214   4.044
17233TIP3   OH251575   8.437   8.801   4.390
17233TIP3    H151576   8.426   8.740   4.318
17233TIP3    H251577   8.530   8.825   4.387
17234TIP3   OH251578   8.768   8.481   5.116
17234TIP3    H151579   8.861   8.461   5.132
17234TIP3    H251580   8.724   8.396   5.120
17235TIP3   OH251581   8.719   8.162   4.466
17235TIP3    H151582   8.773   8.082   4.466
17235TIP3    H251583   8.781   8.232   4.444
17236TIP3   OH251584   8.516   8.421   4.544
17236TIP3    H151585   8.551   8.419   4.455
17236TIP3    H251586   8.453   8.492   4.544
17237TIP3   OH251587   8.523   7.940   4.013
17237TIP3    H151588   8.441   7.915   4.056
17237TIP3    H251589   8.495   8.000   3.943
17238TIP3   OH251590   8.698   7.961   4.842
17238TIP3    H151591   8.655   7.984   4.924
17238TIP3    H251592   8.656   8.017   4.776
17239TIP3   OH251593   2.254   0.278   4.989
17239TIP3    H151594   2.169   0.249   5.022
17239TIP3    H251595   2.309   0.285   5.067
17240TIP3   OH251596   9.488   8.114   4.178
17240TIP3    H151597   9.442   8.060   4.242
17240TIP3    H251598   9.572   8.135   4.218
17241TIP3   OH251599   8.795   7.854   4.188
17241TIP3    H151600   8.703   7.828   4.195
17241TIP3    H251601   8.843   7.772   4.184
17242TIP3   OH251602   8.619   7.745   3.837
17242TIP3    H151603   8.645   7.795   3.759
17242TIP3    H251604   8.591   7.812   3.900
17243TIP3   OH251605   9.263   7.878   4.097
17243TIP3    H151606   9.311   7.931   4.034
17243TIP3    H251607   9.295   7.908   4.183
17244TIP3   OH251608   0.116   7.947   4.051
17244TIP3    H151609   0.094   8.038   4.028
17244TIP3    H251610   0.062   7.928   4.127
17245TIP3   OH251611   1.742   0.079   3.633
17245TIP3    H151612   1.668   0.057   3.576
17245TIP3    H251613   1.722   0.167   3.664
17246TIP3   OH251614   8.726   7.883   3.611
17246TIP3    H151615   8.774   7.826   3.551
17246TIP3    H251616   8.793   7.939   3.650
17247TIP3   OH251617   9.203   8.073   3.734
17247TIP3    H151618   9.255   8.029   3.801
17247TIP3    H251619   9.219   8.166   3.749
17248TIP3   OH251620   9.032   8.091   5.095
17248TIP3    H151621   9.002   8.020   5.152
17248TIP3    H251622   9.122   8.107   5.122
17249TIP3   OH251623   9.278   8.161   5.217
17249TIP3    H151624   9.351   8.216   5.188
17249TIP3    H251625   9.318   8.077   5.237
17250TIP3   OH251626   1.012   8.980   6.373
17250TIP3    H151627   0.993   9.071   6.350
17250TIP3    H251628   1.040   8.940   6.291
17251TIP3   OH251629   1.224   8.885   7.061
17251TIP3    H151630   1.293   8.834   7.019
17251TIP3    H251631   1.178   8.927   6.989
17252TIP3   OH251632   1.075   9.005   6.860
17252TIP3    H151633   0.987   9.038   6.881
17252TIP3    H251634   1.060   8.922   6.815
17253TIP3   OH251635   0.685   8.695   5.417
17253TIP3    H151636   0.725   8.611   5.394
17253TIP3    H251637   0.755   8.742   5.464
17254TIP3   OH251638   1.026   8.755   6.742
17254TIP3    H151639   0.941   8.732   6.704
17254TIP3    H251640   1.073   8.672   6.748
17255TIP3   OH251641   0.813   8.641   6.043
17255TIP3    H151642   0.889   8.583   6.031
17255TIP3    H251643   0.841   8.725   6.007
17256TIP3   OH251644   0.961   9.044   5.728
17256TIP3    H151645   0.896   9.113   5.734
17256TIP3    H251646   0.940   8.984   5.799
17257TIP3   OH251647   2.761   9.210   5.890
17257TIP3    H151648   2.796   9.284   5.940
17257TIP3    H251649   2.818   9.204   5.813
17258TIP3   OH251650   5.393   0.066   5.873
17258TIP3    H151651   5.448  -0.004   5.908
17258TIP3    H251652   5.371   0.038   5.785
17259TIP3   OH251653   1.520   8.967   5.879
17259TIP3    H151654   1.521   9.043   5.822
17259TIP3    H251655   1.470   8.901   5.831
17260TIP3   OH251656   2.249   9.130   5.456
17260TIP3    H151657   2.296   9.106   5.536
17260TIP3    H251658   2.299   9.203   5.420
17261TIP3   OH251659   1.105   9.214   6.010
17261TIP3    H151660   1.180   9.161   5.985
17261TIP3    H251661   1.034   9.184   5.953
17262TIP3   OH251662   4.846   0.258   5.790
17262TIP3    H151663   4.923   0.243   5.735
17262TIP3    H251664   4.774   0.217   5.742
17263TIP3   OH251665   6.155   0.168   6.037
17263TIP3    H151666   6.141   0.246   5.982
17263TIP3    H251667   6.171   0.203   6.124
17264TIP3   OH251668   1.490   9.007   6.315
17264TIP3    H151669   1.427   9.023   6.245
17264TIP3    H251670   1.441   9.029   6.395
17265TIP3   OH251671   2.348   9.094   5.708
17265TIP3    H151672   2.309   9.059   5.787
17265TIP3    H251673   2.393   9.174   5.737
17266TIP3   OH251674   1.358   9.071   6.081
17266TIP3    H151675   1.402   9.155   6.089
17266TIP3    H251676   1.406   9.025   6.012
17267TIP3   OH251677   2.562   9.096   6.054
17267TIP3    H151678   2.477   9.108   6.012
17267TIP3    H251679   2.625   9.130   5.990
17268TIP3   OH251680   1.841   8.727   6.038
17268TIP3    H151681   1.838   8.636   6.068
17268TIP3    H251682   1.765   8.768   6.080
17269TIP3   OH251683   4.969   0.057   5.120
17269TIP3    H151684   4.982   0.127   5.183
17269TIP3    H251685   5.029   0.077   5.048
17270TIP3   OH251686   5.769   0.512   6.061
17270TIP3    H151687   5.742   0.604   6.068
17270TIP3    H251688   5.696   0.463   6.098
17271TIP3   OH251689   2.470   8.693   5.131
17271TIP3    H151690   2.395   8.713   5.187
17271TIP3    H251691   2.483   8.772   5.079
17272TIP3   OH251692   5.921   0.305   6.280
17272TIP3    H151693   5.829   0.291   6.302
17272TIP3    H251694   5.966   0.229   6.315
17273TIP3   OH251695   1.608   8.806   6.168
17273TIP3    H151696   1.525   8.776   6.132
17273TIP3    H251697   1.587   8.890   6.210
17274TIP3   OH251698   2.131   8.930   6.382
17274TIP3    H151699   2.205   8.906   6.438
17274TIP3    H251700   2.054   8.899   6.429
17275TIP3   OH251701   5.672   0.179   6.301
17275TIP3    H151702   5.622   0.134   6.370
17275TIP3    H251703   5.620   0.256   6.281
17276TIP3   OH251704   1.740   8.836   5.141
17276TIP3    H151705   1.705   8.835   5.230
17276TIP3    H251706   1.707   8.756   5.101
17277TIP3   OH251707   4.720   0.082   6.145
17277TIP3    H151708   4.678   0.073   6.231
17277TIP3    H251709   4.653   0.125   6.091
17278TIP3   OH251710   1.516   9.165   5.691
17278TIP3    H151711   1.445   9.227   5.705
17278TIP3    H251712   1.494   9.122   5.608
17279TIP3   OH251713   5.195  -0.017   5.350
17279TIP3    H151714   5.234   0.067   5.374
17279TIP3    H251715   5.249  -0.048   5.277
17280TIP3   OH251716   5.399   0.309   6.537
17280TIP3    H151717   5.413   0.309   6.632
17280TIP3    H251718   5.478   0.347   6.501
17281TIP3   OH251719   2.046   9.219   5.629
17281TIP3    H151720   1.979   9.245   5.565
17281TIP3    H251721   2.118   9.186   5.576
17282TIP3   OH251722   4.660   0.088   6.407
17282TIP3    H151723   4.606   0.146   6.460
17282TIP3    H251724   4.667   0.008   6.459
17283TIP3   OH251725   1.401   8.805   5.097
17283TIP3    H151726   1.371   8.842   5.180
17283TIP3    H251727   1.385   8.875   5.033
17284TIP3   OH251728   0.945   8.869   5.944
17284TIP3    H151729   0.889   8.933   5.988
17284TIP3    H251730   1.023   8.864   6.000
17285TIP3   OH251731   0.880   8.875   5.521
17285TIP3    H151732   0.843   8.919   5.444
17285TIP3    H251733   0.916   8.945   5.574
17286TIP3   OH251734   5.387   0.198   6.131
17286TIP3    H151735   5.405   0.147   6.052
17286TIP3    H251736   5.296   0.226   6.121
17287TIP3   OH251737   1.772   8.974   5.736
17287TIP3    H151738   1.697   8.950   5.791
17287TIP3    H251739   1.812   9.048   5.782
17288TIP3   OH251740   1.228   9.064   5.795
17288TIP3    H151741   1.142   9.060   5.755
17288TIP3    H251742   1.271   8.982   5.770
17289TIP3   OH251743   1.460   9.072   5.435
17289TIP3    H151744   1.555   9.066   5.428
17289TIP3    H251745   1.429   9.071   5.344
17290TIP3   OH251746   2.262   9.093   5.986
17290TIP3    H151747   2.255   9.117   6.078
17290TIP3    H251748   2.194   9.027   5.973
17291TIP3   OH251749   1.297   9.057   5.203
17291TIP3    H151750   1.249   9.015   5.131
17291TIP3    H251751   1.351   9.124   5.161
17292TIP3   OH251752   1.852   9.197   5.863
17292TIP3    H151753   1.941   9.207   5.896
17292TIP3    H251754   1.799   9.252   5.919
17293TIP3   OH251755   1.345   8.824   5.717
17293TIP3    H151756   1.310   8.753   5.771
17293TIP3    H251757   1.347   8.788   5.629
17294TIP3   OH251758   5.085  -0.028   6.194
17294TIP3    H151759   5.033   0.008   6.122
17294TIP3    H251760   5.131   0.047   6.230
17295TIP3   OH251761   1.992   8.936   5.172
17295TIP3    H151762   1.904   8.900   5.164
17295TIP3    H251763   1.996   9.007   5.108
17296TIP3   OH251764   2.164   9.203   5.183
17296TIP3    H151765   2.206   9.147   5.248
17296TIP3    H251766   2.234   9.226   5.122
17297TIP3   OH251767   5.117   0.359   6.546
17297TIP3    H151768   5.024   0.375   6.527
17297TIP3    H251769   5.135   0.417   6.621
17298TIP3   OH251770   5.861   0.116   5.045
17298TIP3    H151771   5.779   0.077   5.015
17298TIP3    H251772   5.885   0.178   4.976
17299TIP3   OH251773   1.381   9.080   6.554
17299TIP3    H151774   1.299   9.030   6.558
17299TIP3    H251775   1.433   9.045   6.626
17300TIP3   OH251776   2.213   9.151   6.250
17300TIP3    H151777   2.255   9.194   6.325
17300TIP3    H251778   2.180   9.068   6.285
17301TIP3   OH251779   2.076   8.914   5.428
17301TIP3    H151780   2.042   8.927   5.340
17301TIP3    H251781   2.130   8.991   5.445
17302TIP3   OH251782   1.737   9.056   5.468
17302TIP3    H151783   1.809   9.107   5.429
17302TIP3    H251784   1.761   9.047   5.560
17303TIP3   OH251785   5.275   0.106   6.360
17303TIP3    H151786   5.327   0.146   6.290
17303TIP3    H251787   5.302   0.014   6.359
17304TIP3   OH251788   1.893   8.784   5.587
17304TIP3    H151789   1.858   8.856   5.640
17304TIP3    H251790   1.963   8.823   5.535
17305TIP3   OH251791   1.374   8.802   5.416
17305TIP3    H151792   1.376   8.896   5.436
17305TIP3    H251793   1.466   8.779   5.403
17306TIP3   OH251794   5.898   0.014   6.282
17306TIP3    H151795   5.815   0.059   6.298
17306TIP3    H251796   5.881  -0.040   6.205
17307TIP3   OH251797   5.549   0.192   5.599
17307TIP3    H151798   5.536   0.285   5.622
17307TIP3    H251799   5.609   0.160   5.666
17308TIP3   OH251800   0.778   8.976   5.275
17308TIP3    H151801   0.870   9.002   5.268
17308TIP3    H251802   0.765   8.913   5.204
17309TIP3   OH251803   1.346   8.719   6.128
17309TIP3    H151804   1.321   8.687   6.041
17309TIP3    H251805   1.339   8.642   6.185
17310TIP3   OH251806   4.708   0.403   6.773
17310TIP3    H151807   4.740   0.314   6.761
17310TIP3    H251808   4.641   0.396   6.841
17311TIP3   OH251809   4.938   0.211   6.330
17311TIP3    H151810   4.864   0.156   6.304
17311TIP3    H251811   4.898   0.283   6.380
17312TIP3   OH251812   4.698   0.037   5.110
17312TIP3    H151813   4.687   0.064   5.019
17312TIP3    H251814   4.793   0.042   5.124
17313TIP3   OH251815   5.043   0.081   6.545
17313TIP3    H151816   5.033  -0.013   6.527
17313TIP3    H251817   5.002   0.124   6.470
17314TIP3   OH251818   1.734   9.080   6.413
17314TIP3    H151819   1.771   9.118   6.333
17314TIP3    H251820   1.646   9.052   6.387
17315TIP3   OH251821   5.646   0.275   6.704
17315TIP3    H151822   5.688   0.190   6.690
17315TIP3    H251823   5.671   0.327   6.628
17316TIP3   OH251824   4.815   0.162   6.710
17316TIP3    H151825   4.785   0.087   6.762
17316TIP3    H251826   4.899   0.135   6.673
17317TIP3   OH251827   1.876   8.853   6.463
17317TIP3    H151828   1.830   8.935   6.446
17317TIP3    H251829   1.811   8.785   6.446
17318TIP3   OH251830   5.308   0.060   6.651
17318TIP3    H151831   5.341   0.117   6.721
17318TIP3    H251832   5.241   0.007   6.693
17319TIP3   OH251833   5.551   0.026   6.497
17319TIP3    H151834   5.471   0.033   6.550
17319TIP3    H251835   5.621   0.014   6.560
17320TIP3   OH251836   2.500   9.264   6.685
17320TIP3    H151837   2.515   9.170   6.678
17320TIP3    H251838   2.506   9.282   6.779
17321TIP3   OH251839   1.456   9.192   6.868
17321TIP3    H151840   1.459   9.104   6.830
17321TIP3    H251841   1.508   9.185   6.948
17322TIP3   OH251842   1.952   8.859   6.724
17322TIP3    H151843   2.024   8.796   6.720
17322TIP3    H251844   1.917   8.860   6.634
17323TIP3   OH251845   2.054   9.072   6.861
17323TIP3    H151846   2.031   8.995   6.810
17323TIP3    H251847   1.976   9.128   6.857
17324TIP3   OH251848   2.378   9.227   4.943
17324TIP3    H151849   2.394   9.237   4.849
17324TIP3    H251850   2.355   9.135   4.953
17325TIP3   OH251851   5.956   0.593   6.332
17325TIP3    H151852   5.896   0.554   6.268
17325TIP3    H251853   5.994   0.668   6.286
17326TIP3   OH251854   2.269   8.973   4.872
17326TIP3    H151855   2.350   8.931   4.897
17326TIP3    H251856   2.202   8.906   4.883
17327TIP3   OH251857   5.734   0.087   5.792
17327TIP3    H151858   5.820   0.067   5.755
17327TIP3    H251859   5.752   0.107   5.884
17328TIP3   OH251860   5.783   0.185   6.039
17328TIP3    H151861   5.733   0.169   6.119
17328TIP3    H251862   5.848   0.250   6.064
17329TIP3   OH251863   1.188   9.267   6.800
17329TIP3    H151864   1.282   9.260   6.817
17329TIP3    H251865   1.154   9.178   6.809
17330TIP3   OH251866   3.033   9.094   6.572
17330TIP3    H151867   3.105   9.058   6.520
17330TIP3    H251868   3.017   9.180   6.535
17331TIP3   OH251869   2.487   8.954   5.317
17331TIP3    H151870   2.519   8.953   5.407
17331TIP3    H251871   2.414   8.893   5.317
17332TIP3   OH251872   1.144   8.906   6.139
17332TIP3    H151873   1.202   8.830   6.148
17332TIP3    H251874   1.204   8.978   6.118
17333TIP3   OH251875   4.245  -0.011   6.255
17333TIP3    H151876   4.301  -0.010   6.177
17333TIP3    H251877   4.249   0.079   6.288
17334TIP3   OH251878   2.892   9.228   6.355
17334TIP3    H151879   2.799   9.248   6.349
17334TIP3    H251880   2.901   9.142   6.315
17335TIP3   OH251881   2.519   8.901   4.958
17335TIP3    H151882   2.562   8.839   4.899
17335TIP3    H251883   2.584   8.970   4.973
17336TIP3   OH251884   0.987   8.690   5.697
17336TIP3    H151885   0.972   8.730   5.783
17336TIP3    H251886   0.947   8.752   5.635
17337TIP3   OH251887   1.185   8.886   6.558
17337TIP3    H151888   1.131   8.843   6.625
17337TIP3    H251889   1.122   8.917   6.492
17338TIP3   OH251890   2.814   8.978   6.252
17338TIP3    H151891   2.724   8.957   6.229
17338TIP3    H251892   2.860   8.895   6.247
17339TIP3   OH251893   2.055   8.921   5.931
17339TIP3    H151894   1.976   8.868   5.945
17339TIP3    H251895   2.102   8.876   5.860
17340TIP3   OH251896   2.514   8.842   5.775
17340TIP3    H151897   2.551   8.900   5.708
17340TIP3    H251898   2.420   8.861   5.773
17341TIP3   OH251899   2.637   8.941   5.551
17341TIP3    H151900   2.695   8.869   5.529
17341TIP3    H251901   2.691   9.019   5.539
17342TIP3   OH251902   1.260   8.622   5.885
17342TIP3    H151903   1.170   8.591   5.900
17342TIP3    H251904   1.312   8.543   5.879
17343TIP3   OH251905   1.075   8.494   5.523
17343TIP3    H151906   1.101   8.544   5.445
17343TIP3    H251907   1.045   8.561   5.585
17344TIP3   OH251908   1.730   8.666   5.787
17344TIP3    H151909   1.787   8.703   5.719
17344TIP3    H251910   1.769   8.695   5.869
17345TIP3   OH251911   2.231   8.798   5.756
17345TIP3    H151912   2.249   8.759   5.670
17345TIP3    H251913   2.236   8.725   5.817
17346TIP3   OH251914   2.284   8.764   5.323
17346TIP3    H151915   2.208   8.812   5.355
17346TIP3    H251916   2.276   8.677   5.363
17347TIP3   OH251917   1.179   8.641   5.303
17347TIP3    H151918   1.228   8.592   5.236
17347TIP3    H251919   1.245   8.696   5.345
17348TIP3   OH251920   1.648   8.808   5.398
17348TIP3    H151921   1.691   8.732   5.439
17348TIP3    H251922   1.691   8.884   5.437
17349TIP3   OH251923   1.494   8.931   6.768
17349TIP3    H151924   1.455   8.869   6.829
17349TIP3    H251925   1.586   8.935   6.792
17350TIP3   OH251926   1.737   8.913   6.893
17350TIP3    H151927   1.816   8.893   6.842
17350TIP3    H251928   1.734   8.845   6.960
17351TIP3   OH251929   2.545   8.996   6.677
17351TIP3    H151930   2.563   8.972   6.768
17351TIP3    H251931   2.631   8.992   6.634
17352TIP3   OH251932   5.926   0.135   5.305
17352TIP3    H151933   5.961   0.223   5.300
17352TIP3    H251934   5.904   0.112   5.214
17353TIP3   OH251935   7.833   0.206   5.376
17353TIP3    H151936   7.821   0.299   5.396
17353TIP3    H251937   7.893   0.205   5.302
17354TIP3   OH251938   7.209   0.361   5.403
17354TIP3    H151939   7.260   0.285   5.430
17354TIP3    H251940   7.171   0.336   5.318
17355TIP3   OH251941   6.589   0.010   5.379
17355TIP3    H151942   6.586   0.074   5.307
17355TIP3    H251943   6.541  -0.066   5.346
17356TIP3   OH251944   7.270   0.170   4.979
17356TIP3    H151945   7.331   0.143   5.049
17356TIP3    H251946   7.321   0.163   4.899
17357TIP3   OH251947   6.182   0.183   5.467
17357TIP3    H151948   6.270   0.154   5.488
17357TIP3    H251949   6.194   0.252   5.401
17358TIP3   OH251950   6.671   0.534   5.237
17358TIP3    H151951   6.743   0.485   5.196
17358TIP3    H251952   6.592   0.489   5.207
17359TIP3   OH251953   7.989   0.431   5.566
17359TIP3    H151954   7.904   0.433   5.521
17359TIP3    H251955   7.982   0.498   5.634
17360TIP3   OH251956   6.556   0.027   5.799
17360TIP3    H151957   6.497   0.057   5.730
17360TIP3    H251958   6.506   0.037   5.880
17361TIP3   OH251959   7.425   0.123   5.193
17361TIP3    H151960   7.384   0.099   5.276
17361TIP3    H251961   7.489   0.191   5.216
17362TIP3   OH251962   6.423   0.112   5.574
17362TIP3    H151963   6.443   0.205   5.584
17362TIP3    H251964   6.487   0.080   5.511
17363TIP3   OH251965   7.620   0.124   5.539
17363TIP3    H151966   7.540   0.132   5.488
17363TIP3    H251967   7.690   0.141   5.476
17364TIP3   OH251968   3.643   8.986   5.542
17364TIP3    H151969   3.637   8.893   5.565
17364TIP3    H251970   3.563   9.024   5.576
17365TIP3   OH251971   6.801   0.279   4.611
17365TIP3    H151972   6.813   0.349   4.674
17365TIP3    H251973   6.868   0.294   4.545
17366TIP3   OH251974   7.451   0.715   5.617
17366TIP3    H151975   7.440   0.809   5.604
17366TIP3    H251976   7.440   0.702   5.711
17367TIP3   OH251977   4.261   8.940   4.617
17367TIP3    H151978   4.186   8.958   4.674
17367TIP3    H251979   4.271   9.019   4.565
17368TIP3   OH251980   7.695   0.576   5.758
17368TIP3    H151981   7.608   0.592   5.795
17368TIP3    H251982   7.705   0.481   5.761
17369TIP3   OH251983   3.398   9.061   5.651
17369TIP3    H151984   3.315   9.029   5.616
17369TIP3    H251985   3.375   9.142   5.696
17370TIP3   OH251986   3.929   9.203   5.881
17370TIP3    H151987   4.003   9.171   5.932
17370TIP3    H251988   3.852   9.164   5.923
17371TIP3   OH251989   7.406   0.383   5.805
17371TIP3    H151990   7.392   0.382   5.900
17371TIP3    H251991   7.341   0.443   5.771
17372TIP3   OH251992   3.545   9.053   4.599
17372TIP3    H151993   3.527   9.039   4.692
17372TIP3    H251994   3.518   8.971   4.557
17373TIP3   OH251995   6.445   0.377   5.636
17373TIP3    H151996   6.438   0.371   5.731
17373TIP3    H251997   6.533   0.409   5.620
17374TIP3   OH251998   6.567   0.170   5.163
17374TIP3    H151999   6.514   0.250   5.165
17374TIP3    H252000   6.522   0.114   5.100
17375TIP3   OH252001   6.987   0.208   4.856
17375TIP3    H152002   6.921   0.275   4.837
17375TIP3    H252003   7.032   0.194   4.773
17376TIP3   OH252004   7.229   0.653   6.067
17376TIP3    H152005   7.145   0.624   6.031
17376TIP3    H252006   7.292   0.636   5.997
17377TIP3   OH252007   7.091   0.269   5.168
17377TIP3    H152008   7.013   0.287   5.116
17377TIP3    H252009   7.148   0.220   5.109
17378TIP3   OH252010   6.463   0.330   5.906
17378TIP3    H152011   6.411   0.389   5.961
17378TIP3    H252012   6.456   0.245   5.948
17379TIP3   OH252013   2.832   9.100   5.423
17379TIP3    H152014   2.916   9.064   5.451
17379TIP3    H252015   2.808   9.048   5.347
17380TIP3   OH252016   2.703   9.107   4.994
17380TIP3    H152017   2.723   9.121   4.902
17380TIP3    H252018   2.681   9.194   5.028
17381TIP3   OH252019   7.209   0.513   5.660
17381TIP3    H152020   7.216   0.485   5.569
17381TIP3    H252021   7.147   0.451   5.699
17382TIP3   OH252022   6.854   0.018   5.254
17382TIP3    H152023   6.776   0.005   5.308
17382TIP3    H252024   6.927   0.007   5.314
17383TIP3   OH252025   6.221   0.043   5.217
17383TIP3    H152026   6.251   0.093   5.140
17383TIP3    H252027   6.284  -0.029   5.224
17384TIP3   OH252028   6.620   0.187   4.860
17384TIP3    H152029   6.680   0.122   4.898
17384TIP3    H252030   6.548   0.135   4.824
17385TIP3   OH252031   7.314   0.103   5.442
17385TIP3    H152032   7.315   0.112   5.537
17385TIP3    H252033   7.240   0.044   5.425
17386TIP3   OH252034   3.155   9.250   4.793
17386TIP3    H152035   3.168   9.164   4.833
17386TIP3    H252036   3.115   9.231   4.708
17387TIP3   OH252037   6.905   0.302   5.381
17387TIP3    H152038   6.980   0.263   5.337
17387TIP3    H252039   6.902   0.259   5.467
17388TIP3   OH252040   3.147   9.084   5.239
17388TIP3    H152041   3.110   9.005   5.279
17388TIP3    H252042   3.170   9.057   5.150
17389TIP3   OH252043   6.876   0.239   5.645
17389TIP3    H152044   6.812   0.310   5.645
17389TIP3    H252045   6.951   0.274   5.694
17390TIP3   OH252046   3.768   9.201   4.666
17390TIP3    H152047   3.688   9.152   4.649
17390TIP3    H252048   3.765   9.275   4.604
17391TIP3   OH252049   7.183   0.231   4.625
17391TIP3    H152050   7.257   0.182   4.661
17391TIP3    H252051   7.221   0.315   4.599
17392TIP3   OH252052   7.005   0.520   5.995
17392TIP3    H152053   7.017   0.458   6.066
17392TIP3    H252054   6.918   0.556   6.008
17393TIP3   OH252055   7.656   0.362   4.530
17393TIP3    H152056   7.580   0.316   4.495
17393TIP3    H252057   7.620   0.441   4.569
17394TIP3   OH252058   6.423   0.082   6.031
17394TIP3    H152059   6.328   0.083   6.034
17394TIP3    H252060   6.448   0.018   6.099
17395TIP3   OH252061   7.301   0.142   5.705
17395TIP3    H152062   7.337   0.214   5.757
17395TIP3    H252063   7.263   0.082   5.769
17396TIP3   OH252064   3.871   9.169   4.917
17396TIP3    H152065   3.829   9.179   4.832
17396TIP3    H252066   3.902   9.256   4.940
17397TIP3   OH252067   6.812   0.034   4.982
17397TIP3    H152068   6.885   0.086   4.947
17397TIP3    H252069   6.822   0.040   5.077
17398TIP3   OH252070   7.066   0.336   5.810
17398TIP3    H152071   7.040   0.408   5.869
17398TIP3    H252072   7.100   0.269   5.869
17399TIP3   OH252073   3.713   9.048   5.112
17399TIP3    H152074   3.667   9.125   5.146
17399TIP3    H252075   3.768   9.083   5.041
17400TIP3   OH252076   7.670   0.299   5.756
17400TIP3    H152077   7.581   0.313   5.786
17400TIP3    H252078   7.662   0.238   5.683
17401TIP3   OH252079   7.368   0.464   5.126
17401TIP3    H152080   7.307   0.403   5.085
17401TIP3    H252081   7.428   0.409   5.175
17402TIP3   OH252082   2.692   9.194   4.738
17402TIP3    H152083   2.648   9.278   4.742
17402TIP3    H252084   2.645   9.145   4.670
17403TIP3   OH252085   3.129   8.981   5.623
17403TIP3    H152086   3.104   8.945   5.538
17403TIP3    H252087   3.128   8.906   5.683
17404TIP3   OH252088   6.487   0.645   6.227
17404TIP3    H152089   6.536   0.564   6.244
17404TIP3    H252090   6.438   0.661   6.308
17405TIP3   OH252091   6.567   0.415   4.535
17405TIP3    H152092   6.503   0.350   4.509
17405TIP3    H252093   6.648   0.366   4.549
17406TIP3   OH252094   6.787   0.284   6.050
17406TIP3    H152095   6.790   0.199   6.007
17406TIP3    H252096   6.770   0.346   5.980
17407TIP3   OH252097   6.811   0.086   5.862
17407TIP3    H152098   6.842   0.128   5.782
17407TIP3    H252099   6.720   0.062   5.844
17408TIP3   OH252100   7.458   0.563   6.233
17408TIP3    H152101   7.416   0.511   6.165
17408TIP3    H252102   7.524   0.615   6.186
17409TIP3   OH252103   6.622   0.403   6.241
17409TIP3    H152104   6.576   0.327   6.276
17409TIP3    H252105   6.669   0.370   6.165
17410TIP3   OH252106   3.676   9.104   5.945
17410TIP3    H152107   3.633   9.184   5.915
17410TIP3    H252108   3.612   9.035   5.931
17411TIP3   OH252109   7.076   0.269   6.110
17411TIP3    H152110   7.066   0.295   6.202
17411TIP3    H252111   6.992   0.229   6.087
17412TIP3   OH252112   7.339   0.366   6.066
17412TIP3    H152113   7.257   0.323   6.089
17412TIP3    H252114   7.406   0.315   6.110
17413TIP3   OH252115   7.560   0.260   6.189
17413TIP3    H152116   7.576   0.166   6.184
17413TIP3    H252117   7.559   0.280   6.282
17414TIP3   OH252118   6.507   0.174   6.348
17414TIP3    H152119   6.509   0.091   6.301
17414TIP3    H252120   6.563   0.161   6.424
17415TIP3   OH252121   3.740   9.117   6.209
17415TIP3    H152122   3.815   9.056   6.209
17415TIP3    H252123   3.708   9.115   6.119
17416TIP3   OH252124   7.087   0.084   6.368
17416TIP3    H152125   7.066   0.010   6.310
17416TIP3    H252126   7.010   0.140   6.364
17417TIP3   OH252127   7.458   0.229   4.415
17417TIP3    H152128   7.475   0.242   4.322
17417TIP3    H252129   7.415   0.143   4.420
17418TIP3   OH252130   7.340   0.639   4.855
17418TIP3    H152131   7.302   0.556   4.886
17418TIP3    H252132   7.347   0.693   4.934
17419TIP3   OH252133   7.923   0.837   5.713
17419TIP3    H152134   7.852   0.835   5.649
17419TIP3    H252135   8.001   0.812   5.663
17420TIP3   OH252136   4.057   9.234   4.352
17420TIP3    H152137   4.139   9.192   4.379
17420TIP3    H252138   3.989   9.169   4.370
17421TIP3   OH252139   7.415   0.153   4.750
17421TIP3    H152140   7.476   0.079   4.756
17421TIP3    H252141   7.470   0.230   4.760
17422TIP3   OH252142   7.575   0.341   5.257
17422TIP3    H152143   7.641   0.329   5.189
17422TIP3    H252144   7.625   0.367   5.335
17423TIP3   OH252145   7.733   0.451   5.464
17423TIP3    H152146   7.647   0.445   5.506
17423TIP3    H252147   7.750   0.544   5.455
17424TIP3   OH252148   6.236   0.241   6.297
17424TIP3    H152149   6.331   0.236   6.285
17424TIP3    H252150   6.211   0.155   6.331
17425TIP3   OH252151   8.083   0.176   6.042
17425TIP3    H152152   8.161   0.121   6.028
17425TIP3    H252153   8.058   0.205   5.955
17426TIP3   OH252154   4.306   9.179   4.820
17426TIP3    H152155   4.343   9.173   4.908
17426TIP3    H252156   4.234   9.116   4.821
17427TIP3   OH252157   2.963   9.190   5.700
17427TIP3    H152158   3.016   9.111   5.688
17427TIP3    H252159   3.017   9.260   5.665
17428TIP3   OH252160   6.115   0.265   5.734
17428TIP3    H152161   6.161   0.262   5.650
17428TIP3    H252162   6.089   0.357   5.744
17429TIP3   OH252163   7.937   0.254   5.821
17429TIP3    H152164   7.848   0.288   5.819
17429TIP3    H252165   7.933   0.171   5.774
17430TIP3   OH252166   4.304   9.153   4.447
17430TIP3    H152167   4.350   9.095   4.386
17430TIP3    H252168   4.367   9.222   4.466
17431TIP3   OH252169   2.742   8.953   5.211
17431TIP3    H152170   2.651   8.943   5.239
17431TIP3    H252171   2.737   9.013   5.136
17432TIP3   OH252172   2.965   9.065   6.032
17432TIP3    H152173   2.911   9.038   6.107
17432TIP3    H252174   2.903   9.101   5.969
17433TIP3   OH252175   4.600   9.236   5.740
17433TIP3    H152176   4.511   9.208   5.719
17433TIP3    H252177   4.651   9.155   5.738
17434TIP3   OH252178   3.811   9.183   5.398
17434TIP3    H152179   3.771   9.110   5.446
17434TIP3    H252180   3.873   9.140   5.339
17435TIP3   OH252181   4.308   9.114   5.284
17435TIP3    H152182   4.352   9.157   5.211
17435TIP3    H252183   4.215   9.128   5.268
17436TIP3   OH252184   4.453   9.164   5.055
17436TIP3    H152185   4.512   9.095   5.025
17436TIP3    H252186   4.500   9.245   5.037
17437TIP3   OH252187   3.034   8.876   5.389
17437TIP3    H152188   2.949   8.835   5.398
17437TIP3    H252189   3.095   8.803   5.375
17438TIP3   OH252190   2.838   8.771   5.011
17438TIP3    H152191   2.875   8.821   4.938
17438TIP3    H252192   2.820   8.836   5.079
17439TIP3   OH252193   3.535   8.924   5.288
17439TIP3    H152194   3.590   8.958   5.218
17439TIP3    H252195   3.578   8.952   5.369
17440TIP3   OH252196   4.020   9.077   5.253
17440TIP3    H152197   4.016   9.043   5.163
17440TIP3    H252198   4.031   8.999   5.307
17441TIP3   OH252199   4.083   9.015   4.817
17441TIP3    H152200   4.008   9.068   4.846
17441TIP3    H252201   4.068   8.929   4.855
17442TIP3   OH252202   2.950   8.905   4.779
17442TIP3    H152203   2.998   8.851   4.716
17442TIP3    H252204   3.018   8.939   4.837
17443TIP3   OH252205   3.490   9.030   4.860
17443TIP3    H152206   3.403   9.004   4.889
17443TIP3    H252207   3.510   9.108   4.912
17444TIP3   OH252208   3.274   9.160   6.240
17444TIP3    H152209   3.242   9.097   6.304
17444TIP3    H252210   3.366   9.172   6.262
17445TIP3   OH252211   3.518   9.173   6.368
17445TIP3    H152212   3.598   9.148   6.322
17445TIP3    H252213   3.512   9.111   6.441
17446TIP3   OH252214   4.352   9.235   6.168
17446TIP3    H152215   4.372   9.211   6.259
17446TIP3    H252216   4.437   9.239   6.125
17447TIP3   OH252217   7.847   0.395   4.762
17447TIP3    H152218   7.843   0.449   4.683
17447TIP3    H252219   7.758   0.363   4.774
17448TIP3   OH252220   9.644   0.477   4.861
17448TIP3    H152221   9.676   0.554   4.907
17448TIP3    H252222   9.686   0.480   4.775
17449TIP3   OH252223   9.006   0.621   4.842
17449TIP3    H152224   9.052   0.547   4.881
17449TIP3    H252225   8.992   0.596   4.751
17450TIP3   OH252226   8.399   0.233   4.871
17450TIP3    H152227   8.395   0.301   4.804
17450TIP3    H252228   8.348   0.160   4.835
17451TIP3   OH252229   9.092   0.393   4.452
17451TIP3    H152230   9.151   0.388   4.527
17451TIP3    H252231   9.148   0.428   4.381
17452TIP3   OH252232   8.000   0.500   4.971
17452TIP3    H152233   8.071   0.436   4.971
17452TIP3    H252234   7.940   0.469   4.903
17453TIP3   OH252235   8.472   0.808   4.720
17453TIP3    H152236   8.551   0.760   4.696
17453TIP3    H252237   8.400   0.756   4.682
17454TIP3   OH252238   9.725   0.683   5.031
17454TIP3    H152239   9.643   0.728   5.011
17454TIP3    H252240   9.761   0.730   5.106
17455TIP3   OH252241   8.356   0.284   5.295
17455TIP3    H152242   8.292   0.305   5.228
17455TIP3    H252243   8.309   0.293   5.378
17456TIP3   OH252244   9.231   0.411   4.685
17456TIP3    H152245   9.197   0.393   4.773
17456TIP3    H252246   9.292   0.483   4.698
17457TIP3   OH252247   8.226   0.353   5.058
17457TIP3    H152248   8.264   0.440   5.071
17457TIP3    H252249   8.283   0.310   4.995
17458TIP3   OH252250   9.443   0.368   5.023
17458TIP3    H152251   9.359   0.379   4.977
17458TIP3    H252252   9.509   0.394   4.958
17459TIP3   OH252253   5.430   9.254   5.007
17459TIP3    H152254   5.429   9.161   5.031
17459TIP3    H252255   5.350   9.290   5.046
17460TIP3   OH252256   8.560   0.569   4.077
17460TIP3    H152257   8.596   0.627   4.144
17460TIP3    H252258   8.611   0.588   3.999
17461TIP3   OH252259   9.351   1.021   5.012
17461TIP3    H152260   9.348   1.111   5.045
17461TIP3    H252261   9.310   0.969   5.081
17462TIP3   OH252262   6.068   9.207   4.109
17462TIP3    H152263   5.992   9.226   4.165
17462TIP3    H252264   6.077   9.285   4.054
17463TIP3   OH252265   9.473   0.855   5.328
17463TIP3    H152266   9.390   0.874   5.284
17463TIP3    H252267   9.498   0.768   5.298
17464TIP3   OH252268   8.461   0.082   5.145
17464TIP3    H152269   8.384   0.046   5.100
17464TIP3    H252270   8.428   0.157   5.193
17465TIP3   OH252271   9.000   0.211   5.356
17465TIP3    H152272   9.078   0.189   5.406
17465TIP3    H252273   8.928   0.168   5.403
17466TIP3   OH252274   9.232   0.617   5.282
17466TIP3    H152275   9.194   0.600   5.368
17466TIP3    H252276   9.222   0.712   5.269
17467TIP3   OH252277   8.613   0.120   4.112
17467TIP3    H152278   8.584   0.114   4.203
17467TIP3    H252279   8.582   0.039   4.072
17468TIP3   OH252280   8.321   0.595   5.145
17468TIP3    H152281   8.315   0.567   5.236
17468TIP3    H252282   8.293   0.686   5.146
17469TIP3   OH252283   8.372   0.401   4.663
17469TIP3    H152284   8.281   0.408   4.694
17469TIP3    H252285   8.364   0.376   4.571
17470TIP3   OH252286   8.806   0.536   4.346
17470TIP3    H152287   8.837   0.626   4.340
17470TIP3    H252288   8.854   0.489   4.278
17471TIP3   OH252289   9.015   0.837   5.480
17471TIP3    H152290   8.985   0.834   5.571
17471TIP3    H252291   9.110   0.821   5.486
17472TIP3   OH252292   8.905   0.522   4.610
17472TIP3    H152293   8.845   0.541   4.538
17472TIP3    H252294   8.975   0.470   4.571
17473TIP3   OH252295   8.280   0.575   5.416
17473TIP3    H152296   8.229   0.640   5.464
17473TIP3    H252297   8.260   0.492   5.460
17474TIP3   OH252298   8.265   0.081   4.070
17474TIP3    H152299   8.233   0.104   4.157
17474TIP3    H252300   8.238   0.155   4.015
17475TIP3   OH252301   7.876   0.114   4.941
17475TIP3    H152302   7.836   0.201   4.949
17475TIP3    H252303   7.871   0.094   4.847
17476TIP3   OH252304   7.764   0.112   4.494
17476TIP3    H152305   7.783   0.113   4.400
17476TIP3    H252306   7.740   0.203   4.514
17477TIP3   OH252307   9.054   0.806   5.045
17477TIP3    H152308   9.056   0.747   4.970
17477TIP3    H252309   8.969   0.789   5.086
17478TIP3   OH252310   8.653   0.265   4.716
17478TIP3    H152311   8.577   0.234   4.765
17478TIP3    H252312   8.695   0.328   4.775
17479TIP3   OH252313   8.120   0.346   4.750
17479TIP3    H152314   8.025   0.351   4.747
17479TIP3    H252315   8.140   0.253   4.740
17480TIP3   OH252316   8.344   0.352   4.396
17480TIP3    H152317   8.439   0.345   4.384
17480TIP3    H252318   8.308   0.345   4.307
17481TIP3   OH252319   9.113   0.385   4.939
17481TIP3    H152320   9.096   0.403   5.031
17481TIP3    H252321   9.051   0.316   4.916
17482TIP3   OH252322   8.155   0.335   4.195
17482TIP3    H152323   8.088   0.300   4.136
17482TIP3    H252324   8.194   0.407   4.145
17483TIP3   OH252325   8.723   0.487   4.866
17483TIP3    H152326   8.804   0.528   4.835
17483TIP3    H252327   8.665   0.561   4.884
17484TIP3   OH252328   8.211   0.090   4.710
17484TIP3    H152329   8.170   0.021   4.761
17484TIP3    H252330   8.223   0.051   4.623
17485TIP3   OH252331   8.662   0.530   5.138
17485TIP3    H152332   8.597   0.584   5.093
17485TIP3    H252333   8.711   0.488   5.068
17486TIP3   OH252334   8.860   0.245   4.112
17486TIP3    H152335   8.772   0.208   4.106
17486TIP3    H252336   8.865   0.308   4.040
17487TIP3   OH252337   8.983   0.547   4.119
17487TIP3    H152338   9.069   0.518   4.151
17487TIP3    H252339   8.972   0.502   4.035
17488TIP3   OH252340   9.359   0.608   4.008
17488TIP3    H152341   9.303   0.572   3.939
17488TIP3    H252342   9.373   0.699   3.981
17489TIP3   OH252343   8.235   0.326   5.534
17489TIP3    H152344   8.142   0.348   5.542
17489TIP3    H252345   8.250   0.260   5.602
17490TIP3   OH252346   9.042   0.435   5.200
17490TIP3    H152347   9.121   0.479   5.231
17490TIP3    H252348   9.036   0.356   5.255
17491TIP3   OH252349   8.926   0.189   4.374
17491TIP3    H152350   8.904   0.212   4.283
17491TIP3    H252351   8.979   0.262   4.405
17492TIP3   OH252352   8.622   0.334   4.439
17492TIP3    H152353   8.688   0.398   4.410
17492TIP3    H252354   8.633   0.330   4.534
17493TIP3   OH252355   8.859   0.591   5.335
17493TIP3    H152356   8.902   0.630   5.411
17493TIP3    H252357   8.929   0.545   5.289
17494TIP3   OH252358   8.755   0.067   4.554
17494TIP3    H152359   8.731   0.141   4.610
17494TIP3    H252360   8.818   0.103   4.492
17495TIP3   OH252361   8.237   0.083   4.366
17495TIP3    H152362   8.228   0.175   4.389
17495TIP3    H252363   8.331   0.067   4.363
17496TIP3   OH252364   9.498   0.594   5.231
17496TIP3    H152365   9.405   0.587   5.250
17496TIP3    H252366   9.509   0.549   5.148
17497TIP3   OH252367   9.178   0.754   4.573
17497TIP3    H152368   9.142   0.827   4.623
17497TIP3    H252369   9.237   0.710   4.634
17498TIP3   OH252370   7.755   0.149   4.227
17498TIP3    H152371   7.812   0.224   4.244
17498TIP3    H252372   7.671   0.189   4.204
17499TIP3   OH252373   4.934   9.236   5.091
17499TIP3    H152374   4.897   9.207   5.008
17499TIP3    H252375   4.923   9.161   5.150
17500TIP3   OH252376   8.297   0.922   5.732
17500TIP3    H152377   8.337   0.835   5.734
17500TIP3    H252378   8.229   0.918   5.800
17501TIP3   OH252379   8.283   0.569   4.114
17501TIP3    H152380   8.259   0.588   4.023
17501TIP3    H252381   8.379   0.563   4.113
17502TIP3   OH252382   8.565   0.580   5.464
17502TIP3    H152383   8.537   0.545   5.549
17502TIP3    H252384   8.499   0.646   5.442
17503TIP3   OH252385   8.624   0.317   5.315
17503TIP3    H152386   8.640   0.280   5.228
17503TIP3    H252387   8.529   0.308   5.327
17504TIP3   OH252388   9.288   0.816   5.540
17504TIP3    H152389   9.311   0.734   5.584
17504TIP3    H252390   9.365   0.837   5.487
17505TIP3   OH252391   8.437   0.683   5.729
17505TIP3    H152392   8.393   0.602   5.755
17505TIP3    H252393   8.513   0.689   5.786
17506TIP3   OH252394   8.749   0.108   5.440
17506TIP3    H152395   8.706   0.186   5.403
17506TIP3    H252396   8.686   0.037   5.426
17507TIP3   OH252397   8.854   0.594   5.627
17507TIP3    H152398   8.897   0.664   5.675
17507TIP3    H252399   8.795   0.554   5.690
17508TIP3   OH252400   9.106   0.539   5.508
17508TIP3    H152401   9.027   0.531   5.561
17508TIP3    H252402   9.178   0.535   5.571
17509TIP3   OH252403   9.342   0.559   5.659
17509TIP3    H152404   9.366   0.466   5.656
17509TIP3    H252405   9.348   0.582   5.752
17510TIP3   OH252406   8.335   0.440   5.814
17510TIP3    H152407   8.340   0.353   5.774
17510TIP3    H252408   8.368   0.428   5.903
17511TIP3   OH252409   8.819   0.136   5.702
17511TIP3    H152410   8.890   0.072   5.701
17511TIP3    H252411   8.782   0.132   5.613
17512TIP3   OH252412   8.913   0.356   5.835
17512TIP3    H152413   8.890   0.278   5.785
17512TIP3    H252414   8.833   0.409   5.834
17513TIP3   OH252415   9.211   0.500   3.810
17513TIP3    H152416   9.217   0.533   3.720
17513TIP3    H252417   9.196   0.406   3.799
17514TIP3   OH252418   9.325   0.728   4.335
17514TIP3    H152419   9.295   0.639   4.316
17514TIP3    H252420   9.286   0.749   4.420
17515TIP3   OH252421   9.697   1.009   5.360
17515TIP3    H152422   9.613   0.967   5.341
17515TIP3    H252423   9.762   0.955   5.315
17516TIP3   OH252424   9.147   0.230   3.770
17516TIP3    H152425   9.218   0.200   3.827
17516TIP3    H252426   9.070   0.181   3.800
17517TIP3   OH252427   9.240   0.481   4.226
17517TIP3    H152428   9.284   0.397   4.241
17517TIP3    H252429   9.287   0.520   4.152
17518TIP3   OH252430   9.376   0.642   4.736
17518TIP3    H152431   9.453   0.664   4.684
17518TIP3    H252432   9.396   0.672   4.824
17519TIP3   OH252433   9.497   0.800   4.934
17519TIP3    H152434   9.451   0.881   4.956
17519TIP3    H252435   9.537   0.816   4.849
17520TIP3   OH252436   8.064   0.499   5.833
17520TIP3    H152437   8.151   0.481   5.798
17520TIP3    H252438   8.019   0.415   5.831
17521TIP3   OH252439   0.102   0.426   5.525
17521TIP3    H152440   0.167   0.369   5.484
17521TIP3    H252441   0.065   0.476   5.452
17522TIP3   OH252442   9.347   0.237   4.290
17522TIP3    H152443   9.392   0.226   4.374
17522TIP3    H252444   9.282   0.167   4.288
17523TIP3   OH252445   8.028   0.208   5.187
17523TIP3    H152446   8.052   0.126   5.145
17523TIP3    H252447   8.086   0.273   5.147
17524TIP3   OH252448   7.912   0.508   5.228
17524TIP3    H152449   7.960   0.511   5.145
17524TIP3    H252450   7.872   0.594   5.236
17525TIP3   OH252451   9.748   0.532   5.325
17525TIP3    H152452   9.660   0.568   5.313
17525TIP3    H252453   9.747   0.450   5.275
17526TIP3   OH252454   9.371   0.171   3.923
17526TIP3    H152455   9.421   0.108   3.872
17526TIP3    H252456   9.429   0.248   3.929
17527TIP3   OH252457   4.558   9.196   4.701
17527TIP3    H152458   4.472   9.178   4.739
17527TIP3    H252459   4.540   9.258   4.629
17528TIP3   OH252460   8.030   0.060   5.519
17528TIP3    H152461   7.969   0.043   5.591
17528TIP3    H252462   7.979   0.113   5.457
17529TIP3   OH252463   9.668   0.280   5.226
17529TIP3    H152464   9.583   0.275   5.181
17529TIP3    H252465   9.704   0.192   5.218
17530TIP3   OH252466   8.920   0.193   4.893
17530TIP3    H152467   8.843   0.138   4.908
17530TIP3    H252468   8.971   0.146   4.827
17531TIP3   OH252469   9.373   0.134   4.760
17531TIP3    H152470   9.411   0.180   4.685
17531TIP3    H252471   9.278   0.146   4.749
17532TIP3   OH252472   9.494   0.200   4.521
17532TIP3    H152473   9.564   0.139   4.498
17532TIP3    H252474   9.531   0.287   4.505
17533TIP3   OH252475   4.842   9.124   4.856
17533TIP3    H152476   4.751   9.097   4.867
17533TIP3    H252477   4.892   9.042   4.860
17534TIP3   OH252478   4.650   9.020   4.499
17534TIP3    H152479   4.681   9.072   4.424
17534TIP3    H252480   4.628   9.085   4.566
17535TIP3   OH252481   5.319   9.195   4.752
17535TIP3    H152482   5.380   9.224   4.685
17535TIP3    H252483   5.360   9.220   4.835
17536TIP3   OH252484   9.097   0.060   4.727
17536TIP3    H152485   9.130   0.019   4.647
17536TIP3    H252486   9.104  -0.009   4.793
17537TIP3   OH252487   9.149   0.040   4.299
17537TIP3    H152488   9.069   0.087   4.323
17537TIP3    H252489   9.140  -0.046   4.341
17538TIP3   OH252490   4.759   9.162   4.283
17538TIP3    H152491   4.800   9.115   4.210
17538TIP3    H252492   4.827   9.220   4.315
17539TIP3   OH252493   8.514   0.091   4.368
17539TIP3    H152494   8.550   0.011   4.406
17539TIP3    H252495   8.563   0.162   4.409
17540TIP3   OH252496   8.348   0.166   5.747
17540TIP3    H152497   8.312   0.112   5.817
17540TIP3    H252498   8.441   0.174   5.768
17541TIP3   OH252499   8.596   0.180   5.876
17541TIP3    H152500   8.675   0.157   5.826
17541TIP3    H252501   8.593   0.115   5.946
17542TIP3   OH252502   9.417   0.294   5.650
17542TIP3    H152503   9.435   0.263   5.739
17542TIP3    H252504   9.501   0.287   5.605
17543TIP3   OH252505   9.566   0.667   4.194
17543TIP3    H152506   9.512   0.709   4.262
17543TIP3    H252507   9.503   0.639   4.128
17544TIP3   OH252508   1.028   0.940   4.327
17544TIP3    H152509   1.020   0.846   4.346
17544TIP3    H252510   1.000   0.948   4.236
17545TIP3   OH252511   0.366   0.564   4.308
17545TIP3    H152512   0.346   0.643   4.258
17545TIP3    H252513   0.305   0.498   4.273
17546TIP3   OH252514   1.071   0.668   3.953
17546TIP3    H152515   1.119   0.662   4.036
17546TIP3    H252516   1.136   0.643   3.887
17547TIP3   OH252517   9.762   0.757   4.470
17547TIP3    H152518   9.854   0.760   4.498
17547TIP3    H252519   9.767   0.731   4.378
17548TIP3   OH252520   0.408   0.970   4.306
17548TIP3    H152521   0.502   0.961   4.295
17548TIP3    H252522   0.370   0.908   4.243
17549TIP3   OH252523   0.322   0.549   4.769
17549TIP3    H152524   0.269   0.590   4.700
17549TIP3    H252525   0.273   0.564   4.849
17550TIP3   OH252526   1.249   0.681   4.162
17550TIP3    H152527   1.182   0.679   4.230
17550TIP3    H252528   1.278   0.772   4.158
17551TIP3   OH252529   0.218   0.645   4.534
17551TIP3    H152530   0.243   0.737   4.537
17551TIP3    H252531   0.274   0.607   4.467
17552TIP3   OH252532   1.381   0.600   4.415
17552TIP3    H152533   1.335   0.684   4.413
17552TIP3    H252534   1.408   0.585   4.324
17553TIP3   OH252535   0.635   0.228   4.507
17553TIP3    H152536   0.635   0.144   4.554
17553TIP3    H252537   0.561   0.276   4.544
17554TIP3   OH252538   0.604   0.793   3.484
17554TIP3    H152539   0.661   0.866   3.507
17554TIP3    H252540   0.653   0.745   3.418
17555TIP3   OH252541   1.315   0.224   3.571
17555TIP3    H152542   1.248   0.250   3.634
17555TIP3    H252543   1.302   0.281   3.496
17556TIP3   OH252544   0.417   0.334   4.632
17556TIP3    H152545   0.330   0.306   4.602
17556TIP3    H252546   0.401   0.416   4.679
17557TIP3   OH252547   0.962   0.282   4.798
17557TIP3    H152548   0.991   0.365   4.836
17557TIP3    H252549   0.902   0.245   4.863
17558TIP3   OH252550   1.264   0.811   4.807
17558TIP3    H152551   1.193   0.779   4.863
17558TIP3    H252552   1.222   0.873   4.748
17559TIP3   OH252553   0.597   0.385   3.604
17559TIP3    H152554   0.562   0.394   3.692
17559TIP3    H252555   0.561   0.302   3.572
17560TIP3   OH252556   0.268   0.908   4.534
17560TIP3    H152557   0.333   0.935   4.599
17560TIP3    H252558   0.302   0.941   4.451
17561TIP3   OH252559   0.278   0.774   4.152
17561TIP3    H152560   0.188   0.757   4.181
17561TIP3    H252561   0.283   0.739   4.063
17562TIP3   OH252562   0.747   0.851   3.854
17562TIP3    H152563   0.693   0.921   3.818
17562TIP3    H252564   0.808   0.828   3.784
17563TIP3   OH252565   0.975   1.202   5.134
17563TIP3    H152566   0.963   1.112   5.164
17563TIP3    H252567   1.062   1.204   5.096
17564TIP3   OH252568   0.914   0.877   4.073
17564TIP3    H152569   0.842   0.877   4.011
17564TIP3    H252570   0.972   0.806   4.044
17565TIP3   OH252571   0.224   0.857   4.885
17565TIP3    H152572   0.137   0.879   4.850
17565TIP3    H252573   0.214   0.770   4.923
17566TIP3   OH252574   0.265   0.377   3.576
17566TIP3    H152575   0.255   0.386   3.671
17566TIP3    H252576   0.192   0.428   3.540
17567TIP3   OH252577   9.612   0.429   4.441
17567TIP3    H152578   9.677   0.466   4.500
17567TIP3    H252579   9.655   0.427   4.356
17568TIP3   OH252580   9.528   0.400   3.935
17568TIP3    H152581   9.578   0.437   3.862
17568TIP3    H252582   9.473   0.473   3.965
17569TIP3   OH252583   0.962   1.157   4.480
17569TIP3    H152584   0.978   1.083   4.422
17569TIP3    H252585   0.889   1.128   4.536
17570TIP3   OH252586   0.632   0.560   4.203
17570TIP3    H152587   0.552   0.559   4.255
17570TIP3    H252588   0.702   0.542   4.266
17571TIP3   OH252589   0.039   0.653   4.219
17571TIP3    H152590  -0.053   0.652   4.193
17571TIP3    H252591   0.069   0.563   4.205
17572TIP3   OH252592   0.280   0.647   3.905
17572TIP3    H152593   0.372   0.662   3.886
17572TIP3    H252594   0.234   0.669   3.824
17573TIP3   OH252595   1.043   0.667   4.340
17573TIP3    H152596   1.067   0.662   4.432
17573TIP3    H252597   0.969   0.606   4.331
17574TIP3   OH252598   0.122   0.659   3.666
17574TIP3    H152599   0.085   0.606   3.595
17574TIP3    H252600   0.192   0.710   3.624
17575TIP3   OH252601   0.687   0.931   4.297
17575TIP3    H152602   0.761   0.897   4.247
17575TIP3    H252603   0.677   0.870   4.370
17576TIP3   OH252604   0.164   0.397   4.198
17576TIP3    H152605   0.139   0.321   4.251
17576TIP3    H252606   0.187   0.361   4.113
17577TIP3   OH252607   0.612   0.786   4.550
17577TIP3    H152608   0.569   0.859   4.594
17577TIP3    H252609   0.706   0.805   4.560
17578TIP3   OH252610   0.829   0.523   3.619
17578TIP3    H152611   0.744   0.478   3.612
17578TIP3    H252612   0.809   0.613   3.596
17579TIP3   OH252613   0.919   0.800   3.640
17579TIP3    H152614   0.978   0.727   3.658
17579TIP3    H252615   0.972   0.861   3.589
17580TIP3   OH252616   0.582   1.230   5.120
17580TIP3    H152617   0.540   1.264   5.042
17580TIP3    H252618   0.631   1.154   5.090
17581TIP3   OH252619   0.196   0.612   5.003
17581TIP3    H152620   0.102   0.602   5.019
17581TIP3    H252621   0.238   0.559   5.071
17582TIP3   OH252622   1.132   0.656   4.595
17582TIP3    H152623   1.193   0.729   4.608
17582TIP3    H252624   1.116   0.621   4.682
17583TIP3   OH252625   0.923   0.448   3.869
17583TIP3    H152626   0.888   0.474   3.783
17583TIP3    H252627   0.963   0.527   3.904
17584TIP3   OH252628   0.569   0.655   3.948
17584TIP3    H152629   0.632   0.721   3.921
17584TIP3    H252630   0.588   0.638   4.040
17585TIP3   OH252631   0.781   0.898   4.821
17585TIP3    H152632   0.871   0.927   4.833
17585TIP3    H252633   0.788   0.804   4.805
17586TIP3   OH252634   0.732   0.348   4.046
17586TIP3    H152635   0.708   0.426   4.096
17586TIP3    H252636   0.803   0.377   3.989
17587TIP3   OH252637   0.240   0.375   3.857
17587TIP3    H152638   0.231   0.466   3.885
17587TIP3    H252639   0.334   0.356   3.864
17588TIP3   OH252640   1.520   0.888   4.736
17588TIP3    H152641   1.440   0.862   4.782
17588TIP3    H252642   1.540   0.814   4.679
17589TIP3   OH252643   9.630   0.565   3.738
17589TIP3    H152644   9.716   0.607   3.742
17589TIP3    H252645   9.597   0.588   3.651
17590TIP3   OH252646   0.153   0.259   4.594
17590TIP3    H152647   0.134   0.227   4.505
17590TIP3    H252648   0.158   0.180   4.647
17591TIP3   OH252649   0.187   1.151   5.200
17591TIP3    H152650   0.239   1.079   5.165
17591TIP3    H252651   0.247   1.199   5.257
17592TIP3   OH252652   0.484   0.992   4.685
17592TIP3    H152653   0.444   1.006   4.770
17592TIP3    H252654   0.519   1.077   4.660
17593TIP3   OH252655   0.327   0.769   3.524
17593TIP3    H152656   0.294   0.765   3.434
17593TIP3    H252657   0.422   0.777   3.515
17594TIP3   OH252658   0.595   0.728   5.030
17594TIP3    H152659   0.588   0.689   4.943
17594TIP3    H252660   0.542   0.808   5.025
17595TIP3   OH252661   0.578   0.626   4.777
17595TIP3    H152662   0.592   0.668   4.692
17595TIP3    H252663   0.487   0.598   4.774
17596TIP3   OH252664   0.447   0.957   5.284
17596TIP3    H152665   0.387   0.884   5.303
17596TIP3    H252666   0.457   0.956   5.189
17597TIP3   OH252667   0.716   0.434   4.913
17597TIP3    H152668   0.662   0.501   4.871
17597TIP3    H252669   0.658   0.358   4.920
17598TIP3   OH252670   0.824   0.778   5.156
17598TIP3    H152671   0.792   0.790   5.246
17598TIP3    H252672   0.750   0.742   5.108
17599TIP3   OH252673   1.025   0.772   4.979
17599TIP3    H152674   0.950   0.770   5.039
17599TIP3    H252675   1.097   0.736   5.030
17600TIP3   OH252676   1.442   0.859   5.261
17600TIP3    H152677   1.465   0.768   5.239
17600TIP3    H252678   1.372   0.850   5.326
17601TIP3   OH252679   0.301   0.729   5.336
17601TIP3    H152680   0.302   0.650   5.283
17601TIP3    H252681   0.341   0.703   5.419
17602TIP3   OH252682   0.779   0.414   5.183
17602TIP3    H152683   0.820   0.328   5.174
17602TIP3    H252684   0.757   0.439   5.093
17603TIP3   OH252685   0.844   0.589   5.394
17603TIP3    H152686   0.835   0.528   5.321
17603TIP3    H252687   0.768   0.648   5.385
17604TIP3   OH252688   1.099   0.530   3.307
17604TIP3    H152689   1.131   0.497   3.224
17604TIP3    H252690   1.025   0.473   3.329
17605TIP3   OH252691   0.042   0.788   5.264
17605TIP3    H152692   0.136   0.789   5.283
17605TIP3    H252693   0.011   0.705   5.300
17606TIP3   OH252694   1.276   0.538   3.826
17606TIP3    H152695   1.355   0.524   3.878
17606TIP3    H252696   1.247   0.450   3.803
17607TIP3   OH252697   0.007   0.488   4.634
17607TIP3    H152698   0.057   0.406   4.630
17607TIP3    H252699   0.067   0.554   4.597
17608TIP3   OH252700   9.606   0.823   4.682
17608TIP3    H152701   9.653   0.777   4.612
17608TIP3    H252702   9.623   0.916   4.666
17609TIP3   OH252703   9.605   0.262   4.160
17609TIP3    H152704   9.521   0.249   4.205
17609TIP3    H252705   9.584   0.318   4.086
17610TIP3   OH252706   0.040   0.348   5.015
17610TIP3    H152707  -0.017   0.324   5.088
17610TIP3    H252708  -0.020   0.374   4.945
17611TIP3   OH252709   1.761   0.636   4.784
17611TIP3    H152710   1.669   0.647   4.760
17611TIP3    H252711   1.793   0.567   4.725
17612TIP3   OH252712   0.861   0.461   4.327
17612TIP3    H152713   0.866   0.402   4.401
17612TIP3    H252714   0.921   0.425   4.262
17613TIP3   OH252715   1.354   0.393   4.169
17613TIP3    H152716   1.404   0.449   4.110
17613TIP3    H252717   1.272   0.439   4.183
17614TIP3   OH252718   1.524   0.510   3.987
17614TIP3    H152719   1.571   0.449   3.931
17614TIP3    H252720   1.565   0.595   3.970
17615TIP3   OH252721   0.100   0.164   4.340
17615TIP3    H152722   0.012   0.126   4.350
17615TIP3    H252723   0.158   0.088   4.337
17616TIP3   OH252724   9.728   0.073   3.994
17616TIP3    H152725   9.755   0.123   3.917
17616TIP3    H252726   9.694   0.138   4.055
17617TIP3   OH252727   0.580   0.202   4.236
17617TIP3    H152728   0.636   0.258   4.182
17617TIP3    H252729   0.605   0.222   4.326
17618TIP3   OH252730   1.061   0.366   4.163
17618TIP3    H152731   1.069   0.323   4.077
17618TIP3    H252732   1.085   0.298   4.226
17619TIP3   OH252733   1.141   0.298   3.777
17619TIP3    H152734   1.061   0.345   3.800
17619TIP3    H252735   1.129   0.210   3.813
17620TIP3   OH252736   0.033   0.209   3.762
17620TIP3    H152737   0.079   0.149   3.704
17620TIP3    H252738   0.101   0.264   3.800
17621TIP3   OH252739   0.516   0.399   3.867
17621TIP3    H152740   0.573   0.348   3.924
17621TIP3    H252741   0.531   0.490   3.893
17622TIP3   OH252742   0.311   0.478   5.220
17622TIP3    H152743   0.279   0.393   5.251
17622TIP3    H252744   0.405   0.476   5.240
17623TIP3   OH252745   0.558   0.452   5.346
17623TIP3    H152746   0.633   0.439   5.288
17623TIP3    H252747   0.554   0.372   5.399
17624TIP3   OH252748   1.528   0.601   5.212
17624TIP3    H152749   1.574   0.573   5.290
17624TIP3    H252750   1.588   0.582   5.140
17625TIP3   OH252751   6.048   5.714   0.911
17625TIP3    H152752   5.999   5.795   0.926
17625TIP3    H252753   6.128   5.742   0.868
17626TIP3   OH252754   6.086   6.203   0.862
17626TIP3    H152755   6.028   6.207   0.786
17626TIP3    H252756   6.049   6.265   0.924
17627TIP3   OH252757   5.659   5.797   0.861
17627TIP3    H152758   5.687   5.870   0.916
17627TIP3    H252759   5.733   5.782   0.802
17628TIP3   OH252760   7.463   5.703   1.121
17628TIP3    H152761   7.428   5.786   1.088
17628TIP3    H252762   7.392   5.641   1.110
17629TIP3   OH252763   7.310   6.434   1.210
17629TIP3    H152764   7.315   6.339   1.200
17629TIP3    H252765   7.260   6.447   1.291
17630TIP3   OH252766   7.454   5.959   1.009
17630TIP3    H152767   7.516   6.033   1.004
17630TIP3    H252768   7.377   5.995   1.053
17631TIP3   OH252769   7.589   6.211   0.995
17631TIP3    H152770   7.676   6.180   1.019
17631TIP3    H252771   7.603   6.271   0.923
17632TIP3   OH252772   7.255   5.558   0.993
17632TIP3    H152773   7.166   5.543   0.963
17632TIP3    H252774   7.288   5.629   0.938
17633TIP3   OH252775   7.312   5.247   0.538
17633TIP3    H152776   7.325   5.277   0.628
17633TIP3    H252777   7.329   5.152   0.542
17634TIP3   OH252778   7.614   5.673   0.885
17634TIP3    H152779   7.557   5.677   0.962
17634TIP3    H252780   7.690   5.623   0.914
17635TIP3   OH252781   7.555   5.481   0.676
17635TIP3    H152782   7.573   5.570   0.707
17635TIP3    H252783   7.536   5.492   0.583
17636TIP3   OH252784   7.229   6.134   0.977
17636TIP3    H152785   7.262   6.153   1.066
17636TIP3    H252786   7.134   6.127   0.988
17637TIP3   OH252787   7.831   6.083   0.221
17637TIP3    H152788   7.829   6.178   0.211
17637TIP3    H252789   7.922   6.059   0.205
17638TIP3   OH252790   7.131   6.307   0.690
17638TIP3    H152791   7.077   6.329   0.615
17638TIP3    H252792   7.070   6.273   0.755
17639TIP3   OH252793   7.349   6.329   0.337
17639TIP3    H152794   7.399   6.252   0.309
17639TIP3    H252795   7.367   6.337   0.430
17640TIP3   OH252796   7.387   6.342   0.607
17640TIP3    H152797   7.299   6.341   0.646
17640TIP3    H252798   7.441   6.294   0.669
17641TIP3   OH252799   7.528   5.527   0.402
17641TIP3    H152800   7.489   5.486   0.325
17641TIP3    H252801   7.594   5.586   0.367
17642TIP3   OH252802   7.449   5.150   0.987
17642TIP3    H152803   7.482   5.239   0.978
17642TIP3    H252804   7.402   5.134   0.905
17643TIP3   OH252805   6.748   5.124   0.787
17643TIP3    H152806   6.785   5.049   0.833
17643TIP3    H252807   6.792   5.200   0.826
17644TIP3   OH252808   6.997   5.579   0.930
17644TIP3    H152809   6.969   5.585   0.839
17644TIP3    H252810   6.980   5.666   0.966
17645TIP3   OH252811   7.617   5.210   0.730
17645TIP3    H152812   7.664   5.198   0.813
17645TIP3    H252813   7.600   5.304   0.725
17646TIP3   OH252814   7.319   5.855   0.557
17646TIP3    H152815   7.310   5.936   0.507
17646TIP3    H252816   7.255   5.864   0.628
17647TIP3   OH252817   8.053   5.238   0.563
17647TIP3    H152818   8.043   5.201   0.476
17647TIP3    H252819   8.047   5.333   0.550
17648TIP3   OH252820   7.817   6.140   0.493
17648TIP3    H152821   7.757   6.089   0.547
17648TIP3    H252822   7.811   6.100   0.406
17649TIP3   OH252823   6.769   6.203   1.019
17649TIP3    H152824   6.688   6.187   1.069
17649TIP3    H252825   6.777   6.299   1.018
17650TIP3   OH252826   7.551   5.871   0.402
17650TIP3    H152827   7.588   5.845   0.486
17650TIP3    H252828   7.465   5.829   0.400
17651TIP3   OH252829   7.839   6.358   0.228
17651TIP3    H152830   7.888   6.433   0.194
17651TIP3    H252831   7.755   6.394   0.255
17652TIP3   OH252832   7.681   5.776   0.631
17652TIP3    H152833   7.663   5.778   0.725
17652TIP3    H252834   7.765   5.822   0.621
17653TIP3   OH252835   6.817   5.897   0.375
17653TIP3    H152836   6.846   5.815   0.335
17653TIP3    H252837   6.807   5.877   0.468
17654TIP3   OH252838   6.856   5.881   0.659
17654TIP3    H152839   6.881   5.791   0.681
17654TIP3    H252840   6.808   5.912   0.736
17655TIP3   OH252841   7.142   5.959   0.746
17655TIP3    H152842   7.069   6.019   0.760
17655TIP3    H252843   7.219   6.017   0.738
17656TIP3   OH252844   6.661   6.120   0.672
17656TIP3    H152845   6.731   6.146   0.611
17656TIP3    H252846   6.659   6.190   0.737
17657TIP3   OH252847   6.549   5.777   0.749
17657TIP3    H152848   6.612   5.825   0.802
17657TIP3    H252849   6.602   5.736   0.680
17658TIP3   OH252850   7.712   6.550   1.286
17658TIP3    H152851   7.743   6.527   1.198
17658TIP3    H252852   7.718   6.469   1.336
17659TIP3   OH252853   7.082   6.072   0.273
17659TIP3    H152854   7.132   6.073   0.355
17659TIP3    H252855   7.142   6.034   0.209
17660TIP3   OH252856   7.492   6.106   0.262
17660TIP3    H152857   7.523   6.035   0.318
17660TIP3    H252858   7.548   6.101   0.185
17661TIP3   OH252859   6.699   5.656   0.536
17661TIP3    H152860   6.730   5.606   0.611
17661TIP3    H252861   6.707   5.595   0.462
17662TIP3   OH252862   7.310   5.739   0.278
17662TIP3    H152863   7.241   5.749   0.344
17662TIP3    H252864   7.290   5.656   0.235
17663TIP3   OH252865   6.889   5.334   0.878
17663TIP3    H152866   6.931   5.399   0.935
17663TIP3    H252867   6.956   5.313   0.813
17664TIP3   OH252868   7.035   5.247   0.663
17664TIP3    H152869   6.960   5.217   0.611
17664TIP3    H252870   7.110   5.239   0.604
17665TIP3   OH252871   7.775   5.603   0.264
17665TIP3    H152872   7.766   5.551   0.184
17665TIP3    H252873   7.755   5.692   0.236
17666TIP3   OH252874   6.769   6.329   0.468
17666TIP3    H152875   6.840   6.266   0.466
17666TIP3    H252876   6.782   6.383   0.390
17667TIP3   OH252877   6.353   5.603   0.835
17667TIP3    H152878   6.424   5.663   0.813
17667TIP3    H252879   6.292   5.611   0.762
17668TIP3   OH252880   8.040   6.541   1.231
17668TIP3    H152881   8.025   6.578   1.318
17668TIP3    H252882   8.079   6.612   1.181
17669TIP3   OH252883   7.936   5.871   0.611
17669TIP3    H152884   7.999   5.915   0.553
17669TIP3    H252885   7.962   5.898   0.699
17670TIP3   OH252886   8.204   5.758   0.752
17670TIP3    H152887   8.129   5.703   0.774
17670TIP3    H252888   8.169   5.847   0.753
17671TIP3   OH252889   8.142   6.002   1.094
17671TIP3    H152890   8.164   6.000   1.187
17671TIP3    H252891   8.072   6.067   1.087
17672TIP3   OH252892   8.000   5.668   0.417
17672TIP3    H152893   7.924   5.652   0.361
17672TIP3    H252894   7.970   5.733   0.480
17673TIP3   OH252895   7.986   5.199   0.298
17673TIP3    H152896   7.924   5.265   0.329
17673TIP3    H252897   7.932   5.124   0.274
17674TIP3   OH252898   7.783   5.498   1.013
17674TIP3    H152899   7.834   5.436   0.961
17674TIP3    H252900   7.839   5.518   1.088
17675TIP3   OH252901   7.919   5.065   0.792
17675TIP3    H152902   7.878   5.014   0.863
17675TIP3    H252903   7.909   5.156   0.820
17676TIP3   OH252904   7.648   6.376   0.787
17676TIP3    H152905   7.676   6.376   0.695
17676TIP3    H252906   7.677   6.460   0.821
17677TIP3   OH252907   6.301   6.177   1.085
17677TIP3    H152908   6.224   6.133   1.123
17677TIP3    H252909   6.284   6.178   0.991
17678TIP3   OH252910   7.075   6.341   0.406
17678TIP3    H152911   7.166   6.359   0.383
17678TIP3    H252912   7.049   6.272   0.345
17679TIP3   OH252913   7.760   6.399   0.542
17679TIP3    H152914   7.788   6.311   0.518
17679TIP3    H252915   7.715   6.432   0.464
17680TIP3   OH252916   6.224   6.125   0.613
17680TIP3    H152917   6.237   6.156   0.703
17680TIP3    H252918   6.301   6.071   0.595
17681TIP3   OH252919   9.261   5.937   0.527
17681TIP3    H152920   9.232   6.021   0.490
17681TIP3    H252921   9.200   5.873   0.490
17682TIP3   OH252922   9.358   5.883   0.852
17682TIP3    H152923   9.402   5.808   0.893
17682TIP3    H252924   9.311   5.845   0.778
17683TIP3   OH252925   8.583   5.714   1.218
17683TIP3    H152926   8.619   5.717   1.306
17683TIP3    H252927   8.659   5.720   1.161
17684TIP3   OH252928   9.530   6.246   0.603
17684TIP3    H152929   9.548   6.173   0.663
17684TIP3    H252930   9.557   6.324   0.652
17685TIP3   OH252931   8.614   6.216   0.962
17685TIP3    H152932   8.525   6.182   0.978
17685TIP3    H252933   8.654   6.150   0.905
17686TIP3   OH252934   8.299   5.291   0.706
17686TIP3    H152935   8.238   5.344   0.655
17686TIP3    H252936   8.262   5.202   0.703
17687TIP3   OH252937   8.297   5.724   1.009
17687TIP3    H152938   8.286   5.628   1.014
17687TIP3    H252939   8.270   5.746   0.920
17688TIP3   OH252940   9.207   6.673   0.614
17688TIP3    H152941   9.229   6.604   0.552
17688TIP3    H252942   9.194   6.628   0.697
17689TIP3   OH252943   9.170   6.204   0.849
17689TIP3    H152944   9.203   6.179   0.762
17689TIP3    H252945   9.249   6.229   0.898
17690TIP3   OH252946   9.475   5.646   0.962
17690TIP3    H152947   9.549   5.594   0.994
17690TIP3    H252948   9.455   5.609   0.876
17691TIP3   OH252949   8.421   5.481   1.152
17691TIP3    H152950   8.513   5.491   1.177
17691TIP3    H252951   8.413   5.389   1.126
17692TIP3   OH252952   8.929   5.670   0.819
17692TIP3    H152953   9.024   5.658   0.820
17692TIP3    H252954   8.898   5.614   0.748
17693TIP3   OH252955   0.365   5.682   1.208
17693TIP3    H152956   0.288   5.725   1.171
17693TIP3    H252957   0.334   5.596   1.236
17694TIP3   OH252958   9.169   6.152   0.379
17694TIP3    H152959   9.131   6.125   0.295
17694TIP3    H252960   9.115   6.227   0.406
17695TIP3   OH252961   8.886   5.973   1.185
17695TIP3    H152962   8.798   6.002   1.209
17695TIP3    H252963   8.920   6.042   1.128
17696TIP3   OH252964   8.701   5.438   1.190
17696TIP3    H152965   8.775   5.481   1.232
17696TIP3    H252966   8.722   5.442   1.096
17697TIP3   OH252967   8.870   6.261   1.269
17697TIP3    H152968   8.885   6.256   1.175
17697TIP3    H252969   8.783   6.299   1.278
17698TIP3   OH252970   8.135   5.983   0.465
17698TIP3    H152971   8.112   6.000   0.373
17698TIP3    H252972   8.153   6.069   0.501
17699TIP3   OH252973   9.561   6.488   0.749
17699TIP3    H152974   9.472   6.474   0.781
17699TIP3    H252975   9.559   6.574   0.709
17700TIP3   OH252976   9.283   6.511   0.400
17700TIP3    H152977   9.335   6.432   0.385
17700TIP3    H252978   9.341   6.583   0.376
17701TIP3   OH252979   9.418   6.279   0.354
17701TIP3    H152980   9.343   6.219   0.359
17701TIP3    H252981   9.467   6.261   0.435
17702TIP3   OH252982   0.016   6.386   1.089
17702TIP3    H152983   0.002   6.311   1.031
17702TIP3    H252984  -0.007   6.463   1.036
17703TIP3   OH252985   9.115   5.762   0.369
17703TIP3    H152986   9.030   5.796   0.339
17703TIP3    H252987   9.167   5.754   0.289
17704TIP3   OH252988   9.073   5.579   0.069
17704TIP3    H152989   9.143   5.623   0.117
17704TIP3    H252990   9.117   5.509   0.020
17705TIP3   OH252991   0.177   6.019   0.945
17705TIP3    H152992   0.096   6.070   0.951
17705TIP3    H252993   0.208   6.033   0.855
17706TIP3   OH252994   9.448   5.874   0.329
17706TIP3    H152995   9.395   5.900   0.405
17706TIP3    H252996   9.534   5.853   0.366
17707TIP3   OH252997   9.714   5.893   1.278
17707TIP3    H152998   9.705   5.979   1.319
17707TIP3    H252999   9.633   5.881   1.228
17708TIP3   OH253000   8.727   5.810   0.634
17708TIP3    H153001   8.675   5.757   0.574
17708TIP3    H253002   8.783   5.746   0.679
17709TIP3   OH253003   8.856   6.311   0.732
17709TIP3    H153004   8.807   6.230   0.726
17709TIP3    H253005   8.928   6.301   0.670
17710TIP3   OH253006   8.796   5.755   1.050
17710TIP3    H153007   8.847   5.733   0.972
17710TIP3    H253008   8.840   5.832   1.087
17711TIP3   OH253009   9.324   6.457   0.891
17711TIP3    H153010   9.342   6.546   0.922
17711TIP3    H253011   9.359   6.400   0.959
17712TIP3   OH253012   9.012   6.386   1.466
17712TIP3    H153013   8.964   6.362   1.545
17712TIP3    H253014   8.964   6.342   1.395
17713TIP3   OH253015   9.302   5.715   0.156
17713TIP3    H153016   9.355   5.779   0.204
17713TIP3    H253017   9.337   5.718   0.066
17714TIP3   OH253018   9.035   6.390   0.437
17714TIP3    H153019   9.116   6.441   0.427
17714TIP3    H253020   8.971   6.435   0.383
17715TIP3   OH253021   8.702   6.375   1.519
17715TIP3    H153022   8.694   6.441   1.451
17715TIP3    H253023   8.614   6.340   1.530
17716TIP3   OH253024   8.543   5.662   0.498
17716TIP3    H153025   8.462   5.700   0.466
17716TIP3    H253026   8.527   5.567   0.498
17717TIP3   OH253027   6.356   1.710   7.779
17717TIP3    H153028   6.345   1.802   7.758
17717TIP3    H253029   6.446   1.690   7.755
17718TIP3   OH253030   8.067   6.264   1.279
17718TIP3    H153031   8.156   6.231   1.293
17718TIP3    H253032   8.080   6.353   1.246
17719TIP3   OH253033   0.236   6.728   1.162
17719TIP3    H153034   0.244   6.635   1.182
17719TIP3    H253035   0.159   6.756   1.212
17720TIP3   OH253036   9.231   6.453   1.307
17720TIP3    H153037   9.237   6.543   1.340
17720TIP3    H253038   9.158   6.415   1.357
17721TIP3   OH253039   8.926   6.618   0.244
17721TIP3    H153040   8.880   6.595   0.163
17721TIP3    H253041   8.889   6.703   0.269
17722TIP3   OH253042   8.342   6.464   0.591
17722TIP3    H153043   8.404   6.444   0.662
17722TIP3    H253044   8.293   6.382   0.579
17723TIP3   OH253045   5.861   1.936   7.871
17723TIP3    H153046   5.911   1.862   7.838
17723TIP3    H253047   5.896   1.951   7.959
17724TIP3   OH253048   9.178   6.607   0.139
17724TIP3    H153049   9.092   6.606   0.180
17724TIP3    H253050   9.236   6.569   0.205
17725TIP3   OH253051   0.156   5.861   1.402
17725TIP3    H153052   0.065   5.857   1.373
17725TIP3    H253053   0.162   5.798   1.474
17726TIP3   OH253054   9.638   5.691   1.455
17726TIP3    H153055   9.620   5.741   1.535
17726TIP3    H253056   9.665   5.756   1.391
17727TIP3   OH253057   6.133   1.056   7.891
17727TIP3    H153058   6.069   1.059   7.820
17727TIP3    H253059   6.196   1.125   7.869
17728TIP3   OH253060   8.939   5.573   1.226
17728TIP3    H153061   8.979   5.598   1.308
17728TIP3    H253062   8.883   5.647   1.203
17729TIP3   OH253063   8.797   5.530   0.635
17729TIP3    H153064   8.724   5.475   0.663
17729TIP3    H253065   8.837   5.481   0.563
17730TIP3   OH253066   9.235   5.562   0.523
17730TIP3    H153067   9.183   5.633   0.483
17730TIP3    H253068   9.290   5.530   0.452
17731TIP3   OH253069   9.454   5.563   0.698
17731TIP3    H153070   9.371   5.583   0.653
17731TIP3    H253071   9.482   5.480   0.660
17732TIP3   OH253072   9.476   5.836   1.166
17732TIP3    H153073   9.464   5.769   1.099
17732TIP3    H253074   9.397   5.831   1.220
17733TIP3   OH253075   8.598   5.359   0.703
17733TIP3    H153076   8.526   5.405   0.748
17733TIP3    H253077   8.577   5.266   0.713
17734TIP3   OH253078   8.879   5.343   0.456
17734TIP3    H153079   8.903   5.255   0.427
17734TIP3    H253080   8.801   5.364   0.405
17735TIP3   OH253081   8.665   5.400   0.293
17735TIP3    H153082   8.598   5.349   0.248
17735TIP3    H253083   8.711   5.447   0.223
17736TIP3   OH253084   9.767   7.087   1.250
17736TIP3    H153085   9.760   7.099   1.156
17736TIP3    H253086   9.842   7.141   1.276
17737TIP3   OH253087   9.195   5.636   0.843
17737TIP3    H153088   9.196   5.541   0.828
17737TIP3    H253089   9.203   5.645   0.938
17738TIP3   OH253090   9.263   5.418   1.239
17738TIP3    H153091   9.236   5.452   1.154
17738TIP3    H253092   9.299   5.495   1.285
17739TIP3   OH253093   8.880   5.876   0.273
17739TIP3    H153094   8.801   5.829   0.246
17739TIP3    H253095   8.851   5.934   0.343
17740TIP3   OH253096   9.761   6.185   0.916
17740TIP3    H153097   9.801   6.233   0.843
17740TIP3    H253098   9.689   6.137   0.875
17741TIP3   OH253099   9.332   6.222   1.450
17741TIP3    H153100   9.280   6.170   1.388
17741TIP3    H253101   9.340   6.307   1.408
17742TIP3   OH253102   9.405   5.507   0.318
17742TIP3    H153103   9.500   5.514   0.317
17742TIP3    H253104   9.376   5.567   0.250
17743TIP3   OH253105   8.575   5.916   0.979
17743TIP3    H153106   8.529   5.893   0.898
17743TIP3    H253107   8.641   5.848   0.991
17744TIP3   OH253108   9.023   6.076   0.151
17744TIP3    H153109   8.969   6.155   0.154
17744TIP3    H253110   8.968   6.008   0.191
17745TIP3   OH253111   9.465   6.532   1.186
17745TIP3    H153112   9.378   6.502   1.212
17745TIP3    H253113   9.503   6.566   1.267
17746TIP3   OH253114   9.806   5.583   0.088
17746TIP3    H153115   9.758   5.533   0.022
17746TIP3    H253116   9.802   5.674   0.058
17747TIP3   OH253117   0.261   6.446   1.183
17747TIP3    H153118   0.168   6.437   1.163
17747TIP3    H253119   0.306   6.420   1.103
17748TIP3   OH253120   9.542   6.396   0.046
17748TIP3    H153121   9.511   6.328   0.106
17748TIP3    H253122   9.559   6.349  -0.036
17749TIP3   OH253123   9.575   6.035   0.780
17749TIP3    H153124   9.491   6.007   0.816
17749TIP3    H253125   9.614   5.954   0.745
17750TIP3   OH253126   8.613   6.236   0.522
17750TIP3    H153127   8.616   6.328   0.497
17750TIP3    H253128   8.554   6.234   0.597
17751TIP3   OH253129   8.229   5.538   0.350
17751TIP3    H153130   8.285   5.616   0.349
17751TIP3    H253131   8.140   5.573   0.358
17752TIP3   OH253132   8.777   6.028   0.466
17752TIP3    H153133   8.730   6.106   0.497
17752TIP3    H253134   8.767   5.964   0.537
17753TIP3   OH253135   8.925   6.688   0.992
17753TIP3    H153136   8.986   6.743   0.944
17753TIP3    H253137   8.979   6.619   1.030
17754TIP3   OH253138   8.580   6.505   0.454
17754TIP3    H153139   8.492   6.508   0.492
17754TIP3    H253140   8.613   6.595   0.463
17755TIP3   OH253141   9.365   6.246   1.062
17755TIP3    H153142   9.300   6.214   1.124
17755TIP3    H253143   9.450   6.229   1.104
17756TIP3   OH253144   6.044   1.514   7.920
17756TIP3    H153145   6.094   1.481   7.995
17756TIP3    H253146   5.960   1.468   7.926
17757TIP3   OH253147   9.577   6.778   1.078
17757TIP3    H153148   9.506   6.714   1.067
17757TIP3    H253149   9.565   6.839   1.006
17758TIP3   OH253150   6.338   1.981   7.729
17758TIP3    H153151   6.338   2.034   7.650
17758TIP3    H253152   6.272   2.022   7.786
17759TIP3   OH253153   9.484   6.032   0.104
17759TIP3    H153154   9.465   5.989   0.188
17759TIP3    H253155   9.578   6.047   0.106
17760TIP3   OH253156   8.307   6.400   1.232
17760TIP3    H153157   8.393   6.359   1.249
17760TIP3    H253158   8.321   6.493   1.250
17761TIP3   OH253159   5.395   1.484   7.956
17761TIP3    H153160   5.404   1.394   7.927
17761TIP3    H253161   5.383   1.478   8.051
17762TIP3   OH253162   8.603   6.115   0.227
17762TIP3    H153163   8.650   6.096   0.308
17762TIP3    H253164   8.598   6.210   0.224
17763TIP3   OH253165   8.329   5.794   0.396
17763TIP3    H153166   8.256   5.838   0.441
17763TIP3    H253167   8.353   5.855   0.326
17764TIP3   OH253168   8.873   6.303   0.158
17764TIP3    H153169   8.783   6.321   0.187
17764TIP3    H253170   8.894   6.375   0.099
17765TIP3   OH253171   9.077   5.408   0.690
17765TIP3    H153172   9.134   5.459   0.632
17765TIP3    H253173   9.010   5.372   0.632
17766TIP3   OH253174   9.381   5.622   1.382
17766TIP3    H153175   9.354   5.674   1.458
17766TIP3    H253176   9.477   5.624   1.385
17767TIP3   OH253177   8.615   6.388   0.211
17767TIP3    H153178   8.598   6.456   0.146
17767TIP3    H253179   8.602   6.431   0.295
17768TIP3   OH253180   9.642   5.771   0.711
17768TIP3    H153181   9.574   5.703   0.714
17768TIP3    H253182   9.710   5.738   0.769
17769TIP3   OH253183   8.361   5.985   0.196
17769TIP3    H153184   8.434   6.045   0.210
17769TIP3    H253185   8.393   5.924   0.129
17770TIP3   OH253186   8.253   5.280   0.250
17770TIP3    H153187   8.253   5.357   0.307
17770TIP3    H253188   8.172   5.235   0.270
17771TIP3   OH253189   9.589   6.751   0.670
17771TIP3    H153190   9.547   6.806   0.603
17771TIP3    H253191   9.683   6.763   0.655
17772TIP3   OH253192   8.179   6.234   0.570
17772TIP3    H153193   8.121   6.266   0.638
17772TIP3    H253194   8.148   6.275   0.490
17773TIP3   OH253195   5.545   1.679   7.832
17773TIP3    H153196   5.498   1.611   7.880
17773TIP3    H253197   5.618   1.633   7.790
17774TIP3   OH253198   9.553   6.606   1.440
17774TIP3    H153199   9.503   6.592   1.520
17774TIP3    H253200   9.622   6.667   1.465
17775TIP3   OH253201   5.986   1.723   7.753
17775TIP3    H153202   6.022   1.658   7.814
17775TIP3    H253203   6.043   1.717   7.676
17776TIP3   OH253204   8.474   5.792   0.041
17776TIP3    H153205   8.525   5.762   0.117
17776TIP3    H253206   8.540   5.812  -0.025
17777TIP3   OH253207   5.796   1.391   7.890
17777TIP3    H153208   5.772   1.407   7.981
17777TIP3    H253209   5.773   1.299   7.875
17778TIP3   OH253210   9.594   6.291   1.221
17778TIP3    H153211   9.681   6.309   1.186
17778TIP3    H253212   9.546   6.373   1.212
17779TIP3   OH253213   8.651   5.722   0.244
17779TIP3    H153214   8.627   5.693   0.332
17779TIP3    H253215   8.699   5.648   0.207
17780TIP3   OH253216   8.801   5.538   0.099
17780TIP3    H153217   8.772   5.559   0.010
17780TIP3    H253218   8.895   5.557   0.099
17781TIP3   OH253219   6.320   1.219   7.775
17781TIP3    H153220   6.304   1.183   7.687
17781TIP3    H253221   6.298   1.312   7.767
17782TIP3   OH253222   9.234   5.881   1.295
17782TIP3    H153223   9.244   5.967   1.254
17782TIP3    H253224   9.163   5.892   1.358
17783TIP3   OH253225   9.715   6.135   1.416
17783TIP3    H153226   9.654   6.188   1.366
17783TIP3    H253227   9.802   6.166   1.388
17784TIP3   OH253228   8.619   6.601   0.036
17784TIP3    H153229   8.709   6.581   0.011
17784TIP3    H253230   8.583   6.648  -0.039
17785TIP3   OH253231   8.090   5.994   0.186
17785TIP3    H153232   8.186   6.002   0.188
17785TIP3    H253233   8.074   5.904   0.159
17786TIP3   OH253234   7.992   6.541   0.593
17786TIP3    H153235   7.906   6.509   0.565
17786TIP3    H253236   8.021   6.478   0.660
17787TIP3   OH253237   8.045   6.347   0.785
17787TIP3    H153238   7.985   6.295   0.837
17787TIP3    H253239   8.115   6.371   0.846
17788TIP3   OH253240   0.061   6.800   0.660
17788TIP3    H153241   0.084   6.825   0.750
17788TIP3    H253242   0.112   6.859   0.605
17789TIP3   OH253243   0.097   6.826   0.939
17789TIP3    H153244   0.044   6.747   0.931
17789TIP3    H253245   0.163   6.804   1.005
17790TIP3   OH253246   0.142   6.548   1.506
17790TIP3    H153247   0.047   6.559   1.505
17790TIP3    H253248   0.176   6.637   1.502
17791TIP3   OH253249   9.762   6.050   0.118
17791TIP3    H153250   9.815   6.123   0.088
17791TIP3    H253251   9.810   6.013   0.192
17792TIP3   OH253252   0.100   5.910   0.314
17792TIP3    H153253   0.030   5.878   0.371
17792TIP3    H253254   0.167   5.943   0.374
17793TIP3   OH253255   0.131   6.313   0.745
17793TIP3    H153256   0.183   6.245   0.703
17793TIP3    H253257   0.137   6.389   0.686
17794TIP3   OH253258   9.739   6.598   0.935
17794TIP3    H153259   9.673   6.646   0.985
17794TIP3    H253260   9.690   6.556   0.865
17795TIP3   OH253261   6.515   1.205   7.967
17795TIP3    H153262   6.447   1.209   7.900
17795TIP3    H253263   6.501   1.283   8.020
17796TIP3   OH253264   6.383   0.895   7.873
17796TIP3    H153265   6.309   0.953   7.889
17796TIP3    H253266   6.349   0.825   7.818
17797TIP3   OH253267   9.686   5.786   0.442
17797TIP3    H153268   9.684   5.693   0.417
17797TIP3    H253269   9.675   5.786   0.537
17798TIP3   OH253270   8.377   5.889   1.213
17798TIP3    H153271   8.340   5.856   1.131
17798TIP3    H253272   8.461   5.844   1.220
17799TIP3   OH253273   0.159   6.222   1.332
17799TIP3    H153274   0.227   6.156   1.315
17799TIP3    H253275   0.187   6.298   1.281
17800TIP3   OH253276   0.349   6.026   1.329
17800TIP3    H153277   0.275   5.965   1.326
17800TIP3    H253278   0.388   6.012   1.416
17801TIP3   OH253279   9.684   5.527   0.331
17801TIP3    H153280   9.728   5.449   0.363
17801TIP3    H253281   9.728   5.548   0.248
17802TIP3   OH253282   0.041   5.673   0.869
17802TIP3    H153283   0.121   5.689   0.819
17802TIP3    H253284   0.064   5.697   0.959
17803TIP3   OH253285   0.129   5.799   1.103
17803TIP3    H153286   0.059   5.827   1.162
17803TIP3    H253287   0.145   5.875   1.047
17804TIP3   OH253288   9.427   6.719   0.306
17804TIP3    H153289   9.482   6.705   0.229
17804TIP3    H253290   9.470   6.790   0.354
17805TIP3   OH253291   8.721   6.525   1.280
17805TIP3    H153292   8.706   6.620   1.279
17805TIP3    H253293   8.785   6.510   1.210
17806TIP3   OH253294   9.274   6.700   1.416
17806TIP3    H153295   9.314   6.686   1.502
17806TIP3    H253296   9.332   6.763   1.373
17807TIP3   OH253297   9.379   6.889   1.240
17807TIP3    H153298   9.452   6.857   1.186
17807TIP3    H253299   9.417   6.962   1.289
17808TIP3   OH253300   8.341   6.676   1.247
17808TIP3    H153301   8.259   6.720   1.224
17808TIP3    H253302   8.398   6.747   1.278
17809TIP3   OH253303   8.663   6.733   1.075
17809TIP3    H153304   8.609   6.657   1.054
17809TIP3    H253305   8.749   6.712   1.039
17810TIP3   OH253306   9.095   6.857   0.854
17810TIP3    H153307   9.036   6.842   0.780
17810TIP3    H253308   9.103   6.952   0.859
17811TIP3   OH253309   9.342   6.723   0.931
17811TIP3    H153310   9.275   6.727   0.999
17811TIP3    H253311   9.309   6.780   0.861
17812TIP3   OH253312   9.558   6.949   0.865
17812TIP3    H153313   9.531   7.028   0.817
17812TIP3    H253314   9.557   6.879   0.799
17813TIP3   OH253315   8.321   6.654   0.970
17813TIP3    H153316   8.346   6.653   1.062
17813TIP3    H253317   8.317   6.561   0.945
17814TIP3   OH253318   8.543   6.403   0.762
17814TIP3    H153319   8.578   6.326   0.807
17814TIP3    H253320   8.619   6.458   0.745
17815TIP3   OH253321   8.775   6.565   0.774
17815TIP3    H153322   8.814   6.480   0.754
17815TIP3    H253323   8.815   6.590   0.858
17816TIP3   OH253324   8.092   6.350   0.341
17816TIP3    H153325   8.004   6.321   0.317
17816TIP3    H253326   8.092   6.444   0.322
17817TIP3   OH253327   5.608   1.900   7.978
17817TIP3    H153328   5.688   1.932   7.937
17817TIP3    H253329   5.578   1.830   7.920
17818TIP3   OH253330   9.577   6.664   0.079
17818TIP3    H153331   9.570   6.569   0.072
17818TIP3    H253332   9.529   6.697   0.003
17819TIP3   OH253333   8.177   6.352   0.035
17819TIP3    H153334   8.176   6.354   0.130
17819TIP3    H253335   8.260   6.308   0.013
17820TIP3   OH253336   9.787   6.813   1.259
17820TIP3    H153337   9.717   6.787   1.199
17820TIP3    H253338   9.784   6.909   1.259
17821TIP3   OH253339   1.258   6.197   0.018
17821TIP3    H153340   1.224   6.281  -0.013
17821TIP3    H253341   1.189   6.134  -0.003
17822TIP3   OH253342   1.253   6.177   0.421
17822TIP3    H153343   1.274   6.128   0.500
17822TIP3    H253344   1.211   6.113   0.363
17823TIP3   OH253345   0.551   6.047   0.770
17823TIP3    H153346   0.591   5.993   0.838
17823TIP3    H253347   0.624   6.067   0.711
17824TIP3   OH253348   1.561   6.492   0.105
17824TIP3    H153349   1.514   6.437   0.167
17824TIP3    H253350   1.566   6.578   0.147
17825TIP3   OH253351   0.558   6.467   0.444
17825TIP3    H153352   0.537   6.374   0.454
17825TIP3    H253353   0.653   6.470   0.442
17826TIP3   OH253354   0.230   5.679   0.225
17826TIP3    H153355   0.191   5.762   0.253
17826TIP3    H253356   0.159   5.633   0.182
17827TIP3   OH253357   0.328   5.985   0.458
17827TIP3    H153358   0.378   5.908   0.484
17827TIP3    H253359   0.395   6.051   0.439
17828TIP3   OH253360   1.198   6.910   0.106
17828TIP3    H153361   1.221   6.850   0.035
17828TIP3    H253362   1.203   6.856   0.185
17829TIP3   OH253363   1.081   6.405   0.444
17829TIP3    H153364   1.118   6.321   0.416
17829TIP3    H253365   1.157   6.457   0.471
17830TIP3   OH253366   0.459   5.755   0.544
17830TIP3    H153367   0.540   5.727   0.587
17830TIP3    H253368   0.459   5.706   0.461
17831TIP3   OH253369   0.860   5.974   0.372
17831TIP3    H153370   0.955   5.957   0.370
17831TIP3    H253371   0.821   5.890   0.348
17832TIP3   OH253372   7.676   1.783   7.884
17832TIP3    H153373   7.645   1.761   7.796
17832TIP3    H253374   7.633   1.866   7.905
17833TIP3   OH253375   0.909   6.325   0.648
17833TIP3    H153376   0.852   6.394   0.680
17833TIP3    H253377   0.960   6.366   0.577
17834TIP3   OH253378   0.703   5.654   0.618
17834TIP3    H153379   0.759   5.720   0.660
17834TIP3    H253380   0.758   5.617   0.549
17835TIP3   OH253381   0.742   6.531   0.738
17835TIP3    H153382   0.731   6.622   0.707
17835TIP3    H253383   0.659   6.510   0.779
17836TIP3   OH253384   6.659   1.624   8.003
17836TIP3    H153385   6.626   1.643   7.915
17836TIP3    H253386   6.682   1.710   8.039
17837TIP3   OH253387   1.561   6.743   0.235
17837TIP3    H153388   1.470   6.734   0.261
17837TIP3    H253389   1.565   6.824   0.185
17838TIP3   OH253390   7.813   2.144   7.886
17838TIP3    H153391   7.867   2.065   7.878
17838TIP3    H253392   7.872   2.215   7.862
17839TIP3   OH253393   7.974   1.926   7.853
17839TIP3    H153394   7.952   1.847   7.804
17839TIP3    H253395   8.019   1.895   7.931
17840TIP3   OH253396   7.626   1.408   7.862
17840TIP3    H153397   7.540   1.449   7.849
17840TIP3    H253398   7.672   1.423   7.779
17841TIP3   OH253399   7.580   1.194   7.596
17841TIP3    H153400   7.655   1.239   7.635
17841TIP3    H253401   7.587   1.104   7.627
17842TIP3   OH253402   7.956   1.493   7.819
17842TIP3    H153403   7.905   1.525   7.893
17842TIP3    H253404   8.039   1.466   7.857
17843TIP3   OH253405   0.681   6.109   0.212
17843TIP3    H153406   0.645   6.046   0.150
17843TIP3    H253407   0.750   6.061   0.258
17844TIP3   OH253408   0.825   6.519   0.362
17844TIP3    H153409   0.802   6.505   0.270
17844TIP3    H253410   0.912   6.481   0.371
17845TIP3   OH253411   0.764   6.096   0.596
17845TIP3    H153412   0.802   6.058   0.517
17845TIP3    H253413   0.817   6.174   0.614
17846TIP3   OH253414   1.306   6.729   0.331
17846TIP3    H153415   1.300   6.811   0.380
17846TIP3    H253416   1.286   6.661   0.396
17847TIP3   OH253417   0.943   6.625   0.902
17847TIP3    H153418   0.890   6.687   0.953
17847TIP3    H253419   0.881   6.582   0.844
17848TIP3   OH253420   7.827   1.324   7.646
17848TIP3    H153421   7.871   1.380   7.710
17848TIP3    H253422   7.844   1.366   7.562
17849TIP3   OH253423   0.667   6.184   1.086
17849TIP3    H153424   0.660   6.278   1.072
17849TIP3    H253425   0.582   6.149   1.058
17850TIP3   OH253426   7.560   2.035   7.905
17850TIP3    H153427   7.646   2.078   7.904
17850TIP3    H253428   7.504   2.095   7.856
17851TIP3   OH253429   0.739   6.788   0.991
17851TIP3    H153430   0.716   6.798   0.899
17851TIP3    H253431   0.655   6.778   1.037
17852TIP3   OH253432   0.553   5.946   0.023
17852TIP3    H153433   0.470   5.988  -0.000
17852TIP3    H253434   0.528   5.862   0.062
17853TIP3   OH253435   8.154   1.965   7.265
17853TIP3    H153436   8.147   2.058   7.242
17853TIP3    H253437   8.243   1.941   7.243
17854TIP3   OH253438   0.331   6.342   0.939
17854TIP3    H153439   0.259   6.326   0.879
17854TIP3    H253440   0.361   6.255   0.965
17855TIP3   OH253441   0.178   6.551   0.607
17855TIP3    H153442   0.266   6.580   0.631
17855TIP3    H253443   0.121   6.624   0.631
17856TIP3   OH253444   1.126   6.770   0.761
17856TIP3    H153445   1.117   6.861   0.789
17856TIP3    H253446   1.062   6.721   0.813
17857TIP3   OH253447   7.455   2.253   7.733
17857TIP3    H153448   7.408   2.233   7.652
17857TIP3    H253449   7.416   2.335   7.763
17858TIP3   OH253450   0.353   6.728   0.106
17858TIP3    H153451   0.395   6.719   0.191
17858TIP3    H253452   0.302   6.648   0.095
17859TIP3   OH253453   7.657   2.192   7.358
17859TIP3    H153454   7.705   2.117   7.322
17859TIP3    H253455   7.692   2.203   7.446
17860TIP3   OH253456   7.708   2.228   7.629
17860TIP3    H153457   7.621   2.232   7.669
17860TIP3    H253458   7.763   2.188   7.696
17861TIP3   OH253459   0.501   6.549   0.882
17861TIP3    H153460   0.552   6.539   0.962
17861TIP3    H253461   0.435   6.480   0.887
17862TIP3   OH253462   7.897   1.429   7.410
17862TIP3    H153463   7.835   1.428   7.337
17862TIP3    H253464   7.972   1.478   7.376
17863TIP3   OH253465   0.851   5.858   0.723
17863TIP3    H153466   0.809   5.864   0.808
17863TIP3    H253467   0.832   5.942   0.681
17864TIP3   OH253468   0.727   5.754   0.282
17864TIP3    H153469   0.642   5.714   0.300
17864TIP3    H253470   0.752   5.720   0.196
17865TIP3   OH253471   7.743   1.206   8.017
17865TIP3    H153472   7.695   1.275   7.971
17865TIP3    H253473   7.807   1.175   7.954
17866TIP3   OH253474   1.359   5.905   0.237
17866TIP3    H153475   1.313   5.877   0.158
17866TIP3    H253476   1.412   5.829   0.262
17867TIP3   OH253477   0.696   5.894   0.949
17867TIP3    H153478   0.766   5.948   0.986
17867TIP3    H253479   0.680   5.827   1.016
17868TIP3   OH253480   0.483   5.622   0.303
17868TIP3    H153481   0.395   5.643   0.272
17868TIP3    H253482   0.497   5.530   0.278
17869TIP3   OH253483   0.781   5.645   0.037
17869TIP3    H153484   0.874   5.623   0.038
17869TIP3    H253485   0.752   5.625  -0.052
17870TIP3   OH253486   7.228   0.969   7.778
17870TIP3    H153487   7.139   0.956   7.745
17870TIP3    H253488   7.263   1.041   7.726
17871TIP3   OH253489   1.693   7.420   0.735
17871TIP3    H153490   1.671   7.418   0.642
17871TIP3    H253491   1.775   7.370   0.742
17872TIP3   OH253492   0.636   6.462   1.103
17872TIP3    H153493   0.731   6.456   1.111
17872TIP3    H253494   0.605   6.474   1.193
17873TIP3   OH253495   1.128   5.922   0.387
17873TIP3    H153496   1.209   5.900   0.342
17873TIP3    H253497   1.132   5.873   0.469
17874TIP3   OH253498   1.113   5.817   0.639
17874TIP3    H153499   1.022   5.822   0.670
17874TIP3    H253500   1.162   5.872   0.701
17875TIP3   OH253501   7.389   1.540   7.802
17875TIP3    H153502   7.311   1.492   7.775
17875TIP3    H253503   7.362   1.589   7.880
17876TIP3   OH253504   1.773   6.328   0.313
17876TIP3    H153505   1.783   6.411   0.265
17876TIP3    H253506   1.678   6.320   0.327
17877TIP3   OH253507   1.298   6.563   0.878
17877TIP3    H153508   1.287   6.475   0.841
17877TIP3    H253509   1.225   6.613   0.842
17878TIP3   OH253510   7.929   1.135   7.837
17878TIP3    H153511   8.024   1.134   7.852
17878TIP3    H253512   7.918   1.187   7.758
17879TIP3   OH253513   0.541   6.178   0.440
17879TIP3    H153514   0.581   6.164   0.355
17879TIP3    H253515   0.607   6.149   0.503
17880TIP3   OH253516   7.539   1.713   7.651
17880TIP3    H153517   7.489   1.795   7.649
17880TIP3    H253518   7.484   1.652   7.700
17881TIP3   OH253519   0.404   6.102   1.071
17881TIP3    H153520   0.395   6.072   1.161
17881TIP3    H253521   0.332   6.059   1.024
17882TIP3   OH253522   1.374   6.791   0.639
17882TIP3    H153523   1.288   6.780   0.679
17882TIP3    H253524   1.364   6.867   0.582
17883TIP3   OH253525   8.467   1.196   7.680
17883TIP3    H153526   8.463   1.117   7.627
17883TIP3    H253527   8.392   1.248   7.651
17884TIP3   OH253528   8.071   2.032   7.527
17884TIP3    H153529   8.047   1.959   7.585
17884TIP3    H253530   8.095   1.990   7.444
17885TIP3   OH253531   1.479   6.303   0.308
17885TIP3    H153532   1.395   6.271   0.341
17885TIP3    H253533   1.512   6.232   0.254
17886TIP3   OH253534   0.675   6.529   0.123
17886TIP3    H153535   0.668   6.604   0.063
17886TIP3    H253536   0.589   6.523   0.163
17887TIP3   OH253537   6.761   1.198   7.851
17887TIP3    H153538   6.807   1.280   7.871
17887TIP3    H253539   6.678   1.205   7.897
17888TIP3   OH253540   0.747   6.289   0.011
17888TIP3    H153541   0.735   6.378   0.046
17888TIP3    H253542   0.727   6.231   0.084
17889TIP3   OH253543   0.949   6.849   0.558
17889TIP3    H153544   0.986   6.925   0.513
17889TIP3    H253545   1.021   6.816   0.612
17890TIP3   OH253546   7.124   2.127   7.970
17890TIP3    H153547   7.036   2.134   8.008
17890TIP3    H253548   7.159   2.216   7.976
17891TIP3   OH253549   1.342   6.497   0.519
17891TIP3    H153550   1.392   6.564   0.566
17891TIP3    H253551   1.406   6.456   0.460
17892TIP3   OH253552   7.836   1.773   7.415
17892TIP3    H153553   7.874   1.754   7.501
17892TIP3    H253554   7.751   1.729   7.417
17893TIP3   OH253555   1.554   7.069   0.588
17893TIP3    H153556   1.601   6.990   0.560
17893TIP3    H253557   1.530   7.113   0.507
17894TIP3   OH253558   8.140   2.235   7.216
17894TIP3    H153559   8.151   2.291   7.139
17894TIP3    H253560   8.071   2.277   7.267
17895TIP3   OH253561   7.979   1.712   7.645
17895TIP3    H153562   7.967   1.634   7.700
17895TIP3    H253563   8.071   1.709   7.620
17896TIP3   OH253564   0.377   6.748   0.726
17896TIP3    H153565   0.426   6.685   0.779
17896TIP3    H253566   0.392   6.832   0.768
17897TIP3   OH253567   7.181   1.758   7.447
17897TIP3    H153568   7.191   1.668   7.417
17897TIP3    H253569   7.172   1.751   7.542
17898TIP3   OH253570   7.126   1.754   7.720
17898TIP3    H153571   7.182   1.729   7.795
17898TIP3    H253572   7.125   1.849   7.722
17899TIP3   OH253573   6.858   1.447   7.923
17899TIP3    H153574   6.792   1.497   7.972
17899TIP3    H253575   6.880   1.503   7.849
17900TIP3   OH253576   7.393   1.940   7.638
17900TIP3    H153577   7.308   1.963   7.675
17900TIP3    H253578   7.417   2.014   7.583
17901TIP3   OH253579   1.052   5.605   0.066
17901TIP3    H153580   1.106   5.681   0.045
17901TIP3    H253581   1.077   5.582   0.155
17902TIP3   OH253582   7.145   2.026   7.717
17902TIP3    H153583   7.126   2.099   7.658
17902TIP3    H253584   7.135   2.064   7.805
17903TIP3   OH253585   1.600   6.047   0.237
17903TIP3    H153586   1.515   6.004   0.250
17903TIP3    H253587   1.641   6.045   0.323
17904TIP3   OH253588   6.883   1.620   7.705
17904TIP3    H153589   6.957   1.681   7.715
17904TIP3    H253590   6.913   1.558   7.638
17905TIP3   OH253591   6.737   0.926   7.798
17905TIP3    H153592   6.741   1.010   7.843
17905TIP3    H253593   6.688   0.869   7.857
17906TIP3   OH253594   1.577   7.000   0.137
17906TIP3    H153595   1.530   7.055   0.075
17906TIP3    H253596   1.669   7.020   0.122
17907TIP3   OH253597   0.172   6.512   0.079
17907TIP3    H153598   0.129   6.549   0.156
17907TIP3    H253599   0.127   6.554   0.005
17908TIP3   OH253600   0.372   7.046   1.153
17908TIP3    H153601   0.451   7.054   1.205
17908TIP3    H253602   0.362   6.951   1.140
17909TIP3   OH253603   0.825   6.939   1.203
17909TIP3    H153604   0.920   6.951   1.211
17909TIP3    H253605   0.814   6.894   1.120
17910TIP3   OH253606   7.344   1.938   7.316
17910TIP3    H153607   7.295   1.874   7.369
17910TIP3    H253608   7.416   1.888   7.279
17911TIP3   OH253609   7.779   1.977   7.240
17911TIP3    H153610   7.814   1.915   7.304
17911TIP3    H253611   7.838   1.969   7.164
17912TIP3   OH253612   0.493   6.453   1.343
17912TIP3    H153613   0.515   6.366   1.376
17912TIP3    H253614   0.406   6.443   1.304
17913TIP3   OH253615   6.999   1.432   7.546
17913TIP3    H153616   7.051   1.408   7.622
17913TIP3    H253617   7.063   1.458   7.480
17914TIP3   OH253618   0.902   6.413   1.077
17914TIP3    H153619   0.930   6.486   1.023
17914TIP3    H253620   0.980   6.357   1.083
17915TIP3   OH253621   7.582   1.662   7.387
17915TIP3    H153622   7.560   1.682   7.478
17915TIP3    H253623   7.570   1.567   7.380
17916TIP3   OH253624   0.589   6.199   1.392
17916TIP3    H153625   0.605   6.166   1.303
17916TIP3    H253626   0.527   6.136   1.429
17917TIP3   OH253627   7.166   1.377   7.761
17917TIP3    H153628   7.150   1.354   7.853
17917TIP3    H253629   7.214   1.302   7.726
17918TIP3   OH253630   0.918   6.061   0.966
17918TIP3    H153631   0.869   6.143   0.959
17918TIP3    H253632   0.979   6.063   0.893
17919TIP3   OH253633   7.302   1.186   7.616
17919TIP3    H153634   7.274   1.197   7.525
17919TIP3    H253635   7.397   1.197   7.614
17920TIP3   OH253636   8.112   1.500   7.243
17920TIP3    H153637   8.085   1.451   7.165
17920TIP3    H253638   8.086   1.590   7.226
17921TIP3   OH253639   1.073   6.122   0.749
17921TIP3    H153640   1.165   6.144   0.731
17921TIP3    H253641   1.023   6.195   0.712
17922TIP3   OH253642   7.151   2.238   7.537
17922TIP3    H153643   7.239   2.214   7.507
17922TIP3    H253644   7.110   2.280   7.461
17923TIP3   OH253645   6.610   1.627   7.710
17923TIP3    H153646   6.705   1.634   7.711
17923TIP3    H253647   6.593   1.540   7.673
17924TIP3   OH253648   9.783   6.818   0.171
17924TIP3    H153649   9.717   6.764   0.127
17924TIP3    H253650   9.827   6.757   0.231
17925TIP3   OH253651   0.126   6.648   0.336
17925TIP3    H153652   0.119   6.579   0.402
17925TIP3    H253653   0.178   6.716   0.378
17926TIP3   OH253654   1.841   7.069   0.118
17926TIP3    H153655   1.849   7.101   0.208
17926TIP3    H253656   1.909   7.115   0.070
17927TIP3   OH253657   1.829   7.115   0.393
17927TIP3    H153658   1.788   7.031   0.413
17927TIP3    H253659   1.919   7.107   0.427
17928TIP3   OH253660   8.249   1.711   7.582
17928TIP3    H153661   8.316   1.775   7.559
17928TIP3    H253662   8.274   1.679   7.668
17929TIP3   OH253663   8.319   1.601   7.819
17929TIP3    H153664   8.269   1.537   7.869
17929TIP3    H253665   8.410   1.583   7.839
17930TIP3   OH253666   1.870   6.562   0.173
17930TIP3    H153667   1.828   6.518   0.099
17930TIP3    H253668   1.887   6.651   0.142
17931TIP3   OH253669   1.707   6.870   0.441
17931TIP3    H153670   1.767   6.799   0.463
17931TIP3    H253671   1.651   6.834   0.372
17932TIP3   OH253672   8.314   1.494   7.425
17932TIP3    H153673   8.250   1.495   7.353
17932TIP3    H253674   8.293   1.572   7.477
17933TIP3   OH253675   8.259   1.151   7.330
17933TIP3    H153676   8.170   1.183   7.310
17933TIP3    H253677   8.249   1.106   7.414
17934TIP3   OH253678   8.177   1.411   7.962
17934TIP3    H153679   8.191   1.317   7.947
17934TIP3    H253680   8.161   1.418   8.057
17935TIP3   OH253681   0.291   6.092   0.707
17935TIP3    H153682   0.286   6.054   0.619
17935TIP3    H253683   0.384   6.086   0.729
17936TIP3   OH253684   8.203   1.150   7.861
17936TIP3    H153685   8.225   1.057   7.852
17936TIP3    H253686   8.231   1.189   7.778
17937TIP3   OH253687   0.278   5.758   0.756
17937TIP3    H153688   0.332   5.745   0.677
17937TIP3    H253689   0.322   5.828   0.804
17938TIP3   OH253690   7.954   2.354   7.794
17938TIP3    H153691   8.007   2.341   7.715
17938TIP3    H253692   7.996   2.428   7.838
17939TIP3   OH253693   0.507   6.774   1.146
17939TIP3    H153694   0.416   6.747   1.136
17939TIP3    H253695   0.526   6.761   1.239
17940TIP3   OH253696   0.726   6.809   0.711
17940TIP3    H153697   0.673   6.884   0.685
17940TIP3    H253698   0.808   6.819   0.664
17941TIP3   OH253699   1.116   7.039   0.819
17941TIP3    H153700   1.148   7.034   0.910
17941TIP3    H253701   1.183   7.090   0.773
17942TIP3   OH253702   1.320   7.191   0.715
17942TIP3    H153703   1.393   7.147   0.672
17942TIP3    H253704   1.361   7.253   0.776
17943TIP3   OH253705   0.387   7.048   0.768
17943TIP3    H153706   0.295   7.064   0.744
17943TIP3    H253707   0.407   7.115   0.833
17944TIP3   OH253708   0.617   7.044   0.618
17944TIP3    H153709   0.534   7.047   0.666
17944TIP3    H253710   0.593   7.067   0.528
17945TIP3   OH253711   1.032   7.064   0.405
17945TIP3    H153712   0.957   7.074   0.346
17945TIP3    H253713   1.042   7.149   0.446
17946TIP3   OH253714   1.290   6.977   0.444
17946TIP3    H153715   1.201   7.008   0.426
17946TIP3    H253716   1.347   7.045   0.409
17947TIP3   OH253717   1.479   7.162   0.340
17947TIP3    H153718   1.481   7.248   0.299
17947TIP3    H253719   1.511   7.102   0.272
17948TIP3   OH253720   0.296   6.829   0.476
17948TIP3    H153721   0.319   6.807   0.566
17948TIP3    H253722   0.368   6.793   0.424
17949TIP3   OH253723   0.499   6.711   0.339
17949TIP3    H153724   0.511   6.626   0.382
17949TIP3    H253725   0.586   6.752   0.343
17950TIP3   OH253726   0.766   6.796   0.358
17950TIP3    H153727   0.786   6.704   0.343
17950TIP3    H253728   0.821   6.821   0.433
17951TIP3   OH253729   6.588   2.008   7.858
17951TIP3    H153730   6.503   1.982   7.823
17951TIP3    H253731   6.597   2.100   7.833
17952TIP3   OH253732   7.403   2.160   7.462
17952TIP3    H153733   7.487   2.189   7.425
17952TIP3    H253734   7.374   2.090   7.405
17953TIP3   OH253735   8.095   2.301   7.562
17953TIP3    H153736   8.092   2.206   7.555
17953TIP3    H253737   8.052   2.332   7.482
17954TIP3   OH253738   6.703   1.996   7.524
17954TIP3    H153739   6.703   2.004   7.619
17954TIP3    H253740   6.786   1.951   7.504
17955TIP3   OH253741   1.655   7.115   0.840
17955TIP3    H153742   1.615   7.099   0.755
17955TIP3    H253743   1.738   7.157   0.821
17956TIP3   OH253744   8.498   1.290   7.935
17956TIP3    H153745   8.525   1.382   7.926
17956TIP3    H253746   8.473   1.264   7.847
17957TIP3   OH253747   8.588   1.544   7.854
17957TIP3    H153748   8.657   1.591   7.900
17957TIP3    H253749   8.628   1.517   7.771
17958TIP3   OH253750   9.446   2.074   7.378
17958TIP3    H153751   9.396   2.046   7.300
17958TIP3    H253752   9.412   2.162   7.397
17959TIP3   OH253753   8.451   1.878   7.487
17959TIP3    H153754   8.423   1.895   7.396
17959TIP3    H253755   8.472   1.965   7.521
17960TIP3   OH253756   9.363   1.449   7.085
17960TIP3    H153757   9.445   1.466   7.131
17960TIP3    H253758   9.370   1.358   7.056
17961TIP3   OH253759   9.347   2.333   7.412
17961TIP3    H153760   9.353   2.401   7.478
17961TIP3    H253761   9.301   2.375   7.339
17962TIP3   OH253762   8.890   1.648   7.531
17962TIP3    H153763   8.809   1.676   7.487
17962TIP3    H253764   8.866   1.567   7.576
17963TIP3   OH253765   1.935   6.812   0.078
17963TIP3    H153766   2.025   6.834   0.103
17963TIP3    H253767   1.885   6.891   0.095
17964TIP3   OH253768   9.253   2.501   7.213
17964TIP3    H153769   9.217   2.485   7.126
17964TIP3    H253770   9.216   2.586   7.238
17965TIP3   OH253771   8.667   2.369   7.563
17965TIP3    H153772   8.710   2.355   7.648
17965TIP3    H253773   8.619   2.289   7.547
17966TIP3   OH253774   9.475   2.419   6.854
17966TIP3    H153775   9.542   2.355   6.831
17966TIP3    H253776   9.493   2.440   6.946
17967TIP3   OH253777   9.514   2.482   7.118
17967TIP3    H153778   9.435   2.473   7.171
17967TIP3    H253779   9.584   2.494   7.182
17968TIP3   OH253780   9.625   1.648   6.839
17968TIP3    H153781   9.642   1.618   6.750
17968TIP3    H253782   9.674   1.730   6.848
17969TIP3   OH253783   8.943   1.345   7.349
17969TIP3    H153784   8.859   1.345   7.303
17969TIP3    H253785   9.008   1.353   7.279
17970TIP3   OH253786   9.136   1.861   7.278
17970TIP3    H153787   9.085   1.781   7.264
17970TIP3    H253788   9.140   1.871   7.373
17971TIP3   OH253789   9.327   1.961   7.107
17971TIP3    H153790   9.291   2.049   7.107
17971TIP3    H253791   9.270   1.911   7.166
17972TIP3   OH253792   0.108   2.289   6.925
17972TIP3    H153793   0.091   2.218   6.987
17972TIP3    H253794   0.031   2.288   6.867
17973TIP3   OH253795   8.952   2.135   7.591
17973TIP3    H153796   8.978   2.212   7.540
17973TIP3    H253797   8.863   2.155   7.621
17974TIP3   OH253798   8.576   1.456   7.352
17974TIP3    H153799   8.619   1.540   7.365
17974TIP3    H253800   8.486   1.470   7.383
17975TIP3   OH253801   9.072   1.884   7.546
17975TIP3    H153802   9.020   1.964   7.554
17975TIP3    H253803   9.008   1.813   7.554
17976TIP3   OH253804   8.924   2.390   7.459
17976TIP3    H153805   8.833   2.400   7.484
17976TIP3    H253806   8.962   2.477   7.473
17977TIP3   OH253807   9.605   1.994   6.919
17977TIP3    H153808   9.588   1.997   7.013
17977TIP3    H253809   9.528   1.951   6.882
17978TIP3   OH253810   2.142   6.981   0.199
17978TIP3    H153811   2.133   6.912   0.265
17978TIP3    H253812   2.197   7.047   0.241
17979TIP3   OH253813   8.984   2.007   6.913
17979TIP3    H153814   8.995   1.915   6.887
17979TIP3    H253815   8.965   2.003   7.006
17980TIP3   OH253816   8.922   2.012   7.181
17980TIP3    H153817   9.000   1.974   7.221
17980TIP3    H253818   8.930   2.106   7.197
17981TIP3   OH253819   8.659   1.717   7.400
17981TIP3    H153820   8.589   1.763   7.447
17981TIP3    H253821   8.676   1.771   7.323
17982TIP3   OH253822   9.207   2.201   7.125
17982TIP3    H153823   9.124   2.222   7.168
17982TIP3    H253824   9.224   2.275   7.068
17983TIP3   OH253825   8.957   2.281   7.209
17983TIP3    H153826   8.936   2.350   7.147
17983TIP3    H253827   8.946   2.322   7.295
17984TIP3   OH253828   8.679   1.883   7.177
17984TIP3    H153829   8.750   1.946   7.184
17984TIP3    H253830   8.710   1.817   7.115
17985TIP3   OH253831   8.538   1.182   7.318
17985TIP3    H153832   8.558   1.274   7.337
17985TIP3    H253833   8.442   1.176   7.326
17986TIP3   OH253834   8.499   2.141   7.567
17986TIP3    H153835   8.467   2.181   7.647
17986TIP3    H253836   8.450   2.185   7.497
17987TIP3   OH253837   9.139   2.203   6.799
17987TIP3    H153838   9.091   2.133   6.843
17987TIP3    H253839   9.213   2.159   6.757
17988TIP3   OH253840   9.672   2.230   6.791
17988TIP3    H153841   9.651   2.145   6.830
17988TIP3    H253842   9.652   2.220   6.698
17989TIP3   OH253843   8.804   1.690   7.031
17989TIP3    H153844   8.853   1.665   7.110
17989TIP3    H253845   8.870   1.709   6.966
17990TIP3   OH253846   9.364   1.889   6.844
17990TIP3    H153847   9.337   1.908   6.934
17990TIP3    H253848   9.339   1.797   6.831
17991TIP3   OH253849   8.973   1.637   7.253
17991TIP3    H153850   8.956   1.619   7.345
17991TIP3    H253851   9.015   1.558   7.220
17992TIP3   OH253852   9.088   1.420   7.120
17992TIP3    H153853   9.066   1.440   7.029
17992TIP3    H253854   9.183   1.431   7.124
17993TIP3   OH253855   8.946   2.481   7.018
17993TIP3    H153856   9.037   2.468   6.990
17993TIP3    H253857   8.904   2.523   6.943
17994TIP3   OH253858   8.408   1.878   7.204
17994TIP3    H153859   8.502   1.892   7.195
17994TIP3    H253860   8.392   1.793   7.164
17995TIP3   OH253861   8.300   2.456   7.654
17995TIP3    H153862   8.236   2.403   7.607
17995TIP3    H253863   8.349   2.394   7.708
17996TIP3   OH253864   8.449   2.282   7.808
17996TIP3    H153865   8.434   2.221   7.880
17996TIP3    H253866   8.503   2.351   7.846
17997TIP3   OH253867   9.733   2.561   7.266
17997TIP3    H153868   9.808   2.554   7.207
17997TIP3    H253869   9.768   2.605   7.344
17998TIP3   OH253870   2.156   7.299   0.197
17998TIP3    H153871   2.062   7.320   0.195
17998TIP3    H253872   2.193   7.362   0.258
17999TIP3   OH253873   2.385   7.246   0.056
17999TIP3    H153874   2.299   7.247   0.097
17999TIP3    H253875   2.377   7.303  -0.020
18000TIP3   OH253876   8.619   2.464   7.947
18000TIP3    H153877   8.643   2.438   8.036
18000TIP3    H253878   8.689   2.428   7.893
18001TIP3   OH253879   8.806   2.328   7.794
18001TIP3    H153880   8.816   2.262   7.863
18001TIP3    H253881   8.888   2.377   7.796
18002TIP3   OH253882   9.036   2.448   7.873
18002TIP3    H153883   9.131   2.437   7.881
18002TIP3    H253884   9.013   2.511   7.941
18003TIP3   OH253885   8.379   2.270   7.358
18003TIP3    H153886   8.297   2.239   7.319
18003TIP3    H253887   8.390   2.359   7.325
18004TIP3   OH253888   9.208   2.419   6.946
18004TIP3    H153889   9.294   2.440   6.908
18004TIP3    H253890   9.172   2.351   6.889
18005TIP3   OH253891   0.136   2.529   7.065
18005TIP3    H153892   0.128   2.442   7.025
18005TIP3    H253893   0.087   2.587   7.006
18006TIP3   OH253894   8.505   2.261   7.006
18006TIP3    H153895   8.510   2.276   7.100
18006TIP3    H253896   8.586   2.213   6.985
18007TIP3   OH253897   5.473   7.633   1.176
18007TIP3    H153898   5.504   7.670   1.094
18007TIP3    H253899   5.517   7.684   1.244
18008TIP3   OH253900   5.158   6.888   0.700
18008TIP3    H153901   5.238   6.913   0.744
18008TIP3    H253902   5.142   6.797   0.727
18009TIP3   OH253903   5.335   7.049   0.928
18009TIP3    H153904   5.409   7.077   0.981
18009TIP3    H253905   5.331   7.112   0.856
18010TIP3   OH253906   5.667   7.628   0.301
18010TIP3    H153907   5.670   7.723   0.307
18010TIP3    H253908   5.758   7.600   0.299
18011TIP3   OH253909   4.901   7.780   0.932
18011TIP3    H153910   4.834   7.826   0.882
18011TIP3    H253911   4.954   7.850   0.971
18012TIP3   OH253912   5.195   7.894   0.547
18012TIP3    H153913   5.266   7.844   0.507
18012TIP3    H253914   5.177   7.849   0.629
18013TIP3   OH253915   5.179   7.926   0.857
18013TIP3    H153916   5.098   7.977   0.856
18013TIP3    H253917   5.187   7.896   0.948
18014TIP3   OH253918   5.293   7.160   0.369
18014TIP3    H153919   5.295   7.065   0.353
18014TIP3    H253920   5.385   7.187   0.362
18015TIP3   OH253921   5.285   6.534   0.847
18015TIP3    H153922   5.253   6.471   0.911
18015TIP3    H253923   5.302   6.613   0.897
18016TIP3   OH253924   5.366   6.784   0.927
18016TIP3    H153925   5.433   6.770   0.994
18016TIP3    H253926   5.349   6.878   0.930
18017TIP3   OH253927   5.098   7.422   0.714
18017TIP3    H153928   5.086   7.513   0.741
18017TIP3    H253929   5.028   7.375   0.760
18018TIP3   OH253930   5.913   6.769   0.725
18018TIP3    H153931   5.842   6.781   0.662
18018TIP3    H253932   5.919   6.853   0.771
18019TIP3   OH253933   5.568   7.703   0.564
18019TIP3    H153934   5.503   7.647   0.606
18019TIP3    H253935   5.637   7.643   0.535
18020TIP3   OH253936   5.346   7.604   0.676
18020TIP3    H153937   5.350   7.551   0.755
18020TIP3    H253938   5.308   7.546   0.610
18021TIP3   OH253939   5.691   7.901   0.330
18021TIP3    H153940   5.738   7.980   0.305
18021TIP3    H253941   5.606   7.933   0.362
18022TIP3   OH253942   5.435   7.430   0.870
18022TIP3    H153943   5.384   7.350   0.856
18022TIP3    H253944   5.498   7.406   0.938
18023TIP3   OH253945   4.681   7.396   0.534
18023TIP3    H153946   4.714   7.322   0.484
18023TIP3    H253947   4.625   7.357   0.601
18024TIP3   OH253948   4.865   7.492   0.871
18024TIP3    H153949   4.841   7.549   0.944
18024TIP3    H253950   4.853   7.546   0.794
18025TIP3   OH253951   4.855   7.577   0.360
18025TIP3    H153952   4.845   7.491   0.401
18025TIP3    H253953   4.939   7.609   0.392
18026TIP3   OH253954   5.355   7.728   0.391
18026TIP3    H153955   5.439   7.730   0.439
18026TIP3    H253956   5.379   7.702   0.302
18027TIP3   OH253957   4.591   7.212   0.728
18027TIP3    H153958   4.653   7.200   0.800
18027TIP3    H253959   4.600   7.134   0.674
18028TIP3   OH253960   5.009   7.353   0.465
18028TIP3    H153961   5.032   7.387   0.551
18028TIP3    H253962   5.000   7.258   0.479
18029TIP3   OH253963   4.777   6.803   0.890
18029TIP3    H153964   4.692   6.779   0.852
18029TIP3    H253965   4.810   6.872   0.833
18030TIP3   OH253966   5.577   7.123   0.397
18030TIP3    H153967   5.598   7.110   0.304
18030TIP3    H253968   5.631   7.198   0.423
18031TIP3   OH253969   4.723   7.916   0.777
18031TIP3    H153970   4.783   7.986   0.753
18031TIP3    H253971   4.679   7.892   0.696
18032TIP3   OH253972   5.719   7.418   0.781
18032TIP3    H153973   5.797   7.397   0.730
18032TIP3    H253974   5.750   7.426   0.871
18033TIP3   OH253975   5.941   7.295   0.906
18033TIP3    H153976   5.894   7.239   0.968
18033TIP3    H253977   6.007   7.340   0.959
18034TIP3   OH253978   5.981   7.106   0.694
18034TIP3    H153979   5.943   7.109   0.606
18034TIP3    H253980   5.977   7.196   0.726
18035TIP3   OH253981   5.713   6.819   0.539
18035TIP3    H153982   5.761   6.839   0.459
18035TIP3    H253983   5.656   6.747   0.516
18036TIP3   OH253984   5.622   6.557   0.677
18036TIP3    H153985   5.715   6.535   0.669
18036TIP3    H253986   5.576   6.487   0.630
18037TIP3   OH253987   5.881   6.470   0.687
18037TIP3    H153988   5.871   6.423   0.605
18037TIP3    H253989   5.975   6.488   0.693
18038TIP3   OH253990   5.433   7.932   1.030
18038TIP3    H153991   5.439   7.872   0.956
18038TIP3    H253992   5.523   7.950   1.055
18039TIP3   OH253993   4.906   7.846   0.532
18039TIP3    H153994   4.997   7.820   0.520
18039TIP3    H253995   4.865   7.772   0.577
18040TIP3   OH253996   5.659   7.975   0.640
18040TIP3    H153997   5.577   7.948   0.680
18040TIP3    H253998   5.634   8.008   0.553
18041TIP3   OH253999   4.190   7.549   0.744
18041TIP3    H154000   4.224   7.637   0.764
18041TIP3    H254001   4.258   7.510   0.690
18042TIP3   OH254002   7.092   7.480   0.625
18042TIP3    H154003   7.088   7.574   0.610
18042TIP3    H254004   7.022   7.443   0.572
18043TIP3   OH254005   7.132   7.536   1.090
18043TIP3    H154006   7.216   7.535   1.135
18043TIP3    H254007   7.145   7.480   1.014
18044TIP3   OH254008   7.402   7.794   0.647
18044TIP3    H154009   7.382   7.726   0.711
18044TIP3    H254010   7.407   7.874   0.698
18045TIP3   OH254011   6.428   7.825   1.154
18045TIP3    H154012   6.408   7.748   1.101
18045TIP3    H254013   6.520   7.815   1.178
18046TIP3   OH254014   6.007   6.957   0.915
18046TIP3    H154015   5.990   7.022   0.848
18046TIP3    H254016   6.100   6.937   0.907
18047TIP3   OH254017   6.132   7.371   1.098
18047TIP3    H154018   6.132   7.276   1.100
18047TIP3    H254019   6.223   7.396   1.117
18048TIP3   OH254020   6.950   8.214   0.711
18048TIP3    H154021   7.000   8.143   0.672
18048TIP3    H254022   6.909   8.175   0.788
18049TIP3   OH254023   6.907   7.707   1.039
18049TIP3    H154024   6.901   7.631   0.982
18049TIP3    H254025   6.990   7.694   1.087
18050TIP3   OH254026   7.988   7.054   1.182
18050TIP3    H154027   8.036   7.127   1.143
18050TIP3    H254028   7.951   7.007   1.108
18051TIP3   OH254029   7.281   7.229   1.131
18051TIP3    H154030   7.321   7.145   1.152
18051TIP3    H254031   7.188   7.209   1.119
18052TIP3   OH254032   6.673   6.887   1.043
18052TIP3    H154033   6.652   6.958   1.104
18052TIP3    H254034   6.608   6.819   1.061
18053TIP3   OH254035   7.376   6.950   0.655
18053TIP3    H154036   7.389   6.980   0.745
18053TIP3    H254037   7.448   6.989   0.606
18054TIP3   OH254038   6.756   7.241   0.987
18054TIP3    H154039   6.841   7.244   0.942
18054TIP3    H254040   6.708   7.171   0.942
18055TIP3   OH254041   8.020   7.293   1.379
18055TIP3    H154042   7.937   7.249   1.363
18055TIP3    H254043   8.057   7.247   1.454
18056TIP3   OH254044   7.014   7.712   0.490
18056TIP3    H154045   6.966   7.680   0.413
18056TIP3    H254046   6.959   7.781   0.526
18057TIP3   OH254047   7.620   6.936   0.905
18057TIP3    H154048   7.660   6.864   0.954
18057TIP3    H254049   7.655   7.015   0.945
18058TIP3   OH254050   5.968   7.390   0.635
18058TIP3    H154051   5.926   7.473   0.611
18058TIP3    H254052   5.992   7.401   0.728
18059TIP3   OH254053   7.379   8.029   0.792
18059TIP3    H154054   7.292   8.053   0.824
18059TIP3    H254055   7.407   8.105   0.741
18060TIP3   OH254056   7.661   6.987   1.221
18060TIP3    H154057   7.595   6.919   1.237
18060TIP3    H254058   7.744   6.940   1.222
18061TIP3   OH254059   7.121   8.065   0.550
18061TIP3    H154060   7.171   7.989   0.521
18061TIP3    H254061   7.177   8.140   0.528
18062TIP3   OH254062   7.252   7.859   0.431
18062TIP3    H154063   7.187   7.789   0.430
18062TIP3    H254064   7.317   7.830   0.495
18063TIP3   OH254065   7.534   7.998   1.298
18063TIP3    H154066   7.611   7.960   1.255
18063TIP3    H254067   7.470   8.009   1.227
18064TIP3   OH254068   6.912   7.361   0.463
18064TIP3    H154069   6.822   7.391   0.451
18064TIP3    H254070   6.951   7.369   0.376
18065TIP3   OH254071   6.913   7.131   0.190
18065TIP3    H154072   6.974   7.193   0.231
18065TIP3    H254073   6.970   7.064   0.151
18066TIP3   OH254074   7.875   7.528   0.956
18066TIP3    H154075   7.798   7.572   0.993
18066TIP3    H254076   7.916   7.595   0.901
18067TIP3   OH254077   7.285   7.418   0.440
18067TIP3    H154078   7.234   7.435   0.519
18067TIP3    H254079   7.369   7.384   0.473
18068TIP3   OH254080   7.504   7.446   1.407
18068TIP3    H154081   7.504   7.405   1.493
18068TIP3    H254082   7.523   7.374   1.346
18069TIP3   OH254083   6.516   7.365   0.921
18069TIP3    H154084   6.497   7.337   0.831
18069TIP3    H254085   6.599   7.323   0.942
18070TIP3   OH254086   6.690   7.856   0.959
18070TIP3    H154087   6.663   7.822   0.874
18070TIP3    H254088   6.759   7.796   0.988
18071TIP3   OH254089   6.722   7.295   1.250
18071TIP3    H154090   6.750   7.267   1.163
18071TIP3    H254091   6.801   7.334   1.289
18072TIP3   OH254092   7.152   8.123   0.915
18072TIP3    H154093   7.110   8.164   0.991
18072TIP3    H254094   7.093   8.050   0.892
18073TIP3   OH254095   7.094   7.333   0.262
18073TIP3    H154096   7.164   7.368   0.318
18073TIP3    H254097   7.136   7.317   0.178
18074TIP3   OH254098   6.872   7.945   0.552
18074TIP3    H154099   6.957   7.989   0.555
18074TIP3    H254100   6.816   8.004   0.502
18075TIP3   OH254101   7.627   6.505   0.328
18075TIP3    H154102   7.553   6.527   0.385
18075TIP3    H254103   7.641   6.583   0.275
18076TIP3   OH254104   6.442   7.418   0.652
18076TIP3    H154105   6.378   7.464   0.598
18076TIP3    H254106   6.436   7.326   0.625
18077TIP3   OH254107   4.201   3.260   7.927
18077TIP3    H154108   4.192   3.354   7.907
18077TIP3    H254109   4.291   3.240   7.900
18078TIP3   OH254110   7.774   8.348   1.310
18078TIP3    H154111   7.783   8.274   1.250
18078TIP3    H254112   7.741   8.309   1.391
18079TIP3   OH254113   6.990   8.006   1.441
18079TIP3    H154114   6.980   8.096   1.412
18079TIP3    H254115   6.923   7.995   1.509
18080TIP3   OH254116   6.765   8.167   0.388
18080TIP3    H154117   6.723   8.149   0.304
18080TIP3    H254118   6.728   8.250   0.417
18081TIP3   OH254119   6.218   8.007   0.681
18081TIP3    H154120   6.266   7.966   0.753
18081TIP3    H254121   6.140   7.953   0.670
18082TIP3   OH254122   6.971   8.111   0.018
18082TIP3    H154123   7.020   8.038  -0.018
18082TIP3    H254124   7.005   8.122   0.106
18083TIP3   OH254125   7.021   8.146   0.288
18083TIP3    H154126   6.934   8.151   0.328
18083TIP3    H254127   7.074   8.098   0.351
18084TIP3   OH254128   7.221   7.243   0.038
18084TIP3    H154129   7.170   7.247  -0.043
18084TIP3    H254130   7.301   7.294   0.018
18085TIP3   OH254131   6.907   6.709   0.287
18085TIP3    H154132   6.883   6.716   0.380
18085TIP3    H254133   6.881   6.621   0.262
18086TIP3   OH254134   6.584   7.099   0.838
18086TIP3    H154135   6.501   7.113   0.884
18086TIP3    H254136   6.571   7.018   0.789
18087TIP3   OH254137   7.110   7.177   0.536
18087TIP3    H154138   7.052   7.242   0.496
18087TIP3    H254139   7.164   7.146   0.464
18088TIP3   OH254140   7.171   7.117   0.808
18088TIP3    H154141   7.185   7.111   0.714
18088TIP3    H254142   7.230   7.052   0.846
18089TIP3   OH254143   6.571   6.630   0.303
18089TIP3    H154144   6.568   6.652   0.396
18089TIP3    H254145   6.511   6.692   0.261
18090TIP3   OH254146   6.165   6.675   0.696
18090TIP3    H154147   6.200   6.763   0.686
18090TIP3    H254148   6.074   6.688   0.723
18091TIP3   OH254149   7.221   7.385   1.346
18091TIP3    H154150   7.255   7.340   1.268
18091TIP3    H254151   7.297   7.433   1.381
18092TIP3   OH254152   6.891   6.736   1.093
18092TIP3    H154153   6.810   6.783   1.072
18092TIP3    H254154   6.960   6.784   1.047
18093TIP3   OH254155   6.700   6.973   0.597
18093TIP3    H154156   6.723   7.063   0.576
18093TIP3    H254157   6.628   6.952   0.539
18094TIP3   OH254158   7.323   6.970   1.218
18094TIP3    H154159   7.254   7.008   1.272
18094TIP3    H254160   7.308   6.875   1.223
18095TIP3   OH254161   6.488   6.963   0.429
18095TIP3    H154162   6.433   6.894   0.392
18095TIP3    H254163   6.538   6.997   0.355
18096TIP3   OH254164   7.664   8.727   1.499
18096TIP3    H154165   7.640   8.669   1.427
18096TIP3    H254166   7.715   8.673   1.558
18097TIP3   OH254167   7.023   7.177   1.073
18097TIP3    H154168   7.046   7.090   1.042
18097TIP3    H254169   6.960   7.162   1.144
18098TIP3   OH254170   6.468   6.608   0.838
18098TIP3    H154171   6.457   6.564   0.923
18098TIP3    H254172   6.562   6.620   0.828
18099TIP3   OH254173   6.666   7.509   0.441
18099TIP3    H154174   6.608   7.435   0.422
18099TIP3    H254175   6.671   7.512   0.537
18100TIP3   OH254176   7.681   7.702   1.030
18100TIP3    H154177   7.706   7.757   0.956
18100TIP3    H254178   7.592   7.729   1.051
18101TIP3   OH254179   7.159   6.807   0.301
18101TIP3    H154180   7.065   6.793   0.297
18101TIP3    H254181   7.169   6.902   0.308
18102TIP3   OH254182   7.240   7.072   0.318
18102TIP3    H154183   7.330   7.063   0.351
18102TIP3    H254184   7.249   7.126   0.240
18103TIP3   OH254185   6.399   7.410   1.169
18103TIP3    H154186   6.435   7.397   1.081
18103TIP3    H254187   6.449   7.349   1.224
18104TIP3   OH254188   6.847   7.629   0.283
18104TIP3    H154189   6.812   7.718   0.275
18104TIP3    H254190   6.782   7.583   0.336
18105TIP3   OH254191   7.241   7.923   1.403
18105TIP3    H154192   7.151   7.949   1.422
18105TIP3    H254193   7.294   7.998   1.432
18106TIP3   OH254194   7.667   7.152   0.207
18106TIP3    H154195   7.610   7.108   0.144
18106TIP3    H254196   7.668   7.243   0.179
18107TIP3   OH254197   7.821   8.082   1.419
18107TIP3    H154198   7.789   8.011   1.474
18107TIP3    H254199   7.872   8.038   1.351
18108TIP3   OH254200   7.384   7.959   0.197
18108TIP3    H154201   7.342   7.906   0.265
18108TIP3    H254202   7.398   7.899   0.124
18109TIP3   OH254203   7.359   7.604   0.845
18109TIP3    H154204   7.316   7.521   0.866
18109TIP3    H254205   7.450   7.579   0.826
18110TIP3   OH254206   6.586   7.806   0.700
18110TIP3    H154207   6.583   7.892   0.657
18110TIP3    H254208   6.496   7.773   0.691
18111TIP3   OH254209   6.164   7.149   0.442
18111TIP3    H154210   6.176   7.243   0.445
18111TIP3    H254211   6.069   7.137   0.444
18112TIP3   OH254212   6.675   7.552   0.714
18112TIP3    H154213   6.654   7.645   0.710
18112TIP3    H254214   6.590   7.508   0.710
18113TIP3   OH254215   6.772   8.253   1.193
18113TIP3    H154216   6.792   8.338   1.152
18113TIP3    H254217   6.837   8.245   1.263
18114TIP3   OH254218   6.477   8.047   0.599
18114TIP3    H154219   6.384   8.037   0.619
18114TIP3    H254220   6.494   8.140   0.611
18115TIP3   OH254221   7.146   7.809   1.170
18115TIP3    H154222   7.169   7.818   1.263
18115TIP3    H254223   7.170   7.720   1.148
18116TIP3   OH254224   7.142   7.695   0.061
18116TIP3    H154225   7.193   7.669   0.138
18116TIP3    H254226   7.063   7.641   0.066
18117TIP3   OH254227   7.497   8.305   1.131
18117TIP3    H154228   7.459   8.266   1.209
18117TIP3    H254229   7.433   8.371   1.104
18118TIP3   OH254230   4.185   3.533   7.872
18118TIP3    H154231   4.185   3.582   7.790
18118TIP3    H254232   4.119   3.576   7.926
18119TIP3   OH254233   7.314   7.615   0.254
18119TIP3    H154234   7.302   7.551   0.325
18119TIP3    H254235   7.409   7.628   0.249
18120TIP3   OH254236   6.505   7.651   0.078
18120TIP3    H154237   6.517   7.560   0.050
18120TIP3    H254238   6.489   7.645   0.172
18121TIP3   OH254239   6.449   7.668   0.346
18121TIP3    H154240   6.526   7.634   0.392
18121TIP3    H254241   6.455   7.763   0.357
18122TIP3   OH254242   6.206   7.410   0.502
18122TIP3    H154243   6.125   7.409   0.552
18122TIP3    H254244   6.193   7.479   0.437
18123TIP3   OH254245   7.234   6.743   0.554
18123TIP3    H154246   7.195   6.756   0.468
18123TIP3    H254247   7.280   6.825   0.572
18124TIP3   OH254248   6.723   7.867   0.283
18124TIP3    H154249   6.635   7.884   0.316
18124TIP3    H254250   6.743   7.941   0.225
18125TIP3   OH254251   6.999   6.938   0.588
18125TIP3    H154252   7.035   7.024   0.566
18125TIP3    H254253   6.983   6.943   0.683
18126TIP3   OH254254   7.130   6.804   0.803
18126TIP3    H154255   7.046   6.758   0.801
18126TIP3    H254256   7.166   6.793   0.715
18127TIP3   OH254257   6.469   7.940   0.351
18127TIP3    H154258   6.445   8.012   0.293
18127TIP3    H254259   6.473   7.980   0.438
18128TIP3   OH254260   6.589   6.703   0.567
18128TIP3    H154261   6.549   6.773   0.618
18128TIP3    H254262   6.683   6.722   0.569
18129TIP3   OH254263   7.477   7.238   0.806
18129TIP3    H154264   7.401   7.288   0.837
18129TIP3    H254265   7.537   7.238   0.881
18130TIP3   OH254266   6.193   7.581   0.292
18130TIP3    H154267   6.268   7.637   0.310
18130TIP3    H254268   6.230   7.509   0.240
18131TIP3   OH254269   6.194   6.911   0.309
18131TIP3    H154270   6.203   6.990   0.363
18131TIP3    H254271   6.135   6.855   0.359
18132TIP3   OH254272   7.448   8.277   0.695
18132TIP3    H154273   7.405   8.362   0.690
18132TIP3    H254274   7.539   8.297   0.719
18133TIP3   OH254275   6.052   7.779   0.684
18133TIP3    H154276   5.976   7.782   0.741
18133TIP3    H254277   6.018   7.802   0.597
18134TIP3   OH254278   3.385   3.241   7.979
18134TIP3    H154279   3.339   3.169   8.021
18134TIP3    H254280   3.460   3.200   7.936
18135TIP3   OH254281   3.826   3.283   7.896
18135TIP3    H154282   3.860   3.216   7.956
18135TIP3    H254283   3.883   3.277   7.819
18136TIP3   OH254284   6.323   7.362   0.189
18136TIP3    H154285   6.368   7.332   0.268
18136TIP3    H254286   6.392   7.368   0.123
18137TIP3   OH254287   6.903   7.558   0.026
18137TIP3    H154288   6.875   7.570   0.117
18137TIP3    H254289   6.882   7.467   0.007
18138TIP3   OH254290   7.452   7.750   1.411
18138TIP3    H154291   7.514   7.818   1.384
18138TIP3    H254292   7.368   7.795   1.418
18139TIP3   OH254293   6.522   7.288   0.378
18139TIP3    H154294   6.529   7.252   0.466
18139TIP3    H254295   6.565   7.223   0.322
18140TIP3   OH254296   6.646   7.088   0.242
18140TIP3    H154297   6.614   7.087   0.152
18140TIP3    H254298   6.741   7.094   0.234
18141TIP3   OH254299   4.157   2.775   7.926
18141TIP3    H154300   4.145   2.735   7.839
18141TIP3    H254301   4.132   2.867   7.914
18142TIP3   OH254302   6.463   8.163   0.190
18142TIP3    H154303   6.552   8.144   0.161
18142TIP3    H254304   6.421   8.204   0.114
18143TIP3   OH254305   5.926   7.540   0.292
18143TIP3    H154306   6.018   7.564   0.299
18143TIP3    H254307   5.926   7.454   0.251
18144TIP3   OH254308   5.916   8.054   0.699
18144TIP3    H154309   5.823   8.038   0.683
18144TIP3    H254310   5.933   8.013   0.784
18145TIP3   OH254311   6.003   7.999   0.959
18145TIP3    H154312   5.991   7.918   1.009
18145TIP3    H254313   5.986   8.069   1.022
18146TIP3   OH254314   7.700   8.366   0.765
18146TIP3    H154315   7.696   8.399   0.854
18146TIP3    H254316   7.750   8.433   0.717
18147TIP3   OH254317   7.726   8.443   1.028
18147TIP3    H154318   7.660   8.392   1.074
18147TIP3    H254319   7.809   8.402   1.052
18148TIP3   OH254320   7.590   7.623   0.251
18148TIP3    H154321   7.650   7.692   0.224
18148TIP3    H254322   7.635   7.579   0.322
18149TIP3   OH254323   7.716   7.465   0.435
18149TIP3    H154324   7.647   7.418   0.481
18149TIP3    H254325   7.774   7.496   0.504
18150TIP3   OH254326   7.735   7.851   0.814
18150TIP3    H154327   7.820   7.814   0.790
18150TIP3    H254328   7.743   7.944   0.790
18151TIP3   OH254329   7.583   8.112   0.957
18151TIP3    H154330   7.537   8.182   1.003
18151TIP3    H254331   7.517   8.073   0.899
18152TIP3   OH254332   7.636   7.399   0.096
18152TIP3    H154333   7.564   7.393   0.034
18152TIP3    H254334   7.616   7.476   0.149
18153TIP3   OH254335   7.493   7.033   0.034
18153TIP3    H154336   7.437   7.063  -0.037
18153TIP3    H254337   7.490   6.938   0.029
18154TIP3   OH254338   7.513   7.309   0.541
18154TIP3    H154339   7.519   7.221   0.504
18154TIP3    H254340   7.508   7.295   0.636
18155TIP3   OH254341   7.893   7.791   1.449
18155TIP3    H154342   7.900   7.699   1.475
18155TIP3    H254343   7.889   7.838   1.532
18156TIP3   OH254344   7.906   7.530   1.522
18156TIP3    H154345   7.863   7.466   1.578
18156TIP3    H254346   7.998   7.504   1.522
18157TIP3   OH254347   7.456   6.762   0.003
18157TIP3    H154348   7.519   6.734   0.069
18157TIP3    H254349   7.374   6.720   0.029
18158TIP3   OH254350   7.499   7.064   0.403
18158TIP3    H154351   7.533   6.977   0.423
18158TIP3    H254352   7.560   7.099   0.337
18159TIP3   OH254353   7.698   7.186   0.965
18159TIP3    H154354   7.762   7.192   0.894
18159TIP3    H254355   7.740   7.231   1.038
18160TIP3   OH254356   7.842   7.332   1.138
18160TIP3    H154357   7.794   7.377   1.208
18160TIP3    H254358   7.854   7.399   1.070
18161TIP3   OH254359   7.591   6.818   0.465
18161TIP3    H154360   7.653   6.820   0.538
18161TIP3    H254361   7.543   6.736   0.477
18162TIP3   OH254362   7.678   6.713   0.161
18162TIP3    H154363   7.727   6.654   0.104
18162TIP3    H254364   7.734   6.791   0.169
18163TIP3   OH254365   6.188   6.535   0.952
18163TIP3    H154366   6.097   6.561   0.964
18163TIP3    H254367   6.231   6.614   0.919
18164TIP3   OH254368   7.262   8.280   0.456
18164TIP3    H154369   7.305   8.265   0.372
18164TIP3    H254370   7.332   8.308   0.515
18165TIP3   OH254371   6.584   8.107   1.438
18165TIP3    H154372   6.571   8.201   1.428
18165TIP3    H254373   6.591   8.074   1.348
18166TIP3   OH254374   7.167   8.397   1.483
18166TIP3    H154375   7.246   8.448   1.464
18166TIP3    H254376   7.130   8.438   1.561
18167TIP3   OH254377   6.468   8.334   1.245
18167TIP3    H154378   6.432   8.245   1.244
18167TIP3    H254379   6.500   8.347   1.156
18168TIP3   OH254380   6.910   8.406   1.003
18168TIP3    H154381   6.853   8.380   0.930
18168TIP3    H254382   6.913   8.502   0.998
18169TIP3   OH254383   7.079   8.249   1.141
18169TIP3    H154384   7.008   8.298   1.099
18169TIP3    H254385   7.151   8.312   1.149
18170TIP3   OH254386   7.430   8.524   0.894
18170TIP3    H154387   7.435   8.579   0.817
18170TIP3    H254388   7.356   8.465   0.877
18171TIP3   OH254389   6.129   8.069   1.295
18171TIP3    H154390   6.161   8.064   1.385
18171TIP3    H254391   6.207   8.074   1.241
18172TIP3   OH254392   6.363   7.909   0.885
18172TIP3    H154393   6.365   7.868   0.971
18172TIP3    H254394   6.438   7.969   0.885
18173TIP3   OH254395   6.552   8.100   0.911
18173TIP3    H154396   6.629   8.051   0.882
18173TIP3    H254397   6.563   8.108   1.006
18174TIP3   OH254398   7.217   6.720   1.202
18174TIP3    H154399   7.150   6.672   1.251
18174TIP3    H254400   7.256   6.655   1.144
18175TIP3   OH254401   7.701   6.714   1.036
18175TIP3    H154402   7.735   6.665   0.961
18175TIP3    H254403   7.614   6.677   1.052
18176TIP3   OH254404   7.774   6.791   0.659
18176TIP3    H154405   7.789   6.716   0.716
18176TIP3    H254406   7.857   6.840   0.661
18177TIP3   OH254407   6.323   6.369   0.794
18177TIP3    H154408   6.371   6.446   0.762
18177TIP3    H254409   6.269   6.403   0.865
18178TIP3   OH254410   6.777   6.475   1.063
18178TIP3    H154411   6.758   6.536   0.992
18178TIP3    H254412   6.787   6.531   1.140
18179TIP3   OH254413   7.456   6.610   1.063
18179TIP3    H154414   7.434   6.619   0.970
18179TIP3    H254415   7.406   6.534   1.093
18180TIP3   OH254416   7.452   6.589   0.527
18180TIP3    H154417   7.366   6.631   0.528
18180TIP3    H254418   7.435   6.500   0.558
18181TIP3   OH254419   5.927   7.869   0.462
18181TIP3    H154420   5.844   7.868   0.413
18181TIP3    H254421   5.938   7.960   0.488
18182TIP3   OH254422   6.304   6.619   0.464
18182TIP3    H154423   6.345   6.532   0.472
18182TIP3    H254424   6.264   6.634   0.550
18183TIP3   OH254425   6.863   6.709   0.555
18183TIP3    H154426   6.921   6.655   0.609
18183TIP3    H254427   6.900   6.797   0.561
18184TIP3   OH254428   6.715   8.089   0.114
18184TIP3    H154429   6.799   8.114   0.076
18184TIP3    H254430   6.683   8.018   0.058
18185TIP3   OH254431   7.409   8.227   0.228
18185TIP3    H154432   7.408   8.131   0.220
18185TIP3    H254433   7.369   8.257   0.146
18186TIP3   OH254434   6.019   7.898   0.171
18186TIP3    H154435   6.014   7.895   0.267
18186TIP3    H254436   6.103   7.858   0.150
18187TIP3   OH254437   7.656   8.450   1.561
18187TIP3    H154438   7.610   8.371   1.535
18187TIP3    H254439   7.603   8.487   1.632
18188TIP3   OH254440   8.910   7.745   0.148
18188TIP3    H154441   8.875   7.831   0.125
18188TIP3    H254442   8.844   7.683   0.117
18189TIP3   OH254443   8.908   7.757   0.556
18189TIP3    H154444   8.971   7.729   0.623
18189TIP3    H254445   8.865   7.676   0.529
18190TIP3   OH254446   8.212   7.674   0.885
18190TIP3    H154447   8.222   7.604   0.950
18190TIP3    H254448   8.289   7.664   0.829
18191TIP3   OH254449   9.184   8.046   0.236
18191TIP3    H154450   9.171   7.979   0.302
18191TIP3    H254451   9.205   8.125   0.285
18192TIP3   OH254452   8.220   8.055   0.630
18192TIP3    H154453   8.197   7.962   0.624
18192TIP3    H254454   8.312   8.058   0.605
18193TIP3   OH254455   7.878   7.237   0.389
18193TIP3    H154456   7.835   7.322   0.396
18193TIP3    H254457   7.818   7.182   0.339
18194TIP3   OH254458   7.955   7.545   0.561
18194TIP3    H154459   8.035   7.496   0.575
18194TIP3    H254460   7.975   7.602   0.486
18195TIP3   OH254461   8.848   8.459   0.275
18195TIP3    H154462   8.882   8.408   0.202
18195TIP3    H254463   8.775   8.408   0.309
18196TIP3   OH254464   8.718   7.973   0.556
18196TIP3    H154465   8.760   7.893   0.525
18196TIP3    H254466   8.790   8.025   0.594
18197TIP3   OH254467   9.753   7.274   0.578
18197TIP3    H154468   9.764   7.358   0.622
18197TIP3    H254469   9.783   7.290   0.488
18198TIP3   OH254470   9.130   7.454   0.605
18198TIP3    H154471   9.167   7.371   0.635
18198TIP3    H254472   9.084   7.432   0.524
18199TIP3   OH254473   8.449   7.094   0.543
18199TIP3    H154474   8.445   7.174   0.490
18199TIP3    H254475   8.397   7.030   0.494
18200TIP3   OH254476   9.183   7.215   0.217
18200TIP3    H154477   9.254   7.206   0.281
18200TIP3    H254478   9.225   7.248   0.138
18201TIP3   OH254479   8.174   7.397   0.607
18201TIP3    H154480   8.164   7.367   0.697
18201TIP3    H254481   8.171   7.316   0.555
18202TIP3   OH254482   8.529   7.534   0.497
18202TIP3    H154483   8.624   7.522   0.494
18202TIP3    H254484   8.493   7.451   0.466
18203TIP3   OH254485   9.786   7.483   0.763
18203TIP3    H154486   9.708   7.536   0.747
18203TIP3    H254487   9.769   7.441   0.847
18204TIP3   OH254488   8.466   7.143   1.012
18204TIP3    H154489   8.409   7.166   0.938
18204TIP3    H254490   8.406   7.120   1.083
18205TIP3   OH254491   8.785   7.959   0.032
18205TIP3    H154492   8.752   7.938  -0.056
18205TIP3    H254493   8.740   8.040   0.055
18206TIP3   OH254494   8.581   7.875   0.775
18206TIP3    H154495   8.529   7.943   0.819
18206TIP3    H254496   8.619   7.920   0.699
18207TIP3   OH254497   9.365   7.229   0.418
18207TIP3    H154498   9.313   7.209   0.495
18207TIP3    H254499   9.412   7.310   0.440
18208TIP3   OH254500   8.340   7.202   0.777
18208TIP3    H154501   8.392   7.282   0.777
18208TIP3    H254502   8.369   7.154   0.700
18209TIP3   OH254503   8.425   8.066   0.901
18209TIP3    H154504   8.378   8.146   0.876
18209TIP3    H254505   8.360   8.016   0.951
18210TIP3   OH254506   7.774   7.802   0.143
18210TIP3    H154507   7.740   7.819   0.055
18210TIP3    H254508   7.795   7.889   0.178
18211TIP3   OH254509   9.223   8.291   0.365
18211TIP3    H154510   9.150   8.285   0.426
18211TIP3    H254511   9.213   8.377   0.323
18212TIP3   OH254512   9.533   7.191   0.733
18212TIP3    H154513   9.449   7.201   0.688
18212TIP3    H254514   9.599   7.210   0.667
18213TIP3   OH254515   8.883   6.808   0.687
18213TIP3    H154516   8.853   6.717   0.688
18213TIP3    H254517   8.804   6.859   0.707
18214TIP3   OH254518   8.919   8.338   0.036
18214TIP3    H154519   8.970   8.257   0.027
18214TIP3    H254520   8.975   8.406  -0.001
18215TIP3   OH254521   9.073   8.120  -0.005
18215TIP3    H154522   9.071   8.043  -0.062
18215TIP3    H254523   9.112   8.087   0.076
18216TIP3   OH254524   9.426   8.198   0.711
18216TIP3    H154525   9.410   8.113   0.670
18216TIP3    H254526   9.428   8.260   0.638
18217TIP3   OH254527   5.469   2.964   8.001
18217TIP3    H154528   5.390   3.009   7.971
18217TIP3    H254529   5.518   2.945   7.921
18218TIP3   OH254530   9.623   7.855   0.600
18218TIP3    H154531   9.536   7.895   0.597
18218TIP3    H254532   9.657   7.863   0.510
18219TIP3   OH254533   5.837   3.083   7.960
18219TIP3    H154534   5.778   3.099   8.034
18219TIP3    H254535   5.916   3.045   8.001
18220TIP3   OH254536   9.332   7.725   0.890
18220TIP3    H154537   9.326   7.801   0.948
18220TIP3    H254538   9.254   7.731   0.835
18221TIP3   OH254539   8.317   7.656   0.357
18221TIP3    H154540   8.279   7.592   0.298
18221TIP3    H254541   8.390   7.611   0.399
18222TIP3   OH254542   8.467   8.087   0.499
18222TIP3    H154543   8.437   8.066   0.410
18222TIP3    H254544   8.553   8.046   0.506
18223TIP3   OH254545   8.427   7.654   0.721
18223TIP3    H154546   8.462   7.617   0.640
18223TIP3    H254547   8.484   7.729   0.740
18224TIP3   OH254548   9.043   8.289   0.567
18224TIP3    H154549   8.973   8.353   0.581
18224TIP3    H254550   9.010   8.208   0.605
18225TIP3   OH254551   8.616   8.186   1.056
18225TIP3    H154552   8.560   8.255   1.092
18225TIP3    H254553   8.557   8.132   1.004
18226TIP3   OH254554   5.675   2.904   7.820
18226TIP3    H154555   5.735   2.970   7.856
18226TIP3    H254556   5.684   2.913   7.725
18227TIP3   OH254557   8.466   7.725   1.059
18227TIP3    H154558   8.415   7.805   1.054
18227TIP3    H254559   8.402   7.654   1.056
18228TIP3   OH254560   8.672   8.215   0.070
18228TIP3    H154561   8.755   8.261   0.056
18228TIP3    H254562   8.614   8.245   0.000
18229TIP3   OH254563   8.437   8.392   1.107
18229TIP3    H154564   8.394   8.374   1.023
18229TIP3    H254565   8.366   8.392   1.171
18230TIP3   OH254566   6.162   2.142   7.869
18230TIP3    H154567   6.083   2.167   7.918
18230TIP3    H254568   6.180   2.217   7.813
18231TIP3   OH254569   8.190   7.489   0.170
18231TIP3    H154570   8.111   7.535   0.140
18231TIP3    H254571   8.162   7.398   0.178
18232TIP3   OH254572   6.001   3.542   7.420
18232TIP3    H154573   6.003   3.635   7.396
18232TIP3    H254574   6.088   3.509   7.396
18233TIP3   OH254575   7.994   8.006   0.962
18233TIP3    H154576   7.934   8.028   0.891
18233TIP3    H254577   7.984   7.911   0.974
18234TIP3   OH254578   7.825   8.112   0.754
18234TIP3    H154579   7.908   8.159   0.753
18234TIP3    H254580   7.760   8.179   0.777
18235TIP3   OH254581   9.687   8.516   0.811
18235TIP3    H154582   9.690   8.424   0.837
18235TIP3    H254583   9.598   8.529   0.780
18236TIP3   OH254584   8.778   8.352   0.911
18236TIP3    H154585   8.770   8.436   0.956
18236TIP3    H254586   8.723   8.293   0.963
18237TIP3   OH254587   5.301   3.826   7.877
18237TIP3    H154588   5.235   3.796   7.815
18237TIP3    H254589   5.266   3.908   7.912
18238TIP3   OH254590   7.995   8.285   0.247
18238TIP3    H154591   8.041   8.273   0.330
18238TIP3    H254592   7.943   8.206   0.236
18239TIP3   OH254593   5.531   3.754   7.493
18239TIP3    H154594   5.559   3.668   7.461
18239TIP3    H254595   5.543   3.750   7.588
18240TIP3   OH254596   5.547   3.781   7.764
18240TIP3    H154597   5.462   3.793   7.806
18240TIP3    H254598   5.601   3.740   7.831
18241TIP3   OH254599   9.560   7.656   1.076
18241TIP3    H154600   9.489   7.658   1.012
18241TIP3    H254601   9.583   7.564   1.085
18242TIP3   OH254602   8.211   8.188   1.099
18242TIP3    H154603   8.266   8.164   1.174
18242TIP3    H254604   8.192   8.105   1.057
18243TIP3   OH254605   8.667   6.961   0.729
18243TIP3    H154606   8.590   6.923   0.770
18243TIP3    H254607   8.693   7.033   0.786
18244TIP3   OH254608   9.186   7.053   1.111
18244TIP3    H154609   9.254   6.997   1.148
18244TIP3    H254610   9.107   7.000   1.113
18245TIP3   OH254611   9.338   7.460   0.976
18245TIP3    H154612   9.297   7.449   1.062
18245TIP3    H254613   9.307   7.545   0.945
18246TIP3   OH254614   5.732   2.949   7.555
18246TIP3    H154615   5.686   2.914   7.479
18246TIP3    H254616   5.815   2.981   7.519
18247TIP3   OH254617   5.517   2.250   7.842
18247TIP3    H154618   5.477   2.292   7.917
18247TIP3    H254619   5.450   2.190   7.809
18248TIP3   OH254620   8.518   7.411   0.827
18248TIP3    H154621   8.526   7.415   0.922
18248TIP3    H254622   8.483   7.496   0.802
18249TIP3   OH254623   8.398   7.317   0.389
18249TIP3    H154624   8.306   7.302   0.411
18249TIP3    H254625   8.407   7.278   0.302
18250TIP3   OH254626   8.854   7.385   0.146
18250TIP3    H154627   8.806   7.455   0.102
18250TIP3    H254628   8.911   7.348   0.078
18251TIP3   OH254629   9.100   7.696   1.196
18251TIP3    H154630   9.068   7.638   1.265
18251TIP3    H254631   9.194   7.704   1.212
18252TIP3   OH254632   9.025   7.395   0.358
18252TIP3    H154633   8.960   7.412   0.290
18252TIP3    H254634   9.078   7.323   0.324
18253TIP3   OH254635   8.287   7.501   1.083
18253TIP3    H154636   8.308   7.519   1.174
18253TIP3    H254637   8.230   7.423   1.086
18254TIP3   OH254638   5.100   2.286   7.820
18254TIP3    H154639   5.098   2.301   7.914
18254TIP3    H254640   5.024   2.333   7.786
18255TIP3   OH254641   8.009   6.934   0.618
18255TIP3    H154642   8.103   6.928   0.637
18255TIP3    H254643   8.000   6.896   0.531
18256TIP3   OH254644   7.839   6.939   0.179
18256TIP3    H154645   7.885   6.970   0.101
18256TIP3    H254646   7.778   7.009   0.200
18257TIP3   OH254647   9.087   7.677   0.750
18257TIP3    H154648   9.113   7.604   0.695
18257TIP3    H254649   9.059   7.637   0.833
18258TIP3   OH254650   8.739   7.087   0.455
18258TIP3    H154651   8.666   7.082   0.516
18258TIP3    H254652   8.817   7.092   0.511
18259TIP3   OH254653   8.151   7.186   0.434
18259TIP3    H154654   8.058   7.189   0.414
18259TIP3    H254655   8.177   7.097   0.412
18260TIP3   OH254656   8.399   7.180   0.153
18260TIP3    H154657   8.493   7.190   0.136
18260TIP3    H254658   8.358   7.198   0.069
18261TIP3   OH254659   9.213   7.189   0.640
18261TIP3    H154660   9.207   7.197   0.735
18261TIP3    H254661   9.136   7.136   0.616
18262TIP3   OH254662   4.994   2.581   7.922
18262TIP3    H154663   4.933   2.528   7.871
18262TIP3    H254664   5.043   2.632   7.857
18263TIP3   OH254665   8.342   8.101   1.325
18263TIP3    H154666   8.427   8.103   1.368
18263TIP3    H254667   8.283   8.059   1.388
18264TIP3   OH254668   8.808   7.493   0.523
18264TIP3    H154669   8.871   7.448   0.467
18264TIP3    H254670   8.810   7.446   0.606
18265TIP3   OH254671   8.276   6.930   0.387
18265TIP3    H154672   8.251   6.844   0.421
18265TIP3    H254673   8.303   6.914   0.297
18266TIP3   OH254674   8.789   7.386   0.777
18266TIP3    H154675   8.697   7.410   0.786
18266TIP3    H254676   8.835   7.443   0.838
18267TIP3   OH254677   5.230   3.107   7.940
18267TIP3    H154678   5.157   3.049   7.919
18267TIP3    H254679   5.207   3.146   8.024
18268TIP3   OH254680   9.383   7.981   0.547
18268TIP3    H154681   9.417   8.028   0.470
18268TIP3    H254682   9.306   7.935   0.514
18269TIP3   OH254683   8.934   8.075   0.963
18269TIP3    H154684   8.971   8.036   1.042
18269TIP3    H254685   8.854   8.119   0.993
18270TIP3   OH254686   5.755   2.668   7.951
18270TIP3    H154687   5.849   2.674   7.940
18270TIP3    H254688   5.720   2.731   7.888
18271TIP3   OH254689   8.207   7.780   0.579
18271TIP3    H154690   8.233   7.746   0.493
18271TIP3    H254691   8.260   7.731   0.642
18272TIP3   OH254692   5.385   3.273   7.789
18272TIP3    H154693   5.339   3.357   7.792
18272TIP3    H254694   5.329   3.213   7.839
18273TIP3   OH254695   8.184   7.751   1.299
18273TIP3    H154696   8.161   7.755   1.392
18273TIP3    H254697   8.141   7.673   1.266
18274TIP3   OH254698   8.874   7.848   1.215
18274TIP3    H154699   8.812   7.778   1.192
18274TIP3    H254700   8.960   7.811   1.196
18275TIP3   OH254701   9.054   8.370   0.877
18275TIP3    H154702   8.962   8.343   0.883
18275TIP3    H254703   9.078   8.391   0.967
18276TIP3   OH254704   6.170   2.769   7.738
18276TIP3    H154705   6.117   2.720   7.674
18276TIP3    H254706   6.169   2.859   7.706
18277TIP3   OH254707   9.674   8.237   0.828
18277TIP3    H154708   9.580   8.228   0.812
18277TIP3    H254709   9.714   8.215   0.744
18278TIP3   OH254710   5.900   3.581   7.680
18278TIP3    H154711   5.877   3.503   7.731
18278TIP3    H254712   5.928   3.546   7.595
18279TIP3   OH254713   9.164   7.844   0.434
18279TIP3    H154714   9.072   7.826   0.452
18279TIP3    H254715   9.199   7.762   0.400
18280TIP3   OH254716   8.313   8.081   0.264
18280TIP3    H154717   8.308   8.157   0.206
18280TIP3    H254718   8.225   8.073   0.300
18281TIP3   OH254719   4.614   2.749   7.977
18281TIP3    H154720   4.658   2.831   8.000
18281TIP3    H254721   4.529   2.755   8.020
18282TIP3   OH254722   8.395   7.839   0.162
18282TIP3    H154723   8.378   7.926   0.197
18282TIP3    H254724   8.371   7.779   0.233
18283TIP3   OH254725   8.593   8.404   0.711
18283TIP3    H154726   8.627   8.483   0.668
18283TIP3    H254727   8.662   8.377   0.770
18284TIP3   OH254728   8.234   8.305   0.113
18284TIP3    H154729   8.146   8.310   0.149
18284TIP3    H254730   8.268   8.394   0.120
18285TIP3   OH254731   8.954   8.055   0.687
18285TIP3    H154732   8.947   8.059   0.783
18285TIP3    H254733   8.996   7.971   0.670
18286TIP3   OH254734   5.687   3.324   7.562
18286TIP3    H154735   5.728   3.309   7.648
18286TIP3    H254736   5.608   3.270   7.564
18287TIP3   OH254737   9.107   8.591   0.731
18287TIP3    H154738   9.089   8.512   0.782
18287TIP3    H254739   9.045   8.588   0.659
18288TIP3   OH254740   6.008   3.831   7.378
18288TIP3    H154741   6.062   3.911   7.383
18288TIP3    H254742   5.963   3.838   7.294
18289TIP3   OH254743   8.304   7.273   1.298
18289TIP3    H154744   8.232   7.265   1.236
18289TIP3    H254745   8.326   7.182   1.320
18290TIP3   OH254746   5.858   3.299   7.789
18290TIP3    H154747   5.834   3.224   7.844
18290TIP3    H254748   5.951   3.286   7.770
18291TIP3   OH254749   8.048   8.272   0.797
18291TIP3    H154750   8.136   8.234   0.799
18291TIP3    H254751   8.030   8.296   0.888
18292TIP3   OH254752   5.030   3.294   7.585
18292TIP3    H154753   5.037   3.204   7.555
18292TIP3    H254754   5.015   3.287   7.679
18293TIP3   OH254755   4.974   3.307   7.857
18293TIP3    H154756   5.034   3.277   7.925
18293TIP3    H254757   4.976   3.402   7.862
18294TIP3   OH254758   7.969   7.619   0.063
18294TIP3    H154759   7.902   7.669   0.110
18294TIP3    H254760   7.992   7.675  -0.011
18295TIP3   OH254761   9.195   7.230   0.903
18295TIP3    H154762   9.238   7.311   0.930
18295TIP3    H254763   9.193   7.176   0.982
18296TIP3   OH254764   9.011   7.027   0.109
18296TIP3    H154765   8.979   7.076   0.033
18296TIP3    H254766   9.066   7.089   0.157
18297TIP3   OH254767   5.256   3.515   7.802
18297TIP3    H154768   5.166   3.528   7.831
18297TIP3    H254769   5.269   3.580   7.733
18298TIP3   OH254770   8.677   7.181   0.200
18298TIP3    H154771   8.736   7.254   0.181
18298TIP3    H254772   8.694   7.160   0.292
18299TIP3   OH254773   9.019   7.553   0.977
18299TIP3    H154774   9.046   7.602   1.055
18299TIP3    H254775   8.982   7.472   1.011
18300TIP3   OH254776   8.837   6.889   0.282
18300TIP3    H154777   8.811   6.962   0.338
18300TIP3    H254778   8.902   6.926   0.222
18301TIP3   OH254779   4.998   3.582   7.864
18301TIP3    H154780   4.978   3.654   7.805
18301TIP3    H254781   4.983   3.618   7.952
18302TIP3   OH254782   8.359   6.909   0.108
18302TIP3    H154783   8.355   7.003   0.125
18302TIP3    H254784   8.453   6.890   0.099
18303TIP3   OH254785   9.591   7.364   0.945
18303TIP3    H154786   9.502   7.396   0.962
18303TIP3    H254787   9.579   7.296   0.878
18304TIP3   OH254788   9.254   7.585   0.356
18304TIP3    H154789   9.177   7.529   0.369
18304TIP3    H254790   9.321   7.547   0.412
18305TIP3   OH254791   4.730   3.172   7.847
18305TIP3    H154792   4.804   3.234   7.855
18305TIP3    H254793   4.760   3.109   7.782
18306TIP3   OH254794   4.631   2.471   7.961
18306TIP3    H154795   4.647   2.564   7.974
18306TIP3    H254796   4.570   2.467   7.887
18307TIP3   OH254797   9.243   8.571   0.307
18307TIP3    H154798   9.188   8.619   0.245
18307TIP3    H254799   9.332   8.592   0.281
18308TIP3   OH254800   8.258   6.869   0.709
18308TIP3    H154801   8.270   6.810   0.634
18308TIP3    H254802   8.345   6.875   0.748
18309TIP3   OH254803   7.815   8.071   0.222
18309TIP3    H154804   7.771   8.105   0.300
18309TIP3    H254805   7.769   8.111   0.149
18310TIP3   OH254806   8.074   8.577   1.181
18310TIP3    H154807   8.149   8.525   1.211
18310TIP3    H254808   8.009   8.568   1.250
18311TIP3   OH254809   8.555   8.560   1.307
18311TIP3    H154810   8.536   8.498   1.377
18311TIP3    H254811   8.532   8.513   1.227
18312TIP3   OH254812   5.192   3.482   7.468
18312TIP3    H154813   5.140   3.416   7.514
18312TIP3    H254814   5.262   3.431   7.426
18313TIP3   OH254815   9.136   8.464   1.125
18313TIP3    H154816   9.140   8.391   1.187
18313TIP3    H254817   9.217   8.512   1.138
18314TIP3   OH254818   5.623   3.525   7.385
18314TIP3    H154819   5.660   3.459   7.444
18314TIP3    H254820   5.679   3.521   7.307
18315TIP3   OH254821   8.143   7.985   1.491
18315TIP3    H154822   8.156   7.896   1.524
18315TIP3    H254823   8.100   7.974   1.406
18316TIP3   OH254824   4.848   2.983   7.691
18316TIP3    H154825   4.900   2.958   7.768
18316TIP3    H254826   4.913   2.998   7.622
18317TIP3   OH254827   8.760   8.089   1.266
18317TIP3    H154828   8.707   8.109   1.189
18317TIP3    H254829   8.803   8.006   1.246
18318TIP3   OH254830   5.440   3.194   7.528
18318TIP3    H154831   5.413   3.202   7.620
18318TIP3    H254832   5.421   3.103   7.506
18319TIP3   OH254833   9.232   8.118   0.901
18319TIP3    H154834   9.288   8.161   0.837
18319TIP3    H254835   9.146   8.161   0.891
18320TIP3   OH254836   8.173   7.733   1.576
18320TIP3    H154837   8.179   7.638   1.565
18320TIP3    H254838   8.163   7.745   1.671
18321TIP3   OH254839   5.018   2.932   7.909
18321TIP3    H154840   4.999   2.901   7.997
18321TIP3    H254841   5.062   2.858   7.867
18322TIP3   OH254842   8.712   7.644   1.134
18322TIP3    H154843   8.627   7.688   1.129
18322TIP3    H254844   8.744   7.643   1.043
18323TIP3   OH254845   5.130   2.740   7.748
18323TIP3    H154846   5.088   2.755   7.664
18323TIP3    H254847   5.220   2.715   7.726
18324TIP3   OH254848   9.137   8.010   1.243
18324TIP3    H154849   9.203   7.973   1.185
18324TIP3    H254850   9.137   7.952   1.319
18325TIP3   OH254851   5.961   3.042   7.423
18325TIP3    H154852   5.945   2.995   7.341
18325TIP3    H254853   5.940   3.133   7.404
18326TIP3   OH254854   8.774   7.408   1.328
18326TIP3    H154855   8.724   7.328   1.314
18326TIP3    H254856   8.797   7.437   1.239
18327TIP3   OH254857   8.721   7.159   0.917
18327TIP3    H154858   8.748   7.230   0.858
18327TIP3    H254859   8.633   7.183   0.944
18328TIP3   OH254860   8.754   7.680   0.867
18328TIP3    H154861   8.835   7.710   0.826
18328TIP3    H254862   8.689   7.746   0.843
18329TIP3   OH254863   9.358   7.705   1.286
18329TIP3    H154864   9.383   7.643   1.355
18329TIP3    H254865   9.431   7.703   1.224
18330TIP3   OH254866   9.360   7.949   1.066
18330TIP3    H154867   9.309   8.011   1.013
18330TIP3    H254868   9.449   7.957   1.033
18331TIP3   OH254869   8.613   7.563   1.477
18331TIP3    H154870   8.552   7.496   1.508
18331TIP3    H254871   8.678   7.515   1.426
18332TIP3   OH254872   8.949   6.923   1.151
18332TIP3    H154873   8.861   6.960   1.157
18332TIP3    H254874   8.938   6.840   1.105
18333TIP3   OH254875   9.028   7.511   1.378
18333TIP3    H154876   9.061   7.504   1.468
18333TIP3    H254877   8.941   7.470   1.382
18334TIP3   OH254878   9.223   7.413   1.211
18334TIP3    H154879   9.147   7.446   1.259
18334TIP3    H254880   9.265   7.352   1.272
18335TIP3   OH254881   9.530   7.360   1.354
18335TIP3    H154882   9.479   7.279   1.363
18335TIP3    H254883   9.487   7.422   1.412
18336TIP3   OH254884   8.433   7.362   1.518
18336TIP3    H154885   8.402   7.337   1.431
18336TIP3    H254886   8.412   7.286   1.573
18337TIP3   OH254887   9.095   6.911   1.395
18337TIP3    H154888   9.120   6.819   1.401
18337TIP3    H254889   9.043   6.916   1.314
18338TIP3   OH254890   9.026   7.234   1.550
18338TIP3    H154891   9.016   7.153   1.599
18338TIP3    H254892   8.973   7.298   1.597
18339TIP3   OH254893   5.012   3.799   7.685
18339TIP3    H154894   5.094   3.770   7.646
18339TIP3    H254895   4.964   3.839   7.613
18340TIP3   OH254896   4.457   3.176   7.853
18340TIP3    H154897   4.552   3.184   7.853
18340TIP3    H254898   4.439   3.089   7.818
18341TIP3   OH254899   7.622   8.376   0.313
18341TIP3    H154900   7.553   8.323   0.272
18341TIP3    H254901   7.666   8.315   0.372
18342TIP3   OH254902   7.762   8.203   0.475
18342TIP3    H154903   7.754   8.138   0.545
18342TIP3    H254904   7.814   8.273   0.514
18343TIP3   OH254905   9.493   8.670   0.267
18343TIP3    H154906   9.511   8.755   0.306
18343TIP3    H254907   9.567   8.654   0.208
18344TIP3   OH254908   9.561   8.347   1.135
18344TIP3    H154909   9.496   8.349   1.204
18344TIP3    H254910   9.608   8.430   1.143
18345TIP3   OH254911   6.130   3.245   7.760
18345TIP3    H154912   6.193   3.310   7.730
18345TIP3    H254913   6.174   3.202   7.834
18346TIP3   OH254914   6.257   3.097   7.959
18346TIP3    H154915   6.188   3.055   8.011
18346TIP3    H254916   6.320   3.129   8.023
18347TIP3   OH254917   9.575   8.128   0.393
18347TIP3    H154918   9.623   8.052   0.360
18347TIP3    H254919   9.590   8.196   0.327
18348TIP3   OH254920   9.317   8.446   0.585
18348TIP3    H154921   9.250   8.381   0.607
18348TIP3    H254922   9.334   8.433   0.492
18349TIP3   OH254923   6.160   3.014   7.609
18349TIP3    H154924   6.091   3.014   7.543
18349TIP3    H254925   6.143   3.091   7.662
18350TIP3   OH254926   6.036   2.641   7.537
18350TIP3    H154927   5.981   2.671   7.464
18350TIP3    H254928   6.014   2.548   7.547
18351TIP3   OH254929   9.321   7.576   0.087
18351TIP3    H154930   9.320   7.482   0.069
18351TIP3    H254931   9.301   7.582   0.180
18352TIP3   OH254932   7.965   7.716   0.777
18352TIP3    H154933   7.970   7.667   0.695
18352TIP3    H254934   8.055   7.718   0.809
18353TIP3   OH254935   9.612   7.989   0.960
18353TIP3    H154936   9.674   7.917   0.946
18353TIP3    H254937   9.642   8.058   0.902
18354TIP3   OH254938   9.784   7.777   0.952
18354TIP3    H154939   9.711   7.728   0.991
18354TIP3    H254940   9.862   7.729   0.979
18355TIP3   OH254941   5.967   2.373   7.556
18355TIP3    H154942   6.027   2.350   7.628
18355TIP3    H254943   5.881   2.349   7.588
18356TIP3   OH254944   6.053   2.682   7.984
18356TIP3    H154945   6.100   2.599   7.998
18356TIP3    H254946   6.090   2.717   7.903
18357TIP3   OH254947   9.472   7.472   0.501
18357TIP3    H154948   9.554   7.489   0.456
18357TIP3    H254949   9.483   7.510   0.588
18358TIP3   OH254950   9.544   7.623   0.727
18358TIP3    H154951   9.470   7.651   0.782
18358TIP3    H254952   9.575   7.704   0.686
18359TIP3   OH254953   8.184   7.469   1.520
18359TIP3    H154954   8.278   7.459   1.530
18359TIP3    H254955   8.160   7.405   1.453
18360TIP3   OH254956   0.202   7.240   1.244
18360TIP3    H154957   0.263   7.170   1.223
18360TIP3    H254958   0.182   7.280   1.159
18361TIP3   OH254959   9.434   7.052   0.033
18361TIP3    H154960   9.476   7.034   0.117
18361TIP3    H254961   9.365   6.986   0.027
18362TIP3   OH254962   8.195   7.013   0.942
18362TIP3    H154963   8.204   6.949   0.871
18362TIP3    H254964   8.208   7.098   0.900
18363TIP3   OH254965   8.044   7.339   0.845
18363TIP3    H154966   7.995   7.259   0.824
18363TIP3    H254967   7.976   7.403   0.868
18364TIP3   OH254968   0.072   7.352   1.026
18364TIP3    H154969   0.011   7.388   1.091
18364TIP3    H254970   0.028   7.274   0.993
18365TIP3   OH254971   6.216   2.337   7.685
18365TIP3    H154972   6.259   2.279   7.622
18365TIP3    H254973   6.268   2.417   7.684
18366TIP3   OH254974   7.927   6.798   0.393
18366TIP3    H154975   7.846   6.776   0.439
18366TIP3    H254976   7.900   6.852   0.319
18367TIP3   OH254977   5.790   3.920   7.918
18367TIP3    H154978   5.842   3.900   7.841
18367TIP3    H254979   5.840   3.988   7.964
18368TIP3   OH254980   8.116   6.790   1.149
18368TIP3    H154981   8.034   6.809   1.195
18368TIP3    H254982   8.114   6.848   1.072
18369TIP3   OH254983   8.260   8.418   1.324
18369TIP3    H154984   8.189   8.355   1.331
18369TIP3    H254985   8.327   8.385   1.384
18370TIP3   OH254986   8.356   8.338   0.839
18370TIP3    H154987   8.309   8.419   0.817
18370TIP3    H254988   8.441   8.347   0.797
18371TIP3   OH254989   8.778   8.598   1.031
18371TIP3    H154990   8.811   8.593   1.120
18371TIP3    H254991   8.838   8.657   0.986
18372TIP3   OH254992   8.953   8.763   0.895
18372TIP3    H154993   9.011   8.712   0.839
18372TIP3    H254994   9.012   8.814   0.951
18373TIP3   OH254995   9.780   7.077   0.969
18373TIP3    H154996   9.693   7.052   0.940
18373TIP3    H254997   9.830   6.995   0.966
18374TIP3   OH254998   8.051   8.601   0.896
18374TIP3    H154999   7.963   8.611   0.859
18374TIP3    H255000   8.037   8.572   0.986
18375TIP3   OH255001   8.281   8.596   0.756
18375TIP3    H155002   8.202   8.601   0.810
18375TIP3    H255003   8.252   8.620   0.668
18376TIP3   OH255004   8.667   8.628   0.561
18376TIP3    H155005   8.588   8.639   0.507
18376TIP3    H255006   8.677   8.712   0.607
18377TIP3   OH255007   8.930   8.559   0.528
18377TIP3    H155008   8.840   8.587   0.543
18377TIP3    H255009   8.932   8.534   0.435
18378TIP3   OH255010   9.272   8.744   0.522
18378TIP3    H155011   9.247   8.832   0.493
18378TIP3    H255012   9.259   8.689   0.445
18379TIP3   OH255013   7.938   8.395   0.584
18379TIP3    H155014   7.961   8.372   0.674
18379TIP3    H255015   8.009   8.360   0.531
18380TIP3   OH255016   8.151   8.267   0.473
18380TIP3    H155017   8.161   8.194   0.533
18380TIP3    H255018   8.236   8.312   0.476
18381TIP3   OH255019   8.418   8.361   0.501
18381TIP3    H155020   8.435   8.268   0.485
18381TIP3    H255021   8.467   8.381   0.580
18382TIP3   OH255022   8.998   7.024   0.565
18382TIP3    H155023   8.957   6.948   0.605
18382TIP3    H255024   9.064   6.987   0.506
18383TIP3   OH255025   9.475   6.930   0.497
18383TIP3    H155026   9.512   6.979   0.424
18383TIP3    H255027   9.380   6.944   0.490
18384TIP3   OH255028   9.589   6.996   0.257
18384TIP3    H155029   9.659   6.937   0.230
18384TIP3    H255030   9.625   7.084   0.245
18385TIP3   OH255031   8.211   6.689   0.509
18385TIP3    H155032   8.121   6.657   0.518
18385TIP3    H255033   8.266   6.612   0.527
18386TIP3   OH255034   8.018   6.592   0.227
18386TIP3    H155035   8.058   6.639   0.154
18386TIP3    H255036   7.996   6.661   0.290
18387TIP3   OH255037   8.656   6.769   0.476
18387TIP3    H155038   8.717   6.801   0.410
18387TIP3    H255039   8.654   6.837   0.543
18388TIP3   OH255040   9.200   6.886   0.442
18388TIP3    H155041   9.225   6.844   0.360
18388TIP3    H255042   9.199   6.816   0.506
18389TIP3   OH255043   9.230   6.859   0.036
18389TIP3    H155044   9.148   6.907   0.050
18389TIP3    H255045   9.214   6.773   0.074
18390TIP3   OH255046   4.432   3.566   8.002
18390TIP3    H155047   4.348   3.539   7.965
18390TIP3    H255048   4.439   3.659   7.979
18391TIP3   OH255049   8.147   6.736   0.019
18391TIP3    H155050   8.191   6.678  -0.043
18391TIP3    H255051   8.217   6.793   0.052
18392TIP3   OH255052   8.638   6.936   0.082
18392TIP3    H155053   8.693   6.883   0.141
18392TIP3    H255054   8.652   7.026   0.112
18393TIP3   OH255055   5.256   3.710   7.597
18393TIP3    H155056   5.338   3.739   7.556
18393TIP3    H255057   5.229   3.634   7.544
18394TIP3   OH255058   5.943   3.849   7.692
18394TIP3    H155059   5.929   3.755   7.704
18394TIP3    H255060   5.944   3.861   7.597
18395TIP3   OH255061   8.398   7.077   1.505
18395TIP3    H155062   8.386   7.001   1.562
18395TIP3    H255063   8.482   7.061   1.462
18396TIP3   OH255064   4.553   3.541   7.680
18396TIP3    H155065   4.553   3.543   7.776
18396TIP3    H255066   4.634   3.495   7.657
18397TIP3   OH255067   9.521   7.069   1.380
18397TIP3    H155068   9.538   7.038   1.470
18397TIP3    H255069   9.608   7.088   1.345
18398TIP3   OH255070   9.406   8.641   0.829
18398TIP3    H155071   9.387   8.591   0.908
18398TIP3    H255072   9.474   8.703   0.855
18399TIP3   OH255073   7.440   3.387   7.638
18399TIP3    H155074   7.409   3.473   7.611
18399TIP3    H255075   7.370   3.327   7.612
18400TIP3   OH255076   0.901   8.001   0.065
18400TIP3    H155077   0.955   7.980   0.141
18400TIP3    H255078   0.856   7.919   0.046
18401TIP3   OH255079   0.194   7.852   0.409
18401TIP3    H155080   0.234   7.802   0.480
18401TIP3    H255081   0.268   7.875   0.352
18402TIP3   OH255082   7.706   3.689   7.741
18402TIP3    H155083   7.692   3.620   7.806
18402TIP3    H255084   7.725   3.767   7.792
18403TIP3   OH255085   0.180   8.285   0.101
18403TIP3    H155086   0.168   8.190   0.098
18403TIP3    H255087   0.274   8.298   0.095
18404TIP3   OH255088   6.407   2.872   7.872
18404TIP3    H155089   6.366   2.955   7.898
18404TIP3    H255090   6.336   2.821   7.833
18405TIP3   OH255091   9.750   7.795   0.107
18405TIP3    H155092   9.799   7.717   0.132
18405TIP3    H255093   9.815   7.854   0.070
18406TIP3   OH255094   7.374   4.105   7.760
18406TIP3    H155095   7.393   4.045   7.688
18406TIP3    H255096   7.387   4.053   7.839
18407TIP3   OH255097   0.706   8.222   0.066
18407TIP3    H155098   0.752   8.142   0.039
18407TIP3    H255099   0.775   8.280   0.098
18408TIP3   OH255100   1.729   7.546   0.070
18408TIP3    H155101   1.739   7.634   0.106
18408TIP3    H255102   1.764   7.552  -0.019
18409TIP3   OH255103   1.113   7.704   0.101
18409TIP3    H155104   1.145   7.619   0.130
18409TIP3    H255105   1.078   7.688   0.013
18410TIP3   OH255106   0.473   7.360   0.057
18410TIP3    H155107   0.450   7.434  -0.000
18410TIP3    H255108   0.417   7.288   0.027
18411TIP3   OH255109   7.702   2.845   7.698
18411TIP3    H155110   7.765   2.839   7.770
18411TIP3    H255111   7.753   2.879   7.625
18412TIP3   OH255112   0.098   7.577   0.190
18412TIP3    H155113   0.182   7.558   0.232
18412TIP3    H255114   0.098   7.526   0.110
18413TIP3   OH255115   0.510   7.779   0.011
18413TIP3    H155116   0.605   7.764   0.016
18413TIP3    H255117   0.476   7.696  -0.023
18414TIP3   OH255118   1.780   7.772   0.233
18414TIP3    H155119   1.690   7.805   0.234
18414TIP3    H255120   1.817   7.802   0.316
18415TIP3   OH255121   0.444   7.371   0.518
18415TIP3    H155122   0.394   7.405   0.444
18415TIP3    H255123   0.388   7.386   0.594
18416TIP3   OH255124   7.338   3.605   7.501
18416TIP3    H155125   7.297   3.573   7.420
18416TIP3    H255126   7.284   3.679   7.527
18417TIP3   OH255127   0.540   8.143   0.273
18417TIP3    H155128   0.489   8.216   0.308
18417TIP3    H255129   0.591   8.181   0.201
18418TIP3   OH255130   7.857   2.869   7.921
18418TIP3    H155131   7.815   2.847   8.005
18418TIP3    H255132   7.912   2.945   7.942
18419TIP3   OH255133   0.347   7.474   0.279
18419TIP3    H155134   0.403   7.548   0.303
18419TIP3    H255135   0.394   7.431   0.208
18420TIP3   OH255136   0.390   8.350   0.381
18420TIP3    H155137   0.376   8.440   0.353
18420TIP3    H255138   0.312   8.328   0.433
18421TIP3   OH255139   6.308   3.429   7.646
18421TIP3    H155140   6.274   3.447   7.559
18421TIP3    H255141   6.331   3.515   7.681
18422TIP3   OH255142   7.736   3.936   7.884
18422TIP3    H155143   7.648   3.931   7.919
18422TIP3    H255144   7.738   4.019   7.836
18423TIP3   OH255145   1.535   7.433   0.245
18423TIP3    H155146   1.447   7.454   0.214
18423TIP3    H255147   1.593   7.461   0.174
18424TIP3   OH255148   0.792   7.061   0.248
18424TIP3    H155149   0.783   6.969   0.270
18424TIP3    H255150   0.715   7.103   0.287
18425TIP3   OH255151   7.446   3.969   7.528
18425TIP3    H155152   7.499   3.889   7.520
18425TIP3    H255153   7.504   4.040   7.501
18426TIP3   OH255154   7.586   3.739   7.497
18426TIP3    H155155   7.515   3.675   7.493
18426TIP3    H255156   7.637   3.714   7.574
18427TIP3   OH255157   1.449   8.430   0.218
18427TIP3    H155158   1.421   8.360   0.159
18427TIP3    H255159   1.437   8.510   0.168
18428TIP3   OH255160   7.265   3.224   7.493
18428TIP3    H155161   7.181   3.266   7.473
18428TIP3    H255162   7.311   3.222   7.408
18429TIP3   OH255163   7.234   3.036   7.176
18429TIP3    H155164   7.299   3.084   7.226
18429TIP3    H255165   7.283   2.965   7.134
18430TIP3   OH255166   1.601   8.097   0.077
18430TIP3    H155167   1.518   8.144   0.072
18430TIP3    H255168   1.640   8.109  -0.010
18431TIP3   OH255169   7.624   3.315   7.449
18431TIP3    H155170   7.571   3.343   7.523
18431TIP3    H255171   7.707   3.288   7.488
18432TIP3   OH255172   1.310   7.964   0.398
18432TIP3    H155173   1.301   8.045   0.448
18432TIP3    H255174   1.228   7.957   0.348
18433TIP3   OH255175   6.848   3.290   7.857
18433TIP3    H155176   6.811   3.228   7.793
18433TIP3    H255177   6.919   3.242   7.898
18434TIP3   OH255178   6.980   3.718   8.003
18434TIP3    H155179   6.954   3.702   7.912
18434TIP3    H255180   7.067   3.679   8.010
18435TIP3   OH255181   0.407   7.906   0.233
18435TIP3    H155182   0.446   7.868   0.155
18435TIP3    H255183   0.456   7.987   0.248
18436TIP3   OH255184   0.958   8.556   0.006
18436TIP3    H155185   0.952   8.634   0.062
18436TIP3    H255186   0.946   8.483   0.066
18437TIP3   OH255187   0.591   8.442   0.550
18437TIP3    H155188   0.530   8.499   0.597
18437TIP3    H255189   0.536   8.390   0.492
18438TIP3   OH255190   7.454   3.174   7.283
18438TIP3    H155191   7.514   3.232   7.330
18438TIP3    H255192   7.484   3.177   7.192
18439TIP3   OH255193   0.339   7.988   0.700
18439TIP3    H155194   0.343   8.081   0.719
18439TIP3    H255195   0.246   7.968   0.696
18440TIP3   OH255196   7.200   3.843   7.540
18440TIP3    H155197   7.281   3.894   7.544
18440TIP3    H255198   7.140   3.897   7.489
18441TIP3   OH255199   0.380   8.603   0.633
18441TIP3    H155200   0.358   8.614   0.541
18441TIP3    H255201   0.296   8.591   0.677
18442TIP3   OH255202   7.957   2.398   7.342
18442TIP3    H155203   7.882   2.420   7.397
18442TIP3    H255204   7.969   2.474   7.285
18443TIP3   OH255205   6.724   3.128   7.659
18443TIP3    H155206   6.646   3.174   7.630
18443TIP3    H255207   6.695   3.038   7.673
18444TIP3   OH255208   7.793   3.777   6.902
18444TIP3    H155209   7.786   3.869   6.879
18444TIP3    H255210   7.883   3.753   6.878
18445TIP3   OH255211   9.776   8.157   0.590
18445TIP3    H155212   9.709   8.138   0.524
18445TIP3    H255213   9.811   8.072   0.615
18446TIP3   OH255214   9.691   8.329   0.223
18446TIP3    H155215   9.773   8.301   0.181
18446TIP3    H255216   9.718   8.398   0.283
18447TIP3   OH255217   1.675   8.820   0.290
18447TIP3    H155218   1.681   8.725   0.297
18447TIP3    H255219   1.594   8.842   0.338
18448TIP3   OH255220   0.776   8.592   0.414
18448TIP3    H155221   0.765   8.682   0.446
18448TIP3    H255222   0.712   8.541   0.462
18449TIP3   OH255223   7.090   4.065   7.368
18449TIP3    H155224   7.043   4.043   7.287
18449TIP3    H255225   7.048   4.146   7.398
18450TIP3   OH255226   6.527   3.925   7.752
18450TIP3    H155227   6.574   3.918   7.835
18450TIP3    H255228   6.481   3.841   7.743
18451TIP3   OH255229   7.295   4.003   6.996
18451TIP3    H155230   7.346   3.929   6.961
18451TIP3    H255231   7.328   4.014   7.085
18452TIP3   OH255232   7.344   4.043   7.266
18452TIP3    H155233   7.256   4.047   7.304
18452TIP3    H255234   7.398   4.002   7.333
18453TIP3   OH255235   1.558   7.922   0.545
18453TIP3    H155236   1.471   7.933   0.505
18453TIP3    H255237   1.577   7.829   0.535
18454TIP3   OH255238   0.171   8.348   0.552
18454TIP3    H155239   0.225   8.335   0.630
18454TIP3    H255240   0.101   8.283   0.561
18455TIP3   OH255241   0.554   7.155   0.373
18455TIP3    H155242   0.471   7.120   0.340
18455TIP3    H255243   0.529   7.235   0.420
18456TIP3   OH255244   1.093   7.278   0.568
18456TIP3    H155245   1.164   7.253   0.626
18456TIP3    H255246   1.013   7.262   0.619
18457TIP3   OH255247   1.326   7.700   0.490
18457TIP3    H155248   1.274   7.691   0.569
18457TIP3    H255249   1.306   7.788   0.457
18458TIP3   OH255250   7.531   3.149   7.021
18458TIP3    H155251   7.487   3.150   6.936
18458TIP3    H255252   7.615   3.194   7.005
18459TIP3   OH255253   7.239   2.574   7.342
18459TIP3    H155254   7.202   2.581   7.430
18459TIP3    H255255   7.205   2.491   7.308
18460TIP3   OH255256   0.495   7.686   0.381
18460TIP3    H155257   0.449   7.690   0.465
18460TIP3    H255258   0.472   7.767   0.337
18461TIP3   OH255259   6.905   2.944   7.904
18461TIP3    H155260   6.816   2.919   7.929
18461TIP3    H255261   6.915   2.912   7.814
18462TIP3   OH255262   7.386   3.018   7.630
18462TIP3    H155263   7.339   3.092   7.589
18462TIP3    H255264   7.444   2.986   7.561
18463TIP3   OH255265   1.045   7.912   0.704
18463TIP3    H155266   1.015   7.846   0.766
18463TIP3    H255267   1.138   7.924   0.725
18464TIP3   OH255268   7.557   3.032   7.849
18464TIP3    H155269   7.487   3.051   7.786
18464TIP3    H255270   7.605   2.958   7.811
18465TIP3   OH255271   0.332   7.701   0.602
18465TIP3    H155272   0.346   7.764   0.672
18465TIP3    H255273   0.310   7.619   0.648
18466TIP3   OH255274   6.910   2.553   7.320
18466TIP3    H155275   6.901   2.557   7.415
18466TIP3    H255276   6.831   2.595   7.286
18467TIP3   OH255277   9.721   7.218   0.180
18467TIP3    H155278   9.797   7.252   0.226
18467TIP3    H255279   9.754   7.194   0.093
18468TIP3   OH255280   6.362   2.574   7.685
18468TIP3    H155281   6.404   2.607   7.606
18468TIP3    H255282   6.296   2.640   7.707
18469TIP3   OH255283   1.064   7.905   0.275
18469TIP3    H155284   1.088   7.838   0.211
18469TIP3    H255285   1.023   7.857   0.346
18470TIP3   OH255286   7.275   2.732   7.953
18470TIP3    H155287   7.197   2.730   8.007
18470TIP3    H255288   7.348   2.722   8.015
18471TIP3   OH255289   6.665   2.819   7.958
18471TIP3    H155290   6.577   2.824   7.920
18471TIP3    H255291   6.692   2.729   7.944
18472TIP3   OH255292   6.921   2.824   7.658
18472TIP3    H155293   7.016   2.832   7.648
18472TIP3    H255294   6.887   2.840   7.570
18473TIP3   OH255295   1.186   7.441   0.158
18473TIP3    H155296   1.170   7.459   0.250
18473TIP3    H255297   1.117   7.379   0.133
18474TIP3   OH255298   6.812   2.845   7.408
18474TIP3    H155299   6.750   2.795   7.356
18474TIP3    H255300   6.866   2.890   7.342
18475TIP3   OH255301   1.387   9.149   0.378
18475TIP3    H155302   1.385   9.159   0.283
18475TIP3    H255303   1.466   9.195   0.406
18476TIP3   OH255304   0.322   8.262   0.784
18476TIP3    H155305   0.403   8.277   0.833
18476TIP3    H255306   0.253   8.267   0.849
18477TIP3   OH255307   0.785   7.732   0.057
18477TIP3    H155308   0.851   7.681   0.010
18477TIP3    H255309   0.784   7.693   0.145
18478TIP3   OH255310   6.808   2.570   7.945
18478TIP3    H155311   6.781   2.495   7.999
18478TIP3    H255312   6.825   2.533   7.859
18479TIP3   OH255313   0.762   7.636   0.320
18479TIP3    H155314   0.676   7.667   0.347
18479TIP3    H255315   0.823   7.684   0.377
18480TIP3   OH255316   7.024   3.355   7.437
18480TIP3    H155317   6.950   3.300   7.413
18480TIP3    H255318   6.998   3.396   7.519
18481TIP3   OH255319   7.906   3.622   8.036
18481TIP3    H155320   7.942   3.669   7.961
18481TIP3    H255321   7.828   3.578   8.001
18482TIP3   OH255322   7.492   2.678   7.344
18482TIP3    H155323   7.399   2.656   7.342
18482TIP3    H255324   7.494   2.773   7.358
18483TIP3   OH255325   0.912   8.321   0.457
18483TIP3    H155326   0.962   8.301   0.536
18483TIP3    H255327   0.871   8.405   0.475
18484TIP3   OH255328   7.549   2.943   7.414
18484TIP3    H155329   7.644   2.946   7.424
18484TIP3    H255330   7.529   3.020   7.362
18485TIP3   OH255331   0.186   8.006   0.081
18485TIP3    H155332   0.223   7.981  -0.004
18485TIP3    H255333   0.248   7.971   0.145
18486TIP3   OH255334   7.179   3.519   7.284
18486TIP3    H155335   7.131   3.602   7.280
18486TIP3    H255336   7.122   3.461   7.335
18487TIP3   OH255337   0.063   7.923   0.722
18487TIP3    H155338   0.066   7.889   0.812
18487TIP3    H255339  -0.013   7.881   0.683
18488TIP3   OH255340   0.810   8.064   0.738
18488TIP3    H155341   0.742   8.002   0.713
18488TIP3    H255342   0.892   8.023   0.710
18489TIP3   OH255343   1.047   8.617   0.340
18489TIP3    H155344   0.953   8.599   0.342
18489TIP3    H255345   1.068   8.648   0.428
18490TIP3   OH255346   7.961   3.033   7.230
18490TIP3    H155347   7.902   2.989   7.169
18490TIP3    H255348   7.969   3.122   7.195
18491TIP3   OH255349   1.689   8.546   0.300
18491TIP3    H155350   1.599   8.515   0.309
18491TIP3    H255351   1.720   8.508   0.218
18492TIP3   OH255352   7.709   3.844   7.167
18492TIP3    H155353   7.681   3.773   7.225
18492TIP3    H255354   7.730   3.801   7.084
18493TIP3   OH255355   7.684   3.481   7.935
18493TIP3    H155356   7.595   3.458   7.961
18493TIP3    H255357   7.719   3.400   7.897
18494TIP3   OH255358   6.842   3.716   7.758
18494TIP3    H155359   6.842   3.792   7.701
18494TIP3    H255360   6.749   3.695   7.772
18495TIP3   OH255361   6.404   2.996   7.481
18495TIP3    H155362   6.446   3.080   7.502
18495TIP3    H255363   6.322   2.998   7.529
18496TIP3   OH255364   6.926   3.471   7.660
18496TIP3    H155365   6.913   3.560   7.693
18496TIP3    H255366   6.900   3.414   7.732
18497TIP3   OH255367   0.594   8.662   0.208
18497TIP3    H155368   0.632   8.734   0.159
18497TIP3    H255369   0.667   8.628   0.260
18498TIP3   OH255370   6.762   3.939   7.607
18498TIP3    H155371   6.675   3.948   7.645
18498TIP3    H255372   6.800   4.026   7.612
18499TIP3   OH255373   0.939   8.332   0.180
18499TIP3    H155374   0.929   8.327   0.275
18499TIP3    H255375   1.010   8.271   0.160
18500TIP3   OH255376   7.478   3.585   7.048
18500TIP3    H155377   7.528   3.558   7.126
18500TIP3    H255378   7.396   3.536   7.055
18501TIP3   OH255379   1.207   8.814   0.220
18501TIP3    H155380   1.139   8.752   0.246
18501TIP3    H255381   1.166   8.867   0.152
18502TIP3   OH255382   7.783   4.049   6.854
18502TIP3    H155383   7.798   4.108   6.781
18502TIP3    H255384   7.713   4.090   6.904
18503TIP3   OH255385   0.265   7.455   0.724
18503TIP3    H155386   0.171   7.466   0.733
18503TIP3    H255387   0.291   7.405   0.801
18504TIP3   OH255388   7.650   3.504   7.245
18504TIP3    H155389   7.633   3.448   7.321
18504TIP3    H255390   7.745   3.509   7.239
18505TIP3   OH255391   0.019   8.534   0.377
18505TIP3    H155392   0.074   8.475   0.428
18505TIP3    H255393   0.030   8.620   0.418
18506TIP3   OH255394   6.826   3.545   7.069
18506TIP3    H155395   6.834   3.454   7.042
18506TIP3    H255396   6.810   3.541   7.164
18507TIP3   OH255397   6.763   3.564   7.341
18507TIP3    H155398   6.827   3.538   7.408
18507TIP3    H255399   6.763   3.659   7.343
18508TIP3   OH255400   6.500   3.250   7.552
18508TIP3    H155401   6.436   3.299   7.603
18508TIP3    H255402   6.518   3.306   7.477
18509TIP3   OH255403   1.133   7.504   0.417
18509TIP3    H155404   1.206   7.550   0.458
18509TIP3    H255405   1.116   7.430   0.474
18510TIP3   OH255406   7.553   2.627   7.612
18510TIP3    H155407   7.532   2.645   7.521
18510TIP3    H255408   7.597   2.706   7.643
18511TIP3   OH255409   7.036   3.750   7.276
18511TIP3    H155410   6.950   3.773   7.312
18511TIP3    H255411   7.057   3.821   7.216
18512TIP3   OH255412   7.201   2.828   7.703
18512TIP3    H155413   7.262   2.896   7.677
18512TIP3    H255414   7.225   2.806   7.793
18513TIP3   OH255415   0.971   7.743   0.476
18513TIP3    H155416   0.996   7.785   0.559
18513TIP3    H255417   1.019   7.660   0.476
18514TIP3   OH255418   7.367   2.522   7.789
18514TIP3    H155419   7.343   2.599   7.840
18514TIP3    H255420   7.436   2.552   7.730
18515TIP3   OH255421   6.786   3.837   7.354
18515TIP3    H155422   6.769   3.910   7.294
18515TIP3    H255423   6.776   3.875   7.441
18516TIP3   OH255424   6.878   2.550   7.599
18516TIP3    H155425   6.866   2.640   7.627
18516TIP3    H255426   6.972   2.535   7.606
18517TIP3   OH255427   1.591   7.651   0.472
18517TIP3    H155428   1.497   7.655   0.487
18517TIP3    H255429   1.601   7.594   0.395
18518TIP3   OH255430   7.776   3.224   7.848
18518TIP3    H155431   7.700   3.166   7.857
18518TIP3    H255432   7.843   3.184   7.903
18519TIP3   OH255433   6.521   3.426   7.334
18519TIP3    H155434   6.593   3.489   7.340
18519TIP3    H255435   6.551   3.363   7.269
18520TIP3   OH255436   6.419   2.719   7.459
18520TIP3    H155437   6.433   2.813   7.472
18520TIP3    H255438   6.343   2.714   7.400
18521TIP3   OH255439   7.762   4.202   7.797
18521TIP3    H155440   7.720   4.256   7.729
18521TIP3    H255441   7.856   4.214   7.782
18522TIP3   OH255442   0.296   7.065   0.328
18522TIP3    H155443   0.266   7.033   0.243
18522TIP3    H255444   0.286   6.990   0.387
18523TIP3   OH255445   6.361   3.695   7.740
18523TIP3    H155446   6.321   3.728   7.820
18523TIP3    H255447   6.316   3.741   7.669
18524TIP3   OH255448   0.031   8.855   0.791
18524TIP3    H155449   0.109   8.870   0.845
18524TIP3    H255450   0.033   8.761   0.772
18525TIP3   OH255451   0.486   8.762   0.832
18525TIP3    H155452   0.576   8.731   0.845
18525TIP3    H255453   0.454   8.710   0.758
18526TIP3   OH255454   6.979   3.745   6.957
18526TIP3    H155455   6.931   3.676   7.001
18526TIP3    H255456   7.054   3.700   6.916
18527TIP3   OH255457   1.099   8.704   0.595
18527TIP3    H155458   1.115   8.632   0.657
18527TIP3    H255459   1.174   8.762   0.606
18528TIP3   OH255460   7.424   3.792   6.880
18528TIP3    H155461   7.458   3.727   6.941
18528TIP3    H255462   7.480   3.783   6.802
18529TIP3   OH255463   0.112   8.266   0.972
18529TIP3    H155464   0.144   8.177   0.988
18529TIP3    H255465   0.024   8.254   0.938
18530TIP3   OH255466   6.643   3.237   7.179
18530TIP3    H155467   6.695   3.212   7.256
18530TIP3    H255468   6.708   3.253   7.111
18531TIP3   OH255469   0.741   8.338   0.758
18531TIP3    H155470   0.698   8.358   0.675
18531TIP3    H255471   0.778   8.251   0.746
18532TIP3   OH255472   7.231   3.458   7.022
18532TIP3    H155473   7.204   3.469   7.113
18532TIP3    H255474   7.206   3.368   7.000
18533TIP3   OH255475   1.219   8.393   0.374
18533TIP3    H155476   1.297   8.418   0.324
18533TIP3    H255477   1.155   8.462   0.355
18534TIP3   OH255478   0.235   8.022   0.985
18534TIP3    H155479   0.305   7.978   0.936
18534TIP3    H255480   0.268   8.026   1.074
18535TIP3   OH255481   6.815   3.179   7.392
18535TIP3    H155482   6.794   3.148   7.480
18535TIP3    H255483   6.865   3.107   7.352
18536TIP3   OH255484   0.602   7.889   0.649
18536TIP3    H155485   0.515   7.927   0.660
18536TIP3    H255486   0.629   7.915   0.561
18537TIP3   OH255487   6.963   3.000   7.237
18537TIP3    H155488   6.931   3.006   7.147
18537TIP3    H255489   7.058   3.009   7.229
18538TIP3   OH255490   1.090   8.256   0.712
18538TIP3    H155491   1.163   8.221   0.660
18538TIP3    H255492   1.090   8.203   0.792
18539TIP3   OH255493   7.750   3.283   6.912
18539TIP3    H155494   7.739   3.243   6.826
18539TIP3    H255495   7.728   3.375   6.898
18540TIP3   OH255496   0.700   7.653   0.751
18540TIP3    H155497   0.702   7.584   0.685
18540TIP3    H255498   0.666   7.729   0.705
18541TIP3   OH255499   0.705   7.459   0.546
18541TIP3    H155500   0.731   7.494   0.460
18541TIP3    H255501   0.614   7.432   0.533
18542TIP3   OH255502   0.708   7.977   0.415
18542TIP3    H155503   0.797   8.008   0.402
18542TIP3    H255504   0.654   8.038   0.365
18543TIP3   OH255505   1.314   7.931   0.813
18543TIP3    H155506   1.342   7.844   0.841
18543TIP3    H255507   1.395   7.981   0.806
18544TIP3   OH255508   1.322   8.207   0.542
18544TIP3    H155509   1.272   8.272   0.491
18544TIP3    H255510   1.412   8.216   0.512
18545TIP3   OH255511   0.604   7.726   1.002
18545TIP3    H155512   0.533   7.665   1.026
18545TIP3    H255513   0.626   7.702   0.912
18546TIP3   OH255514   0.827   7.230   0.651
18546TIP3    H155515   0.786   7.309   0.616
18546TIP3    H255516   0.761   7.161   0.639
18547TIP3   OH255517   0.949   7.705   0.857
18547TIP3    H155518   0.941   7.688   0.951
18547TIP3    H255519   0.863   7.682   0.821
18548TIP3   OH255520   1.163   7.636   0.696
18548TIP3    H155521   1.089   7.645   0.756
18548TIP3    H255522   1.239   7.621   0.753
18549TIP3   OH255523   1.384   7.618   0.848
18549TIP3    H155524   1.412   7.527   0.857
18549TIP3    H255525   1.416   7.661   0.928
18550TIP3   OH255526   0.439   7.508   1.066
18550TIP3    H155527   0.439   7.421   1.027
18550TIP3    H255528   0.477   7.496   1.153
18551TIP3   OH255529   0.904   7.205   0.913
18551TIP3    H155530   0.967   7.134   0.897
18551TIP3    H255531   0.865   7.221   0.827
18552TIP3   OH255532   1.023   7.416   1.045
18552TIP3    H155533   0.984   7.347   0.991
18552TIP3    H255534   0.952   7.479   1.057
18553TIP3   OH255535   6.790   4.050   7.175
18553TIP3    H155536   6.877   4.027   7.141
18553TIP3    H255537   6.745   4.090   7.101
18554TIP3   OH255538   6.248   3.430   7.361
18554TIP3    H155539   6.342   3.439   7.351
18554TIP3    H255540   6.226   3.348   7.317
18555TIP3   OH255541   6.147   4.001   7.811
18555TIP3    H155542   6.087   3.945   7.761
18555TIP3    H255543   6.192   3.941   7.870
18556TIP3   OH255544   9.561   8.454  -0.020
18556TIP3    H155545   9.553   8.385   0.046
18556TIP3    H255546   9.617   8.520   0.022
18557TIP3   OH255547   8.032   4.256   7.783
18557TIP3    H155548   8.059   4.278   7.872
18557TIP3    H255549   8.100   4.293   7.728
18558TIP3   OH255550   1.525   8.895   0.063
18558TIP3    H155551   1.478   8.811   0.057
18558TIP3    H255552   1.592   8.879   0.129
18559TIP3   OH255553   1.554   8.612   0.614
18559TIP3    H155554   1.488   8.615   0.684
18559TIP3    H255555   1.604   8.692   0.624
18560TIP3   OH255556   7.928   3.498   7.243
18560TIP3    H155557   7.987   3.568   7.215
18560TIP3    H255558   7.973   3.459   7.318
18561TIP3   OH255559   8.054   3.354   7.444
18561TIP3    H155560   7.987   3.315   7.501
18561TIP3    H255561   8.119   3.389   7.505
18562TIP3   OH255562   8.099   3.751   7.877
18562TIP3    H155563   8.151   3.679   7.841
18562TIP3    H255564   8.106   3.821   7.813
18563TIP3   OH255565   1.381   8.656   0.073
18563TIP3    H155566   1.316   8.703   0.124
18563TIP3    H255567   1.332   8.616   0.001
18564TIP3   OH255568   7.959   3.271   7.090
18564TIP3    H155569   7.886   3.269   7.028
18564TIP3    H255570   7.944   3.350   7.142
18565TIP3   OH255571   7.802   2.923   7.040
18565TIP3    H155572   7.752   2.953   6.964
18565TIP3    H255573   7.799   2.827   7.033
18566TIP3   OH255574   7.851   3.214   7.580
18566TIP3    H155575   7.855   3.120   7.565
18566TIP3    H255576   7.830   3.223   7.673
18567TIP3   OH255577   9.734   7.908   0.355
18567TIP3    H155578   9.722   7.868   0.269
18567TIP3    H255579   9.827   7.896   0.374
18568TIP3   OH255580   1.568   8.250   0.426
18568TIP3    H155581   1.644   8.195   0.409
18568TIP3    H255582   1.555   8.298   0.344
18569TIP3   OH255583   1.770   8.056   0.437
18569TIP3    H155584   1.694   8.019   0.481
18569TIP3    H255585   1.840   7.993   0.452
18570TIP3   OH255586   7.770   2.653   7.011
18570TIP3    H155587   7.838   2.620   7.071
18570TIP3    H255588   7.690   2.609   7.039
18571TIP3   OH255589   7.842   2.938   7.469
18571TIP3    H155590   7.888   2.855   7.481
18571TIP3    H255591   7.882   2.977   7.391
18572TIP3   OH255592   1.456   7.724  -0.011
18572TIP3    H155593   1.538   7.742  -0.058
18572TIP3    H255594   1.468   7.765   0.075
18573TIP3   OH255595   1.520   7.875   0.217
18573TIP3    H155596   1.449   7.904   0.275
18573TIP3    H255597   1.547   7.954   0.171
18574TIP3   OH255598   0.188   7.614   1.037
18574TIP3    H155599   0.281   7.591   1.047
18574TIP3    H255600   0.143   7.530   1.034
18575TIP3   OH255601   7.958   2.689   7.521
18575TIP3    H155602   8.004   2.676   7.604
18575TIP3    H255603   7.897   2.617   7.515
18576TIP3   OH255604   0.137   7.291   0.341
18576TIP3    H155605   0.188   7.211   0.348
18576TIP3    H255606   0.201   7.359   0.321
18577TIP3   OH255607   9.721   7.552   0.411
18577TIP3    H155608   9.766   7.541   0.328
18577TIP3    H255609   9.766   7.625   0.453
18578TIP3   OH255610   1.854   7.595   0.541
18578TIP3    H155611   1.764   7.628   0.545
18578TIP3    H255612   1.845   7.502   0.522
18579TIP3   OH255613   8.001   2.597   7.159
18579TIP3    H155614   8.052   2.538   7.103
18579TIP3    H255615   8.054   2.677   7.164
18580TIP3   OH255616   6.437   2.457   7.920
18580TIP3    H155617   6.351   2.439   7.959
18580TIP3    H255618   6.418   2.505   7.840
18581TIP3   OH255619   7.591   4.173   7.430
18581TIP3    H155620   7.644   4.155   7.352
18581TIP3    H255621   7.640   4.240   7.478
18582TIP3   OH255622   0.123   7.111   0.726
18582TIP3    H155623   0.072   7.109   0.807
18582TIP3    H255624   0.068   7.160   0.665
18583TIP3   OH255625   0.152   8.588   0.796
18583TIP3    H155626   0.063   8.552   0.798
18583TIP3    H255627   0.186   8.570   0.884
18584TIP3   OH255628   0.364   8.626   0.354
18584TIP3    H155629   0.314   8.703   0.324
18584TIP3    H255630   0.449   8.634   0.310
18585TIP3   OH255631   0.754   8.857   0.497
18585TIP3    H155632   0.792   8.846   0.584
18585TIP3    H255633   0.817   8.910   0.449
18586TIP3   OH255634   0.944   9.007   0.366
18586TIP3    H155635   0.998   8.950   0.311
18586TIP3    H255636   1.007   9.060   0.415
18587TIP3   OH255637   1.725   7.363   0.443
18587TIP3    H155638   1.648   7.371   0.387
18587TIP3    H255639   1.749   7.270   0.436
18588TIP3   OH255640   9.815   8.871   0.398
18588TIP3    H155641   9.722   8.884   0.381
18588TIP3    H255642   9.837   8.938   0.464
18589TIP3   OH255643   0.252   8.859   0.257
18589TIP3    H155644   0.168   8.864   0.302
18589TIP3    H255645   0.232   8.880   0.166
18590TIP3   OH255646   0.671   8.874   0.048
18590TIP3    H155647   0.599   8.883  -0.014
18590TIP3    H255648   0.679   8.961   0.089
18591TIP3   OH255649   0.937   8.819   0.100
18591TIP3    H155650   0.845   8.834   0.077
18591TIP3    H255651   0.985   8.883   0.048
18592TIP3   OH255652   7.676   4.367   8.000
18592TIP3    H155653   7.671   4.452   7.956
18592TIP3    H255654   7.705   4.307   7.931
18593TIP3   OH255655   9.733   8.634   0.125
18593TIP3    H155656   9.760   8.608   0.213
18593TIP3    H255657   9.806   8.607   0.069
18594TIP3   OH255658   6.674   3.912   7.985
18594TIP3    H155659   6.685   3.826   8.025
18594TIP3    H255660   6.761   3.951   7.987
18595TIP3   OH255661   0.409   8.615   0.006
18595TIP3    H155662   0.427   8.522  -0.011
18595TIP3    H255663   0.465   8.637   0.080
18596TIP3   OH255664   0.968   7.260   0.094
18596TIP3    H155665   0.928   7.189   0.145
18596TIP3    H255666   1.035   7.217   0.041
18597TIP3   OH255667   7.994   2.570   7.982
18597TIP3    H155668   8.031   2.618   7.908
18597TIP3    H255669   7.900   2.589   7.979
18598TIP3   OH255670   8.114   2.638   7.744
18598TIP3    H155671   8.181   2.576   7.717
18598TIP3    H255672   8.154   2.724   7.731
18599TIP3   OH255673   0.207   6.963   0.088
18599TIP3    H155674   0.118   6.929   0.099
18599TIP3    H255675   0.261   6.885   0.078
18600TIP3   OH255676   6.576   2.264   7.759
18600TIP3    H155677   6.594   2.310   7.677
18600TIP3    H255678   6.536   2.330   7.815
18601TIP3   OH255679   7.224   2.381   7.988
18601TIP3    H155680   7.272   2.427   7.920
18601TIP3    H255681   7.264   2.411   8.070
18602TIP3   OH255682   7.710   2.520   7.961
18602TIP3    H155683   7.726   2.485   7.873
18602TIP3    H255684   7.720   2.444   8.018
18603TIP3   OH255685   7.774   2.478   7.532
18603TIP3    H155686   7.694   2.524   7.556
18603TIP3    H255687   7.765   2.391   7.570
18604TIP3   OH255688   6.241   3.832   7.539
18604TIP3    H155689   6.168   3.790   7.494
18604TIP3    H255690   6.244   3.921   7.503
18605TIP3   OH255691   6.670   2.381   7.508
18605TIP3    H155692   6.716   2.317   7.453
18605TIP3    H255693   6.740   2.436   7.543
18606TIP3   OH255694   7.153   2.576   7.605
18606TIP3    H155695   7.211   2.522   7.659
18606TIP3    H255696   7.169   2.666   7.635
18607TIP3   OH255697   7.041   3.969   7.097
18607TIP3    H155698   7.124   3.996   7.059
18607TIP3    H255699   7.010   3.898   7.041
18608TIP3   OH255700   7.740   4.114   7.202
18608TIP3    H155701   7.734   4.018   7.196
18608TIP3    H255702   7.697   4.145   7.123
18609TIP3   OH255703   0.440   7.241   0.971
18609TIP3    H155704   0.402   7.176   1.030
18609TIP3    H255705   0.531   7.248   0.997
18610TIP3   OH255706   0.685   7.255   1.098
18610TIP3    H155707   0.765   7.231   1.052
18610TIP3    H255708   0.674   7.187   1.164
18611TIP3   OH255709   6.371   3.841   7.148
18611TIP3    H155710   6.389   3.856   7.241
18611TIP3    H255711   6.444   3.786   7.118
18612TIP3   OH255712   1.467   7.357   0.884
18612TIP3    H155713   1.482   7.332   0.975
18612TIP3    H255714   1.555   7.368   0.847
18613TIP3   OH255715   1.423   8.876   0.386
18613TIP3    H155716   1.350   8.844   0.332
18613TIP3    H255717   1.408   8.970   0.393
18614TIP3   OH255718   9.206   3.646   7.154
18614TIP3    H155719   9.180   3.732   7.121
18614TIP3    H255720   9.137   3.587   7.124
18615TIP3   OH255721   9.203   3.626   7.537
18615TIP3    H155722   9.241   3.606   7.623
18615TIP3    H255723   9.170   3.541   7.506
18616TIP3   OH255724   8.527   3.489   7.888
18616TIP3    H155725   8.568   3.447   7.964
18616TIP3    H255726   8.600   3.517   7.833
18617TIP3   OH255727   9.485   3.941   7.211
18617TIP3    H155728   9.467   3.872   7.275
18617TIP3    H255729   9.508   4.017   7.265
18618TIP3   OH255730   8.517   3.923   7.587
18618TIP3    H155731   8.502   3.828   7.589
18618TIP3    H255732   8.612   3.931   7.576
18619TIP3   OH255733   8.201   3.126   7.363
18619TIP3    H155734   8.162   3.210   7.386
18619TIP3    H255735   8.129   3.077   7.322
18620TIP3   OH255736   8.282   3.438   7.587
18620TIP3    H155737   8.331   3.359   7.612
18620TIP3    H255738   8.350   3.500   7.559
18621TIP3   OH255739   9.170   4.356   7.248
18621TIP3    H155740   9.193   4.298   7.176
18621TIP3    H255741   9.184   4.303   7.327
18622TIP3   OH255742   9.025   3.844   7.568
18622TIP3    H155743   9.069   3.765   7.535
18622TIP3    H255744   9.096   3.904   7.588
18623TIP3   OH255745   9.405   3.353   7.606
18623TIP3    H155746   9.430   3.265   7.636
18623TIP3    H255747   9.369   3.339   7.518
18624TIP3   OH255748   8.780   3.007   7.559
18624TIP3    H155749   8.765   3.077   7.494
18624TIP3    H255750   8.732   2.932   7.524
18625TIP3   OH255751   9.479   3.100   7.198
18625TIP3    H155752   9.551   3.090   7.260
18625TIP3    H255753   9.521   3.138   7.120
18626TIP3   OH255754   8.419   3.216   7.678
18626TIP3    H155755   8.503   3.202   7.722
18626TIP3    H255756   8.425   3.164   7.598
18627TIP3   OH255757   8.831   3.416   7.495
18627TIP3    H155758   8.925   3.400   7.496
18627TIP3    H255759   8.793   3.335   7.461
18628TIP3   OH255760   2.235   7.655   0.018
18628TIP3    H155761   2.187   7.692  -0.057
18628TIP3    H255762   2.171   7.652   0.089
18629TIP3   OH255763   9.109   3.855   7.002
18629TIP3    H155764   9.077   3.830   6.916
18629TIP3    H255765   9.064   3.937   7.021
18630TIP3   OH255766   8.909   3.754   7.806
18630TIP3    H155767   8.850   3.823   7.836
18630TIP3    H255768   8.951   3.790   7.728
18631TIP3   OH255769   9.681   3.099   7.379
18631TIP3    H155770   9.665   3.032   7.446
18631TIP3    H255771   9.720   3.172   7.426
18632TIP3   OH255772   8.666   3.125   7.779
18632TIP3    H155773   8.727   3.197   7.797
18632TIP3    H255774   8.707   3.077   7.707
18633TIP3   OH255775   8.733   3.968   7.877
18633TIP3    H155776   8.719   4.054   7.837
18633TIP3    H255777   8.651   3.949   7.924
18634TIP3   OH255778   8.100   3.688   7.127
18634TIP3    H155779   8.066   3.706   7.039
18634TIP3    H255780   8.123   3.775   7.161
18635TIP3   OH255781   9.514   4.182   7.365
18635TIP3    H155782   9.424   4.175   7.398
18635TIP3    H255783   9.515   4.264   7.315
18636TIP3   OH255784   9.249   4.226   7.014
18636TIP3    H155785   9.302   4.147   7.001
18636TIP3    H255786   9.309   4.298   6.994
18637TIP3   OH255787   9.400   4.005   6.954
18637TIP3    H155788   9.361   3.925   6.920
18637TIP3    H255789   9.436   3.980   7.039
18638TIP3   OH255790   9.742   4.070   7.710
18638TIP3    H155791   9.727   3.997   7.650
18638TIP3    H255792   9.736   4.148   7.654
18639TIP3   OH255793   9.043   3.483   6.993
18639TIP3    H155794   8.962   3.528   6.969
18639TIP3    H255795   9.090   3.472   6.910
18640TIP3   OH255796   9.017   3.286   6.659
18640TIP3    H155797   9.078   3.332   6.715
18640TIP3    H255798   9.070   3.221   6.612
18641TIP3   OH255799   0.071   3.676   7.507
18641TIP3    H155800   0.003   3.743   7.516
18641TIP3    H255801   0.153   3.722   7.525
18642TIP3   OH255802   9.378   3.560   6.962
18642TIP3    H155803   9.328   3.590   7.038
18642TIP3    H255804   9.462   3.531   6.998
18643TIP3   OH255805   9.567   3.609   7.879
18643TIP3    H155806   9.616   3.683   7.915
18643TIP3    H255807   9.629   3.567   7.820
18644TIP3   OH255808   8.639   3.548   7.341
18644TIP3    H155809   8.604   3.487   7.276
18644TIP3    H255810   8.711   3.501   7.382
18645TIP3   OH255811   8.779   3.971   7.493
18645TIP3    H155812   8.761   3.955   7.400
18645TIP3    H255813   8.863   3.927   7.508
18646TIP3   OH255814   8.746   3.544   7.724
18646TIP3    H155815   8.781   3.509   7.642
18646TIP3    H255816   8.805   3.616   7.747
18647TIP3   OH255817   9.266   4.183   7.479
18647TIP3    H155818   9.260   4.260   7.535
18647TIP3    H255819   9.259   4.108   7.539
18648TIP3   OH255820   2.385   8.701   0.048
18648TIP3    H155821   2.321   8.757   0.091
18648TIP3    H255822   2.333   8.645  -0.010
18649TIP3   OH255823   9.224   3.421   6.787
18649TIP3    H155824   9.283   3.477   6.837
18649TIP3    H255825   9.250   3.434   6.696
18650TIP3   OH255826   2.103   8.235   0.187
18650TIP3    H155827   2.121   8.326   0.211
18650TIP3    H255828   2.008   8.227   0.191
18651TIP3   OH255829   8.996   4.108   7.027
18651TIP3    H155830   9.080   4.154   7.032
18651TIP3    H255831   8.938   4.169   6.980
18652TIP3   OH255832   2.172   8.858   0.119
18652TIP3    H155833   2.148   8.862   0.027
18652TIP3    H255834   2.089   8.844   0.165
18653TIP3   OH255835   9.780   2.652   6.872
18653TIP3    H155836   9.694   2.666   6.911
18653TIP3    H255837   9.778   2.700   6.790
18654TIP3   OH255838   8.519   3.385   7.142
18654TIP3    H155839   8.439   3.429   7.113
18654TIP3    H255840   8.493   3.294   7.157
18655TIP3   OH255841   9.485   4.058   6.396
18655TIP3    H155842   9.504   4.149   6.372
18655TIP3    H255843   9.570   4.020   6.418
18656TIP3   OH255844   1.764   8.421   0.069
18656TIP3    H155845   1.694   8.401   0.008
18656TIP3    H255846   1.794   8.336   0.101
18657TIP3   OH255847   8.170   3.974   7.719
18657TIP3    H155848   8.265   3.976   7.712
18657TIP3    H255849   8.147   4.051   7.770
18658TIP3   OH255850   0.153   4.475   7.768
18658TIP3    H155851   0.191   4.388   7.779
18658TIP3    H255852   0.072   4.472   7.819
18659TIP3   OH255853   9.099   4.231   7.908
18659TIP3    H155854   9.090   4.322   7.934
18659TIP3    H255855   9.033   4.185   7.960
18660TIP3   OH255856   8.879   4.320   6.861
18660TIP3    H155857   8.834   4.298   6.780
18660TIP3    H255858   8.841   4.404   6.888
18661TIP3   OH255859   8.320   4.181   7.238
18661TIP3    H155860   8.365   4.171   7.322
18661TIP3    H255861   8.271   4.099   7.227
18662TIP3   OH255862   9.076   4.278   6.493
18662TIP3    H155863   9.117   4.199   6.459
18662TIP3    H255864   9.114   4.290   6.580
18663TIP3   OH255865   9.134   4.298   6.764
18663TIP3    H155866   9.046   4.300   6.800
18663TIP3    H255867   9.188   4.260   6.834
18664TIP3   OH255868   1.966   8.605   0.029
18664TIP3    H155869   2.017   8.590   0.109
18664TIP3    H255870   1.893   8.542   0.036
18665TIP3   OH255871   8.859   2.816   7.878
18665TIP3    H155872   8.781   2.786   7.830
18665TIP3    H255873   8.829   2.893   7.926
18666TIP3   OH255874   9.288   3.436   6.527
18666TIP3    H155875   9.243   3.411   6.447
18666TIP3    H255876   9.365   3.485   6.497
18667TIP3   OH255877   9.043   2.815   6.847
18667TIP3    H155878   9.005   2.823   6.935
18667TIP3    H255879   9.000   2.739   6.808
18668TIP3   OH255880   8.840   3.325   7.873
18668TIP3    H155881   8.794   3.332   7.957
18668TIP3    H255882   8.814   3.403   7.824
18669TIP3   OH255883   8.694   3.203   7.384
18669TIP3    H155884   8.606   3.175   7.409
18669TIP3    H255885   8.706   3.169   7.296
18670TIP3   OH255886   9.170   3.278   7.124
18670TIP3    H155887   9.123   3.351   7.084
18670TIP3    H255888   9.223   3.242   7.052
18671TIP3   OH255889   9.342   3.292   7.340
18671TIP3    H155890   9.270   3.309   7.279
18671TIP3    H255891   9.384   3.213   7.307
18672TIP3   OH255892   2.145   7.983   0.090
18672TIP3    H155893   2.144   8.068   0.135
18672TIP3    H255894   2.117   7.921   0.157
18673TIP3   OH255895   8.717   2.818   6.787
18673TIP3    H155896   8.706   2.822   6.882
18673TIP3    H255897   8.636   2.856   6.752
18674TIP3   OH255898   8.251   2.858   7.670
18674TIP3    H155899   8.321   2.898   7.722
18674TIP3    H255900   8.291   2.843   7.584
18675TIP3   OH255901   8.147   2.834   7.173
18675TIP3    H155902   8.195   2.870   7.099
18675TIP3    H255903   8.083   2.901   7.196
18676TIP3   OH255904   9.315   3.542   7.782
18676TIP3    H155905   9.342   3.470   7.726
18676TIP3    H255906   9.397   3.573   7.822
18677TIP3   OH255907   9.052   3.059   7.466
18677TIP3    H155908   8.978   3.029   7.519
18677TIP3    H255909   9.123   2.999   7.489
18678TIP3   OH255910   8.459   3.075   7.447
18678TIP3    H155911   8.371   3.079   7.408
18678TIP3    H255912   8.489   2.986   7.429
18679TIP3   OH255913   8.710   3.079   7.139
18679TIP3    H155914   8.805   3.087   7.134
18679TIP3    H255915   8.680   3.095   7.049
18680TIP3   OH255916   9.406   3.090   7.685
18680TIP3    H155917   9.311   3.101   7.689
18680TIP3    H255918   9.418   3.008   7.638
18681TIP3   OH255919   8.605   3.098   6.885
18681TIP3    H155920   8.544   3.045   6.833
18681TIP3    H255921   8.657   3.145   6.820
18682TIP3   OH255922   9.708   4.786   7.863
18682TIP3    H155923   9.710   4.805   7.769
18682TIP3    H255924   9.779   4.837   7.900
18683TIP3   OH255925   2.109   8.515   0.260
18683TIP3    H155926   2.192   8.532   0.304
18683TIP3    H255927   2.043   8.524   0.329
18684TIP3   OH255928   9.098   3.351   7.525
18684TIP3    H155929   9.117   3.274   7.472
18684TIP3    H255930   9.104   3.320   7.616
18685TIP3   OH255931   8.600   2.830   7.427
18685TIP3    H155932   8.570   2.754   7.477
18685TIP3    H255933   8.630   2.794   7.344
18686TIP3   OH255934   9.098   3.253   7.785
18686TIP3    H155935   9.012   3.274   7.820
18686TIP3    H255936   9.158   3.263   7.859
18687TIP3   OH255937   8.811   3.617   6.919
18687TIP3    H155938   8.737   3.560   6.896
18687TIP3    H255939   8.784   3.656   7.002
18688TIP3   OH255940   9.678   3.872   7.525
18688TIP3    H155941   9.723   3.914   7.452
18688TIP3    H255942   9.599   3.835   7.487
18689TIP3   OH255943   9.287   2.929   6.823
18689TIP3    H155944   9.196   2.899   6.826
18689TIP3    H255945   9.282   3.023   6.834
18690TIP3   OH255946   9.226   3.978   7.926
18690TIP3    H155947   9.288   3.990   7.997
18690TIP3    H255948   9.178   4.060   7.921
18691TIP3   OH255949   9.325   3.191   6.907
18691TIP3    H155950   9.419   3.200   6.918
18691TIP3    H255951   9.299   3.267   6.854
18692TIP3   OH255952   8.517   3.637   7.572
18692TIP3    H155953   8.552   3.616   7.486
18692TIP3    H255954   8.583   3.606   7.634
18693TIP3   OH255955   8.972   3.773   6.767
18693TIP3    H155956   8.925   3.857   6.764
18693TIP3    H255957   8.916   3.716   6.819
18694TIP3   OH255958   1.830   8.185   0.203
18694TIP3    H155959   1.828   8.149   0.292
18694TIP3    H255960   1.759   8.140   0.157
18695TIP3   OH255961   9.371   4.248   7.837
18695TIP3    H155962   9.275   4.244   7.846
18695TIP3    H255963   9.400   4.291   7.918
18696TIP3   OH255964   9.726   3.291   6.739
18696TIP3    H155965   9.668   3.239   6.683
18696TIP3    H255966   9.721   3.380   6.704
18697TIP3   OH255967   0.170   4.159   7.843
18697TIP3    H155968   0.083   4.134   7.812
18697TIP3    H255969   0.230   4.113   7.783
18698TIP3   OH255970   9.510   4.092   6.691
18698TIP3    H155971   9.455   4.053   6.759
18698TIP3    H255972   9.476   4.056   6.609
18699TIP3   OH255973   9.455   3.736   7.417
18699TIP3    H155974   9.364   3.714   7.437
18699TIP3    H255975   9.494   3.652   7.389
18700TIP3   OH255976   8.642   3.975   7.245
18700TIP3    H155977   8.641   4.051   7.187
18700TIP3    H255978   8.551   3.961   7.268
18701TIP3   OH255979   8.192   3.255   6.943
18701TIP3    H155980   8.238   3.335   6.968
18701TIP3    H255981   8.112   3.255   6.996
18702TIP3   OH255982   8.715   3.730   7.144
18702TIP3    H155983   8.705   3.819   7.178
18702TIP3    H255984   8.690   3.673   7.217
18703TIP3   OH255985   8.922   4.297   7.695
18703TIP3    H155986   8.956   4.372   7.646
18703TIP3    H255987   8.997   4.266   7.745
18704TIP3   OH255988   8.555   4.197   7.094
18704TIP3    H155989   8.468   4.203   7.133
18704TIP3    H255990   8.590   4.286   7.100
18705TIP3   OH255991   9.265   3.961   7.652
18705TIP3    H155992   9.256   3.960   7.748
18705TIP3    H255993   9.338   3.902   7.634
18706TIP3   OH255994   9.240   3.840   6.557
18706TIP3    H155995   9.276   3.820   6.643
18706TIP3    H255996   9.156   3.793   6.554
18707TIP3   OH255997   9.503   4.467   7.709
18707TIP3    H155998   9.433   4.402   7.718
18707TIP3    H255999   9.479   4.516   7.630
18708TIP3   OH256000   9.547   4.322   6.360
18708TIP3    H156001   9.593   4.393   6.315
18708TIP3    H256002   9.470   4.363   6.398
18709TIP3   OH256003   2.032   7.655   0.200
18709TIP3    H156004   1.950   7.704   0.202
18709TIP3    H256005   2.007   7.565   0.216
18710TIP3   OH256006   9.369   3.776   6.790
18710TIP3    H156007   9.346   3.705   6.850
18710TIP3    H256008   9.464   3.772   6.784
18711TIP3   OH256009   8.350   4.190   7.866
18711TIP3    H156010   8.403   4.127   7.914
18711TIP3    H256011   8.367   4.274   7.908
18712TIP3   OH256012   8.615   3.807   6.559
18712TIP3    H156013   8.627   3.717   6.531
18712TIP3    H256014   8.603   3.802   6.654
18713TIP3   OH256015   8.561   3.820   6.832
18713TIP3    H156016   8.628   3.794   6.895
18713TIP3    H256017   8.561   3.916   6.836
18714TIP3   OH256018   8.291   3.503   7.035
18714TIP3    H156019   8.227   3.552   7.087
18714TIP3    H256020   8.313   3.562   6.963
18715TIP3   OH256021   9.363   3.156   7.948
18715TIP3    H156022   9.402   3.141   7.862
18715TIP3    H256023   9.346   3.068   7.982
18716TIP3   OH256024   9.340   2.886   7.093
18716TIP3    H156025   9.318   2.912   7.003
18716TIP3    H256026   9.377   2.965   7.132
18717TIP3   OH256027   8.828   4.002   6.763
18717TIP3    H156028   8.745   4.028   6.802
18717TIP3    H256029   8.852   4.076   6.706
18718TIP3   OH256030   8.985   3.088   7.199
18718TIP3    H156031   9.048   3.154   7.169
18718TIP3    H256032   9.006   3.077   7.292
18719TIP3   OH256033   2.770   8.002   0.078
18719TIP3    H156034   2.851   8.017   0.128
18719TIP3    H256035   2.788   7.924   0.026
18720TIP3   OH256036   9.172   2.760   7.268
18720TIP3    H156037   9.205   2.789   7.353
18720TIP3    H256038   9.228   2.804   7.204
18721TIP3   OH256039   8.581   4.094   6.842
18721TIP3    H156040   8.559   4.166   6.783
18721TIP3    H256041   8.571   4.131   6.929
18722TIP3   OH256042   8.680   2.805   7.068
18722TIP3    H156043   8.665   2.895   7.099
18722TIP3    H256044   8.773   2.790   7.083
18723TIP3   OH256045   9.552   3.472   7.357
18723TIP3    H156046   9.472   3.419   7.354
18723TIP3    H256047   9.605   3.431   7.424
18724TIP3   OH256048   8.320   3.684   6.822
18724TIP3    H156049   8.393   3.745   6.832
18724TIP3    H256050   8.350   3.621   6.756
18725TIP3   OH256051   8.233   2.978   6.959
18725TIP3    H156052   8.233   3.074   6.958
18725TIP3    H256053   8.217   2.953   6.868
18726TIP3   OH256054   9.527   4.444   7.270
18726TIP3    H156055   9.480   4.505   7.212
18726TIP3    H256056   9.619   4.468   7.260
18727TIP3   OH256057   8.606   2.712   7.810
18727TIP3    H156058   8.582   2.680   7.723
18727TIP3    H256059   8.606   2.633   7.865
18728TIP3   OH256060   8.145   3.961   7.209
18728TIP3    H156061   8.098   3.993   7.285
18728TIP3    H256062   8.101   4.002   7.134
18729TIP3   OH256063   1.811   9.113   0.280
18729TIP3    H156064   1.895   9.114   0.324
18729TIP3    H256065   1.787   9.021   0.273
18730TIP3   OH256066   2.282   9.022   0.310
18730TIP3    H156067   2.371   8.989   0.320
18730TIP3    H256068   2.245   8.969   0.239
18731TIP3   OH256069   8.769   4.006   6.446
18731TIP3    H156070   8.721   3.937   6.492
18731TIP3    H256071   8.841   3.960   6.403
18732TIP3   OH256072   2.914   8.968   0.080
18732TIP3    H156073   2.899   8.894   0.139
18732TIP3    H256074   2.997   9.005   0.108
18733TIP3   OH256075   9.181   4.052   6.391
18733TIP3    H156076   9.220   3.989   6.452
18733TIP3    H256077   9.239   4.051   6.315
18734TIP3   OH256078   1.913   8.537   0.460
18734TIP3    H156079   1.932   8.446   0.479
18734TIP3    H256080   1.828   8.535   0.416
18735TIP3   OH256081   8.436   3.496   6.662
18735TIP3    H156082   8.486   3.468   6.738
18735TIP3    H256083   8.502   3.512   6.594
18736TIP3   OH256084   2.549   8.603   0.246
18736TIP3    H156085   2.501   8.625   0.166
18736TIP3    H256086   2.630   8.564   0.215
18737TIP3   OH256087   8.997   3.712   6.501
18737TIP3    H156088   8.976   3.720   6.594
18737TIP3    H256089   8.980   3.620   6.480
18738TIP3   OH256090   9.540   4.028   7.889
18738TIP3    H156091   9.610   4.047   7.827
18738TIP3    H256092   9.473   4.095   7.870
18739TIP3   OH256093   2.006   8.286   0.499
18739TIP3    H156094   2.013   8.191   0.484
18739TIP3    H256095   2.058   8.301   0.578
18740TIP3   OH256096   8.607   3.435   6.873
18740TIP3    H156097   8.590   3.402   6.962
18740TIP3    H256098   8.655   3.364   6.830
18741TIP3   OH256099   8.745   3.256   6.710
18741TIP3    H156100   8.714   3.260   6.619
18741TIP3    H256101   8.840   3.260   6.703
18742TIP3   OH256102   2.810   8.508   0.182
18742TIP3    H156103   2.816   8.440   0.115
18742TIP3    H256104   2.899   8.518   0.215
18743TIP3   OH256105   9.493   3.567   6.404
18743TIP3    H156106   9.481   3.517   6.323
18743TIP3    H256107   9.463   3.655   6.382
18744TIP3   OH256108   2.505   7.703   0.033
18744TIP3    H156109   2.533   7.695  -0.059
18744TIP3    H256110   2.410   7.698   0.029
18745TIP3   OH256111   9.101   3.585   7.956
18745TIP3    H156112   9.167   3.576   7.888
18745TIP3    H256113   9.035   3.642   7.918
18746TIP3   OH256114   9.706   3.842   7.999
18746TIP3    H156115   9.641   3.902   7.963
18746TIP3    H256116   9.787   3.861   7.951
18747TIP3   OH256117   2.322   7.995   0.457
18747TIP3    H156118   2.264   8.038   0.519
18747TIP3    H256119   2.270   7.923   0.421
18748TIP3   OH256120   2.497   7.473   0.185
18748TIP3    H156121   2.517   7.539   0.118
18748TIP3    H256122   2.486   7.392   0.136
18749TIP3   OH256123   2.192   7.757   0.421
18749TIP3    H156124   2.174   7.692   0.353
18749TIP3    H256125   2.216   7.705   0.498
18750TIP3   OH256126   8.576   4.309   6.664
18750TIP3    H156127   8.664   4.283   6.637
18750TIP3    H256128   8.538   4.352   6.587
18751TIP3   OH256129   8.047   3.688   6.835
18751TIP3    H156130   8.142   3.696   6.833
18751TIP3    H256131   8.029   3.603   6.796
18752TIP3   OH256132   7.943   4.268   7.302
18752TIP3    H156133   7.880   4.213   7.255
18752TIP3    H256134   7.989   4.208   7.361
18753TIP3   OH256135   8.089   4.100   7.467
18753TIP3    H156136   8.082   4.029   7.530
18753TIP3    H256137   8.142   4.167   7.513
18754TIP3   OH256138  -0.012   4.516   7.262
18754TIP3    H156139   0.008   4.544   7.351
18754TIP3    H256140   0.066   4.539   7.211
18755TIP3   OH256141   0.003   4.543   7.535
18755TIP3    H156142  -0.034   4.456   7.544
18755TIP3    H256143   0.084   4.540   7.586
18756TIP3   OH256144   9.639   3.734   6.804
18756TIP3    H156145   9.708   3.782   6.759
18756TIP3    H256146   9.677   3.710   6.889
18757TIP3   OH256147   9.806   3.622   7.000
18757TIP3    H156148   9.731   3.575   7.038
18757TIP3    H256149   9.855   3.653   7.076
18758TIP3   OH256150   0.058   3.983   7.350
18758TIP3    H156151   0.099   3.941   7.274
18758TIP3    H256152   0.037   4.071   7.321
18759TIP3   OH256153   9.679   4.296   7.561
18759TIP3    H156154   9.610   4.337   7.613
18759TIP3    H256155   9.633   4.252   7.489
18760TIP3   OH256156   9.669   3.527   6.613
18760TIP3    H156157   9.598   3.546   6.551
18760TIP3    H256158   9.663   3.597   6.678
18761TIP3   OH256159   9.590   3.157   6.553
18761TIP3    H156160   9.589   3.195   6.465
18761TIP3    H256161   9.575   3.064   6.539
18762TIP3   OH256162   9.602   3.457   7.082
18762TIP3    H156163   9.609   3.363   7.067
18762TIP3    H256164   9.597   3.466   7.177
18763TIP3   OH256165   8.262   3.529   7.843
18763TIP3    H156166   8.253   3.498   7.753
18763TIP3    H256167   8.356   3.525   7.860
18764TIP3   OH256168   9.569   2.888   6.502
18764TIP3    H156169   9.624   2.836   6.559
18764TIP3    H256170   9.480   2.855   6.516
18765TIP3   OH256171   9.605   3.192   6.968
18765TIP3    H156172   9.645   3.105   6.979
18765TIP3    H256173   9.649   3.229   6.891
18766TIP3   OH256174  -0.010   3.334   7.498
18766TIP3    H156175   0.077   3.297   7.512
18766TIP3    H256176  -0.030   3.380   7.579
18767TIP3   OH256177  -0.023   3.517   7.714
18767TIP3    H156178   0.057   3.518   7.768
18767TIP3    H256179  -0.001   3.574   7.639
18768TIP3   OH256180   1.934   7.842   0.460
18768TIP3    H156181   2.028   7.833   0.448
18768TIP3    H256182   1.908   7.762   0.506
18769TIP3   OH256183   9.706   2.938   7.009
18769TIP3    H156184   9.755   2.906   7.084
18769TIP3    H256185   9.642   2.869   6.991
18770TIP3   OH256186   8.454   2.939   7.845
18770TIP3    H156187   8.505   2.858   7.842
18770TIP3    H256188   8.518   3.008   7.828
18771TIP3   OH256189   8.233   3.194   7.892
18771TIP3    H156190   8.285   3.181   7.813
18771TIP3    H256191   8.265   3.277   7.928
18772TIP3   OH256192   0.034   2.806   6.643
18772TIP3    H156193   0.120   2.786   6.679
18772TIP3    H256194   0.036   2.901   6.628
18773TIP3   OH256195   8.229   2.704   7.398
18773TIP3    H156196   8.144   2.689   7.441
18773TIP3    H256197   8.209   2.757   7.321
18774TIP3   OH256198   9.389   4.442   6.922
18774TIP3    H156199   9.429   4.406   6.843
18774TIP3    H256200   9.434   4.526   6.935
18775TIP3   OH256201   1.906   7.407   0.228
18775TIP3    H156202   1.854   7.391   0.307
18775TIP3    H256203   1.842   7.442   0.165
18776TIP3   OH256204   1.950   8.832   0.282
18776TIP3    H156205   1.856   8.818   0.278
18776TIP3    H256206   1.974   8.810   0.372
18777TIP3   OH256207   8.695   4.250   7.840
18777TIP3    H156208   8.644   4.326   7.811
18777TIP3    H256209   8.779   4.260   7.796
18778TIP3   OH256210   9.092   4.496   7.980
18778TIP3    H156211   9.131   4.486   8.067
18778TIP3    H256212   9.158   4.547   7.931
18779TIP3   OH256213   9.287   4.641   7.849
18779TIP3    H156214   9.350   4.586   7.802
18779TIP3    H256215   9.341   4.695   7.907
18780TIP3   OH256216   8.357   4.501   7.892
18780TIP3    H156217   8.265   4.521   7.872
18780TIP3    H256218   8.381   4.565   7.960
18781TIP3   OH256219   8.588   4.488   7.744
18781TIP3    H156220   8.505   4.493   7.792
18781TIP3    H256221   8.565   4.510   7.653
18782TIP3   OH256222   8.989   4.514   7.537
18782TIP3    H156223   8.918   4.523   7.474
18782TIP3    H256224   9.000   4.602   7.574
18783TIP3   OH256225   9.246   4.435   7.584
18783TIP3    H156226   9.156   4.459   7.563
18783TIP3    H256227   9.299   4.500   7.537
18784TIP3   OH256228   9.440   4.605   7.478
18784TIP3    H156229   9.443   4.694   7.445
18784TIP3    H256230   9.469   4.551   7.405
18785TIP3   OH256231   8.266   4.276   7.616
18785TIP3    H156232   8.295   4.253   7.704
18785TIP3    H256233   8.336   4.244   7.559
18786TIP3   OH256234   8.468   4.165   7.471
18786TIP3    H156235   8.479   4.080   7.513
18786TIP3    H256236   8.555   4.205   7.473
18787TIP3   OH256237   8.736   4.248   7.492
18787TIP3    H156238   8.754   4.156   7.477
18787TIP3    H256239   8.792   4.272   7.566
18788TIP3   OH256240   0.041   2.756   7.447
18788TIP3    H156241   0.049   2.798   7.362
18788TIP3    H256242  -0.047   2.779   7.477
18789TIP3   OH256243   0.096   2.861   7.200
18789TIP3    H156244   0.177   2.823   7.165
18789TIP3    H256245   0.111   2.955   7.199
18790TIP3   OH256246   8.523   2.605   7.569
18790TIP3    H156247   8.435   2.571   7.579
18790TIP3    H256248   8.577   2.527   7.552
18791TIP3   OH256249   8.365   2.514   7.233
18791TIP3    H156250   8.390   2.561   7.153
18791TIP3    H256251   8.327   2.581   7.290
18792TIP3   OH256252   9.023   2.646   7.483
18792TIP3    H156253   9.052   2.680   7.399
18792TIP3    H256254   9.078   2.691   7.548
18793TIP3   OH256255   9.574   2.823   7.458
18793TIP3    H156256   9.553   2.789   7.371
18793TIP3    H256257   9.489   2.827   7.503
18794TIP3   OH256258   9.538   2.722   6.992
18794TIP3    H156259   9.460   2.771   7.018
18794TIP3    H256260   9.528   2.637   7.034
18795TIP3   OH256261   8.026   4.081   6.991
18795TIP3    H156262   7.943   4.047   6.957
18795TIP3    H256263   8.030   4.171   6.959
18796TIP3   OH256264   8.468   2.637   6.988
18796TIP3    H156265   8.511   2.574   6.931
18796TIP3    H256266   8.539   2.693   7.019
18797TIP3   OH256267   8.952   2.832   7.110
18797TIP3    H156268   9.016   2.783   7.162
18797TIP3    H256269   8.963   2.923   7.137
18798TIP3   OH256270   8.826   4.228   6.592
18798TIP3    H156271   8.908   4.260   6.554
18798TIP3    H256272   8.799   4.157   6.534
18799TIP3   OH256273   9.516   4.371   6.693
18799TIP3    H156274   9.527   4.276   6.683
18799TIP3    H256275   9.479   4.400   6.609
18800TIP3   OH256276   8.149   4.072   6.647
18800TIP3    H156277   8.151   4.074   6.743
18800TIP3    H256278   8.228   4.024   6.622
18801TIP3   OH256279   9.707   4.511   7.886
18801TIP3    H156280   9.635   4.488   7.827
18801TIP3    H256281   9.710   4.607   7.883
18802TIP3   OH256282   0.097   3.364   6.944
18802TIP3    H156283   0.058   3.450   6.962
18802TIP3    H256284   0.042   3.326   6.876
18803TIP3   OH256285   0.302   3.634   7.115
18803TIP3    H156286   0.298   3.539   7.126
18803TIP3    H256287   0.293   3.648   7.021
18804TIP3   OH256288   0.197   4.017   6.623
18804TIP3    H156289   0.152   3.939   6.655
18804TIP3    H256290   0.163   4.088   6.677
18805TIP3   OH256291   0.259   4.078   7.546
18805TIP3    H156292   0.189   4.041   7.492
18805TIP3    H256293   0.335   4.021   7.529
18806TIP3   OH256294   0.039   4.243   7.271
18806TIP3    H156295   0.132   4.260   7.282
18806TIP3    H256296  -0.003   4.327   7.288
18807TIP3   OH256297   0.380   4.299   7.647
18807TIP3    H156298   0.463   4.288   7.599
18807TIP3    H256299   0.327   4.224   7.622
18808TIP3   OH256300   0.194   3.111   7.168
18808TIP3    H156301   0.226   3.201   7.176
18808TIP3    H256302   0.181   3.098   7.074
18809TIP3   OH256303   0.156   3.624   6.445
18809TIP3    H156304   0.201   3.558   6.497
18809TIP3    H256305   0.089   3.576   6.397
18810TIP3   OH256306   0.274   4.362   7.363
18810TIP3    H156307   0.320   4.291   7.407
18810TIP3    H256308   0.276   4.434   7.427
18811TIP3   OH256309   0.091   4.236   6.748
18811TIP3    H156310   0.072   4.279   6.831
18811TIP3    H256311   0.132   4.304   6.694
18812TIP3   OH256312   0.273   4.727   7.815
18812TIP3    H156313   0.363   4.697   7.807
18812TIP3    H256314   0.221   4.647   7.813
18813TIP3   OH256315   9.716   3.920   6.434
18813TIP3    H156316   9.787   3.975   6.400
18813TIP3    H256317   9.706   3.851   6.368
18814TIP3   OH256318   0.041   4.348   6.990
18814TIP3    H156319  -0.022   4.324   7.058
18814TIP3    H256320   0.087   4.424   7.025
18815TIP3   OH256321   0.335   3.843   7.289
18815TIP3    H156322   0.317   3.769   7.232
18815TIP3    H256323   0.347   3.917   7.228
18816TIP3   OH256324   0.283   3.496   7.407
18816TIP3    H156325   0.247   3.479   7.320
18816TIP3    H256326   0.212   3.538   7.455
18817TIP3   OH256327   0.138   3.039   6.908
18817TIP3    H156328   0.054   3.000   6.931
18817TIP3    H256329   0.139   3.042   6.812
18818TIP3   OH256330   0.293   4.703   7.295
18818TIP3    H156331   0.221   4.766   7.303
18818TIP3    H256332   0.299   4.662   7.381
18819TIP3   OH256333   0.553   4.771   7.231
18819TIP3    H156334   0.468   4.733   7.251
18819TIP3    H256335   0.554   4.778   7.135
18820TIP3   OH256336   0.197   4.558   7.083
18820TIP3    H156337   0.248   4.601   7.151
18820TIP3    H256338   0.256   4.552   7.009
18821TIP3   OH256339   0.401   4.335   6.904
18821TIP3    H156340   0.403   4.266   6.838
18821TIP3    H256341   0.396   4.416   6.855
18822TIP3   OH256342   0.035   4.334   6.411
18822TIP3    H156343  -0.055   4.332   6.442
18822TIP3    H256344   0.084   4.375   6.482
18823TIP3   OH256345   0.118   4.345   6.137
18823TIP3    H156346   0.103   4.352   6.231
18823TIP3    H256347   0.164   4.261   6.127
18824TIP3   OH256348   4.895   9.142   0.872
18824TIP3    H156349   4.868   9.193   0.795
18824TIP3    H256350   4.895   9.051   0.841
18825TIP3   OH256351   5.000   9.063   1.164
18825TIP3    H156352   4.950   9.057   1.246
18825TIP3    H256353   4.955   9.004   1.104
18826TIP3   OH256354   8.492   0.170   0.843
18826TIP3    H156355   8.492   0.077   0.869
18826TIP3    H256356   8.516   0.217   0.923
18827TIP3   OH256357   8.117   0.562   0.915
18827TIP3    H156358   8.152   0.488   0.865
18827TIP3    H256359   8.112   0.529   1.005
18828TIP3   OH256360   7.994   0.086   1.263
18828TIP3    H156361   8.063   0.088   1.198
18828TIP3    H256362   8.038   0.059   1.344
18829TIP3   OH256363   5.730   8.646   1.363
18829TIP3    H156364   5.753   8.728   1.319
18829TIP3    H256365   5.700   8.588   1.293
18830TIP3   OH256366   5.228   8.441   0.797
18830TIP3    H156367   5.313   8.445   0.842
18830TIP3    H256368   5.251   8.433   0.704
18831TIP3   OH256369   8.116   0.050   0.645
18831TIP3    H156370   8.073   0.008   0.571
18831TIP3    H256371   8.059   0.123   0.668
18832TIP3   OH256372   5.516   8.526   1.204
18832TIP3    H156373   5.436   8.479   1.184
18832TIP3    H256374   5.501   8.615   1.171
18833TIP3   OH256375   3.779   9.062   0.795
18833TIP3    H156376   3.759   9.074   0.702
18833TIP3    H256377   3.801   9.150   0.826
18834TIP3   OH256378   8.548   0.359   1.057
18834TIP3    H156379   8.471   0.344   1.111
18834TIP3    H256380   8.532   0.445   1.016
18835TIP3   OH256381   8.227   0.400   0.718
18835TIP3    H156382   8.279   0.323   0.694
18835TIP3    H256383   8.279   0.474   0.686
18836TIP3   OH256384   8.360   0.186   0.605
18836TIP3    H156385   8.289   0.123   0.618
18836TIP3    H256386   8.417   0.174   0.681
18837TIP3   OH256387   8.751   0.297   1.454
18837TIP3    H156388   8.722   0.222   1.403
18837TIP3    H256389   8.730   0.373   1.400
18838TIP3   OH256390   4.767   8.971   0.637
18838TIP3    H156391   4.692   9.008   0.591
18838TIP3    H256392   4.832   8.955   0.569
18839TIP3   OH256393   4.759   8.734   0.324
18839TIP3    H156394   4.818   8.784   0.381
18839TIP3    H256395   4.813   8.662   0.291
18840TIP3   OH256396   5.621   9.091   1.233
18840TIP3    H156397   5.603   9.099   1.327
18840TIP3    H256398   5.679   9.165   1.214
18841TIP3   OH256399   5.155   9.039   0.604
18841TIP3    H156400   5.154   9.099   0.679
18841TIP3    H256401   5.232   8.984   0.618
18842TIP3   OH256402   4.407   8.992   1.068
18842TIP3    H156403   4.353   8.958   0.997
18842TIP3    H256404   4.412   8.921   1.131
18843TIP3   OH256405   7.775   0.191   1.139
18843TIP3    H156406   7.770   0.144   1.056
18843TIP3    H256407   7.845   0.148   1.187
18844TIP3   OH256408   8.321   0.339   1.208
18844TIP3    H156409   8.284   0.426   1.226
18844TIP3    H256410   8.247   0.285   1.182
18845TIP3   OH256411   4.955   8.919   0.444
18845TIP3    H156412   5.026   8.963   0.492
18845TIP3    H256413   4.992   8.904   0.357
18846TIP3   OH256414   7.979   0.281   0.704
18846TIP3    H156415   8.059   0.329   0.723
18846TIP3    H256416   7.924   0.343   0.656
18847TIP3   OH256417   5.491   8.059   0.435
18847TIP3    H156418   5.425   8.078   0.501
18847TIP3    H256419   5.502   8.142   0.388
18848TIP3   OH256420   4.276   8.929   0.835
18848TIP3    H156421   4.211   8.989   0.799
18848TIP3    H256422   4.226   8.850   0.859
18849TIP3   OH256423   8.578   0.197   0.077
18849TIP3    H156424   8.567   0.291   0.059
18849TIP3    H256425   8.666   0.177   0.046
18850TIP3   OH256426   9.008   0.675   1.464
18850TIP3    H156427   9.002   0.579   1.464
18850TIP3    H256428   8.938   0.704   1.521
18851TIP3   OH256429   7.876   0.495   0.542
18851TIP3    H156430   7.829   0.478   0.461
18851TIP3    H256431   7.843   0.580   0.572
18852TIP3   OH256432   7.301   0.330   0.893
18852TIP3    H156433   7.357   0.316   0.969
18852TIP3    H256434   7.245   0.403   0.917
18853TIP3   OH256435   8.078   0.437   0.168
18853TIP3    H156436   8.127   0.364   0.132
18853TIP3    H256437   8.111   0.446   0.258
18854TIP3   OH256438   8.131   0.465   0.438
18854TIP3    H156439   8.046   0.468   0.483
18854TIP3    H256440   8.188   0.418   0.499
18855TIP3   OH256441   5.059   8.837   0.202
18855TIP3    H156442   5.004   8.828   0.124
18855TIP3    H256443   5.140   8.877   0.170
18856TIP3   OH256444   4.773   8.267   0.401
18856TIP3    H156445   4.798   8.213   0.476
18856TIP3    H256446   4.719   8.210   0.346
18857TIP3   OH256447   4.287   8.511   1.175
18857TIP3    H156448   4.325   8.426   1.196
18857TIP3    H256449   4.275   8.510   1.080
18858TIP3   OH256450   4.831   8.692   0.746
18858TIP3    H156451   4.885   8.771   0.744
18858TIP3    H256452   4.881   8.628   0.696
18859TIP3   OH256453   5.069   8.647   0.920
18859TIP3    H156454   4.995   8.590   0.943
18859TIP3    H256455   5.146   8.591   0.927
18860TIP3   OH256456   4.460   8.291   0.439
18860TIP3    H156457   4.504   8.233   0.502
18860TIP3    H256458   4.372   8.303   0.476
18861TIP3   OH256459   4.037   8.216   1.001
18861TIP3    H156460   4.017   8.287   0.940
18861TIP3    H256461   3.951   8.187   1.033
18862TIP3   OH256462   4.540   8.486   0.783
18862TIP3    H156463   4.557   8.578   0.801
18862TIP3    H256464   4.482   8.487   0.707
18863TIP3   OH256465   4.377   8.541   0.575
18863TIP3    H156466   4.285   8.548   0.549
18863TIP3    H256467   4.423   8.601   0.516
18864TIP3   OH256468   8.626   1.004   1.522
18864TIP3    H156469   8.647   0.985   1.431
18864TIP3    H256470   8.711   1.010   1.566
18865TIP3   OH256471   4.491   9.084   0.598
18865TIP3    H156472   4.437   9.005   0.593
18865TIP3    H256473   4.489   9.107   0.691
18866TIP3   OH256474   8.662   0.129   1.260
18866TIP3    H156475   8.722   0.152   1.189
18866TIP3    H256476   8.577   0.118   1.217
18867TIP3   OH256477   5.025   8.364   0.368
18867TIP3    H156478   4.934   8.343   0.389
18867TIP3    H256479   5.029   8.459   0.374
18868TIP3   OH256480   5.056   8.630   0.392
18868TIP3    H156481   5.080   8.662   0.479
18868TIP3    H256482   5.074   8.704   0.334
18869TIP3   OH256483   4.681   9.191   0.439
18869TIP3    H156484   4.653   9.282   0.428
18869TIP3    H256485   4.611   9.150   0.490
18870TIP3   OH256486   5.514   8.709   0.347
18870TIP3    H156487   5.448   8.671   0.288
18870TIP3    H256488   5.520   8.801   0.321
18871TIP3   OH256489   8.999   0.401   1.461
18871TIP3    H156490   8.914   0.364   1.484
18871TIP3    H256491   9.016   0.369   1.373
18872TIP3   OH256492   8.480   0.277   0.346
18872TIP3    H156493   8.445   0.221   0.415
18872TIP3    H256494   8.500   0.218   0.273
18873TIP3   OH256495   5.177   9.262   1.136
18873TIP3    H156496   5.111   9.194   1.153
18873TIP3    H256497   5.250   9.216   1.097
18874TIP3   OH256498   7.618   0.156   0.894
18874TIP3    H156499   7.612   0.226   0.829
18874TIP3    H256500   7.565   0.188   0.968
18875TIP3   OH256501   3.868   8.613   0.686
18875TIP3    H156502   3.915   8.683   0.640
18875TIP3    H256503   3.784   8.653   0.710
18876TIP3   OH256504   4.481   9.160   0.861
18876TIP3    H156505   4.442   9.248   0.862
18876TIP3    H256506   4.443   9.116   0.937
18877TIP3   OH256507   7.538   0.380   0.751
18877TIP3    H156508   7.451   0.373   0.788
18877TIP3    H256509   7.563   0.472   0.763
18878TIP3   OH256510   4.973   9.253   0.197
18878TIP3    H156511   5.030   9.234   0.272
18878TIP3    H256512   4.895   9.200   0.213
18879TIP3   OH256513   8.504   0.622   1.368
18879TIP3    H156514   8.415   0.586   1.375
18879TIP3    H256515   8.493   0.703   1.318
18880TIP3   OH256516   8.560   0.470   0.027
18880TIP3    H156517   8.566   0.520  -0.054
18880TIP3    H256518   8.492   0.514   0.078
18881TIP3   OH256519   5.169   9.200   0.378
18881TIP3    H156520   5.155   9.154   0.461
18881TIP3    H256521   5.264   9.201   0.367
18882TIP3   OH256522   4.355   9.213   0.224
18882TIP3    H156523   4.368   9.122   0.197
18882TIP3    H256524   4.332   9.208   0.317
18883TIP3   OH256525   7.549  -0.003   0.487
18883TIP3    H156526   7.623  -0.039   0.536
18883TIP3    H256527   7.555   0.091   0.500
18884TIP3   OH256528   4.048   9.040   0.725
18884TIP3    H156529   3.965   9.050   0.771
18884TIP3    H256530   4.039   9.094   0.646
18885TIP3   OH256531   5.050   8.252   0.720
18885TIP3    H156532   5.002   8.319   0.673
18885TIP3    H256533   5.119   8.299   0.766
18886TIP3   OH256534   7.830   0.191   0.435
18886TIP3    H156535   7.744   0.210   0.474
18886TIP3    H256536   7.848   0.267   0.380
18887TIP3   OH256537   4.830   8.525   0.961
18887TIP3    H156538   4.816   8.586   0.888
18887TIP3    H256539   4.743   8.515   1.001
18888TIP3   OH256540   4.873   8.278   1.055
18888TIP3    H156541   4.860   8.353   0.998
18888TIP3    H256542   4.967   8.265   1.058
18889TIP3   OH256543   7.576   0.267   0.507
18889TIP3    H156544   7.552   0.337   0.446
18889TIP3    H256545   7.563   0.306   0.594
18890TIP3   OH256546   4.344   8.243   0.801
18890TIP3    H156547   4.290   8.261   0.724
18890TIP3    H256548   4.430   8.222   0.765
18891TIP3   OH256549   5.254   8.884   0.988
18891TIP3    H156550   5.189   8.850   1.049
18891TIP3    H256551   5.331   8.902   1.042
18892TIP3   OH256552   4.028   9.129   0.459
18892TIP3    H156553   4.095   9.197   0.465
18892TIP3    H256554   4.072   9.055   0.417
18893TIP3   OH256555   3.906   8.376   0.553
18893TIP3    H156556   3.978   8.350   0.610
18893TIP3    H256557   3.877   8.461   0.588
18894TIP3   OH256558   8.539   0.627   0.969
18894TIP3    H156559   8.497   0.679   0.901
18894TIP3    H256560   8.632   0.640   0.955
18895TIP3   OH256561   7.143   0.078   0.855
18895TIP3    H156562   7.076   0.140   0.885
18895TIP3    H256563   7.222   0.131   0.848
18896TIP3   OH256564   7.766   0.184   0.126
18896TIP3    H156565   7.721   0.112   0.169
18896TIP3    H256566   7.841   0.144   0.083
18897TIP3   OH256567   8.202   0.231   0.044
18897TIP3    H156568   8.230   0.161   0.103
18897TIP3    H256569   8.260   0.223  -0.032
18898TIP3   OH256570   4.183   8.930   0.347
18898TIP3    H156571   4.235   8.905   0.423
18898TIP3    H256572   4.247   8.934   0.275
18899TIP3   OH256573   4.724   9.127   0.175
18899TIP3    H156574   4.700   9.133   0.267
18899TIP3    H256575   4.703   9.037   0.151
18900TIP3   OH256576   4.337   8.848   0.562
18900TIP3    H156577   4.367   8.835   0.652
18900TIP3    H256578   4.402   8.802   0.508
18901TIP3   OH256579   4.479   8.702   0.372
18901TIP3    H156580   4.450   8.691   0.281
18901TIP3    H256581   4.575   8.707   0.366
18902TIP3   OH256582   5.264   8.956   0.061
18902TIP3    H156583   5.249   8.914  -0.023
18902TIP3    H256584   5.239   9.047   0.048
18903TIP3   OH256585   7.568   0.485   0.336
18903TIP3    H156586   7.658   0.465   0.310
18903TIP3    H256587   7.527   0.519   0.256
18904TIP3   OH256588   3.760   9.082   0.523
18904TIP3    H156589   3.846   9.107   0.490
18904TIP3    H256590   3.718   9.035   0.451
18905TIP3   OH256591   8.806   0.691   0.953
18905TIP3    H156592   8.833   0.713   1.043
18905TIP3    H256593   8.856   0.751   0.898
18906TIP3   OH256594   8.846   0.715   1.229
18906TIP3    H156595   8.800   0.631   1.234
18906TIP3    H256596   8.920   0.705   1.290
18907TIP3   OH256597   5.444   9.181   0.382
18907TIP3    H156598   5.505   9.252   0.361
18907TIP3    H256599   5.484   9.136   0.456
18908TIP3   OH256600   5.557   9.029   0.580
18908TIP3    H156601   5.486   8.998   0.636
18908TIP3    H256602   5.612   9.081   0.637
18909TIP3   OH256603   8.815   0.206   1.045
18909TIP3    H156604   8.874   0.168   0.979
18909TIP3    H256605   8.763   0.270   0.996
18910TIP3   OH256606   8.705   0.482   1.255
18910TIP3    H156607   8.632   0.527   1.297
18910TIP3    H256608   8.664   0.431   1.185
18911TIP3   OH256609   5.482   8.955   0.230
18911TIP3    H156610   5.408   8.947   0.170
18911TIP3    H256611   5.463   9.033   0.281
18912TIP3   OH256612   5.325   8.606   0.186
18912TIP3    H156613   5.267   8.630   0.113
18912TIP3    H256614   5.315   8.511   0.194
18913TIP3   OH256615   5.354   8.896   0.723
18913TIP3    H156616   5.399   8.812   0.726
18913TIP3    H256617   5.319   8.907   0.812
18914TIP3   OH256618   5.286   8.338   0.181
18914TIP3    H156619   5.367   8.306   0.220
18914TIP3    H256620   5.235   8.259   0.162
18915TIP3   OH256621   5.399   8.614   0.573
18915TIP3    H156622   5.470   8.562   0.611
18915TIP3    H256623   5.440   8.659   0.498
18916TIP3   OH256624   5.485   8.803   1.158
18916TIP3    H156625   5.570   8.820   1.118
18916TIP3    H256626   5.500   8.814   1.252
18917TIP3   OH256627   5.517   8.336   0.596
18917TIP3    H156628   5.523   8.255   0.647
18917TIP3    H256629   5.429   8.336   0.560
18918TIP3   OH256630   5.535   8.286   0.287
18918TIP3    H156631   5.582   8.227   0.228
18918TIP3    H256632   5.594   8.360   0.299
18919TIP3   OH256633   8.362   0.605   0.602
18919TIP3    H156634   8.416   0.586   0.525
18919TIP3    H256635   8.414   0.666   0.654
18920TIP3   OH256636   7.997   0.705   1.189
18920TIP3    H156637   7.927   0.699   1.124
18920TIP3    H256638   7.974   0.782   1.241
18921TIP3   OH256639   8.246   0.605   1.237
18921TIP3    H156640   8.156   0.636   1.227
18921TIP3    H256641   8.300   0.677   1.206
18922TIP3   OH256642   8.452   0.804   1.164
18922TIP3    H156643   8.445   0.888   1.119
18922TIP3    H256644   8.480   0.742   1.096
18923TIP3   OH256645   7.480   0.308   1.099
18923TIP3    H156646   7.490   0.250   1.174
18923TIP3    H256647   7.550   0.372   1.108
18924TIP3   OH256648   7.717   0.452   1.150
18924TIP3    H156649   7.747   0.362   1.139
18924TIP3    H256650   7.742   0.475   1.239
18925TIP3   OH256651   5.484   8.234   1.168
18925TIP3    H156652   5.531   8.251   1.250
18925TIP3    H256653   5.423   8.164   1.190
18926TIP3   OH256654   5.651   8.215   0.812
18926TIP3    H156655   5.699   8.219   0.895
18926TIP3    H256656   5.603   8.298   0.809
18927TIP3   OH256657   5.290   8.060   1.235
18927TIP3    H156658   5.222   8.106   1.186
18927TIP3    H256659   5.315   7.987   1.179
18928TIP3   OH256660   5.300   8.133   0.620
18928TIP3    H156661   5.241   8.205   0.599
18928TIP3    H256662   5.250   8.054   0.599
18929TIP3   OH256663   4.082   8.104   0.753
18929TIP3    H156664   4.114   8.013   0.753
18929TIP3    H256665   4.083   8.130   0.845
18930TIP3   OH256666   4.721   8.290   0.798
18930TIP3    H156667   4.693   8.235   0.871
18930TIP3    H256668   4.659   8.362   0.796
18931TIP3   OH256669   7.822   0.412   0.265
18931TIP3    H156670   7.906   0.438   0.229
18931TIP3    H256671   7.793   0.340   0.210
18932TIP3   OH256672   8.514   0.545   0.377
18932TIP3    H156673   8.509   0.450   0.372
18932TIP3    H256674   8.474   0.576   0.296
18933TIP3   OH256675   7.147   0.245   0.296
18933TIP3    H156676   7.151   0.325   0.349
18933TIP3    H256677   7.238   0.216   0.291
18934TIP3   OH256678   0.218   0.069   0.300
18934TIP3    H156679   0.188   0.156   0.272
18934TIP3    H256680   0.149   0.009   0.271
18935TIP3   OH256681   0.200   0.073   0.670
18935TIP3    H156682   0.251   0.041   0.744
18935TIP3    H256683   0.160  -0.006   0.633
18936TIP3   OH256684   6.110   9.033   1.017
18936TIP3    H156685   6.096   9.089   1.094
18936TIP3    H256686   6.163   9.086   0.958
18937TIP3   OH256687   0.490   0.372   0.395
18937TIP3    H156688   0.477   0.303   0.461
18937TIP3    H256689   0.506   0.451   0.446
18938TIP3   OH256690   9.320   0.357   0.755
18938TIP3    H156691   9.305   0.264   0.741
18938TIP3    H256692   9.415   0.367   0.751
18939TIP3   OH256693   5.757   8.847   0.507
18939TIP3    H156694   5.691   8.916   0.515
18939TIP3    H256695   5.712   8.768   0.535
18940TIP3   OH256696   5.797   9.144   0.688
18940TIP3    H156697   5.838   9.068   0.729
18940TIP3    H256698   5.862   9.176   0.625
18941TIP3   OH256699   0.150   0.788   0.422
18941TIP3    H156700   0.171   0.726   0.352
18941TIP3    H256701   0.161   0.737   0.503
18942TIP3   OH256702   0.022   0.277   0.738
18942TIP3    H156703   0.066   0.210   0.687
18942TIP3    H256704   0.092   0.335   0.768
18943TIP3   OH256705   7.613   8.847   0.696
18943TIP3    H156706   7.635   8.929   0.739
18943TIP3    H256707   7.649   8.856   0.607
18944TIP3   OH256708   6.968   8.990   0.743
18944TIP3    H156709   6.985   8.897   0.754
18944TIP3    H256710   6.924   8.997   0.659
18945TIP3   OH256711   6.316   8.666   0.624
18945TIP3    H156712   6.300   8.736   0.561
18945TIP3    H256713   6.258   8.596   0.598
18946TIP3   OH256714   7.011   8.766   0.344
18946TIP3    H156715   7.082   8.761   0.408
18946TIP3    H256716   7.053   8.799   0.264
18947TIP3   OH256717   5.934   8.931   0.790
18947TIP3    H156718   6.026   8.915   0.813
18947TIP3    H256719   5.916   8.867   0.721
18948TIP3   OH256720   6.371   9.090   0.634
18948TIP3    H156721   6.466   9.073   0.629
18948TIP3    H256722   6.332   9.011   0.597
18949TIP3   OH256723   7.663   9.076   0.847
18949TIP3    H156724   7.596   9.129   0.805
18949TIP3    H256725   7.632   9.064   0.936
18950TIP3   OH256726   6.239   8.667   1.191
18950TIP3    H156727   6.172   8.722   1.152
18950TIP3    H256728   6.195   8.622   1.263
18951TIP3   OH256729   0.116   0.288   0.162
18951TIP3    H156730   0.077   0.253   0.081
18951TIP3    H256731   0.061   0.362   0.185
18952TIP3   OH256732   9.589   0.219   0.895
18952TIP3    H156733   9.558   0.286   0.956
18952TIP3    H256734   9.661   0.260   0.848
18953TIP3   OH256735   7.190   8.794   0.543
18953TIP3    H156736   7.144   8.766   0.622
18953TIP3    H256737   7.248   8.864   0.573
18954TIP3   OH256738   6.186   8.826   0.813
18954TIP3    H156739   6.251   8.874   0.865
18954TIP3    H256740   6.238   8.781   0.746
18955TIP3   OH256741   9.477   0.416   1.059
18955TIP3    H156742   9.471   0.508   1.034
18955TIP3    H256743   9.396   0.398   1.106
18956TIP3   OH256744   8.891   0.133   0.292
18956TIP3    H156745   8.852   0.159   0.208
18956TIP3    H256746   8.913   0.215   0.335
18957TIP3   OH256747   0.512   0.617   0.539
18957TIP3    H156748   0.423   0.609   0.574
18957TIP3    H256749   0.512   0.699   0.491
18958TIP3   OH256750   7.366   8.806   0.814
18958TIP3    H156751   7.326   8.881   0.770
18958TIP3    H256752   7.454   8.802   0.778
18959TIP3   OH256753   6.699   8.349   0.831
18959TIP3    H156754   6.726   8.259   0.848
18959TIP3    H256755   6.627   8.365   0.891
18960TIP3   OH256756   0.224   0.648   0.194
18960TIP3    H156757   0.278   0.569   0.183
18960TIP3    H256758   0.280   0.720   0.164
18961TIP3   OH256759   0.366   0.421   0.154
18961TIP3    H156760   0.295   0.356   0.151
18961TIP3    H256761   0.418   0.395   0.230
18962TIP3   OH256762   0.761   0.515   0.866
18962TIP3    H156763   0.741   0.440   0.811
18962TIP3    H256764   0.744   0.591   0.811
18963TIP3   OH256765   6.577   9.153   0.149
18963TIP3    H156766   6.491   9.190   0.128
18963TIP3    H256767   6.622   9.149   0.064
18964TIP3   OH256768   3.285   4.334   7.837
18964TIP3    H156769   3.351   4.383   7.886
18964TIP3    H256770   3.336   4.268   7.789
18965TIP3   OH256771   0.936   0.174   0.734
18965TIP3    H156772   0.851   0.217   0.737
18965TIP3    H256773   0.969   0.189   0.646
18966TIP3   OH256774   0.405   0.003   0.109
18966TIP3    H156775   0.351   0.029   0.184
18966TIP3    H256776   0.487  -0.027   0.148
18967TIP3   OH256777   0.614   0.105   0.918
18967TIP3    H156778   0.633   0.182   0.863
18967TIP3    H256779   0.523   0.117   0.944
18968TIP3   OH256780   6.157   9.208   0.486
18968TIP3    H156781   6.117   9.142   0.431
18968TIP3    H256782   6.231   9.163   0.527
18969TIP3   OH256783   9.579   0.412   0.648
18969TIP3    H156784   9.549   0.391   0.560
18969TIP3    H256785   9.662   0.366   0.656
18970TIP3   OH256786   6.259   9.200   0.857
18970TIP3    H156787   6.304   9.160   0.782
18970TIP3    H256788   6.290   9.290   0.858
18971TIP3   OH256789   0.269   0.610   0.662
18971TIP3    H156790   0.260   0.689   0.715
18971TIP3    H256791   0.258   0.538   0.724
18972TIP3   OH256792   9.708   0.512   1.212
18972TIP3    H156793   9.640   0.566   1.252
18972TIP3    H256794   9.659   0.440   1.172
18973TIP3   OH256795   3.499   4.482   7.948
18973TIP3    H156796   3.560   4.538   7.997
18973TIP3    H256797   3.526   4.491   7.857
18974TIP3   OH256798   9.513   0.061   1.399
18974TIP3    H156799   9.454   0.125   1.438
18974TIP3    H256800   9.493   0.064   1.306
18975TIP3   OH256801   9.777   0.527   0.200
18975TIP3    H156802   9.860   0.574   0.207
18975TIP3    H256803   9.719   0.586   0.152
18976TIP3   OH256804   9.502   0.676   1.293
18976TIP3    H156805   9.479   0.687   1.201
18976TIP3    H256806   9.419   0.656   1.337
18977TIP3   OH256807   7.276   8.318   0.004
18977TIP3    H156808   7.199   8.339   0.058
18977TIP3    H256809   7.286   8.393  -0.054
18978TIP3   OH256810   6.014   9.039   0.311
18978TIP3    H156811   5.943   9.095   0.279
18978TIP3    H256812   5.971   8.956   0.333
18979TIP3   OH256813   3.839   5.088   7.565
18979TIP3    H156814   3.831   5.181   7.543
18979TIP3    H256815   3.926   5.064   7.533
18980TIP3   OH256816   9.023   0.300   1.205
18980TIP3    H156817   8.944   0.296   1.152
18980TIP3    H256818   9.047   0.208   1.218
18981TIP3   OH256819   8.913   0.432   0.883
18981TIP3    H156820   9.002   0.411   0.909
18981TIP3    H256821   8.893   0.515   0.926
18982TIP3   OH256822   0.986   0.866   0.952
18982TIP3    H156823   0.990   0.771   0.967
18982TIP3    H256824   0.906   0.894   0.998
18983TIP3   OH256825   0.090   0.652   1.063
18983TIP3    H156826   0.085   0.742   1.094
18983TIP3    H256827   0.023   0.605   1.113
18984TIP3   OH256828   9.668   0.741   0.030
18984TIP3    H156829   9.622   0.725  -0.052
18984TIP3    H256830   9.636   0.826   0.060
18985TIP3   OH256831   9.107   0.609   0.409
18985TIP3    H156832   9.150   0.602   0.495
18985TIP3    H256833   9.055   0.529   0.402
18986TIP3   OH256834   3.322   5.302   7.655
18986TIP3    H156835   3.373   5.230   7.619
18986TIP3    H256836   3.360   5.319   7.741
18987TIP3   OH256837   3.388   5.343   7.924
18987TIP3    H156838   3.304   5.344   7.969
18987TIP3    H256839   3.449   5.303   7.985
18988TIP3   OH256840   7.447   9.252   1.239
18988TIP3    H156841   7.354   9.271   1.227
18988TIP3    H256842   7.466   9.184   1.175
18989TIP3   OH256843   9.224   0.493   1.207
18989TIP3    H156844   9.238   0.505   1.301
18989TIP3    H256845   9.162   0.421   1.200
18990TIP3   OH256846   6.474   8.372   0.977
18990TIP3    H156847   6.426   8.305   0.928
18990TIP3    H256848   6.432   8.455   0.952
18991TIP3   OH256849   6.941   8.519   1.275
18991TIP3    H156850   6.946   8.427   1.301
18991TIP3    H256851   6.847   8.537   1.267
18992TIP3   OH256852   7.142   9.026   0.954
18992TIP3    H156853   7.116   9.103   1.005
18992TIP3    H256854   7.084   9.027   0.878
18993TIP3   OH256855   3.575   4.490   7.690
18993TIP3    H156856   3.530   4.473   7.607
18993TIP3    H256857   3.660   4.524   7.664
18994TIP3   OH256858   6.549   8.494  -0.003
18994TIP3    H156859   6.512   8.501   0.085
18994TIP3    H256860   6.515   8.411  -0.036
18995TIP3   OH256861   6.382   8.916   0.973
18995TIP3    H156862   6.356   8.931   1.064
18995TIP3    H256863   6.446   8.985   0.955
18996TIP3   OH256864   6.211   8.902   0.518
18996TIP3    H156865   6.132   8.867   0.558
18996TIP3    H256866   6.212   8.867   0.429
18997TIP3   OH256867   6.703   8.946   0.273
18997TIP3    H156868   6.656   9.019   0.234
18997TIP3    H256869   6.758   8.912   0.202
18998TIP3   OH256870   0.452   0.075   1.363
18998TIP3    H156871   0.380   0.036   1.412
18998TIP3    H256872   0.529   0.059   1.418
18999TIP3   OH256873   6.876   8.963   0.485
18999TIP3    H156874   6.809   8.981   0.419
18999TIP3    H256875   6.922   8.885   0.453
19000TIP3   OH256876   6.042   9.120   1.275
19000TIP3    H156877   6.054   9.165   1.359
19000TIP3    H256878   6.031   9.028   1.298
19001TIP3   OH256879   2.952   3.853   7.969
19001TIP3    H156880   2.942   3.859   8.064
19001TIP3    H256881   2.874   3.895   7.934
19002TIP3   OH256882   5.773   8.490   0.852
19002TIP3    H156883   5.850   8.546   0.861
19002TIP3    H256884   5.808   8.402   0.840
19003TIP3   OH256885   5.703   8.511   0.331
19003TIP3    H156886   5.746   8.539   0.250
19003TIP3    H256887   5.637   8.579   0.347
19004TIP3   OH256888   6.869   9.206   0.879
19004TIP3    H156889   6.897   9.125   0.835
19004TIP3    H256890   6.877   9.186   0.972
19005TIP3   OH256891   6.591   8.698   0.592
19005TIP3    H156892   6.508   8.674   0.633
19005TIP3    H256893   6.658   8.655   0.645
19006TIP3   OH256894   5.996   8.744   0.588
19006TIP3    H156895   5.914   8.762   0.541
19006TIP3    H256896   6.022   8.657   0.557
19007TIP3   OH256897   6.234   8.750   0.295
19007TIP3    H156898   6.329   8.761   0.285
19007TIP3    H256899   6.199   8.768   0.207
19008TIP3   OH256900   7.004   8.720   0.734
19008TIP3    H156901   6.965   8.707   0.821
19008TIP3    H256902   6.949   8.668   0.675
19009TIP3   OH256903   6.119   8.767   0.050
19009TIP3    H156904   6.058   8.715  -0.001
19009TIP3    H256905   6.174   8.811  -0.015
19010TIP3   OH256906   0.699   1.213   1.044
19010TIP3    H156907   0.698   1.228   0.949
19010TIP3    H256908   0.779   1.256   1.074
19011TIP3   OH256909   9.347   0.365   1.482
19011TIP3    H156910   9.342   0.460   1.490
19011TIP3    H256911   9.283   0.332   1.544
19012TIP3   OH256912   6.645   9.044   0.647
19012TIP3    H156913   6.701   8.988   0.593
19012TIP3    H256914   6.655   9.008   0.736
19013TIP3   OH256915   6.114   8.507   0.508
19013TIP3    H156916   6.109   8.419   0.546
19013TIP3    H256917   6.130   8.492   0.415
19014TIP3   OH256918   6.672   8.943   0.898
19014TIP3    H156919   6.656   8.852   0.922
19014TIP3    H256920   6.645   8.993   0.975
19015TIP3   OH256921   9.600   0.031   0.091
19015TIP3    H156922   9.527  -0.026   0.067
19015TIP3    H256923   9.571   0.078   0.168
19016TIP3   OH256924   0.690   0.299   0.701
19016TIP3    H156925   0.730   0.350   0.630
19016TIP3    H256926   0.613   0.259   0.660
19017TIP3   OH256927   6.802   8.595   0.007
19017TIP3    H156928   6.709   8.575  -0.001
19017TIP3    H256929   6.806   8.690   0.011
19018TIP3   OH256930   0.233   0.411   1.110
19018TIP3    H156931   0.231   0.410   1.205
19018TIP3    H256932   0.183   0.489   1.086
19019TIP3   OH256933   6.864   8.864   0.060
19019TIP3    H156934   6.959   8.865   0.066
19019TIP3    H256935   6.843   8.941   0.007
19020TIP3   OH256936   9.320   0.085   0.713
19020TIP3    H156937   9.347   0.059   0.625
19020TIP3    H256938   9.372   0.029   0.771
19021TIP3   OH256939   3.227   4.816   7.946
19021TIP3    H156940   3.178   4.898   7.943
19021TIP3    H256941   3.170   4.756   7.994
19022TIP3   OH256942   9.222   0.034   1.507
19022TIP3    H156943   9.197   0.099   1.573
19022TIP3    H256944   9.206  -0.050   1.549
19023TIP3   OH256945   0.169   0.161   1.316
19023TIP3    H156946   0.165   0.074   1.357
19023TIP3    H256947   0.258   0.192   1.335
19024TIP3   OH256948   0.366   0.677   0.999
19024TIP3    H156949   0.271   0.666   1.000
19024TIP3    H256950   0.387   0.710   1.086
19025TIP3   OH256951   4.012   4.336   7.887
19025TIP3    H156952   3.952   4.293   7.826
19025TIP3    H256953   4.018   4.426   7.856
19026TIP3   OH256954   1.003   0.583   0.971
19026TIP3    H156955   0.908   0.572   0.960
19026TIP3    H256956   1.039   0.559   0.885
19027TIP3   OH256957   3.751   5.151   7.832
19027TIP3    H156958   3.724   5.080   7.890
19027TIP3    H256959   3.771   5.107   7.749
19028TIP3   OH256960   0.468   0.167   0.590
19028TIP3    H156961   0.374   0.150   0.602
19028TIP3    H256962   0.503   0.084   0.555
19029TIP3   OH256963   9.419   0.401   0.417
19029TIP3    H156964   9.413   0.476   0.358
19029TIP3    H256965   9.332   0.397   0.458
19030TIP3   OH256966   5.732   8.926   0.124
19030TIP3    H156967   5.770   9.011   0.146
19030TIP3    H256968   5.645   8.929   0.163
19031TIP3   OH256969   9.486   0.163   0.297
19031TIP3    H156970   9.476   0.248   0.338
19031TIP3    H256971   9.466   0.100   0.366
19032TIP3   OH256972   9.705   0.727   0.865
19032TIP3    H156973   9.741   0.801   0.816
19032TIP3    H256974   9.779   0.693   0.915
19033TIP3   OH256975   9.339   0.622   0.262
19033TIP3    H156976   9.253   0.629   0.305
19033TIP3    H256977   9.377   0.710   0.271
19034TIP3   OH256978   0.262   0.385   0.836
19034TIP3    H156979   0.255   0.388   0.931
19034TIP3    H256980   0.344   0.338   0.818
19035TIP3   OH256981   3.520   4.888   7.712
19035TIP3    H156982   3.572   4.861   7.788
19035TIP3    H256983   3.440   4.835   7.718
19036TIP3   OH256984   0.513   0.885   0.884
19036TIP3    H156985   0.446   0.820   0.906
19036TIP3    H256986   0.474   0.936   0.813
19037TIP3   OH256987   3.839   5.362   7.524
19037TIP3    H156988   3.885   5.436   7.483
19037TIP3    H256989   3.760   5.402   7.561
19038TIP3   OH256990   3.699   4.812   7.906
19038TIP3    H156991   3.683   4.753   7.980
19038TIP3    H256992   3.795   4.816   7.900
19039TIP3   OH256993   9.108   0.660   1.020
19039TIP3    H156994   9.156   0.604   1.081
19039TIP3    H256995   9.126   0.749   1.051
19040TIP3   OH256996   2.890   4.828   7.744
19040TIP3    H156997   2.898   4.737   7.715
19040TIP3    H256998   2.878   4.822   7.838
19041TIP3   OH256999   9.354   0.237   0.014
19041TIP3    H157000   9.406   0.211   0.090
19041TIP3    H257001   9.355   0.333   0.016
19042TIP3   OH257002   5.807   9.183   0.203
19042TIP3    H157003   5.743   9.234   0.253
19042TIP3    H257004   5.829   9.239   0.128
19043TIP3   OH257005   6.983   8.856   1.143
19043TIP3    H157006   6.989   8.904   1.226
19043TIP3    H257007   7.063   8.878   1.096
19044TIP3   OH257008   6.867   8.542   0.267
19044TIP3    H157009   6.845   8.560   0.176
19044TIP3    H257010   6.909   8.622   0.298
19045TIP3   OH257011   3.080   5.044   7.940
19045TIP3    H157012   2.996   5.070   7.977
19045TIP3    H257013   3.109   5.121   7.890
19046TIP3   OH257014   6.511   8.761   0.340
19046TIP3    H157015   6.573   8.827   0.310
19046TIP3    H257016   6.537   8.741   0.429
19047TIP3   OH257017   6.881   9.120   1.138
19047TIP3    H157018   6.910   9.122   1.229
19047TIP3    H257019   6.862   9.027   1.122
19048TIP3   OH257020   6.676   8.437   0.429
19048TIP3    H157021   6.694   8.496   0.503
19048TIP3    H257022   6.740   8.461   0.363
19049TIP3   OH257023   9.363   0.515   0.013
19049TIP3    H157024   9.314   0.577  -0.041
19049TIP3    H257025   9.357   0.550   0.102
19050TIP3   OH257026   6.189   8.480   0.242
19050TIP3    H157027   6.183   8.574   0.254
19050TIP3    H257028   6.282   8.460   0.252
19051TIP3   OH257029   7.499   9.042   1.070
19051TIP3    H157030   7.438   8.983   1.114
19051TIP3    H257031   7.449   9.078   0.997
19052TIP3   OH257032   7.093   9.148   0.506
19052TIP3    H157033   7.017   9.090   0.504
19052TIP3    H257034   7.156   9.103   0.562
19053TIP3   OH257035   2.574   4.734   7.987
19053TIP3    H157036   2.651   4.789   8.002
19053TIP3    H257037   2.603   4.668   7.924
19054TIP3   OH257038   5.750   8.649   0.099
19054TIP3    H157039   5.763   8.742   0.115
19054TIP3    H257040   5.676   8.645   0.038
19055TIP3   OH257041   0.538   0.881   0.452
19055TIP3    H157042   0.497   0.934   0.384
19055TIP3    H257043   0.632   0.894   0.440
19056TIP3   OH257044   6.199   8.437   0.809
19056TIP3    H157045   6.179   8.384   0.732
19056TIP3    H257046   6.198   8.374   0.882
19057TIP3   OH257047   8.930   0.393   0.390
19057TIP3    H157048   8.889   0.426   0.470
19057TIP3    H257049   8.879   0.431   0.319
19058TIP3   OH257050   9.125   0.935   1.431
19058TIP3    H157051   9.205   0.927   1.483
19058TIP3    H257052   9.089   0.846   1.429
19059TIP3   OH257053   9.601   0.854   1.484
19059TIP3    H157054   9.693   0.841   1.510
19059TIP3    H257055   9.587   0.789   1.415
19060TIP3   OH257056   3.024   5.038   7.625
19060TIP3    H157057   2.988   4.965   7.673
19060TIP3    H257058   3.101   5.002   7.580
19061TIP3   OH257059   0.419   0.778   1.249
19061TIP3    H157060   0.432   0.711   1.316
19061TIP3    H257061   0.494   0.837   1.260
19062TIP3   OH257062   3.461   5.094   7.543
19062TIP3    H157063   3.495   5.030   7.606
19062TIP3    H257064   3.519   5.086   7.467
19063TIP3   OH257065   2.690   4.538   7.839
19063TIP3    H157066   2.740   4.509   7.916
19063TIP3    H257067   2.756   4.547   7.770
19064TIP3   OH257068   0.130   0.471   1.365
19064TIP3    H157069   0.052   0.481   1.311
19064TIP3    H257070   0.104   0.410   1.434
19065TIP3   OH257071   3.271   4.760   7.681
19065TIP3    H157072   3.248   4.768   7.773
19065TIP3    H257073   3.253   4.668   7.659
19066TIP3   OH257074   0.534   0.447   1.005
19066TIP3    H157075   0.612   0.483   0.964
19066TIP3    H257076   0.469   0.518   1.002
19067TIP3   OH257077   6.125   9.093   0.050
19067TIP3    H157078   6.099   9.056   0.135
19067TIP3    H257079   6.177   9.024   0.009
19068TIP3   OH257080   6.491   9.190   1.357
19068TIP3    H157081   6.409   9.240   1.359
19068TIP3    H257082   6.501   9.165   1.265
19069TIP3   OH257083   3.013   4.304   7.893
19069TIP3    H157084   2.983   4.306   7.803
19069TIP3    H257085   3.108   4.310   7.887
19070TIP3   OH257086   0.440   0.347   1.343
19070TIP3    H157087   0.508   0.373   1.280
19070TIP3    H257088   0.457   0.255   1.360
19071TIP3   OH257089   3.800   4.593   7.565
19071TIP3    H157090   3.785   4.550   7.481
19071TIP3    H257091   3.777   4.685   7.550
19072TIP3   OH257092   6.499   8.954   1.495
19072TIP3    H157093   6.434   8.888   1.471
19072TIP3    H257094   6.494   9.019   1.424
19073TIP3   OH257095   6.496   8.752   1.222
19073TIP3    H157096   6.466   8.842   1.228
19073TIP3    H257097   6.416   8.700   1.214
19074TIP3   OH257098   0.105   0.106   0.966
19074TIP3    H157099   0.198   0.090   0.953
19074TIP3    H257100   0.075   0.142   0.883
19075TIP3   OH257101   7.215   9.192   1.466
19075TIP3    H157102   7.242   9.121   1.524
19075TIP3    H257103   7.214   9.152   1.379
19076TIP3   OH257104   0.679   0.317   1.199
19076TIP3    H157105   0.624   0.346   1.126
19076TIP3    H257106   0.767   0.315   1.163
19077TIP3   OH257107   6.672   8.533   1.269
19077TIP3    H157108   6.610   8.605   1.277
19077TIP3    H257109   6.620   8.455   1.286
19078TIP3   OH257110   6.758   8.950   1.575
19078TIP3    H157111   6.755   8.933   1.670
19078TIP3    H257112   6.667   8.946   1.547
19079TIP3   OH257113   6.959   9.002   1.385
19079TIP3    H157114   6.899   8.996   1.460
19079TIP3    H257115   7.043   8.971   1.420
19080TIP3   OH257116   7.309   9.020   1.661
19080TIP3    H157117   7.320   8.926   1.648
19080TIP3    H257118   7.263   9.027   1.745
19081TIP3   OH257119   6.835   8.445   1.565
19081TIP3    H157120   6.905   8.456   1.629
19081TIP3    H257121   6.828   8.530   1.522
19082TIP3   OH257122   2.791   5.291   7.751
19082TIP3    H157123   2.882   5.275   7.772
19082TIP3    H257124   2.792   5.374   7.702
19083TIP3   OH257125   2.300   4.742   7.992
19083TIP3    H157126   2.395   4.745   7.997
19083TIP3    H257127   2.281   4.652   7.964
19084TIP3   OH257128   8.724   0.697   0.464
19084TIP3    H157129   8.658   0.643   0.422
19084TIP3    H257130   8.769   0.638   0.524
19085TIP3   OH257131   8.870   0.534   0.629
19085TIP3    H157132   8.859   0.470   0.700
19085TIP3    H257133   8.923   0.604   0.668
19086TIP3   OH257134   0.810   0.934   0.450
19086TIP3    H157135   0.828   0.959   0.540
19086TIP3    H257136   0.860   0.996   0.397
19087TIP3   OH257137   0.831   0.966   0.729
19087TIP3    H157138   0.782   0.884   0.723
19087TIP3    H257139   0.900   0.948   0.793
19088TIP3   OH257140   0.877   0.668   1.278
19088TIP3    H157141   0.810   0.673   1.347
19088TIP3    H257142   0.925   0.750   1.286
19089TIP3   OH257143   3.981   4.806   7.903
19089TIP3    H157144   4.046   4.869   7.872
19089TIP3    H257145   4.022   4.763   7.977
19090TIP3   OH257146   0.832   0.036   0.103
19090TIP3    H157147   0.765  -0.004   0.157
19090TIP3    H257148   0.897   0.069   0.165
19091TIP3   OH257149   0.877   0.440   0.546
19091TIP3    H157150   0.930   0.375   0.500
19091TIP3    H257151   0.877   0.517   0.489
19092TIP3   OH257152   0.683   0.734   0.724
19092TIP3    H157153   0.618   0.777   0.779
19092TIP3    H257154   0.632   0.692   0.655
19093TIP3   OH257155   4.002   4.575   7.753
19093TIP3    H157156   3.932   4.572   7.688
19093TIP3    H257157   3.986   4.656   7.802
19094TIP3   OH257158   3.845   4.239   7.697
19094TIP3    H157159   3.802   4.264   7.615
19094TIP3    H257160   3.834   4.144   7.702
19095TIP3   OH257161   7.164   9.134   0.236
19095TIP3    H157162   7.165   9.040   0.220
19095TIP3    H257163   7.146   9.142   0.330
19096TIP3   OH257164   9.005   0.100   0.873
19096TIP3    H157165   9.029   0.050   0.796
19096TIP3    H257166   9.087   0.114   0.920
19097TIP3   OH257167   0.933   0.328   1.090
19097TIP3    H157168   1.001   0.263   1.073
19097TIP3    H257169   0.960   0.404   1.039
19098TIP3   OH257170   1.119   0.124   1.091
19098TIP3    H157171   1.052   0.092   1.152
19098TIP3    H257172   1.201   0.090   1.124
19099TIP3   OH257173   3.805   3.973   7.702
19099TIP3    H157174   3.878   3.931   7.748
19099TIP3    H257175   3.730   3.917   7.719
19100TIP3   OH257176   7.152   8.860   0.120
19100TIP3    H157177   7.198   8.777   0.134
19100TIP3    H257178   7.195   8.898   0.043
19101TIP3   OH257179   7.312   9.028   0.651
19101TIP3    H157180   7.390   9.049   0.600
19101TIP3    H257181   7.321   9.080   0.731
19102TIP3   OH257182   7.383   9.191   0.868
19102TIP3    H157183   7.296   9.219   0.897
19102TIP3    H257184   7.420   9.269   0.826
19103TIP3   OH257185   7.960   8.837   1.401
19103TIP3    H157186   7.938   8.744   1.400
19103TIP3    H257187   8.010   8.852   1.321
19104TIP3   OH257188   7.265   8.612   0.178
19104TIP3    H157189   7.313   8.598   0.260
19104TIP3    H257190   7.205   8.538   0.172
19105TIP3   OH257191   6.007   8.621   0.869
19105TIP3    H157192   6.064   8.545   0.853
19105TIP3    H257193   6.040   8.689   0.811
19106TIP3   OH257194   5.799   8.879   1.244
19106TIP3    H157195   5.849   8.861   1.164
19106TIP3    H257196   5.748   8.957   1.223
19107TIP3   OH257197   7.757   8.965   1.131
19107TIP3    H157198   7.664   8.985   1.119
19107TIP3    H257199   7.767   8.874   1.102
19108TIP3   OH257200   4.047   3.897   7.823
19108TIP3    H157201   4.089   3.840   7.759
19108TIP3    H257202   4.102   3.975   7.825
19109TIP3   OH257203   5.786   8.336   0.521
19109TIP3    H157204   5.700   8.326   0.561
19109TIP3    H257205   5.770   8.394   0.446
19110TIP3   OH257206   0.361   0.854   0.088
19110TIP3    H157207   0.416   0.842   0.011
19110TIP3    H257208   0.407   0.920   0.140
19111TIP3   OH257209   9.285   0.636   1.473
19111TIP3    H157210   9.190   0.650   1.475
19111TIP3    H257211   9.321   0.706   1.527
19112TIP3   OH257212   9.479   0.692   1.018
19112TIP3    H157213   9.429   0.766   0.985
19112TIP3    H257214   9.562   0.697   0.971
19113TIP3   OH257215   0.079   0.915   1.149
19113TIP3    H157216   0.114   0.914   1.238
19113TIP3    H257217   0.140   0.970   1.100
19114TIP3   OH257218   0.269   1.075   1.029
19114TIP3    H157219   0.335   1.021   0.985
19114TIP3    H257220   0.320   1.133   1.085
19115TIP3   OH257221   7.715   8.714   1.037
19115TIP3    H157222   7.621   8.726   1.052
19115TIP3    H257223   7.730   8.620   1.049
19116TIP3   OH257224   9.137   0.935   1.060
19116TIP3    H157225   9.046   0.954   1.038
19116TIP3    H257226   9.160   1.002   1.125
19117TIP3   OH257227   9.369   0.921   0.913
19117TIP3    H157228   9.286   0.927   0.960
19117TIP3    H257229   9.346   0.942   0.822
19118TIP3   OH257230   9.781   0.940   0.708
19118TIP3    H157231   9.709   0.952   0.646
19118TIP3    H257232   9.792   1.026   0.749
19119TIP3   OH257233   0.242   0.868   0.757
19119TIP3    H157234   0.151   0.890   0.737
19119TIP3    H257235   0.294   0.935   0.712
19120TIP3   OH257236   0.442   1.038   0.658
19120TIP3    H157237   0.445   1.126   0.620
19120TIP3    H257238   0.473   0.981   0.587
19121TIP3   OH257239   9.042   0.714   0.763
19121TIP3    H157240   9.058   0.694   0.855
19121TIP3    H257241   9.117   0.676   0.717
19122TIP3   OH257242   9.255   0.595   0.642
19122TIP3    H157243   9.267   0.512   0.688
19122TIP3    H257244   9.340   0.638   0.647
19123TIP3   OH257245   9.521   0.682   0.663
19123TIP3    H157246   9.542   0.591   0.644
19123TIP3    H257247   9.574   0.704   0.739
19124TIP3   OH257248   6.809   8.532   0.660
19124TIP3    H157249   6.776   8.469   0.725
19124TIP3    H257250   6.888   8.492   0.626
19125TIP3   OH257251   7.329   8.517   0.628
19125TIP3    H157252   7.369   8.546   0.545
19125TIP3    H257253   7.235   8.531   0.615
19126TIP3   OH257254   7.437   8.566   0.386
19126TIP3    H157255   7.506   8.504   0.361
19126TIP3    H257256   7.477   8.652   0.374
19127TIP3   OH257257   6.118   8.257   0.612
19127TIP3    H157258   6.027   8.242   0.637
19127TIP3    H257259   6.157   8.169   0.612
19128TIP3   OH257260   5.852   8.132   0.350
19128TIP3    H157261   5.896   8.181   0.281
19128TIP3    H257262   5.837   8.195   0.420
19129TIP3   OH257263   6.514   8.315   0.625
19129TIP3    H157264   6.551   8.357   0.548
19129TIP3    H257265   6.579   8.329   0.694
19130TIP3   OH257266   7.057   8.425   0.589
19130TIP3    H157267   7.113   8.390   0.519
19130TIP3    H257268   7.014   8.347   0.626
19131TIP3   OH257269   7.089   8.395   0.191
19131TIP3    H157270   7.009   8.442   0.216
19131TIP3    H257271   7.077   8.307   0.228
19132TIP3   OH257272   8.797   0.502   0.177
19132TIP3    H157273   8.716   0.471   0.136
19132TIP3    H257274   8.806   0.592   0.147
19133TIP3   OH257275   5.985   8.294   0.159
19133TIP3    H157276   6.032   8.234   0.101
19133TIP3    H257277   6.052   8.353   0.192
19134TIP3   OH257278   6.462   8.503   0.260
19134TIP3    H157279   6.523   8.453   0.314
19134TIP3    H257280   6.478   8.594   0.284
19135TIP3   OH257281   3.069   5.268   7.765
19135TIP3    H157282   3.149   5.303   7.727
19135TIP3    H257283   3.050   5.189   7.712
19136TIP3   OH257284   3.779   5.421   7.862
19136TIP3    H157285   3.773   5.326   7.856
19136TIP3    H257286   3.739   5.454   7.782
19137TIP3   OH257287   2.487   5.187   7.775
19137TIP3    H157288   2.429   5.251   7.816
19137TIP3    H257289   2.456   5.102   7.807
19138TIP3   OH257290   7.365   8.748   1.651
19138TIP3    H157291   7.346   8.688   1.722
19138TIP3    H257292   7.459   8.765   1.658
19139TIP3   OH257293   0.736   0.939   1.043
19139TIP3    H157294   0.660   0.910   0.993
19139TIP3    H257295   0.723   1.033   1.054
19140TIP3   OH257296   5.262   4.940   7.765
19140TIP3    H157297   5.240   5.020   7.814
19140TIP3    H257298   5.177   4.901   7.745
19141TIP3   OH257299   2.005   0.306   0.208
19141TIP3    H157300   2.060   0.297   0.286
19141TIP3    H257301   1.963   0.221   0.198
19142TIP3   OH257302   1.306   0.174   0.550
19142TIP3    H157303   1.345   0.124   0.622
19142TIP3    H257304   1.381   0.197   0.494
19143TIP3   OH257305   5.529   5.244   7.852
19143TIP3    H157306   5.527   5.183   7.926
19143TIP3    H257307   5.550   5.329   7.891
19144TIP3   OH257308   1.312   0.601   0.243
19144TIP3    H157309   1.291   0.508   0.245
19144TIP3    H257310   1.408   0.604   0.237
19145TIP3   OH257311   7.518   9.050   0.022
19145TIP3    H157312   7.475   9.133   0.045
19145TIP3    H257313   7.449   8.998  -0.019
19146TIP3   OH257314   1.064   0.117   0.244
19146TIP3    H157315   1.113   0.039   0.270
19146TIP3    H257316   1.130   0.178   0.212
19147TIP3   OH257317   1.827   0.530   0.223
19147TIP3    H157318   1.870   0.449   0.197
19147TIP3    H257319   1.896   0.582   0.264
19148TIP3   OH257320   9.403   9.101   0.222
19148TIP3    H157321   9.411   9.189   0.259
19148TIP3    H257322   9.436   9.109   0.133
19149TIP3   OH257323   8.754   9.260   0.250
19149TIP3    H157324   8.784   9.175   0.280
19149TIP3    H257325   8.714   9.243   0.164
19150TIP3   OH257326   8.117   8.917   0.204
19150TIP3    H157327   8.090   8.990   0.147
19150TIP3    H257328   8.061   8.844   0.176
19151TIP3   OH257329   5.545   4.405   7.858
19151TIP3    H157330   5.608   4.398   7.930
19151TIP3    H257331   5.597   4.438   7.784
19152TIP3   OH257332   7.739   9.139   0.337
19152TIP3    H157333   7.823   9.122   0.380
19152TIP3    H257334   7.741   9.084   0.258
19153TIP3   OH257335   1.621   0.099   0.150
19153TIP3    H157336   1.714   0.080   0.160
19153TIP3    H257337   1.582   0.017   0.121
19154TIP3   OH257338   2.913   0.083   0.396
19154TIP3    H157339   2.823   0.113   0.390
19154TIP3    H257340   2.948   0.125   0.474
19155TIP3   OH257341   8.099   8.929   0.661
19155TIP3    H157342   8.044   8.961   0.590
19155TIP3    H257343   8.047   8.943   0.740
19156TIP3   OH257344   5.070   5.173   7.688
19156TIP3    H157345   5.141   5.155   7.627
19156TIP3    H257346   5.083   5.264   7.715
19157TIP3   OH257347   1.650   0.460   0.426
19157TIP3    H157348   1.598   0.534   0.460
19157TIP3    H257349   1.703   0.499   0.356
19158TIP3   OH257350   8.966   9.046   0.081
19158TIP3    H157351   8.922   9.026   0.163
19158TIP3    H257352   9.022   9.121   0.101
19159TIP3   OH257353   7.992   9.036   0.425
19159TIP3    H157354   8.048   9.109   0.450
19159TIP3    H257355   8.040   8.991   0.355
19160TIP3   OH257356   1.501   0.668   0.530
19160TIP3    H157357   1.489   0.759   0.502
19160TIP3    H257358   1.422   0.649   0.582
19161TIP3   OH257359   4.167   4.984   7.771
19161TIP3    H157360   4.112   5.010   7.697
19161TIP3    H257361   4.186   5.066   7.817
19162TIP3   OH257362   2.317   0.863  -0.001
19162TIP3    H157363   2.260   0.839   0.072
19162TIP3    H257364   2.266   0.927  -0.051
19163TIP3   OH257365   9.208   8.986   0.388
19163TIP3    H157366   9.123   8.973   0.345
19163TIP3    H257367   9.265   9.020   0.319
19164TIP3   OH257368   8.436   8.622   0.394
19164TIP3    H157369   8.429   8.529   0.417
19164TIP3    H257370   8.358   8.662   0.432
19165TIP3   OH257371   5.484   5.289   7.573
19165TIP3    H157372   5.478   5.200   7.539
19165TIP3    H257373   5.498   5.279   7.667
19166TIP3   OH257374   2.548   0.760   0.369
19166TIP3    H157375   2.529   0.687   0.309
19166TIP3    H257376   2.524   0.838   0.320
19167TIP3   OH257377   5.087   4.762   7.599
19167TIP3    H157378   5.039   4.693   7.553
19167TIP3    H257379   5.165   4.777   7.546
19168TIP3   OH257380   5.083   4.590   7.344
19168TIP3    H157381   5.158   4.643   7.373
19168TIP3    H257382   5.122   4.520   7.292
19169TIP3   OH257383   2.722   0.423   0.242
19169TIP3    H157384   2.638   0.468   0.237
19169TIP3    H257385   2.759   0.431   0.154
19170TIP3   OH257386   5.471   4.860   7.607
19170TIP3    H157387   5.412   4.891   7.676
19170TIP3    H257388   5.552   4.837   7.652
19171TIP3   OH257389   2.428   0.276   0.547
19171TIP3    H157390   2.422   0.358   0.595
19171TIP3    H257391   2.348   0.271   0.495
19172TIP3   OH257392   4.706   4.862   7.986
19172TIP3    H157393   4.662   4.798   7.931
19172TIP3    H257394   4.772   4.811   8.033
19173TIP3   OH257395   1.578   0.649   0.149
19173TIP3    H157396   1.564   0.632   0.055
19173TIP3    H257397   1.666   0.614   0.166
19174TIP3   OH257398   1.521   0.224   0.377
19174TIP3    H157399   1.562   0.189   0.298
19174TIP3    H257400   1.568   0.305   0.394
19175TIP3   OH257401   2.153   0.827   0.210
19175TIP3    H157402   2.104   0.909   0.209
19175TIP3    H257403   2.102   0.768   0.265
19176TIP3   OH257404   1.693   0.757   0.711
19176TIP3    H157405   1.631   0.813   0.757
19176TIP3    H257406   1.640   0.707   0.649
19177TIP3   OH257407   5.307   4.731   7.432
19177TIP3    H157408   5.371   4.783   7.480
19177TIP3    H257409   5.336   4.736   7.341
19178TIP3   OH257410   1.451   0.307   0.853
19178TIP3    H157411   1.456   0.401   0.870
19178TIP3    H257412   1.358   0.290   0.840
19179TIP3   OH257413   5.090   5.443   7.726
19179TIP3    H157414   5.157   5.493   7.772
19179TIP3    H257415   5.039   5.508   7.678
19180TIP3   OH257416   1.485   0.918   0.793
19180TIP3    H157417   1.461   0.931   0.701
19180TIP3    H257418   1.402   0.905   0.839
19181TIP3   OH257419   4.569   4.683   7.812
19181TIP3    H157420   4.489   4.722   7.776
19181TIP3    H257421   4.545   4.592   7.831
19182TIP3   OH257422   5.627   5.330   7.049
19182TIP3    H157423   5.619   5.424   7.034
19182TIP3    H257424   5.720   5.311   7.031
19183TIP3   OH257425   1.087   0.484   0.732
19183TIP3    H157426   1.015   0.465   0.671
19183TIP3    H257427   1.122   0.398   0.755
19184TIP3   OH257428   0.921   0.681   0.403
19184TIP3    H157429   1.010   0.708   0.427
19184TIP3    H257430   0.866   0.757   0.424
19185TIP3   OH257431   2.779   1.131   0.446
19185TIP3    H157432   2.785   1.036   0.455
19185TIP3    H257433   2.695   1.154   0.485
19186TIP3   OH257434   1.877   0.907   0.573
19186TIP3    H157435   1.866   0.998   0.602
19186TIP3    H257436   1.812   0.858   0.624
19187TIP3   OH257437   4.940   5.600   7.537
19187TIP3    H157438   4.904   5.579   7.451
19187TIP3    H257439   4.906   5.688   7.556
19188TIP3   OH257440   4.358   5.484   7.900
19188TIP3    H157441   4.406   5.474   7.982
19188TIP3    H257442   4.314   5.400   7.887
19189TIP3   OH257443   5.128   5.552   7.149
19189TIP3    H157444   5.181   5.480   7.115
19189TIP3    H257445   5.165   5.571   7.235
19190TIP3   OH257446   5.188   5.607   7.411
19190TIP3    H157447   5.110   5.595   7.465
19190TIP3    H257448   5.258   5.628   7.473
19191TIP3   OH257449   2.675   0.220   0.698
19191TIP3    H157450   2.592   0.237   0.653
19191TIP3    H257451   2.688   0.125   0.689
19192TIP3   OH257452   1.284   0.673   0.702
19192TIP3    H157453   1.335   0.659   0.782
19192TIP3    H257454   1.212   0.610   0.708
19193TIP3   OH257455   8.202   8.713   0.517
19193TIP3    H157456   8.119   8.681   0.481
19193TIP3    H257457   8.178   8.790   0.568
19194TIP3   OH257458   8.740   8.842   0.729
19194TIP3    H157459   8.806   8.816   0.793
19194TIP3    H257460   8.656   8.826   0.771
19195TIP3   OH257461   2.445   0.013   0.640
19195TIP3    H157462   2.402   0.011   0.725
19195TIP3    H257463   2.423   0.099   0.604
19196TIP3   OH257464   5.366   4.712   7.167
19196TIP3    H157465   5.322   4.720   7.082
19196TIP3    H257466   5.453   4.749   7.152
19197TIP3   OH257467   5.095   4.125   7.493
19197TIP3    H157468   5.055   4.135   7.580
19197TIP3    H257469   5.054   4.047   7.456
19198TIP3   OH257470   1.607   0.007   0.527
19198TIP3    H157471   1.562   0.013   0.611
19198TIP3    H257472   1.583   0.087   0.481
19199TIP3   OH257473   8.013   9.121   0.051
19199TIP3    H157474   7.925   9.095   0.077
19199TIP3    H257475   8.023   9.089  -0.038
19200TIP3   OH257476   5.229   4.582   7.773
19200TIP3    H157477   5.185   4.654   7.727
19200TIP3    H257478   5.291   4.547   7.708
19201TIP3   OH257479   2.143   0.221   0.850
19201TIP3    H157480   2.122   0.152   0.912
19201TIP3    H257481   2.236   0.240   0.867
19202TIP3   OH257482   5.391   4.588   8.001
19202TIP3    H157483   5.325   4.609   7.935
19202TIP3    H257484   5.441   4.516   7.963
19203TIP3   OH257485   1.446   0.030   0.747
19203TIP3    H157486   1.452   0.096   0.816
19203TIP3    H257487   1.431  -0.053   0.794
19204TIP3   OH257488   4.759   4.114   7.470
19204TIP3    H157489   4.745   4.113   7.565
19204TIP3    H257490   4.677   4.149   7.435
19205TIP3   OH257491   7.563   8.794   0.318
19205TIP3    H157492   7.645   8.822   0.359
19205TIP3    H257493   7.589   8.763   0.231
19206TIP3   OH257494   4.197   4.132   7.839
19206TIP3    H157495   4.244   4.162   7.761
19206TIP3    H257496   4.132   4.200   7.856
19207TIP3   OH257497   2.180   0.226   0.422
19207TIP3    H157498   2.201   0.158   0.358
19207TIP3    H257499   2.133   0.179   0.491
19208TIP3   OH257500   8.386   8.916   0.102
19208TIP3    H157501   8.305   8.911   0.154
19208TIP3    H257502   8.456   8.903   0.166
19209TIP3   OH257503   7.775   8.994   0.107
19209TIP3    H157504   7.687   9.001   0.070
19209TIP3    H257505   7.802   8.904   0.091
19210TIP3   OH257506   4.764   4.384   7.806
19210TIP3    H157507   4.859   4.389   7.794
19210TIP3    H257508   4.727   4.397   7.719
19211TIP3   OH257509   8.817   9.000   0.314
19211TIP3    H157510   8.803   9.017   0.407
19211TIP3    H257511   8.749   8.937   0.291
19212TIP3   OH257512   4.653   4.407   7.558
19212TIP3    H157513   4.591   4.352   7.510
19212TIP3    H257514   4.705   4.450   7.490
19213TIP3   OH257515   2.494   1.460   0.532
19213TIP3    H157516   2.495   1.473   0.437
19213TIP3    H257517   2.571   1.507   0.563
19214TIP3   OH257518   1.437   0.579   0.935
19214TIP3    H157519   1.517   0.596   0.984
19214TIP3    H257520   1.367   0.590   0.999
19215TIP3   OH257521   1.892   0.041   0.205
19215TIP3    H157522   1.957  -0.011   0.157
19215TIP3    H257523   1.890   0.001   0.292
19216TIP3   OH257524   7.918   8.746   0.088
19216TIP3    H157525   7.889   8.671   0.139
19216TIP3    H257526   7.933   8.711   0.000
19217TIP3   OH257527   8.404   9.187   0.468
19217TIP3    H157528   8.317   9.217   0.494
19217TIP3    H257529   8.464   9.239   0.522
19218TIP3   OH257530   4.877   4.942   7.593
19218TIP3    H157531   4.799   4.888   7.579
19218TIP3    H257532   4.947   4.879   7.609
19219TIP3   OH257533   2.489   0.559   0.188
19219TIP3    H157534   2.527   0.609   0.116
19219TIP3    H257535   2.410   0.521   0.152
19220TIP3   OH257536   5.344   4.238   7.497
19220TIP3    H157537   5.251   4.216   7.489
19220TIP3    H257538   5.345   4.333   7.504
19221TIP3   OH257539   2.006   0.628   0.636
19221TIP3    H157540   2.063   0.622   0.713
19221TIP3    H257541   1.979   0.720   0.635
19222TIP3   OH257542   5.401   4.501   7.567
19222TIP3    H157543   5.496   4.499   7.580
19222TIP3    H257544   5.387   4.574   7.507
19223TIP3   OH257545   1.298   0.312   0.220
19223TIP3    H157546   1.339   0.298   0.134
19223TIP3    H257547   1.363   0.279   0.283
19224TIP3   OH257548   5.009   5.071   7.389
19224TIP3    H157549   4.963   5.154   7.400
19224TIP3    H257550   4.963   5.010   7.446
19225TIP3   OH257551   1.177   0.246   0.851
19225TIP3    H157552   1.176   0.212   0.941
19225TIP3    H257553   1.101   0.205   0.809
19226TIP3   OH257554   1.915   0.374   0.911
19226TIP3    H157555   1.843   0.319   0.881
19226TIP3    H257556   1.994   0.333   0.874
19227TIP3   OH257557   2.150   0.894   0.530
19227TIP3    H157558   2.054   0.901   0.524
19227TIP3    H257559   2.175   0.952   0.601
19228TIP3   OH257560   5.797   4.595   7.401
19228TIP3    H157561   5.746   4.544   7.338
19228TIP3    H257562   5.809   4.680   7.358
19229TIP3   OH257563   2.794   0.854   0.455
19229TIP3    H157564   2.701   0.832   0.451
19229TIP3    H257565   2.830   0.820   0.373
19230TIP3   OH257566   5.562   5.421   7.340
19230TIP3    H157567   5.533   5.376   7.420
19230TIP3    H257568   5.563   5.353   7.273
19231TIP3   OH257569   2.267   0.421   0.076
19231TIP3    H157570   2.180   0.401   0.111
19231TIP3    H257571   2.301   0.337   0.046
19232TIP3   OH257572   4.654   5.309   7.914
19232TIP3    H157573   4.640   5.374   7.845
19232TIP3    H257574   4.597   5.337   7.986
19233TIP3   OH257575   4.241   4.535   7.623
19233TIP3    H157576   4.287   4.616   7.644
19233TIP3    H257577   4.158   4.542   7.670
19234TIP3   OH257578   4.777   5.087   7.829
19234TIP3    H157579   4.723   5.158   7.862
19234TIP3    H257580   4.752   5.010   7.881
19235TIP3   OH257581   1.702   0.976   0.361
19235TIP3    H157582   1.740   1.049   0.311
19235TIP3    H257583   1.775   0.943   0.413
19236TIP3   OH257584   4.579   5.509   7.737
19236TIP3    H157585   4.494   5.517   7.780
19236TIP3    H257586   4.618   5.596   7.744
19237TIP3   OH257587   2.051   0.616   0.364
19237TIP3    H157588   2.031   0.618   0.458
19237TIP3    H257589   2.144   0.594   0.360
19238TIP3   OH257590   5.318   5.138   7.204
19238TIP3    H157591   5.362   5.111   7.284
19238TIP3    H257592   5.236   5.088   7.203
19239TIP3   OH257593   2.269   1.160   0.348
19239TIP3    H157594   2.195   1.110   0.314
19239TIP3    H257595   2.278   1.235   0.289
19240TIP3   OH257596   5.619   5.604   7.006
19240TIP3    H157597   5.620   5.657   6.926
19240TIP3    H257598   5.556   5.647   7.063
19241TIP3   OH257599   7.932   9.020   0.867
19241TIP3    H157600   7.838   9.033   0.858
19241TIP3    H257601   7.942   8.972   0.949
19242TIP3   OH257602   5.483   5.054   7.415
19242TIP3    H157603   5.479   4.983   7.479
19242TIP3    H257604   5.577   5.062   7.395
19243TIP3   OH257605   1.132   0.872   0.516
19243TIP3    H157606   1.187   0.816   0.571
19243TIP3    H257607   1.143   0.960   0.554
19244TIP3   OH257608   4.677   5.089   7.223
19244TIP3    H157609   4.677   4.998   7.193
19244TIP3    H257610   4.612   5.091   7.294
19245TIP3   OH257611   4.351   4.789   7.677
19245TIP3    H157612   4.290   4.852   7.717
19245TIP3    H257613   4.371   4.827   7.591
19246TIP3   OH257614   8.773   9.070   0.578
19246TIP3    H157615   8.855   9.109   0.608
19246TIP3    H257616   8.762   8.992   0.633
19247TIP3   OH257617   5.406   4.185   7.762
19247TIP3    H157618   5.380   4.209   7.673
19247TIP3    H257619   5.448   4.263   7.797
19248TIP3   OH257620   4.843   5.261   7.533
19248TIP3    H157621   4.754   5.287   7.511
19248TIP3    H257622   4.895   5.340   7.523
19249TIP3   OH257623   5.047   4.388   7.851
19249TIP3    H157624   5.109   4.456   7.826
19249TIP3    H257625   5.069   4.368   7.942
19250TIP3   OH257626   2.077   0.062   0.618
19250TIP3    H157627   2.097   0.104   0.702
19250TIP3    H257628   2.127  -0.019   0.619
19251TIP3   OH257629   5.212   4.088   7.939
19251TIP3    H157630   5.189   4.166   7.990
19251TIP3    H257631   5.282   4.117   7.881
19252TIP3   OH257632   4.604   5.378   7.495
19252TIP3    H157633   4.590   5.445   7.428
19252TIP3    H257634   4.587   5.422   7.578
19253TIP3   OH257635   4.722   4.106   7.748
19253TIP3    H157636   4.707   4.197   7.776
19253TIP3    H257637   4.817   4.095   7.754
19254TIP3   OH257638   9.233   9.167   0.599
19254TIP3    H157639   9.141   9.189   0.616
19254TIP3    H257640   9.230   9.109   0.523
19255TIP3   OH257641   2.356   0.156   0.005
19255TIP3    H157642   2.280   0.100   0.019
19255TIP3    H257643   2.424   0.119   0.060
19256TIP3   OH257644   4.275   4.258   7.613
19256TIP3    H157645   4.269   4.354   7.610
19256TIP3    H257646   4.210   4.229   7.548
19257TIP3   OH257647   5.598   5.792   7.987
19257TIP3    H157648   5.530   5.771   7.923
19257TIP3    H257649   5.680   5.786   7.939
19258TIP3   OH257650   7.943   8.636   0.455
19258TIP3    H157651   7.913   8.600   0.372
19258TIP3    H257652   7.933   8.564   0.517
19259TIP3   OH257653   4.195   5.250   7.879
19259TIP3    H157654   4.154   5.285   7.959
19259TIP3    H257655   4.149   5.294   7.808
19260TIP3   OH257656   1.132   1.174   0.941
19260TIP3    H157657   1.214   1.178   0.990
19260TIP3    H257658   1.116   1.080   0.930
19261TIP3   OH257659   1.595   1.076   0.990
19261TIP3    H157660   1.686   1.048   0.997
19261TIP3    H257661   1.560   1.025   0.918
19262TIP3   OH257662   4.820   5.300   7.121
19262TIP3    H157663   4.777   5.223   7.157
19262TIP3    H257664   4.894   5.266   7.070
19263TIP3   OH257665   2.207   1.032   0.762
19263TIP3    H157666   2.228   0.961   0.823
19263TIP3    H257667   2.284   1.090   0.766
19264TIP3   OH257668   5.264   5.346   7.031
19264TIP3    H157669   5.299   5.282   7.093
19264TIP3    H257670   5.322   5.341   6.955
19265TIP3   OH257671   1.232   0.588   1.126
19265TIP3    H157672   1.255   0.497   1.140
19265TIP3    H257673   1.145   0.585   1.087
19266TIP3   OH257674   4.487   4.837   7.384
19266TIP3    H157675   4.550   4.807   7.450
19266TIP3    H257676   4.534   4.830   7.301
19267TIP3   OH257677   1.852   0.655   0.914
19267TIP3    H157678   1.808   0.675   0.832
19267TIP3    H257679   1.887   0.566   0.902
19268TIP3   OH257680   5.070   5.012   7.134
19268TIP3    H157681   5.040   5.025   7.224
19268TIP3    H257682   5.053   4.919   7.116
19269TIP3   OH257683   2.321   0.682   0.513
19269TIP3    H157684   2.395   0.718   0.465
19269TIP3    H257685   2.257   0.753   0.516
19270TIP3   OH257686   1.352   0.341   1.138
19270TIP3    H157687   1.420   0.305   1.081
19270TIP3    H257688   1.395   0.353   1.223
19271TIP3   OH257689   4.686   4.747   7.561
19271TIP3    H157690   4.653   4.709   7.642
19271TIP3    H257691   4.719   4.673   7.511
19272TIP3   OH257692   1.713   0.209   0.805
19272TIP3    H157693   1.625   0.245   0.814
19272TIP3    H257694   1.742   0.237   0.718
19273TIP3   OH257695   4.809   4.563   7.390
19273TIP3    H157696   4.773   4.562   7.301
19273TIP3    H257697   4.904   4.564   7.377
19274TIP3   OH257698   2.198   0.577   0.871
19274TIP3    H157699   2.266   0.535   0.818
19274TIP3    H257700   2.188   0.519   0.946
19275TIP3   OH257701   5.592   4.836   7.065
19275TIP3    H157702   5.581   4.796   6.979
19275TIP3    H257703   5.569   4.928   7.052
19276TIP3   OH257704   8.364   9.218   0.900
19276TIP3    H157705   8.359   9.144   0.839
19276TIP3    H257706   8.323   9.291   0.853
19277TIP3   OH257707   8.356   9.016   0.700
19277TIP3    H157708   8.382   9.051   0.615
19277TIP3    H257709   8.266   8.987   0.688
19278TIP3   OH257710   1.822   0.307   0.576
19278TIP3    H157711   1.907   0.350   0.570
19278TIP3    H257712   1.763   0.362   0.523
19279TIP3   OH257713   2.410   0.273   0.944
19279TIP3    H157714   2.456   0.190   0.935
19279TIP3    H257715   2.478   0.340   0.940
19280TIP3   OH257716   2.439   0.519   0.694
19280TIP3    H157717   2.386   0.576   0.639
19280TIP3    H257718   2.529   0.533   0.663
19281TIP3   OH257719   1.726   0.086   1.143
19281TIP3    H157720   1.654   0.025   1.161
19281TIP3    H257721   1.751   0.066   1.052
19282TIP3   OH257722   8.480   8.785   0.800
19282TIP3    H157723   8.434   8.863   0.771
19282TIP3    H257724   8.417   8.714   0.788
19283TIP3   OH257725   8.614   9.247   1.012
19283TIP3    H157726   8.605   9.229   1.105
19283TIP3    H257727   8.527   9.229   0.975
19284TIP3   OH257728   8.860   9.221   0.879
19284TIP3    H157729   8.780   9.213   0.931
19284TIP3    H257730   8.929   9.185   0.935
19285TIP3   OH257731   9.089   9.156   1.024
19285TIP3    H157732   9.097   9.063   1.043
19285TIP3    H257733   9.074   9.198   1.109
19286TIP3   OH257734   8.108   9.108   1.213
19286TIP3    H157735   8.102   9.022   1.170
19286TIP3    H257736   8.138   9.088   1.302
19287TIP3   OH257737   8.565   8.771   1.060
19287TIP3    H157738   8.624   8.696   1.060
19287TIP3    H257739   8.529   8.774   0.972
19288TIP3   OH257740   8.636   8.985   1.216
19288TIP3    H157741   8.623   8.908   1.161
19288TIP3    H257742   8.550   9.028   1.216
19289TIP3   OH257743   4.614   5.580   7.309
19289TIP3    H157744   4.709   5.569   7.299
19289TIP3    H257745   4.588   5.633   7.234
19290TIP3   OH257746   4.091   5.001   7.480
19290TIP3    H157747   4.186   5.005   7.474
19290TIP3    H257748   4.068   4.915   7.447
19291TIP3   OH257749   3.989   5.566   7.965
19291TIP3    H157750   3.924   5.514   7.919
19291TIP3    H257751   4.035   5.503   8.021
19292TIP3   OH257752   0.872   0.775   0.126
19292TIP3    H157753   0.862   0.708   0.194
19292TIP3    H257754   0.924   0.844   0.167
19293TIP3   OH257755   5.871   5.807   7.933
19293TIP3    H157756   5.885   5.828   8.025
19293TIP3    H257757   5.913   5.879   7.886
19294TIP3   OH257758   2.633   1.204   0.212
19294TIP3    H157759   2.576   1.127   0.210
19294TIP3    H257760   2.699   1.182   0.278
19295TIP3   OH257761   2.694   0.909   0.789
19295TIP3    H157762   2.617   0.921   0.844
19295TIP3    H257763   2.737   0.994   0.787
19296TIP3   OH257764   5.761   5.057   7.397
19296TIP3    H157765   5.817   5.128   7.367
19296TIP3    H257766   5.809   5.017   7.470
19297TIP3   OH257767   5.892   4.910   7.595
19297TIP3    H157768   5.826   4.869   7.651
19297TIP3    H257769   5.958   4.943   7.656
19298TIP3   OH257770   5.949   5.313   8.035
19298TIP3    H157771   5.995   5.248   7.982
19298TIP3    H257772   5.947   5.391   7.980
19299TIP3   OH257773   2.464   0.981   0.221
19299TIP3    H157774   2.389   1.025   0.261
19299TIP3    H257775   2.430   0.948   0.137
19300TIP3   OH257776   5.795   4.826   7.251
19300TIP3    H157777   5.724   4.821   7.188
19300TIP3    H257778   5.779   4.907   7.300
19301TIP3   OH257779   5.621   4.496   7.212
19301TIP3    H157780   5.613   4.527   7.121
19301TIP3    H257781   5.615   4.401   7.204
19302TIP3   OH257782   5.697   4.768   7.739
19302TIP3    H157783   5.703   4.674   7.722
19302TIP3    H257784   5.679   4.774   7.833
19303TIP3   OH257785   1.046   0.225   0.493
19303TIP3    H157786   1.037   0.193   0.404
19303TIP3    H257787   1.140   0.219   0.511
19304TIP3   OH257788   2.692   0.563   0.591
19304TIP3    H157789   2.763   0.501   0.571
19304TIP3    H257790   2.687   0.619   0.514
19305TIP3   OH257791   2.881   0.360   0.583
19305TIP3    H157792   2.808   0.313   0.624
19305TIP3    H257793   2.959   0.310   0.607
19306TIP3   OH257794   5.614   4.224   7.193
19306TIP3    H157795   5.709   4.216   7.206
19306TIP3    H257796   5.577   4.148   7.236
19307TIP3   OH257797   5.685   4.492   7.630
19307TIP3    H157798   5.728   4.406   7.636
19307TIP3    H257799   5.725   4.534   7.554
19308TIP3   OH257800   2.574   0.039   0.145
19308TIP3    H157801   2.653   0.059   0.095
19308TIP3    H257802   2.590   0.079   0.231
19309TIP3   OH257803   2.649   0.191   0.372
19309TIP3    H157804   2.574   0.218   0.425
19309TIP3    H257805   2.678   0.270   0.328
19310TIP3   OH257806   7.861   9.214   1.188
19310TIP3    H157807   7.953   9.190   1.196
19310TIP3    H257808   7.815   9.132   1.169
19311TIP3   OH257809   9.651   9.033   0.901
19311TIP3    H157810   9.712   8.975   0.855
19311TIP3    H257811   9.598   9.073   0.831
19312TIP3   OH257812   5.790   4.235   7.663
19312TIP3    H157813   5.836   4.213   7.744
19312TIP3    H257814   5.735   4.159   7.645
19313TIP3   OH257815   7.784   8.856   0.475
19313TIP3    H157816   7.836   8.776   0.478
19313TIP3    H257817   7.849   8.925   0.459
19314TIP3   OH257818   7.550   9.133   0.551
19314TIP3    H157819   7.598   9.103   0.474
19314TIP3    H257820   7.577   9.224   0.563
19315TIP3   OH257821   9.470   9.174   0.736
19315TIP3    H157822   9.429   9.209   0.815
19315TIP3    H257823   9.397   9.161   0.676
19316TIP3   OH257824   5.884   4.200   7.246
19316TIP3    H157825   5.925   4.115   7.225
19316TIP3    H257826   5.936   4.264   7.197
19317TIP3   OH257827   7.543   8.642   0.072
19317TIP3    H157828   7.457   8.616   0.106
19317TIP3    H257829   7.523   8.687  -0.010
19318TIP3   OH257830   5.369   5.735   7.570
19318TIP3    H157831   5.454   5.723   7.528
19318TIP3    H257832   5.378   5.695   7.657
19319TIP3   OH257833   7.798   8.654   0.783
19319TIP3    H157834   7.770   8.672   0.872
19319TIP3    H257835   7.742   8.709   0.728
19320TIP3   OH257836   1.261   0.894   0.958
19320TIP3    H157837   1.167   0.874   0.949
19320TIP3    H257838   1.279   0.884   1.051
19321TIP3   OH257839   1.474   0.946   0.511
19321TIP3    H157840   1.424   1.021   0.480
19321TIP3    H257841   1.559   0.954   0.467
19322TIP3   OH257842   1.866   1.175   0.645
19322TIP3    H157843   1.903   1.171   0.733
19322TIP3    H257844   1.931   1.224   0.594
19323TIP3   OH257845   2.062   1.317   0.511
19323TIP3    H157846   2.126   1.268   0.459
19323TIP3    H257847   2.116   1.376   0.564
19324TIP3   OH257848   1.133   1.174   0.556
19324TIP3    H157849   1.041   1.191   0.534
19324TIP3    H257850   1.154   1.242   0.621
19325TIP3   OH257851   1.364   1.175   0.407
19325TIP3    H157852   1.280   1.178   0.453
19325TIP3    H257853   1.341   1.198   0.316
19326TIP3   OH257854   1.783   1.186   0.202
19326TIP3    H157855   1.713   1.202   0.139
19326TIP3    H257856   1.799   1.272   0.241
19327TIP3   OH257857   2.044   1.079   0.183
19327TIP3    H157858   1.956   1.116   0.190
19327TIP3    H257859   2.059   1.072   0.089
19328TIP3   OH257860   2.285   1.364   0.165
19328TIP3    H157861   2.261   1.443   0.116
19328TIP3    H257862   2.293   1.296   0.099
19329TIP3   OH257863   1.048   0.955   0.262
19329TIP3    H157864   1.071   0.932   0.353
19329TIP3    H257865   1.121   0.920   0.210
19330TIP3   OH257866   1.253   0.836   0.124
19330TIP3    H157867   1.262   0.756   0.175
19330TIP3    H257868   1.336   0.882   0.136
19331TIP3   OH257869   1.515   0.924   0.161
19331TIP3    H157870   1.540   0.833   0.145
19331TIP3    H257871   1.570   0.952   0.234
19332TIP3   OH257872   8.609   8.815   0.247
19332TIP3    H157873   8.565   8.746   0.296
19332TIP3    H257874   8.676   8.770   0.196
19333TIP3   OH257875   9.107   8.739   0.134
19333TIP3    H157876   9.143   8.785   0.058
19333TIP3    H257877   9.013   8.756   0.130
19334TIP3   OH257878   5.952   4.183   7.888
19334TIP3    H157879   6.023   4.123   7.863
19334TIP3    H257880   5.990   4.270   7.876
19335TIP3   OH257881   7.846   8.518   0.227
19335TIP3    H157882   7.758   8.485   0.239
19335TIP3    H257883   7.901   8.440   0.219
19336TIP3   OH257884   4.420   3.826   7.913
19336TIP3    H157885   4.436   3.867   7.828
19336TIP3    H257886   4.378   3.894   7.966
19337TIP3   OH257887   8.334   8.560   0.133
19337TIP3    H157888   8.381   8.609   0.066
19337TIP3    H257889   8.371   8.590   0.216
19338TIP3   OH257890   8.821   8.687   0.119
19338TIP3    H157891   8.832   8.650   0.031
19338TIP3    H257892   8.835   8.612   0.177
19339TIP3   OH257893   5.597   4.019   7.624
19339TIP3    H157894   5.532   4.075   7.668
19339TIP3    H257895   5.603   3.941   7.679
19340TIP3   OH257896   4.076   5.376   7.669
19340TIP3    H157897   3.992   5.342   7.639
19340TIP3    H257898   4.081   5.464   7.632
19341TIP3   OH257899   4.514   3.933   7.660
19341TIP3    H157900   4.560   3.867   7.608
19341TIP3    H257901   4.583   3.991   7.693
19342TIP3   OH257902   4.998   4.136   7.753
19342TIP3    H157903   5.054   4.081   7.806
19342TIP3    H257904   5.015   4.225   7.784
19343TIP3   OH257905   4.882   5.519   7.276
19343TIP3    H157906   4.962   5.547   7.232
19343TIP3    H257907   4.853   5.442   7.226
19344TIP3   OH257908   5.574   5.689   7.371
19344TIP3    H157909   5.574   5.593   7.363
19344TIP3    H257910   5.534   5.719   7.290
19345TIP3   OH257911   8.110   8.845   1.151
19345TIP3    H157912   8.081   8.755   1.135
19345TIP3    H257913   8.203   8.837   1.170
19346TIP3   OH257914   8.366   8.808   1.249
19346TIP3    H157915   8.436   8.781   1.190
19346TIP3    H257916   8.365   8.742   1.318
19347TIP3   OH257917   4.180   5.377   7.310
19347TIP3    H157918   4.185   5.391   7.404
19347TIP3    H257919   4.260   5.328   7.289
19348TIP3   OH257920   9.147   8.887   1.056
19348TIP3    H157921   9.144   8.852   1.145
19348TIP3    H257922   9.239   8.881   1.031
19349TIP3   OH257923   2.515   1.185   0.522
19349TIP3    H157924   2.437   1.157   0.473
19349TIP3    H257925   2.504   1.279   0.532
19350TIP3   OH257926   7.028   5.168   7.267
19350TIP3    H157927   7.001   5.251   7.228
19350TIP3    H257928   6.991   5.170   7.355
19351TIP3   OH257929   7.075   5.181   7.688
19351TIP3    H157930   7.126   5.171   7.768
19351TIP3    H257931   7.029   5.097   7.679
19352TIP3   OH257932   3.105   0.429   0.043
19352TIP3    H157933   3.144   0.377   0.113
19352TIP3    H257934   3.179   0.454  -0.013
19353TIP3   OH257935   7.326   5.500   7.365
19353TIP3    H157936   7.322   5.433   7.433
19353TIP3    H257937   7.354   5.579   7.412
19354TIP3   OH257938   6.375   5.484   7.727
19354TIP3    H157939   6.354   5.391   7.736
19354TIP3    H257940   6.470   5.487   7.720
19355TIP3   OH257941   6.042   4.675   7.525
19355TIP3    H157942   6.000   4.760   7.540
19355TIP3    H257943   5.976   4.625   7.477
19356TIP3   OH257944   6.120   4.986   7.741
19356TIP3    H157945   6.172   4.908   7.763
19356TIP3    H257946   6.184   5.046   7.702
19357TIP3   OH257947   7.014   6.026   7.335
19357TIP3    H157948   7.032   5.952   7.277
19357TIP3    H257949   6.990   5.986   7.419
19358TIP3   OH257950   6.889   5.405   7.702
19358TIP3    H157951   6.934   5.323   7.679
19358TIP3    H257952   6.957   5.461   7.738
19359TIP3   OH257953   7.916   4.730   7.719
19359TIP3    H157954   7.931   4.816   7.758
19359TIP3    H257955   7.946   4.739   7.629
19360TIP3   OH257956   7.283   4.898   7.732
19360TIP3    H157957   7.313   4.813   7.764
19360TIP3    H257958   7.245   4.880   7.646
19361TIP3   OH257959   6.647   4.552   7.690
19361TIP3    H157960   6.621   4.626   7.636
19361TIP3    H257961   6.593   4.479   7.659
19362TIP3   OH257962   7.344   4.658   7.332
19362TIP3    H157963   7.405   4.653   7.406
19362TIP3    H257964   7.398   4.688   7.258
19363TIP3   OH257965   6.266   4.766   7.828
19363TIP3    H157966   6.351   4.749   7.869
19363TIP3    H257967   6.269   4.716   7.747
19364TIP3   OH257968   6.685   4.972   7.649
19364TIP3    H157969   6.779   4.954   7.654
19364TIP3    H257970   6.647   4.890   7.619
19365TIP3   OH257971   7.969   4.957   7.877
19365TIP3    H157972   7.878   4.987   7.877
19365TIP3    H257973   8.005   4.989   7.961
19366TIP3   OH257974   0.089   9.182   0.148
19366TIP3    H157975   0.039   9.216   0.073
19366TIP3    H257976   0.033   9.201   0.223
19367TIP3   OH257977   6.962   5.409   7.143
19367TIP3    H157978   6.913   5.381   7.066
19367TIP3    H257979   6.918   5.490   7.170
19368TIP3   OH257980   6.714   5.340   7.909
19368TIP3    H157981   6.660   5.412   7.942
19368TIP3    H257982   6.762   5.378   7.836
19369TIP3   OH257983   7.489   4.691   7.560
19369TIP3    H157984   7.449   4.666   7.643
19369TIP3    H257985   7.548   4.764   7.582
19370TIP3   OH257986   6.517   4.663   7.913
19370TIP3    H157987   6.572   4.738   7.935
19370TIP3    H257988   6.563   4.620   7.842
19371TIP3   OH257989   3.294   0.924   0.015
19371TIP3    H157990   3.280   1.014  -0.013
19371TIP3    H257991   3.215   0.902   0.066
19372TIP3   OH257992   5.933   5.247   7.281
19372TIP3    H157993   5.901   5.261   7.192
19372TIP3    H257994   5.954   5.334   7.314
19373TIP3   OH257995   7.379   5.744   7.501
19373TIP3    H157996   7.298   5.736   7.551
19373TIP3    H257997   7.372   5.828   7.457
19374TIP3   OH257998   7.712   4.628   7.887
19374TIP3    H157999   7.629   4.642   7.842
19374TIP3    H258000   7.779   4.651   7.823
19375TIP3   OH258001   6.968   4.255   7.889
19375TIP3    H158002   6.961   4.162   7.913
19375TIP3    H258003   6.889   4.295   7.925
19376TIP3   OH258004   7.109   5.800   7.161
19376TIP3    H158005   7.152   5.714   7.162
19376TIP3    H258006   7.181   5.863   7.151
19377TIP3   OH258007   7.221   5.499   7.112
19377TIP3    H158008   7.132   5.470   7.131
19377TIP3    H258009   7.265   5.498   7.196
19378TIP3   OH258010   7.617   5.616   7.853
19378TIP3    H158011   7.590   5.544   7.795
19378TIP3    H258012   7.607   5.695   7.800
19379TIP3   OH258013   7.788   5.301   7.729
19379TIP3    H158014   7.701   5.340   7.719
19379TIP3    H258015   7.826   5.305   7.641
19380TIP3   OH258016   7.231   5.097   7.099
19380TIP3    H158017   7.171   5.119   7.170
19380TIP3    H258018   7.312   5.071   7.144
19381TIP3   OH258019   4.219   0.532   0.028
19381TIP3    H158020   4.212   0.615   0.075
19381TIP3    H258021   4.137   0.527  -0.022
19382TIP3   OH258022   6.480   5.096   7.496
19382TIP3    H158023   6.442   5.038   7.430
19382TIP3    H258024   6.551   5.045   7.535
19383TIP3   OH258025   6.638   5.528   7.630
19383TIP3    H158026   6.608   5.511   7.541
19383TIP3    H258027   6.724   5.486   7.635
19384TIP3   OH258028   6.585   5.101   7.871
19384TIP3    H158029   6.623   5.064   7.792
19384TIP3    H258030   6.632   5.183   7.885
19385TIP3   OH258031   7.159   5.732   7.657
19385TIP3    H158032   7.136   5.813   7.702
19385TIP3    H258033   7.133   5.663   7.717
19386TIP3   OH258034   3.492   1.007   0.191
19386TIP3    H158035   3.433   1.066   0.238
19386TIP3    H258036   3.434   0.960   0.130
19387TIP3   OH258037   3.242   0.557   0.344
19387TIP3    H158038   3.246   0.652   0.356
19387TIP3    H258039   3.149   0.538   0.333
19388TIP3   OH258040   6.861   5.665   7.178
19388TIP3    H158041   6.934   5.727   7.180
19388TIP3    H258042   6.793   5.709   7.127
19389TIP3   OH258043   3.281   1.167   0.275
19389TIP3    H158044   3.257   1.182   0.183
19389TIP3    H258045   3.198   1.153   0.320
19390TIP3   OH258046   7.601   4.213   6.983
19390TIP3    H158047   7.523   4.232   7.035
19390TIP3    H258048   7.609   4.288   6.924
19391TIP3   OH258049   6.357   4.942   7.292
19391TIP3    H158050   6.279   4.989   7.265
19391TIP3    H258051   6.332   4.850   7.289
19392TIP3   OH258052   7.435   5.597   6.541
19392TIP3    H158053   7.425   5.688   6.512
19392TIP3    H258054   7.524   5.573   6.514
19393TIP3   OH258055   2.881   0.733   0.226
19393TIP3    H158056   2.811   0.716   0.163
19393TIP3    H258057   2.913   0.646   0.250
19394TIP3   OH258058   5.983   5.556   7.896
19394TIP3    H158059   6.068   5.592   7.923
19394TIP3    H258060   5.922   5.629   7.909
19395TIP3   OH258061   7.842   6.011   7.898
19395TIP3    H158062   7.848   5.917   7.916
19395TIP3    H258063   7.766   6.040   7.949
19396TIP3   OH258064   3.673   1.152   0.044
19396TIP3    H158065   3.658   1.243   0.072
19396TIP3    H258066   3.610   1.101   0.095
19397TIP3   OH258067   6.733   5.885   7.003
19397TIP3    H158068   6.682   5.858   6.927
19397TIP3    H258069   6.690   5.964   7.035
19398TIP3   OH258070   6.163   5.735   7.381
19398TIP3    H158071   6.204   5.727   7.468
19398TIP3    H258072   6.110   5.656   7.373
19399TIP3   OH258073   6.936   5.821   6.636
19399TIP3    H158074   6.981   5.745   6.600
19399TIP3    H258075   6.971   5.830   6.724
19400TIP3   OH258076   6.989   5.861   6.909
19400TIP3    H158077   6.898   5.866   6.940
19400TIP3    H258078   7.038   5.827   6.984
19401TIP3   OH258079   4.462   0.479   0.168
19401TIP3    H158080   4.376   0.492   0.129
19401TIP3    H258081   4.479   0.385   0.158
19402TIP3   OH258082   3.077   0.922   0.187
19402TIP3    H158083   3.127   0.911   0.268
19402TIP3    H258084   3.005   0.859   0.194
19403TIP3   OH258085   0.192   8.963   0.008
19403TIP3    H158086   0.110   8.928  -0.026
19403TIP3    H258087   0.168   9.044   0.053
19404TIP3   OH258088   0.728   9.093   0.210
19404TIP3    H158089   0.797   9.066   0.270
19404TIP3    H258090   0.647   9.076   0.258
19405TIP3   OH258091   4.220   0.269   0.124
19405TIP3    H158092   4.179   0.262   0.211
19405TIP3    H258093   4.203   0.358   0.096
19406TIP3   OH258094   7.163   5.060   6.751
19406TIP3    H158095   7.082   5.025   6.714
19406TIP3    H258096   7.226   5.056   6.679
19407TIP3   OH258097   6.876   4.375   6.968
19407TIP3    H158098   6.841   4.388   7.056
19407TIP3    H258099   6.833   4.295   6.937
19408TIP3   OH258100   3.398   0.257   0.014
19408TIP3    H158101   3.353   0.263   0.098
19408TIP3    H258102   3.376   0.338  -0.031
19409TIP3   OH258103   6.542   4.761   7.547
19409TIP3    H158104   6.453   4.733   7.567
19409TIP3    H258105   6.556   4.732   7.457
19410TIP3   OH258106   7.051   4.858   7.240
19410TIP3    H158107   7.023   4.947   7.219
19410TIP3    H258108   7.101   4.830   7.163
19411TIP3   OH258109   3.943   0.468   0.324
19411TIP3    H158110   3.916   0.404   0.390
19411TIP3    H258111   4.037   0.480   0.340
19412TIP3   OH258112   7.196   4.844   7.478
19412TIP3    H158113   7.133   4.863   7.408
19412TIP3    H258114   7.246   4.769   7.445
19413TIP3   OH258115   3.240   0.278   0.237
19413TIP3    H158116   3.246   0.343   0.306
19413TIP3    H258117   3.221   0.196   0.283
19414TIP3   OH258118   6.546   4.371   6.983
19414TIP3    H158119   6.529   4.356   7.076
19414TIP3    H258120   6.464   4.409   6.950
19415TIP3   OH258121   6.089   4.409   7.828
19415TIP3    H158122   6.160   4.446   7.880
19415TIP3    H258123   6.110   4.432   7.738
19416TIP3   OH258124   7.239   5.102   7.905
19416TIP3    H158125   7.262   5.034   7.842
19416TIP3    H258126   7.193   5.055   7.975
19417TIP3   OH258127   6.919   4.559   7.584
19417TIP3    H158128   6.838   4.552   7.634
19417TIP3    H258129   6.988   4.541   7.648
19418TIP3   OH258130   6.304   4.628   7.596
19418TIP3    H158131   6.217   4.633   7.557
19418TIP3    H258132   6.335   4.540   7.574
19419TIP3   OH258133   6.578   4.652   7.301
19419TIP3    H158134   6.670   4.661   7.276
19419TIP3    H258135   6.530   4.665   7.220
19420TIP3   OH258136   7.349   4.638   7.797
19420TIP3    H158137   7.332   4.654   7.890
19420TIP3    H258138   7.283   4.573   7.772
19421TIP3   OH258139   6.429   4.676   7.074
19421TIP3    H158140   6.366   4.613   7.040
19421TIP3    H258141   6.477   4.707   6.997
19422TIP3   OH258142   7.490   6.320   7.960
19422TIP3    H158143   7.507   6.334   7.867
19422TIP3    H258144   7.564   6.362   8.005
19423TIP3   OH258145   3.224   0.827   0.423
19423TIP3    H158146   3.304   0.849   0.471
19423TIP3    H258147   3.154   0.839   0.486
19424TIP3   OH258148   6.958   4.918   7.692
19424TIP3    H158149   7.017   4.859   7.645
19424TIP3    H258150   6.953   4.881   7.780
19425TIP3   OH258151   6.451   4.384   7.572
19425TIP3    H158152   6.423   4.303   7.614
19425TIP3    H258153   6.472   4.359   7.482
19426TIP3   OH258154   6.929   4.824   7.953
19426TIP3    H158155   6.842   4.853   7.981
19426TIP3    H258156   6.990   4.875   8.007
19427TIP3   OH258157   6.611   5.224   7.063
19427TIP3    H158158   6.562   5.143   7.053
19427TIP3    H258159   6.616   5.238   7.158
19428TIP3   OH258160   7.551   5.427   7.668
19428TIP3    H158161   7.587   5.477   7.594
19428TIP3    H258162   7.472   5.385   7.632
19429TIP3   OH258163   7.117   4.495   6.993
19429TIP3    H158164   7.029   4.459   6.981
19429TIP3    H258165   7.107   4.590   6.982
19430TIP3   OH258166   3.812   0.880   0.101
19430TIP3    H158167   3.865   0.857   0.177
19430TIP3    H258168   3.773   0.965   0.124
19431TIP3   OH258169   7.213   4.778   7.012
19431TIP3    H158170   7.301   4.762   7.047
19431TIP3    H258171   7.224   4.775   6.917
19432TIP3   OH258172   6.362   5.201   7.722
19432TIP3    H158173   6.395   5.175   7.637
19432TIP3    H258174   6.425   5.165   7.785
19433TIP3   OH258175   6.815   5.331   6.920
19433TIP3    H158176   6.778   5.419   6.910
19433TIP3    H258177   6.746   5.282   6.966
19434TIP3   OH258178   2.969   0.494   0.353
19434TIP3    H158179   2.966   0.468   0.445
19434TIP3    H258180   2.893   0.452   0.314
19435TIP3   OH258181   3.713   0.629   0.371
19435TIP3    H158182   3.643   0.569   0.344
19435TIP3    H258183   3.794   0.586   0.341
19436TIP3   OH258184   7.205   5.800   7.961
19436TIP3    H158185   7.112   5.778   7.968
19436TIP3    H258186   7.227   5.838   8.047
19437TIP3   OH258187   7.602   4.849   6.865
19437TIP3    H158188   7.536   4.806   6.810
19437TIP3    H258189   7.613   4.935   6.827
19438TIP3   OH258190   7.858   5.734   7.928
19438TIP3    H158191   7.768   5.703   7.941
19438TIP3    H258192   7.884   5.697   7.844
19439TIP3   OH258193   7.351   5.661   6.798
19439TIP3    H158194   7.319   5.583   6.844
19439TIP3    H258195   7.377   5.629   6.712
19440TIP3   OH258196   7.325   5.292   7.563
19440TIP3    H158197   7.239   5.269   7.598
19440TIP3    H258198   7.361   5.209   7.532
19441TIP3   OH258199   6.483   5.520   7.395
19441TIP3    H158200   6.475   5.595   7.337
19441TIP3    H258201   6.394   5.506   7.430
19442TIP3   OH258202   5.986   4.871   7.055
19442TIP3    H158203   6.048   4.930   7.097
19442TIP3    H258204   5.931   4.839   7.126
19443TIP3   OH258205   6.605   5.280   7.329
19443TIP3    H158206   6.569   5.367   7.347
19443TIP3    H258207   6.561   5.223   7.392
19444TIP3   OH258208   6.763   5.855   7.842
19444TIP3    H158209   6.805   5.925   7.792
19444TIP3    H258210   6.833   5.819   7.896
19445TIP3   OH258211   6.402   5.743   7.246
19445TIP3    H158212   6.313   5.750   7.281
19445TIP3    H258213   6.437   5.832   7.250
19446TIP3   OH258214   7.114   5.512   7.829
19446TIP3    H158215   7.094   5.508   7.923
19446TIP3    H258216   7.200   5.470   7.822
19447TIP3   OH258217   7.116   5.400   6.682
19447TIP3    H158218   7.152   5.380   6.769
19447TIP3    H258219   7.034   5.350   6.678
19448TIP3   OH258220   7.377   5.980   7.833
19448TIP3    H158221   7.309   5.922   7.867
19448TIP3    H258222   7.331   6.039   7.774
19449TIP3   OH258223   7.412   5.867   6.490
19449TIP3    H158224   7.409   5.916   6.408
19449TIP3    H258225   7.348   5.911   6.546
19450TIP3   OH258226   3.186   0.024   0.355
19450TIP3    H158227   3.091   0.034   0.359
19450TIP3    H258228   3.209  -0.022   0.435
19451TIP3   OH258229   7.276   5.322   6.909
19451TIP3    H158230   7.261   5.384   6.979
19451TIP3    H258231   7.370   5.326   6.892
19452TIP3   OH258232   2.925   1.117   0.004
19452TIP3    H158233   2.981   1.061   0.058
19452TIP3    H258234   2.933   1.204   0.043
19453TIP3   OH258235   6.464   5.360   6.694
19453TIP3    H158236   6.473   5.268   6.667
19453TIP3    H258237   6.443   5.355   6.787
19454TIP3   OH258238   6.402   5.377   6.961
19454TIP3    H158239   6.476   5.337   7.005
19454TIP3    H258240   6.411   5.471   6.978
19455TIP3   OH258241   6.134   5.073   7.191
19455TIP3    H158242   6.069   5.120   7.243
19455TIP3    H258243   6.153   5.132   7.118
19456TIP3   OH258244   4.027   0.080   0.058
19456TIP3    H158245   4.105   0.123   0.091
19456TIP3    H258246   4.016   0.004   0.115
19457TIP3   OH258247   7.190   4.441   7.254
19457TIP3    H158248   7.164   4.460   7.164
19457TIP3    H258249   7.237   4.519   7.282
19458TIP3   OH258250   6.695   5.573   6.913
19458TIP3    H158251   6.609   5.588   6.952
19458TIP3    H258252   6.705   5.644   6.849
19459TIP3   OH258253   6.868   4.656   7.323
19459TIP3    H158254   6.930   4.724   7.298
19459TIP3    H258255   6.888   4.638   7.415
19460TIP3   OH258256   3.871   0.316   0.098
19460TIP3    H158257   3.894   0.357   0.181
19460TIP3    H258258   3.919   0.233   0.098
19461TIP3   OH258259   7.004   4.337   7.430
19461TIP3    H158260   6.981   4.417   7.478
19461TIP3    H258261   7.076   4.365   7.372
19462TIP3   OH258262   6.443   5.647   6.993
19462TIP3    H158263   6.417   5.718   6.935
19462TIP3    H258264   6.425   5.680   7.081
19463TIP3   OH258265   6.541   4.373   7.302
19463TIP3    H158266   6.532   4.469   7.304
19463TIP3    H258267   6.631   4.358   7.276
19464TIP3   OH258268   4.481   0.205   0.093
19464TIP3    H158269   4.387   0.215   0.110
19464TIP3    H258270   4.486   0.139   0.024
19465TIP3   OH258271   7.417   5.034   7.485
19465TIP3    H158272   7.344   4.974   7.499
19465TIP3    H258273   7.488   4.999   7.539
19466TIP3   OH258274   6.160   5.243   6.971
19466TIP3    H158275   6.232   5.307   6.974
19466TIP3    H258276   6.190   5.178   6.907
19467TIP3   OH258277   7.378   6.001   7.388
19467TIP3    H158278   7.353   5.991   7.296
19467TIP3    H258279   7.470   6.026   7.385
19468TIP3   OH258280   6.463   4.255   7.966
19468TIP3    H158281   6.434   4.226   7.880
19468TIP3    H258282   6.452   4.179   8.023
19469TIP3   OH258283   5.981   5.520   7.354
19469TIP3    H158284   5.934   5.555   7.430
19469TIP3    H258285   5.939   5.560   7.278
19470TIP3   OH258286   2.914   1.426   0.431
19470TIP3    H158287   2.996   1.427   0.479
19470TIP3    H258288   2.889   1.334   0.427
19471TIP3   OH258289   3.379   1.329   0.473
19471TIP3    H158290   3.470   1.303   0.483
19471TIP3    H258291   3.346   1.276   0.401
19472TIP3   OH258292   6.615   5.562   6.590
19472TIP3    H158293   6.563   5.494   6.632
19472TIP3    H258294   6.687   5.516   6.548
19473TIP3   OH258295   3.991   1.273   0.207
19473TIP3    H158296   3.998   1.199   0.267
19473TIP3    H258297   4.070   1.324   0.223
19474TIP3   OH258298   7.050   5.605   6.512
19474TIP3    H158299   7.092   5.541   6.569
19474TIP3    H258300   7.101   5.602   6.431
19475TIP3   OH258301   3.020   0.828   0.614
19475TIP3    H158302   3.036   0.735   0.625
19475TIP3    H258303   2.934   0.834   0.573
19476TIP3   OH258304   6.288   5.057   6.817
19476TIP3    H158305   6.339   5.030   6.893
19476TIP3    H258306   6.354   5.070   6.748
19477TIP3   OH258307   3.644   0.901   0.394
19477TIP3    H158308   3.599   0.924   0.313
19477TIP3    H258309   3.679   0.814   0.378
19478TIP3   OH258310   6.884   5.256   6.663
19478TIP3    H158311   6.846   5.271   6.750
19478TIP3    H258312   6.880   5.161   6.652
19479TIP3   OH258313   7.380   5.580   7.998
19479TIP3    H158314   7.459   5.609   7.952
19479TIP3    H258315   7.316   5.649   7.982
19480TIP3   OH258316   3.137   0.573   0.626
19480TIP3    H158317   3.208   0.561   0.563
19480TIP3    H258318   3.180   0.593   0.709
19481TIP3   OH258319   6.463   4.994   7.031
19481TIP3    H158320   6.434   4.962   7.116
19481TIP3    H258321   6.505   4.918   6.990
19482TIP3   OH258322   3.504   0.460   0.285
19482TIP3    H158323   3.417   0.498   0.297
19482TIP3    H258324   3.531   0.489   0.197
19483TIP3   OH258325   6.576   4.793   6.871
19483TIP3    H158326   6.534   4.808   6.787
19483TIP3    H258327   6.664   4.763   6.850
19484TIP3   OH258328   3.989   0.803   0.327
19484TIP3    H158329   4.069   0.772   0.284
19484TIP3    H258330   3.982   0.749   0.406
19485TIP3   OH258331   7.367   5.089   6.562
19485TIP3    H158332   7.356   5.046   6.477
19485TIP3    H258333   7.358   5.183   6.543
19486TIP3   OH258334   3.605   0.228   0.391
19486TIP3    H158335   3.609   0.158   0.326
19486TIP3    H258336   3.572   0.304   0.344
19487TIP3   OH258337   3.613   0.033   0.185
19487TIP3    H158338   3.641   0.067   0.100
19487TIP3    H258339   3.523   0.004   0.170
19488TIP3   OH258340   3.612   0.559   0.056
19488TIP3    H158341   3.699   0.599   0.052
19488TIP3    H258342   3.556   0.617   0.004
19489TIP3   OH258343   4.214   0.501   0.419
19489TIP3    H158344   4.258   0.417   0.434
19489TIP3    H258345   4.285   0.566   0.423
19490TIP3   OH258346   4.233   0.779   0.161
19490TIP3    H158347   4.179   0.843   0.113
19490TIP3    H258348   4.321   0.790   0.124
19491TIP3   OH258349   3.488   0.304   0.634
19491TIP3    H158350   3.420   0.239   0.653
19491TIP3    H258351   3.518   0.283   0.546
19492TIP3   OH258352   0.465   9.042   0.292
19492TIP3    H158353   0.425   9.122   0.257
19492TIP3    H258354   0.399   8.974   0.279
19493TIP3   OH258355   3.861   0.269   0.496
19493TIP3    H158356   3.853   0.256   0.590
19493TIP3    H258357   3.774   0.246   0.461
19494TIP3   OH258358   4.100   0.215   0.359
19494TIP3    H158359   4.025   0.215   0.418
19494TIP3    H258360   4.174   0.187   0.414
19495TIP3   OH258361   4.346   0.177   0.488
19495TIP3    H158362   4.359   0.083   0.500
19495TIP3    H258363   4.334   0.210   0.577
19496TIP3   OH258364   3.321   0.086   0.698
19496TIP3    H158365   3.327  -0.002   0.662
19496TIP3    H258366   3.360   0.079   0.785
19497TIP3   OH258367   0.531   9.014   0.557
19497TIP3    H158368   0.598   8.947   0.551
19497TIP3    H258369   0.502   9.027   0.466
19498TIP3   OH258370   0.629   9.226   0.702
19498TIP3    H158371   0.600   9.153   0.647
19498TIP3    H258372   0.556   9.287   0.702
19499TIP3   OH258373   6.430   5.862   6.816
19499TIP3    H158374   6.516   5.840   6.780
19499TIP3    H258375   6.384   5.904   6.743
19500TIP3   OH258376   5.888   5.249   6.997
19500TIP3    H158377   5.983   5.260   6.989
19500TIP3    H258378   5.870   5.167   6.950
19501TIP3   OH258379   5.792   5.829   7.454
19501TIP3    H158380   5.720   5.779   7.415
19501TIP3    H258381   5.835   5.767   7.512
19502TIP3   OH258382   5.935   5.657   7.617
19502TIP3    H158383   5.925   5.587   7.681
19502TIP3    H258384   5.985   5.725   7.662
19503TIP3   OH258385   7.635   6.084   7.397
19503TIP3    H158386   7.668   6.086   7.487
19503TIP3    H258387   7.701   6.133   7.346
19504TIP3   OH258388   7.696   6.070   7.668
19504TIP3    H158389   7.653   5.984   7.669
19504TIP3    H258390   7.763   6.063   7.737
19505TIP3   OH258391   4.455   1.116   0.247
19505TIP3    H158392   4.375   1.134   0.296
19505TIP3    H258393   4.477   1.200   0.206
19506TIP3   OH258394   7.550   5.311   6.882
19506TIP3    H158395   7.609   5.379   6.849
19506TIP3    H258396   7.598   5.271   6.954
19507TIP3   OH258397   7.679   5.168   7.083
19507TIP3    H158398   7.613   5.126   7.139
19507TIP3    H258399   7.746   5.200   7.144
19508TIP3   OH258400   7.735   5.566   7.507
19508TIP3    H158401   7.788   5.494   7.475
19508TIP3    H258402   7.753   5.638   7.447
19509TIP3   OH258403   7.558   5.831   7.695
19509TIP3    H158404   7.492   5.880   7.743
19509TIP3    H258405   7.511   5.793   7.621
19510TIP3   OH258406   7.595   5.086   6.723
19510TIP3    H158407   7.521   5.079   6.663
19510TIP3    H258408   7.578   5.166   6.772
19511TIP3   OH258409   7.414   4.751   6.693
19511TIP3    H158410   7.388   4.784   6.607
19511TIP3    H258411   7.411   4.656   6.685
19512TIP3   OH258412   7.471   5.019   7.214
19512TIP3    H158413   7.486   4.926   7.199
19512TIP3    H258414   7.462   5.027   7.309
19513TIP3   OH258415   6.105   5.069   8.000
19513TIP3    H158416   6.096   5.046   7.908
19513TIP3    H258417   6.199   5.073   8.015
19514TIP3   OH258418   4.481   0.804   0.043
19514TIP3    H158419   4.550   0.740   0.023
19514TIP3    H258420   4.468   0.852  -0.040
19515TIP3   OH258421   4.676   0.608   0.058
19515TIP3    H158422   4.603   0.563   0.101
19515TIP3    H258423   4.754   0.560   0.084
19516TIP3   OH258424   7.401   4.482   6.659
19516TIP3    H158425   7.472   4.444   6.710
19516TIP3    H258426   7.324   4.431   6.684
19517TIP3   OH258427   7.489   4.748   7.104
19517TIP3    H158428   7.533   4.664   7.118
19517TIP3    H258429   7.532   4.786   7.028
19518TIP3   OH258430   7.633   4.921   7.626
19518TIP3    H158431   7.715   4.937   7.578
19518TIP3    H258432   7.648   4.958   7.713
19519TIP3   OH258433   7.706   5.066   7.854
19519TIP3    H158434   7.633   5.092   7.910
19519TIP3    H258435   7.737   5.148   7.815
19520TIP3   OH258436   3.063   0.157   0.633
19520TIP3    H158437   3.156   0.148   0.652
19520TIP3    H258438   3.022   0.082   0.675
19521TIP3   OH258439   4.899   0.052   0.387
19521TIP3    H158440   4.964  -0.009   0.353
19521TIP3    H258441   4.864   0.096   0.309
19522TIP3   OH258442   7.598   4.499   7.161
19522TIP3    H158443   7.642   4.483   7.244
19522TIP3    H258444   7.535   4.427   7.153
19523TIP3   OH258445   6.306   4.484   7.991
19523TIP3    H158446   6.357   4.403   7.990
19523TIP3    H258447   6.368   4.552   7.965
19524TIP3   OH258448   2.812   0.140   0.039
19524TIP3    H158449   2.868   0.121  -0.036
19524TIP3    H258450   2.820   0.234   0.053
19525TIP3   OH258451   4.750   0.157   0.184
19525TIP3    H158452   4.669   0.194   0.219
19525TIP3    H258453   4.722   0.081   0.133
19526TIP3   OH258454   7.636   4.411   6.795
19526TIP3    H158455   7.681   4.352   6.735
19526TIP3    H258456   7.693   4.488   6.799
19527TIP3   OH258457   6.027   4.268   7.507
19527TIP3    H158458   5.947   4.262   7.560
19527TIP3    H258459   5.997   4.303   7.423
19528TIP3   OH258460   7.304   5.989   7.115
19528TIP3    H158461   7.327   5.950   7.031
19528TIP3    H258462   7.317   6.083   7.103
19529TIP3   OH258463   9.542   8.922   0.376
19529TIP3    H158464   9.489   8.934   0.455
19529TIP3    H258465   9.503   8.980   0.312
19530TIP3   OH258466   3.058   1.142   0.440
19530TIP3    H158467   2.964   1.129   0.433
19530TIP3    H258468   3.075   1.146   0.534
19531TIP3   OH258469   6.536   5.821   7.995
19531TIP3    H158470   6.483   5.894   7.965
19531TIP3    H258471   6.620   5.832   7.951
19532TIP3   OH258472   3.635   1.418   0.106
19532TIP3    H158473   3.679   1.412   0.190
19532TIP3    H258474   3.689   1.478   0.055
19533TIP3   OH258475   7.078   6.188   7.957
19533TIP3    H158476   7.129   6.123   7.909
19533TIP3    H258477   7.142   6.232   8.013
19534TIP3   OH258478   1.398   9.139   0.093
19534TIP3    H158479   1.309   9.122   0.061
19534TIP3    H258480   1.442   9.054   0.087
19535TIP3   OH258481   2.925   1.426   0.036
19535TIP3    H158482   2.834   1.444   0.012
19535TIP3    H258483   2.945   1.491   0.103
19536TIP3   OH258484   6.424   6.050   7.891
19536TIP3    H158485   6.342   6.050   7.940
19536TIP3    H258486   6.398   6.074   7.801
19537TIP3   OH258487   6.846   6.052   7.655
19537TIP3    H158488   6.760   6.052   7.613
19537TIP3    H258489   6.853   6.139   7.694
19538TIP3   OH258490   7.111   6.009   7.720
19538TIP3    H158491   7.019   6.019   7.697
19538TIP3    H258492   7.156   6.073   7.665
19539TIP3   OH258493   7.313   6.171   7.598
19539TIP3    H158494   7.313   6.256   7.553
19539TIP3    H258495   7.335   6.108   7.529
19540TIP3   OH258496   6.109   5.837   7.755
19540TIP3    H158497   6.127   5.808   7.844
19540TIP3    H258498   6.181   5.802   7.703
19541TIP3   OH258499   6.311   5.723   7.615
19541TIP3    H158500   6.322   5.638   7.659
19541TIP3    H258501   6.398   5.763   7.619
19542TIP3   OH258502   6.579   5.801   7.642
19542TIP3    H158503   6.599   5.709   7.626
19542TIP3    H258504   6.632   5.823   7.719
19543TIP3   OH258505   7.138   4.451   7.730
19543TIP3    H158506   7.098   4.382   7.782
19543TIP3    H258507   7.206   4.407   7.679
19544TIP3   OH258508   7.639   4.381   7.627
19544TIP3    H158509   7.672   4.428   7.551
19544TIP3    H258510   7.544   4.391   7.622
19545TIP3   OH258511   7.752   4.451   7.386
19545TIP3    H158512   7.820   4.389   7.361
19545TIP3    H258513   7.792   4.537   7.371
19546TIP3   OH258514   6.374   4.154   7.724
19546TIP3    H158515   6.285   4.119   7.736
19546TIP3    H258516   6.429   4.076   7.717
19547TIP3   OH258517   6.166   4.060   7.390
19547TIP3    H158518   6.202   4.104   7.312
19547TIP3    H258519   6.126   4.131   7.440
19548TIP3   OH258520   6.867   4.190   7.628
19548TIP3    H158521   6.912   4.238   7.559
19548TIP3    H258522   6.909   4.220   7.709
19549TIP3   OH258523   7.355   4.330   7.603
19549TIP3    H158524   7.369   4.292   7.517
19549TIP3    H258525   7.362   4.256   7.663
19550TIP3   OH258526   7.409   4.292   7.166
19550TIP3    H158527   7.329   4.338   7.191
19550TIP3    H258528   7.400   4.204   7.204
19551TIP3   OH258529   5.869   5.636   7.129
19551TIP3    H158530   5.785   5.606   7.096
19551TIP3    H258531   5.874   5.728   7.104
19552TIP3   OH258532   6.809   4.402   7.234
19552TIP3    H158533   6.863   4.348   7.291
19552TIP3    H258534   6.829   4.492   7.260
19553TIP3   OH258535   6.679   5.786   6.731
19553TIP3    H158536   6.761   5.815   6.692
19553TIP3    H258537   6.648   5.716   6.673
19554TIP3   OH258538   7.367   5.925   6.854
19554TIP3    H158539   7.365   5.831   6.837
19554TIP3    H258540   7.326   5.964   6.777
19555TIP3   OH258541   0.071   9.058   0.606
19555TIP3    H158542   0.041   8.989   0.666
19555TIP3    H258543   0.164   9.069   0.627
19556TIP3   OH258544   0.318   9.067   0.731
19556TIP3    H158545   0.395   9.046   0.678
19556TIP3    H258546   0.314   8.998   0.797
19557TIP3   OH258547   5.987   5.629   6.799
19557TIP3    H158548   5.983   5.630   6.895
19557TIP3    H258549   6.067   5.581   6.779
19558TIP3   OH258550   1.141   9.148   0.507
19558TIP3    H158551   1.155   9.119   0.597
19558TIP3    H258552   1.227   9.145   0.466
19559TIP3   OH258553   7.587   6.065   7.996
19559TIP3    H158554   7.519   6.020   7.945
19559TIP3    H258555   7.558   6.156   8.000
19560TIP3   OH258556   8.873   5.445   6.769
19560TIP3    H158557   8.837   5.531   6.749
19560TIP3    H258558   8.804   5.384   6.743
19561TIP3   OH258559   8.860   5.447   7.186
19561TIP3    H158560   8.916   5.429   7.262
19561TIP3    H258561   8.818   5.363   7.167
19562TIP3   OH258562   8.163   5.299   7.534
19562TIP3    H158563   8.203   5.246   7.602
19562TIP3    H258564   8.235   5.325   7.477
19563TIP3   OH258565   9.158   5.757   6.864
19563TIP3    H158566   9.131   5.690   6.926
19563TIP3    H258567   9.163   5.837   6.916
19564TIP3   OH258568   8.145   5.730   7.226
19564TIP3    H158569   8.133   5.635   7.222
19564TIP3    H258570   8.240   5.742   7.217
19565TIP3   OH258571   7.840   4.944   7.001
19565TIP3    H158572   7.798   5.027   7.025
19565TIP3    H258573   7.770   4.893   6.961
19566TIP3   OH258574   7.912   5.245   7.227
19566TIP3    H158575   7.963   5.167   7.252
19566TIP3    H258576   7.978   5.307   7.197
19567TIP3   OH258577   8.795   6.187   6.863
19567TIP3    H158578   8.814   6.115   6.803
19567TIP3    H258579   8.806   6.149   6.950
19568TIP3   OH258580   8.673   5.669   7.188
19568TIP3    H158581   8.717   5.588   7.161
19568TIP3    H258582   8.744   5.725   7.219
19569TIP3   OH258583   9.662   4.989   7.230
19569TIP3    H158584   9.688   5.075   7.263
19569TIP3    H258585   9.689   4.990   7.138
19570TIP3   OH258586   9.083   5.149   7.229
19570TIP3    H158587   9.123   5.066   7.255
19570TIP3    H258588   9.047   5.132   7.142
19571TIP3   OH258589   8.436   4.811   7.186
19571TIP3    H158590   8.416   4.884   7.127
19571TIP3    H258591   8.381   4.739   7.155
19572TIP3   OH258592   9.131   4.917   6.826
19572TIP3    H158593   9.195   4.912   6.897
19572TIP3    H258594   9.180   4.950   6.751
19573TIP3   OH258595   8.061   5.028   7.315
19573TIP3    H158596   8.144   5.009   7.358
19573TIP3    H258597   8.064   4.977   7.234
19574TIP3   OH258598   8.477   5.229   7.136
19574TIP3    H158599   8.572   5.215   7.140
19574TIP3    H258600   8.442   5.147   7.102
19575TIP3   OH258601   9.742   5.217   7.371
19575TIP3    H158602   9.654   5.254   7.367
19575TIP3    H258603   9.781   5.255   7.450
19576TIP3   OH258604   8.419   4.818   7.636
19576TIP3    H158605   8.369   4.853   7.563
19576TIP3    H258606   8.363   4.832   7.713
19577TIP3   OH258607   8.736   5.653   6.657
19577TIP3    H158608   8.712   5.638   6.566
19577TIP3    H258609   8.695   5.736   6.680
19578TIP3   OH258610   8.509   5.593   7.396
19578TIP3    H158611   8.457   5.667   7.427
19578TIP3    H258612   8.561   5.628   7.324
19579TIP3   OH258613   9.289   4.947   7.045
19579TIP3    H158614   9.265   4.921   7.133
19579TIP3    H258615   9.351   5.019   7.057
19580TIP3   OH258616   8.308   4.924   7.406
19580TIP3    H158617   8.364   4.998   7.428
19580TIP3    H258618   8.354   4.880   7.334
19581TIP3   OH258619   8.355   5.801   7.495
19581TIP3    H158620   8.344   5.892   7.469
19581TIP3    H258621   8.277   5.781   7.547
19582TIP3   OH258622   7.724   5.498   6.763
19582TIP3    H158623   7.698   5.514   6.673
19582TIP3    H258624   7.748   5.585   6.796
19583TIP3   OH258625   9.175   6.008   7.000
19583TIP3    H158626   9.086   5.998   7.036
19583TIP3    H258627   9.172   6.090   6.950
19584TIP3   OH258628   9.475   4.875   7.397
19584TIP3    H158629   9.388   4.882   7.358
19584TIP3    H258630   9.535   4.903   7.328
19585TIP3   OH258631   8.758   4.508   7.372
19585TIP3    H158632   8.753   4.416   7.397
19585TIP3    H258633   8.680   4.548   7.411
19586TIP3   OH258634   8.870   6.030   6.639
19586TIP3    H158635   8.923   5.950   6.636
19586TIP3    H258636   8.932   6.101   6.621
19587TIP3   OH258637   9.037   5.818   6.619
19587TIP3    H158638   9.045   5.745   6.558
19587TIP3    H258639   9.082   5.788   6.698
19588TIP3   OH258640   9.407   5.898   7.338
19588TIP3    H158641   9.381   5.825   7.282
19588TIP3    H258642   9.382   5.976   7.288
19589TIP3   OH258643   8.695   5.290   6.617
19589TIP3    H158644   8.615   5.337   6.597
19589TIP3    H258645   8.744   5.288   6.535
19590TIP3   OH258646   8.671   5.102   6.297
19590TIP3    H158647   8.735   5.150   6.348
19590TIP3    H258648   8.721   5.034   6.253
19591TIP3   OH258649   9.567   5.557   7.210
19591TIP3    H158650   9.483   5.601   7.207
19591TIP3    H258651   9.593   5.547   7.119
19592TIP3   OH258652   9.054   5.393   6.572
19592TIP3    H158653   9.001   5.413   6.649
19592TIP3    H258654   9.137   5.361   6.609
19593TIP3   OH258655   9.277   5.400   7.513
19593TIP3    H158656   9.283   5.488   7.552
19593TIP3    H258657   9.193   5.400   7.467
19594TIP3   OH258658   8.283   5.362   6.978
19594TIP3    H158659   8.248   5.299   6.914
19594TIP3    H258660   8.355   5.315   7.020
19595TIP3   OH258661   8.413   5.781   7.125
19595TIP3    H158662   8.391   5.770   7.032
19595TIP3    H258663   8.501   5.744   7.133
19596TIP3   OH258664   8.373   5.358   7.357
19596TIP3    H158665   8.412   5.319   7.279
19596TIP3    H258666   8.423   5.438   7.372
19597TIP3   OH258667   8.934   5.986   7.122
19597TIP3    H158668   8.913   6.067   7.169
19597TIP3    H258669   8.921   5.917   7.187
19598TIP3   OH258670   8.560   5.882   7.665
19598TIP3    H158671   8.503   5.940   7.716
19598TIP3    H258672   8.501   5.837   7.605
19599TIP3   OH258673   8.884   5.247   6.411
19599TIP3    H158674   8.946   5.305   6.457
19599TIP3    H258675   8.912   5.251   6.320
19600TIP3   OH258676   8.312   5.425   7.805
19600TIP3    H158677   8.319   5.518   7.823
19600TIP3    H258678   8.218   5.408   7.798
19601TIP3   OH258679   8.622   5.907   6.675
19601TIP3    H158680   8.704   5.955   6.665
19601TIP3    H258681   8.576   5.919   6.592
19602TIP3   OH258682   8.351   6.044   7.754
19602TIP3    H158683   8.336   6.063   7.661
19602TIP3    H258684   8.264   6.027   7.789
19603TIP3   OH258685   9.366   4.482   6.479
19603TIP3    H158686   9.295   4.503   6.539
19603TIP3    H258687   9.379   4.562   6.427
19604TIP3   OH258688   8.160   5.201   6.780
19604TIP3    H158689   8.079   5.245   6.753
19604TIP3    H258690   8.134   5.109   6.791
19605TIP3   OH258691   9.188   5.856   6.023
19605TIP3    H158692   9.191   5.947   5.993
19605TIP3    H258693   9.277   5.824   6.013
19606TIP3   OH258694   7.937   5.605   7.702
19606TIP3    H158695   7.867   5.585   7.641
19606TIP3    H258696   7.969   5.519   7.730
19607TIP3   OH258697   7.851   5.774   7.347
19607TIP3    H158698   7.937   5.753   7.310
19607TIP3    H258699   7.868   5.850   7.404
19608TIP3   OH258700   8.753   6.030   7.536
19608TIP3    H158701   8.750   6.119   7.570
19608TIP3    H258702   8.685   5.983   7.585
19609TIP3   OH258703   8.493   6.163   6.464
19609TIP3    H158704   8.481   6.118   6.381
19609TIP3    H258705   8.407   6.201   6.484
19610TIP3   OH258706   7.957   5.990   6.871
19610TIP3    H158707   7.998   5.982   6.958
19610TIP3    H258708   7.907   5.910   6.861
19611TIP3   OH258709   8.728   6.073   6.126
19611TIP3    H158710   8.777   5.999   6.092
19611TIP3    H258711   8.761   6.085   6.215
19612TIP3   OH258712   8.759   6.133   6.399
19612TIP3    H158713   8.672   6.145   6.435
19612TIP3    H258714   8.808   6.087   6.468
19613TIP3   OH258715   9.535   5.375   7.638
19613TIP3    H158716   9.450   5.388   7.597
19613TIP3    H258717   9.550   5.281   7.632
19614TIP3   OH258718   8.147   5.780   7.680
19614TIP3    H158719   8.207   5.741   7.743
19614TIP3    H258720   8.073   5.719   7.677
19615TIP3   OH258721   8.521   4.597   7.498
19615TIP3    H158722   8.437   4.563   7.467
19615TIP3    H258723   8.499   4.678   7.544
19616TIP3   OH258724   9.065   4.730   7.699
19616TIP3    H158725   9.137   4.699   7.755
19616TIP3    H258726   8.986   4.708   7.748
19617TIP3   OH258727   9.272   5.142   7.620
19617TIP3    H158728   9.244   5.149   7.711
19617TIP3    H258729   9.264   5.231   7.585
19618TIP3   OH258730   8.958   5.239   6.150
19618TIP3    H158731   8.913   5.233   6.065
19618TIP3    H258732   9.042   5.280   6.130
19619TIP3   OH258733   8.668   4.649   6.466
19619TIP3    H158734   8.632   4.655   6.555
19619TIP3    H258735   8.637   4.566   6.433
19620TIP3   OH258736   8.460   5.135   7.501
19620TIP3    H158737   8.415   5.139   7.586
19620TIP3    H258738   8.437   5.218   7.458
19621TIP3   OH258739   8.338   5.014   7.027
19621TIP3    H158740   8.250   4.988   7.051
19621TIP3    H258741   8.349   4.983   6.937
19622TIP3   OH258742   8.818   5.086   6.754
19622TIP3    H158743   8.771   5.158   6.712
19622TIP3    H258744   8.878   5.054   6.686
19623TIP3   OH258745   9.001   5.347   7.812
19623TIP3    H158746   8.982   5.281   7.879
19623TIP3    H258747   9.091   5.374   7.829
19624TIP3   OH258748   8.985   5.101   6.977
19624TIP3    H158749   8.918   5.120   6.912
19624TIP3    H258750   9.035   5.028   6.940
19625TIP3   OH258751   8.297   5.140   7.723
19625TIP3    H158752   8.318   5.203   7.792
19625TIP3    H258753   8.281   5.058   7.769
19626TIP3   OH258754   8.339   4.623   6.445
19626TIP3    H158755   8.330   4.628   6.541
19626TIP3    H258756   8.259   4.665   6.412
19627TIP3   OH258757   7.888   4.671   7.305
19627TIP3    H158758   7.962   4.704   7.355
19627TIP3    H258759   7.925   4.645   7.221
19628TIP3   OH258760   7.786   4.646   6.811
19628TIP3    H158761   7.833   4.681   6.735
19628TIP3    H258762   7.722   4.714   6.832
19629TIP3   OH258763   9.024   5.354   7.396
19629TIP3    H158764   9.052   5.287   7.333
19629TIP3    H258765   8.979   5.305   7.465
19630TIP3   OH258766   8.707   4.803   7.079
19630TIP3    H158767   8.630   4.801   7.136
19630TIP3    H258768   8.781   4.792   7.139
19631TIP3   OH258769   8.100   4.888   7.083
19631TIP3    H158770   8.012   4.892   7.045
19631TIP3    H258771   8.128   4.798   7.068
19632TIP3   OH258772   8.352   4.897   6.779
19632TIP3    H158773   8.447   4.903   6.772
19632TIP3    H258774   8.320   4.912   6.690
19633TIP3   OH258775   9.170   4.889   7.295
19633TIP3    H158776   9.138   4.909   7.383
19633TIP3    H258777   9.108   4.824   7.262
19634TIP3   OH258778   8.244   4.918   6.528
19634TIP3    H158779   8.183   4.867   6.475
19634TIP3    H258780   8.300   4.962   6.463
19635TIP3   OH258781   8.299   5.688   7.892
19635TIP3    H158782   8.381   5.700   7.941
19635TIP3    H258783   8.232   5.680   7.960
19636TIP3   OH258784   8.752   5.178   7.177
19636TIP3    H158785   8.819   5.131   7.128
19636TIP3    H258786   8.750   5.134   7.262
19637TIP3   OH258787   8.241   4.639   7.071
19637TIP3    H158788   8.213   4.564   7.125
19637TIP3    H258789   8.263   4.601   6.986
19638TIP3   OH258790   8.722   5.074   7.438
19638TIP3    H158791   8.635   5.105   7.463
19638TIP3    H258792   8.782   5.125   7.492
19639TIP3   OH258793   8.458   5.429   6.558
19639TIP3    H158794   8.385   5.373   6.532
19639TIP3    H258795   8.430   5.470   6.639
19640TIP3   OH258796   9.329   5.691   7.169
19640TIP3    H158797   9.361   5.737   7.091
19640TIP3    H258798   9.252   5.644   7.138
19641TIP3   OH258799   8.922   4.751   6.474
19641TIP3    H158800   8.829   4.731   6.469
19641TIP3    H258801   8.926   4.846   6.484
19642TIP3   OH258802   8.877   5.767   7.575
19642TIP3    H158803   8.944   5.762   7.643
19642TIP3    H258804   8.842   5.856   7.583
19643TIP3   OH258805   8.983   5.015   6.539
19643TIP3    H158806   9.078   5.016   6.549
19643TIP3    H258807   8.964   5.092   6.485
19644TIP3   OH258808   8.147   5.447   7.204
19644TIP3    H158809   8.186   5.426   7.119
19644TIP3    H258810   8.212   5.416   7.268
19645TIP3   OH258811   8.612   5.595   6.406
19645TIP3    H158812   8.567   5.679   6.409
19645TIP3    H258813   8.557   5.536   6.457
19646TIP3   OH258814   8.035   5.379   7.838
19646TIP3    H158815   8.051   5.348   7.928
19646TIP3    H258816   7.960   5.329   7.809
19647TIP3   OH258817   8.772   5.492   7.853
19647TIP3    H158818   8.701   5.434   7.824
19647TIP3    H258819   8.852   5.449   7.821
19648TIP3   OH258820   9.014   6.054   7.436
19648TIP3    H158821   8.921   6.041   7.458
19648TIP3    H258822   9.054   6.080   7.519
19649TIP3   OH258823   9.387   5.110   6.368
19649TIP3    H158824   9.350   5.056   6.298
19649TIP3    H258825   9.393   5.198   6.330
19650TIP3   OH258826   9.668   5.951   7.412
19650TIP3    H158827   9.573   5.947   7.402
19650TIP3    H258828   9.701   5.885   7.350
19651TIP3   OH258829   9.130   5.910   6.290
19651TIP3    H158830   9.107   5.831   6.340
19651TIP3    H258831   9.143   5.878   6.201
19652TIP3   OH258832   9.110   5.551   7.059
19652TIP3    H158833   9.020   5.529   7.082
19652TIP3    H258834   9.146   5.471   7.021
19653TIP3   OH258835   8.276   5.794   6.878
19653TIP3    H158836   8.278   5.871   6.821
19653TIP3    H258837   8.183   5.781   6.898
19654TIP3   OH258838   7.840   5.070   6.593
19654TIP3    H158839   7.882   5.153   6.617
19654TIP3    H258840   7.757   5.071   6.640
19655TIP3   OH258841   8.346   5.546   6.775
19655TIP3    H158842   8.339   5.634   6.811
19655TIP3    H258843   8.327   5.488   6.849
19656TIP3   OH258844   8.566   6.110   7.330
19656TIP3    H158845   8.599   6.181   7.275
19656TIP3    H258846   8.643   6.077   7.376
19657TIP3   OH258847   8.190   6.022   6.725
19657TIP3    H158848   8.104   6.024   6.767
19657TIP3    H258849   8.219   6.113   6.727
19658TIP3   OH258850   8.908   5.770   7.301
19658TIP3    H158851   8.896   5.766   7.395
19658TIP3    H258852   8.987   5.717   7.284
19659TIP3   OH258853   8.909   5.658   6.189
19659TIP3    H158854   8.949   5.642   6.274
19659TIP3    H258855   8.827   5.608   6.192
19660TIP3   OH258856   9.128   6.293   7.342
19660TIP3    H158857   9.069   6.218   7.352
19660TIP3    H258858   9.102   6.333   7.260
19661TIP3   OH258859   9.206   6.124   5.965
19661TIP3    H158860   9.210   6.176   5.884
19661TIP3    H258861   9.145   6.171   6.021
19662TIP3   OH258862   8.243   4.890   7.842
19662TIP3    H158863   8.148   4.902   7.846
19662TIP3    H258864   8.262   4.827   7.911
19663TIP3   OH258865   9.074   5.620   6.414
19663TIP3    H158866   9.055   5.542   6.467
19663TIP3    H258867   9.167   5.611   6.391
19664TIP3   OH258868   7.968   5.995   7.489
19664TIP3    H158869   8.029   5.949   7.546
19664TIP3    H258870   7.974   6.087   7.517
19665TIP3   OH258871   8.258   5.610   6.198
19665TIP3    H158872   8.266   5.519   6.168
19665TIP3    H258873   8.243   5.603   6.292
19666TIP3   OH258874   8.201   5.634   6.470
19666TIP3    H158875   8.258   5.608   6.542
19666TIP3    H258876   8.202   5.729   6.472
19667TIP3   OH258877   7.929   5.322   6.678
19667TIP3    H158878   7.863   5.371   6.728
19667TIP3    H258879   7.951   5.379   6.605
19668TIP3   OH258880   9.082   4.958   7.548
19668TIP3    H158881   9.161   5.004   7.578
19668TIP3    H258882   9.078   4.880   7.603
19669TIP3   OH258883   8.971   4.706   6.743
19669TIP3    H158884   8.957   4.721   6.650
19669TIP3    H258885   9.020   4.782   6.774
19670TIP3   OH258886   8.483   5.838   6.417
19670TIP3    H158887   8.393   5.853   6.444
19670TIP3    H258888   8.494   5.891   6.339
19671TIP3   OH258889   8.630   4.899   6.830
19671TIP3    H158890   8.694   4.965   6.802
19671TIP3    H258891   8.657   4.877   6.919
19672TIP3   OH258892   8.923   5.188   7.591
19672TIP3    H158893   8.950   5.230   7.672
19672TIP3    H258894   8.974   5.107   7.587
19673TIP3   OH258895   8.792   4.591   6.916
19673TIP3    H158896   8.769   4.667   6.969
19673TIP3    H258897   8.861   4.623   6.857
19674TIP3   OH258898   8.224   5.908   6.478
19674TIP3    H158899   8.204   5.979   6.417
19674TIP3    H258900   8.209   5.946   6.564
19675TIP3   OH258901   8.309   4.621   6.725
19675TIP3    H158902   8.298   4.712   6.752
19675TIP3    H258903   8.403   4.605   6.731
19676TIP3   OH258904   9.537   5.097   7.586
19676TIP3    H158905   9.443   5.101   7.607
19676TIP3    H258906   9.542   5.034   7.514
19677TIP3   OH258907   9.203   5.296   6.971
19677TIP3    H158908   9.129   5.236   6.983
19677TIP3    H258909   9.274   5.257   7.022
19678TIP3   OH258910   7.959   5.496   6.461
19678TIP3    H158911   8.031   5.559   6.468
19678TIP3    H258912   7.988   5.433   6.395
19679TIP3   OH258913   7.863   4.792   6.594
19679TIP3    H158914   7.872   4.887   6.598
19679TIP3    H258915   7.840   4.774   6.503
19680TIP3   OH258916   9.185   6.270   6.899
19680TIP3    H158917   9.144   6.337   6.843
19680TIP3    H258918   9.278   6.289   6.893
19681TIP3   OH258919   8.258   4.513   7.461
19681TIP3    H158920   8.229   4.480   7.376
19681TIP3    H258921   8.250   4.438   7.520
19682TIP3   OH258922   7.775   5.773   6.844
19682TIP3    H158923   7.732   5.807   6.922
19682TIP3    H258924   7.730   5.815   6.771
19683TIP3   OH258925   7.931   6.286   7.846
19683TIP3    H158926   8.012   6.306   7.893
19683TIP3    H258927   7.914   6.194   7.867
19684TIP3   OH258928   8.435   6.152   7.989
19684TIP3    H158929   8.529   6.172   7.982
19684TIP3    H258930   8.414   6.109   7.906
19685TIP3   OH258931   8.409   5.809   6.085
19685TIP3    H158932   8.361   5.737   6.126
19685TIP3    H258933   8.483   5.767   6.041
19686TIP3   OH258934   9.128   6.110   7.676
19686TIP3    H158935   9.095   6.069   7.756
19686TIP3    H258936   9.214   6.143   7.699
19687TIP3   OH258937   8.851   5.859   6.010
19687TIP3    H158938   8.889   5.796   6.071
19687TIP3    H258939   8.906   5.853   5.932
19688TIP3   OH258940   4.819   1.025   0.057
19688TIP3    H158941   4.824   0.929   0.063
19688TIP3    H258942   4.731   1.042   0.023
19689TIP3   OH258943   8.075   5.308   6.301
19689TIP3    H158944   8.127   5.282   6.377
19689TIP3    H258945   8.139   5.320   6.231
19690TIP3   OH258946   8.718   5.763   7.859
19690TIP3    H158947   8.675   5.787   7.777
19690TIP3    H258948   8.751   5.674   7.843
19691TIP3   OH258949   8.662   5.528   6.144
19691TIP3    H158950   8.635   5.538   6.235
19691TIP3    H258951   8.642   5.438   6.122
19692TIP3   OH258952   9.183   5.830   7.487
19692TIP3    H158953   9.264   5.860   7.445
19692TIP3    H258954   9.119   5.898   7.465
19693TIP3   OH258955   4.945   0.772   0.080
19693TIP3    H158956   5.023   0.762   0.025
19693TIP3    H258957   4.978   0.810   0.162
19694TIP3   OH258958   8.250   5.251   6.511
19694TIP3    H158959   8.232   5.220   6.600
19694TIP3    H258960   8.301   5.181   6.471
19695TIP3   OH258961   8.567   5.322   7.760
19695TIP3    H158962   8.480   5.362   7.769
19695TIP3    H258963   8.599   5.352   7.675
19696TIP3   OH258964   8.399   5.072   6.358
19696TIP3    H158965   8.368   5.075   6.268
19696TIP3    H258966   8.494   5.078   6.352
19697TIP3   OH258967   9.070   5.738   7.888
19697TIP3    H158968   9.166   5.732   7.887
19697TIP3    H258969   9.042   5.660   7.937
19698TIP3   OH258970   9.179   5.362   6.041
19698TIP3    H158971   9.169   5.319   5.956
19698TIP3    H258972   9.155   5.453   6.024
19699TIP3   OH258973   8.674   5.097   7.875
19699TIP3    H158974   8.679   5.026   7.811
19699TIP3    H258975   8.639   5.171   7.825
19700TIP3   OH258976   8.679   4.903   7.670
19700TIP3    H158977   8.706   4.938   7.585
19700TIP3    H258978   8.588   4.875   7.657
19701TIP3   OH258979   8.679   5.432   7.541
19701TIP3    H158980   8.769   5.462   7.525
19701TIP3    H258981   8.625   5.492   7.490
19702TIP3   OH258982   9.305   5.365   7.997
19702TIP3    H158983   9.299   5.284   7.946
19702TIP3    H258984   9.384   5.408   7.965
19703TIP3   OH258985   9.326   5.644   7.628
19703TIP3    H158986   9.268   5.708   7.586
19703TIP3    H258987   9.414   5.678   7.613
19704TIP3   OH258988   5.281   0.556   0.109
19704TIP3    H158989   5.214   0.490   0.130
19704TIP3    H258990   5.316   0.528   0.024
19705TIP3   OH258991   8.799   4.672   7.775
19705TIP3    H158992   8.758   4.752   7.740
19705TIP3    H258993   8.733   4.604   7.762
19706TIP3   OH258994   5.662   0.525  -0.019
19706TIP3    H158995   5.652   0.512   0.075
19706TIP3    H258996   5.577   0.500  -0.056
19707TIP3   OH258997   9.193   5.134   7.879
19707TIP3    H158998   9.111   5.116   7.924
19707TIP3    H258999   9.259   5.084   7.928
19708TIP3   OH259000   6.140   0.422   0.020
19708TIP3    H159001   6.159   0.328   0.016
19708TIP3    H259002   6.139   0.442   0.113
19709TIP3   OH259003   5.117   0.340   0.179
19709TIP3    H159004   5.120   0.252   0.140
19709TIP3    H259005   5.158   0.330   0.264
19710TIP3   OH259006   5.598   0.026   0.036
19710TIP3    H159007   5.669  -0.038   0.030
19710TIP3    H259008   5.569   0.037  -0.055
19711TIP3   OH259009   5.686   0.242   0.179
19711TIP3    H159010   5.657   0.169   0.124
19711TIP3    H259011   5.612   0.303   0.178
19712TIP3   OH259012   8.225   6.125   6.304
19712TIP3    H159013   8.309   6.098   6.267
19712TIP3    H259014   8.178   6.165   6.231
19713TIP3   OH259015   7.685   5.500   6.475
19713TIP3    H159016   7.780   5.508   6.470
19713TIP3    H259017   7.666   5.415   6.434
19714TIP3   OH259018   7.574   6.080   6.947
19714TIP3    H159019   7.513   6.026   6.897
19714TIP3    H259020   7.622   6.018   7.002
19715TIP3   OH259021   7.724   5.907   7.104
19715TIP3    H159022   7.723   5.837   7.170
19715TIP3    H259023   7.772   5.978   7.147
19716TIP3   OH259024   9.445   6.349   6.897
19716TIP3    H159025   9.465   6.369   6.988
19716TIP3    H259026   9.525   6.370   6.849
19717TIP3   OH259027   9.466   6.355   7.178
19717TIP3    H159028   9.422   6.270   7.184
19717TIP3    H259029   9.521   6.358   7.256
19718TIP3   OH259030   9.342   5.579   6.373
19718TIP3    H159031   9.405   5.644   6.342
19718TIP3    H259032   9.388   5.533   6.443
19719TIP3   OH259033   9.468   5.431   6.566
19719TIP3    H159034   9.405   5.391   6.626
19719TIP3    H259035   9.527   5.480   6.623
19720TIP3   OH259036   9.483   5.815   6.977
19720TIP3    H159037   9.539   5.744   6.946
19720TIP3    H259038   9.438   5.846   6.898
19721TIP3   OH259039   9.319   6.124   7.211
19721TIP3    H159040   9.252   6.170   7.261
19721TIP3    H259041   9.272   6.085   7.137
19722TIP3   OH259042   9.378   5.348   6.226
19722TIP3    H159043   9.308   5.344   6.162
19722TIP3    H259044   9.360   5.427   6.277
19723TIP3   OH259045   9.253   5.000   6.150
19723TIP3    H159046   9.198   5.034   6.080
19723TIP3    H259047   9.241   4.905   6.146
19724TIP3   OH259048   9.276   5.285   6.703
19724TIP3    H159049   9.282   5.190   6.687
19724TIP3    H259050   9.255   5.292   6.797
19725TIP3   OH259051   7.901   5.347   7.483
19725TIP3    H159052   7.889   5.309   7.396
19725TIP3    H259053   7.994   5.339   7.500
19726TIP3   OH259054   9.581   5.737   7.594
19726TIP3    H159055   9.654   5.675   7.599
19726TIP3    H259056   9.619   5.816   7.557
19727TIP3   OH259057   9.760   5.519   7.579
19727TIP3    H159058   9.678   5.476   7.601
19727TIP3    H259059   9.827   5.453   7.595
19728TIP3   OH259060   9.187   4.734   6.129
19728TIP3    H159061   9.254   4.709   6.193
19728TIP3    H259062   9.108   4.689   6.159
19729TIP3   OH259063   9.268   5.010   6.597
19729TIP3    H159064   9.312   4.926   6.611
19729TIP3    H259065   9.310   5.046   6.519
19730TIP3   OH259066   9.426   5.186   7.098
19730TIP3    H159067   9.505   5.211   7.051
19730TIP3    H259068   9.440   5.218   7.188
19731TIP3   OH259069   9.487   5.322   7.334
19731TIP3    H159070   9.412   5.347   7.388
19731TIP3    H259071   9.516   5.404   7.294
19732TIP3   OH259072   4.855   0.403   0.116
19732TIP3    H159073   4.948   0.397   0.133
19732TIP3    H259074   4.818   0.322   0.151
19733TIP3   OH259075   0.141   4.952   7.891
19733TIP3    H159076   0.200   4.882   7.863
19733TIP3    H259077   0.109   4.990   7.809
19734TIP3   OH259078   9.374   4.759   6.658
19734TIP3    H159079   9.424   4.739   6.738
19734TIP3    H259080   9.310   4.688   6.652
19735TIP3   OH259081   8.099   4.741   7.476
19735TIP3    H159082   8.150   4.660   7.482
19735TIP3    H259083   8.163   4.808   7.455
19736TIP3   OH259084   7.880   5.005   7.531
19736TIP3    H159085   7.928   4.995   7.449
19736TIP3    H259086   7.932   5.066   7.583
19737TIP3   OH259087   9.790   5.040   7.678
19737TIP3    H159088   9.702   5.077   7.675
19737TIP3    H259089   9.784   4.959   7.628
19738TIP3   OH259090   9.400   4.692   6.301
19738TIP3    H159091   9.437   4.620   6.249
19738TIP3    H259092   9.462   4.764   6.291
19739TIP3   OH259093   7.869   4.524   7.041
19739TIP3    H159094   7.784   4.504   7.081
19739TIP3    H259095   7.847   4.573   6.962
19740TIP3   OH259096   9.018   6.245   6.556
19740TIP3    H159097   9.062   6.220   6.475
19740TIP3    H259098   9.086   6.288   6.608
19741TIP3   OH259099   8.097   4.586   7.872
19741TIP3    H159100   8.041   4.566   7.948
19741TIP3    H259101   8.038   4.626   7.809
19742TIP3   OH259102   8.116   5.979   7.891
19742TIP3    H159103   8.021   5.995   7.894
19742TIP3    H259104   8.124   5.892   7.851
19743TIP3   OH259105   8.338   6.077   7.478
19743TIP3    H159106   8.287   6.152   7.446
19743TIP3    H259107   8.422   6.086   7.434
19744TIP3   OH259108   8.768   6.296   7.610
19744TIP3    H159109   8.814   6.280   7.692
19744TIP3    H259110   8.830   6.346   7.557
19745TIP3   OH259111   8.938   6.462   7.472
19745TIP3    H159112   9.009   6.411   7.433
19745TIP3    H259113   8.982   6.527   7.527
19746TIP3   OH259114   9.708   4.798   7.572
19746TIP3    H159115   9.621   4.802   7.531
19746TIP3    H259116   9.734   4.706   7.563
19747TIP3   OH259117   7.973   6.279   7.506
19747TIP3    H159118   7.886   6.302   7.474
19747TIP3    H259119   7.992   6.345   7.573
19748TIP3   OH259120   8.218   6.304   7.381
19748TIP3    H159121   8.133   6.297   7.423
19748TIP3    H259122   8.198   6.332   7.291
19749TIP3   OH259123   8.615   6.320   7.154
19749TIP3    H159124   8.542   6.330   7.093
19749TIP3    H259125   8.625   6.407   7.194
19750TIP3   OH259126   8.874   6.243   7.193
19750TIP3    H159127   8.785   6.272   7.175
19750TIP3    H259128   8.929   6.312   7.155
19751TIP3   OH259129   9.069   6.417   7.102
19751TIP3    H159130   9.080   6.506   7.070
19751TIP3    H259131   9.110   6.362   7.035
19752TIP3   OH259132   7.890   6.092   7.238
19752TIP3    H159133   7.910   6.067   7.329
19752TIP3    H259134   7.965   6.060   7.188
19753TIP3   OH259135   8.100   5.975   7.109
19753TIP3    H159136   8.110   5.890   7.151
19753TIP3    H259137   8.187   6.015   7.115
19754TIP3   OH259138   8.367   6.055   7.140
19754TIP3    H159139   8.387   5.963   7.124
19754TIP3    H259140   8.429   6.082   7.208
19755TIP3   OH259141   8.933   4.704   7.216
19755TIP3    H159142   8.893   4.633   7.267
19755TIP3    H259143   9.001   4.662   7.165
19756TIP3   OH259144   9.418   4.662   7.143
19756TIP3    H159145   9.458   4.691   7.061
19756TIP3    H259146   9.324   4.658   7.124
19757TIP3   OH259147   9.538   4.683   6.889
19757TIP3    H159148   9.621   4.644   6.863
19757TIP3    H259149   9.550   4.777   6.875
19758TIP3   OH259150   8.170   4.413   7.219
19758TIP3    H159151   8.081   4.377   7.229
19758TIP3    H259152   8.225   4.335   7.209
19759TIP3   OH259153   7.994   4.328   6.872
19759TIP3    H159154   8.020   4.375   6.793
19759TIP3    H259155   7.960   4.396   6.930
19760TIP3   OH259156   8.650   4.452   7.115
19760TIP3    H159157   8.699   4.496   7.045
19760TIP3    H259158   8.694   4.478   7.195
19761TIP3   OH259159   9.149   4.581   7.092
19761TIP3    H159160   9.175   4.546   7.007
19761TIP3    H259161   9.156   4.507   7.153
19762TIP3   OH259162   9.190   4.552   6.674
19762TIP3    H159163   9.108   4.595   6.699
19762TIP3    H259164   9.182   4.463   6.710
19763TIP3   OH259165   7.653   5.899   6.632
19763TIP3    H159166   7.572   5.872   6.589
19763TIP3    H259167   7.667   5.989   6.603
19764TIP3   OH259168   8.101   4.452   6.632
19764TIP3    H159169   8.147   4.389   6.576
19764TIP3    H259170   8.170   4.507   6.668
19765TIP3   OH259171   8.583   4.648   6.730
19765TIP3    H159172   8.642   4.593   6.782
19765TIP3    H259173   8.601   4.738   6.760
19766TIP3   OH259174   8.471   6.038   6.215
19766TIP3    H159175   8.554   6.064   6.176
19766TIP3    H259176   8.440   5.966   6.159
19767TIP3   OH259177   9.166   6.177   6.333
19767TIP3    H159178   9.158   6.082   6.323
19767TIP3    H259179   9.131   6.212   6.251
19768TIP3   OH259180   5.137   0.072   0.095
19768TIP3    H159181   5.101   0.007   0.155
19768TIP3    H259182   5.229   0.078   0.118
19769TIP3   OH259183   5.387   0.072   0.209
19769TIP3    H159184   5.464   0.050   0.155
19769TIP3    H259185   5.381   0.001   0.273
19770TIP3   OH259186   7.788   5.880   6.279
19770TIP3    H159187   7.790   5.888   6.375
19770TIP3    H259188   7.867   5.832   6.258
19771TIP3   OH259189   6.205   0.156   0.005
19771TIP3    H159190   6.225   0.121   0.092
19771TIP3    H259191   6.290   0.158  -0.039
19772TIP3   OH259192   0.111   5.571   7.083
19772TIP3    H159193   0.137   5.512   7.154
19772TIP3    H259194   0.147   5.656   7.109
19773TIP3   OH259195   0.121   5.957   6.929
19773TIP3    H159196   0.084   5.930   6.845
19773TIP3    H259197   0.204   5.998   6.906
19774TIP3   OH259198   9.609   5.190   6.540
19774TIP3    H159199   9.565   5.274   6.533
19774TIP3    H259200   9.552   5.129   6.494
19775TIP3   OH259201   9.683   5.563   6.689
19775TIP3    H159202   9.737   5.483   6.690
19775TIP3    H259203   9.738   5.628   6.645
19776TIP3   OH259204   0.642   5.954   6.788
19776TIP3    H159205   0.675   5.965   6.699
19776TIP3    H259206   0.719   5.925   6.838
19777TIP3   OH259207   0.542   5.056   6.882
19777TIP3    H159208   0.510   5.144   6.864
19777TIP3    H259209   0.573   5.024   6.797
19778TIP3   OH259210   9.778   5.307   6.742
19778TIP3    H159211   9.850   5.254   6.776
19778TIP3    H259212   9.741   5.255   6.671
19779TIP3   OH259213   0.558   5.477   6.594
19779TIP3    H159214   0.635   5.532   6.579
19779TIP3    H259215   0.523   5.461   6.506
19780TIP3   OH259216   0.378   5.035   7.149
19780TIP3    H159217   0.334   4.982   7.083
19780TIP3    H259218   0.311   5.053   7.215
19781TIP3   OH259219   0.430   5.961   6.969
19781TIP3    H159220   0.473   5.954   7.055
19781TIP3    H259221   0.502   5.966   6.907
19782TIP3   OH259222   0.164   5.172   6.899
19782TIP3    H159223   0.215   5.252   6.908
19782TIP3    H259224   0.229   5.101   6.904
19783TIP3   OH259225   9.517   5.760   6.260
19783TIP3    H159226   9.477   5.769   6.174
19783TIP3    H259227   9.542   5.849   6.285
19784TIP3   OH259228   0.427   6.113   6.625
19784TIP3    H159229   0.415   6.026   6.662
19784TIP3    H259230   0.515   6.138   6.651
19785TIP3   OH259231   0.439   5.602   6.807
19785TIP3    H159232   0.473   5.557   6.730
19785TIP3    H259233   0.406   5.686   6.773
19786TIP3   OH259234   0.191   5.806   7.216
19786TIP3    H159235   0.283   5.802   7.242
19786TIP3    H259236   0.144   5.756   7.283
19787TIP3   OH259237   0.721   6.199   6.227
19787TIP3    H159238   0.769   6.277   6.255
19787TIP3    H259239   0.643   6.197   6.282
19788TIP3   OH259240   0.126   5.545   6.293
19788TIP3    H159241   0.048   5.555   6.239
19788TIP3    H259242   0.122   5.454   6.324
19789TIP3   OH259243   9.706   5.846   7.141
19789TIP3    H159244   9.625   5.853   7.091
19789TIP3    H259245   9.703   5.759   7.179
19790TIP3   OH259246   0.449   6.502   5.973
19790TIP3    H159247   0.470   6.433   5.910
19790TIP3    H259248   0.359   6.482   6.000
19791TIP3   OH259249   9.749   6.229   6.353
19791TIP3    H159250   9.768   6.221   6.447
19791TIP3    H259251   9.690   6.155   6.335
19792TIP3   OH259252   0.070   6.090   7.224
19792TIP3    H159253   0.116   6.173   7.235
19792TIP3    H259254   0.009   6.086   7.298
19793TIP3   OH259255   0.562   4.792   6.955
19793TIP3    H159256   0.501   4.743   6.900
19793TIP3    H259257   0.545   4.884   6.935
19794TIP3   OH259258   0.668   5.384   6.947
19794TIP3    H159259   0.601   5.352   7.007
19794TIP3    H259260   0.626   5.380   6.861
19795TIP3   OH259261   0.374   5.203   6.496
19795TIP3    H159262   0.290   5.247   6.486
19795TIP3    H259263   0.434   5.255   6.442
19796TIP3   OH259264   0.248   5.415   7.277
19796TIP3    H159265   0.342   5.415   7.257
19796TIP3    H259266   0.230   5.324   7.301
19797TIP3   OH259267   0.370   4.925   5.847
19797TIP3    H159268   0.388   4.880   5.929
19797TIP3    H259269   0.309   4.995   5.870
19798TIP3   OH259270   9.570   4.941   6.815
19798TIP3    H159271   9.640   4.975   6.870
19798TIP3    H259272   9.587   4.979   6.728
19799TIP3   OH259273   9.592   4.881   6.251
19799TIP3    H159274   9.623   4.958   6.205
19799TIP3    H259275   9.596   4.904   6.344
19800TIP3   OH259276   0.059   5.075   6.538
19800TIP3    H159277  -0.034   5.096   6.533
19800TIP3    H259278   0.063   4.984   6.567
19801TIP3   OH259279   0.320   5.230   6.199
19801TIP3    H159280   0.385   5.167   6.168
19801TIP3    H259281   0.248   5.222   6.137
19802TIP3   OH259282   0.097   5.220   6.042
19802TIP3    H159283   0.012   5.183   6.064
19802TIP3    H259284   0.107   5.204   5.948
19803TIP3   OH259285   0.282   4.729   6.521
19803TIP3    H159286   0.318   4.708   6.607
19803TIP3    H259287   0.314   4.817   6.503
19804TIP3   OH259288   0.457   5.743   6.059
19804TIP3    H159289   0.464   5.652   6.029
19804TIP3    H259290   0.420   5.737   6.147
19805TIP3   OH259291   9.787   5.659   7.345
19805TIP3    H159292   9.798   5.619   7.432
19805TIP3    H259293   9.718   5.608   7.304
19806TIP3   OH259294   0.192   6.000   6.355
19806TIP3    H159295   0.150   6.084   6.339
19806TIP3    H259296   0.147   5.965   6.432
19807TIP3   OH259297   9.597   5.349   6.063
19807TIP3    H159298   9.643   5.431   6.081
19807TIP3    H259299   9.523   5.349   6.123
19808TIP3   OH259300   0.314   5.761   6.286
19808TIP3    H159301   0.279   5.838   6.331
19808TIP3    H259302   0.276   5.687   6.333
19809TIP3   OH259303   0.191   6.295   6.242
19809TIP3    H159304   0.102   6.282   6.275
19809TIP3    H259305   0.205   6.390   6.248
19810TIP3   OH259306   0.207   5.141   7.342
19810TIP3    H159307   0.112   5.152   7.345
19810TIP3    H259308   0.228   5.092   7.422
19811TIP3   OH259309   0.139   5.904   5.641
19811TIP3    H159310   0.139   5.811   5.622
19811TIP3    H259311   0.113   5.911   5.733
19812TIP3   OH259312   0.079   5.960   5.903
19812TIP3    H159313   0.112   5.901   5.972
19812TIP3    H259314   0.099   6.048   5.936
19813TIP3   OH259315   9.700   5.594   6.138
19813TIP3    H159316   9.638   5.642   6.191
19813TIP3    H259317   9.744   5.661   6.086
19814TIP3   OH259318   0.361   6.066   5.846
19814TIP3    H159319   0.328   6.037   5.931
19814TIP3    H259320   0.415   6.143   5.866
19815TIP3   OH259321   0.135   6.219   5.977
19815TIP3    H159322   0.138   6.302   5.929
19815TIP3    H259323   0.163   6.242   6.066
19816TIP3   OH259324   0.399   4.796   6.083
19816TIP3    H159325   0.314   4.817   6.122
19816TIP3    H259326   0.418   4.707   6.113
19817TIP3   OH259327   9.661   5.801   5.863
19817TIP3    H159328   9.726   5.869   5.883
19817TIP3    H259329   9.712   5.730   5.825
19818TIP3   OH259330   9.658   5.084   6.075
19818TIP3    H159331   9.622   5.173   6.073
19818TIP3    H259332   9.602   5.035   6.015
19819TIP3   OH259333   0.045   4.705   6.884
19819TIP3    H159334   0.130   4.678   6.847
19819TIP3    H259335   0.044   4.667   6.971
19820TIP3   OH259336   9.553   6.034   6.306
19820TIP3    H159337   9.487   6.062   6.370
19820TIP3    H259338   9.524   6.072   6.223
19821TIP3   OH259339   0.487   6.128   5.581
19821TIP3    H159340   0.430   6.056   5.608
19821TIP3    H259341   0.576   6.091   5.584
19822TIP3   OH259342   0.027   5.611   5.756
19822TIP3    H159343   0.064   5.566   5.831
19822TIP3    H259344   0.096   5.610   5.690
19823TIP3   OH259345   0.157   5.488   5.965
19823TIP3    H159346   0.127   5.412   6.015
19823TIP3    H259347   0.253   5.484   5.972
19824TIP3   OH259348   0.530   5.497   7.298
19824TIP3    H159349   0.492   5.575   7.338
19824TIP3    H259350   0.535   5.519   7.205
19825TIP3   OH259351   0.366   5.209   5.904
19825TIP3    H159352   0.340   5.271   5.836
19825TIP3    H259353   0.461   5.218   5.909
19826TIP3   OH259354   0.559   5.219   7.369
19826TIP3    H159355   0.601   5.176   7.295
19826TIP3    H259356   0.533   5.305   7.335
19827TIP3   OH259357   0.653   5.058   7.173
19827TIP3    H159358   0.697   5.058   7.088
19827TIP3    H259359   0.563   5.031   7.155
19828TIP3   OH259360   0.376   5.249   7.667
19828TIP3    H159361   0.353   5.164   7.630
19828TIP3    H259362   0.443   5.229   7.733
19829TIP3   OH259363   0.184   6.447   5.810
19829TIP3    H159364   0.270   6.409   5.790
19829TIP3    H259365   0.135   6.439   5.728
19830TIP3   OH259366   9.434   5.745   5.997
19830TIP3    H159367   9.516   5.776   5.957
19830TIP3    H259368   9.416   5.662   5.953
19831TIP3   OH259369   9.372   6.336   6.420
19831TIP3    H159370   9.307   6.278   6.382
19831TIP3    H259371   9.423   6.281   6.479
19832TIP3   OH259372   9.527   6.180   6.584
19832TIP3    H159373   9.574   6.098   6.601
19832TIP3    H259374   9.557   6.239   6.653
19833TIP3   OH259375   9.665   5.608   6.956
19833TIP3    H159376   9.666   5.587   6.862
19833TIP3    H259377   9.754   5.589   6.986
19834TIP3   OH259378   0.102   5.284   7.605
19834TIP3    H159379   0.195   5.286   7.627
19834TIP3    H259380   0.072   5.200   7.640
19835TIP3   OH259381  -0.016   4.979   6.981
19835TIP3    H159382   0.027   4.897   6.956
19835TIP3    H259383   0.047   5.047   6.957
19836TIP3   OH259384   9.666   5.284   7.001
19836TIP3    H159385   9.689   5.301   6.909
19836TIP3    H259386   9.750   5.276   7.045
19837TIP3   OH259387   9.588   4.891   6.526
19837TIP3    H159388   9.518   4.835   6.559
19837TIP3    H259389   9.669   4.848   6.553
19838TIP3   OH259390   0.070   4.848   7.345
19838TIP3    H159391   0.030   4.832   7.431
19838TIP3    H259392   0.001   4.890   7.294
19839TIP3   OH259393   9.688   6.363   6.748
19839TIP3    H159394   9.745   6.411   6.809
19839TIP3    H259395   9.747   6.305   6.701
19840TIP3   OH259396   0.052   6.199   6.608
19840TIP3    H159397   0.072   6.106   6.618
19840TIP3    H259398   0.138   6.241   6.600
19841TIP3   OH259399   0.288   6.344   6.590
19841TIP3    H159400   0.343   6.268   6.607
19841TIP3    H259401   0.349   6.410   6.556
19842TIP3   OH259402   9.687   4.555   6.308
19842TIP3    H159403   9.708   4.643   6.275
19842TIP3    H259404   9.771   4.520   6.337
19843TIP3   OH259405   9.455   6.153   6.082
19843TIP3    H159406   9.370   6.127   6.047
19843TIP3    H259407   9.457   6.248   6.070
19844TIP3   OH259408   0.053   4.733   6.177
19844TIP3    H159409   0.071   4.685   6.096
19844TIP3    H259410   0.106   4.688   6.243
19845TIP3   OH259411   0.443   6.328   5.762
19845TIP3    H159412   0.536   6.352   5.763
19845TIP3    H259413   0.438   6.256   5.699
19846TIP3   OH259414   0.288   4.998   7.581
19846TIP3    H159415   0.275   4.923   7.639
19846TIP3    H259416   0.364   4.975   7.528
19847TIP3   OH259417   0.561   5.025   7.810
19847TIP3    H159418   0.649   5.024   7.772
19847TIP3    H259419   0.576   5.032   7.904
19848TIP3   OH259420   9.512   6.155   5.803
19848TIP3    H159421   9.519   6.146   5.899
19848TIP3    H259422   9.593   6.116   5.770
19849TIP3   OH259423   7.875   1.622   0.455
19849TIP3    H159424   7.842   1.707   0.427
19849TIP3    H259425   7.803   1.561   0.437
19850TIP3   OH259426   7.868   1.581   0.856
19850TIP3    H159427   7.916   1.562   0.937
19850TIP3    H259428   7.820   1.500   0.838
19851TIP3   OH259429   8.117   1.857   0.488
19851TIP3    H159430   8.092   1.790   0.551
19851TIP3    H259431   8.161   1.924   0.540
19852TIP3   OH259432   7.694   2.298   0.482
19852TIP3    H159433   7.777   2.268   0.444
19852TIP3    H259434   7.691   2.255   0.567
19853TIP3   OH259435   7.677   1.793   0.828
19853TIP3    H159436   7.742   1.723   0.832
19853TIP3    H259437   7.636   1.793   0.914
19854TIP3   OH259438   8.691   1.156   0.887
19854TIP3    H159439   8.717   1.234   0.936
19854TIP3    H259440   8.712   1.177   0.796
19855TIP3   OH259441   8.069   1.291   0.907
19855TIP3    H159442   8.113   1.209   0.929
19855TIP3    H259443   8.034   1.277   0.819
19856TIP3   OH259444   7.476   0.986   0.868
19856TIP3    H159445   7.430   1.065   0.837
19856TIP3    H259446   7.421   0.914   0.839
19857TIP3   OH259447   8.124   1.078   0.500
19857TIP3    H159448   8.185   1.070   0.574
19857TIP3    H259449   8.177   1.115   0.429
19858TIP3   OH259450   7.500   1.410   0.753
19858TIP3    H159451   7.589   1.377   0.771
19858TIP3    H259452   7.449   1.331   0.738
19859TIP3   OH259453   8.769   1.360   1.059
19859TIP3    H159454   8.679   1.393   1.054
19859TIP3    H259455   8.803   1.396   1.141
19860TIP3   OH259456   7.764   1.821   0.290
19860TIP3    H159457   7.716   1.786   0.216
19860TIP3    H259458   7.705   1.887   0.328
19861TIP3   OH259459   8.280   1.099   0.723
19861TIP3    H159460   8.249   1.068   0.808
19861TIP3    H259461   8.337   1.173   0.743
19862TIP3   OH259462   8.210   2.059   0.656
19862TIP3    H159463   8.231   2.085   0.746
19862TIP3    H259464   8.134   2.112   0.633
19863TIP3   OH259465   8.480   1.063   1.055
19863TIP3    H159466   8.397   1.073   1.010
19863TIP3    H259467   8.546   1.087   0.990
19864TIP3   OH259468   7.770   0.688   1.016
19864TIP3    H159469   7.761   0.596   1.043
19864TIP3    H259470   7.702   0.733   1.066
19865TIP3   OH259471   7.894   2.151   0.346
19865TIP3    H159472   7.930   2.069   0.313
19865TIP3    H259473   7.945   2.219   0.303
19866TIP3   OH259474   8.016   1.928   0.241
19866TIP3    H159475   7.935   1.877   0.246
19866TIP3    H259476   8.067   1.900   0.317
19867TIP3   OH259477   8.446   1.975   1.005
19867TIP3    H159478   8.415   1.912   0.940
19867TIP3    H259479   8.403   2.057   0.982
19868TIP3   OH259480   7.690   1.469   0.308
19868TIP3    H159481   7.606   1.514   0.303
19868TIP3    H259482   7.727   1.476   0.220
19869TIP3   OH259483   7.660   1.269  -0.001
19869TIP3    H159484   7.724   1.321   0.048
19869TIP3    H259485   7.712   1.200  -0.042
19870TIP3   OH259486   8.601   1.684   0.876
19870TIP3    H159487   8.510   1.715   0.883
19870TIP3    H259488   8.633   1.722   0.795
19871TIP3   OH259489   8.050   1.554   0.257
19871TIP3    H159490   7.997   1.582   0.331
19871TIP3    H259491   8.133   1.527   0.296
19872TIP3   OH259492   8.228   1.475   1.248
19872TIP3    H159493   8.221   1.557   1.298
19872TIP3    H259494   8.157   1.480   1.184
19873TIP3   OH259495   7.463   1.494   1.012
19873TIP3    H159496   7.470   1.483   0.918
19873TIP3    H259497   7.546   1.535   1.038
19874TIP3   OH259498   8.032   2.158   0.864
19874TIP3    H159499   8.005   2.187   0.777
19874TIP3    H259500   8.014   2.064   0.864
19875TIP3   OH259501   7.879   1.415   0.091
19875TIP3    H159502   7.938   1.472   0.140
19875TIP3    H259503   7.910   1.421   0.000
19876TIP3   OH259504   7.618   2.048   0.355
19876TIP3    H159505   7.704   2.083   0.379
19876TIP3    H259506   7.584   2.110   0.291
19877TIP3   OH259507   8.383   0.641   0.151
19877TIP3    H159508   8.307   0.660   0.207
19877TIP3    H259509   8.389   0.716   0.093
19878TIP3   OH259510   1.659   6.612   7.652
19878TIP3    H159511   1.667   6.708   7.651
19878TIP3    H259512   1.750   6.581   7.660
19879TIP3   OH259513   8.679   2.403   1.007
19879TIP3    H159514   8.660   2.353   0.928
19879TIP3    H259515   8.593   2.436   1.035
19880TIP3   OH259516   7.709   2.217   1.318
19880TIP3    H159517   7.672   2.290   1.367
19880TIP3    H259518   7.647   2.203   1.246
19881TIP3   OH259519   7.533   2.234   0.173
19881TIP3    H159520   7.496   2.236   0.085
19881TIP3    H259521   7.478   2.293   0.224
19882TIP3   OH259522   1.172   6.837   7.806
19882TIP3    H159523   1.228   6.764   7.779
19882TIP3    H259524   1.202   6.860   7.893
19883TIP3   OH259525   7.784   2.277   0.060
19883TIP3    H159526   7.709   2.260   0.116
19883TIP3    H259527   7.859   2.279   0.120
19884TIP3   OH259528   8.513   1.508   1.332
19884TIP3    H159529   8.425   1.521   1.296
19884TIP3    H259530   8.529   1.414   1.323
19885TIP3   OH259531   7.574   0.794   1.172
19885TIP3    H159532   7.488   0.822   1.139
19885TIP3    H259533   7.603   0.865   1.228
19886TIP3   OH259534   7.928   0.918   1.357
19886TIP3    H159535   7.930   0.890   1.448
19886TIP3    H259536   7.838   0.948   1.342
19887TIP3   OH259537   8.271   1.249   1.394
19887TIP3    H159538   8.273   1.279   1.484
19887TIP3    H259539   8.256   1.329   1.342
19888TIP3   OH259540   1.429   6.014   7.828
19888TIP3    H159541   1.386   6.015   7.743
19888TIP3    H259542   1.509   6.065   7.816
19889TIP3   OH259543   7.657   0.810   0.147
19889TIP3    H159544   7.625   0.814   0.237
19889TIP3    H259545   7.624   0.726   0.114
19890TIP3   OH259546   7.436   1.282   1.177
19890TIP3    H159547   7.352   1.292   1.222
19890TIP3    H259548   7.439   1.355   1.115
19891TIP3   OH259549   7.334   1.183   0.726
19891TIP3    H159550   7.242   1.209   0.738
19891TIP3    H259551   7.334   1.131   0.646
19892TIP3   OH259552   7.804   1.254   0.432
19892TIP3    H159553   7.759   1.330   0.395
19892TIP3    H259554   7.862   1.223   0.362
19893TIP3   OH259555   7.975   1.255   0.653
19893TIP3    H159556   7.905   1.278   0.591
19893TIP3    H259557   8.022   1.183   0.610
19894TIP3   OH259558   7.314   0.775   0.109
19894TIP3    H159559   7.298   0.785   0.202
19894TIP3    H259560   7.227   0.773   0.070
19895TIP3   OH259561   7.977   1.461   1.094
19895TIP3    H159562   8.012   1.402   1.028
19895TIP3    H259563   7.951   1.404   1.166
19896TIP3   OH259564   7.727   0.982   0.756
19896TIP3    H159565   7.647   0.984   0.809
19896TIP3    H259566   7.798   0.970   0.820
19897TIP3   OH259567   7.343   1.046   0.487
19897TIP3    H159568   7.438   1.058   0.485
19897TIP3    H259569   7.312   1.078   0.402
19898TIP3   OH259570   8.172   1.043   0.976
19898TIP3    H159571   8.155   1.062   1.068
19898TIP3    H259572   8.102   0.982   0.951
19899TIP3   OH259573   7.243   1.113   0.241
19899TIP3    H159574   7.169   1.073   0.196
19899TIP3    H259575   7.301   1.143   0.171
19900TIP3   OH259576   8.412   2.741   1.289
19900TIP3    H159577   8.356   2.808   1.248
19900TIP3    H259578   8.377   2.732   1.378
19901TIP3   OH259579   7.748   1.322   0.850
19901TIP3    H159580   7.810   1.266   0.805
19901TIP3    H259581   7.731   1.278   0.934
19902TIP3   OH259582   7.327   0.783   0.755
19902TIP3    H159583   7.253   0.754   0.702
19902TIP3    H259584   7.399   0.726   0.728
19903TIP3   OH259585   7.697   1.217   1.108
19903TIP3    H159586   7.608   1.244   1.132
19903TIP3    H259587   7.753   1.259   1.173
19904TIP3   OH259588   7.451   1.610   0.287
19904TIP3    H159589   7.382   1.547   0.266
19904TIP3    H259590   7.425   1.648   0.370
19905TIP3   OH259591   8.358   1.820   0.795
19905TIP3    H159592   8.375   1.887   0.729
19905TIP3    H259593   8.272   1.784   0.772
19906TIP3   OH259594   7.908   0.920   0.150
19906TIP3    H159595   7.815   0.897   0.149
19906TIP3    H259596   7.910   1.014   0.166
19907TIP3   OH259597   7.772   1.842   1.268
19907TIP3    H159598   7.747   1.820   1.357
19907TIP3    H259599   7.823   1.922   1.276
19908TIP3   OH259600   7.971   1.183   0.218
19908TIP3    H159601   8.065   1.186   0.232
19908TIP3    H259602   7.951   1.263   0.169
19909TIP3   OH259603   7.589   1.737   0.088
19909TIP3    H159604   7.540   1.819   0.079
19909TIP3    H259605   7.539   1.687   0.153
19910TIP3   OH259606   7.895   2.294   1.068
19910TIP3    H159607   7.834   2.225   1.042
19910TIP3    H259608   7.976   2.273   1.021
19911TIP3   OH259609   1.854   5.886   8.032
19911TIP3    H159610   1.796   5.839   7.972
19911TIP3    H259611   1.855   5.976   7.999
19912TIP3   OH259612   8.669   2.112   1.108
19912TIP3    H159613   8.573   2.104   1.114
19912TIP3    H259614   8.688   2.095   1.016
19913TIP3   OH259615   1.573   6.673   7.988
19913TIP3    H159616   1.545   6.639   8.073
19913TIP3    H259617   1.605   6.596   7.940
19914TIP3   OH259618   8.093   1.689   0.720
19914TIP3    H159619   8.007   1.656   0.745
19914TIP3    H259620   8.141   1.611   0.691
19915TIP3   OH259621   7.382   1.690   0.545
19915TIP3    H159622   7.332   1.747   0.604
19915TIP3    H259623   7.436   1.637   0.603
19916TIP3   OH259624   7.995   1.890   0.892
19916TIP3    H159625   7.987   1.832   0.968
19916TIP3    H259626   8.027   1.833   0.822
19917TIP3   OH259627   1.402   6.377   7.808
19917TIP3    H159628   1.449   6.357   7.889
19917TIP3    H259629   1.312   6.347   7.824
19918TIP3   OH259630   8.208   2.392   1.059
19918TIP3    H159631   8.173   2.446   1.130
19918TIP3    H259632   8.187   2.439   0.979
19919TIP3   OH259633   1.698   6.886   7.650
19919TIP3    H159634   1.756   6.949   7.608
19919TIP3    H259635   1.619   6.935   7.671
19920TIP3   OH259636   8.086   1.697   0.023
19920TIP3    H159637   8.063   1.660   0.108
19920TIP3    H259638   8.180   1.716   0.030
19921TIP3   OH259639   0.801   6.362   7.867
19921TIP3    H159640   0.785   6.274   7.835
19921TIP3    H259641   0.792   6.356   7.962
19922TIP3   OH259642   8.100   1.101   1.236
19922TIP3    H159643   8.167   1.133   1.296
19922TIP3    H259644   8.059   1.028   1.282
19923TIP3   OH259645   7.974   0.863   0.414
19923TIP3    H159646   7.953   0.883   0.323
19923TIP3    H259647   8.019   0.941   0.447
19924TIP3   OH259648   7.439   1.962   0.088
19924TIP3    H159649   7.427   2.000   0.175
19924TIP3    H259650   7.442   2.037   0.029
19925TIP3   OH259651   7.620   1.066   0.515
19925TIP3    H159652   7.679   1.135   0.483
19925TIP3    H259653   7.653   1.045   0.602
19926TIP3   OH259654   7.896   1.286   1.289
19926TIP3    H159655   7.902   1.304   1.383
19926TIP3    H259656   7.963   1.220   1.273
19927TIP3   OH259657   7.792   0.764   0.594
19927TIP3    H159658   7.777   0.841   0.649
19927TIP3    H259659   7.862   0.790   0.534
19928TIP3   OH259660   7.308   0.781   0.387
19928TIP3    H159661   7.292   0.863   0.432
19928TIP3    H259662   7.402   0.768   0.392
19929TIP3   OH259663   8.528   1.236   1.283
19929TIP3    H159664   8.448   1.216   1.332
19929TIP3    H259665   8.521   1.184   1.203
19930TIP3   OH259666   8.203   1.440   0.652
19930TIP3    H159667   8.127   1.383   0.665
19930TIP3    H259668   8.271   1.403   0.708
19931TIP3   OH259669   8.185   2.424   0.558
19931TIP3    H159670   8.102   2.432   0.510
19931TIP3    H259671   8.249   2.468   0.502
19932TIP3   OH259672   0.875   6.595   7.748
19932TIP3    H159673   0.842   6.519   7.796
19932TIP3    H259674   0.957   6.565   7.710
19933TIP3   OH259675   8.165   2.235   1.393
19933TIP3    H159676   8.133   2.148   1.416
19933TIP3    H259677   8.107   2.295   1.439
19934TIP3   OH259678   1.341   6.636   7.726
19934TIP3    H159679   1.365   6.559   7.776
19934TIP3    H259680   1.425   6.674   7.699
19935TIP3   OH259681   7.673   1.768   1.521
19935TIP3    H159682   7.618   1.768   1.599
19935TIP3    H259683   7.761   1.746   1.553
19936TIP3   OH259684   1.137   6.311   7.829
19936TIP3    H159685   1.103   6.326   7.917
19936TIP3    H259686   1.107   6.223   7.807
19937TIP3   OH259687   8.196   1.871   1.186
19937TIP3    H159688   8.196   1.964   1.162
19937TIP3    H259689   8.110   1.840   1.159
19938TIP3   OH259690   7.278   1.409   0.220
19938TIP3    H159691   7.233   1.345   0.275
19938TIP3    H259692   7.318   1.357   0.150
19939TIP3   OH259693   7.604   1.432   1.373
19939TIP3    H159694   7.513   1.459   1.388
19939TIP3    H259695   7.628   1.474   1.290
19940TIP3   OH259696   7.389   1.228   0.040
19940TIP3    H159697   7.361   1.225  -0.051
19940TIP3    H259698   7.484   1.238   0.036
19941TIP3   OH259699   8.162   1.984   1.498
19941TIP3    H159700   8.242   1.958   1.455
19941TIP3    H259701   8.180   1.972   1.592
19942TIP3   OH259702   1.632   6.176   7.716
19942TIP3    H159703   1.619   6.143   7.627
19942TIP3    H259704   1.584   6.259   7.717
19943TIP3   OH259705   7.669   1.016   1.306
19943TIP3    H159706   7.680   1.071   1.229
19943TIP3    H259707   7.613   1.067   1.365
19944TIP3   OH259708   7.713   1.560   1.155
19944TIP3    H159709   7.797   1.527   1.123
19944TIP3    H259710   7.736   1.635   1.210
19945TIP3   OH259711   8.274   1.707   1.384
19945TIP3    H159712   8.242   1.774   1.323
19945TIP3    H259713   8.370   1.711   1.376
19946TIP3   OH259714   8.437   2.525   0.494
19946TIP3    H159715   8.466   2.437   0.516
19946TIP3    H259716   8.512   2.564   0.448
19947TIP3   OH259717   8.420   2.479   0.849
19947TIP3    H159718   8.332   2.499   0.816
19947TIP3    H259719   8.478   2.498   0.775
19948TIP3   OH259720   8.634   2.157   1.489
19948TIP3    H159721   8.539   2.163   1.493
19948TIP3    H259722   8.660   2.221   1.423
19949TIP3   OH259723   8.359   1.728   0.051
19949TIP3    H159724   8.415   1.800   0.024
19949TIP3    H259725   8.402   1.691   0.128
19950TIP3   OH259726   8.483   1.590   0.257
19950TIP3    H159727   8.416   1.553   0.314
19950TIP3    H259728   8.547   1.628   0.317
19951TIP3   OH259729   8.525   2.007   0.633
19951TIP3    H159730   8.577   1.927   0.627
19951TIP3    H259731   8.567   2.068   0.574
19952TIP3   OH259732   8.332   2.197   0.889
19952TIP3    H159733   8.300   2.266   0.947
19952TIP3    H259734   8.377   2.244   0.818
19953TIP3   OH259735   1.839   6.125   7.894
19953TIP3    H159736   1.768   6.136   7.831
19953TIP3    H259737   1.833   6.202   7.950
19954TIP3   OH259738   1.699   5.771   7.839
19954TIP3    H159739   1.656   5.803   7.760
19954TIP3    H259740   1.693   5.676   7.833
19955TIP3   OH259741   8.276   1.449   0.385
19955TIP3    H159742   8.278   1.355   0.366
19955TIP3    H259743   8.255   1.454   0.479
19956TIP3   OH259744   8.618   1.865   1.238
19956TIP3    H159745   8.660   1.782   1.214
19956TIP3    H259746   8.634   1.922   1.163
19957TIP3   OH259747   8.735   1.626   1.224
19957TIP3    H159748   8.656   1.585   1.260
19957TIP3    H259749   8.807   1.572   1.257
19958TIP3   OH259750   1.660   5.500   7.804
19958TIP3    H159751   1.725   5.475   7.870
19958TIP3    H259752   1.578   5.463   7.836
19959TIP3   OH259753   8.264   1.177   0.272
19959TIP3    H159754   8.308   1.094   0.288
19959TIP3    H259755   8.306   1.213   0.194
19960TIP3   OH259756   8.417   1.327   0.796
19960TIP3    H159757   8.498   1.346   0.748
19960TIP3    H259758   8.433   1.362   0.883
19961TIP3   OH259759   8.513   1.466   1.018
19961TIP3    H159760   8.450   1.512   1.074
19961TIP3    H259761   8.555   1.535   0.966
19962TIP3   OH259762   8.901   1.039   1.558
19962TIP3    H159763   8.986   1.012   1.523
19962TIP3    H259764   8.880   1.120   1.511
19963TIP3   OH259765   8.375   0.929   0.335
19963TIP3    H159766   8.420   0.916   0.419
19963TIP3    H259767   8.314   0.855   0.329
19964TIP3   OH259768   8.796   1.201   1.350
19964TIP3    H159769   8.704   1.228   1.350
19964TIP3    H259770   8.795   1.113   1.311
19965TIP3   OH259771   1.885   5.455   7.959
19965TIP3    H159772   1.936   5.392   7.908
19965TIP3    H259773   1.942   5.531   7.967
19966TIP3   OH259774   8.028   2.331   0.188
19966TIP3    H159775   8.072   2.318   0.105
19966TIP3    H259776   8.083   2.394   0.235
19967TIP3   OH259777   7.816   2.489   1.274
19967TIP3    H159778   7.757   2.477   1.348
19967TIP3    H259779   7.821   2.403   1.233
19968TIP3   OH259780   7.879   2.763   1.245
19968TIP3    H159781   7.869   2.668   1.256
19968TIP3    H259782   7.945   2.788   1.309
19969TIP3   OH259783   8.712   0.953   1.248
19969TIP3    H159784   8.623   0.937   1.217
19969TIP3    H259785   8.753   0.866   1.249
19970TIP3   OH259786   7.501   2.348   0.865
19970TIP3    H159787   7.418   2.393   0.855
19970TIP3    H259788   7.552   2.404   0.923
19971TIP3   OH259789   7.829   2.432   0.777
19971TIP3    H159790   7.777   2.454   0.854
19971TIP3    H259791   7.886   2.507   0.763
19972TIP3   OH259792   8.151   2.506   0.813
19972TIP3    H159793   8.083   2.572   0.804
19972TIP3    H259794   8.157   2.466   0.726
19973TIP3   OH259795   7.947   0.883   0.898
19973TIP3    H159796   7.898   0.810   0.937
19973TIP3    H259797   8.007   0.842   0.837
19974TIP3   OH259798   8.423   0.806   0.796
19974TIP3    H159799   8.460   0.853   0.722
19974TIP3    H259800   8.329   0.821   0.789
19975TIP3   OH259801   8.535   0.878   0.556
19975TIP3    H159802   8.603   0.816   0.528
19975TIP3    H259803   8.575   0.964   0.544
19976TIP3   OH259804   7.615   0.644   0.778
19976TIP3    H159805   7.674   0.677   0.709
19976TIP3    H259806   7.661   0.662   0.860
19977TIP3   OH259807   8.146   0.767   0.743
19977TIP3    H159808   8.177   0.726   0.662
19977TIP3    H259809   8.137   0.695   0.805
19978TIP3   OH259810   8.196   0.714   0.340
19978TIP3    H159811   8.115   0.760   0.364
19978TIP3    H259812   8.188   0.627   0.379
19979TIP3   OH259813   7.176   0.528   0.349
19979TIP3    H159814   7.179   0.523   0.253
19979TIP3    H259815   7.220   0.611   0.369
19980TIP3   OH259816   7.581   0.815   0.412
19980TIP3    H159817   7.642   0.764   0.465
19980TIP3    H259818   7.592   0.905   0.443
19981TIP3   OH259819   0.919   6.806   7.917
19981TIP3    H159820   0.998   6.836   7.873
19981TIP3    H259821   0.878   6.745   7.855
19982TIP3   OH259822   1.639   6.942   7.956
19982TIP3    H159823   1.624   6.847   7.954
19982TIP3    H259824   1.597   6.975   7.878
19983TIP3   OH259825   8.451   2.508   1.134
19983TIP3    H159826   8.376   2.470   1.089
19983TIP3    H259827   8.413   2.569   1.197
19984TIP3   OH259828   3.122   6.502   7.935
19984TIP3    H159829   3.090   6.589   7.912
19984TIP3    H259830   3.051   6.443   7.911
19985TIP3   OH259831   9.652   1.873   0.366
19985TIP3    H159832   9.706   1.856   0.443
19985TIP3    H259833   9.606   1.791   0.350
19986TIP3   OH259834   8.951   1.731   0.715
19986TIP3    H159835   8.990   1.677   0.784
19986TIP3    H259836   9.025   1.757   0.660
19987TIP3   OH259837   0.118   2.180   0.039
19987TIP3    H159838   0.107   2.114   0.107
19987TIP3    H259839   0.139   2.260   0.086
19988TIP3   OH259840   8.935   2.139   0.391
19988TIP3    H159841   8.925   2.044   0.390
19988TIP3    H259842   9.029   2.153   0.391
19989TIP3   OH259843   8.624   1.362   0.169
19989TIP3    H159844   8.588   1.446   0.198
19989TIP3    H259845   8.550   1.316   0.130
19990TIP3   OH259846   8.707   1.680   0.402
19990TIP3    H159847   8.756   1.602   0.429
19990TIP3    H259848   8.774   1.743   0.377
19991TIP3   OH259849   9.582   2.605   0.051
19991TIP3    H159850   9.608   2.541  -0.016
19991TIP3    H259851   9.587   2.556   0.133
19992TIP3   OH259852   9.461   2.095   0.367
19992TIP3    H159853   9.508   2.016   0.340
19992TIP3    H259854   9.530   2.153   0.400
19993TIP3   OH259855   0.697   1.413   0.387
19993TIP3    H159856   0.712   1.498   0.429
19993TIP3    H259857   0.722   1.427   0.295
19994TIP3   OH259858   0.062   1.580   0.404
19994TIP3    H159859   0.092   1.494   0.433
19994TIP3    H259860   0.026   1.564   0.316
19995TIP3   OH259861   9.222   1.237   0.360
19995TIP3    H159862   9.200   1.311   0.304
19995TIP3    H259863   9.165   1.166   0.330
19996TIP3   OH259864   0.115   1.339   0.004
19996TIP3    H159865   0.178   1.332   0.076
19996TIP3    H259866   0.165   1.376  -0.068
19997TIP3   OH259867   8.847   1.460   0.494
19997TIP3    H159868   8.931   1.441   0.537
19997TIP3    H259869   8.848   1.406   0.415
19998TIP3   OH259870   9.262   1.657   0.310
19998TIP3    H159871   9.357   1.642   0.316
19998TIP3    H259872   9.227   1.574   0.278
19999TIP3   OH259873   0.748   1.636   0.547
19999TIP3    H159874   0.658   1.669   0.544
19999TIP3    H259875   0.784   1.671   0.629
20000TIP3   OH259876   9.206   1.243   0.808
20000TIP3    H159877   9.153   1.279   0.737
20000TIP3    H259878   9.154   1.256   0.887
20001TIP3   OH259879   3.013   6.721   7.804
20001TIP3    H159880   2.974   6.690   7.722
20001TIP3    H259881   2.961   6.798   7.828
20002TIP3   OH259882   9.294   2.016   0.571
20002TIP3    H159883   9.243   2.089   0.607
20002TIP3    H259884   9.345   2.055   0.500
20003TIP3   OH259885   0.273   1.363   0.226
20003TIP3    H159886   0.228   1.343   0.308
20003TIP3    H259887   0.328   1.439   0.246
20004TIP3   OH259888   9.095   1.354   0.580
20004TIP3    H159889   9.150   1.428   0.604
20004TIP3    H259890   9.143   1.309   0.509
20005TIP3   OH259891   9.147   2.221   0.679
20005TIP3    H159892   9.136   2.313   0.654
20005TIP3    H259893   9.071   2.201   0.733
20006TIP3   OH259894   1.990   6.541   7.942
20006TIP3    H159895   1.958   6.566   7.855
20006TIP3    H259896   2.020   6.623   7.981
20007TIP3   OH259897   0.153   2.427   0.178
20007TIP3    H159898   0.065   2.419   0.216
20007TIP3    H259899   0.152   2.509   0.130
20008TIP3   OH259900   0.498   1.303   0.555
20008TIP3    H159901   0.413   1.324   0.515
20008TIP3    H259902   0.563   1.330   0.490
20009TIP3   OH259903   9.545   0.938   0.544
20009TIP3    H159904   9.539   0.847   0.572
20009TIP3    H259905   9.467   0.979   0.583
20010TIP3   OH259906   3.133   7.074   7.835
20010TIP3    H159907   3.186   6.995   7.822
20010TIP3    H259908   3.191   7.146   7.807
20011TIP3   OH259909   3.268   6.840   7.793
20011TIP3    H159910   3.190   6.783   7.797
20011TIP3    H259911   3.317   6.818   7.872
20012TIP3   OH259912   0.393   2.315   0.521
20012TIP3    H159913   0.373   2.240   0.464
20012TIP3    H259914   0.377   2.392   0.467
20013TIP3   OH259915   2.946   6.339   7.792
20013TIP3    H159916   2.862   6.381   7.774
20013TIP3    H259917   2.993   6.342   7.708
20014TIP3   OH259918   2.908   6.156   7.484
20014TIP3    H159919   2.975   6.203   7.533
20014TIP3    H259920   2.954   6.082   7.445
20015TIP3   OH259921   0.567   1.977   0.389
20015TIP3    H159922   0.482   2.022   0.388
20015TIP3    H259923   0.602   1.991   0.301
20016TIP3   OH259924   3.310   6.424   7.752
20016TIP3    H159925   3.254   6.455   7.823
20016TIP3    H259926   3.393   6.402   7.794
20017TIP3   OH259927   0.269   1.836   0.702
20017TIP3    H159928   0.264   1.919   0.748
20017TIP3    H259929   0.188   1.832   0.651
20018TIP3   OH259930   9.066   1.786   0.152
20018TIP3    H159931   9.032   1.724   0.088
20018TIP3    H259932   9.140   1.740   0.193
20019TIP3   OH259933   9.202   2.204   0.303
20019TIP3    H159934   9.181   2.194   0.210
20019TIP3    H259935   9.290   2.168   0.311
20020TIP3   OH259936   9.158   1.783   0.532
20020TIP3    H159937   9.198   1.746   0.453
20020TIP3    H259938   9.206   1.865   0.547
20021TIP3   OH259939   9.714   2.419   0.307
20021TIP3    H159940   9.702   2.501   0.356
20021TIP3    H259941   9.698   2.350   0.372
20022TIP3   OH259942   9.341   2.315   0.855
20022TIP3    H159943   9.282   2.374   0.902
20022TIP3    H259944   9.284   2.266   0.795
20023TIP3   OH259945   3.137   6.290   7.581
20023TIP3    H159946   3.197   6.348   7.628
20023TIP3    H259947   3.169   6.291   7.491
20024TIP3   OH259948   9.107   1.864   0.985
20024TIP3    H159949   9.112   1.957   1.006
20024TIP3    H259950   9.013   1.845   0.979
20025TIP3   OH259951   2.881   6.963   7.836
20025TIP3    H159952   2.965   7.009   7.844
20025TIP3    H259953   2.824   7.025   7.790
20026TIP3   OH259954   9.141   2.480   0.948
20026TIP3    H159955   9.110   2.488   0.857
20026TIP3    H259956   9.063   2.452   0.996
20027TIP3   OH259957   3.647   5.524   7.639
20027TIP3    H159958   3.570   5.545   7.691
20027TIP3    H259959   3.660   5.600   7.583
20028TIP3   OH259960   2.407   6.244   7.958
20028TIP3    H159961   2.327   6.288   7.929
20028TIP3    H259962   2.380   6.154   7.976
20029TIP3   OH259963   3.468   6.888   7.199
20029TIP3    H159964   3.457   6.981   7.180
20029TIP3    H259965   3.560   6.870   7.182
20030TIP3   OH259966   8.746   2.002   0.860
20030TIP3    H159967   8.709   1.955   0.785
20030TIP3    H259968   8.785   1.934   0.914
20031TIP3   OH259969   8.676   2.193   0.486
20031TIP3    H159970   8.760   2.166   0.447
20031TIP3    H259971   8.699   2.263   0.547
20032TIP3   OH259972   0.624   2.686   0.590
20032TIP3    H159973   0.629   2.591   0.601
20032TIP3    H259974   0.544   2.711   0.636
20033TIP3   OH259975   9.530   2.459   0.718
20033TIP3    H159976   9.521   2.550   0.746
20033TIP3    H259977   9.461   2.412   0.765
20034TIP3   OH259978   2.775   7.178   7.671
20034TIP3    H159979   2.733   7.159   7.587
20034TIP3    H259980   2.739   7.263   7.697
20035TIP3   OH259981   8.752   2.409   0.035
20035TIP3    H159982   8.800   2.401   0.117
20035TIP3    H259983   8.704   2.326   0.027
20036TIP3   OH259984   2.974   7.118   7.296
20036TIP3    H159985   3.024   7.044   7.261
20036TIP3    H259986   3.010   7.133   7.383
20037TIP3   OH259987   3.030   7.163   7.566
20037TIP3    H159988   2.945   7.162   7.609
20037TIP3    H259989   3.091   7.132   7.633
20038TIP3   OH259990   0.514   1.787   0.855
20038TIP3    H159991   0.430   1.798   0.812
20038TIP3    H259992   0.531   1.693   0.850
20039TIP3   OH259993   8.937   2.209   0.850
20039TIP3    H159994   8.983   2.194   0.932
20039TIP3    H259995   8.864   2.147   0.853
20040TIP3   OH259996   9.307   1.027   0.666
20040TIP3    H159997   9.223   0.995   0.633
20040TIP3    H259998   9.285   1.107   0.713
20041TIP3   OH259999   0.050   1.154   0.871
20041TIP3    H160000   0.119   1.130   0.933
20041TIP3    H260001  -0.032   1.137   0.919
20042TIP3   OH260002   0.267   1.570   0.790
20042TIP3    H160003   0.227   1.564   0.877
20042TIP3    H260004   0.252   1.661   0.763
20043TIP3   OH260005   3.222   6.247   7.317
20043TIP3    H160006   3.171   6.251   7.236
20043TIP3    H260007   3.303   6.294   7.297
20044TIP3   OH260008   2.917   5.715   7.637
20044TIP3    H160009   2.888   5.709   7.727
20044TIP3    H260010   2.891   5.632   7.597
20045TIP3   OH260011   9.244   1.564   0.679
20045TIP3    H160012   9.199   1.569   0.764
20045TIP3    H260013   9.220   1.646   0.635
20046TIP3   OH260014   9.121   1.441   0.207
20046TIP3    H160015   9.032   1.417   0.232
20046TIP3    H260016   9.130   1.409   0.118
20047TIP3   OH260017   3.066   6.136   7.932
20047TIP3    H160018   3.020   6.209   7.891
20047TIP3    H260019   3.125   6.104   7.864
20048TIP3   OH260020  -0.007   1.782   0.997
20048TIP3    H160021  -0.034   1.715   1.059
20048TIP3    H260022   0.086   1.797   1.018
20049TIP3   OH260023   9.769   1.528   0.152
20049TIP3    H160024   9.700   1.549   0.088
20049TIP3    H260025   9.816   1.454   0.113
20050TIP3   OH260026   9.085   1.569   0.904
20050TIP3    H160027   9.106   1.630   0.975
20050TIP3    H260028   9.070   1.486   0.948
20051TIP3   OH260029   2.575   5.646   7.637
20051TIP3    H160030   2.567   5.650   7.733
20051TIP3    H260031   2.503   5.700   7.605
20052TIP3   OH260032   8.668   1.100   0.481
20052TIP3    H160033   8.741   1.135   0.531
20052TIP3    H260034   8.706   1.078   0.395
20053TIP3   OH260035   2.041   5.686   7.975
20053TIP3    H160036   2.086   5.716   7.896
20053TIP3    H260037   1.982   5.757   7.998
20054TIP3   OH260038   0.019   1.783   0.578
20054TIP3    H160039   0.042   1.715   0.514
20054TIP3    H260040  -0.027   1.735   0.647
20055TIP3   OH260041   9.491   1.223   0.251
20055TIP3    H160042   9.412   1.223   0.306
20055TIP3    H260043   9.563   1.215   0.313
20056TIP3   OH260044   8.881   1.316   0.263
20056TIP3    H160045   8.794   1.319   0.223
20056TIP3    H260046   8.911   1.226   0.248
20057TIP3   OH260047   2.607   5.942   7.963
20057TIP3    H160048   2.702   5.951   7.956
20057TIP3    H260049   2.574   5.958   7.875
20058TIP3   OH260050   0.126   1.315   0.458
20058TIP3    H160051   0.109   1.332   0.551
20058TIP3    H260052   0.058   1.253   0.433
20059TIP3   OH260053   2.506   5.967   7.712
20059TIP3    H160054   2.445   5.912   7.662
20059TIP3    H260055   2.555   6.015   7.646
20060TIP3   OH260056   0.340   3.022   0.677
20060TIP3    H160057   0.334   3.040   0.584
20060TIP3    H260058   0.418   3.069   0.707
20061TIP3   OH260059   9.092   2.126   1.078
20061TIP3    H160060   9.173   2.148   1.124
20061TIP3    H260061   9.024   2.131   1.145
20062TIP3   OH260062   9.535   1.605   0.359
20062TIP3    H160063   9.603   1.557   0.312
20062TIP3    H260064   9.533   1.566   0.446
20063TIP3   OH260065   9.024   1.068   0.243
20063TIP3    H160066   8.997   0.991   0.293
20063TIP3    H260067   9.048   1.034   0.157
20064TIP3   OH260068   9.510   1.510   0.622
20064TIP3    H160069   9.423   1.541   0.647
20064TIP3    H260070   9.570   1.561   0.675
20065TIP3   OH260071   2.705   6.467   7.738
20065TIP3    H160072   2.628   6.417   7.711
20065TIP3    H260073   2.677   6.512   7.818
20066TIP3   OH260074   0.332   2.114   0.342
20066TIP3    H160075   0.368   2.164   0.269
20066TIP3    H260076   0.253   2.073   0.307
20067TIP3   OH260077   3.177   5.801   7.643
20067TIP3    H160078   3.083   5.784   7.636
20067TIP3    H260079   3.184   5.895   7.658
20068TIP3   OH260080   9.655   2.194   0.762
20068TIP3    H160081   9.706   2.184   0.842
20068TIP3    H260082   9.616   2.281   0.769
20069TIP3   OH260083   3.234   6.064   7.719
20069TIP3    H160084   3.329   6.069   7.734
20069TIP3    H260085   3.214   6.142   7.668
20070TIP3   OH260086   8.929   1.857   0.380
20070TIP3    H160087   8.969   1.841   0.295
20070TIP3    H260088   8.996   1.830   0.443
20071TIP3   OH260089   2.860   6.631   7.585
20071TIP3    H160090   2.812   6.714   7.579
20071TIP3    H260091   2.803   6.574   7.636
20072TIP3   OH260092   8.837   1.799   1.021
20072TIP3    H160093   8.856   1.774   1.111
20072TIP3    H260094   8.772   1.734   0.991
20073TIP3   OH260095   9.561   1.935   1.037
20073TIP3    H160096   9.492   1.874   1.009
20073TIP3    H260097   9.642   1.893   1.007
20074TIP3   OH260098   9.799   2.486   0.645
20074TIP3    H160099   9.705   2.471   0.647
20074TIP3    H260100   9.820   2.523   0.731
20075TIP3   OH260101   3.649   6.143   7.549
20075TIP3    H160102   3.638   6.071   7.488
20075TIP3    H260103   3.639   6.222   7.496
20076TIP3   OH260104   0.636   2.407   0.610
20076TIP3    H160105   0.543   2.388   0.606
20076TIP3    H260106   0.671   2.375   0.527
20077TIP3   OH260107   3.388   6.963   7.466
20077TIP3    H160108   3.359   6.895   7.527
20077TIP3    H260109   3.405   6.916   7.384
20078TIP3   OH260110   0.104   1.978   0.240
20078TIP3    H160111   0.015   1.957   0.267
20078TIP3    H260112   0.138   1.897   0.202
20079TIP3   OH260113   9.067   2.217   0.055
20079TIP3    H160114   9.070   2.288  -0.008
20079TIP3    H260115   8.983   2.227   0.100
20080TIP3   OH260116   2.087   6.092   7.775
20080TIP3    H160117   2.131   6.174   7.798
20080TIP3    H260118   2.002   6.098   7.820
20081TIP3   OH260119   2.598   6.590   7.953
20081TIP3    H160120   2.586   6.679   7.986
20081TIP3    H260121   2.576   6.534   8.027
20082TIP3   OH260122   9.345   2.535   0.512
20082TIP3    H160123   9.378   2.609   0.461
20082TIP3    H260124   9.421   2.503   0.560
20083TIP3   OH260125   2.455   7.054   7.898
20083TIP3    H160126   2.367   7.060   7.936
20083TIP3    H260127   2.490   7.143   7.903
20084TIP3   OH260128   9.690   2.203   0.488
20084TIP3    H160129   9.676   2.198   0.582
20084TIP3    H260130   9.773   2.157   0.474
20085TIP3   OH260131   3.162   6.691   7.343
20085TIP3    H160132   3.212   6.659   7.418
20085TIP3    H260133   3.076   6.650   7.352
20086TIP3   OH260134   0.149   2.694   0.524
20086TIP3    H160135   0.080   2.631   0.543
20086TIP3    H260136   0.116   2.746   0.450
20087TIP3   OH260137   3.455   7.160   7.155
20087TIP3    H160138   3.462   7.215   7.077
20087TIP3    H260139   3.390   7.203   7.210
20088TIP3   OH260140   9.044   1.312   1.022
20088TIP3    H160141   8.949   1.314   1.027
20088TIP3    H260142   9.071   1.260   1.097
20089TIP3   OH260143   3.337   6.587   7.529
20089TIP3    H160144   3.322   6.544   7.613
20089TIP3    H260145   3.432   6.600   7.525
20090TIP3   OH260146   8.795   2.407   0.628
20090TIP3    H160147   8.844   2.357   0.693
20090TIP3    H260148   8.739   2.465   0.679
20091TIP3   OH260149   2.510   6.660   7.374
20091TIP3    H160150   2.520   6.569   7.347
20091TIP3    H260151   2.497   6.656   7.468
20092TIP3   OH260152   2.444   6.674   7.645
20092TIP3    H160153   2.501   6.652   7.719
20092TIP3    H260154   2.441   6.769   7.645
20093TIP3   OH260155   2.175   6.353   7.847
20093TIP3    H160156   2.113   6.404   7.900
20093TIP3    H260157   2.198   6.412   7.774
20094TIP3   OH260158   0.077   1.381   0.720
20094TIP3    H160159   0.153   1.428   0.752
20094TIP3    H260160   0.069   1.305   0.778
20095TIP3   OH260161   3.236   5.742   7.910
20095TIP3    H160162   3.217   5.762   7.819
20095TIP3    H260163   3.280   5.820   7.943
20096TIP3   OH260164   2.714   6.858   7.572
20096TIP3    H160165   2.628   6.883   7.608
20096TIP3    H260166   2.741   6.935   7.522
20097TIP3   OH260167   9.417   1.324   0.002
20097TIP3    H160168   9.478   1.393  -0.023
20097TIP3    H260169   9.442   1.301   0.092
20098TIP3   OH260170   9.717   1.618   0.774
20098TIP3    H160171   9.743   1.662   0.855
20098TIP3    H260172   9.766   1.536   0.774
20099TIP3   OH260173   9.590   1.015   0.088
20099TIP3    H160174   9.567   1.091   0.141
20099TIP3    H260175   9.660   1.045   0.031
20100TIP3   OH260176   2.463   6.946   7.647
20100TIP3    H160177   2.445   7.017   7.586
20100TIP3    H260178   2.459   6.987   7.733
20101TIP3   OH260179   2.577   5.666   7.919
20101TIP3    H160180   2.564   5.759   7.940
20101TIP3    H260181   2.672   5.656   7.916
20102TIP3   OH260182   0.529   1.509   0.761
20102TIP3    H160183   0.435   1.522   0.775
20102TIP3    H260184   0.534   1.445   0.690
20103TIP3   OH260185   0.195   1.719   0.153
20103TIP3    H160186   0.118   1.664   0.164
20103TIP3    H260187   0.261   1.680   0.209
20104TIP3   OH260188   2.199   6.539   7.635
20104TIP3    H160189   2.268   6.605   7.646
20104TIP3    H260190   2.233   6.480   7.568
20105TIP3   OH260191   2.113   5.809   7.735
20105TIP3    H160192   2.108   5.903   7.748
20105TIP3    H260193   2.045   5.790   7.670
20106TIP3   OH260194   0.172   2.690   0.088
20106TIP3    H160195   0.130   2.743   0.021
20106TIP3    H260196   0.266   2.705   0.075
20107TIP3   OH260197   9.045   0.948   0.618
20107TIP3    H160198   9.014   0.915   0.534
20107TIP3    H260199   9.036   0.873   0.677
20108TIP3   OH260200   8.585   2.179   0.030
20108TIP3    H160201   8.549   2.219   0.109
20108TIP3    H260202   8.537   2.220  -0.042
20109TIP3   OH260203   8.847   2.692   1.085
20109TIP3    H160204   8.892   2.714   1.166
20109TIP3    H260205   8.865   2.599   1.072
20110TIP3   OH260206   9.227   2.665   1.133
20110TIP3    H160207   9.317   2.637   1.152
20110TIP3    H260208   9.196   2.602   1.068
20111TIP3   OH260209   2.657   6.865   7.257
20111TIP3    H160210   2.613   6.795   7.306
20111TIP3    H260211   2.733   6.823   7.217
20112TIP3   OH260212   0.052   2.583   0.896
20112TIP3    H160213   0.070   2.512   0.958
20112TIP3    H260214   0.127   2.642   0.907
20113TIP3   OH260215   3.102   6.904   7.179
20113TIP3    H160216   3.140   6.840   7.239
20113TIP3    H260217   3.160   6.903   7.103
20114TIP3   OH260218   8.893   2.103   1.266
20114TIP3    H160219   8.911   2.010   1.280
20114TIP3    H260220   8.810   2.105   1.220
20115TIP3   OH260221   2.320   6.352   7.476
20115TIP3    H160222   2.370   6.329   7.554
20115TIP3    H260223   2.386   6.368   7.408
20116TIP3   OH260224   9.505   2.213   1.051
20116TIP3    H160225   9.456   2.234   0.971
20116TIP3    H260226   9.538   2.124   1.037
20117TIP3   OH260227   2.909   6.576   7.321
20117TIP3    H160228   2.883   6.587   7.412
20117TIP3    H260229   2.884   6.485   7.300
20118TIP3   OH260230   0.165   2.261   0.671
20118TIP3    H160231   0.244   2.289   0.624
20118TIP3    H260232   0.103   2.332   0.659
20119TIP3   OH260233   9.003   1.844   1.279
20119TIP3    H160234   9.083   1.832   1.229
20119TIP3    H260235   9.032   1.872   1.366
20120TIP3   OH260236   2.489   6.298   7.689
20120TIP3    H160237   2.474   6.268   7.778
20120TIP3    H260238   2.540   6.228   7.648
20121TIP3   OH260239   9.359   1.758   0.938
20121TIP3    H160240   9.274   1.800   0.948
20121TIP3    H260241   9.390   1.788   0.852
20122TIP3   OH260242   2.636   6.123   7.529
20122TIP3    H160243   2.607   6.124   7.437
20122TIP3    H260244   2.730   6.134   7.525
20123TIP3   OH260245   0.045   2.133   1.018
20123TIP3    H160246   0.115   2.096   0.964
20123TIP3    H260247   0.043   2.078   1.096
20124TIP3   OH260248   3.433   6.386   7.183
20124TIP3    H160249   3.412   6.354   7.095
20124TIP3    H260250   3.409   6.478   7.181
20125TIP3   OH260251   9.454   1.528   1.050
20125TIP3    H160252   9.457   1.457   0.986
20125TIP3    H260253   9.422   1.604   1.000
20126TIP3   OH260254   9.463   1.333   0.846
20126TIP3    H160255   9.490   1.372   0.763
20126TIP3    H260256   9.373   1.304   0.831
20127TIP3   OH260257   9.469   1.859   0.712
20127TIP3    H160258   9.555   1.902   0.706
20127TIP3    H260259   9.411   1.916   0.662
20128TIP3   OH260260   0.259   1.817   1.098
20128TIP3    H160261   0.305   1.734   1.107
20128TIP3    H260262   0.329   1.882   1.093
20129TIP3   OH260263   0.284   2.083   0.838
20129TIP3    H160264   0.232   2.144   0.787
20129TIP3    H260265   0.374   2.097   0.808
20130TIP3   OH260266   9.338   1.625   1.288
20130TIP3    H160267   9.272   1.559   1.309
20130TIP3    H260268   9.372   1.599   1.203
20131TIP3   OH260269   9.583   1.100   0.943
20131TIP3    H160270   9.543   1.181   0.912
20131TIP3    H260271   9.515   1.034   0.932
20132TIP3   OH260272   9.707   1.575   1.153
20132TIP3    H160273   9.695   1.565   1.247
20132TIP3    H260274   9.622   1.552   1.115
20133TIP3   OH260275   0.151   1.522   1.028
20133TIP3    H160276   0.073   1.525   1.083
20133TIP3    H260277   0.222   1.500   1.088
20134TIP3   OH260278   0.392   1.492   1.171
20134TIP3    H160279   0.405   1.397   1.180
20134TIP3    H260280   0.386   1.524   1.261
20135TIP3   OH260281   9.181   1.401   1.339
20135TIP3    H160282   9.186   1.315   1.298
20135TIP3    H260283   9.226   1.392   1.422
20136TIP3   OH260284   9.658   1.079   1.203
20136TIP3    H160285   9.726   1.011   1.200
20136TIP3    H260286   9.627   1.086   1.113
20137TIP3   OH260287   9.746   1.301   1.340
20137TIP3    H160288   9.716   1.228   1.286
20137TIP3    H260289   9.672   1.362   1.342
20138TIP3   OH260290   2.460   7.154   7.466
20138TIP3    H160291   2.551   7.140   7.442
20138TIP3    H260292   2.423   7.204   7.392
20139TIP3   OH260293   1.924   6.528   7.652
20139TIP3    H160294   2.018   6.548   7.647
20139TIP3    H260295   1.917   6.440   7.615
20140TIP3   OH260296   8.394   2.467   0.065
20140TIP3    H160297   8.320   2.425   0.022
20140TIP3    H260298   8.420   2.407   0.134
20141TIP3   OH260299   8.530   2.316   0.267
20141TIP3    H160300   8.550   2.252   0.335
20141TIP3    H260301   8.575   2.396   0.295
20142TIP3   OH260302   0.442   2.746   0.087
20142TIP3    H160303   0.460   2.772   0.178
20142TIP3    H260304   0.490   2.810   0.034
20143TIP3   OH260305   0.460   2.776   0.367
20143TIP3    H160306   0.415   2.692   0.364
20143TIP3    H260307   0.531   2.763   0.429
20144TIP3   OH260308   0.525   2.474   0.935
20144TIP3    H160309   0.452   2.483   0.997
20144TIP3    H260310   0.572   2.557   0.941
20145TIP3   OH260311   3.618   6.592   7.532
20145TIP3    H160312   3.669   6.669   7.506
20145TIP3    H260313   3.662   6.560   7.611
20146TIP3   OH260314   3.745   6.471   7.749
20146TIP3    H160315   3.678   6.435   7.807
20146TIP3    H260316   3.809   6.511   7.808
20147TIP3   OH260317   0.517   2.255   0.185
20147TIP3    H160318   0.568   2.188   0.140
20147TIP3    H260319   0.519   2.331   0.126
20148TIP3   OH260320   0.322   2.535   0.373
20148TIP3    H160321   0.255   2.580   0.424
20148TIP3    H260322   0.273   2.495   0.300
20149TIP3   OH260323   3.625   6.362   7.381
20149TIP3    H160324   3.555   6.370   7.317
20149TIP3    H260325   3.618   6.442   7.434
20150TIP3   OH260326   3.539   6.334   7.888
20150TIP3    H160327   3.542   6.239   7.875
20150TIP3    H260328   3.517   6.345   7.980
20151TIP3   OH260329   8.699   1.797   0.649
20151TIP3    H160330   8.685   1.757   0.563
20151TIP3    H260331   8.791   1.779   0.669
20152TIP3   OH260332   0.542   2.124   0.743
20152TIP3    H160333   0.611   2.059   0.727
20152TIP3    H260334   0.551   2.186   0.671
20153TIP3   OH260335   0.724   1.915   0.734
20153TIP3    H160336   0.650   1.872   0.778
20153TIP3    H260337   0.799   1.859   0.755
20154TIP3   OH260338   3.523   6.055   7.782
20154TIP3    H160339   3.568   5.971   7.793
20154TIP3    H260340   3.566   6.095   7.706
20155TIP3   OH260341   0.410   1.597   0.294
20155TIP3    H160342   0.490   1.614   0.245
20155TIP3    H260343   0.425   1.638   0.380
20156TIP3   OH260344   0.486   1.747   0.521
20156TIP3    H160345   0.415   1.774   0.579
20156TIP3    H260346   0.515   1.828   0.479
20157TIP3   OH260347   8.915   1.440   1.298
20157TIP3    H160348   9.009   1.438   1.315
20157TIP3    H260349   8.882   1.357   1.332
20158TIP3   OH260350   0.953   1.343   1.058
20158TIP3    H160351   1.018   1.287   1.016
20158TIP3    H260352   0.915   1.393   0.986
20159TIP3   OH260353   3.641   5.806   7.824
20159TIP3    H160354   3.688   5.790   7.906
20159TIP3    H260355   3.581   5.732   7.816
20160TIP3   OH260356   8.884   1.171   0.639
20160TIP3    H160357   8.936   1.092   0.645
20160TIP3    H260358   8.948   1.241   0.624
20161TIP3   OH260359   8.662   1.422   0.707
20161TIP3    H160360   8.719   1.425   0.631
20161TIP3    H260361   8.682   1.502   0.756
20162TIP3   OH260362   0.800   1.467   0.869
20162TIP3    H160363   0.726   1.507   0.917
20162TIP3    H260364   0.759   1.402   0.812
20163TIP3   OH260365   3.705   5.729   7.465
20163TIP3    H160366   3.733   5.668   7.397
20163TIP3    H260367   3.764   5.804   7.456
20164TIP3   OH260368   8.636   0.948   0.217
20164TIP3    H160369   8.550   0.938   0.258
20164TIP3    H260370   8.619   0.996   0.136
20165TIP3   OH260371   3.273   7.278   7.731
20165TIP3    H160372   3.330   7.270   7.654
20165TIP3    H260373   3.309   7.351   7.780
20166TIP3   OH260374   8.874   0.998   1.022
20166TIP3    H160375   8.822   0.988   1.102
20166TIP3    H260376   8.817   1.045   0.961
20167TIP3   OH260377   8.928   2.425   1.111
20167TIP3    H160378   8.841   2.401   1.077
20167TIP3    H260379   8.922   2.407   1.205
20168TIP3   OH260380   9.120   2.494   0.665
20168TIP3    H160381   9.057   2.556   0.629
20168TIP3    H260382   9.201   2.513   0.619
20169TIP3   OH260383   9.522   2.724   0.793
20169TIP3    H160384   9.557   2.719   0.882
20169TIP3    H260385   9.586   2.776   0.744
20170TIP3   OH260386   9.714   2.877   0.669
20170TIP3    H160387   9.777   2.826   0.618
20170TIP3    H260388   9.768   2.935   0.723
20171TIP3   OH260389   0.710   1.217   0.756
20171TIP3    H160390   0.624   1.212   0.713
20171TIP3    H260391   0.744   1.128   0.751
20172TIP3   OH260392   8.884   2.730   0.699
20172TIP3    H160393   8.802   2.682   0.705
20172TIP3    H260394   8.888   2.783   0.779
20173TIP3   OH260395   9.059   2.718   0.496
20173TIP3    H160396   8.990   2.730   0.561
20173TIP3    H260397   9.019   2.746   0.413
20174TIP3   OH260398   9.423   2.744   0.347
20174TIP3    H160399   9.356   2.754   0.279
20174TIP3    H260400   9.436   2.832   0.381
20175TIP3   OH260401   9.683   2.677   0.398
20175TIP3    H160402   9.592   2.699   0.379
20175TIP3    H260403   9.733   2.745   0.352
20176TIP3   OH260404   0.081   2.846   0.296
20176TIP3    H160405   0.085   2.934   0.260
20176TIP3    H260406   0.110   2.790   0.224
20177TIP3   OH260407   8.701   2.512   0.384
20177TIP3    H160408   8.729   2.497   0.475
20177TIP3    H260409   8.772   2.478   0.331
20178TIP3   OH260410   8.906   2.382   0.260
20178TIP3    H160411   8.914   2.303   0.314
20178TIP3    H260412   8.989   2.427   0.271
20179TIP3   OH260413   9.162   2.484   0.301
20179TIP3    H160414   9.190   2.392   0.296
20179TIP3    H260415   9.205   2.518   0.380
20180TIP3   OH260416   9.717   1.130   0.390
20180TIP3    H160417   9.677   1.060   0.441
20180TIP3    H260418   9.785   1.087   0.339
20181TIP3   OH260419   0.420   1.057   0.279
20181TIP3    H160420   0.456   1.107   0.206
20181TIP3    H260421   0.327   1.082   0.281
20182TIP3   OH260422   0.535   1.134   0.042
20182TIP3    H160423   0.602   1.071   0.018
20182TIP3    H260424   0.575   1.219   0.027
20183TIP3   OH260425   8.953   0.838   0.382
20183TIP3    H160426   8.864   0.803   0.396
20183TIP3    H260427   9.008   0.760   0.377
20184TIP3   OH260428   8.786   0.760   0.076
20184TIP3    H160429   8.814   0.828   0.015
20184TIP3    H260430   8.736   0.808   0.142
20185TIP3   OH260431   9.443   0.874   0.286
20185TIP3    H160432   9.493   0.921   0.220
20185TIP3    H260433   9.480   0.902   0.369
20186TIP3   OH260434   0.130   1.008   0.261
20186TIP3    H160435   0.157   0.971   0.177
20186TIP3    H260436   0.139   0.936   0.323
20187TIP3   OH260437   3.458   5.594   7.828
20187TIP3    H160438   3.378   5.640   7.853
20187TIP3    H260439   3.448   5.506   7.864
20188TIP3   OH260440   1.926   6.903   7.815
20188TIP3    H160441   1.840   6.875   7.785
20188TIP3    H260442   1.941   6.986   7.771
20189TIP3   OH260443   2.852   5.690   7.905
20189TIP3    H160444   2.915   5.645   7.961
20189TIP3    H260445   2.859   5.782   7.931
20190TIP3   OH260446   2.721   7.087   7.404
20190TIP3    H160447   2.803   7.117   7.364
20190TIP3    H260448   2.690   7.017   7.346
20191TIP3   OH260449   3.424   7.231   7.503
20191TIP3    H160450   3.417   7.136   7.494
20191TIP3    H260451   3.380   7.266   7.425
20192TIP3   OH260452   9.190   1.135   1.251
20192TIP3    H160453   9.148   1.075   1.314
20192TIP3    H260454   9.282   1.136   1.276
20193TIP3   OH260455   9.442   1.111   1.369
20193TIP3    H160456   9.519   1.104   1.313
20193TIP3    H260457   9.448   1.035   1.427
20194TIP3   OH260458   2.039   6.946   7.444
20194TIP3    H160459   2.035   6.977   7.534
20194TIP3    H260460   2.121   6.897   7.440
20195TIP3   OH260461   0.455   1.221   1.180
20195TIP3    H160462   0.472   1.192   1.269
20195TIP3    H260463   0.540   1.216   1.136
20196TIP3   OH260464   0.372   2.748   0.685
20196TIP3    H160465   0.297   2.719   0.633
20196TIP3    H260466   0.361   2.843   0.691
20197TIP3   OH260467   4.926   6.799   7.439
20197TIP3    H160468   4.882   6.870   7.393
20197TIP3    H260469   4.871   6.722   7.424
20198TIP3   OH260470   4.878   6.743   7.900
20198TIP3    H160471   4.952   6.714   7.952
20198TIP3    H260472   4.840   6.663   7.865
20199TIP3   OH260473   0.941   1.984   0.196
20199TIP3    H160474   0.981   1.935   0.267
20199TIP3    H260475   1.015   2.008   0.139
20200TIP3   OH260476   5.058   7.015   7.594
20200TIP3    H160477   5.026   6.926   7.576
20200TIP3    H260478   5.078   7.052   7.508
20201TIP3   OH260479   4.201   7.030   7.874
20201TIP3    H160480   4.182   6.937   7.883
20201TIP3    H260481   4.296   7.035   7.868
20202TIP3   OH260482   3.884   6.238   7.663
20202TIP3    H160483   3.863   6.327   7.692
20202TIP3    H260484   3.800   6.200   7.639
20203TIP3   OH260485   3.971   6.558   7.891
20203TIP3    H160486   4.022   6.481   7.918
20203TIP3    H260487   4.038   6.624   7.870
20204TIP3   OH260488   4.805   7.505   7.525
20204TIP3    H160489   4.855   7.433   7.485
20204TIP3    H260490   4.764   7.466   7.602
20205TIP3   OH260491   4.705   6.968   7.853
20205TIP3    H160492   4.746   6.881   7.848
20205TIP3    H260493   4.776   7.026   7.883
20206TIP3   OH260494   5.764   6.289   7.860
20206TIP3    H160495   5.774   6.373   7.904
20206TIP3    H260496   5.787   6.307   7.769
20207TIP3   OH260497   5.145   6.463   7.874
20207TIP3    H160498   5.198   6.388   7.904
20207TIP3    H260499   5.090   6.427   7.804
20208TIP3   OH260500   4.467   6.116   7.858
20208TIP3    H160501   4.453   6.187   7.795
20208TIP3    H260502   4.414   6.044   7.824
20209TIP3   OH260503   5.175   6.222   7.485
20209TIP3    H160504   5.240   6.215   7.554
20209TIP3    H260505   5.222   6.259   7.411
20210TIP3   OH260506   4.106   6.334   7.981
20210TIP3    H160507   4.188   6.315   8.027
20210TIP3    H260508   4.111   6.282   7.901
20211TIP3   OH260509   4.525   6.529   7.797
20211TIP3    H160510   4.619   6.512   7.803
20211TIP3    H260511   4.489   6.447   7.763
20212TIP3   OH260512   2.541   1.889   0.030
20212TIP3    H160513   2.450   1.917   0.025
20212TIP3    H260514   2.571   1.923   0.114
20213TIP3   OH260515   1.197   1.498   0.301
20213TIP3    H160516   1.147   1.536   0.229
20213TIP3    H260517   1.143   1.515   0.378
20214TIP3   OH260518   4.808   6.991   7.282
20214TIP3    H160519   4.766   6.953   7.204
20214TIP3    H260520   4.752   7.065   7.306
20215TIP3   OH260521   1.278   2.275   0.064
20215TIP3    H160522   1.224   2.345   0.102
20215TIP3    H260523   1.321   2.317  -0.010
20216TIP3   OH260524   5.360   6.229   7.680
20216TIP3    H160525   5.399   6.152   7.721
20216TIP3    H260526   5.409   6.303   7.716
20217TIP3   OH260527   1.083   1.611   0.076
20217TIP3    H160528   1.140   1.685   0.098
20217TIP3    H260529   1.128   1.568   0.003
20218TIP3   OH260530   1.131   2.482   0.171
20218TIP3    H160531   1.119   2.572   0.142
20218TIP3    H260532   1.054   2.463   0.224
20219TIP3   OH260533   3.778   6.800   7.429
20219TIP3    H160534   3.747   6.821   7.341
20219TIP3    H260535   3.800   6.885   7.468
20220TIP3   OH260536   5.534   6.222   8.028
20220TIP3    H160537   5.445   6.230   7.993
20220TIP3    H260538   5.591   6.231   7.951
20221TIP3   OH260539   1.538   1.185   0.036
20221TIP3    H160540   1.532   1.094   0.063
20221TIP3    H260541   1.461   1.227   0.075
20222TIP3   OH260542   4.942   7.318   7.378
20222TIP3    H160543   4.991   7.237   7.363
20222TIP3    H260544   4.986   7.383   7.324
20223TIP3   OH260545   5.065   7.077   7.321
20223TIP3    H160546   4.978   7.042   7.300
20223TIP3    H260547   5.119   7.053   7.245
20224TIP3   OH260548   5.449   7.218   7.937
20224TIP3    H160549   5.516   7.193   7.874
20224TIP3    H260550   5.408   7.295   7.899
20225TIP3   OH260551   4.763   6.616   7.292
20225TIP3    H160552   4.675   6.650   7.274
20225TIP3    H260553   4.803   6.604   7.206
20226TIP3   OH260554   4.713   6.407   6.964
20226TIP3    H160555   4.777   6.455   7.015
20226TIP3    H260556   4.764   6.339   6.918
20227TIP3   OH260557   5.610   6.844   7.886
20227TIP3    H160558   5.564   6.924   7.911
20227TIP3    H260559   5.656   6.867   7.805
20228TIP3   OH260560   5.100   6.706   7.236
20228TIP3    H160561   5.053   6.735   7.314
20228TIP3    H260562   5.181   6.667   7.269
20229TIP3   OH260563   2.062   2.088   0.187
20229TIP3    H160564   2.060   2.175   0.228
20229TIP3    H260565   1.982   2.085   0.135
20230TIP3   OH260566   4.329   6.662   7.641
20230TIP3    H160567   4.292   6.602   7.576
20230TIP3    H260568   4.400   6.612   7.681
20231TIP3   OH260569   4.462   7.088   7.782
20231TIP3    H160570   4.434   7.075   7.692
20231TIP3    H260571   4.546   7.044   7.788
20232TIP3   OH260572   4.419   6.656   8.019
20232TIP3    H160573   4.460   6.619   7.941
20232TIP3    H260574   4.466   6.738   8.035
20233TIP3   OH260575   5.045   7.279   7.840
20233TIP3    H160576   5.016   7.364   7.809
20233TIP3    H260577   5.057   7.291   7.934
20234TIP3   OH260578   1.334   2.571   0.338
20234TIP3    H160579   1.276   2.629   0.388
20234TIP3    H260580   1.275   2.521   0.281
20235TIP3   OH260581   4.934   6.550   7.075
20235TIP3    H160582   4.994   6.610   7.120
20235TIP3    H260583   4.961   6.553   6.984
20236TIP3   OH260584   1.083   2.120   0.491
20236TIP3    H160585   1.087   2.214   0.508
20236TIP3    H260586   0.990   2.101   0.483
20237TIP3   OH260587   4.681   7.228   7.336
20237TIP3    H160588   4.764   7.273   7.352
20237TIP3    H260589   4.630   7.290   7.284
20238TIP3   OH260590   1.125   2.729   0.429
20238TIP3    H160591   1.098   2.743   0.338
20238TIP3    H260592   1.043   2.714   0.476
20239TIP3   OH260593   5.447   5.774   7.137
20239TIP3    H160594   5.367   5.795   7.186
20239TIP3    H260595   5.458   5.847   7.077
20240TIP3   OH260596   4.199   6.505   7.440
20240TIP3    H160597   4.119   6.548   7.409
20240TIP3    H260598   4.172   6.416   7.461
20241TIP3   OH260599   5.273   7.154   6.685
20241TIP3    H160600   5.266   7.246   6.659
20241TIP3    H260601   5.362   7.130   6.661
20242TIP3   OH260602   0.720   2.293   0.377
20242TIP3    H160603   0.649   2.275   0.315
20242TIP3    H260604   0.753   2.206   0.402
20243TIP3   OH260605   0.559   2.495   0.040
20243TIP3    H160606   0.646   2.525   0.064
20243TIP3    H260607   0.502   2.569   0.060
20244TIP3   OH260608   2.393   2.926   0.077
20244TIP3    H160609   2.404   2.835   0.102
20244TIP3    H260610   2.320   2.957   0.130
20245TIP3   OH260611   1.523   2.710   0.196
20245TIP3    H160612   1.516   2.801   0.225
20245TIP3    H260613   1.458   2.664   0.249
20246TIP3   OH260614   4.586   7.438   7.162
20246TIP3    H160615   4.544   7.413   7.080
20246TIP3    H260616   4.541   7.518   7.189
20247TIP3   OH260617   4.002   7.293   7.532
20247TIP3    H160618   4.044   7.284   7.618
20247TIP3    H260619   3.951   7.212   7.523
20248TIP3   OH260620   4.774   7.375   6.782
20248TIP3    H160621   4.821   7.300   6.746
20248TIP3    H260622   4.812   7.389   6.869
20249TIP3   OH260623   4.839   7.426   7.048
20249TIP3    H160624   4.758   7.419   7.099
20249TIP3    H260625   4.908   7.432   7.114
20250TIP3   OH260626   2.299   2.033   0.330
20250TIP3    H160627   2.216   2.048   0.284
20250TIP3    H260628   2.316   1.939   0.319
20251TIP3   OH260629   0.918   2.482   0.344
20251TIP3    H160630   0.967   2.469   0.425
20251TIP3    H260631   0.845   2.420   0.350
20252TIP3   OH260632   1.300   1.280   0.160
20252TIP3    H160633   1.216   1.248   0.127
20252TIP3    H260634   1.279   1.362   0.204
20253TIP3   OH260635   1.839   1.409   0.361
20253TIP3    H160636   1.910   1.380   0.418
20253TIP3    H260637   1.759   1.391   0.410
20254TIP3   OH260638   2.050   1.824   0.283
20254TIP3    H160639   2.018   1.826   0.374
20254TIP3    H260640   2.041   1.915   0.254
20255TIP3   OH260641   5.010   6.541   6.814
20255TIP3    H160642   4.962   6.537   6.732
20255TIP3    H260643   5.095   6.580   6.791
20256TIP3   OH260644   4.713   5.946   7.138
20256TIP3    H160645   4.683   5.950   7.228
20256TIP3    H260646   4.679   5.863   7.104
20257TIP3   OH260647   1.239   1.820   0.170
20257TIP3    H160648   1.194   1.826   0.254
20257TIP3    H260649   1.217   1.901   0.125
20258TIP3   OH260650   4.383   6.317   7.688
20258TIP3    H160651   4.294   6.291   7.713
20258TIP3    H260652   4.393   6.284   7.599
20259TIP3   OH260653   4.862   6.391   7.416
20259TIP3    H160654   4.824   6.470   7.378
20259TIP3    H260655   4.922   6.358   7.349
20260TIP3   OH260656   1.773   2.034   0.483
20260TIP3    H160657   1.750   1.966   0.546
20260TIP3    H260658   1.865   2.054   0.503
20261TIP3   OH260659   5.005   6.376   7.654
20261TIP3    H160660   4.944   6.396   7.582
20261TIP3    H260661   5.068   6.315   7.616
20262TIP3   OH260662   1.078   1.834   0.392
20262TIP3    H160663   1.085   1.898   0.462
20262TIP3    H260664   1.060   1.752   0.436
20263TIP3   OH260665   4.383   5.921   7.107
20263TIP3    H160666   4.379   5.927   7.202
20263TIP3    H260667   4.303   5.964   7.076
20264TIP3   OH260668   3.941   5.970   7.966
20264TIP3    H160669   4.009   6.007   8.022
20264TIP3    H260670   3.987   5.949   7.884
20265TIP3   OH260671   3.868   5.962   7.473
20265TIP3    H160672   3.896   5.993   7.387
20265TIP3    H260673   3.857   6.041   7.525
20266TIP3   OH260674   1.821   2.035   0.055
20266TIP3    H160675   1.848   1.971  -0.010
20266TIP3    H260676   1.778   1.983   0.123
20267TIP3   OH260677   4.729   6.150   7.750
20267TIP3    H160678   4.657   6.129   7.809
20267TIP3    H260679   4.802   6.098   7.783
20268TIP3   OH260680   4.145   6.191   7.749
20268TIP3    H160681   4.057   6.193   7.712
20268TIP3    H260682   4.175   6.101   7.735
20269TIP3   OH260683   4.395   6.195   7.440
20269TIP3    H160684   4.490   6.205   7.435
20269TIP3    H260685   4.364   6.212   7.351
20270TIP3   OH260686   5.255   6.227   7.974
20270TIP3    H160687   5.197   6.227   8.051
20270TIP3    H260688   5.232   6.146   7.927
20271TIP3   OH260689   4.293   6.217   7.185
20271TIP3    H160690   4.231   6.167   7.132
20271TIP3    H260691   4.347   6.264   7.121
20272TIP3   OH260692   2.087   3.266   0.135
20272TIP3    H160693   2.076   3.285   0.042
20272TIP3    H260694   2.173   3.303   0.156
20273TIP3   OH260695   1.070   2.388   0.576
20273TIP3    H160696   1.151   2.408   0.625
20273TIP3    H260697   1.000   2.400   0.641
20274TIP3   OH260698   4.798   6.478   7.844
20274TIP3    H160699   4.856   6.427   7.787
20274TIP3    H260700   4.795   6.428   7.926
20275TIP3   OH260701   4.280   5.942   7.734
20275TIP3    H160702   4.253   5.866   7.785
20275TIP3    H260703   4.308   5.906   7.650
20276TIP3   OH260704   1.501   1.759   0.106
20276TIP3    H160705   1.414   1.791   0.131
20276TIP3    H260706   1.562   1.812   0.157
20277TIP3   OH260707   4.511   6.722   7.231
20277TIP3    H160708   4.436   6.670   7.202
20277TIP3    H260709   4.481   6.767   7.310
20278TIP3   OH260710   4.966   6.051   7.130
20278TIP3    H160711   4.873   6.029   7.129
20278TIP3    H260712   4.968   6.146   7.142
20279TIP3   OH260713   1.652   2.446   0.166
20279TIP3    H160714   1.690   2.421   0.250
20279TIP3    H260715   1.602   2.525   0.185
20280TIP3   OH260716   5.027   6.315   7.201
20280TIP3    H160717   5.122   6.314   7.209
20280TIP3    H260718   5.008   6.393   7.148
20281TIP3   OH260719   4.192   6.740   7.869
20281TIP3    H160720   4.231   6.723   7.783
20281TIP3    H260721   4.258   6.710   7.932
20282TIP3   OH260722   4.657   6.888   7.071
20282TIP3    H160723   4.606   6.969   7.066
20282TIP3    H260724   4.602   6.829   7.123
20283TIP3   OH260725   0.809   2.056   0.506
20283TIP3    H160726   0.809   2.028   0.598
20283TIP3    H260727   0.733   2.011   0.468
20284TIP3   OH260728   1.550   2.197   0.525
20284TIP3    H160729   1.479   2.137   0.503
20284TIP3    H260730   1.630   2.151   0.498
20285TIP3   OH260731   1.789   2.724   0.109
20285TIP3    H160732   1.696   2.714   0.129
20285TIP3    H260733   1.825   2.768   0.186
20286TIP3   OH260734   5.441   6.402   7.013
20286TIP3    H160735   5.383   6.358   6.950
20286TIP3    H260736   5.448   6.491   6.979
20287TIP3   OH260737   2.415   2.633   0.088
20287TIP3    H160738   2.320   2.634   0.079
20287TIP3    H260739   2.447   2.612   0.000
20288TIP3   OH260740   5.181   7.196   6.945
20288TIP3    H160741   5.154   7.112   6.983
20288TIP3    H260742   5.209   7.174   6.856
20289TIP3   OH260743   4.317   7.088   7.544
20289TIP3    H160744   4.314   7.163   7.485
20289TIP3    H260745   4.228   7.082   7.580
20290TIP3   OH260746   3.856   6.371   7.225
20290TIP3    H160747   3.903   6.450   7.251
20290TIP3    H260748   3.780   6.366   7.284
20291TIP3   OH260749   4.405   6.847   7.446
20291TIP3    H160750   4.384   6.935   7.476
20291TIP3    H260751   4.378   6.790   7.518
20292TIP3   OH260752   4.607   7.411   7.995
20292TIP3    H160753   4.643   7.484   7.945
20292TIP3    H260754   4.680   7.381   8.049
20293TIP3   OH260755   4.240   7.310   7.394
20293TIP3    H160756   4.152   7.318   7.430
20293TIP3    H260757   4.278   7.398   7.400
20294TIP3   OH260758   4.991   6.996   7.910
20294TIP3    H160759   4.982   7.020   8.003
20294TIP3    H260760   4.965   6.904   7.906
20295TIP3   OH260761   4.966   6.958   6.843
20295TIP3    H160762   5.002   6.943   6.930
20295TIP3    H260763   4.883   6.911   6.842
20296TIP3   OH260764   5.180   7.596   8.006
20296TIP3    H160765   5.108   7.534   7.996
20296TIP3    H260766   5.166   7.659   7.935
20297TIP3   OH260767   5.258   7.424   6.637
20297TIP3    H160768   5.260   7.476   6.556
20297TIP3    H260769   5.193   7.468   6.692
20298TIP3   OH260770   1.024   1.579   0.506
20298TIP3    H160771   0.929   1.589   0.511
20298TIP3    H260772   1.047   1.530   0.585
20299TIP3   OH260773   5.139   6.929   7.072
20299TIP3    H160774   5.115   6.852   7.124
20299TIP3    H260775   5.232   6.915   7.051
20300TIP3   OH260776   0.765   2.688   0.155
20300TIP3    H160777   0.819   2.633   0.212
20300TIP3    H260778   0.777   2.777   0.189
20301TIP3   OH260779   4.305   6.920   6.859
20301TIP3    H160780   4.314   6.829   6.831
20301TIP3    H260781   4.289   6.915   6.953
20302TIP3   OH260782   4.242   6.934   7.130
20302TIP3    H160783   4.302   6.910   7.201
20302TIP3    H260784   4.240   7.030   7.132
20303TIP3   OH260785   3.965   6.614   7.329
20303TIP3    H160786   3.904   6.663   7.383
20303TIP3    H260787   3.988   6.674   7.258
20304TIP3   OH260788   1.853   1.643   0.217
20304TIP3    H160789   1.935   1.685   0.243
20304TIP3    H260790   1.849   1.563   0.268
20305TIP3   OH260791   5.029   6.002   7.396
20305TIP3    H160792   5.008   6.023   7.305
20305TIP3    H260793   5.072   6.081   7.430
20306TIP3   OH260794   4.515   7.118   7.067
20306TIP3    H160795   4.429   7.142   7.104
20306TIP3    H260796   4.537   7.190   7.009
20307TIP3   OH260797   4.670   6.207   7.489
20307TIP3    H160798   4.735   6.271   7.460
20307TIP3    H260799   4.690   6.192   7.581
20308TIP3   OH260800   1.706   1.882   0.250
20308TIP3    H160801   1.727   1.922   0.335
20308TIP3    H260802   1.752   1.798   0.251
20309TIP3   OH260803   4.860   5.874   7.571
20309TIP3    H160804   4.886   5.917   7.653
20309TIP3    H260805   4.919   5.912   7.505
20310TIP3   OH260806   4.264   7.206   7.142
20310TIP3    H160807   4.246   7.277   7.080
20310TIP3    H260808   4.253   7.245   7.228
20311TIP3   OH260809   4.363   5.920   7.387
20311TIP3    H160810   4.351   6.011   7.414
20311TIP3    H260811   4.457   5.903   7.397
20312TIP3   OH260812   2.313   1.763   0.248
20312TIP3    H160813   2.219   1.768   0.267
20312TIP3    H260814   2.319   1.709   0.170
20313TIP3   OH260815   5.279   6.560   7.621
20313TIP3    H160816   5.203   6.542   7.675
20313TIP3    H260817   5.353   6.527   7.672
20314TIP3   OH260818   4.000   6.798   7.121
20314TIP3    H160819   4.071   6.862   7.130
20314TIP3    H260820   4.031   6.738   7.054
20315TIP3   OH260821   3.920   6.099   7.242
20315TIP3    H160822   3.904   6.193   7.239
20315TIP3    H260823   3.971   6.080   7.163
20316TIP3   OH260824   5.250   7.578   7.598
20316TIP3    H160825   5.198   7.607   7.524
20316TIP3    H260826   5.341   7.595   7.572
20317TIP3   OH260827   1.038   1.196   0.117
20317TIP3    H160828   1.006   1.165   0.032
20317TIP3    H260829   1.031   1.119   0.174
20318TIP3   OH260830   3.823   7.072   7.511
20318TIP3    H160831   3.783   7.108   7.590
20318TIP3    H260832   3.777   7.114   7.439
20319TIP3   OH260833   0.766   2.984   0.578
20319TIP3    H160834   0.848   2.987   0.627
20319TIP3    H260835   0.745   2.891   0.571
20320TIP3   OH260836   1.231   2.893   0.623
20320TIP3    H160837   1.322   2.863   0.633
20320TIP3    H260838   1.195   2.840   0.552
20321TIP3   OH260839   4.454   7.123   6.747
20321TIP3    H160840   4.407   7.052   6.791
20321TIP3    H260841   4.528   7.079   6.704
20322TIP3   OH260842   1.859   2.831   0.353
20322TIP3    H160843   1.866   2.763   0.420
20322TIP3    H260844   1.927   2.894   0.376
20323TIP3   OH260845   4.897   7.160   6.666
20323TIP3    H160846   4.939   7.098   6.726
20323TIP3    H260847   4.950   7.156   6.586
20324TIP3   OH260848   0.865   2.391   0.765
20324TIP3    H160849   0.882   2.298   0.779
20324TIP3    H260850   0.778   2.395   0.726
20325TIP3   OH260851   4.120   6.610   6.964
20325TIP3    H160852   4.173   6.588   7.040
20325TIP3    H260853   4.184   6.626   6.894
20326TIP3   OH260854   1.487   2.471   0.545
20326TIP3    H160855   1.441   2.491   0.464
20326TIP3    H260856   1.521   2.382   0.532
20327TIP3   OH260857   4.722   6.830   6.811
20327TIP3    H160858   4.690   6.841   6.901
20327TIP3    H260859   4.698   6.741   6.788
20328TIP3   OH260860   1.986   2.516   0.124
20328TIP3    H160861   2.054   2.544   0.062
20328TIP3    H260862   1.920   2.585   0.121
20329TIP3   OH260863   0.979   2.136   0.779
20329TIP3    H160864   1.055   2.119   0.723
20329TIP3    H260865   1.017   2.156   0.865
20330TIP3   OH260866   4.297   6.553   7.173
20330TIP3    H160867   4.276   6.521   7.261
20330TIP3    H260868   4.344   6.481   7.132
20331TIP3   OH260869   1.344   2.021   0.442
20331TIP3    H160870   1.256   2.058   0.453
20331TIP3    H260871   1.369   2.045   0.353
20332TIP3   OH260872   4.438   6.372   7.011
20332TIP3    H160873   4.409   6.379   6.919
20332TIP3    H260874   4.533   6.381   7.007
20333TIP3   OH260875   1.849   2.387   0.510
20333TIP3    H160876   1.918   2.345   0.459
20333TIP3    H260877   1.842   2.333   0.589
20334TIP3   OH260878   5.235   6.657   6.699
20334TIP3    H160879   5.220   6.616   6.614
20334TIP3    H260880   5.214   6.750   6.684
20335TIP3   OH260881   1.446   1.785   0.541
20335TIP3    H160882   1.448   1.716   0.474
20335TIP3    H260883   1.412   1.861   0.495
20336TIP3   OH260884   1.455   1.589   0.336
20336TIP3    H160885   1.482   1.624   0.251
20336TIP3    H260886   1.364   1.560   0.321
20337TIP3   OH260887   1.440   2.101   0.202
20337TIP3    H160888   1.529   2.110   0.167
20337TIP3    H260889   1.389   2.167   0.155
20338TIP3   OH260890   2.039   2.078   0.577
20338TIP3    H160891   2.059   1.984   0.574
20338TIP3    H260892   2.124   2.121   0.575
20339TIP3   OH260893   2.089   2.342   0.308
20339TIP3    H160894   2.039   2.404   0.254
20339TIP3    H260895   2.179   2.351   0.278
20340TIP3   OH260896   1.332   1.864   0.785
20340TIP3    H160897   1.262   1.803   0.806
20340TIP3    H260898   1.360   1.840   0.697
20341TIP3   OH260899   1.574   1.360   0.445
20341TIP3    H160900   1.535   1.440   0.410
20341TIP3    H260901   1.508   1.293   0.430
20342TIP3   OH260902   1.701   1.824   0.645
20342TIP3    H160903   1.691   1.811   0.740
20342TIP3    H260904   1.615   1.802   0.609
20343TIP3   OH260905   1.961   1.806   0.537
20343TIP3    H160906   1.880   1.791   0.586
20343TIP3    H260907   2.029   1.762   0.589
20344TIP3   OH260908   2.193   1.732   0.667
20344TIP3    H160909   2.203   1.637   0.675
20344TIP3    H260910   2.186   1.763   0.757
20345TIP3   OH260911   1.163   1.646   0.847
20345TIP3    H160912   1.169   1.557   0.811
20345TIP3    H260913   1.201   1.639   0.934
20346TIP3   OH260914   1.639   1.327   0.709
20346TIP3    H160915   1.708   1.262   0.700
20346TIP3    H260916   1.609   1.343   0.619
20347TIP3   OH260917   1.738   1.542   0.850
20347TIP3    H160918   1.706   1.469   0.797
20347TIP3    H260919   1.665   1.604   0.852
20348TIP3   OH260920   4.265   7.414   6.961
20348TIP3    H160921   4.356   7.398   6.934
20348TIP3    H260922   4.226   7.459   6.886
20349TIP3   OH260923   3.728   6.811   7.145
20349TIP3    H160924   3.823   6.821   7.138
20349TIP3    H260925   3.710   6.727   7.102
20350TIP3   OH260926   3.634   7.380   7.598
20350TIP3    H160927   3.568   7.328   7.552
20350TIP3    H260928   3.677   7.318   7.657
20351TIP3   OH260929   3.777   7.209   7.765
20351TIP3    H160930   3.769   7.142   7.832
20351TIP3    H260931   3.827   7.279   7.806
20352TIP3   OH260932   5.503   7.654   7.543
20352TIP3    H160933   5.520   7.743   7.575
20352TIP3    H260934   5.570   7.639   7.477
20353TIP3   OH260935   5.511   7.666   7.868
20353TIP3    H160936   5.491   7.593   7.810
20353TIP3    H260937   5.571   7.629   7.933
20354TIP3   OH260938   2.297   2.710   0.402
20354TIP3    H160939   2.230   2.724   0.469
20354TIP3    H260940   2.340   2.796   0.394
20355TIP3   OH260941   5.409   6.872   7.039
20355TIP3    H160942   5.467   6.940   7.005
20355TIP3    H260943   5.459   6.832   7.111
20356TIP3   OH260944   5.540   6.730   7.242
20356TIP3    H160945   5.471   6.688   7.293
20356TIP3    H260946   5.599   6.766   7.308
20357TIP3   OH260947   5.336   7.438   7.825
20357TIP3    H160948   5.294   7.496   7.889
20357TIP3    H260949   5.304   7.469   7.741
20358TIP3   OH260950   5.440   6.645   6.882
20358TIP3    H160951   5.371   6.643   6.817
20358TIP3    H260952   5.423   6.723   6.934
20359TIP3   OH260953   5.284   6.292   6.818
20359TIP3    H160954   5.243   6.324   6.738
20359TIP3    H260955   5.277   6.197   6.812
20360TIP3   OH260956   5.322   6.580   7.352
20360TIP3    H160957   5.329   6.487   7.328
20360TIP3    H260958   5.309   6.580   7.447
20361TIP3   OH260959   0.679   2.030   0.146
20361TIP3    H160960   0.670   1.999   0.056
20361TIP3    H260961   0.773   2.023   0.164
20362TIP3   OH260962   2.345   2.378   0.206
20362TIP3    H160963   2.407   2.306   0.192
20362TIP3    H260964   2.384   2.452   0.158
20363TIP3   OH260965   2.507   2.158   0.205
20363TIP3    H160966   2.434   2.113   0.248
20363TIP3    H260967   2.585   2.110   0.232
20364TIP3   OH260968   5.251   6.022   6.794
20364TIP3    H160969   5.318   5.992   6.855
20364TIP3    H260970   5.171   5.979   6.825
20365TIP3   OH260971   5.318   6.307   7.250
20365TIP3    H160972   5.364   6.226   7.271
20365TIP3    H260973   5.361   6.340   7.171
20366TIP3   OH260974   5.487   6.457   7.778
20366TIP3    H160975   5.569   6.479   7.734
20366TIP3    H260976   5.495   6.495   7.865
20367TIP3   OH260977   2.278   1.989   0.005
20367TIP3    H160978   2.204   2.014   0.061
20367TIP3    H260979   2.303   2.070  -0.039
20368TIP3   OH260980   0.901   1.708   0.781
20368TIP3    H160981   0.994   1.705   0.802
20368TIP3    H260982   0.865   1.628   0.820
20369TIP3   OH260983   2.739   1.607   0.538
20369TIP3    H160984   2.803   1.546   0.504
20369TIP3    H260985   2.702   1.651   0.461
20370TIP3   OH260986   5.440   6.061   7.313
20370TIP3    H160987   5.481   6.045   7.398
20370TIP3    H260988   5.377   5.990   7.303
20371TIP3   OH260989   0.878   1.423   0.139
20371TIP3    H160990   0.932   1.344   0.144
20371TIP3    H260991   0.940   1.494   0.123
20372TIP3   OH260992   0.653   1.685   0.193
20372TIP3    H160993   0.706   1.678   0.113
20372TIP3    H260994   0.681   1.768   0.232
20373TIP3   OH260995   2.588   1.718   0.340
20373TIP3    H160996   2.509   1.751   0.381
20373TIP3    H260997   2.559   1.643   0.288
20374TIP3   OH260998   5.481   5.968   6.945
20374TIP3    H160999   5.529   5.908   6.889
20374TIP3    H261000   5.535   6.047   6.949
20375TIP3   OH261001   3.914   5.801   7.694
20375TIP3    H161002   3.827   5.793   7.734
20375TIP3    H261003   3.900   5.858   7.618
20376TIP3   OH261004   5.052   7.503   7.214
20376TIP3    H161005   5.115   7.497   7.143
20376TIP3    H261006   5.085   7.575   7.269
20377TIP3   OH261007   0.870   1.241   0.520
20377TIP3    H161008   0.823   1.242   0.604
20377TIP3    H261009   0.816   1.295   0.462
20378TIP3   OH261010   0.902   2.703   0.597
20378TIP3    H161011   0.808   2.687   0.586
20378TIP3    H261012   0.917   2.697   0.691
20379TIP3   OH261013   1.112   2.758   0.145
20379TIP3    H161014   1.060   2.832   0.115
20379TIP3    H261015   1.196   2.767   0.100
20380TIP3   OH261016   1.506   2.977   0.270
20380TIP3    H161017   1.541   2.969   0.358
20380TIP3    H261018   1.570   3.032   0.224
20381TIP3   OH261019   1.706   3.129   0.155
20381TIP3    H161020   1.778   3.084   0.110
20381TIP3    H261021   1.749   3.189   0.216
20382TIP3   OH261022   2.526   1.456   0.250
20382TIP3    H161023   2.436   1.437   0.223
20382TIP3    H261024   2.572   1.373   0.242
20383TIP3   OH261025   0.771   2.982   0.193
20383TIP3    H161026   0.680   2.999   0.168
20383TIP3    H261027   0.792   3.050   0.257
20384TIP3   OH261028   1.001   2.987   0.041
20384TIP3    H161029   0.918   2.988   0.089
20384TIP3    H261030   0.977   3.012  -0.048
20385TIP3   OH261031   4.688   7.616   7.826
20385TIP3    H161032   4.609   7.632   7.774
20385TIP3    H261033   4.703   7.699   7.872
20386TIP3   OH261034   4.954   7.538   7.827
20386TIP3    H161035   4.861   7.562   7.823
20386TIP3    H261036   5.000   7.616   7.795
20387TIP3   OH261037   5.141   7.749   7.779
20387TIP3    H161038   5.134   7.836   7.740
20387TIP3    H261039   5.180   7.695   7.711
20388TIP3   OH261040   3.946   7.393   7.904
20388TIP3    H161041   3.968   7.369   7.994
20388TIP3    H261042   4.018   7.359   7.851
20389TIP3   OH261043   4.149   7.275   7.766
20389TIP3    H161044   4.160   7.191   7.810
20389TIP3    H261045   4.236   7.316   7.772
20390TIP3   OH261046   4.418   7.363   7.795
20390TIP3    H161047   4.435   7.270   7.781
20390TIP3    H261048   4.471   7.386   7.871
20391TIP3   OH261049   4.924   5.965   7.826
20391TIP3    H161050   4.910   5.915   7.906
20391TIP3    H261051   5.016   5.948   7.803
20392TIP3   OH261052   5.456   5.991   7.779
20392TIP3    H161053   5.507   5.981   7.698
20392TIP3    H261054   5.395   5.918   7.779
20393TIP3   OH261055   5.593   6.003   7.540
20393TIP3    H161056   5.662   5.942   7.515
20393TIP3    H261057   5.631   6.090   7.526
20394TIP3   OH261058   4.210   5.716   7.878
20394TIP3    H161059   4.121   5.682   7.890
20394TIP3    H261060   4.265   5.637   7.872
20395TIP3   OH261061   4.029   5.606   7.522
20395TIP3    H161062   4.062   5.658   7.449
20395TIP3    H261063   3.995   5.671   7.584
20396TIP3   OH261064   4.688   5.757   7.771
20396TIP3    H161065   4.737   5.800   7.700
20396TIP3    H261066   4.732   5.786   7.851
20397TIP3   OH261067   5.169   5.885   7.734
20397TIP3    H161068   5.212   5.876   7.649
20397TIP3    H261069   5.205   5.814   7.787
20398TIP3   OH261070   5.247   5.858   7.303
20398TIP3    H161071   5.169   5.906   7.332
20398TIP3    H261072   5.239   5.772   7.345
20399TIP3   OH261073   3.699   7.192   7.296
20399TIP3    H161074   3.616   7.164   7.258
20399TIP3    H261075   3.711   7.282   7.264
20400TIP3   OH261076   4.152   5.750   7.299
20400TIP3    H161077   4.196   5.689   7.240
20400TIP3    H261078   4.222   5.804   7.334
20401TIP3   OH261079   4.640   5.947   7.407
20401TIP3    H161080   4.704   5.900   7.459
20401TIP3    H261081   4.651   6.039   7.431
20402TIP3   OH261082   4.524   7.341   6.895
20402TIP3    H161083   4.605   7.371   6.853
20402TIP3    H261084   4.490   7.274   6.837
20403TIP3   OH261085   5.212   7.466   6.992
20403TIP3    H161086   5.205   7.372   6.979
20403TIP3    H261087   5.173   7.504   6.913
20404TIP3   OH261088   1.180   1.376   0.757
20404TIP3    H161089   1.146   1.309   0.817
20404TIP3    H261090   1.272   1.385   0.781
20405TIP3   OH261091   1.425   1.383   0.884
20405TIP3    H161092   1.502   1.360   0.832
20405TIP3    H261093   1.419   1.314   0.950
20406TIP3   OH261094   3.814   7.172   6.938
20406TIP3    H161095   3.817   7.200   7.030
20406TIP3    H261096   3.899   7.131   6.923
20407TIP3   OH261097   2.248   1.463   0.663
20407TIP3    H161098   2.265   1.433   0.753
20407TIP3    H261099   2.333   1.460   0.620
20408TIP3   OH261100   2.137   2.999   0.175
20408TIP3    H161101   2.066   2.967   0.119
20408TIP3    H261102   2.131   3.094   0.171
20409TIP3   OH261103   6.713   7.011   6.914
20409TIP3    H161104   6.683   7.099   6.890
20409TIP3    H261105   6.642   6.954   6.887
20410TIP3   OH261106   6.715   7.022   7.328
20410TIP3    H161107   6.749   6.992   7.412
20410TIP3    H261108   6.661   6.950   7.297
20411TIP3   OH261109   6.010   6.870   7.696
20411TIP3    H161110   6.047   6.804   7.754
20411TIP3    H261111   6.080   6.890   7.634
20412TIP3   OH261112   6.982   7.314   7.016
20412TIP3    H161113   6.973   7.247   7.084
20412TIP3    H261114   6.993   7.396   7.064
20413TIP3   OH261115   5.983   7.284   7.373
20413TIP3    H161116   5.970   7.190   7.374
20413TIP3    H261117   6.077   7.296   7.364
20414TIP3   OH261118   5.682   6.503   7.149
20414TIP3    H161119   5.643   6.586   7.176
20414TIP3    H261120   5.610   6.454   7.110
20415TIP3   OH261121   5.756   6.825   7.406
20415TIP3    H161122   5.806   6.746   7.426
20415TIP3    H261123   5.822   6.888   7.377
20416TIP3   OH261124   6.646   7.735   7.028
20416TIP3    H161125   6.667   7.673   6.958
20416TIP3    H261126   6.664   7.687   7.109
20417TIP3   OH261127   6.498   7.231   7.348
20417TIP3    H161128   6.573   7.178   7.321
20417TIP3    H261129   6.537   7.306   7.393
20418TIP3   OH261130   7.538   6.543   7.340
20418TIP3    H161131   7.556   6.621   7.392
20418TIP3    H261132   7.568   6.565   7.252
20419TIP3   OH261133   6.894   6.667   7.408
20419TIP3    H161134   6.871   6.585   7.451
20419TIP3    H261135   6.871   6.653   7.316
20420TIP3   OH261136   6.278   6.366   7.328
20420TIP3    H161137   6.255   6.441   7.273
20420TIP3    H261138   6.220   6.296   7.299
20421TIP3   OH261139   6.976   6.480   6.966
20421TIP3    H161140   7.064   6.444   6.975
20421TIP3    H261141   6.979   6.533   6.886
20422TIP3   OH261142   5.902   6.595   7.468
20422TIP3    H161143   5.985   6.572   7.509
20422TIP3    H261144   5.901   6.546   7.386
20423TIP3   OH261145   6.315   6.789   7.282
20423TIP3    H161146   6.409   6.774   7.286
20423TIP3    H261147   6.280   6.706   7.248
20424TIP3   OH261148   7.602   6.756   7.507
20424TIP3    H161149   7.519   6.802   7.495
20424TIP3    H261150   7.639   6.792   7.587
20425TIP3   OH261151   6.252   6.380   7.786
20425TIP3    H161152   6.202   6.415   7.713
20425TIP3    H261153   6.196   6.392   7.863
20426TIP3   OH261154   6.611   7.231   6.778
20426TIP3    H161155   6.572   7.199   6.697
20426TIP3    H261156   6.559   7.307   6.803
20427TIP3   OH261157   6.356   7.139   7.565
20427TIP3    H161158   6.300   7.209   7.599
20427TIP3    H261159   6.402   7.179   7.492
20428TIP3   OH261160   6.151   6.481   7.549
20428TIP3    H161161   6.207   6.555   7.570
20428TIP3    H261162   6.196   6.436   7.477
20429TIP3   OH261163   6.188   7.341   7.651
20429TIP3    H161164   6.181   7.430   7.617
20429TIP3    H261165   6.107   7.326   7.698
20430TIP3   OH261166   5.573   7.060   6.914
20430TIP3    H161167   5.541   7.077   6.825
20430TIP3    H261168   5.595   7.147   6.948
20431TIP3   OH261169   6.989   7.565   7.151
20431TIP3    H161170   6.900   7.564   7.186
20431TIP3    H261171   6.996   7.648   7.104
20432TIP3   OH261172   7.322   6.432   7.474
20432TIP3    H161173   7.338   6.485   7.552
20432TIP3    H261174   7.393   6.455   7.414
20433TIP3   OH261175   6.590   6.058   7.532
20433TIP3    H161176   6.579   5.966   7.556
20433TIP3    H261177   6.514   6.102   7.569
20434TIP3   OH261178   6.724   7.593   6.802
20434TIP3    H161179   6.778   7.514   6.793
20434TIP3    H261180   6.783   7.665   6.776
20435TIP3   OH261181   6.861   7.360   6.772
20435TIP3    H161182   6.786   7.300   6.772
20435TIP3    H261183   6.911   7.337   6.850
20436TIP3   OH261184   7.247   7.460   7.485
20436TIP3    H161185   7.234   7.385   7.427
20436TIP3    H261186   7.229   7.536   7.429
20437TIP3   OH261187   6.540   6.847   6.771
20437TIP3    H161188   6.455   6.889   6.754
20437TIP3    H261189   6.584   6.846   6.686
20438TIP3   OH261190   6.505   6.663   6.454
20438TIP3    H161191   6.571   6.711   6.502
20438TIP3    H261192   6.554   6.597   6.404
20439TIP3   OH261193   7.418   7.092   7.349
20439TIP3    H161194   7.338   7.143   7.356
20439TIP3    H261195   7.452   7.112   7.261
20440TIP3   OH261196   6.898   6.941   6.725
20440TIP3    H161197   6.843   6.971   6.798
20440TIP3    H261198   6.983   6.922   6.767
20441TIP3   OH261199   7.091   6.919   7.585
20441TIP3    H161200   7.122   7.006   7.610
20441TIP3    H261201   6.997   6.930   7.569
20442TIP3   OH261202   6.116   6.921   7.130
20442TIP3    H161203   6.082   6.859   7.066
20442TIP3    H261204   6.190   6.875   7.170
20443TIP3   OH261205   6.245   7.339   7.275
20443TIP3    H161206   6.229   7.326   7.182
20443TIP3    H261207   6.332   7.302   7.291
20444TIP3   OH261208   6.213   6.914   7.505
20444TIP3    H161209   6.251   6.881   7.424
20444TIP3    H261210   6.263   6.993   7.525
20445TIP3   OH261211   6.736   7.602   7.256
20445TIP3    H161212   6.752   7.678   7.311
20445TIP3    H261213   6.695   7.538   7.315
20446TIP3   OH261214   6.386   7.448   7.848
20446TIP3    H161215   6.301   7.488   7.866
20446TIP3    H261216   6.376   7.409   7.761
20447TIP3   OH261217   6.729   6.798   6.559
20447TIP3    H161218   6.787   6.858   6.606
20447TIP3    H261219   6.759   6.801   6.468
20448TIP3   OH261220   6.159   7.011   7.948
20448TIP3    H161221   6.151   7.104   7.970
20448TIP3    H261222   6.072   6.986   7.916
20449TIP3   OH261223   6.477   7.471   6.811
20449TIP3    H161224   6.558   7.521   6.817
20449TIP3    H261225   6.416   7.529   6.764
20450TIP3   OH261226   6.152   7.585   7.883
20450TIP3    H161227   6.136   7.597   7.789
20450TIP3    H261228   6.067   7.562   7.919
20451TIP3   OH261229   7.241   6.034   6.631
20451TIP3    H161230   7.162   6.056   6.680
20451TIP3    H261231   7.251   6.106   6.569
20452TIP3   OH261232   5.996   6.759   6.931
20452TIP3    H161233   5.919   6.808   6.902
20452TIP3    H261234   5.963   6.670   6.947
20453TIP3   OH261235   7.066   7.406   6.176
20453TIP3    H161236   7.056   7.498   6.153
20453TIP3    H261237   7.155   7.384   6.149
20454TIP3   OH261238   5.751   7.142   7.847
20454TIP3    H161239   5.740   7.097   7.763
20454TIP3    H261240   5.798   7.079   7.902
20455TIP3   OH261241   5.672   7.359   7.483
20455TIP3    H161242   5.756   7.318   7.463
20455TIP3    H261243   5.692   7.424   7.550
20456TIP3   OH261244   7.488   7.798   7.529
20456TIP3    H161245   7.484   7.713   7.571
20456TIP3    H261246   7.410   7.844   7.561
20457TIP3   OH261247   6.366   7.692   6.644
20457TIP3    H161248   6.321   7.671   6.562
20457TIP3    H261249   6.327   7.774   6.673
20458TIP3   OH261250   5.796   7.550   7.019
20458TIP3    H161251   5.842   7.540   7.103
20458TIP3    H261252   5.748   7.468   7.008
20459TIP3   OH261253   6.569   7.629   6.271
20459TIP3    H161254   6.619   7.556   6.236
20459TIP3    H261255   6.603   7.642   6.359
20460TIP3   OH261256   6.621   7.671   6.542
20460TIP3    H161257   6.533   7.675   6.581
20460TIP3    H261258   6.676   7.633   6.610
20461TIP3   OH261259   7.369   6.949   7.790
20461TIP3    H161260   7.302   7.005   7.752
20461TIP3    H261261   7.320   6.882   7.837
20462TIP3   OH261262   5.953   7.343   7.804
20462TIP3    H161263   6.000   7.339   7.887
20462TIP3    H261264   5.883   7.278   7.813
20463TIP3   OH261265   6.358   6.162   7.647
20463TIP3    H161266   6.276   6.126   7.616
20463TIP3    H261267   6.334   6.243   7.693
20464TIP3   OH261268   6.894   6.291   7.776
20464TIP3    H161269   6.960   6.276   7.844
20464TIP3    H261270   6.811   6.295   7.824
20465TIP3   OH261271   7.095   6.664   7.689
20465TIP3    H161272   7.095   6.687   7.782
20465TIP3    H261273   7.087   6.748   7.644
20466TIP3   OH261274   6.809   6.773   6.297
20466TIP3    H161275   6.759   6.782   6.216
20466TIP3    H261276   6.891   6.820   6.279
20467TIP3   OH261277   6.520   6.193   6.617
20467TIP3    H161278   6.479   6.203   6.702
20467TIP3    H261279   6.482   6.112   6.581
20468TIP3   OH261280   6.309   6.689   7.637
20468TIP3    H161281   6.272   6.696   7.725
20468TIP3    H261282   6.282   6.769   7.592
20469TIP3   OH261283   6.180   6.571   7.176
20469TIP3    H161284   6.090   6.548   7.201
20469TIP3    H261285   6.188   6.540   7.085
20470TIP3   OH261286   6.668   6.648   6.912
20470TIP3    H161287   6.618   6.721   6.875
20470TIP3    H261288   6.726   6.619   6.841
20471TIP3   OH261289   6.872   6.887   7.945
20471TIP3    H161290   6.888   6.842   8.028
20471TIP3    H261291   6.883   6.980   7.964
20472TIP3   OH261292   6.825   6.638   7.142
20472TIP3    H161293   6.759   6.665   7.078
20472TIP3    H261294   6.878   6.573   7.097
20473TIP3   OH261295   6.140   6.689   7.863
20473TIP3    H161296   6.197   6.740   7.920
20473TIP3    H261297   6.117   6.612   7.915
20474TIP3   OH261298   6.186   6.182   6.595
20474TIP3    H161299   6.175   6.187   6.690
20474TIP3    H261300   6.107   6.222   6.559
20475TIP3   OH261301   5.725   6.223   7.455
20475TIP3    H161302   5.801   6.259   7.502
20475TIP3    H261303   5.759   6.200   7.369
20476TIP3   OH261304   5.629   6.204   6.958
20476TIP3    H161305   5.675   6.239   6.882
20476TIP3    H261306   5.565   6.271   6.981
20477TIP3   OH261307   6.809   6.883   7.554
20477TIP3    H161308   6.840   6.816   7.493
20477TIP3    H261309   6.793   6.837   7.636
20478TIP3   OH261310   6.544   6.358   7.225
20478TIP3    H161311   6.463   6.359   7.276
20478TIP3    H261312   6.611   6.333   7.289
20479TIP3   OH261313   5.939   6.450   7.236
20479TIP3    H161314   5.852   6.456   7.198
20479TIP3    H261315   5.965   6.359   7.222
20480TIP3   OH261316   6.197   6.453   6.929
20480TIP3    H161317   6.292   6.462   6.916
20480TIP3    H261318   6.160   6.469   6.842
20481TIP3   OH261319   6.085   6.470   6.680
20481TIP3    H161320   6.023   6.419   6.628
20481TIP3    H261321   6.138   6.517   6.616
20482TIP3   OH261322   7.172   8.210   7.608
20482TIP3    H161323   7.195   8.176   7.521
20482TIP3    H261324   7.257   8.233   7.647
20483TIP3   OH261325   2.843   2.649   0.039
20483TIP3    H161326   2.926   2.669   0.083
20483TIP3    H261327   2.776   2.666   0.105
20484TIP3   OH261328   6.587   6.737   7.326
20484TIP3    H161329   6.654   6.690   7.277
20484TIP3    H261330   6.588   6.697   7.413
20485TIP3   OH261331   6.079   6.198   7.218
20485TIP3    H161332   6.053   6.123   7.271
20485TIP3    H261333   6.090   6.162   7.130
20486TIP3   OH261334   6.577   6.630   7.587
20486TIP3    H161335   6.490   6.662   7.610
20486TIP3    H261336   6.635   6.667   7.653
20487TIP3   OH261337   6.301   6.977   6.715
20487TIP3    H161338   6.225   6.926   6.687
20487TIP3    H261339   6.272   7.023   6.794
20488TIP3   OH261340   7.193   7.247   7.318
20488TIP3    H161341   7.229   7.295   7.242
20488TIP3    H261342   7.113   7.207   7.284
20489TIP3   OH261343   6.768   6.305   6.626
20489TIP3    H161344   6.676   6.280   6.618
20489TIP3    H261345   6.766   6.401   6.631
20490TIP3   OH261346   6.833   6.577   6.695
20490TIP3    H161347   6.928   6.583   6.686
20490TIP3    H261348   6.800   6.650   6.642
20491TIP3   OH261349   5.982   6.999   7.360
20491TIP3    H161350   6.018   6.981   7.273
20491TIP3    H261351   6.050   6.970   7.421
20492TIP3   OH261352   6.453   7.144   6.561
20492TIP3    H161353   6.405   7.226   6.556
20492TIP3    H261354   6.397   7.086   6.613
20493TIP3   OH261355   2.602   2.341   0.008
20493TIP3    H161356   2.662   2.350   0.083
20493TIP3    H261357   2.556   2.259   0.024
20494TIP3   OH261358   6.605   7.055   7.952
20494TIP3    H161359   6.594   7.028   7.861
20494TIP3    H261360   6.696   7.083   7.958
20495TIP3   OH261361   6.889   7.603   7.532
20495TIP3    H161362   6.804   7.560   7.523
20495TIP3    H261363   6.895   7.627   7.624
20496TIP3   OH261364   7.243   6.661   6.498
20496TIP3    H161365   7.185   6.616   6.437
20496TIP3    H261366   7.249   6.751   6.464
20497TIP3   OH261367   7.503   7.518   7.558
20497TIP3    H161368   7.408   7.510   7.550
20497TIP3    H261369   7.536   7.497   7.470
20498TIP3   OH261370   6.984   7.476   6.441
20498TIP3    H161371   6.953   7.406   6.499
20498TIP3    H261372   7.003   7.432   6.358
20499TIP3   OH261373   6.971   7.108   7.213
20499TIP3    H161374   6.881   7.096   7.244
20499TIP3    H261375   6.995   7.024   7.174
20500TIP3   OH261376   6.115   7.346   7.025
20500TIP3    H161377   6.114   7.423   6.967
20500TIP3    H261378   6.026   7.341   7.059
20501TIP3   OH261379   5.682   6.630   6.748
20501TIP3    H161380   5.723   6.714   6.769
20501TIP3    H261381   5.600   6.631   6.797
20502TIP3   OH261382   6.194   7.101   6.929
20502TIP3    H161383   6.179   7.191   6.959
20502TIP3    H261384   6.168   7.046   7.004
20503TIP3   OH261385   6.393   7.672   7.473
20503TIP3    H161386   6.439   7.743   7.429
20503TIP3    H261387   6.460   7.606   7.490
20504TIP3   OH261388   6.033   7.569   6.878
20504TIP3    H161389   5.945   7.577   6.915
20504TIP3    H261390   6.070   7.658   6.884
20505TIP3   OH261391   6.753   7.212   6.319
20505TIP3    H161392   6.802   7.182   6.395
20505TIP3    H261393   6.669   7.166   6.325
20506TIP3   OH261394   7.017   7.840   7.476
20506TIP3    H161395   6.958   7.767   7.491
20506TIP3    H261396   6.973   7.894   7.412
20507TIP3   OH261397   7.050   7.677   6.125
20507TIP3    H161398   7.053   7.731   6.046
20507TIP3    H261399   6.985   7.719   6.180
20508TIP3   OH261400   2.812   1.826  -0.007
20508TIP3    H161401   2.718   1.841  -0.006
20508TIP3    H261402   2.827   1.760   0.061
20509TIP3   OH261403   6.924   7.118   6.511
20509TIP3    H161404   6.908   7.068   6.591
20509TIP3    H261405   7.019   7.128   6.507
20510TIP3   OH261406   5.809   7.550   7.642
20510TIP3    H161407   5.867   7.495   7.696
20510TIP3    H261408   5.823   7.639   7.675
20511TIP3   OH261409   6.100   7.173   6.344
20511TIP3    H161410   6.109   7.082   6.317
20511TIP3    H261411   6.086   7.169   6.439
20512TIP3   OH261412   6.038   7.192   6.617
20512TIP3    H161413   6.097   7.168   6.689
20512TIP3    H261414   6.036   7.287   6.618
20513TIP3   OH261415   5.772   6.884   6.826
20513TIP3    H161416   5.707   6.933   6.876
20513TIP3    H261417   5.792   6.940   6.751
20514TIP3   OH261418   7.024   6.433   7.568
20514TIP3    H161419   7.042   6.514   7.615
20514TIP3    H261420   6.972   6.381   7.629
20515TIP3   OH261421   6.823   6.256   6.891
20515TIP3    H161422   6.800   6.270   6.799
20515TIP3    H261423   6.861   6.340   6.920
20516TIP3   OH261424   6.308   7.373   6.549
20516TIP3    H161425   6.223   7.398   6.586
20516TIP3    H261426   6.333   7.447   6.494
20517TIP3   OH261427   6.480   6.454   6.972
20517TIP3    H161428   6.541   6.524   6.949
20517TIP3    H261429   6.500   6.434   7.064
20518TIP3   OH261430   6.772   6.709   7.769
20518TIP3    H161431   6.793   6.781   7.829
20518TIP3    H261432   6.824   6.635   7.801
20519TIP3   OH261433   6.635   6.148   7.063
20519TIP3    H161434   6.610   6.225   7.113
20519TIP3    H261435   6.704   6.179   7.004
20520TIP3   OH261436   6.059   7.465   6.626
20520TIP3    H161437   6.041   7.537   6.566
20520TIP3    H261438   6.048   7.503   6.713
20521TIP3   OH261439   6.148   6.179   6.874
20521TIP3    H161440   6.137   6.270   6.900
20521TIP3    H261441   6.243   6.164   6.880
20522TIP3   OH261442   7.366   6.608   7.674
20522TIP3    H161443   7.277   6.626   7.705
20522TIP3    H261444   7.401   6.693   7.650
20523TIP3   OH261445   7.044   6.836   7.129
20523TIP3    H161446   6.967   6.783   7.147
20523TIP3    H261447   7.114   6.796   7.181
20524TIP3   OH261448   5.797   7.055   6.606
20524TIP3    H161449   5.868   7.119   6.614
20524TIP3    H261450   5.827   6.993   6.540
20525TIP3   OH261451   5.703   6.352   6.740
20525TIP3    H161452   5.715   6.446   6.749
20525TIP3    H261453   5.651   6.342   6.660
20526TIP3   OH261454   7.029   7.828   7.063
20526TIP3    H161455   6.984   7.880   6.997
20526TIP3    H261456   7.122   7.838   7.043
20527TIP3   OH261457   6.102   6.071   7.604
20527TIP3    H161458   6.072   6.039   7.519
20527TIP3    H261459   6.093   5.997   7.663
20528TIP3   OH261460   5.618   7.330   6.994
20528TIP3    H161461   5.579   7.367   7.073
20528TIP3    H261462   5.573   7.373   6.922
20529TIP3   OH261463   2.549   3.198   0.006
20529TIP3    H161464   2.602   3.202   0.085
20529TIP3    H261465   2.505   3.113   0.010
20530TIP3   OH261466   3.011   3.076   0.091
20530TIP3    H161467   3.083   3.017   0.112
20530TIP3    H261468   2.960   3.030   0.025
20531TIP3   OH261469   6.249   7.376   6.230
20531TIP3    H161470   6.202   7.306   6.276
20531TIP3    H261471   6.324   7.333   6.189
20532TIP3   OH261472   6.930   7.715   7.778
20532TIP3    H161473   6.888   7.728   7.862
20532TIP3    H261474   6.996   7.784   7.772
20533TIP3   OH261475   6.695   7.419   6.149
20533TIP3    H161476   6.731   7.355   6.210
20533TIP3    H261477   6.752   7.413   6.072
20534TIP3   OH261478   2.647   2.624   0.239
20534TIP3    H161479   2.675   2.532   0.236
20534TIP3    H261480   2.561   2.624   0.197
20535TIP3   OH261481   5.916   6.866   6.450
20535TIP3    H161482   5.967   6.842   6.527
20535TIP3    H261483   5.982   6.881   6.382
20536TIP3   OH261484   6.563   7.318   8.003
20536TIP3    H161485   6.500   7.352   7.940
20536TIP3    H261486   6.567   7.224   7.986
20537TIP3   OH261487   6.505   7.087   6.297
20537TIP3    H161488   6.479   7.098   6.388
20537TIP3    H261489   6.481   6.997   6.275
20538TIP3   OH261490   7.028   7.361   7.616
20538TIP3    H161491   7.097   7.415   7.576
20538TIP3    H261492   6.947   7.396   7.580
20539TIP3   OH261493   2.773   2.373   0.216
20539TIP3    H161494   2.858   2.365   0.173
20539TIP3    H261495   2.792   2.376   0.309
20540TIP3   OH261496   6.087   6.808   6.663
20540TIP3    H161497   6.067   6.777   6.752
20540TIP3    H261498   6.137   6.736   6.624
20541TIP3   OH261499   6.375   6.856   7.879
20541TIP3    H161500   6.311   6.922   7.906
20541TIP3    H261501   6.433   6.902   7.818
20542TIP3   OH261502   6.234   6.627   6.511
20542TIP3    H161503   6.203   6.631   6.421
20542TIP3    H261504   6.329   6.637   6.505
20543TIP3   OH261505   3.585   2.533   0.008
20543TIP3    H161506   3.648   2.585  -0.042
20543TIP3    H261507   3.608   2.549   0.100
20544TIP3   OH261508   7.026   6.907   6.184
20544TIP3    H161509   7.010   6.870   6.097
20544TIP3    H261510   7.006   7.000   6.174
20545TIP3   OH261511   6.509   6.659   8.009
20545TIP3    H161512   6.516   6.585   7.948
20545TIP3    H261513   6.470   6.729   7.958
20546TIP3   OH261514   6.512   6.460   7.812
20546TIP3    H161515   6.537   6.494   7.726
20546TIP3    H261516   6.420   6.435   7.803
20547TIP3   OH261517   6.546   6.985   7.694
20547TIP3    H161518   6.620   6.981   7.633
20547TIP3    H261519   6.483   7.044   7.651
20548TIP3   OH261520   7.181   6.784   7.922
20548TIP3    H161521   7.183   6.720   7.994
20548TIP3    H261522   7.123   6.854   7.955
20549TIP3   OH261523   7.057   7.267   7.869
20549TIP3    H161524   7.033   7.316   7.790
20549TIP3    H261525   7.101   7.189   7.836
20550TIP3   OH261526   3.089   2.110   0.234
20550TIP3    H161527   3.034   2.034   0.253
20550TIP3    H261528   3.131   2.089   0.150
20551TIP3   OH261529   6.641   6.231   7.895
20551TIP3    H161530   6.595   6.312   7.872
20551TIP3    H261531   6.574   6.163   7.892
20552TIP3   OH261532   3.488   2.074   0.129
20552TIP3    H161533   3.459   2.042   0.215
20552TIP3    H261534   3.412   2.061   0.073
20553TIP3   OH261535   6.939   6.572   7.954
20553TIP3    H161536   6.883   6.609   8.022
20553TIP3    H261537   7.025   6.564   7.997
20554TIP3   OH261538   3.920   1.943   0.096
20554TIP3    H161539   3.952   1.853   0.096
20554TIP3    H261540   3.870   1.950   0.177
20555TIP3   OH261541   2.948   1.886   0.313
20555TIP3    H161542   2.951   1.800   0.273
20555TIP3    H261543   2.979   1.873   0.403
20556TIP3   OH261544   3.410   1.571   0.165
20556TIP3    H161545   3.478   1.503   0.163
20556TIP3    H261546   3.393   1.590   0.073
20557TIP3   OH261547   3.501   1.792   0.301
20557TIP3    H161548   3.466   1.721   0.248
20557TIP3    H261549   3.428   1.854   0.308
20558TIP3   OH261550   6.061   7.676   6.447
20558TIP3    H161551   6.150   7.654   6.418
20558TIP3    H261552   6.021   7.720   6.372
20559TIP3   OH261553   5.524   7.059   6.622
20559TIP3    H161554   5.619   7.068   6.618
20559TIP3    H261555   5.506   6.974   6.582
20560TIP3   OH261556   5.417   7.630   7.078
20560TIP3    H161557   5.353   7.574   7.034
20560TIP3    H261558   5.464   7.571   7.137
20561TIP3   OH261559   5.571   7.469   7.243
20561TIP3    H161560   5.573   7.405   7.314
20561TIP3    H261561   5.626   7.542   7.274
20562TIP3   OH261562   7.297   7.874   7.032
20562TIP3    H161563   7.328   7.891   7.121
20562TIP3    H261564   7.363   7.916   6.976
20563TIP3   OH261565   7.351   7.883   7.302
20563TIP3    H161566   7.295   7.805   7.306
20563TIP3    H261567   7.420   7.868   7.366
20564TIP3   OH261568   7.383   7.670   7.805
20564TIP3    H161569   7.294   7.638   7.822
20564TIP3    H261570   7.379   7.764   7.824
20565TIP3   OH261571   7.204   7.122   6.517
20565TIP3    H161572   7.258   7.195   6.489
20565TIP3    H261573   7.251   7.085   6.593
20566TIP3   OH261574   7.335   6.980   6.721
20566TIP3    H161575   7.266   6.949   6.780
20566TIP3    H261576   7.400   7.021   6.777
20567TIP3   OH261577   7.367   7.380   7.147
20567TIP3    H161578   7.418   7.315   7.099
20567TIP3    H261579   7.371   7.458   7.092
20568TIP3   OH261580   7.178   7.670   7.326
20568TIP3    H161581   7.118   7.722   7.380
20568TIP3    H261582   7.121   7.627   7.262
20569TIP3   OH261583   7.238   6.899   6.360
20569TIP3    H161584   7.166   6.896   6.297
20569TIP3    H261585   7.221   6.978   6.413
20570TIP3   OH261586   7.086   6.547   6.308
20570TIP3    H161587   7.041   6.587   6.233
20570TIP3    H261588   7.076   6.453   6.294
20571TIP3   OH261589   7.127   6.850   6.862
20571TIP3    H161590   7.130   6.757   6.842
20571TIP3    H261591   7.102   6.854   6.954
20572TIP3   OH261592   5.747   6.934   7.663
20572TIP3    H161593   5.728   6.907   7.573
20572TIP3    H261594   5.840   6.915   7.674
20573TIP3   OH261595   7.457   7.275   7.680
20573TIP3    H161596   7.526   7.210   7.681
20573TIP3    H261597   7.492   7.348   7.629
20574TIP3   OH261598   7.606   7.046   7.689
20574TIP3    H161599   7.522   7.014   7.721
20574TIP3    H261600   7.669   6.980   7.716
20575TIP3   OH261601   7.050   6.276   6.281
20575TIP3    H161602   7.114   6.247   6.347
20575TIP3    H261603   6.967   6.238   6.310
20576TIP3   OH261604   7.118   6.579   6.737
20576TIP3    H161605   7.164   6.497   6.756
20576TIP3    H261606   7.162   6.614   6.659
20577TIP3   OH261607   7.259   6.712   7.262
20577TIP3    H161608   7.337   6.726   7.208
20577TIP3    H261609   7.279   6.753   7.345
20578TIP3   OH261610   7.345   6.861   7.483
20578TIP3    H161611   7.259   6.879   7.522
20578TIP3    H261612   7.370   6.944   7.441
20579TIP3   OH261613   2.689   1.964   0.272
20579TIP3    H161614   2.783   1.950   0.278
20579TIP3    H261615   2.650   1.884   0.307
20580TIP3   OH261616   7.741   6.419   8.000
20580TIP3    H161617   7.815   6.369   7.966
20580TIP3    H261618   7.721   6.482   7.932
20581TIP3   OH261619   7.226   6.328   6.820
20581TIP3    H161620   7.279   6.302   6.895
20581TIP3    H261621   7.167   6.254   6.806
20582TIP3   OH261622   5.943   6.299   7.612
20582TIP3    H161623   5.994   6.219   7.622
20582TIP3    H261624   6.007   6.367   7.592
20583TIP3   OH261625   5.728   6.556   7.688
20583TIP3    H161626   5.776   6.554   7.606
20583TIP3    H261627   5.756   6.637   7.731
20584TIP3   OH261628   7.630   6.563   7.792
20584TIP3    H161629   7.552   6.606   7.825
20584TIP3    H261630   7.597   6.493   7.735
20585TIP3   OH261631   7.281   6.224   6.438
20585TIP3    H161632   7.325   6.165   6.377
20585TIP3    H261633   7.332   6.305   6.434
20586TIP3   OH261634   5.709   6.085   7.192
20586TIP3    H161635   5.625   6.068   7.234
20586TIP3    H261636   5.687   6.133   7.112
20587TIP3   OH261637   6.869   7.797   6.704
20587TIP3    H161638   6.925   7.785   6.627
20587TIP3    H261639   6.908   7.871   6.751
20588TIP3   OH261640   2.662   1.501   0.003
20588TIP3    H161641   2.611   1.495   0.084
20588TIP3    H261642   2.607   1.551  -0.057
20589TIP3   OH261643   2.668   2.918   0.042
20589TIP3    H161644   2.573   2.914   0.052
20589TIP3    H261645   2.697   2.979   0.110
20590TIP3   OH261646   6.164   7.615   7.609
20590TIP3    H161647   6.114   7.690   7.576
20590TIP3    H261648   6.251   7.627   7.572
20591TIP3   OH261649   6.680   7.823   7.823
20591TIP3    H161650   6.709   7.750   7.770
20591TIP3    H261651   6.679   7.898   7.762
20592TIP3   OH261652   6.735   7.992   7.612
20592TIP3    H161653   6.754   7.941   7.534
20592TIP3    H261654   6.821   8.024   7.641
20593TIP3   OH261655   7.557   6.306   7.686
20593TIP3    H161656   7.471   6.267   7.668
20593TIP3    H261657   7.617   6.232   7.688
20594TIP3   OH261658   5.816   7.838   7.649
20594TIP3    H161659   5.726   7.855   7.619
20594TIP3    H261660   5.831   7.903   7.717
20595TIP3   OH261661   6.056   7.849   7.516
20595TIP3    H161662   5.971   7.849   7.559
20595TIP3    H261663   6.038   7.881   7.427
20596TIP3   OH261664   6.479   7.886   7.311
20596TIP3    H161665   6.405   7.884   7.251
20596TIP3    H261666   6.478   7.975   7.347
20597TIP3   OH261667   6.748   7.863   7.364
20597TIP3    H161668   6.656   7.863   7.338
20597TIP3    H261669   6.791   7.919   7.300
20598TIP3   OH261670   6.965   8.016   7.257
20598TIP3    H161671   6.955   8.099   7.211
20598TIP3    H261672   6.987   7.953   7.188
20599TIP3   OH261673   5.741   7.649   7.387
20599TIP3    H161674   5.765   7.627   7.477
20599TIP3    H261675   5.813   7.615   7.334
20600TIP3   OH261676   5.943   7.528   7.251
20600TIP3    H161677   5.953   7.445   7.298
20600TIP3    H261678   6.030   7.569   7.256
20601TIP3   OH261679   6.208   7.617   7.274
20601TIP3    H161680   6.228   7.525   7.262
20601TIP3    H261681   6.264   7.644   7.347
20602TIP3   OH261682   6.744   6.223   7.367
20602TIP3    H161683   6.697   6.170   7.431
20602TIP3    H261684   6.816   6.168   7.338
20603TIP3   OH261685   7.150   6.267   7.287
20603TIP3    H161686   7.211   6.255   7.215
20603TIP3    H261687   7.104   6.183   7.294
20604TIP3   OH261688   7.376   6.247   7.050
20604TIP3    H161689   7.448   6.192   7.018
20604TIP3    H261690   7.409   6.337   7.042
20605TIP3   OH261691   6.014   5.970   7.363
20605TIP3    H161692   5.926   5.937   7.377
20605TIP3    H261693   6.068   5.891   7.352
20606TIP3   OH261694   5.845   5.891   7.030
20606TIP3    H161695   5.864   5.938   6.948
20606TIP3    H261696   5.805   5.957   7.087
20607TIP3   OH261697   6.500   5.997   7.262
20607TIP3    H161698   6.543   6.051   7.195
20607TIP3    H261699   6.530   6.034   7.345
20608TIP3   OH261700   7.049   6.112   6.816
20608TIP3    H161701   6.967   6.156   6.836
20608TIP3    H261702   7.037   6.023   6.848
20609TIP3   OH261703   5.498   7.455   6.781
20609TIP3    H161704   5.417   7.427   6.739
20609TIP3    H261705   5.510   7.546   6.752
20610TIP3   OH261706   5.940   6.011   6.781
20610TIP3    H161707   5.986   5.948   6.726
20610TIP3    H261708   6.009   6.067   6.816
20611TIP3   OH261709   6.424   6.203   6.877
20611TIP3    H161710   6.480   6.148   6.932
20611TIP3    H261711   6.442   6.292   6.906
20612TIP3   OH261712   6.315   7.597   6.376
20612TIP3    H161713   6.398   7.625   6.337
20612TIP3    H261714   6.283   7.528   6.318
20613TIP3   OH261715   7.019   7.745   6.476
20613TIP3    H161716   7.012   7.650   6.469
20613TIP3    H261717   6.974   7.778   6.398
20614TIP3   OH261718   2.969   1.618   0.238
20614TIP3    H161719   2.931   1.556   0.300
20614TIP3    H261720   3.061   1.625   0.264
20615TIP3   OH261721   3.215   1.618   0.361
20615TIP3    H161722   3.286   1.595   0.301
20615TIP3    H261723   3.218   1.550   0.428
20616TIP3   OH261724   5.626   7.442   6.431
20616TIP3    H161725   5.628   7.455   6.526
20616TIP3    H261726   5.706   7.393   6.411
20617TIP3   OH261727   3.999   1.681   0.117
20617TIP3    H161728   4.018   1.644   0.203
20617TIP3    H261729   4.085   1.687   0.075
20618TIP3   OH261730   7.252   7.911   7.596
20618TIP3    H161731   7.170   7.887   7.552
20618TIP3    H261732   7.230   7.917   7.688
20619TIP3   OH261733   8.504   7.249   6.404
20619TIP3    H161734   8.472   7.335   6.378
20619TIP3    H261735   8.436   7.188   6.377
20620TIP3   OH261736   8.456   7.247   6.813
20620TIP3    H161737   8.490   7.235   6.902
20620TIP3    H261738   8.415   7.164   6.791
20621TIP3   OH261739   7.799   7.104   7.155
20621TIP3    H161740   7.832   7.052   7.227
20621TIP3    H261741   7.877   7.132   7.107
20622TIP3   OH261742   8.743   7.546   6.492
20622TIP3    H161743   8.717   7.478   6.555
20622TIP3    H261744   8.755   7.625   6.545
20623TIP3   OH261745   7.790   7.543   6.837
20623TIP3    H161746   7.772   7.450   6.853
20623TIP3    H261747   7.886   7.549   6.841
20624TIP3   OH261748   7.480   6.753   6.640
20624TIP3    H161749   7.442   6.837   6.667
20624TIP3    H261750   7.409   6.709   6.593
20625TIP3   OH261751   7.561   7.071   6.857
20625TIP3    H161752   7.610   6.993   6.882
20625TIP3    H261753   7.628   7.137   6.839
20626TIP3   OH261754   8.445   7.978   6.525
20626TIP3    H161755   8.466   7.919   6.453
20626TIP3    H261756   8.455   7.925   6.604
20627TIP3   OH261757   8.304   7.482   6.824
20627TIP3    H161758   8.344   7.398   6.803
20627TIP3    H261759   8.378   7.543   6.825
20628TIP3   OH261760   9.296   6.796   6.815
20628TIP3    H161761   9.293   6.889   6.794
20628TIP3    H261762   9.348   6.757   6.745
20629TIP3   OH261763   8.723   7.004   6.896
20629TIP3    H161764   8.776   6.929   6.922
20629TIP3    H261765   8.694   6.984   6.807
20630TIP3   OH261766   8.029   6.614   6.842
20630TIP3    H161767   8.039   6.682   6.775
20630TIP3    H261768   7.977   6.546   6.799
20631TIP3   OH261769   8.759   6.756   6.483
20631TIP3    H161770   8.828   6.735   6.546
20631TIP3    H261771   8.806   6.779   6.403
20632TIP3   OH261772   7.691   6.841   6.942
20632TIP3    H161773   7.770   6.824   6.993
20632TIP3    H261774   7.706   6.795   6.860
20633TIP3   OH261775   8.114   7.029   6.763
20633TIP3    H161776   8.207   7.013   6.773
20633TIP3    H261777   8.079   6.947   6.727
20634TIP3   OH261778   8.051   6.634   7.280
20634TIP3    H161779   7.999   6.673   7.210
20634TIP3    H261780   7.998   6.644   7.358
20635TIP3   OH261781   8.397   7.469   6.273
20635TIP3    H161782   8.359   7.445   6.189
20635TIP3    H261783   8.355   7.552   6.295
20636TIP3   OH261784   8.167   7.389   7.049
20636TIP3    H161785   8.105   7.453   7.084
20636TIP3    H261786   8.208   7.433   6.975
20637TIP3   OH261787   8.953   6.732   6.670
20637TIP3    H161788   9.013   6.671   6.712
20637TIP3    H261789   8.984   6.818   6.697
20638TIP3   OH261790   7.928   6.744   7.058
20638TIP3    H161791   7.987   6.817   7.077
20638TIP3    H261792   7.969   6.697   6.986
20639TIP3   OH261793   7.984   7.578   7.130
20639TIP3    H161794   7.988   7.669   7.098
20639TIP3    H261795   7.900   7.572   7.174
20640TIP3   OH261796   7.368   7.318   6.400
20640TIP3    H161797   7.331   7.337   6.314
20640TIP3    H261798   7.389   7.404   6.437
20641TIP3   OH261799   9.119   6.673   7.007
20641TIP3    H161800   9.038   6.720   6.989
20641TIP3    H261801   9.182   6.709   6.944
20642TIP3   OH261802   8.366   6.306   7.009
20642TIP3    H161803   8.363   6.218   7.045
20642TIP3    H261804   8.293   6.352   7.051
20643TIP3   OH261805   8.525   7.848   6.290
20643TIP3    H161806   8.580   7.772   6.273
20643TIP3    H261807   8.581   7.923   6.272
20644TIP3   OH261808   8.669   7.624   6.240
20644TIP3    H161809   8.626   7.549   6.198
20644TIP3    H261810   8.702   7.590   6.323
20645TIP3   OH261811   8.333   7.062   6.284
20645TIP3    H161812   8.256   7.114   6.263
20645TIP3    H261813   8.377   7.048   6.200
20646TIP3   OH261814   8.290   6.873   6.019
20646TIP3    H161815   8.372   6.922   6.023
20646TIP3    H261816   8.289   6.835   5.930
20647TIP3   OH261817   8.690   7.207   6.205
20647TIP3    H161818   8.633   7.230   6.278
20647TIP3    H261819   8.770   7.176   6.247
20648TIP3   OH261820   7.921   7.175   6.615
20648TIP3    H161821   7.882   7.115   6.550
20648TIP3    H261822   7.993   7.124   6.654
20649TIP3   OH261823   8.057   7.600   6.759
20649TIP3    H161824   8.037   7.589   6.666
20649TIP3    H261825   8.143   7.559   6.770
20650TIP3   OH261826   8.018   7.165   6.988
20650TIP3    H161827   8.054   7.130   6.907
20650TIP3    H261828   8.070   7.243   7.007
20651TIP3   OH261829   8.515   7.832   6.754
20651TIP3    H161830   8.594   7.878   6.784
20651TIP3    H261831   8.528   7.742   6.782
20652TIP3   OH261832   8.052   7.713   7.370
20652TIP3    H161833   8.022   7.800   7.344
20652TIP3    H261834   8.051   7.662   7.289
20653TIP3   OH261835   8.522   7.037   6.059
20653TIP3    H161836   8.575   7.104   6.103
20653TIP3    H261837   8.546   7.045   5.967
20654TIP3   OH261838   7.950   7.240   7.484
20654TIP3    H161839   7.966   7.334   7.494
20654TIP3    H261840   7.856   7.233   7.468
20655TIP3   OH261841   8.279   7.722   6.293
20655TIP3    H161842   8.359   7.773   6.301
20655TIP3    H261843   8.217   7.781   6.250
20656TIP3   OH261844   9.043   6.289   6.111
20656TIP3    H161845   8.962   6.307   6.158
20656TIP3    H261846   9.054   6.364   6.051
20657TIP3   OH261847   7.788   7.017   6.418
20657TIP3    H161848   7.715   7.073   6.390
20657TIP3    H261849   7.748   6.933   6.438
20658TIP3   OH261850   8.841   7.671   5.618
20658TIP3    H161851   8.846   7.766   5.628
20658TIP3    H261852   8.871   7.655   5.529
20659TIP3   OH261853   7.585   7.410   7.324
20659TIP3    H161854   7.511   7.390   7.265
20659TIP3    H261855   7.620   7.325   7.348
20660TIP3   OH261856   7.412   7.619   7.007
20660TIP3    H161857   7.496   7.654   7.035
20660TIP3    H261858   7.350   7.690   7.022
20661TIP3   OH261859   8.154   7.931   6.133
20661TIP3    H161860   8.116   7.917   6.046
20661TIP3    H261861   8.118   8.015   6.162
20662TIP3   OH261862   7.592   7.800   6.498
20662TIP3    H161863   7.636   7.793   6.583
20662TIP3    H261864   7.542   7.719   6.490
20663TIP3   OH261865   8.360   7.883   5.762
20663TIP3    H161866   8.410   7.810   5.727
20663TIP3    H261867   8.397   7.897   5.849
20664TIP3   OH261868   8.413   7.923   6.036
20664TIP3    H161869   8.324   7.928   6.070
20664TIP3    H261870   8.464   7.887   6.109
20665TIP3   OH261871   7.752   7.621   7.274
20665TIP3    H161872   7.765   7.661   7.360
20665TIP3    H261873   7.694   7.547   7.291
20666TIP3   OH261874   8.145   6.413   7.140
20666TIP3    H161875   8.061   6.383   7.106
20666TIP3    H261876   8.126   6.496   7.183
20667TIP3   OH261877   8.698   6.525   7.327
20667TIP3    H161878   8.772   6.495   7.379
20667TIP3    H261879   8.621   6.505   7.379
20668TIP3   OH261880   8.620   7.035   5.801
20668TIP3    H161881   8.567   7.032   5.721
20668TIP3    H261882   8.701   7.078   5.775
20669TIP3   OH261883   8.332   6.428   6.170
20669TIP3    H161884   8.277   6.438   6.247
20669TIP3    H261885   8.289   6.360   6.118
20670TIP3   OH261886   8.100   6.946   7.139
20670TIP3    H161887   8.070   6.961   7.228
20670TIP3    H261888   8.075   7.025   7.092
20671TIP3   OH261889   8.000   6.805   6.643
20671TIP3    H161890   7.907   6.787   6.657
20671TIP3    H261891   8.016   6.778   6.553
20672TIP3   OH261892   8.475   6.844   6.420
20672TIP3    H161893   8.404   6.907   6.405
20672TIP3    H261894   8.527   6.847   6.340
20673TIP3   OH261895   8.631   6.950   6.641
20673TIP3    H161896   8.562   6.972   6.578
20673TIP3    H261897   8.684   6.884   6.597
20674TIP3   OH261898   7.913   6.948   7.358
20674TIP3    H161899   7.929   7.014   7.425
20674TIP3    H261900   7.897   6.867   7.407
20675TIP3   OH261901   7.993   6.451   6.057
20675TIP3    H161902   7.972   6.443   6.150
20675TIP3    H261903   7.914   6.488   6.018
20676TIP3   OH261904   7.505   6.467   6.962
20676TIP3    H161905   7.577   6.510   7.009
20676TIP3    H261906   7.536   6.461   6.872
20677TIP3   OH261907   7.428   6.462   6.440
20677TIP3    H161908   7.474   6.497   6.363
20677TIP3    H261909   7.364   6.530   6.462
20678TIP3   OH261910   8.563   7.165   7.054
20678TIP3    H161911   8.629   7.126   6.996
20678TIP3    H261912   8.561   7.108   7.130
20679TIP3   OH261913   7.746   6.709   6.700
20679TIP3    H161914   7.654   6.718   6.672
20679TIP3    H261915   7.763   6.615   6.698
20680TIP3   OH261916   8.061   6.710   6.384
20680TIP3    H161917   8.127   6.767   6.343
20680TIP3    H261918   7.987   6.711   6.324
20681TIP3   OH261919   8.851   6.766   6.970
20681TIP3    H161920   8.816   6.768   7.060
20681TIP3    H261921   8.819   6.684   6.934
20682TIP3   OH261922   7.869   6.701   6.192
20682TIP3    H161923   7.803   6.657   6.139
20682TIP3    H261924   7.915   6.758   6.129
20683TIP3   OH261925   7.988   7.510   7.545
20683TIP3    H161926   8.000   7.586   7.488
20683TIP3    H261927   7.898   7.518   7.577
20684TIP3   OH261928   8.383   6.974   6.815
20684TIP3    H161929   8.469   6.946   6.782
20684TIP3    H261930   8.377   6.934   6.902
20685TIP3   OH261931   7.854   6.444   6.697
20685TIP3    H161932   7.832   6.373   6.757
20685TIP3    H261933   7.853   6.404   6.610
20686TIP3   OH261934   8.360   6.874   7.077
20686TIP3    H161935   8.273   6.906   7.102
20686TIP3    H261936   8.421   6.920   7.135
20687TIP3   OH261937   8.112   7.224   6.215
20687TIP3    H161938   8.034   7.180   6.181
20687TIP3    H261939   8.081   7.277   6.288
20688TIP3   OH261940   8.562   6.548   6.059
20688TIP3    H161941   8.471   6.523   6.078
20688TIP3    H261942   8.554   6.628   6.008
20689TIP3   OH261943   8.640   6.831   6.209
20689TIP3    H161944   8.734   6.828   6.193
20689TIP3    H261945   8.605   6.886   6.139
20690TIP3   OH261946   7.782   7.250   6.843
20690TIP3    H161947   7.823   7.236   6.757
20690TIP3    H261948   7.849   7.224   6.906
20691TIP3   OH261949   8.249   7.396   6.046
20691TIP3    H161950   8.196   7.476   6.043
20691TIP3    H261951   8.199   7.336   6.101
20692TIP3   OH261952   7.668   7.170   7.453
20692TIP3    H161953   7.668   7.135   7.542
20692TIP3    H261954   7.590   7.133   7.412
20693TIP3   OH261955   8.403   7.279   7.512
20693TIP3    H161956   8.383   7.286   7.418
20693TIP3    H261957   8.488   7.234   7.514
20694TIP3   OH261958   9.034   6.927   6.025
20694TIP3    H161959   8.985   6.896   5.949
20694TIP3    H261960   9.023   7.022   6.024
20695TIP3   OH261961   8.780   7.711   5.899
20695TIP3    H161962   8.748   7.634   5.946
20695TIP3    H261963   8.800   7.679   5.811
20696TIP3   OH261964   8.686   7.369   6.701
20696TIP3    H161965   8.604   7.321   6.719
20696TIP3    H261966   8.747   7.302   6.671
20697TIP3   OH261967   7.915   7.609   6.514
20697TIP3    H161968   7.913   7.685   6.456
20697TIP3    H261969   7.835   7.615   6.566
20698TIP3   OH261970   7.484   6.890   6.235
20698TIP3    H161971   7.521   6.976   6.255
20698TIP3    H261972   7.399   6.890   6.279
20699TIP3   OH261973   7.989   7.361   6.415
20699TIP3    H161974   7.973   7.451   6.444
20699TIP3    H261975   7.965   7.307   6.490
20700TIP3   OH261976   8.192   7.962   6.947
20700TIP3    H161977   8.205   8.056   6.936
20700TIP3    H261978   8.279   7.923   6.936
20701TIP3   OH261979   7.828   7.834   6.362
20701TIP3    H161980   7.740   7.827   6.400
20701TIP3    H261981   7.845   7.928   6.360
20702TIP3   OH261982   8.574   7.578   6.850
20702TIP3    H161983   8.599   7.555   6.940
20702TIP3    H261984   8.618   7.513   6.796
20703TIP3   OH261985   8.535   7.473   5.813
20703TIP3    H161986   8.581   7.448   5.893
20703TIP3    H261987   8.453   7.424   5.817
20704TIP3   OH261988   8.861   7.942   5.635
20704TIP3    H161989   8.918   8.011   5.603
20704TIP3    H261990   8.780   7.987   5.661
20705TIP3   OH261991   7.887   6.692   7.494
20705TIP3    H161992   7.791   6.696   7.497
20705TIP3    H261993   7.910   6.623   7.556
20706TIP3   OH261994   8.717   7.401   6.007
20706TIP3    H161995   8.704   7.337   6.077
20706TIP3    H261996   8.806   7.385   5.976
20707TIP3   OH261997   7.609   7.799   7.113
20707TIP3    H161998   7.668   7.743   7.163
20707TIP3    H261999   7.618   7.886   7.153
20708TIP3   OH262000   7.890   7.426   5.828
20708TIP3    H162001   7.896   7.333   5.804
20708TIP3    H262002   7.878   7.425   5.923
20709TIP3   OH262003   7.832   7.452   6.100
20709TIP3    H162004   7.888   7.428   6.173
20709TIP3    H262005   7.830   7.548   6.102
20710TIP3   OH262006   7.568   7.146   6.312
20710TIP3    H162007   7.502   7.194   6.362
20710TIP3    H262008   7.587   7.202   6.237
20711TIP3   OH262009   8.759   6.772   7.230
20711TIP3    H162010   8.824   6.799   7.295
20711TIP3    H262011   8.730   6.686   7.259
20712TIP3   OH262012   8.535   6.559   6.333
20712TIP3    H162013   8.463   6.498   6.316
20712TIP3    H262014   8.570   6.579   6.246
20713TIP3   OH262015   8.098   7.622   6.030
20713TIP3    H162016   8.017   7.653   6.070
20713TIP3    H262017   8.132   7.699   5.983
20714TIP3   OH262018   8.560   6.969   7.242
20714TIP3    H162019   8.559   6.985   7.336
20714TIP3    H262020   8.629   6.903   7.230
20715TIP3   OH262021   7.855   7.725   6.112
20715TIP3    H162022   7.836   7.797   6.051
20715TIP3    H262023   7.847   7.764   6.199
20716TIP3   OH262024   7.944   6.421   6.332
20716TIP3    H162025   7.930   6.515   6.346
20716TIP3    H262026   8.034   6.406   6.359
20717TIP3   OH262027   8.838   7.135   6.609
20717TIP3    H162028   8.759   7.083   6.626
20717TIP3    H262029   8.906   7.092   6.661
20718TIP3   OH262030   7.591   7.315   6.091
20718TIP3    H162031   7.662   7.379   6.100
20718TIP3    H262032   7.622   7.253   6.025
20719TIP3   OH262033   7.505   6.612   6.223
20719TIP3    H162034   7.515   6.707   6.235
20719TIP3    H262035   7.455   6.603   6.143
20720TIP3   OH262036   7.886   6.330   7.092
20720TIP3    H162037   7.858   6.298   7.007
20720TIP3    H262038   7.877   6.255   7.151
20721TIP3   OH262039   7.410   7.585   6.478
20721TIP3    H162040   7.371   7.624   6.556
20721TIP3    H262041   7.366   7.630   6.405
20722TIP3   OH262042   8.041   7.633   5.722
20722TIP3    H162043   8.000   7.564   5.775
20722TIP3    H262044   8.120   7.594   5.687
20723TIP3   OH262045   8.476   7.670   5.633
20723TIP3    H162046   8.513   7.609   5.696
20723TIP3    H262047   8.537   7.670   5.559
20724TIP3   OH262048   7.748   7.462   7.671
20724TIP3    H162049   7.739   7.473   7.766
20724TIP3    H262050   7.671   7.504   7.635
20725TIP3   OH262051   7.714   7.130   5.932
20725TIP3    H162052   7.768   7.108   6.008
20725TIP3    H262053   7.777   7.141   5.861
20726TIP3   OH262054   8.290   7.340   5.781
20726TIP3    H162055   8.268   7.353   5.873
20726TIP3    H262056   8.283   7.246   5.767
20727TIP3   OH262057   7.883   7.075   6.152
20727TIP3    H162058   7.857   7.049   6.241
20727TIP3    H262059   7.928   6.998   6.116
20728TIP3   OH262060   8.172   7.094   7.390
20728TIP3    H162061   8.105   7.155   7.422
20728TIP3    H262062   8.231   7.149   7.339
20729TIP3   OH262063   8.015   6.869   6.029
20729TIP3    H162064   7.993   6.874   5.936
20729TIP3    H262065   8.110   6.872   6.031
20730TIP3   OH262066   8.852   7.175   5.640
20730TIP3    H162067   8.805   7.129   5.571
20730TIP3    H262068   8.806   7.259   5.649
20731TIP3   OH262069   8.287   6.884   7.522
20731TIP3    H162070   8.300   6.819   7.453
20731TIP3    H262071   8.242   6.956   7.479
20732TIP3   OH262072   8.314   6.703   7.309
20732TIP3    H162073   8.341   6.741   7.226
20732TIP3    H262074   8.222   6.680   7.297
20733TIP3   OH262075   8.337   7.252   7.226
20733TIP3    H162076   8.412   7.236   7.168
20733TIP3    H262077   8.277   7.305   7.174
20734TIP3   OH262078   8.436   6.480   7.425
20734TIP3    H162079   8.397   6.558   7.386
20734TIP3    H262080   8.369   6.412   7.414
20735TIP3   OH262081   8.546   6.982   7.513
20735TIP3    H162082   8.588   6.919   7.571
20735TIP3    H262083   8.452   6.964   7.522
20736TIP3   OH262084   8.040   6.877   7.708
20736TIP3    H162085   8.052   6.829   7.626
20736TIP3    H262086   8.011   6.811   7.771
20737TIP3   OH262087   8.583   6.496   7.653
20737TIP3    H162088   8.647   6.425   7.647
20737TIP3    H262089   8.530   6.487   7.574
20738TIP3   OH262090   8.619   6.775   7.677
20738TIP3    H162091   8.613   6.679   7.668
20738TIP3    H262092   8.679   6.789   7.750
20739TIP3   OH262093   7.849   7.934   5.930
20739TIP3    H162094   7.940   7.917   5.906
20739TIP3    H262095   7.817   7.990   5.859
20740TIP3   OH262096   7.318   7.318   6.103
20740TIP3    H162097   7.414   7.326   6.103
20740TIP3    H262098   7.302   7.231   6.067
20741TIP3   OH262099   7.223   7.899   6.572
20741TIP3    H162100   7.158   7.846   6.527
20741TIP3    H262101   7.268   7.837   6.630
20742TIP3   OH262102   7.367   7.721   6.730
20742TIP3    H162103   7.359   7.651   6.796
20742TIP3    H262104   7.422   7.787   6.772
20743TIP3   OH262105   8.989   7.357   5.942
20743TIP3    H162106   9.030   7.443   5.944
20743TIP3    H262107   9.027   7.310   6.016
20744TIP3   OH262108   9.088   7.213   6.159
20744TIP3    H162109   9.023   7.183   6.223
20744TIP3    H262110   9.160   7.248   6.213
20745TIP3   OH262111   8.914   6.830   5.803
20745TIP3    H162112   8.921   6.860   5.712
20745TIP3    H262113   8.878   6.742   5.796
20746TIP3   OH262114   8.910   7.100   6.339
20746TIP3    H162115   8.919   7.005   6.337
20746TIP3    H262116   8.893   7.121   6.431
20747TIP3   OH262117   7.536   7.157   7.114
20747TIP3    H162118   7.526   7.130   7.022
20747TIP3    H262119   7.630   7.150   7.131
20748TIP3   OH262120   8.838   6.564   5.771
20748TIP3    H162121   8.903   6.525   5.829
20748TIP3    H262122   8.760   6.511   5.783
20749TIP3   OH262123   8.922   6.819   6.258
20749TIP3    H162124   8.963   6.734   6.271
20749TIP3    H262125   8.965   6.855   6.180
20750TIP3   OH262126   9.031   6.989   6.747
20750TIP3    H162127   9.119   7.007   6.714
20750TIP3    H262128   9.036   7.007   6.841
20751TIP3   OH262129   7.732   6.813   7.745
20751TIP3    H162130   7.819   6.819   7.785
20751TIP3    H262131   7.701   6.725   7.768
20752TIP3   OH262132   9.020   6.564   6.293
20752TIP3    H162133   9.065   6.540   6.374
20752TIP3    H262134   8.955   6.496   6.280
20753TIP3   OH262135   7.723   6.554   7.111
20753TIP3    H162136   7.780   6.477   7.114
20753TIP3    H262137   7.783   6.628   7.099
20754TIP3   OH262138   7.503   6.806   7.157
20754TIP3    H162139   7.557   6.805   7.078
20754TIP3    H262140   7.522   6.891   7.197
20755TIP3   OH262141   9.069   6.486   5.921
20755TIP3    H162142   9.113   6.428   5.859
20755TIP3    H262143   9.122   6.565   5.923
20756TIP3   OH262144   7.500   6.344   6.677
20756TIP3    H162145   7.414   6.329   6.715
20756TIP3    H262146   7.482   6.393   6.596
20757TIP3   OH262147   8.672   8.058   6.202
20757TIP3    H162148   8.692   8.025   6.115
20757TIP3    H262149   8.736   8.128   6.217
20758TIP3   OH262150   7.720   6.372   7.459
20758TIP3    H162151   7.669   6.361   7.540
20758TIP3    H262152   7.666   6.427   7.403
20759TIP3   OH262153   7.754   7.738   7.521
20759TIP3    H162154   7.662   7.766   7.517
20759TIP3    H262155   7.792   7.790   7.592
20760TIP3   OH262156   7.986   7.849   7.095
20760TIP3    H162157   7.914   7.904   7.065
20760TIP3    H262158   8.064   7.888   7.056
20761TIP3   OH262159   9.351   6.610   7.185
20761TIP3    H162160   9.261   6.611   7.152
20761TIP3    H262161   9.375   6.518   7.187
20762TIP3   OH262162   7.606   8.082   7.164
20762TIP3    H162163   7.523   8.125   7.144
20762TIP3    H262164   7.640   8.129   7.240
20763TIP3   OH262165   7.813   8.031   6.987
20763TIP3    H162166   7.739   8.056   7.042
20763TIP3    H262167   7.815   8.097   6.918
20764TIP3   OH262168   7.536   7.901   6.868
20764TIP3    H162169   7.562   7.876   6.957
20764TIP3    H262170   7.609   7.874   6.813
20765TIP3   OH262171   7.740   7.787   6.728
20765TIP3    H162172   7.749   7.704   6.776
20765TIP3    H262173   7.824   7.831   6.740
20766TIP3   OH262174   8.003   7.876   6.756
20766TIP3    H162175   8.027   7.783   6.753
20766TIP3    H262176   8.053   7.911   6.829
20767TIP3   OH262177   8.585   6.571   6.639
20767TIP3    H162178   8.529   6.548   6.713
20767TIP3    H262179   8.661   6.513   6.647
20768TIP3   OH262180   9.061   6.468   6.749
20768TIP3    H162181   9.104   6.489   6.666
20768TIP3    H262182   8.969   6.454   6.725
20769TIP3   OH262183   9.184   6.515   6.512
20769TIP3    H162184   9.255   6.458   6.482
20769TIP3    H262185   9.214   6.604   6.493
20770TIP3   OH262186   7.801   6.221   6.854
20770TIP3    H162187   7.712   6.188   6.867
20770TIP3    H262188   7.855   6.143   6.844
20771TIP3   OH262189   7.654   6.153   6.525
20771TIP3    H162190   7.665   6.191   6.438
20771TIP3    H262191   7.606   6.219   6.575
20772TIP3   OH262192   8.322   6.272   6.731
20772TIP3    H162193   8.407   6.232   6.718
20772TIP3    H262194   8.323   6.302   6.822
20773TIP3   OH262195   8.797   6.389   6.676
20773TIP3    H162196   8.846   6.340   6.611
20773TIP3    H262197   8.786   6.328   6.749
20774TIP3   OH262198   8.827   6.364   6.264
20774TIP3    H162199   8.743   6.384   6.223
20774TIP3    H262200   8.810   6.287   6.318
20775TIP3   OH262201   7.297   7.709   6.257
20775TIP3    H162202   7.213   7.680   6.221
20775TIP3    H262203   7.304   7.800   6.231
20776TIP3   OH262204   7.730   6.256   6.264
20776TIP3    H162205   7.771   6.192   6.206
20776TIP3    H262206   7.801   6.314   6.291
20777TIP3   OH262207   8.208   6.468   6.418
20777TIP3    H162208   8.225   6.439   6.507
20777TIP3    H262209   8.171   6.556   6.428
20778TIP3   OH262210   8.105   7.858   5.865
20778TIP3    H162211   8.187   7.887   5.825
20778TIP3    H262212   8.073   7.789   5.806
20779TIP3   OH262213   8.772   7.981   5.955
20779TIP3    H162214   8.781   7.886   5.942
20779TIP3    H262215   8.735   8.013   5.873
20780TIP3   OH262216   7.991   6.501   7.673
20780TIP3    H162217   7.955   6.446   7.743
20780TIP3    H262218   8.068   6.542   7.713
20781TIP3   OH262219   8.243   6.611   7.747
20781TIP3    H162220   8.295   6.664   7.686
20781TIP3    H262221   8.295   6.531   7.759
20782TIP3   OH262222   7.412   7.691   5.919
20782TIP3    H162223   7.412   7.699   6.014
20782TIP3    H262224   7.495   7.647   5.899
20783TIP3   OH262225   9.292   6.998   6.134
20783TIP3    H162226   9.256   7.084   6.157
20783TIP3    H262227   9.217   6.949   6.100
20784TIP3   OH262228   9.314   7.268   6.305
20784TIP3    H162229   9.366   7.205   6.355
20784TIP3    H262230   9.361   7.350   6.315
20785TIP3   OH262231   0.071   6.829   6.301
20785TIP3    H162232   0.078   6.908   6.247
20785TIP3    H262233  -0.009   6.786   6.270
20786TIP3   OH262234   9.487   7.095   6.440
20786TIP3    H162235   9.576   7.111   6.472
20786TIP3    H262236   9.499   7.037   6.365
20787TIP3   OH262237   0.310   7.366   5.666
20787TIP3    H162238   0.243   7.434   5.667
20787TIP3    H262239   0.391   7.412   5.689
20788TIP3   OH262240   0.273   7.175   5.476
20788TIP3    H162241   0.293   7.240   5.543
20788TIP3    H262242   0.302   7.092   5.514
20789TIP3   OH262243   9.568   7.261   5.873
20789TIP3    H162244   9.502   7.316   5.914
20789TIP3    H262245   9.548   7.172   5.903
20790TIP3   OH262246   0.276   6.669   5.595
20790TIP3    H162247   0.263   6.680   5.689
20790TIP3    H262248   0.218   6.597   5.571
20791TIP3   OH262249   9.803   7.028   6.106
20791TIP3    H162250   9.718   7.025   6.152
20791TIP3    H262251   9.784   6.996   6.018
20792TIP3   OH262252   9.755   6.724   5.565
20792TIP3    H162253   9.745   6.706   5.658
20792TIP3    H262254   9.669   6.756   5.537
20793TIP3   OH262255   9.288   6.749   6.425
20793TIP3    H162256   9.368   6.775   6.470
20793TIP3    H262257   9.318   6.722   6.338
20794TIP3   OH262258   9.213   6.723   5.937
20794TIP3    H162259   9.263   6.760   5.864
20794TIP3    H262260   9.149   6.790   5.959
20795TIP3   OH262261   9.551   6.952   6.211
20795TIP3    H162262   9.463   6.958   6.174
20795TIP3    H262263   9.575   6.860   6.199
20796TIP3   OH262264   9.771   6.935   5.852
20796TIP3    H162265   9.852   6.919   5.804
20796TIP3    H262266   9.709   6.963   5.784
20797TIP3   OH262267   9.611   7.002   5.641
20797TIP3    H162268   9.569   6.942   5.579
20797TIP3    H262269   9.674   7.050   5.588
20798TIP3   OH262270   9.657   6.696   6.182
20798TIP3    H162271   9.633   6.621   6.237
20798TIP3    H262272   9.687   6.656   6.100
20799TIP3   OH262273   0.076   7.530   5.699
20799TIP3    H162274   0.014   7.465   5.667
20799TIP3    H262275   0.064   7.531   5.794
20800TIP3   OH262276   0.715   6.931   5.534
20800TIP3    H162277   0.773   6.894   5.600
20800TIP3    H262278   0.677   7.009   5.576
20801TIP3   OH262279   9.774   7.655   5.321
20801TIP3    H162280   9.730   7.578   5.283
20801TIP3    H262281   9.727   7.671   5.403
20802TIP3   OH262282   9.678   7.693   5.574
20802TIP3    H162283   9.752   7.652   5.618
20802TIP3    H262284   9.663   7.774   5.622
20803TIP3   OH262285   0.533   6.922   5.806
20803TIP3    H162286   0.589   6.844   5.805
20803TIP3    H262287   0.516   6.939   5.898
20804TIP3   OH262288   0.249   7.051   5.966
20804TIP3    H162289   0.240   7.132   5.914
20804TIP3    H262290   0.173   7.052   6.024
20805TIP3   OH262291   0.359   6.725   6.087
20805TIP3    H162292   0.409   6.805   6.099
20805TIP3    H262293   0.421   6.663   6.048
20806TIP3   OH262294   9.748   6.655   5.841
20806TIP3    H162295   9.764   6.745   5.869
20806TIP3    H262296   9.833   6.612   5.852
20807TIP3   OH262297   9.299   7.583   5.507
20807TIP3    H162298   9.334   7.657   5.556
20807TIP3    H262299   9.375   7.527   5.489
20808TIP3   OH262300   9.311   6.872   5.728
20808TIP3    H162301   9.394   6.913   5.703
20808TIP3    H262302   9.251   6.894   5.657
20809TIP3   OH262303   9.629   6.578   6.577
20809TIP3    H162304   9.633   6.541   6.488
20809TIP3    H262305   9.647   6.503   6.634
20810TIP3   OH262306   9.224   7.775   5.966
20810TIP3    H162307   9.187   7.823   6.041
20810TIP3    H262308   9.196   7.824   5.889
20811TIP3   OH262309   0.070   7.881   5.196
20811TIP3    H162310   0.031   7.811   5.249
20811TIP3    H262311   0.144   7.839   5.152
20812TIP3   OH262312   9.507   7.413   5.444
20812TIP3    H162313   9.567   7.397   5.518
20812TIP3    H262314   9.565   7.424   5.369
20813TIP3   OH262315   0.235   7.575   5.271
20813TIP3    H162316   0.149   7.605   5.302
20813TIP3    H262317   0.224   7.480   5.260
20814TIP3   OH262318   9.692   7.339   5.641
20814TIP3    H162319   9.649   7.304   5.719
20814TIP3    H262320   9.727   7.263   5.596
20815TIP3   OH262321  -0.002   7.135   5.491
20815TIP3    H162322  -0.032   7.143   5.400
20815TIP3    H262323   0.093   7.140   5.485
20816TIP3   OH262324   7.213   7.153   7.659
20816TIP3    H162325   7.298   7.197   7.660
20816TIP3    H262326   7.152   7.219   7.625
20817TIP3   OH262327   8.889   8.197   6.079
20817TIP3    H162328   8.865   8.118   6.031
20817TIP3    H262329   8.985   8.198   6.077
20818TIP3   OH262330   9.492   6.806   6.604
20818TIP3    H162331   9.537   6.721   6.597
20818TIP3    H262332   9.560   6.867   6.632
20819TIP3   OH262333   9.291   7.043   6.671
20819TIP3    H162334   9.334   7.001   6.597
20819TIP3    H262335   9.319   7.134   6.666
20820TIP3   OH262336   9.284   6.608   6.175
20820TIP3    H162337   9.197   6.584   6.207
20820TIP3    H262338   9.267   6.654   6.093
20821TIP3   OH262339   9.510   6.683   6.972
20821TIP3    H162340   9.473   6.662   7.057
20821TIP3    H262341   9.438   6.724   6.924
20822TIP3   OH262342   9.602   6.467   6.325
20822TIP3    H162343   9.513   6.433   6.339
20822TIP3    H262344   9.657   6.389   6.319
20823TIP3   OH262345   9.425   6.416   6.020
20823TIP3    H162346   9.442   6.462   5.937
20823TIP3    H262347   9.387   6.484   6.077
20824TIP3   OH262348   0.192   6.574   6.242
20824TIP3    H162349   0.254   6.623   6.189
20824TIP3    H262350   0.146   6.641   6.293
20825TIP3   OH262351   9.109   7.940   5.778
20825TIP3    H162352   9.025   7.902   5.750
20825TIP3    H262353   9.112   8.025   5.734
20826TIP3   OH262354   9.508   6.534   5.772
20826TIP3    H162355   9.541   6.464   5.716
20826TIP3    H262356   9.587   6.579   5.803
20827TIP3   OH262357   0.227   6.790   5.852
20827TIP3    H162358   0.259   6.737   5.925
20827TIP3    H262359   0.245   6.881   5.879
20828TIP3   OH262360   9.169   7.923   5.427
20828TIP3    H162361   9.180   7.985   5.498
20828TIP3    H262362   9.256   7.917   5.387
20829TIP3   OH262363   8.196   2.947   0.402
20829TIP3    H162364   8.255   2.964   0.476
20829TIP3    H262365   8.240   2.986   0.327
20830TIP3   OH262366   7.628   3.163   0.652
20830TIP3    H162367   7.661   3.083   0.611
20830TIP3    H262368   7.592   3.214   0.579
20831TIP3   OH262369   7.770   2.969   0.102
20831TIP3    H162370   7.826   2.970   0.180
20831TIP3    H262371   7.831   2.966   0.029
20832TIP3   OH262372   8.340   3.299   0.814
20832TIP3    H162373   8.352   3.386   0.775
20832TIP3    H262374   8.423   3.254   0.797
20833TIP3   OH262375   7.916   2.915   0.342
20833TIP3    H162376   7.864   2.926   0.421
20833TIP3    H262377   8.000   2.957   0.361
20834TIP3   OH262378   8.046   2.932   0.680
20834TIP3    H162379   7.970   2.972   0.720
20834TIP3    H262380   8.096   3.005   0.643
20835TIP3   OH262381   1.142   8.405   7.837
20835TIP3    H162382   1.133   8.322   7.789
20835TIP3    H262383   1.186   8.381   7.918
20836TIP3   OH262384   8.180   3.501   0.390
20836TIP3    H162385   8.239   3.502   0.465
20836TIP3    H262386   8.219   3.564   0.328
20837TIP3   OH262387   1.130   8.022   7.915
20837TIP3    H162388   1.108   8.060   8.000
20837TIP3    H262389   1.205   7.965   7.933
20838TIP3   OH262390   1.031   7.814   7.749
20838TIP3    H162391   1.051   7.894   7.798
20838TIP3    H262392   1.025   7.843   7.658
20839TIP3   OH262393   1.492   7.044   7.731
20839TIP3    H162394   1.415   7.056   7.787
20839TIP3    H262395   1.502   7.127   7.685
20840TIP3   OH262396   1.306   8.445   7.325
20840TIP3    H162397   1.298   8.539   7.312
20840TIP3    H262398   1.398   8.426   7.308
20841TIP3   OH262399   7.651   2.787   1.090
20841TIP3    H162400   7.723   2.753   1.144
20841TIP3    H262401   7.583   2.720   1.096
20842TIP3   OH262402   1.053   7.827   7.465
20842TIP3    H162403   0.998   7.843   7.388
20842TIP3    H262404   1.137   7.866   7.443
20843TIP3   OH262405   7.583   3.053   0.371
20843TIP3    H162406   7.492   3.075   0.390
20843TIP3    H262407   7.608   3.114   0.301
20844TIP3   OH262408   7.764   2.926   0.575
20844TIP3    H162409   7.755   2.893   0.664
20844TIP3    H262410   7.687   2.891   0.528
20845TIP3   OH262411   0.996   7.399   7.701
20845TIP3    H162412   0.955   7.411   7.787
20845TIP3    H262413   1.071   7.459   7.702
20846TIP3   OH262414   1.183   7.597   7.695
20846TIP3    H162415   1.246   7.589   7.767
20846TIP3    H262416   1.128   7.672   7.720
20847TIP3   OH262417   1.518   7.706   7.664
20847TIP3    H162418   1.467   7.664   7.595
20847TIP3    H262419   1.515   7.799   7.641
20848TIP3   OH262420   1.222   8.538   7.610
20848TIP3    H162421   1.187   8.498   7.690
20848TIP3    H262422   1.237   8.464   7.551
20849TIP3   OH262423   1.305   8.715   7.268
20849TIP3    H162424   1.384   8.760   7.299
20849TIP3    H262425   1.263   8.779   7.210
20850TIP3   OH262426   1.171   8.174   7.687
20850TIP3    H162427   1.150   8.115   7.759
20850TIP3    H262428   1.266   8.172   7.681
20851TIP3   OH262429   7.727   2.846   0.829
20851TIP3    H162430   7.810   2.867   0.871
20851TIP3    H262431   7.670   2.819   0.902
20852TIP3   OH262432   7.613   2.617   0.007
20852TIP3    H162433   7.583   2.706  -0.009
20852TIP3    H262434   7.534   2.566   0.023
20853TIP3   OH262435   8.153   3.037   0.919
20853TIP3    H162436   8.069   3.008   0.956
20853TIP3    H262437   8.150   3.009   0.828
20854TIP3   OH262438   7.822   3.324   0.270
20854TIP3    H162439   7.749   3.288   0.220
20854TIP3    H262440   7.844   3.257   0.334
20855TIP3   OH262441   1.267   7.967   7.348
20855TIP3    H162442   1.321   7.966   7.269
20855TIP3    H262443   1.228   8.055   7.348
20856TIP3   OH262444   1.446   8.170   7.685
20856TIP3    H162445   1.501   8.239   7.649
20856TIP3    H262446   1.501   8.128   7.752
20857TIP3   OH262447   1.617   8.034   7.852
20857TIP3    H162448   1.579   8.025   7.939
20857TIP3    H262449   1.700   8.080   7.867
20858TIP3   OH262450   1.476   7.945   7.531
20858TIP3    H162451   1.399   7.944   7.474
20858TIP3    H262452   1.464   8.023   7.586
20859TIP3   OH262453   1.347   7.602   7.471
20859TIP3    H162454   1.278   7.617   7.536
20859TIP3    H262455   1.336   7.512   7.443
20860TIP3   OH262456   7.876   3.249  -0.009
20860TIP3    H162457   7.920   3.165   0.006
20860TIP3    H262458   7.920   3.310   0.050
20861TIP3   OH262459   1.299   7.336   7.416
20861TIP3    H162460   1.366   7.311   7.481
20861TIP3    H262461   1.219   7.293   7.446
20862TIP3   OH262462   1.390   7.571   7.873
20862TIP3    H162463   1.432   7.486   7.871
20862TIP3    H262464   1.443   7.627   7.816
20863TIP3   OH262465   8.123   3.233   0.374
20863TIP3    H162466   8.213   3.220   0.404
20863TIP3    H262467   8.113   3.328   0.370
20864TIP3   OH262468   8.714   2.951   1.117
20864TIP3    H162469   8.719   2.862   1.153
20864TIP3    H262470   8.632   2.986   1.152
20865TIP3   OH262471   1.494   7.312   7.887
20865TIP3    H162472   1.506   7.332   7.979
20865TIP3    H262473   1.428   7.243   7.885
20866TIP3   OH262474   8.445   3.044   0.911
20866TIP3    H162475   8.383   3.104   0.953
20866TIP3    H262476   8.408   2.957   0.925
20867TIP3   OH262477   1.520   7.272   7.568
20867TIP3    H162478   1.574   7.210   7.520
20867TIP3    H262479   1.578   7.345   7.589
20868TIP3   OH262480   8.353   2.791   0.884
20868TIP3    H162481   8.330   2.753   0.799
20868TIP3    H262482   8.434   2.747   0.909
20869TIP3   OH262483   7.501   2.773   0.597
20869TIP3    H162484   7.499   2.680   0.620
20869TIP3    H262485   7.511   2.774   0.502
20870TIP3   OH262486   8.187   2.526   0.290
20870TIP3    H162487   8.265   2.572   0.262
20870TIP3    H262488   8.140   2.589   0.345
20871TIP3   OH262489   8.389   2.699   0.210
20871TIP3    H162490   8.403   2.625   0.150
20871TIP3    H262491   8.352   2.768   0.154
20872TIP3   OH262492   7.598   2.494   0.322
20872TIP3    H162493   7.671   2.540   0.281
20872TIP3    H262494   7.640   2.427   0.377
20873TIP3   OH262495   1.300   7.117   7.909
20873TIP3    H162496   1.218   7.165   7.923
20873TIP3    H262497   1.292   7.040   7.964
20874TIP3   OH262498   1.354   8.770   7.589
20874TIP3    H162499   1.306   8.688   7.599
20874TIP3    H262500   1.286   8.837   7.582
20875TIP3   OH262501   2.751   8.297   7.557
20875TIP3    H162502   2.717   8.385   7.541
20875TIP3    H262503   2.681   8.239   7.525
20876TIP3   OH262504   9.296   3.660  -0.019
20876TIP3    H162505   9.345   3.652   0.063
20876TIP3    H262506   9.256   3.574  -0.031
20877TIP3   OH262507   8.619   3.579   0.291
20877TIP3    H162508   8.636   3.510   0.356
20877TIP3    H262509   8.702   3.590   0.245
20878TIP3   OH262510   2.987   8.617   7.695
20878TIP3    H162511   2.993   8.533   7.740
20878TIP3    H262512   2.984   8.682   7.765
20879TIP3   OH262513   8.625   3.966   0.049
20879TIP3    H162514   8.596   3.875   0.043
20879TIP3    H262515   8.712   3.966   0.010
20880TIP3   OH262516   1.720   7.769   7.851
20880TIP3    H162517   1.699   7.862   7.862
20880TIP3    H262518   1.655   7.738   7.788
20881TIP3   OH262519   1.855   8.136   7.932
20881TIP3    H162520   1.918   8.070   7.963
20881TIP3    H262521   1.904   8.218   7.932
20882TIP3   OH262522   2.752   9.008   7.736
20882TIP3    H162523   2.762   8.962   7.653
20882TIP3    H262524   2.662   8.988   7.764
20883TIP3   OH262525   2.592   8.500   7.981
20883TIP3    H162526   2.637   8.420   7.953
20883TIP3    H262527   2.662   8.557   8.014
20884TIP3   OH262528   0.338   3.226   0.024
20884TIP3    H162529   0.349   3.311   0.065
20884TIP3    H262530   0.361   3.240  -0.068
20885TIP3   OH262531   9.502   3.395   0.041
20885TIP3    H162532   9.532   3.309   0.069
20885TIP3    H262533   9.463   3.380  -0.045
20886TIP3   OH262534   2.334   7.663   7.975
20886TIP3    H162535   2.315   7.735   7.914
20886TIP3    H262536   2.274   7.593   7.947
20887TIP3   OH262537   3.029   7.773   7.647
20887TIP3    H162538   3.093   7.765   7.719
20887TIP3    H262539   3.079   7.811   7.575
20888TIP3   OH262540   8.569   3.332   0.042
20888TIP3    H162541   8.639   3.296   0.097
20888TIP3    H262542   8.556   3.265  -0.026
20889TIP3   OH262543   2.384   8.076   7.921
20889TIP3    H162544   2.477   8.059   7.929
20889TIP3    H262545   2.347   7.997   7.883
20890TIP3   OH262546   0.382   3.451   0.185
20890TIP3    H162547   0.294   3.487   0.177
20890TIP3    H262548   0.417   3.488   0.266
20891TIP3   OH262549   8.872   3.040   0.443
20891TIP3    H162550   8.783   3.063   0.418
20891TIP3    H262551   8.878   3.060   0.536
20892TIP3   OH262552   2.630   8.521   7.453
20892TIP3    H162553   2.596   8.500   7.366
20892TIP3    H262554   2.595   8.608   7.473
20893TIP3   OH262555   8.956   3.850   0.190
20893TIP3    H162556   8.888   3.916   0.176
20893TIP3    H262557   9.019   3.864   0.119
20894TIP3   OH262558   3.186   7.788   7.871
20894TIP3    H162559   3.136   7.773   7.951
20894TIP3    H262560   3.238   7.866   7.890
20895TIP3   OH262561   8.750   3.173   0.187
20895TIP3    H162562   8.810   3.237   0.227
20895TIP3    H262563   8.803   3.128   0.122
20896TIP3   OH262564   1.616   8.351   7.563
20896TIP3    H162565   1.590   8.374   7.474
20896TIP3    H262566   1.639   8.434   7.604
20897TIP3   OH262567   0.141   3.110   0.191
20897TIP3    H162568   0.055   3.132   0.155
20897TIP3    H262569   0.203   3.138   0.124
20898TIP3   OH262570   9.198   2.742   0.171
20898TIP3    H162571   9.189   2.651   0.199
20898TIP3    H262572   9.119   2.785   0.203
20899TIP3   OH262573   2.785   8.916   7.482
20899TIP3    H162574   2.833   8.835   7.465
20899TIP3    H262575   2.839   8.985   7.442
20900TIP3   OH262576   2.916   8.686   7.432
20900TIP3    H162577   2.912   8.609   7.375
20900TIP3    H262578   2.943   8.651   7.517
20901TIP3   OH262579   9.784   4.167   0.121
20901TIP3    H162580   9.784   4.081   0.080
20901TIP3    H262581   9.715   4.216   0.076
20902TIP3   OH262582   2.562   8.132   7.432
20902TIP3    H162583   2.489   8.190   7.414
20902TIP3    H262584   2.560   8.068   7.361
20903TIP3   OH262585   2.592   7.936   7.241
20903TIP3    H162586   2.676   7.979   7.223
20903TIP3    H262587   2.577   7.880   7.165
20904TIP3   OH262588   3.470   8.411   8.029
20904TIP3    H162589   3.386   8.458   8.029
20904TIP3    H262590   3.504   8.424   7.940
20905TIP3   OH262591   2.953   8.258   7.379
20905TIP3    H162592   2.889   8.273   7.448
20905TIP3    H262593   3.032   8.229   7.426
20906TIP3   OH262594   9.701   3.648   0.330
20906TIP3    H162595   9.704   3.732   0.377
20906TIP3    H262596   9.618   3.650   0.283
20907TIP3   OH262597   2.183   8.225   7.793
20907TIP3    H162598   2.134   8.164   7.739
20907TIP3    H262599   2.258   8.174   7.825
20908TIP3   OH262600   2.336   8.605   7.926
20908TIP3    H162601   2.309   8.607   7.834
20908TIP3    H262602   2.426   8.573   7.923
20909TIP3   OH262603   8.846   3.598   0.144
20909TIP3    H162604   8.874   3.563   0.060
20909TIP3    H262605   8.892   3.682   0.153
20910TIP3   OH262606   2.831   8.073   7.212
20910TIP3    H162607   2.868   8.149   7.257
20910TIP3    H262608   2.841   8.092   7.119
20911TIP3   OH262609   2.539   8.783   7.484
20911TIP3    H162610   2.621   8.832   7.486
20911TIP3    H262611   2.479   8.838   7.433
20912TIP3   OH262612   3.282   7.328   7.286
20912TIP3    H162613   3.207   7.352   7.340
20912TIP3    H262614   3.295   7.403   7.229
20913TIP3   OH262615   2.028   8.063   7.635
20913TIP3    H162616   1.961   8.110   7.584
20913TIP3    H262617   2.009   7.970   7.619
20914TIP3   OH262618   3.107   8.715   6.834
20914TIP3    H162619   3.101   8.810   6.823
20914TIP3    H262620   3.198   8.694   6.813
20915TIP3   OH262621   0.273   4.464   0.214
20915TIP3    H162622   0.253   4.373   0.234
20915TIP3    H262623   0.209   4.488   0.147
20916TIP3   OH262624   2.419   8.976   7.316
20916TIP3    H162625   2.381   8.965   7.229
20916TIP3    H262626   2.384   9.060   7.347
20917TIP3   OH262627   1.854   8.808   7.671
20917TIP3    H162628   1.891   8.805   7.759
20917TIP3    H262629   1.791   8.735   7.669
20918TIP3   OH262630   2.611   8.922   6.932
20918TIP3    H162631   2.662   8.848   6.898
20918TIP3    H262632   2.647   8.938   7.019
20919TIP3   OH262633   2.666   8.933   7.199
20919TIP3    H162634   2.587   8.952   7.250
20919TIP3    H262635   2.729   8.902   7.263
20920TIP3   OH262636   0.147   3.599   0.487
20920TIP3    H162637   0.062   3.610   0.445
20920TIP3    H262638   0.167   3.506   0.479
20921TIP3   OH262639   8.958   2.839   0.271
20921TIP3    H162640   8.875   2.806   0.237
20921TIP3    H262641   8.935   2.917   0.321
20922TIP3   OH262642   9.506   2.962   0.502
20922TIP3    H162643   9.573   2.936   0.566
20922TIP3    H262644   9.423   2.945   0.548
20923TIP3   OH262645   9.709   3.384   0.417
20923TIP3    H162646   9.671   3.378   0.505
20923TIP3    H262647   9.690   3.474   0.389
20924TIP3   OH262648   2.854   8.075   6.935
20924TIP3    H162649   2.811   8.074   6.850
20924TIP3    H262650   2.934   8.125   6.922
20925TIP3   OH262651   2.560   7.495   7.286
20925TIP3    H162652   2.521   7.503   7.373
20925TIP3    H262653   2.514   7.422   7.245
20926TIP3   OH262654   8.914   3.370   0.285
20926TIP3    H162655   8.900   3.395   0.377
20926TIP3    H262656   8.893   3.448   0.235
20927TIP3   OH262657   2.249   7.861   7.806
20927TIP3    H162658   2.156   7.844   7.822
20927TIP3    H262659   2.261   7.840   7.713
20928TIP3   OH262660   2.711   7.944   7.568
20928TIP3    H162661   2.662   8.016   7.528
20928TIP3    H262662   2.769   7.913   7.499
20929TIP3   OH262663   9.442   3.588   0.622
20929TIP3    H162664   9.412   3.526   0.688
20929TIP3    H262665   9.531   3.612   0.650
20930TIP3   OH262666   2.872   7.953   7.793
20930TIP3    H162667   2.808   7.977   7.726
20930TIP3    H262668   2.921   7.881   7.754
20931TIP3   OH262669   8.702   3.413   0.487
20931TIP3    H162670   8.734   3.474   0.553
20931TIP3    H262671   8.670   3.337   0.537
20932TIP3   OH262672   2.187   7.454   7.271
20932TIP3    H162673   2.194   7.485   7.362
20932TIP3    H262674   2.132   7.519   7.228
20933TIP3   OH262675   8.279   2.876   0.029
20933TIP3    H162676   8.309   2.955   0.075
20933TIP3    H262677   8.314   2.885  -0.059
20934TIP3   OH262678   1.688   7.494   7.614
20934TIP3    H162679   1.730   7.530   7.536
20934TIP3    H262680   1.633   7.565   7.647
20935TIP3   OH262681   9.444   3.595   0.214
20935TIP3    H162682   9.473   3.529   0.151
20935TIP3    H262683   9.405   3.545   0.285
20936TIP3   OH262684   2.602   7.657   7.882
20936TIP3    H162685   2.521   7.656   7.934
20936TIP3    H262686   2.672   7.651   7.947
20937TIP3   OH262687   1.999   7.753   7.862
20937TIP3    H162688   1.904   7.748   7.851
20937TIP3    H262689   2.028   7.662   7.859
20938TIP3   OH262690   2.250   7.761   7.546
20938TIP3    H162691   2.345   7.771   7.545
20938TIP3    H262692   2.223   7.782   7.457
20939TIP3   OH262693   9.564   3.132   0.099
20939TIP3    H162694   9.547   3.150   0.191
20939TIP3    H262695   9.494   3.071   0.073
20940TIP3   OH262696   2.148   7.796   7.291
20940TIP3    H162697   2.077   7.742   7.255
20940TIP3    H262698   2.193   7.830   7.213
20941TIP3   OH262699   2.651   8.016   7.977
20941TIP3    H162700   2.717   7.972   7.924
20941TIP3    H262701   2.657   7.974   8.063
20942TIP3   OH262702   2.124   7.500   7.857
20942TIP3    H162703   2.106   7.418   7.902
20942TIP3    H262704   2.144   7.474   7.767
20943TIP3   OH262705   9.176   3.305   0.239
20943TIP3    H162706   9.087   3.334   0.258
20943TIP3    H262707   9.231   3.357   0.297
20944TIP3   OH262708   2.336   8.283   7.372
20944TIP3    H162709   2.268   8.222   7.344
20944TIP3    H262710   2.300   8.324   7.451
20945TIP3   OH262711   3.237   8.547   7.983
20945TIP3    H162712   3.271   8.598   7.909
20945TIP3    H262713   3.156   8.508   7.950
20946TIP3   OH262714   2.809   7.606   7.278
20946TIP3    H162715   2.716   7.584   7.277
20946TIP3    H262716   2.811   7.701   7.291
20947TIP3   OH262717   9.351   4.024   0.382
20947TIP3    H162718   9.388   3.982   0.459
20947TIP3    H262719   9.284   4.083   0.417
20948TIP3   OH262720   2.890   7.860   7.369
20948TIP3    H162721   2.985   7.863   7.380
20948TIP3    H262722   2.871   7.932   7.309
20949TIP3   OH262723   8.584   3.696   0.011
20949TIP3    H162724   8.631   3.676  -0.070
20949TIP3    H262725   8.628   3.644   0.078
20950TIP3   OH262726   2.497   8.439   7.213
20950TIP3    H162727   2.449   8.522   7.213
20950TIP3    H262728   2.444   8.381   7.268
20951TIP3   OH262729   9.192   3.758   0.626
20951TIP3    H162730   9.178   3.746   0.532
20951TIP3    H262731   9.282   3.728   0.640
20952TIP3   OH262732   3.281   7.960   7.170
20952TIP3    H162733   3.223   7.914   7.109
20952TIP3    H262734   3.285   8.050   7.136
20953TIP3   OH262735   0.236   4.180   0.233
20953TIP3    H162736   0.144   4.184   0.207
20953TIP3    H262737   0.283   4.162   0.152
20954TIP3   OH262738   2.990   8.776   7.083
20954TIP3    H162739   2.974   8.698   7.135
20954TIP3    H262740   3.024   8.743   7.000
20955TIP3   OH262741   3.017   8.399   7.872
20955TIP3    H162742   2.929   8.382   7.906
20955TIP3    H262743   3.046   8.315   7.837
20956TIP3   OH262744   2.166   8.656   7.703
20956TIP3    H162745   2.165   8.721   7.633
20956TIP3    H262746   2.094   8.682   7.761
20957TIP3   OH262747   1.717   7.929   7.397
20957TIP3    H162748   1.764   8.009   7.421
20957TIP3    H262749   1.635   7.933   7.447
20958TIP3   OH262750   2.216   8.408   7.583
20958TIP3    H162751   2.204   8.496   7.620
20958TIP3    H262752   2.207   8.349   7.658
20959TIP3   OH262753   2.081   8.865   7.534
20959TIP3    H162754   1.994   8.854   7.572
20959TIP3    H262755   2.097   8.960   7.537
20960TIP3   OH262756   9.337   4.002   0.099
20960TIP3    H162757   9.350   4.009   0.193
20960TIP3    H262758   9.396   4.067   0.061
20961TIP3   OH262759   2.793   8.506   6.996
20961TIP3    H162760   2.838   8.496   7.079
20961TIP3    H262761   2.710   8.460   7.008
20962TIP3   OH262762   3.089   8.994   6.822
20962TIP3    H162763   3.073   9.022   6.732
20962TIP3    H262764   3.053   9.063   6.877
20963TIP3   OH262765   8.869   3.123   0.711
20963TIP3    H162766   8.820   3.174   0.775
20963TIP3    H262767   8.908   3.052   0.762
20964TIP3   OH262768   2.969   8.477   7.212
20964TIP3    H162769   2.951   8.403   7.270
20964TIP3    H262770   3.063   8.471   7.194
20965TIP3   OH262771   2.137   8.480   7.011
20965TIP3    H162772   2.148   8.390   6.981
20965TIP3    H262773   2.129   8.473   7.106
20966TIP3   OH262774   2.088   8.483   7.286
20966TIP3    H162775   2.150   8.456   7.354
20966TIP3    H262776   2.088   8.578   7.289
20967TIP3   OH262777   1.818   8.174   7.481
20967TIP3    H162778   1.753   8.223   7.532
20967TIP3    H262779   1.844   8.234   7.411
20968TIP3   OH262780   9.516   3.195   0.361
20968TIP3    H162781   9.594   3.243   0.389
20968TIP3    H262782   9.514   3.117   0.416
20969TIP3   OH262783   2.874   7.562   7.547
20969TIP3    H162784   2.851   7.583   7.456
20969TIP3    H262785   2.917   7.642   7.580
20970TIP3   OH262786   2.357   8.670   7.217
20970TIP3    H162787   2.271   8.695   7.250
20970TIP3    H262788   2.390   8.749   7.174
20971TIP3   OH262789   2.522   7.755   7.633
20971TIP3    H162790   2.583   7.823   7.604
20971TIP3    H262791   2.548   7.735   7.723
20972TIP3   OH262792   9.355   3.427   0.411
20972TIP3    H162793   9.381   3.477   0.488
20972TIP3    H262794   9.408   3.347   0.414
20973TIP3   OH262795   2.689   7.450   7.717
20973TIP3    H162796   2.665   7.527   7.770
20973TIP3    H262797   2.757   7.482   7.658
20974TIP3   OH262798   2.104   8.754   7.287
20974TIP3    H162799   2.085   8.825   7.226
20974TIP3    H262800   2.096   8.794   7.374
20975TIP3   OH262801   2.189   7.489   7.555
20975TIP3    H162802   2.187   7.584   7.561
20975TIP3    H262803   2.282   7.467   7.555
20976TIP3   OH262804   0.172   3.327   0.400
20976TIP3    H162805   0.078   3.337   0.410
20976TIP3    H262806   0.183   3.274   0.321
20977TIP3   OH262807   3.100   8.140   7.786
20977TIP3    H162808   3.022   8.086   7.799
20977TIP3    H262809   3.165   8.102   7.845
20978TIP3   OH262810   1.842   8.359   7.271
20978TIP3    H162811   1.916   8.419   7.285
20978TIP3    H262812   1.873   8.298   7.205
20979TIP3   OH262813   1.743   7.651   7.397
20979TIP3    H162814   1.752   7.745   7.409
20979TIP3    H262815   1.715   7.641   7.306
20980TIP3   OH262816   8.703   2.748   0.223
20980TIP3    H162817   8.662   2.716   0.143
20980TIP3    H262818   8.686   2.679   0.287
20981TIP3   OH262819   1.649   8.613   7.653
20981TIP3    H162820   1.577   8.645   7.707
20981TIP3    H262821   1.635   8.654   7.567
20982TIP3   OH262822   2.299   8.677   6.903
20982TIP3    H162823   2.251   8.609   6.950
20982TIP3    H262824   2.374   8.632   6.864
20983TIP3   OH262825   2.735   8.707   6.815
20983TIP3    H162826   2.771   8.647   6.881
20983TIP3    H262827   2.796   8.701   6.742
20984TIP3   OH262828   1.952   8.170   7.110
20984TIP3    H162829   2.004   8.133   7.181
20984TIP3    H262830   2.015   8.191   7.041
20985TIP3   OH262831   2.531   8.374   6.950
20985TIP3    H162832   2.511   8.387   7.042
20985TIP3    H262833   2.502   8.285   6.931
20986TIP3   OH262834   9.621   4.065   0.331
20986TIP3    H162835   9.648   4.110   0.251
20986TIP3    H262836   9.525   4.065   0.327
20987TIP3   OH262837   2.159   8.086   7.279
20987TIP3    H162838   2.148   8.007   7.332
20987TIP3    H262839   2.202   8.056   7.199
20988TIP3   OH262840   9.008   3.515   0.513
20988TIP3    H162841   8.942   3.570   0.557
20988TIP3    H262842   9.061   3.578   0.464
20989TIP3   OH262843   9.483   3.924   0.604
20989TIP3    H162844   9.573   3.907   0.578
20989TIP3    H262845   9.478   3.894   0.695
20990TIP3   OH262846   3.073   8.219   6.851
20990TIP3    H162847   3.065   8.180   6.764
20990TIP3    H262848   3.049   8.311   6.839
20991TIP3   OH262849   9.115   3.317   0.668
20991TIP3    H162850   9.122   3.243   0.608
20991TIP3    H262851   9.082   3.389   0.615
20992TIP3   OH262852   9.133   3.128   0.454
20992TIP3    H162853   9.165   3.173   0.376
20992TIP3    H262854   9.043   3.105   0.433
20993TIP3   OH262855   9.137   3.712   0.357
20993TIP3    H162856   9.220   3.719   0.309
20993TIP3    H262857   9.075   3.763   0.304
20994TIP3   OH262858   9.706   3.618   0.737
20994TIP3    H162859   9.751   3.533   0.735
20994TIP3    H262860   9.776   3.682   0.734
20995TIP3   OH262861   9.750   3.883   0.477
20995TIP3    H162862   9.698   3.948   0.429
20995TIP3    H262863   9.841   3.901   0.450
20996TIP3   OH262864   8.984   3.395   0.907
20996TIP3    H162865   8.955   3.315   0.952
20996TIP3    H262866   9.024   3.363   0.826
20997TIP3   OH262867   9.244   2.906   0.570
20997TIP3    H162868   9.205   2.983   0.529
20997TIP3    H262869   9.188   2.834   0.543
20998TIP3   OH262870   9.358   3.378   0.780
20998TIP3    H162871   9.341   3.370   0.873
20998TIP3    H262872   9.275   3.356   0.738
20999TIP3   OH262873   9.602   3.326   0.656
20999TIP3    H162874   9.524   3.335   0.711
20999TIP3    H262875   9.672   3.305   0.718
21000TIP3   OH262876   0.042   3.292   0.798
21000TIP3    H162877   0.054   3.197   0.805
21000TIP3    H262878   0.038   3.322   0.889
21001TIP3   OH262879   8.890   3.179   1.057
21001TIP3    H162880   8.907   3.090   1.026
21001TIP3    H262881   8.855   3.166   1.146
21002TIP3   OH262882   9.312   2.899   0.831
21002TIP3    H162883   9.378   2.830   0.827
21002TIP3    H262884   9.280   2.907   0.741
21003TIP3   OH262885   9.389   3.101   1.002
21003TIP3    H162886   9.364   3.037   0.935
21003TIP3    H262887   9.320   3.167   0.998
21004TIP3   OH262888   2.102   8.963   7.109
21004TIP3    H162889   2.195   8.948   7.092
21004TIP3    H262890   2.069   9.004   7.030
21005TIP3   OH262891   1.568   8.362   7.275
21005TIP3    H162892   1.663   8.374   7.275
21005TIP3    H262893   1.555   8.274   7.239
21006TIP3   OH262894   3.340   9.191   7.727
21006TIP3    H162895   3.349   9.283   7.753
21006TIP3    H262896   3.354   9.191   7.633
21007TIP3   OH262897   3.398   9.181   8.003
21007TIP3    H162898   3.356   9.158   7.921
21007TIP3    H262899   3.470   9.239   7.978
21008TIP3   OH262900   0.092   4.273   0.567
21008TIP3    H162901   0.004   4.262   0.532
21008TIP3    H262902   0.124   4.354   0.528
21009TIP3   OH262903   3.245   8.430   7.186
21009TIP3    H162904   3.304   8.497   7.152
21009TIP3    H262905   3.292   8.390   7.259
21010TIP3   OH262906   3.379   8.284   7.383
21010TIP3    H162907   3.311   8.247   7.440
21010TIP3    H262908   3.443   8.321   7.443
21011TIP3   OH262909   3.424   8.685   7.822
21011TIP3    H162910   3.471   8.618   7.772
21011TIP3    H262911   3.426   8.763   7.765
21012TIP3   OH262912   3.275   8.201   7.036
21012TIP3    H162913   3.205   8.201   6.971
21012TIP3    H262914   3.260   8.280   7.087
21013TIP3   OH262915   3.130   7.840   6.977
21013TIP3    H162916   3.078   7.876   6.904
21013TIP3    H262917   3.127   7.746   6.963
21014TIP3   OH262918   3.173   8.148   7.519
21014TIP3    H162919   3.175   8.054   7.501
21014TIP3    H262920   3.151   8.154   7.612
21015TIP3   OH262921   8.357   3.620   0.223
21015TIP3    H162922   8.348   3.657   0.135
21015TIP3    H262923   8.451   3.621   0.239
21016TIP3   OH262924   0.204   3.954   0.398
21016TIP3    H162925   0.264   3.885   0.372
21016TIP3    H262926   0.213   4.021   0.330
21017TIP3   OH262927   0.360   3.729   0.373
21017TIP3    H162928   0.285   3.690   0.418
21017TIP3    H262929   0.434   3.673   0.396
21018TIP3   OH262930   3.098   7.567   6.943
21018TIP3    H162931   3.156   7.545   7.017
21018TIP3    H262932   3.011   7.538   6.972
21019TIP3   OH262933   3.172   7.870   7.417
21019TIP3    H162934   3.219   7.787   7.427
21019TIP3    H262935   3.208   7.908   7.336
21020TIP3   OH262936   3.316   8.026   7.935
21020TIP3    H162937   3.396   8.045   7.886
21020TIP3    H262938   3.329   8.071   8.019
21021TIP3   OH262939   0.121   3.562   0.157
21021TIP3    H162940   0.047   3.588   0.212
21021TIP3    H262941   0.151   3.642   0.115
21022TIP3   OH262942   8.671   3.213   0.893
21022TIP3    H162943   8.733   3.215   0.966
21022TIP3    H262944   8.599   3.159   0.925
21023TIP3   OH262945   0.591   3.158   0.695
21023TIP3    H162946   0.655   3.101   0.652
21023TIP3    H262947   0.552   3.208   0.624
21024TIP3   OH262948   3.287   7.618   7.459
21024TIP3    H162949   3.331   7.601   7.543
21024TIP3    H262950   3.220   7.549   7.453
21025TIP3   OH262951   8.597   2.985   0.311
21025TIP3    H162952   8.631   2.904   0.273
21025TIP3    H262953   8.644   3.055   0.266
21026TIP3   OH262954   8.358   3.340   0.209
21026TIP3    H162955   8.433   3.342   0.150
21026TIP3    H262956   8.351   3.429   0.243
21027TIP3   OH262957   0.439   3.277   0.504
21027TIP3    H162958   0.364   3.320   0.547
21027TIP3    H262959   0.400   3.211   0.447
21028TIP3   OH262960   3.325   7.526   7.102
21028TIP3    H162961   3.377   7.468   7.045
21028TIP3    H262962   3.375   7.607   7.104
21029TIP3   OH262963   1.755   7.295   7.787
21029TIP3    H162964   1.671   7.290   7.833
21029TIP3    H262965   1.745   7.369   7.727
21030TIP3   OH262966   2.916   9.131   7.373
21030TIP3    H162967   2.950   9.088   7.295
21030TIP3    H262968   2.965   9.213   7.378
21031TIP3   OH262969   8.577   2.796   0.526
21031TIP3    H162970   8.603   2.855   0.597
21031TIP3    H262971   8.565   2.853   0.450
21032TIP3   OH262972   0.345   3.034   0.388
21032TIP3    H162973   0.263   3.038   0.339
21032TIP3    H262974   0.372   2.942   0.382
21033TIP3   OH262975   6.243  -0.033   7.831
21033TIP3    H162976   6.307   0.011   7.887
21033TIP3    H262977   6.230   0.027   7.758
21034TIP3   OH262978   1.996   8.794   7.907
21034TIP3    H162979   2.017   8.720   7.965
21034TIP3    H262980   1.970   8.864   7.967
21035TIP3   OH262981   2.276   8.886   7.910
21035TIP3    H162982   2.311   8.799   7.926
21035TIP3    H262983   2.186   8.871   7.880
21036TIP3   OH262984   9.353   2.949   0.035
21036TIP3    H162985   9.312   2.876   0.081
21036TIP3    H262986   9.422   2.909  -0.018
21037TIP3   OH262987   3.320   7.487   7.917
21037TIP3    H162988   3.359   7.537   7.845
21037TIP3    H262989   3.230   7.518   7.920
21038TIP3   OH262990   3.441   7.561   7.682
21038TIP3    H162991   3.510   7.500   7.655
21038TIP3    H262992   3.480   7.648   7.670
21039TIP3   OH262993   2.072   7.257   7.985
21039TIP3    H162994   1.986   7.215   7.986
21039TIP3    H262995   2.134   7.184   7.991
21040TIP3   OH262996   1.898   7.117   7.637
21040TIP3    H162997   1.930   7.176   7.568
21040TIP3    H262998   1.852   7.175   7.698
21041TIP3   OH262999   2.550   7.307   7.918
21041TIP3    H163000   2.593   7.356   7.848
21041TIP3    H263001   2.594   7.335   7.998
21042TIP3   OH263002   3.030   7.453   7.902
21042TIP3    H163003   3.045   7.420   7.814
21042TIP3    H263004   3.039   7.376   7.958
21043TIP3   OH263005   3.095   7.413   7.468
21043TIP3    H163006   3.015   7.462   7.489
21043TIP3    H263007   3.080   7.326   7.506
21044TIP3   OH263008   1.566   8.739   7.425
21044TIP3    H163009   1.490   8.745   7.483
21044TIP3    H263010   1.571   8.824   7.382
21045TIP3   OH263011   1.998   7.299   7.445
21045TIP3    H163012   2.050   7.263   7.373
21045TIP3    H263013   2.055   7.362   7.487
21046TIP3   OH263014   2.465   7.501   7.548
21046TIP3    H163015   2.531   7.452   7.598
21046TIP3    H263016   2.481   7.593   7.571
21047TIP3   OH263017   2.362   8.901   7.048
21047TIP3    H163018   2.446   8.927   7.009
21047TIP3    H263019   2.333   8.828   6.993
21048TIP3   OH263020   3.044   9.037   7.153
21048TIP3    H163021   3.022   8.950   7.121
21048TIP3    H263022   3.011   9.097   7.086
21049TIP3   OH263023   8.883   2.923   0.904
21049TIP3    H163024   8.822   2.910   0.977
21049TIP3    H263025   8.969   2.902   0.940
21050TIP3   OH263026   9.124   2.903   1.028
21050TIP3    H163027   9.188   2.911   0.958
21050TIP3    H263028   9.152   2.826   1.078
21051TIP3   OH263029   1.663   8.735   7.104
21051TIP3    H163030   1.661   8.736   7.200
21051TIP3    H263031   1.746   8.692   7.083
21052TIP3   OH263032   0.099   3.022   0.817
21052TIP3    H163033   0.116   2.996   0.907
21052TIP3    H263034   0.185   3.018   0.774
21053TIP3   OH263035   4.559   8.568   7.066
21053TIP3    H163036   4.529   8.655   7.041
21053TIP3    H263037   4.488   8.509   7.039
21054TIP3   OH263038   4.543   8.560   7.475
21054TIP3    H163039   4.591   8.545   7.557
21054TIP3    H263040   4.498   8.477   7.458
21055TIP3   OH263041   3.848   8.421   7.833
21055TIP3    H163042   3.888   8.368   7.902
21055TIP3    H263043   3.921   8.446   7.777
21056TIP3   OH263044   4.829   8.863   7.164
21056TIP3    H163045   4.810   8.798   7.232
21056TIP3    H263046   4.847   8.943   7.212
21057TIP3   OH263047   3.848   8.843   7.512
21057TIP3    H163048   3.829   8.750   7.522
21057TIP3    H263049   3.944   8.846   7.505
21058TIP3   OH263050   3.522   8.053   7.304
21058TIP3    H163051   3.485   8.138   7.327
21058TIP3    H263052   3.450   8.007   7.261
21059TIP3   OH263053   3.605   8.370   7.528
21059TIP3    H163054   3.656   8.293   7.552
21059TIP3    H263055   3.671   8.436   7.505
21060TIP3   OH263056   7.745   0.051   7.179
21060TIP3    H163057   7.775  -0.013   7.113
21060TIP3    H263058   7.748   0.002   7.262
21061TIP3   OH263059   4.363   8.781   7.488
21061TIP3    H163060   4.407   8.702   7.459
21061TIP3    H263061   4.433   8.838   7.519
21062TIP3   OH263062   5.394   8.103   7.500
21062TIP3    H163063   5.408   8.188   7.541
21062TIP3    H263064   5.424   8.116   7.409
21063TIP3   OH263065   4.760   8.262   7.526
21063TIP3    H163066   4.795   8.177   7.553
21063TIP3    H263067   4.727   8.248   7.438
21064TIP3   OH263068   4.120   7.925   7.482
21064TIP3    H163069   4.098   8.000   7.427
21064TIP3    H263070   4.062   7.855   7.450
21065TIP3   OH263071   4.820   8.032   7.124
21065TIP3    H163072   4.884   8.024   7.195
21065TIP3    H263073   4.869   8.069   7.051
21066TIP3   OH263074   3.744   8.146   7.619
21066TIP3    H163075   3.828   8.128   7.661
21066TIP3    H263076   3.746   8.096   7.538
21067TIP3   OH263077   4.161   8.345   7.435
21067TIP3    H163078   4.255   8.330   7.438
21067TIP3    H263079   4.125   8.263   7.401
21068TIP3   OH263080   5.441   8.327   7.655
21068TIP3    H163081   5.352   8.362   7.651
21068TIP3    H263082   5.482   8.373   7.729
21069TIP3   OH263083   4.099   7.937   7.939
21069TIP3    H163084   4.051   7.972   7.864
21069TIP3    H263085   4.042   7.954   8.014
21070TIP3   OH263086   4.458   8.786   6.930
21070TIP3    H163087   4.418   8.755   6.848
21070TIP3    H263088   4.405   8.861   6.956
21071TIP3   OH263089   4.190   8.709   7.693
21071TIP3    H163090   4.136   8.781   7.725
21071TIP3    H263091   4.240   8.747   7.621
21072TIP3   OH263092   4.976   8.045   7.347
21072TIP3    H163093   4.934   8.025   7.430
21072TIP3    H263094   5.030   8.122   7.365
21073TIP3   OH263095   3.994   8.040   7.704
21073TIP3    H163096   4.049   8.116   7.726
21073TIP3    H263097   4.040   7.997   7.632
21074TIP3   OH263098   4.033   8.908   7.802
21074TIP3    H163099   4.024   8.999   7.775
21074TIP3    H263100   3.953   8.890   7.852
21075TIP3   OH263101   3.417   8.612   7.062
21075TIP3    H163102   3.384   8.630   6.974
21075TIP3    H263103   3.438   8.698   7.099
21076TIP3   OH263104   4.857   9.105   7.307
21076TIP3    H163105   4.768   9.099   7.341
21076TIP3    H263106   4.859   9.188   7.258
21077TIP3   OH263107   5.187   8.003   7.664
21077TIP3    H163108   5.103   8.028   7.625
21077TIP3    H263109   5.253   8.030   7.600
21078TIP3   OH263110   4.444   7.626   7.680
21078TIP3    H163111   4.431   7.534   7.703
21078TIP3    H263112   4.367   7.671   7.716
21079TIP3   OH263113   4.571   9.151   6.958
21079TIP3    H163114   4.625   9.073   6.949
21079TIP3    H263115   4.627   9.223   6.928
21080TIP3   OH263116   4.705   8.919   6.925
21080TIP3    H163117   4.631   8.857   6.923
21080TIP3    H263118   4.757   8.891   7.001
21081TIP3   OH263119   5.119   8.997   7.633
21081TIP3    H163120   5.079   8.928   7.580
21081TIP3    H263121   5.097   9.078   7.588
21082TIP3   OH263122   4.385   8.407   6.920
21082TIP3    H163123   4.302   8.452   6.904
21082TIP3    H263124   4.427   8.404   6.834
21083TIP3   OH263125   4.336   8.214   6.595
21083TIP3    H163126   4.395   8.262   6.654
21083TIP3    H263127   4.390   8.144   6.560
21084TIP3   OH263128   5.256   8.665   7.508
21084TIP3    H163129   5.171   8.710   7.505
21084TIP3    H263130   5.291   8.675   7.420
21085TIP3   OH263131   4.738   8.497   6.871
21085TIP3    H163132   4.684   8.525   6.945
21085TIP3    H263133   4.823   8.476   6.911
21086TIP3   OH263134   4.947   8.493   7.788
21086TIP3    H163135   4.948   8.584   7.818
21086TIP3    H263136   4.862   8.484   7.745
21087TIP3   OH263137   3.959   8.474   7.281
21087TIP3    H163138   3.922   8.415   7.216
21087TIP3    H263139   4.033   8.426   7.319
21088TIP3   OH263140   4.111   8.894   7.422
21088TIP3    H163141   4.086   8.883   7.331
21088TIP3    H263142   4.200   8.858   7.427
21089TIP3   OH263143   4.059   8.472   7.657
21089TIP3    H163144   4.097   8.435   7.577
21089TIP3    H263145   4.106   8.555   7.670
21090TIP3   OH263146   4.612   9.101   7.423
21090TIP3    H163147   4.595   9.183   7.471
21090TIP3    H263148   4.595   9.032   7.487
21091TIP3   OH263149   4.232   8.988   7.974
21091TIP3    H163150   4.176   9.049   8.022
21091TIP3    H263151   4.173   8.944   7.914
21092TIP3   OH263152   4.566   8.354   6.707
21092TIP3    H163153   4.626   8.414   6.751
21092TIP3    H263154   4.594   8.354   6.616
21093TIP3   OH263155   0.719   3.923   0.126
21093TIP3    H163156   0.723   4.018   0.137
21093TIP3    H263157   0.626   3.903   0.119
21094TIP3   OH263158   4.324   9.024   6.968
21094TIP3    H163159   4.405   9.076   6.974
21094TIP3    H263160   4.265   9.078   6.916
21095TIP3   OH263161   0.772   4.533   0.073
21095TIP3    H163162   0.744   4.551  -0.017
21095TIP3    H263163   0.691   4.518   0.121
21096TIP3   OH263164   5.085   7.587   6.776
21096TIP3    H163165   5.009   7.612   6.828
21096TIP3    H263166   5.098   7.659   6.715
21097TIP3   OH263167   3.833   8.316   7.083
21097TIP3    H163168   3.757   8.364   7.051
21097TIP3    H263169   3.804   8.225   7.089
21098TIP3   OH263170   4.910   8.968   6.324
21098TIP3    H163171   4.909   9.062   6.308
21098TIP3    H263172   4.997   8.940   6.295
21099TIP3   OH263173   3.629   8.720   8.008
21099TIP3    H163174   3.558   8.704   7.945
21099TIP3    H263175   3.663   8.633   8.028
21100TIP3   OH263176   3.458   8.932   7.690
21100TIP3    H163177   3.543   8.966   7.715
21100TIP3    H263178   3.396   8.999   7.718
21101TIP3   OH263179   8.576   0.168   7.695
21101TIP3    H163180   8.592   0.074   7.699
21101TIP3    H263181   8.496   0.181   7.745
21102TIP3   OH263182   4.420   9.111   7.818
21102TIP3    H163183   4.416   9.206   7.829
21102TIP3    H263184   4.349   9.078   7.873
21103TIP3   OH263185   7.477  -0.019   6.797
21103TIP3    H163186   7.430  -0.029   6.714
21103TIP3    H263187   7.446   0.065   6.832
21104TIP3   OH263188   3.635   9.091   7.178
21104TIP3    H163189   3.680   9.085   7.262
21104TIP3    H263190   3.587   9.009   7.170
21105TIP3   OH263191   4.413   9.175   6.429
21105TIP3    H163192   4.467   9.104   6.393
21105TIP3    H263193   4.447   9.188   6.518
21106TIP3   OH263194   4.465   9.211   6.696
21106TIP3    H163195   4.377   9.212   6.735
21106TIP3    H263196   4.521   9.174   6.765
21107TIP3   OH263197   5.194   8.473   7.936
21107TIP3    H163198   5.108   8.489   7.896
21107TIP3    H263199   5.210   8.380   7.921
21108TIP3   OH263200   0.550   4.298  -0.027
21108TIP3    H163201   0.602   4.284   0.052
21108TIP3    H263202   0.479   4.233  -0.022
21109TIP3   OH263203   4.205   7.719   7.799
21109TIP3    H163204   4.122   7.685   7.765
21109TIP3    H263205   4.181   7.800   7.844
21110TIP3   OH263206   1.483   3.206  -0.006
21110TIP3    H163207   1.552   3.187   0.059
21110TIP3    H263208   1.401   3.196   0.042
21111TIP3   OH263209   4.967   8.247   7.918
21111TIP3    H163210   4.919   8.246   8.000
21111TIP3    H263211   4.944   8.331   7.878
21112TIP3   OH263212   4.650   8.319   6.445
21112TIP3    H163213   4.600   8.328   6.364
21112TIP3    H263214   4.730   8.370   6.430
21113TIP3   OH263215   4.363   7.748   6.773
21113TIP3    H163216   4.320   7.758   6.858
21113TIP3    H263217   4.322   7.671   6.734
21114TIP3   OH263218   4.144   8.252   7.802
21114TIP3    H163219   4.099   8.258   7.887
21114TIP3    H263220   4.121   8.333   7.757
21115TIP3   OH263221   4.021   8.131   7.331
21115TIP3    H163222   3.931   8.109   7.354
21115TIP3    H263223   4.032   8.099   7.241
21116TIP3   OH263224   4.503   8.201   7.055
21116TIP3    H163225   4.456   8.275   7.016
21116TIP3    H263226   4.560   8.170   6.985
21117TIP3   OH263227   1.420   3.839   0.104
21117TIP3    H163228   1.393   3.778   0.173
21117TIP3    H263229   1.513   3.854   0.121
21118TIP3   OH263230   4.672   8.216   7.273
21118TIP3    H163231   4.603   8.238   7.211
21118TIP3    H263232   4.720   8.144   7.232
21119TIP3   OH263233   0.717   3.646   0.023
21119TIP3    H163234   0.724   3.713   0.092
21119TIP3    H263235   0.696   3.566   0.071
21120TIP3   OH263236   4.022   7.741   6.737
21120TIP3    H163237   4.011   7.751   6.831
21120TIP3    H263238   3.946   7.784   6.699
21121TIP3   OH263239   3.574   7.784   7.614
21121TIP3    H163240   3.644   7.823   7.667
21121TIP3    H263241   3.608   7.786   7.525
21122TIP3   OH263242   3.467   7.764   7.108
21122TIP3    H163243   3.513   7.801   7.032
21122TIP3    H263244   3.403   7.831   7.133
21123TIP3   OH263245   4.688   8.460   7.693
21123TIP3    H163246   4.713   8.393   7.630
21123TIP3    H263247   4.645   8.413   7.764
21124TIP3   OH263248   4.387   7.914   7.378
21124TIP3    H163249   4.307   7.916   7.430
21124TIP3    H263250   4.458   7.911   7.443
21125TIP3   OH263251   3.781   8.006   7.387
21125TIP3    H163252   3.694   8.012   7.348
21125TIP3    H263253   3.810   7.917   7.367
21126TIP3   OH263254   4.041   8.007   7.089
21126TIP3    H163255   4.135   8.017   7.076
21126TIP3    H263256   4.003   8.025   7.003
21127TIP3   OH263257   4.839   8.005   7.588
21127TIP3    H163258   4.819   8.022   7.680
21127TIP3    H263259   4.768   7.946   7.560
21128TIP3   OH263260   3.924   8.028   6.848
21128TIP3    H163261   3.860   7.976   6.799
21128TIP3    H263262   3.967   8.081   6.781
21129TIP3   OH263263   8.265   0.473   7.770
21129TIP3    H163264   8.256   0.481   7.675
21129TIP3    H263265   8.347   0.519   7.791
21130TIP3   OH263266   0.693   4.192   0.200
21130TIP3    H163267   0.769   4.218   0.252
21130TIP3    H263268   0.620   4.196   0.262
21131TIP3   OH263269   4.434   8.290   7.478
21131TIP3    H163270   4.503   8.243   7.431
21131TIP3    H263271   4.431   8.248   7.564
21132TIP3   OH263272   3.922   7.757   7.366
21132TIP3    H163273   3.895   7.681   7.417
21132TIP3    H263274   3.935   7.723   7.277
21133TIP3   OH263275   4.404   8.186   7.739
21133TIP3    H163276   4.318   8.220   7.763
21133TIP3    H263277   4.466   8.235   7.794
21134TIP3   OH263278   4.153   8.547   6.873
21134TIP3    H163279   4.079   8.491   6.848
21134TIP3    H263280   4.124   8.590   6.953
21135TIP3   OH263281   5.024   8.802   7.464
21135TIP3    H163282   5.057   8.851   7.388
21135TIP3    H263283   4.943   8.762   7.433
21136TIP3   OH263284   4.611   7.860   6.777
21136TIP3    H163285   4.519   7.835   6.771
21136TIP3    H263286   4.611   7.955   6.784
21137TIP3   OH263287   4.541   8.865   7.876
21137TIP3    H163288   4.592   8.873   7.956
21137TIP3    H263289   4.498   8.949   7.866
21138TIP3   OH263290   4.665   8.128   6.839
21138TIP3    H163291   4.760   8.136   6.847
21138TIP3    H263292   4.639   8.203   6.786
21139TIP3   OH263293   3.827   8.554   7.510
21139TIP3    H163294   3.864   8.537   7.423
21139TIP3    H263295   3.896   8.526   7.571
21140TIP3   OH263296   4.304   8.702   6.710
21140TIP3    H163297   4.255   8.784   6.705
21140TIP3    H263298   4.250   8.645   6.764
21141TIP3   OH263299   0.447   3.861   0.142
21141TIP3    H163300   0.444   3.829   0.232
21141TIP3    H263301   0.368   3.824   0.102
21142TIP3   OH263302   1.189   3.988   0.154
21142TIP3    H163303   1.120   3.931   0.120
21142TIP3    H263304   1.270   3.950   0.120
21143TIP3   OH263305   4.681   9.163   7.740
21143TIP3    H163306   4.588   9.140   7.738
21143TIP3    H263307   4.692   9.210   7.823
21144TIP3   OH263308   5.075   8.215   6.651
21144TIP3    H163309   5.019   8.169   6.589
21144TIP3    H263310   5.081   8.304   6.618
21145TIP3   OH263311   5.359   9.134   7.691
21145TIP3    H163312   5.273   9.101   7.719
21145TIP3    H263313   5.378   9.086   7.611
21146TIP3   OH263314   4.807   9.020   6.584
21146TIP3    H163315   4.784   8.943   6.636
21146TIP3    H263316   4.836   8.984   6.501
21147TIP3   OH263317   4.799   8.664   7.364
21147TIP3    H163318   4.709   8.646   7.388
21147TIP3    H263319   4.831   8.583   7.325
21148TIP3   OH263320   3.959   8.902   7.187
21148TIP3    H163321   3.952   8.977   7.129
21148TIP3    H263322   3.872   8.895   7.227
21149TIP3   OH263323   3.508   8.185   6.889
21149TIP3    H163324   3.554   8.267   6.909
21149TIP3    H263325   3.429   8.188   6.943
21150TIP3   OH263326   4.045   8.660   7.092
21150TIP3    H163327   4.025   8.749   7.122
21150TIP3    H263328   4.015   8.603   7.162
21151TIP3   OH263329   4.238   9.221   7.623
21151TIP3    H163330   4.271   9.302   7.584
21151TIP3    H263331   4.315   9.181   7.663
21152TIP3   OH263332   3.869   9.119   7.038
21152TIP3    H163333   3.781   9.122   7.075
21152TIP3    H263334   3.902   9.208   7.047
21153TIP3   OH263335   4.593   8.886   7.605
21153TIP3    H163336   4.571   8.870   7.696
21153TIP3    H263337   4.687   8.868   7.600
21154TIP3   OH263338   4.592   8.768   6.469
21154TIP3    H163339   4.640   8.741   6.548
21154TIP3    H263340   4.508   8.723   6.476
21155TIP3   OH263341   8.107   0.131   7.642
21155TIP3    H163342   8.036   0.068   7.659
21155TIP3    H263343   8.076   0.182   7.568
21156TIP3   OH263344   8.183  -0.001   6.281
21156TIP3    H163345   8.243   0.072   6.272
21156TIP3    H263346   8.100   0.038   6.310
21157TIP3   OH263347   0.657   3.395   0.141
21157TIP3    H163348   0.562   3.407   0.144
21157TIP3    H263349   0.677   3.344   0.219
21158TIP3   OH263350   4.763   8.687   6.667
21158TIP3    H163351   4.745   8.632   6.744
21158TIP3    H263352   4.858   8.692   6.663
21159TIP3   OH263353   3.668   9.097   7.789
21159TIP3    H163354   3.725   9.048   7.848
21159TIP3    H263355   3.683   9.189   7.812
21160TIP3   OH263356   3.913   8.735   6.507
21160TIP3    H163357   3.887   8.645   6.484
21160TIP3    H263358   3.910   8.737   6.602
21161TIP3   OH263359   3.879   8.753   6.783
21161TIP3    H163360   3.945   8.723   6.846
21161TIP3    H263361   3.883   8.849   6.787
21162TIP3   OH263362   3.612   8.435   6.967
21162TIP3    H163363   3.548   8.486   7.017
21162TIP3    H263364   3.632   8.490   6.891
21163TIP3   OH263365   4.775   8.058   7.849
21163TIP3    H163366   4.851   8.104   7.885
21163TIP3    H263367   4.766   7.981   7.905
21164TIP3   OH263368   4.669   7.815   7.044
21164TIP3    H163369   4.644   7.832   6.953
21164TIP3    H263370   4.711   7.895   7.073
21165TIP3   OH263371   4.153   8.925   6.700
21165TIP3    H163372   4.071   8.952   6.742
21165TIP3    H263373   4.177   8.999   6.644
21166TIP3   OH263374   4.321   8.008   7.125
21166TIP3    H163375   4.381   8.078   7.098
21166TIP3    H263376   4.343   7.990   7.216
21167TIP3   OH263377   4.607   8.291   7.895
21167TIP3    H163378   4.634   8.341   7.971
21167TIP3    H263379   4.660   8.212   7.897
21168TIP3   OH263380   4.482   7.706   7.216
21168TIP3    H163381   4.454   7.783   7.265
21168TIP3    H263382   4.549   7.739   7.155
21169TIP3   OH263383   3.911   9.023   6.788
21169TIP3    H163384   3.894   9.098   6.730
21169TIP3    H263385   3.896   9.058   6.876
21170TIP3   OH263386   3.989   7.736   7.020
21170TIP3    H163387   3.977   7.827   7.047
21170TIP3    H263388   4.083   7.721   7.027
21171TIP3   OH263389   5.229   8.200   7.877
21171TIP3    H163390   5.136   8.204   7.902
21171TIP3    H263391   5.231   8.140   7.802
21172TIP3   OH263392   4.893   8.407   7.273
21172TIP3    H163393   4.815   8.352   7.282
21172TIP3    H263394   4.959   8.365   7.327
21173TIP3   OH263395   3.642   8.613   6.751
21173TIP3    H163396   3.708   8.678   6.773
21173TIP3    H263397   3.681   8.560   6.681
21174TIP3   OH263398   3.550   7.910   6.893
21174TIP3    H163399   3.548   8.005   6.898
21174TIP3    H263400   3.550   7.891   6.800
21175TIP3   OH263401   8.145   0.125   7.216
21175TIP3    H163402   8.099   0.183   7.155
21175TIP3    H263403   8.237   0.142   7.201
21176TIP3   OH263404   3.945   7.631   7.753
21176TIP3    H163405   3.915   7.601   7.668
21176TIP3    H263406   3.934   7.555   7.811
21177TIP3   OH263407   3.458   8.876   7.149
21177TIP3    H163408   3.413   8.912   7.226
21177TIP3    H263409   3.415   8.920   7.075
21178TIP3   OH263410   0.386   4.729   0.188
21178TIP3    H163411   0.473   4.696   0.211
21178TIP3    H263412   0.326   4.658   0.214
21179TIP3   OH263413   0.830   4.756   0.228
21179TIP3    H163414   0.917   4.757   0.268
21179TIP3    H263415   0.827   4.674   0.178
21180TIP3   OH263416   4.087   8.919   6.388
21180TIP3    H163417   4.036   8.852   6.433
21180TIP3    H263418   4.161   8.871   6.350
21181TIP3   OH263419   1.454   4.655  -0.020
21181TIP3    H163420   1.434   4.585   0.042
21181TIP3    H263421   1.450   4.735   0.033
21182TIP3   OH263422   4.538   8.972   6.298
21182TIP3    H163423   4.572   8.908   6.360
21182TIP3    H263424   4.597   8.966   6.223
21183TIP3   OH263425   0.483   4.169   0.382
21183TIP3    H163426   0.506   4.076   0.394
21183TIP3    H263427   0.395   4.167   0.345
21184TIP3   OH263428   3.814   8.468   6.592
21184TIP3    H163429   3.865   8.449   6.672
21184TIP3    H263430   3.798   8.382   6.554
21185TIP3   OH263431   1.105   4.252   0.175
21185TIP3    H163432   1.066   4.274   0.091
21185TIP3    H263433   1.144   4.165   0.162
21186TIP3   OH263434   4.342   8.649   6.445
21186TIP3    H163435   4.320   8.658   6.537
21186TIP3    H263436   4.321   8.558   6.424
21187TIP3   OH263437   4.852   8.950   7.733
21187TIP3    H163438   4.936   8.996   7.733
21187TIP3    H263439   4.786   9.019   7.735
21188TIP3   OH263440   0.621   3.926   0.411
21188TIP3    H163441   0.694   3.916   0.350
21188TIP3    H263442   0.661   3.953   0.493
21189TIP3   OH263443   3.945   8.379   6.825
21189TIP3    H163444   3.913   8.345   6.908
21189TIP3    H263445   3.975   8.302   6.777
21190TIP3   OH263446   0.980   3.827   0.058
21190TIP3    H163447   0.893   3.866   0.070
21190TIP3    H263448   1.009   3.860  -0.027
21191TIP3   OH263449   4.039   8.183   6.656
21191TIP3    H163450   3.973   8.178   6.587
21191TIP3    H263451   4.122   8.188   6.609
21192TIP3   OH263452   1.469   4.202   0.231
21192TIP3    H163453   1.560   4.182   0.208
21192TIP3    H263454   1.440   4.125   0.280
21193TIP3   OH263455   4.862   8.468   6.343
21193TIP3    H163456   4.848   8.430   6.256
21193TIP3    H263457   4.843   8.561   6.331
21194TIP3   OH263458   1.078   3.597   0.169
21194TIP3    H163459   1.084   3.527   0.104
21194TIP3    H263460   1.044   3.672   0.121
21195TIP3   OH263461   4.360   8.017   7.970
21195TIP3    H163462   4.386   8.055   7.885
21195TIP3    H263463   4.269   7.992   7.958
21196TIP3   OH263464   4.365   8.559   7.842
21196TIP3    H163465   4.450   8.602   7.833
21196TIP3    H263466   4.306   8.612   7.789
21197TIP3   OH263467   1.684   3.878   0.202
21197TIP3    H163468   1.763   3.829   0.180
21197TIP3    H263469   1.709   3.969   0.192
21198TIP3   OH263470   4.972   8.748   7.869
21198TIP3    H163471   4.916   8.812   7.824
21198TIP3    H263472   5.061   8.774   7.847
21199TIP3   OH263473   0.965   3.664   0.418
21199TIP3    H163474   0.895   3.601   0.433
21199TIP3    H263475   0.996   3.645   0.329
21200TIP3   OH263476   1.215   3.168   0.071
21200TIP3    H163477   1.177   3.249   0.038
21200TIP3    H263478   1.146   3.102   0.058
21201TIP3   OH263479   1.329   3.643   0.274
21201TIP3    H163480   1.316   3.626   0.368
21201TIP3    H263481   1.244   3.624   0.235
21202TIP3   OH263482   1.561   3.575   0.141
21202TIP3    H163483   1.482   3.587   0.193
21202TIP3    H263484   1.630   3.555   0.205
21203TIP3   OH263485   1.766   3.521   0.317
21203TIP3    H163486   1.799   3.432   0.320
21203TIP3    H263487   1.733   3.538   0.405
21204TIP3   OH263488   0.794   3.451   0.471
21204TIP3    H163489   0.800   3.363   0.434
21204TIP3    H263490   0.827   3.441   0.561
21205TIP3   OH263491   1.271   3.124   0.335
21205TIP3    H163492   1.341   3.060   0.326
21205TIP3    H263493   1.243   3.143   0.246
21206TIP3   OH263494   1.365   3.342   0.472
21206TIP3    H163495   1.329   3.270   0.421
21206TIP3    H263496   1.295   3.406   0.477
21207TIP3   OH263497   3.918   9.237   6.611
21207TIP3    H163498   4.001   9.205   6.575
21207TIP3    H263499   3.867   9.264   6.535
21208TIP3   OH263500   3.366   8.618   6.778
21208TIP3    H163501   3.461   8.629   6.770
21208TIP3    H263502   3.348   8.535   6.734
21209TIP3   OH263503   3.259   9.184   7.246
21209TIP3    H163504   3.191   9.135   7.200
21209TIP3    H263505   3.305   9.118   7.299
21210TIP3   OH263506   3.407   9.009   7.404
21210TIP3    H163507   3.402   8.943   7.473
21210TIP3    H263508   3.466   9.076   7.439
21211TIP3   OH263509   8.410   0.187   7.200
21211TIP3    H163510   8.426   0.222   7.288
21211TIP3    H263511   8.468   0.238   7.144
21212TIP3   OH263512   8.411   0.225   7.475
21212TIP3    H163513   8.371   0.138   7.474
21212TIP3    H263514   8.481   0.219   7.540
21213TIP3   OH263515   5.233   9.169   7.971
21213TIP3    H163516   5.143   9.174   7.938
21213TIP3    H263517   5.258   9.260   7.987
21214TIP3   OH263518   5.041   8.680   6.669
21214TIP3    H163519   5.094   8.753   6.637
21214TIP3    H263520   5.090   8.645   6.744
21215TIP3   OH263521   5.177   8.539   6.869
21215TIP3    H163522   5.108   8.505   6.926
21215TIP3    H263523   5.241   8.577   6.928
21216TIP3   OH263524   5.209   8.935   7.299
21216TIP3    H163525   5.255   8.869   7.247
21216TIP3    H263526   5.213   9.014   7.246
21217TIP3   OH263527   5.023   9.216   7.501
21217TIP3    H163528   4.954   9.260   7.551
21217TIP3    H263529   4.976   9.174   7.428
21218TIP3   OH263530   5.074   8.455   6.517
21218TIP3    H163531   5.001   8.453   6.455
21218TIP3    H263532   5.058   8.533   6.570
21219TIP3   OH263533   4.927   8.099   6.453
21219TIP3    H163534   4.877   8.136   6.380
21219TIP3    H263535   4.922   8.004   6.440
21220TIP3   OH263536   4.969   8.405   7.005
21220TIP3    H163537   4.971   8.311   6.990
21220TIP3    H263538   4.947   8.415   7.097
21221TIP3   OH263539   3.584   8.455   7.786
21221TIP3    H163540   3.574   8.427   7.695
21221TIP3    H263541   3.678   8.452   7.802
21222TIP3   OH263542   5.232   8.814   7.813
21222TIP3    H163543   5.302   8.753   7.793
21222TIP3    H263544   5.222   8.867   7.734
21223TIP3   OH263545   5.416   8.607   7.833
21223TIP3    H163546   5.339   8.572   7.878
21223TIP3    H263547   5.488   8.551   7.860
21224TIP3   OH263548   4.895   7.826   6.426
21224TIP3    H163549   4.956   7.802   6.496
21224TIP3    H263550   4.810   7.795   6.456
21225TIP3   OH263551   4.961   8.128   6.897
21225TIP3    H163552   5.009   8.046   6.910
21225TIP3    H263553   4.998   8.165   6.817
21226TIP3   OH263554   5.110   8.279   7.408
21226TIP3    H163555   5.189   8.298   7.358
21226TIP3    H263556   5.125   8.322   7.493
21227TIP3   OH263557   5.178   8.430   7.630
21227TIP3    H163558   5.098   8.451   7.679
21227TIP3    H263559   5.206   8.513   7.592
21228TIP3   OH263560   0.534   3.522   0.418
21228TIP3    H163561   0.629   3.515   0.433
21228TIP3    H263562   0.498   3.442   0.457
21229TIP3   OH263563   2.337   3.378   0.128
21229TIP3    H163564   2.427   3.350   0.145
21229TIP3    H263565   2.342   3.427   0.046
21230TIP3   OH263566   5.083   7.880   6.949
21230TIP3    H163567   5.124   7.862   7.033
21230TIP3    H263568   5.018   7.810   6.939
21231TIP3   OH263569   3.786   7.858   7.779
21231TIP3    H163570   3.839   7.779   7.780
21231TIP3    H263571   3.848   7.928   7.756
21232TIP3   OH263572   3.558   8.120   7.834
21232TIP3    H163573   3.612   8.111   7.755
21232TIP3    H263574   3.573   8.210   7.863
21233TIP3   OH263575   5.497   8.161   7.926
21233TIP3    H163576   5.410   8.200   7.929
21233TIP3    H263577   5.482   8.072   7.894
21234TIP3   OH263578   5.122   7.780   6.586
21234TIP3    H163579   5.170   7.723   6.526
21234TIP3    H263580   5.173   7.861   6.588
21235TIP3   OH263581   3.550   7.628   7.330
21235TIP3    H163582   3.466   7.618   7.375
21235TIP3    H263583   3.530   7.684   7.255
21236TIP3   OH263584   7.971   0.120   6.848
21236TIP3    H163585   8.019   0.097   6.768
21236TIP3    H263586   8.030   0.179   6.895
21237TIP3   OH263587   0.509   3.050   0.154
21237TIP3    H163588   0.463   3.054   0.238
21237TIP3    H263589   0.457   3.106   0.096
21238TIP3   OH263590   0.547   4.497   0.233
21238TIP3    H163591   0.458   4.478   0.205
21238TIP3    H263592   0.546   4.487   0.328
21239TIP3   OH263593   4.024   9.184   7.790
21239TIP3    H163594   3.969   9.257   7.760
21239TIP3    H263595   4.105   9.193   7.740
21240TIP3   OH263596   7.687   0.140   7.829
21240TIP3    H163597   7.682   0.149   7.924
21240TIP3    H263598   7.749   0.207   7.802
21241TIP3   OH263599   7.870   0.337   7.769
21241TIP3    H163600   7.939   0.290   7.721
21241TIP3    H263601   7.918   0.392   7.831
21242TIP3   OH263602   5.402   7.913   7.856
21242TIP3    H163603   5.320   7.903   7.806
21242TIP3    H263604   5.437   7.824   7.862
21243TIP3   OH263605   6.925   0.139   7.810
21243TIP3    H163606   6.835   0.163   7.789
21243TIP3    H263607   6.951   0.199   7.880
21244TIP3   OH263608   7.172   0.166   7.683
21244TIP3    H163609   7.084   0.164   7.722
21244TIP3    H263610   7.157   0.196   7.594
21245TIP3   OH263611   7.578   0.200   7.469
21245TIP3    H163612   7.510   0.208   7.401
21245TIP3    H263613   7.586   0.289   7.504
21246TIP3   OH263614   7.833   0.115   7.515
21246TIP3    H163615   7.743   0.144   7.498
21246TIP3    H263616   7.888   0.180   7.471
21247TIP3   OH263617   8.037   0.275   7.420
21247TIP3    H163618   8.040   0.364   7.386
21247TIP3    H263619   8.071   0.221   7.349
21248TIP3   OH263620   3.575   9.190   7.536
21248TIP3    H163621   3.593   9.171   7.628
21248TIP3    H263622   3.653   9.160   7.489
21249TIP3   OH263623   3.788   9.085   7.407
21249TIP3    H163624   3.803   9.002   7.451
21249TIP3    H263625   3.873   9.129   7.409
21250TIP3   OH263626   4.054   9.170   7.425
21250TIP3    H163627   4.075   9.078   7.411
21250TIP3    H263628   4.109   9.196   7.498
21251TIP3   OH263629   4.613   7.834   7.528
21251TIP3    H163630   4.575   7.760   7.576
21251TIP3    H263631   4.679   7.795   7.471
21252TIP3   OH263632   5.109   7.710   7.399
21252TIP3    H163633   5.154   7.761   7.332
21252TIP3    H263634   5.021   7.749   7.405
21253TIP3   OH263635   5.231   7.810   7.176
21253TIP3    H163636   5.298   7.749   7.144
21253TIP3    H263637   5.270   7.896   7.165
21254TIP3   OH263638   3.856   7.529   7.512
21254TIP3    H163639   3.767   7.497   7.523
21254TIP3    H263640   3.910   7.450   7.502
21255TIP3   OH263641   3.692   7.439   7.173
21255TIP3    H163642   3.712   7.487   7.093
21255TIP3    H263643   3.649   7.504   7.229
21256TIP3   OH263644   4.347   7.559   7.416
21256TIP3    H163645   4.389   7.610   7.346
21256TIP3    H263646   4.383   7.597   7.497
21257TIP3   OH263647   4.823   7.733   7.380
21257TIP3    H163648   4.818   7.707   7.288
21257TIP3    H263649   4.822   7.650   7.428
21258TIP3   OH263650   4.891   7.676   6.949
21258TIP3    H163651   4.812   7.724   6.972
21258TIP3    H263652   4.874   7.587   6.979
21259TIP3   OH263653   3.346   9.000   6.931
21259TIP3    H163654   3.256   8.981   6.903
21259TIP3    H263655   3.362   9.089   6.900
21260TIP3   OH263656   3.784   7.564   6.929
21260TIP3    H163657   3.830   7.506   6.869
21260TIP3    H263658   3.852   7.623   6.962
21261TIP3   OH263659   4.265   7.757   7.032
21261TIP3    H163660   4.324   7.705   7.086
21261TIP3    H263661   4.281   7.847   7.059
21262TIP3   OH263662   4.157   9.146   6.521
21262TIP3    H163663   4.243   9.169   6.485
21262TIP3    H263664   4.128   9.073   6.467
21263TIP3   OH263665   8.102   0.049   6.616
21263TIP3    H163666   8.097  -0.046   6.611
21263TIP3    H263667   8.070   0.080   6.531
21264TIP3   OH263668   0.817   3.182   0.391
21264TIP3    H163669   0.782   3.117   0.452
21264TIP3    H263670   0.908   3.192   0.416
21265TIP3   OH263671   1.063   3.188   0.516
21265TIP3    H163672   1.137   3.160   0.463
21265TIP3    H263673   1.055   3.121   0.584
21266TIP3   OH263674   3.463   9.017   6.593
21266TIP3    H163675   3.459   9.024   6.688
21266TIP3    H263676   3.543   8.968   6.575
21267TIP3   OH263677   1.877   3.271   0.319
21267TIP3    H163678   1.908   3.245   0.406
21267TIP3    H263679   1.956   3.275   0.265
21268TIP3   OH263680   8.323   0.204   7.798
21268TIP3    H163681   8.251   0.164   7.748
21268TIP3    H263682   8.303   0.298   7.796
21269TIP3   OH263683   6.232   8.855   6.594
21269TIP3    H163684   6.264   8.919   6.530
21269TIP3    H263685   6.229   8.773   6.545
21270TIP3   OH263686   5.643   8.674   7.311
21270TIP3    H163687   5.681   8.619   7.379
21270TIP3    H263688   5.718   8.711   7.265
21271TIP3   OH263689   6.596   9.072   6.651
21271TIP3    H163690   6.602   9.018   6.730
21271TIP3    H263691   6.619   9.160   6.681
21272TIP3   OH263692   5.630   9.106   7.025
21272TIP3    H163693   5.612   9.013   7.019
21272TIP3    H263694   5.722   9.115   6.999
21273TIP3   OH263695   5.315   8.307   6.788
21273TIP3    H163696   5.279   8.392   6.813
21273TIP3    H263697   5.242   8.262   6.746
21274TIP3   OH263698   5.405   8.627   7.009
21274TIP3    H163699   5.455   8.550   7.034
21274TIP3    H263700   5.471   8.694   6.990
21275TIP3   OH263701   9.561   0.297   6.674
21275TIP3    H163702   9.586   0.245   6.598
21275TIP3    H263703   9.560   0.235   6.746
21276TIP3   OH263704   7.181   8.347   6.974
21276TIP3    H163705   7.191   8.433   7.016
21276TIP3    H263706   7.215   8.360   6.885
21277TIP3   OH263707   6.529   8.534   6.999
21277TIP3    H163708   6.564   8.450   7.029
21277TIP3    H263709   6.497   8.517   6.911
21278TIP3   OH263710   5.912   8.181   6.966
21278TIP3    H163711   5.887   8.253   6.908
21278TIP3    H263712   5.858   8.108   6.937
21279TIP3   OH263713   6.624   8.276   6.603
21279TIP3    H163714   6.686   8.269   6.677
21279TIP3    H263715   6.676   8.312   6.532
21280TIP3   OH263716   5.539   8.401   7.100
21280TIP3    H163717   5.622   8.381   7.144
21280TIP3    H263718   5.540   8.348   7.021
21281TIP3   OH263719   5.955   8.590   6.910
21281TIP3    H163720   6.045   8.561   6.922
21281TIP3    H263721   5.908   8.511   6.881
21282TIP3   OH263722   7.215   8.558   7.154
21282TIP3    H163723   7.133   8.607   7.154
21282TIP3    H263724   7.225   8.527   7.244
21283TIP3   OH263725   5.881   8.178   7.423
21283TIP3    H163726   5.834   8.218   7.350
21283TIP3    H263727   5.824   8.192   7.498
21284TIP3   OH263728   6.264   9.033   6.392
21284TIP3    H163729   6.218   9.005   6.313
21284TIP3    H263730   6.218   9.112   6.420
21285TIP3   OH263731   5.996   8.966   7.213
21285TIP3    H163732   5.944   9.042   7.239
21285TIP3    H263733   6.037   8.993   7.130
21286TIP3   OH263734   6.771   8.296   6.833
21286TIP3    H163735   6.715   8.283   6.909
21286TIP3    H263736   6.824   8.373   6.854
21287TIP3   OH263737   5.784   8.290   7.188
21287TIP3    H163738   5.837   8.366   7.209
21287TIP3    H263739   5.831   8.246   7.117
21288TIP3   OH263740   5.846   9.179   7.299
21288TIP3    H163741   5.842   9.272   7.279
21288TIP3    H263742   5.756   9.155   7.321
21289TIP3   OH263743   5.200   8.869   6.536
21289TIP3    H163744   5.164   8.876   6.448
21289TIP3    H263745   5.225   8.958   6.559
21290TIP3   OH263746   0.121   0.094   6.728
21290TIP3    H163747   0.043   0.098   6.783
21290TIP3    H263748   0.134   0.184   6.699
21291TIP3   OH263749   6.966   8.267   7.135
21291TIP3    H163750   6.885   8.284   7.086
21291TIP3    H263751   7.036   8.287   7.073
21292TIP3   OH263752   6.238   7.879   7.160
21292TIP3    H163753   6.228   7.787   7.183
21292TIP3    H263754   6.161   7.922   7.196
21293TIP3   OH263755   9.634   0.170   6.440
21293TIP3    H163756   9.688   0.091   6.435
21293TIP3    H263757   9.691   0.240   6.409
21294TIP3   OH263758   6.503   9.176   6.413
21294TIP3    H163759   6.435   9.114   6.388
21294TIP3    H263760   6.544   9.137   6.490
21295TIP3   OH263761   6.185   8.662   6.404
21295TIP3    H163762   6.101   8.703   6.381
21295TIP3    H263763   6.233   8.658   6.321
21296TIP3   OH263764   6.147   8.474   6.094
21296TIP3    H163765   6.215   8.522   6.141
21296TIP3    H263766   6.195   8.408   6.044
21297TIP3   OH263767   7.050   8.889   6.938
21297TIP3    H163768   6.977   8.943   6.968
21297TIP3    H263769   7.096   8.944   6.874
21298TIP3   OH263770   6.527   8.773   6.375
21298TIP3    H163771   6.497   8.823   6.452
21298TIP3    H263772   6.610   8.734   6.403
21299TIP3   OH263773   6.755   8.805   7.285
21299TIP3    H163774   6.750   8.900   7.300
21299TIP3    H263775   6.671   8.783   7.244
21300TIP3   OH263776   5.765   8.730   6.758
21300TIP3    H163777   5.717   8.673   6.698
21300TIP3    H263778   5.825   8.672   6.803
21301TIP3   OH263779   5.872   9.165   6.902
21301TIP3    H163780   5.840   9.143   6.815
21301TIP3    H263781   5.953   9.115   6.911
21302TIP3   OH263782   5.860   8.740   7.134
21302TIP3    H163783   5.903   8.708   7.055
21302TIP3    H263784   5.910   8.818   7.159
21303TIP3   OH263785   9.695   0.115   6.885
21303TIP3    H163786   9.673   0.189   6.940
21303TIP3    H263787   9.685   0.038   6.942
21304TIP3   OH263788   9.305   0.003   7.494
21304TIP3    H163789   9.247   0.072   7.526
21304TIP3    H263790   9.254  -0.044   7.430
21305TIP3   OH263791   6.371   8.617   6.200
21305TIP3    H163792   6.427   8.680   6.246
21305TIP3    H263793   6.399   8.623   6.109
21306TIP3   OH263794   5.782   8.784   7.571
21306TIP3    H163795   5.791   8.879   7.577
21306TIP3    H263796   5.688   8.768   7.576
21307TIP3   OH263797   9.397   0.022   6.460
21307TIP3    H163798   9.467   0.088   6.461
21307TIP3    H263799   9.327   0.064   6.411
21308TIP3   OH263800   9.110   0.179   7.556
21308TIP3    H163801   9.093   0.203   7.465
21308TIP3    H263802   9.024   0.153   7.589
21309TIP3   OH263803   6.877   7.843   6.259
21309TIP3    H163804   6.800   7.864   6.313
21309TIP3    H263805   6.887   7.919   6.202
21310TIP3   OH263806   5.626   8.576   6.567
21310TIP3    H163807   5.550   8.624   6.534
21310TIP3    H263808   5.595   8.487   6.579
21311TIP3   OH263809   0.168  -0.021   5.812
21311TIP3    H163810   0.162   0.071   5.784
21311TIP3    H263811   0.257  -0.046   5.789
21312TIP3   OH263812   5.417   8.971   7.481
21312TIP3    H163813   5.343   8.952   7.424
21312TIP3    H263814   5.451   8.885   7.507
21313TIP3   OH263815   5.261   9.175   7.166
21313TIP3    H163816   5.351   9.206   7.179
21313TIP3    H263817   5.206   9.251   7.185
21314TIP3   OH263818   9.487   0.146   7.341
21314TIP3    H163819   9.435   0.184   7.270
21314TIP3    H263820   9.423   0.106   7.399
21315TIP3   OH263821   9.282   0.258   6.290
21315TIP3    H163822   9.224   0.235   6.217
21315TIP3    H263823   9.249   0.342   6.321
21316TIP3   OH263824   9.475   0.203   5.905
21316TIP3    H163825   9.523   0.129   5.867
21316TIP3    H263826   9.511   0.212   5.993
21317TIP3   OH263827   9.528   0.232   6.176
21317TIP3    H163828   9.441   0.236   6.217
21317TIP3    H263829   9.584   0.194   6.243
21318TIP3   OH263830   6.981   8.729   7.500
21318TIP3    H163831   6.927   8.770   7.432
21318TIP3    H263832   7.020   8.653   7.457
21319TIP3   OH263833   5.596   9.172   7.429
21319TIP3    H163834   5.660   9.145   7.494
21319TIP3    H263835   5.529   9.104   7.431
21320TIP3   OH263836   5.998   7.972   7.276
21320TIP3    H163837   5.915   7.938   7.242
21320TIP3    H263838   5.973   8.051   7.323
21321TIP3   OH263839   6.529   8.113   7.473
21321TIP3    H163840   6.595   8.077   7.532
21321TIP3    H263841   6.445   8.085   7.511
21322TIP3   OH263842   6.756   8.540   7.384
21322TIP3    H163843   6.728   8.547   7.475
21322TIP3    H263844   6.749   8.629   7.349
21323TIP3   OH263845   6.446   8.605   5.938
21323TIP3    H163846   6.396   8.606   5.856
21323TIP3    H263847   6.529   8.647   5.916
21324TIP3   OH263848   6.154   8.011   6.255
21324TIP3    H163849   6.115   8.019   6.343
21324TIP3    H263850   6.116   7.930   6.220
21325TIP3   OH263851   5.926   8.509   7.271
21325TIP3    H163852   5.882   8.512   7.356
21325TIP3    H263853   5.905   8.592   7.230
21326TIP3   OH263854   5.807   8.383   6.810
21326TIP3    H163855   5.719   8.355   6.836
21326TIP3    H263856   5.817   8.350   6.721
21327TIP3   OH263857   6.297   8.450   6.533
21327TIP3    H163858   6.252   8.524   6.493
21327TIP3    H263859   6.356   8.417   6.465
21328TIP3   OH263860   6.511   8.814   7.590
21328TIP3    H163861   6.522   8.719   7.588
21328TIP3    H263862   6.588   8.846   7.637
21329TIP3   OH263863   6.483   8.473   6.736
21329TIP3    H163864   6.405   8.481   6.681
21329TIP3    H263865   6.529   8.397   6.702
21330TIP3   OH263866   5.776   8.503   7.500
21330TIP3    H163867   5.784   8.574   7.564
21330TIP3    H263868   5.756   8.426   7.553
21331TIP3   OH263869   5.820   7.996   6.229
21331TIP3    H163870   5.810   8.001   6.325
21331TIP3    H263871   5.741   8.038   6.195
21332TIP3   OH263872   5.363   8.032   7.102
21332TIP3    H163873   5.434   8.072   7.150
21332TIP3    H263874   5.396   8.023   7.012
21333TIP3   OH263875   5.265   8.019   6.593
21333TIP3    H163876   5.309   8.055   6.517
21333TIP3    H263877   5.200   8.085   6.617
21334TIP3   OH263878   6.509   8.731   7.185
21334TIP3    H163879   6.514   8.669   7.113
21334TIP3    H263880   6.467   8.682   7.256
21335TIP3   OH263881   6.183   8.174   6.863
21335TIP3    H163882   6.104   8.171   6.918
21335TIP3    H263883   6.256   8.167   6.925
21336TIP3   OH263884   5.572   8.254   6.872
21336TIP3    H163885   5.485   8.260   6.834
21336TIP3    H263886   5.600   8.164   6.855
21337TIP3   OH263887   5.829   8.264   6.565
21337TIP3    H163888   5.924   8.272   6.556
21337TIP3    H263889   5.795   8.281   6.477
21338TIP3   OH263890   6.612   8.273   7.059
21338TIP3    H163891   6.600   8.292   7.152
21338TIP3    H263892   6.543   8.210   7.038
21339TIP3   OH263893   5.723   8.290   6.314
21339TIP3    H163894   5.661   8.239   6.261
21339TIP3    H263895   5.774   8.339   6.250
21340TIP3   OH263896   5.773   9.060   7.615
21340TIP3    H163897   5.857   9.083   7.656
21340TIP3    H263898   5.709   9.065   7.686
21341TIP3   OH263899   5.717   8.007   6.854
21341TIP3    H163900   5.688   7.932   6.906
21341TIP3    H263901   5.734   7.970   6.767
21342TIP3   OH263902   6.184   8.412   7.275
21342TIP3    H163903   6.101   8.458   7.264
21342TIP3    H263904   6.248   8.481   7.287
21343TIP3   OH263905   5.947   8.801   6.373
21343TIP3    H163906   5.869   8.754   6.346
21343TIP3    H263907   5.924   8.838   6.458
21344TIP3   OH263908   6.816   9.040   7.020
21344TIP3    H163909   6.854   9.104   6.959
21344TIP3    H263910   6.748   8.997   6.969
21345TIP3   OH263911   6.406   8.114   6.263
21345TIP3    H163912   6.313   8.092   6.257
21345TIP3    H263913   6.408   8.209   6.270
21346TIP3   OH263914   6.412   9.175   7.338
21346TIP3    H163915   6.392   9.144   7.427
21346TIP3    H263916   6.353   9.250   7.325
21347TIP3   OH263917   6.465   8.382   6.322
21347TIP3    H163918   6.560   8.384   6.331
21347TIP3    H263919   6.444   8.459   6.270
21348TIP3   OH263920   5.625   8.811   6.989
21348TIP3    H163921   5.664   8.796   6.903
21348TIP3    H263922   5.694   8.786   7.051
21349TIP3   OH263923   6.083   8.959   6.195
21349TIP3    H163924   6.038   9.044   6.195
21349TIP3    H263925   6.028   8.903   6.250
21350TIP3   OH263926   5.508   8.734   7.608
21350TIP3    H163927   5.504   8.705   7.699
21350TIP3    H263928   5.432   8.693   7.566
21351TIP3   OH263929   6.252   8.895   7.632
21351TIP3    H163930   6.188   8.834   7.596
21351TIP3    H263931   6.336   8.866   7.598
21352TIP3   OH263932   9.726   0.268   7.381
21352TIP3    H163933   9.760   0.275   7.291
21352TIP3    H263934   9.637   0.233   7.370
21353TIP3   OH263935   6.875   8.474   6.133
21353TIP3    H163936   6.816   8.429   6.074
21353TIP3    H263937   6.881   8.563   6.098
21354TIP3   OH263938   6.625   9.274   6.076
21354TIP3    H163939   6.592   9.199   6.124
21354TIP3    H263940   6.644   9.241   5.988
21355TIP3   OH263941   6.627   8.898   6.875
21355TIP3    H163942   6.560   8.872   6.938
21355TIP3    H263943   6.653   8.817   6.831
21356TIP3   OH263944   5.740   9.128   6.656
21356TIP3    H163945   5.742   9.217   6.620
21356TIP3    H263946   5.648   9.103   6.655
21357TIP3   OH263947   5.315   8.446   6.383
21357TIP3    H163948   5.354   8.531   6.400
21357TIP3    H263949   5.233   8.447   6.433
21358TIP3   OH263950   5.928   8.922   6.648
21358TIP3    H163951   5.874   8.999   6.632
21358TIP3    H263952   5.867   8.857   6.684
21359TIP3   OH263953   9.336   0.225   7.121
21359TIP3    H163954   9.347   0.309   7.077
21359TIP3    H263955   9.372   0.161   7.060
21360TIP3   OH263956   8.945   0.132   6.549
21360TIP3    H163957   8.867   0.095   6.506
21360TIP3    H263958   8.942   0.225   6.528
21361TIP3   OH263959   6.388   9.149   7.060
21361TIP3    H163960   6.394   9.131   7.154
21361TIP3    H263961   6.318   9.091   7.029
21362TIP3   OH263962   6.387   9.031   5.959
21362TIP3    H163963   6.433   9.005   6.039
21362TIP3    H263964   6.305   8.981   5.962
21363TIP3   OH263965   0.163   0.249   5.765
21363TIP3    H163966   0.198   0.313   5.703
21363TIP3    H263967   0.086   0.293   5.802
21364TIP3   OH263968   5.715   8.245   7.632
21364TIP3    H163969   5.621   8.259   7.639
21364TIP3    H263970   5.737   8.192   7.708
21365TIP3   OH263971   6.551   8.958   6.166
21365TIP3    H163972   6.534   8.902   6.241
21365TIP3    H263973   6.646   8.956   6.155
21366TIP3   OH263974   8.723   0.130   7.280
21366TIP3    H163975   8.780   0.071   7.329
21366TIP3    H263976   8.741   0.216   7.316
21367TIP3   OH263977   5.739   8.982   5.961
21367TIP3    H163978   5.746   8.891   5.931
21367TIP3    H263979   5.728   8.974   6.056
21368TIP3   OH263980   5.691   8.986   6.229
21368TIP3    H163981   5.702   8.965   6.322
21368TIP3    H263982   5.684   9.082   6.227
21369TIP3   OH263983   5.407   8.701   6.453
21369TIP3    H163984   5.338   8.743   6.504
21369TIP3    H263985   5.427   8.763   6.383
21370TIP3   OH263986   6.573   8.338   7.321
21370TIP3    H163987   6.650   8.384   7.353
21370TIP3    H263988   6.565   8.262   7.379
21371TIP3   OH263989   6.464   8.064   6.529
21371TIP3    H163990   6.443   8.081   6.437
21371TIP3    H263991   6.512   8.142   6.557
21372TIP3   OH263992   5.954   9.198   6.204
21372TIP3    H163993   5.862   9.213   6.223
21372TIP3    H263994   5.977   9.266   6.141
21373TIP3   OH263995   6.107   8.268   6.614
21373TIP3    H163996   6.172   8.332   6.585
21373TIP3    H263997   6.133   8.246   6.703
21374TIP3   OH263998   6.407   8.555   7.368
21374TIP3    H163999   6.400   8.554   7.464
21374TIP3    H264000   6.457   8.476   7.347
21375TIP3   OH264001   6.275   7.962   6.701
21375TIP3    H164002   6.253   8.040   6.753
21375TIP3    H264003   6.346   7.992   6.644
21376TIP3   OH264004   8.955   0.022   6.223
21376TIP3    H164005   8.945   0.107   6.181
21376TIP3    H264006   8.878   0.015   6.280
21377TIP3   OH264007   5.788   7.990   6.509
21377TIP3    H164008   5.776   8.081   6.536
21377TIP3    H264009   5.882   7.974   6.516
21378TIP3   OH264010   7.006   8.442   7.356
21378TIP3    H164011   6.917   8.474   7.366
21378TIP3    H264012   7.001   8.379   7.284
21379TIP3   OH264013   6.698   8.652   6.759
21379TIP3    H164014   6.622   8.594   6.763
21379TIP3    H264015   6.763   8.611   6.817
21380TIP3   OH264016   5.420   8.921   6.282
21380TIP3    H164017   5.418   9.007   6.324
21380TIP3    H264018   5.498   8.922   6.227
21381TIP3   OH264019   5.334   8.167   6.374
21381TIP3    H164020   5.347   8.261   6.385
21381TIP3    H264021   5.279   8.160   6.296
21382TIP3   OH264022   0.146   0.370   6.676
21382TIP3    H164023   0.095   0.431   6.623
21382TIP3    H264024   0.184   0.424   6.745
21383TIP3   OH264025   5.735   7.888   7.238
21383TIP3    H164026   5.704   7.855   7.153
21383TIP3    H264027   5.728   7.812   7.296
21384TIP3   OH264028   8.728   0.407   7.697
21384TIP3    H164029   8.812   0.377   7.731
21384TIP3    H264030   8.675   0.328   7.689
21385TIP3   OH264031   5.895   9.185   5.869
21385TIP3    H164032   5.844   9.114   5.907
21385TIP3    H264033   5.969   9.142   5.827
21386TIP3   OH264034   6.330   9.231   5.783
21386TIP3    H164035   6.367   9.168   5.844
21386TIP3    H264036   6.386   9.226   5.706
21387TIP3   OH264037   5.595   9.057   7.818
21387TIP3    H164038   5.605   8.965   7.844
21387TIP3    H264039   5.505   9.063   7.786
21388TIP3   OH264040   5.555   8.689   6.086
21388TIP3    H164041   5.603   8.682   6.168
21388TIP3    H264042   5.622   8.702   6.019
21389TIP3   OH264043   6.290   9.168   7.594
21389TIP3    H164044   6.206   9.194   7.557
21389TIP3    H264045   6.278   9.076   7.619
21390TIP3   OH264046   6.144   8.901   5.934
21390TIP3    H164047   6.113   8.912   6.024
21390TIP3    H264048   6.122   8.811   5.912
21391TIP3   OH264049   6.686   9.077   7.292
21391TIP3    H164050   6.713   9.089   7.201
21391TIP3    H264051   6.596   9.110   7.295
21392TIP3   OH264052   5.680   8.806   7.893
21392TIP3    H164053   5.714   8.717   7.881
21392TIP3    H264054   5.685   8.821   7.988
21393TIP3   OH264055   5.735   8.637   6.307
21393TIP3    H164056   5.704   8.595   6.387
21393TIP3    H264057   5.777   8.567   6.257
21394TIP3   OH264058   6.049   8.690   7.536
21394TIP3    H164059   5.962   8.729   7.542
21394TIP3    H264060   6.084   8.719   7.452
21395TIP3   OH264061   5.870   8.451   6.145
21395TIP3    H164062   5.839   8.452   6.055
21395TIP3    H264063   5.965   8.456   6.138
21396TIP3   OH264064   6.668   8.724   5.825
21396TIP3    H164065   6.654   8.684   5.739
21396TIP3    H264066   6.647   8.816   5.812
21397TIP3   OH264067   6.130   8.454   7.647
21397TIP3    H164068   6.126   8.377   7.591
21397TIP3    H264069   6.099   8.526   7.592
21398TIP3   OH264070   6.139   8.239   7.477
21398TIP3    H164071   6.166   8.287   7.399
21398TIP3    H264072   6.048   8.215   7.460
21399TIP3   OH264073   6.172   8.784   7.314
21399TIP3    H164074   6.254   8.791   7.266
21399TIP3    H264075   6.117   8.853   7.277
21400TIP3   OH264076   6.011   8.608   7.846
21400TIP3    H164077   5.947   8.551   7.889
21400TIP3    H264078   6.037   8.560   7.767
21401TIP3   OH264079   6.279   8.019   7.554
21401TIP3    H164080   6.229   8.096   7.527
21401TIP3    H264081   6.217   7.946   7.545
21402TIP3   OH264082   6.388   8.549   7.649
21402TIP3    H164083   6.383   8.611   7.722
21402TIP3    H264084   6.303   8.505   7.649
21403TIP3   OH264085   6.662   8.533   7.636
21403TIP3    H164086   6.572   8.502   7.631
21403TIP3    H264087   6.674   8.557   7.728
21404TIP3   OH264088   6.905   8.421   7.789
21404TIP3    H164089   6.884   8.456   7.702
21404TIP3    H264090   6.899   8.496   7.848
21405TIP3   OH264091   5.877   8.350   7.897
21405TIP3    H164092   5.940   8.279   7.888
21405TIP3    H264093   5.833   8.332   7.981
21406TIP3   OH264094   6.425   8.079   7.775
21406TIP3    H164095   6.437   7.995   7.820
21406TIP3    H264096   6.370   8.058   7.699
21407TIP3   OH264097   6.513   8.326   7.844
21407TIP3    H164098   6.500   8.243   7.797
21407TIP3    H264099   6.424   8.354   7.866
21408TIP3   OH264100   8.986   0.265   6.087
21408TIP3    H164101   9.070   0.229   6.059
21408TIP3    H264102   8.944   0.293   6.006
21409TIP3   OH264103   5.155   8.866   6.249
21409TIP3    H164104   5.249   8.882   6.253
21409TIP3    H264105   5.147   8.779   6.209
21410TIP3   OH264106   8.321   0.187   6.713
21410TIP3    H164107   8.257   0.130   6.670
21410TIP3    H264108   8.366   0.130   6.775
21411TIP3   OH264109   8.459   0.058   6.908
21411TIP3    H164110   8.466  -0.017   6.968
21411TIP3    H264111   8.520   0.123   6.944
21412TIP3   OH264112   6.826   8.935   6.157
21412TIP3    H164113   6.885   9.002   6.122
21412TIP3    H264114   6.873   8.897   6.231
21413TIP3   OH264115   6.956   8.796   6.357
21413TIP3    H164116   6.888   8.757   6.412
21413TIP3    H264117   7.022   8.828   6.419
21414TIP3   OH264118   6.942   9.175   6.818
21414TIP3    H164119   7.018   9.139   6.773
21414TIP3    H264120   6.891   9.216   6.749
21415TIP3   OH264121   6.877   8.714   6.000
21415TIP3    H164122   6.808   8.710   5.934
21415TIP3    H264123   6.857   8.792   6.053
21416TIP3   OH264124   6.719   8.359   5.944
21416TIP3    H164125   6.673   8.395   5.868
21416TIP3    H264126   6.712   8.264   5.933
21417TIP3   OH264127   6.753   8.653   6.487
21417TIP3    H164128   6.761   8.560   6.469
21417TIP3    H264129   6.741   8.659   6.582
21418TIP3   OH264130   5.377   8.701   7.269
21418TIP3    H164131   5.367   8.678   7.177
21418TIP3    H264132   5.471   8.701   7.284
21419TIP3   OH264133   6.688   8.087   5.918
21419TIP3    H164134   6.752   8.061   5.984
21419TIP3    H264135   6.605   8.050   5.949
21420TIP3   OH264136   6.760   8.380   6.376
21420TIP3    H164137   6.807   8.297   6.388
21420TIP3    H264138   6.799   8.418   6.297
21421TIP3   OH264139   6.898   8.528   6.914
21421TIP3    H164140   6.979   8.546   6.866
21421TIP3    H264141   6.909   8.573   6.998
21422TIP3   OH264142   6.970   8.699   7.127
21422TIP3    H164143   6.898   8.742   7.173
21422TIP3    H264144   7.002   8.766   7.066
21423TIP3   OH264145   5.606   8.414   7.868
21423TIP3    H164146   5.701   8.410   7.865
21423TIP3    H264147   5.580   8.334   7.913
21424TIP3   OH264148   6.875   8.131   6.432
21424TIP3    H164149   6.919   8.116   6.516
21424TIP3    H264150   6.811   8.060   6.426
21425TIP3   OH264151   5.575   8.113   7.264
21425TIP3    H164152   5.628   8.033   7.266
21425TIP3    H264153   5.636   8.182   7.241
21426TIP3   OH264154   5.349   8.379   7.309
21426TIP3    H164155   5.406   8.369   7.232
21426TIP3    H264156   5.365   8.469   7.338
21427TIP3   OH264157   7.274   8.408   7.395
21427TIP3    H164158   7.180   8.422   7.411
21427TIP3    H264159   7.282   8.314   7.378
21428TIP3   OH264160   6.918   8.042   6.073
21428TIP3    H164161   6.965   7.982   6.016
21428TIP3    H264162   6.971   8.122   6.072
21429TIP3   OH264163   5.347   7.899   6.825
21429TIP3    H164164   5.262   7.884   6.867
21429TIP3    H264165   5.326   7.948   6.746
21430TIP3   OH264166  -0.028   0.373   6.332
21430TIP3    H164167   0.020   0.354   6.251
21430TIP3    H264168   0.025   0.440   6.376
21431TIP3   OH264169   5.553   7.913   7.618
21431TIP3    H164170   5.521   7.927   7.707
21431TIP3    H264171   5.505   7.977   7.565
21432TIP3   OH264172   8.870   0.106   7.673
21432TIP3    H164173   8.799   0.083   7.614
21432TIP3    H264174   8.844   0.072   7.758
21433TIP3   OH264175   9.108   0.212   7.280
21433TIP3    H164176   9.047   0.276   7.242
21433TIP3    H264177   9.190   0.228   7.233
21434TIP3   OH264178   7.216   8.121   7.348
21434TIP3    H164179   7.127   8.094   7.328
21434TIP3    H264180   7.267   8.040   7.348
21435TIP3   OH264181   8.730   0.411   7.319
21435TIP3    H164182   8.641   0.432   7.290
21435TIP3    H264183   8.750   0.478   7.384
21436TIP3   OH264184   8.956   0.403   7.163
21436TIP3    H164185   8.872   0.408   7.209
21436TIP3    H264186   8.936   0.431   7.074
21437TIP3   OH264187   9.359   0.450   6.962
21437TIP3    H164188   9.315   0.466   6.879
21437TIP3    H264189   9.307   0.498   7.027
21438TIP3   OH264190   9.619   0.363   6.975
21438TIP3    H164191   9.531   0.400   6.980
21438TIP3    H264192   9.652   0.392   6.889
21439TIP3   OH264193   8.640   0.235   7.038
21439TIP3    H164194   8.665   0.206   7.126
21439TIP3    H264195   8.710   0.204   6.981
21440TIP3   OH264196   8.850   0.123   6.918
21440TIP3    H164197   8.862   0.034   6.952
21440TIP3    H264198   8.936   0.148   6.886
21441TIP3   OH264199   9.129   0.200   6.899
21441TIP3    H164200   9.140   0.106   6.892
21441TIP3    H264201   9.147   0.219   6.991
21442TIP3   OH264202   6.409   8.080   7.005
21442TIP3    H164203   6.370   8.010   7.057
21442TIP3    H264204   6.478   8.037   6.955
21443TIP3   OH264205   6.907   8.007   6.897
21443TIP3    H164206   6.945   8.058   6.825
21443TIP3    H264207   6.814   8.028   6.895
21444TIP3   OH264208   7.027   8.077   6.658
21444TIP3    H164209   7.098   8.017   6.634
21444TIP3    H264210   7.064   8.164   6.646
21445TIP3   OH264211   5.644   7.781   7.000
21445TIP3    H164212   5.555   7.748   7.007
21445TIP3    H264213   5.699   7.703   6.991
21446TIP3   OH264214   5.489   7.706   6.668
21446TIP3    H164215   5.508   7.750   6.585
21446TIP3    H264216   5.447   7.772   6.722
21447TIP3   OH264217   6.135   7.821   6.900
21447TIP3    H164218   6.182   7.868   6.832
21447TIP3    H264219   6.176   7.849   6.982
21448TIP3   OH264220   6.622   7.959   6.877
21448TIP3    H164221   6.638   7.923   6.789
21448TIP3    H264222   6.632   7.885   6.936
21449TIP3   OH264223   6.688   7.920   6.444
21449TIP3    H164224   6.608   7.966   6.468
21449TIP3    H264225   6.678   7.833   6.481
21450TIP3   OH264226   5.580   7.822   6.418
21450TIP3    H164227   5.625   7.761   6.360
21450TIP3    H264228   5.649   7.878   6.452
21451TIP3   OH264229   6.063   8.015   6.518
21451TIP3    H164230   6.122   7.963   6.571
21451TIP3    H264231   6.077   8.106   6.546
21452TIP3   OH264232   9.226   0.165   6.013
21452TIP3    H164233   9.308   0.194   5.974
21452TIP3    H264234   9.197   0.093   5.956
21453TIP3   OH264235   0.106   0.307   6.100
21453TIP3    H164236   0.103   0.211   6.094
21453TIP3    H264237   0.065   0.337   6.019
21454TIP3   OH264238   5.826   8.035   7.842
21454TIP3    H164239   5.815   7.963   7.903
21454TIP3    H264240   5.912   8.071   7.861
21455TIP3   OH264241   6.075   8.144   7.912
21455TIP3    H164242   6.145   8.206   7.895
21455TIP3    H264243   6.119   8.067   7.949
21456TIP3   OH264244   5.283   9.254   6.100
21456TIP3    H164245   5.296   9.256   6.195
21456TIP3    H264246   5.358   9.206   6.066
21457TIP3   OH264247   6.973   8.084   7.731
21457TIP3    H164248   7.022   8.019   7.782
21457TIP3    H264249   7.038   8.122   7.672
21458TIP3   OH264250   7.108   8.580   6.265
21458TIP3    H164251   7.066   8.662   6.292
21458TIP3    H264252   7.037   8.529   6.226
21459TIP3   OH264253   7.178   8.862   6.508
21459TIP3    H164254   7.217   8.780   6.537
21459TIP3    H264255   7.253   8.918   6.486
21460TIP3   OH264256   7.673   8.444   6.480
21460TIP3    H164257   7.665   8.511   6.412
21460TIP3    H264258   7.646   8.363   6.437
21461TIP3   OH264259   8.365   8.516   6.092
21461TIP3    H164260   8.393   8.563   6.171
21461TIP3    H264261   8.422   8.549   6.023
21462TIP3   OH264262   7.318   8.642   6.590
21462TIP3    H164263   7.400   8.625   6.637
21462TIP3    H264264   7.326   8.592   6.509
21463TIP3   OH264265   7.725   8.849   6.384
21463TIP3    H164266   7.820   8.837   6.380
21463TIP3    H264267   7.689   8.765   6.356
21464TIP3   OH264268   7.679   8.439   6.916
21464TIP3    H164269   7.637   8.490   6.847
21464TIP3    H264270   7.623   8.449   6.992
21465TIP3   OH264271   7.567   8.572   6.696
21465TIP3    H164272   7.623   8.649   6.705
21465TIP3    H264273   7.607   8.520   6.626
21466TIP3   OH264274   7.001   9.110   6.035
21466TIP3    H164275   6.970   9.122   5.945
21466TIP3    H264276   7.026   9.198   6.064
21467TIP3   OH264277   7.982   8.122   6.611
21467TIP3    H164278   7.996   8.035   6.649
21467TIP3    H264279   7.923   8.166   6.673
21468TIP3   OH264280   7.964   8.847   5.860
21468TIP3    H164281   7.896   8.914   5.859
21468TIP3    H264282   8.042   8.891   5.827
21469TIP3   OH264283   7.965   8.696   5.602
21469TIP3    H164284   8.002   8.722   5.686
21469TIP3    H264285   8.034   8.647   5.559
21470TIP3   OH264286   7.537   8.996   6.248
21470TIP3    H164287   7.507   8.935   6.180
21470TIP3    H264288   7.609   8.950   6.291
21471TIP3   OH264289   8.207   8.905   5.724
21471TIP3    H164290   8.293   8.946   5.720
21471TIP3    H264291   8.178   8.901   5.633
21472TIP3   OH264292   8.647   8.092   5.730
21472TIP3    H164293   8.578   8.117   5.791
21472TIP3    H264294   8.650   8.162   5.666
21473TIP3   OH264295   7.417   8.821   6.055
21473TIP3    H164296   7.350   8.878   6.016
21473TIP3    H264297   7.368   8.759   6.108
21474TIP3   OH264298   0.658   0.369   6.155
21474TIP3    H164299   0.615   0.373   6.240
21474TIP3    H264300   0.628   0.287   6.116
21475TIP3   OH264301   1.602   0.499   5.454
21475TIP3    H164302   1.633   0.409   5.443
21475TIP3    H264303   1.558   0.499   5.539
21476TIP3   OH264304   7.790   8.224   6.786
21476TIP3    H164305   7.704   8.199   6.753
21476TIP3    H264306   7.775   8.304   6.836
21477TIP3   OH264307   8.175   8.907   5.454
21477TIP3    H164308   8.137   8.868   5.375
21477TIP3    H264309   8.269   8.902   5.439
21478TIP3   OH264310   7.850   8.372   5.767
21478TIP3    H164311   7.902   8.404   5.841
21478TIP3    H264312   7.890   8.288   5.744
21479TIP3   OH264313   7.604   8.625   6.284
21479TIP3    H164314   7.515   8.593   6.298
21479TIP3    H264315   7.625   8.600   6.195
21480TIP3   OH264316   7.986   8.584   5.946
21480TIP3    H164317   7.965   8.676   5.931
21480TIP3    H264318   8.080   8.578   5.929
21481TIP3   OH264319   7.592   8.263   5.720
21481TIP3    H164320   7.575   8.243   5.812
21481TIP3    H264321   7.505   8.278   5.683
21482TIP3   OH264322   7.157   8.297   6.576
21482TIP3    H164323   7.231   8.331   6.626
21482TIP3    H264324   7.194   8.270   6.492
21483TIP3   OH264325   7.068   8.280   6.076
21483TIP3    H164326   7.123   8.320   6.008
21483TIP3    H264327   7.000   8.346   6.094
21484TIP3   OH264328   7.926   8.460   6.345
21484TIP3    H164329   7.860   8.442   6.413
21484TIP3    H264330   8.004   8.413   6.376
21485TIP3   OH264331   7.360   8.509   6.339
21485TIP3    H164332   7.271   8.532   6.311
21485TIP3    H264333   7.364   8.414   6.330
21486TIP3   OH264334   7.502   8.512   5.810
21486TIP3    H164335   7.452   8.517   5.891
21486TIP3    H264336   7.438   8.490   5.743
21487TIP3   OH264337   7.598   8.220   6.327
21487TIP3    H164338   7.541   8.159   6.373
21487TIP3    H264339   7.685   8.180   6.330
21488TIP3   OH264340   7.753   9.031   5.850
21488TIP3    H164341   7.675   8.982   5.824
21488TIP3    H264342   7.725   9.081   5.927
21489TIP3   OH264343   8.152   8.391   5.758
21489TIP3    H164344   8.128   8.379   5.666
21489TIP3    H264345   8.191   8.478   5.762
21490TIP3   OH264346   8.253   8.638   5.809
21490TIP3    H164347   8.346   8.626   5.828
21490TIP3    H264348   8.245   8.731   5.785
21491TIP3   OH264349   7.412   9.008   6.497
21491TIP3    H164350   7.438   9.024   6.406
21491TIP3    H264351   7.495   8.992   6.542
21492TIP3   OH264352   7.881   9.195   5.671
21492TIP3    H164353   7.840   9.279   5.693
21492TIP3    H264354   7.848   9.134   5.738
21493TIP3   OH264355   8.697   8.650   5.673
21493TIP3    H164356   8.663   8.578   5.619
21493TIP3    H264357   8.674   8.729   5.624
21494TIP3   OH264358   0.990   0.168   6.110
21494TIP3    H164359   0.985   0.257   6.078
21494TIP3    H264360   0.901   0.148   6.140
21495TIP3   OH264361   7.121   8.701   5.870
21495TIP3    H164362   7.159   8.788   5.885
21495TIP3    H264363   7.036   8.704   5.915
21496TIP3   OH264364   7.652   9.169   6.061
21496TIP3    H164365   7.623   9.260   6.075
21496TIP3    H264366   7.615   9.121   6.135
21497TIP3   OH264367   0.894   0.414   6.019
21497TIP3    H164368   0.811   0.408   6.067
21497TIP3    H264369   0.905   0.508   6.002
21498TIP3   OH264370   8.142   9.191   5.431
21498TIP3    H164371   8.168   9.225   5.516
21498TIP3    H264372   8.131   9.097   5.444
21499TIP3   OH264373   7.476   8.469   7.097
21499TIP3    H164374   7.399   8.523   7.114
21499TIP3    H264375   7.449   8.381   7.122
21500TIP3   OH264376   7.509   9.232   5.475
21500TIP3    H164377   7.554   9.153   5.446
21500TIP3    H264378   7.500   9.221   5.570
21501TIP3   OH264379   0.945   0.007   5.751
21501TIP3    H164380   1.023  -0.014   5.801
21501TIP3    H264381   0.936   0.102   5.758
21502TIP3   OH264382   7.209   8.955   5.941
21502TIP3    H164383   7.140   8.999   5.991
21502TIP3    H264384   7.225   9.013   5.867
21503TIP3   OH264385   8.241   8.293   5.997
21503TIP3    H164386   8.206   8.320   5.912
21503TIP3    H264387   8.277   8.373   6.034
21504TIP3   OH264388   1.209   0.182   5.744
21504TIP3    H164389   1.123   0.208   5.777
21504TIP3    H264390   1.234   0.253   5.685
21505TIP3   OH264391   8.065   8.194   6.183
21505TIP3    H164392   8.096   8.236   6.263
21505TIP3    H264393   8.127   8.224   6.116
21506TIP3   OH264394   0.948   0.277   5.787
21506TIP3    H164395   0.938   0.347   5.722
21506TIP3    H264396   0.927   0.319   5.870
21507TIP3   OH264397   7.602   8.233   6.004
21507TIP3    H164398   7.578   8.227   6.097
21507TIP3    H264399   7.694   8.261   6.005
21508TIP3   OH264400   7.226   9.132   5.728
21508TIP3    H164401   7.299   9.193   5.741
21508TIP3    H264402   7.260   9.068   5.665
21509TIP3   OH264403   7.186   8.434   5.876
21509TIP3    H164404   7.167   8.528   5.881
21509TIP3    H264405   7.156   8.407   5.790
21510TIP3   OH264406   7.532   8.142   6.724
21510TIP3    H164407   7.507   8.110   6.638
21510TIP3    H264408   7.524   8.066   6.781
21511TIP3   OH264409   0.513   0.133   6.110
21511TIP3    H164410   0.448   0.148   6.179
21511TIP3    H264411   0.477   0.177   6.033
21512TIP3   OH264412   1.122   0.195   5.367
21512TIP3    H164413   1.064   0.131   5.407
21512TIP3    H264414   1.199   0.145   5.341
21513TIP3   OH264415   1.726   0.264   5.390
21513TIP3    H164416   1.763   0.176   5.404
21513TIP3    H264417   1.778   0.299   5.317
21514TIP3   OH264418   7.357   8.941   5.587
21514TIP3    H164419   7.422   8.916   5.653
21514TIP3    H264420   7.406   8.945   5.505
21515TIP3   OH264421   7.754   9.075   5.455
21515TIP3    H164422   7.802   9.103   5.532
21515TIP3    H264423   7.788   8.988   5.436
21516TIP3   OH264424   7.538   8.856   5.795
21516TIP3    H164425   7.503   8.840   5.883
21516TIP3    H264426   7.574   8.771   5.767
21517TIP3   OH264427   7.708   8.610   5.625
21517TIP3    H164428   7.664   8.644   5.547
21517TIP3    H264429   7.797   8.645   5.620
21518TIP3   OH264430   8.435   8.972   5.398
21518TIP3    H164431   8.498   8.937   5.335
21518TIP3    H264432   8.376   9.027   5.345
21519TIP3   OH264433   0.960   0.503   5.626
21519TIP3    H164434   1.037   0.459   5.590
21519TIP3    H264435   0.910   0.531   5.550
21520TIP3   OH264436   6.954   9.122   5.761
21520TIP3    H164437   7.047   9.137   5.744
21520TIP3    H264438   6.934   9.040   5.714
21521TIP3   OH264439   0.303   0.471   6.194
21521TIP3    H164440   0.244   0.414   6.146
21521TIP3    H264441   0.363   0.412   6.238
21522TIP3   OH264442   0.474   0.340   6.371
21522TIP3    H164443   0.452   0.267   6.429
21522TIP3    H264444   0.470   0.417   6.427
21523TIP3   OH264445   8.653   8.881   5.544
21523TIP3    H164446   8.562   8.879   5.513
21523TIP3    H264447   8.677   8.973   5.542
21524TIP3   OH264448   8.453   8.647   5.491
21524TIP3    H164449   8.503   8.653   5.409
21524TIP3    H264450   8.437   8.553   5.502
21525TIP3   OH264451   7.165   9.035   6.721
21525TIP3    H164452   7.148   8.973   6.650
21525TIP3    H264453   7.252   9.069   6.704
21526TIP3   OH264454   8.428   8.367   5.495
21526TIP3    H164455   8.517   8.338   5.512
21526TIP3    H264456   8.419   8.362   5.400
21527TIP3   OH264457   8.534   8.576   5.883
21527TIP3    H164458   8.587   8.501   5.910
21527TIP3    H264459   8.586   8.619   5.816
21528TIP3   OH264460   8.695   8.352   5.944
21528TIP3    H164461   8.759   8.316   6.006
21528TIP3    H264462   8.623   8.289   5.944
21529TIP3   OH264463   7.368   8.364   6.743
21529TIP3    H164464   7.426   8.288   6.747
21529TIP3    H264465   7.428   8.439   6.748
21530TIP3   OH264466   7.131   8.628   6.811
21530TIP3    H164467   7.191   8.633   6.737
21530TIP3    H264468   7.128   8.717   6.846
21531TIP3   OH264469   8.692   8.293   5.543
21531TIP3    H164470   8.731   8.235   5.478
21531TIP3    H264471   8.766   8.321   5.597
21532TIP3   OH264472   7.142   8.161   6.311
21532TIP3    H164473   7.058   8.141   6.352
21532TIP3    H264474   7.120   8.208   6.231
21533TIP3   OH264475   7.364   8.213   7.132
21533TIP3    H164476   7.309   8.182   7.204
21533TIP3    H264477   7.302   8.246   7.067
21534TIP3   OH264478   8.128   8.289   6.433
21534TIP3    H164479   8.100   8.235   6.507
21534TIP3    H264480   8.222   8.272   6.424
21535TIP3   OH264481   7.452   8.037   6.481
21535TIP3    H164482   7.362   8.008   6.493
21535TIP3    H264483   7.502   7.955   6.473
21536TIP3   OH264484   7.277   7.963   6.153
21536TIP3    H164485   7.296   8.010   6.072
21536TIP3    H264486   7.240   8.029   6.211
21537TIP3   OH264487   7.856   8.112   6.360
21537TIP3    H164488   7.920   8.141   6.295
21537TIP3    H264489   7.901   8.123   6.444
21538TIP3   OH264490   8.383   8.202   6.380
21538TIP3    H164491   8.450   8.197   6.312
21538TIP3    H264492   8.403   8.129   6.439
21539TIP3   OH264493   8.483   8.170   5.938
21539TIP3    H164494   8.401   8.217   5.951
21539TIP3    H264495   8.469   8.085   5.977
21540TIP3   OH264496   0.397   0.273   5.913
21540TIP3    H164497   0.315   0.239   5.877
21540TIP3    H264498   0.406   0.360   5.875
21541TIP3   OH264499   7.380   8.083   5.900
21541TIP3    H164500   7.418   8.012   5.848
21541TIP3    H264501   7.455   8.124   5.943
21542TIP3   OH264502   7.858   8.340   6.052
21542TIP3    H164503   7.920   8.283   6.098
21542TIP3    H264504   7.895   8.428   6.059
21543TIP3   OH264505   1.194   0.382   5.555
21543TIP3    H164506   1.263   0.436   5.516
21543TIP3    H264507   1.186   0.308   5.495
21544TIP3   OH264508   0.510   0.256   5.548
21544TIP3    H164509   0.512   0.290   5.637
21544TIP3    H264510   0.598   0.221   5.534
21545TIP3   OH264511   9.467   8.590   5.208
21545TIP3    H164512   9.490   8.550   5.292
21545TIP3    H264513   9.384   8.550   5.184
21546TIP3   OH264514   8.983   8.599   5.667
21546TIP3    H164515   9.025   8.596   5.580
21546TIP3    H264516   8.895   8.632   5.650
21547TIP3   OH264517   9.085   8.598   5.405
21547TIP3    H164518   9.142   8.665   5.368
21547TIP3    H264519   8.996   8.631   5.392
21548TIP3   OH264520   8.885   8.350   5.734
21548TIP3    H164521   8.826   8.360   5.808
21548TIP3    H264522   8.928   8.436   5.726
21549TIP3   OH264523   9.044   8.157   5.615
21549TIP3    H164524   9.080   8.208   5.542
21549TIP3    H264525   8.993   8.221   5.665
21550TIP3   OH264526   9.139   8.316   5.414
21550TIP3    H164527   9.204   8.283   5.351
21550TIP3    H264528   9.149   8.411   5.412
21551TIP3   OH264529   1.264   9.074   7.259
21551TIP3    H164530   1.239   9.010   7.193
21551TIP3    H264531   1.231   9.157   7.226
21552TIP3   OH264532   6.539   0.401   7.645
21552TIP3    H164533   6.500   0.488   7.643
21552TIP3    H264534   6.584   0.393   7.561
21553TIP3   OH264535   5.944   0.324   7.298
21553TIP3    H164536   6.002   0.337   7.373
21553TIP3    H264537   6.003   0.307   7.224
21554TIP3   OH264538   6.107   0.388   7.518
21554TIP3    H164539   6.144   0.313   7.565
21554TIP3    H264540   6.181   0.446   7.502
21555TIP3   OH264541   5.366   0.527   6.909
21555TIP3    H164542   5.394   0.583   6.981
21555TIP3    H264543   5.426   0.549   6.838
21556TIP3   OH264544   5.473   0.053   6.943
21556TIP3    H164545   5.450   0.048   7.036
21556TIP3    H264546   5.442  -0.030   6.906
21557TIP3   OH264547   5.647   0.447   7.078
21557TIP3    H164548   5.644   0.523   7.020
21557TIP3    H264549   5.720   0.394   7.046
21558TIP3   OH264550   5.116   0.010   6.857
21558TIP3    H164551   5.115  -0.003   6.952
21558TIP3    H264552   5.086   0.100   6.845
21559TIP3   OH264553   5.173   0.302   7.156
21559TIP3    H164554   5.266   0.303   7.174
21559TIP3    H264555   5.136   0.370   7.213
21560TIP3   OH264556   5.033   0.261   6.923
21560TIP3    H164557   4.942   0.266   6.953
21560TIP3    H264558   5.085   0.275   7.002
21561TIP3   OH264559   5.044   0.046   7.443
21561TIP3    H164560   5.027   0.006   7.529
21561TIP3    H264561   5.115  -0.007   7.407
21562TIP3   OH264562   5.740   0.130   6.939
21562TIP3    H164563   5.645   0.117   6.937
21562TIP3    H264564   5.752   0.220   6.909
21563TIP3   OH264565   5.877   0.383   6.926
21563TIP3    H164566   5.948   0.346   6.979
21563TIP3    H264567   5.919   0.407   6.843
21564TIP3   OH264568   6.336   0.555   6.812
21564TIP3    H164569   6.261   0.504   6.781
21564TIP3    H264570   6.298   0.632   6.853
21565TIP3   OH264571   5.744   0.145   7.217
21565TIP3    H164572   5.765   0.128   7.125
21565TIP3    H264573   5.815   0.201   7.248
21566TIP3   OH264574   5.443   0.312   7.232
21566TIP3    H164575   5.527   0.327   7.189
21566TIP3    H264576   5.447   0.364   7.312
21567TIP3   OH264577   5.599  -0.008   7.387
21567TIP3    H164578   5.635   0.023   7.470
21567TIP3    H264579   5.646   0.043   7.321
21568TIP3   OH264580   5.127   0.019   7.133
21568TIP3    H164581   5.115   0.110   7.157
21568TIP3    H264582   5.216  -0.002   7.159
21569TIP3   OH264583   5.123   0.483   6.789
21569TIP3    H164584   5.101   0.400   6.831
21569TIP3    H264585   5.203   0.512   6.833
21570TIP3   OH264586   6.133   0.406   6.719
21570TIP3    H164587   6.128   0.427   6.626
21570TIP3    H264588   6.150   0.312   6.722
21571TIP3   OH264589   5.994   0.698   7.213
21571TIP3    H164590   5.921   0.643   7.240
21571TIP3    H264591   6.002   0.764   7.282
21572TIP3   OH264592   5.975   0.190   6.568
21572TIP3    H164593   6.061   0.160   6.595
21572TIP3    H264594   5.914   0.125   6.605
21573TIP3   OH264595   6.093   0.285   7.068
21573TIP3    H164596   6.138   0.206   7.038
21573TIP3    H264597   6.161   0.353   7.069
21574TIP3   OH264598   6.235   0.150   6.674
21574TIP3    H164599   6.221   0.093   6.749
21574TIP3    H264600   6.320   0.191   6.690
21575TIP3   OH264601   5.723   0.090   7.607
21575TIP3    H164602   5.728   0.161   7.671
21575TIP3    H264603   5.814   0.072   7.583
21576TIP3   OH264604   6.207   0.135   7.611
21576TIP3    H164605   6.266   0.129   7.536
21576TIP3    H264606   6.125   0.098   7.580
21577TIP3   OH264607   6.348   0.116   7.373
21577TIP3    H164608   6.413   0.062   7.328
21577TIP3    H264609   6.361   0.204   7.339
21578TIP3   OH264610   1.511   8.960   7.279
21578TIP3    H164611   1.557   9.009   7.212
21578TIP3    H264612   1.429   9.008   7.293
21579TIP3   OH264613   2.119   9.138   7.541
21579TIP3    H164614   2.190   9.165   7.483
21579TIP3    H264615   2.129   9.192   7.619
21580TIP3   OH264616   2.711   9.238   7.538
21580TIP3    H164617   2.744   9.209   7.453
21580TIP3    H264618   2.716   9.161   7.594
21581TIP3   OH264619   1.633   9.107   7.069
21581TIP3    H164620   1.676   9.044   7.012
21581TIP3    H264621   1.705   9.158   7.107
21582TIP3   OH264622   5.392   0.045   7.206
21582TIP3    H164623   5.449   0.001   7.269
21582TIP3    H264624   5.404   0.138   7.223
21583TIP3   OH264625   6.489   0.547   7.047
21583TIP3    H164626   6.448   0.558   6.961
21583TIP3    H264627   6.424   0.500   7.099
21584TIP3   OH264628   8.267   0.660   7.162
21584TIP3    H164629   8.302   0.731   7.216
21584TIP3    H264630   8.319   0.663   7.081
21585TIP3   OH264631   7.668   0.799   7.148
21585TIP3    H164632   7.710   0.722   7.187
21585TIP3    H264633   7.635   0.768   7.064
21586TIP3   OH264634   7.044   0.450   7.174
21586TIP3    H164635   7.040   0.509   7.100
21586TIP3    H264636   6.996   0.372   7.146
21587TIP3   OH264637   7.730   0.562   6.757
21587TIP3    H164638   7.790   0.549   6.830
21587TIP3    H264639   7.787   0.574   6.681
21588TIP3   OH264640   6.603   0.670   7.265
21588TIP3    H164641   6.683   0.618   7.254
21588TIP3    H264642   6.545   0.640   7.195
21589TIP3   OH264643   7.120   0.931   7.077
21589TIP3    H164644   7.191   0.907   7.018
21589TIP3    H264645   7.041   0.901   7.032
21590TIP3   OH264646   8.401   0.859   7.294
21590TIP3    H164647   8.394   0.914   7.216
21590TIP3    H264648   8.416   0.920   7.366
21591TIP3   OH264649   6.996   0.487   7.593
21591TIP3    H164650   6.944   0.524   7.522
21591TIP3    H264651   6.933   0.471   7.664
21592TIP3   OH264652   7.873   0.561   6.985
21592TIP3    H164653   7.835   0.536   7.070
21592TIP3    H264654   7.929   0.636   7.005
21593TIP3   OH264655   6.874   0.584   7.366
21593TIP3    H164656   6.891   0.679   7.371
21593TIP3    H264657   6.931   0.553   7.296
21594TIP3   OH264658   8.074   0.526   7.315
21594TIP3    H164659   7.986   0.544   7.281
21594TIP3    H264660   8.133   0.568   7.252
21595TIP3   OH264661   7.345   0.191   7.309
21595TIP3    H164662   7.338   0.099   7.336
21595TIP3    H264663   7.270   0.234   7.350
21596TIP3   OH264664   7.282   0.706   6.411
21596TIP3    H164665   7.307   0.776   6.351
21596TIP3    H264666   7.340   0.633   6.389
21597TIP3   OH264667   7.992   1.194   7.294
21597TIP3    H164668   7.962   1.274   7.336
21597TIP3    H264669   7.915   1.160   7.249
21598TIP3   OH264670   7.971   0.146   6.384
21598TIP3    H164671   7.898   0.163   6.444
21598TIP3    H264672   7.983   0.228   6.336
21599TIP3   OH264673   8.137   1.050   7.557
21599TIP3    H164674   8.041   1.053   7.552
21599TIP3    H264675   8.157   0.960   7.582
21600TIP3   OH264676   7.113   0.277   7.439
21600TIP3    H164677   7.030   0.244   7.405
21600TIP3    H264678   7.093   0.363   7.474
21601TIP3   OH264679   7.639   0.420   7.630
21601TIP3    H164680   7.715   0.395   7.682
21601TIP3    H264681   7.564   0.387   7.680
21602TIP3   OH264682   7.865   0.787   7.577
21602TIP3    H164683   7.834   0.767   7.665
21602TIP3    H264684   7.861   0.882   7.570
21603TIP3   OH264685   7.236   0.312   6.409
21603TIP3    H164686   7.203   0.315   6.499
21603TIP3    H264687   7.209   0.226   6.376
21604TIP3   OH264688   6.931   0.859   7.415
21604TIP3    H164689   6.933   0.874   7.510
21604TIP3    H264690   6.957   0.943   7.377
21605TIP3   OH264691   7.011   0.598   6.950
21605TIP3    H164692   6.920   0.600   6.983
21605TIP3    H264693   7.002   0.581   6.857
21606TIP3   OH264694   7.444   0.661   6.652
21606TIP3    H164695   7.395   0.738   6.625
21606TIP3    H264696   7.513   0.652   6.586
21607TIP3   OH264697   7.579   0.737   6.899
21607TIP3    H164698   7.497   0.746   6.851
21607TIP3    H264699   7.624   0.663   6.857
21608TIP3   OH264700   6.890   0.269   6.336
21608TIP3    H164701   6.869   0.330   6.406
21608TIP3    H264702   6.820   0.282   6.272
21609TIP3   OH264703   6.445   0.356   7.268
21609TIP3    H164704   6.530   0.366   7.310
21609TIP3    H264705   6.464   0.307   7.188
21610TIP3   OH264706   6.465   0.309   6.781
21610TIP3    H164707   6.482   0.320   6.687
21610TIP3    H264708   6.428   0.393   6.809
21611TIP3   OH264709   7.667   0.949   7.389
21611TIP3    H164710   7.671   0.883   7.319
21611TIP3    H264711   7.577   0.944   7.421
21612TIP3   OH264712   7.293   0.438   7.016
21612TIP3    H164713   7.219   0.416   7.072
21612TIP3    H264714   7.331   0.517   7.057
21613TIP3   OH264715   6.766   0.538   7.068
21613TIP3    H164716   6.673   0.541   7.044
21613TIP3    H264717   6.793   0.449   7.047
21614TIP3   OH264718   7.019   0.592   6.676
21614TIP3    H164719   7.106   0.552   6.682
21614TIP3    H264720   6.977   0.546   6.603
21615TIP3   OH264721   7.771   0.557   7.248
21615TIP3    H164722   7.744   0.583   7.336
21615TIP3    H264723   7.705   0.493   7.221
21616TIP3   OH264724   6.827   0.479   6.508
21616TIP3    H164725   6.741   0.508   6.539
21616TIP3    H264726   6.843   0.530   6.429
21617TIP3   OH264727   7.343   0.686   7.118
21617TIP3    H164728   7.373   0.777   7.121
21617TIP3    H264729   7.309   0.669   7.205
21618TIP3   OH264730   6.863   0.292   7.000
21618TIP3    H164731   6.825   0.217   7.045
21618TIP3    H264732   6.860   0.269   6.907
21619TIP3   OH264733   7.364   0.626   7.432
21619TIP3    H164734   7.323   0.706   7.402
21619TIP3    H264735   7.458   0.645   7.430
21620TIP3   OH264736   7.500   0.385   6.433
21620TIP3    H164737   7.409   0.358   6.428
21620TIP3    H264738   7.506   0.461   6.375
21621TIP3   OH264739   7.639   0.698   6.460
21621TIP3    H164740   7.717   0.646   6.477
21621TIP3    H264741   7.666   0.762   6.395
21622TIP3   OH264742   8.105   0.813   6.299
21622TIP3    H164743   8.023   0.769   6.276
21622TIP3    H264744   8.078   0.883   6.359
21623TIP3   OH264745   7.649   0.648   7.481
21623TIP3    H164746   7.729   0.691   7.512
21623TIP3    H264747   7.643   0.568   7.534
21624TIP3   OH264748   7.577   0.348   6.690
21624TIP3    H164749   7.547   0.367   6.601
21624TIP3    H264750   7.620   0.428   6.719
21625TIP3   OH264751   7.263   0.485   6.746
21625TIP3    H164752   7.334   0.542   6.717
21625TIP3    H264753   7.274   0.481   6.841
21626TIP3   OH264754   7.513   0.857   7.644
21626TIP3    H164755   7.480   0.827   7.729
21626TIP3    H264756   7.574   0.788   7.616
21627TIP3   OH264757   7.402   0.236   6.867
21627TIP3    H164758   7.373   0.312   6.918
21627TIP3    H264759   7.467   0.272   6.806
21628TIP3   OH264760   6.864   0.272   6.698
21628TIP3    H164761   6.847   0.353   6.649
21628TIP3    H264762   6.958   0.259   6.690
21629TIP3   OH264763   8.131   0.766   7.524
21629TIP3    H164764   8.041   0.749   7.550
21629TIP3    H264765   8.125   0.788   7.431
21630TIP3   OH264766   7.826   0.870   6.849
21630TIP3    H164767   7.741   0.830   6.865
21630TIP3    H264768   7.882   0.838   6.921
21631TIP3   OH264769   6.421   0.371   6.520
21631TIP3    H164770   6.333   0.403   6.500
21631TIP3    H264771   6.435   0.300   6.458
21632TIP3   OH264772   6.857   0.185   7.385
21632TIP3    H164773   6.827   0.154   7.299
21632TIP3    H264774   6.844   0.109   7.442
21633TIP3   OH264775   7.046   0.842   6.348
21633TIP3    H164776   6.971   0.790   6.319
21633TIP3    H264777   7.114   0.777   6.367
21634TIP3   OH264778   7.373   0.732   7.851
21634TIP3    H164779   7.328   0.664   7.801
21634TIP3    H264780   7.315   0.808   7.846
21635TIP3   OH264781   7.253   0.556   7.671
21635TIP3    H164782   7.291   0.575   7.585
21635TIP3    H264783   7.161   0.535   7.652
21636TIP3   OH264784   7.396   0.331   7.738
21636TIP3    H164785   7.347   0.411   7.721
21636TIP3    H264786   7.332   0.261   7.723
21637TIP3   OH264787   7.762   0.746   7.819
21637TIP3    H164788   7.703   0.700   7.878
21637TIP3    H264789   7.830   0.783   7.876
21638TIP3   OH264790   8.011   0.751   7.966
21638TIP3    H164791   8.023   0.657   7.952
21638TIP3    H264792   7.972   0.758   8.053
21639TIP3   OH264793   7.500   0.354   7.993
21639TIP3    H164794   7.542   0.275   8.028
21639TIP3    H264795   7.472   0.330   7.905
21640TIP3   OH264796   7.596   0.612   7.992
21640TIP3    H164797   7.564   0.522   7.991
21640TIP3    H264798   7.520   0.664   7.965
21641TIP3   OH264799   7.891   0.673   6.220
21641TIP3    H164800   7.900   0.671   6.124
21641TIP3    H264801   7.877   0.581   6.244
21642TIP3   OH264802   7.817   1.086   6.674
21642TIP3    H164803   7.815   1.001   6.719
21642TIP3    H264804   7.805   1.150   6.744
21643TIP3   OH264805   8.230   1.305   7.614
21643TIP3    H164806   8.178   1.237   7.571
21643TIP3    H264807   8.245   1.370   7.546
21644TIP3   OH264808   7.769   0.422   6.102
21644TIP3    H164809   7.851   0.387   6.138
21644TIP3    H264810   7.703   0.356   6.124
21645TIP3   OH264811   7.878   0.592   6.527
21645TIP3    H164812   7.938   0.518   6.536
21645TIP3    H264813   7.932   0.669   6.543
21646TIP3   OH264814   8.009   0.787   7.048
21646TIP3    H164815   8.087   0.766   6.996
21646TIP3    H264816   8.041   0.799   7.137
21647TIP3   OH264817   8.055   0.900   7.294
21647TIP3    H164818   7.975   0.933   7.335
21647TIP3    H264819   8.109   0.978   7.281
21648TIP3   OH264820   8.526   0.562   7.819
21648TIP3    H164821   8.605   0.527   7.777
21648TIP3    H264822   8.544   0.655   7.830
21649TIP3   OH264823   8.027   0.377   6.596
21649TIP3    H164824   8.062   0.371   6.685
21649TIP3    H264825   7.955   0.313   6.595
21650TIP3   OH264826   6.680   0.392   7.408
21650TIP3    H164827   6.740   0.317   7.402
21650TIP3    H264828   6.737   0.469   7.401
21651TIP3   OH264829   6.592   0.688   7.542
21651TIP3    H164830   6.597   0.677   7.447
21651TIP3    H264831   6.557   0.776   7.555
21652TIP3   OH264832   8.374   0.725   7.625
21652TIP3    H164833   8.287   0.737   7.585
21652TIP3    H264834   8.401   0.638   7.595
21653TIP3   OH264835   8.013   0.369   6.221
21653TIP3    H164836   8.052   0.301   6.165
21653TIP3    H264837   8.085   0.428   6.242
21654TIP3   OH264838   6.479   0.209   7.038
21654TIP3    H164839   6.410   0.143   7.029
21654TIP3    H264840   6.488   0.247   6.950
21655TIP3   OH264841   6.655   0.213   7.805
21655TIP3    H164842   6.645   0.253   7.891
21655TIP3    H264843   6.612   0.274   7.745
21656TIP3   OH264844   8.295   0.476   7.493
21656TIP3    H164845   8.215   0.488   7.442
21656TIP3    H264846   8.317   0.384   7.482
21657TIP3   OH264847   7.568   0.391   7.177
21657TIP3    H164848   7.492   0.336   7.196
21657TIP3    H264849   7.614   0.343   7.108
21658TIP3   OH264850   8.023   0.311   7.062
21658TIP3    H164851   8.066   0.359   6.991
21658TIP3    H264852   7.929   0.322   7.045
21659TIP3   OH264853   8.166   0.374   6.836
21659TIP3    H164854   8.222   0.304   6.801
21659TIP3    H264855   8.219   0.453   6.826
21660TIP3   OH264856   6.758   0.085   7.149
21660TIP3    H164857   6.666   0.062   7.154
21660TIP3    H264858   6.804   0.001   7.144
21661TIP3   OH264859   6.611   0.007   6.811
21661TIP3    H164860   6.618   0.050   6.726
21661TIP3    H264861   6.547   0.058   6.859
21662TIP3   OH264862   7.232   0.131   7.061
21662TIP3    H164863   7.290   0.161   6.990
21662TIP3    H264864   7.276   0.159   7.141
21663TIP3   OH264865   7.747   0.263   7.008
21663TIP3    H164866   7.773   0.222   6.925
21663TIP3    H264867   7.745   0.191   7.071
21664TIP3   OH264868   7.801   0.215   6.591
21664TIP3    H164869   7.723   0.264   6.618
21664TIP3    H264870   7.792   0.129   6.631
21665TIP3   OH264871   6.678   0.125   6.554
21665TIP3    H164872   6.730   0.063   6.504
21665TIP3    H264873   6.741   0.170   6.610
21666TIP3   OH264874   7.133   0.266   6.660
21666TIP3    H164875   7.167   0.179   6.679
21666TIP3    H264876   7.190   0.325   6.708
21667TIP3   OH264877   0.446   4.930   0.011
21667TIP3    H164878   0.416   4.874   0.083
21667TIP3    H264879   0.534   4.957   0.037
21668TIP3   OH264880   0.705   4.961   0.100
21668TIP3    H164881   0.785   4.988   0.055
21668TIP3    H264882   0.733   4.891   0.158
21669TIP3   OH264883   8.044   0.475   7.940
21669TIP3    H164884   8.077   0.450   8.026
21669TIP3    H264885   8.122   0.476   7.884
21670TIP3   OH264886   8.293   0.835   6.558
21670TIP3    H164887   8.272   0.916   6.511
21670TIP3    H264888   8.208   0.793   6.572
21671TIP3   OH264889   9.411   1.070   6.721
21671TIP3    H164890   9.459   0.987   6.715
21671TIP3    H264891   9.445   1.123   6.648
21672TIP3   OH264892   8.853   0.696   6.663
21672TIP3    H164893   8.840   0.758   6.591
21672TIP3    H264894   8.801   0.619   6.639
21673TIP3   OH264895   9.522   0.875   6.220
21673TIP3    H164896   9.578   0.869   6.297
21673TIP3    H264897   9.583   0.882   6.146
21674TIP3   OH264898   8.440   0.934   6.777
21674TIP3    H164899   8.513   0.872   6.776
21674TIP3    H264900   8.385   0.906   6.703
21675TIP3   OH264901   8.911   1.255   6.483
21675TIP3    H164902   8.995   1.210   6.468
21675TIP3    H264903   8.845   1.194   6.450
21676TIP3   OH264904   8.828   0.740   7.077
21676TIP3    H164905   8.768   0.762   7.006
21676TIP3    H264906   8.775   0.744   7.156
21677TIP3   OH264907   9.647   0.881   6.463
21677TIP3    H164908   9.609   0.852   6.546
21677TIP3    H264909   9.739   0.899   6.484
21678TIP3   OH264910   8.679   0.803   6.856
21678TIP3    H164911   8.703   0.895   6.854
21678TIP3    H264912   8.731   0.762   6.787
21679TIP3   OH264913   9.129   0.445   6.760
21679TIP3    H164914   9.133   0.354   6.792
21679TIP3    H264915   9.059   0.485   6.812
21680TIP3   OH264916   8.999   1.053   5.870
21680TIP3    H164917   9.016   1.129   5.925
21680TIP3    H264918   9.068   1.054   5.803
21681TIP3   OH264919   9.769   0.408   5.879
21681TIP3    H164920   9.693   0.429   5.933
21681TIP3    H264921   9.782   0.487   5.825
21682TIP3   OH264922   8.915   0.523   6.920
21682TIP3    H164923   8.830   0.498   6.883
21682TIP3    H264924   8.898   0.607   6.965
21683TIP3   OH264925   9.057   0.587   5.902
21683TIP3    H164926   9.027   0.581   5.992
21683TIP3    H264927   9.033   0.503   5.863
21684TIP3   OH264928   8.747   1.066   6.901
21684TIP3    H164929   8.732   1.043   6.993
21684TIP3    H264930   8.743   1.161   6.899
21685TIP3   OH264931   8.806   0.845   6.442
21685TIP3    H164932   8.717   0.843   6.477
21685TIP3    H264933   8.796   0.824   6.349
21686TIP3   OH264934   9.229   0.994   6.164
21686TIP3    H164935   9.166   1.054   6.202
21686TIP3    H264936   9.253   1.034   6.080
21687TIP3   OH264937   9.371   1.038   6.413
21687TIP3    H164938   9.331   1.003   6.333
21687TIP3    H264939   9.458   0.999   6.416
21688TIP3   OH264940   8.713   1.034   7.174
21688TIP3    H164941   8.648   1.084   7.223
21688TIP3    H264942   8.713   0.948   7.216
21689TIP3   OH264943   8.694   0.523   5.841
21689TIP3    H164944   8.653   0.470   5.910
21689TIP3    H264945   8.690   0.612   5.874
21690TIP3   OH264946   8.345   0.556   6.725
21690TIP3    H164947   8.288   0.631   6.717
21690TIP3    H264948   8.340   0.511   6.640
21691TIP3   OH264949   8.211   0.563   6.259
21691TIP3    H164950   8.235   0.575   6.167
21691TIP3    H264951   8.182   0.650   6.288
21692TIP3   OH264952   9.094   0.717   6.500
21692TIP3    H164953   9.021   0.691   6.557
21692TIP3    H264954   9.138   0.786   6.549
21693TIP3   OH264955   8.568   0.773   6.558
21693TIP3    H164956   8.475   0.782   6.540
21693TIP3    H264957   8.586   0.680   6.545
21694TIP3   OH264958   8.789   0.798   6.169
21694TIP3    H164959   8.881   0.773   6.170
21694TIP3    H264960   8.759   0.776   6.081
21695TIP3   OH264961   9.529   0.821   6.707
21695TIP3    H164962   9.568   0.787   6.788
21695TIP3    H264963   9.457   0.761   6.689
21696TIP3   OH264964   8.648   0.775   5.927
21696TIP3    H164965   8.564   0.802   5.965
21696TIP3    H264966   8.680   0.852   5.881
21697TIP3   OH264967   9.167   0.950   6.631
21697TIP3    H164968   9.252   0.984   6.659
21697TIP3    H264969   9.103   1.003   6.677
21698TIP3   OH264970   8.690   0.518   6.519
21698TIP3    H164971   8.634   0.448   6.552
21698TIP3    H264972   8.769   0.473   6.489
21699TIP3   OH264973   9.113   1.018   6.973
21699TIP3    H164974   9.099   0.928   6.943
21699TIP3    H264975   9.074   1.072   6.905
21700TIP3   OH264976   9.322   0.688   5.905
21700TIP3    H164977   9.227   0.680   5.898
21700TIP3    H264978   9.342   0.777   5.877
21701TIP3   OH264979   9.438   0.937   5.840
21701TIP3    H164980   9.511   0.920   5.900
21701TIP3    H264981   9.479   0.957   5.757
21702TIP3   OH264982   9.804   1.034   5.800
21702TIP3    H164983   9.739   1.046   5.731
21702TIP3    H264984   9.844   1.120   5.810
21703TIP3   OH264985   8.670   0.780   7.298
21703TIP3    H164986   8.574   0.786   7.295
21703TIP3    H264987   8.688   0.719   7.369
21704TIP3   OH264988   9.378   0.642   6.170
21704TIP3    H164989   9.354   0.656   6.078
21704TIP3    H264990   9.418   0.724   6.197
21705TIP3   OH264991   9.066   0.775   6.223
21705TIP3    H164992   9.134   0.838   6.199
21705TIP3    H264993   9.070   0.771   6.319
21706TIP3   OH264994   9.196   0.517   6.342
21706TIP3    H164995   9.171   0.589   6.401
21706TIP3    H264996   9.261   0.555   6.284
21707TIP3   OH264997   8.678   0.515   6.132
21707TIP3    H164998   8.657   0.584   6.194
21707TIP3    H264999   8.774   0.508   6.136
21708TIP3   OH265000   8.219   0.652   6.003
21708TIP3    H165001   8.170   0.734   5.996
21708TIP3    H265002   8.172   0.591   5.945
21709TIP3   OH265003   8.660   0.447   6.853
21709TIP3    H165004   8.623   0.406   6.774
21709TIP3    H265005   8.638   0.387   6.924
21710TIP3   OH265006   8.730   1.005   5.807
21710TIP3    H165007   8.726   0.961   5.722
21710TIP3    H265008   8.820   1.035   5.814
21711TIP3   OH265009   9.087   0.798   7.153
21711TIP3    H165010   9.100   0.891   7.132
21711TIP3    H265011   8.994   0.782   7.132
21712TIP3   OH265012   9.194   0.547   7.152
21712TIP3    H165013   9.168   0.639   7.159
21712TIP3    H265014   9.112   0.499   7.167
21713TIP3   OH265015   9.599   0.986   5.615
21713TIP3    H165016   9.635   1.014   5.530
21713TIP3    H265017   9.594   0.890   5.608
21714TIP3   OH265018   9.745   1.243   6.182
21714TIP3    H165019   9.661   1.210   6.148
21714TIP3    H265020   9.724   1.279   6.268
21715TIP3   OH265021   9.579   0.713   5.607
21715TIP3    H165022   9.660   0.674   5.639
21715TIP3    H265023   9.515   0.642   5.613
21716TIP3   OH265024   9.668   0.897   5.992
21716TIP3    H165025   9.719   0.817   6.005
21716TIP3    H265026   9.722   0.950   5.934
21717TIP3   OH265027   8.485   0.960   7.545
21717TIP3    H165028   8.580   0.949   7.546
21717TIP3    H265029   8.452   0.880   7.585
21718TIP3   OH265030   9.793   0.665   6.063
21718TIP3    H165031   9.833   0.661   6.150
21718TIP3    H265032   9.724   0.598   6.065
21719TIP3   OH265033   8.447   0.671   6.953
21719TIP3    H165034   8.434   0.607   6.882
21719TIP3    H265035   8.534   0.707   6.937
21720TIP3   OH265036   8.370   0.975   7.045
21720TIP3    H165037   8.403   0.953   6.958
21720TIP3    H265038   8.340   1.065   7.038
21721TIP3   OH265039   0.020   0.616   5.702
21721TIP3    H165040   0.061   0.552   5.644
21721TIP3    H265041   0.076   0.694   5.695
21722TIP3   OH265042   8.277   0.436   6.488
21722TIP3    H165043   8.192   0.401   6.516
21722TIP3    H265044   8.258   0.482   6.406
21723TIP3   OH265045   8.475   0.499   7.278
21723TIP3    H165046   8.423   0.501   7.358
21723TIP3    H265047   8.420   0.542   7.212
21724TIP3   OH265048   9.342   0.625   6.672
21724TIP3    H165049   9.265   0.570   6.682
21724TIP3    H265050   9.393   0.582   6.603
21725TIP3   OH265051   9.820   0.575   6.538
21725TIP3    H165052   9.854   0.625   6.463
21725TIP3    H265053   9.725   0.579   6.528
21726TIP3   OH265054   0.139   0.661   6.302
21726TIP3    H165055   0.199   0.593   6.271
21726TIP3    H265056   0.178   0.743   6.272
21727TIP3   OH265057   8.562   0.301   6.631
21727TIP3    H165058   8.470   0.281   6.649
21727TIP3    H265059   8.599   0.218   6.600
21728TIP3   OH265060   8.315   0.245   6.264
21728TIP3    H165061   8.364   0.290   6.195
21728TIP3    H265062   8.334   0.294   6.344
21729TIP3   OH265063   8.980   0.415   6.513
21729TIP3    H165064   9.049   0.436   6.449
21729TIP3    H265065   9.023   0.424   6.598
21730TIP3   OH265066   9.543   0.516   6.506
21730TIP3    H165067   9.552   0.474   6.420
21730TIP3    H265068   9.547   0.443   6.568
21731TIP3   OH265069   9.588   0.482   6.077
21731TIP3    H165070   9.512   0.532   6.106
21731TIP3    H265071   9.575   0.394   6.114
21732TIP3   OH265072   8.465   0.367   6.046
21732TIP3    H165073   8.510   0.293   6.005
21732TIP3    H265074   8.535   0.415   6.091
21733TIP3   OH265075   8.952   0.532   6.151
21733TIP3    H165076   8.981   0.442   6.167
21733TIP3    H265077   9.012   0.586   6.203
21734TIP3   OH265078   8.757   0.612   7.511
21734TIP3    H165079   8.739   0.544   7.577
21734TIP3    H265080   8.831   0.661   7.547
21735TIP3   OH265081   0.159   1.203   5.972
21735TIP3    H165082   0.105   1.249   6.036
21735TIP3    H265083   0.167   1.114   6.006
21736TIP3   OH265084   1.078   0.747   5.352
21736TIP3    H165085   1.130   0.718   5.427
21736TIP3    H265086   1.006   0.685   5.348
21737TIP3   OH265087   0.667   0.806   5.372
21737TIP3    H165088   0.658   0.813   5.467
21737TIP3    H265089   0.596   0.860   5.338
21738TIP3   OH265090   0.282   0.844   6.155
21738TIP3    H165091   0.375   0.866   6.161
21738TIP3    H265092   0.275   0.795   6.073
21739TIP3   OH265093   0.174   0.847   5.699
21739TIP3    H165094   0.215   0.894   5.626
21739TIP3    H265095   0.116   0.912   5.739
21740TIP3   OH265096   0.557   1.040   5.549
21740TIP3    H165097   0.473   1.028   5.505
21740TIP3    H265098   0.616   1.072   5.481
21741TIP3   OH265099   0.645   0.799   5.646
21741TIP3    H165100   0.601   0.884   5.644
21741TIP3    H265101   0.738   0.820   5.652
21742TIP3   OH265102   0.225   1.045   5.502
21742TIP3    H165103   0.279   1.119   5.476
21742TIP3    H265104   0.149   1.049   5.444
21743TIP3   OH265105   0.716   1.148   5.358
21743TIP3    H165106   0.685   1.181   5.274
21743TIP3    H265107   0.802   1.110   5.338
21744TIP3   OH265108   0.235   0.700   5.924
21744TIP3    H165109   0.146   0.678   5.954
21744TIP3    H265110   0.221   0.754   5.846
21745TIP3   OH265111   0.529   0.627   6.119
21745TIP3    H165112   0.440   0.593   6.121
21745TIP3    H265113   0.584   0.549   6.107
21746TIP3   OH265114   0.359   0.500   5.769
21746TIP3    H165115   0.385   0.544   5.688
21746TIP3    H265116   0.326   0.570   5.825
21747TIP3   OH265117   0.456   0.624   5.541
21747TIP3    H165118   0.500   0.569   5.476
21747TIP3    H265119   0.527   0.674   5.582
21748TIP3   OH265120   0.243   6.807   1.501
21748TIP3    H165121   0.252   6.902   1.488
21748TIP3    H265122   0.328   6.771   1.476
21749TIP3   OH265123   9.530   6.930   1.622
21749TIP3    H165124   9.601   6.871   1.596
21749TIP3    H265125   9.551   6.954   1.712
21750TIP3   OH265126  -0.024   6.190   1.691
21750TIP3    H165127  -0.048   6.170   1.600
21750TIP3    H265128   0.072   6.187   1.691
21751TIP3   OH265129   0.193   6.844   1.770
21751TIP3    H165130   0.222   6.763   1.813
21751TIP3    H265131   0.222   6.835   1.679
21752TIP3   OH265132   0.280   7.076   1.507
21752TIP3    H165133   0.338   7.151   1.491
21752TIP3    H265134   0.200   7.115   1.542
21753TIP3   OH265135   9.376   6.640   1.666
21753TIP3    H165136   9.331   6.715   1.705
21753TIP3    H265137   9.314   6.567   1.675
21754TIP3   OH265138   9.747   6.784   1.529
21754TIP3    H165139   9.827   6.802   1.578
21754TIP3    H265140   9.772   6.798   1.438
21755TIP3   OH265141   0.276   6.319   1.566
21755TIP3    H165142   0.232   6.265   1.499
21755TIP3    H265143   0.236   6.405   1.558
21756TIP3   OH265144   0.216   7.113   1.834
21756TIP3    H165145   0.211   7.018   1.822
21756TIP3    H265146   0.168   7.148   1.759
21757TIP3   OH265147   1.090   6.798   1.166
21757TIP3    H165148   1.116   6.706   1.167
21757TIP3    H265149   1.094   6.825   1.258
21758TIP3   OH265150   1.064   6.996   1.366
21758TIP3    H165151   1.038   7.080   1.330
21758TIP3    H265152   1.058   7.008   1.461
21759TIP3   OH265153   0.746   6.752   1.383
21759TIP3    H165154   0.827   6.709   1.411
21759TIP3    H265155   0.773   6.814   1.316
21760TIP3   OH265156   1.219   7.018   1.066
21760TIP3    H165157   1.173   6.943   1.103
21760TIP3    H265158   1.311   6.992   1.066
21761TIP3   OH265159   1.012   7.244   1.265
21761TIP3    H165160   1.073   7.279   1.330
21761TIP3    H265161   1.011   7.309   1.195
21762TIP3   OH265162   0.484   6.708   1.431
21762TIP3    H165163   0.578   6.731   1.433
21762TIP3    H265164   0.483   6.615   1.412
21763TIP3   OH265165   0.402   7.277   1.948
21763TIP3    H165166   0.328   7.234   1.904
21763TIP3    H265167   0.456   7.205   1.980
21764TIP3   OH265168   0.565   7.040   1.562
21764TIP3    H165169   0.476   7.009   1.576
21764TIP3    H265170   0.559   7.135   1.573
21765TIP3   OH265171   1.288   7.283   1.125
21765TIP3    H165172   1.218   7.339   1.091
21765TIP3    H265173   1.256   7.194   1.111
21766TIP3   OH265174   0.605   7.071   1.290
21766TIP3    H165175   0.596   7.063   1.385
21766TIP3    H265176   0.683   7.019   1.270
21767TIP3   OH265177   8.018   8.424   1.620
21767TIP3    H165178   7.944   8.365   1.635
21767TIP3    H265179   8.094   8.366   1.622
21768TIP3   OH265180   7.881   8.693   1.696
21768TIP3    H165181   7.915   8.744   1.623
21768TIP3    H265182   7.884   8.753   1.771
21769TIP3   OH265183   7.809   5.374   0.419
21769TIP3    H165184   7.798   5.455   0.370
21769TIP3    H265185   7.722   5.335   0.421
21770TIP3   OH265186   9.658   8.494   1.977
21770TIP3    H165187   9.621   8.458   2.058
21770TIP3    H265188   9.750   8.512   1.998
21771TIP3   OH265189   9.265   8.934   2.018
21771TIP3    H165190   9.278   8.866   1.951
21771TIP3    H265191   9.306   8.898   2.096
21772TIP3   OH265192   9.255   8.374   1.793
21772TIP3    H165193   9.206   8.346   1.716
21772TIP3    H265194   9.204   8.446   1.829
21773TIP3   OH265195   9.342   8.755   1.810
21773TIP3    H165196   9.395   8.676   1.797
21773TIP3    H265197   9.401   8.827   1.789
21774TIP3   OH265198   9.522   8.558   1.741
21774TIP3    H165199   9.502   8.472   1.703
21774TIP3    H265200   9.572   8.538   1.820
21775TIP3   OH265201   9.164   8.007   1.761
21775TIP3    H165202   9.100   8.077   1.746
21775TIP3    H265203   9.228   8.017   1.691
21776TIP3   OH265204   9.177   7.837   1.461
21776TIP3    H165205   9.237   7.877   1.525
21776TIP3    H265206   9.233   7.779   1.409
21777TIP3   OH265207   9.529   8.135   1.755
21777TIP3    H165208   9.474   8.162   1.829
21777TIP3    H265209   9.607   8.097   1.796
21778TIP3   OH265210   9.386   7.975   1.585
21778TIP3    H165211   9.438   8.036   1.637
21778TIP3    H265212   9.410   7.994   1.494
21779TIP3   OH265213   9.099   8.613   1.816
21779TIP3    H165214   9.175   8.670   1.816
21779TIP3    H265215   9.066   8.617   1.726
21780TIP3   OH265216   0.067   7.214   1.620
21780TIP3    H165217  -0.002   7.241   1.680
21780TIP3    H265218   0.080   7.289   1.562
21781TIP3   OH265219   9.689   8.587   1.174
21781TIP3    H165220   9.697   8.681   1.159
21781TIP3    H265221   9.777   8.553   1.163
21782TIP3   OH265222   8.974   8.917   1.636
21782TIP3    H165223   8.953   8.875   1.552
21782TIP3    H265224   8.889   8.941   1.673
21783TIP3   OH265225   9.189   8.786   1.305
21783TIP3    H165226   9.254   8.722   1.277
21783TIP3    H265227   9.212   8.806   1.395
21784TIP3   OH265228   9.234   8.856   1.566
21784TIP3    H165229   9.150   8.877   1.605
21784TIP3    H265230   9.286   8.819   1.638
21785TIP3   OH265231   9.455   8.022   1.327
21785TIP3    H165232   9.412   7.988   1.249
21785TIP3    H265233   9.539   8.053   1.296
21786TIP3   OH265234   9.170   7.494   1.622
21786TIP3    H165235   9.117   7.547   1.681
21786TIP3    H265236   9.187   7.413   1.670
21787TIP3   OH265237   9.315   7.826   1.912
21787TIP3    H165238   9.254   7.886   1.869
21787TIP3    H265239   9.370   7.792   1.842
21788TIP3   OH265240   8.843   7.429   1.623
21788TIP3    H165241   8.772   7.432   1.687
21788TIP3    H265242   8.805   7.380   1.549
21789TIP3   OH265243   8.699   7.731   1.680
21789TIP3    H165244   8.666   7.663   1.621
21789TIP3    H265245   8.793   7.731   1.665
21790TIP3   OH265246   8.913   8.181   1.772
21790TIP3    H165247   8.850   8.119   1.734
21790TIP3    H265248   8.915   8.160   1.865
21791TIP3   OH265249   9.409   7.555   1.506
21791TIP3    H165250   9.323   7.528   1.540
21791TIP3    H265251   9.448   7.605   1.577
21792TIP3   OH265252   9.486   7.738   1.702
21792TIP3    H165253   9.581   7.746   1.715
21792TIP3    H265254   9.462   7.817   1.654
21793TIP3   OH265255   9.072   8.319   1.586
21793TIP3    H165256   9.037   8.408   1.578
21793TIP3    H265257   9.010   8.273   1.642
21794TIP3   OH265258   0.090   7.840   1.494
21794TIP3    H165259   0.034   7.794   1.432
21794TIP3    H265260   0.090   7.931   1.464
21795TIP3   OH265261   9.609   8.658   1.468
21795TIP3    H165262   9.583   8.614   1.549
21795TIP3    H265263   9.634   8.587   1.409
21796TIP3   OH265264   8.675   8.765   1.874
21796TIP3    H165265   8.598   8.734   1.922
21796TIP3    H265266   8.748   8.715   1.910
21797TIP3   OH265267   9.392   8.389   1.349
21797TIP3    H165268   9.440   8.367   1.429
21797TIP3    H265269   9.312   8.338   1.353
21798TIP3   OH265270   9.700   8.856   1.128
21798TIP3    H165271   9.710   8.913   1.052
21798TIP3    H265272   9.635   8.900   1.182
21799TIP3   OH265273   9.556   8.331   1.564
21799TIP3    H165274   9.538   8.262   1.627
21799TIP3    H265275   9.651   8.329   1.551
21800TIP3   OH265276   8.796   8.348   1.348
21800TIP3    H165277   8.789   8.256   1.321
21800TIP3    H265278   8.773   8.348   1.441
21801TIP3   OH265279   8.756   8.361   1.617
21801TIP3    H165280   8.793   8.314   1.691
21801TIP3    H265281   8.742   8.450   1.650
21802TIP3   OH265282   9.473   7.457   1.801
21802TIP3    H165283   9.390   7.413   1.779
21802TIP3    H265284   9.452   7.550   1.799
21803TIP3   OH265285   8.978   8.582   1.559
21803TIP3    H165286   8.888   8.606   1.582
21803TIP3    H265287   8.980   8.587   1.463
21804TIP3   OH265288   8.714   8.648   1.616
21804TIP3    H165289   8.641   8.641   1.554
21804TIP3    H265290   8.677   8.692   1.692
21805TIP3   OH265291   8.467   8.369   1.502
21805TIP3    H165292   8.456   8.364   1.597
21805TIP3    H265293   8.513   8.288   1.479
21806TIP3   OH265294   9.662   9.084   2.099
21806TIP3    H165295   9.623   9.058   2.015
21806TIP3    H265296   9.756   9.090   2.080
21807TIP3   OH265297   8.919   8.571   1.269
21807TIP3    H165298   8.868   8.495   1.296
21807TIP3    H265299   8.993   8.534   1.220
21808TIP3   OH265300   9.381   8.608   1.190
21808TIP3    H165301   9.381   8.535   1.252
21808TIP3    H265302   9.473   8.634   1.184
21809TIP3   OH265303   8.578   8.123   1.466
21809TIP3    H165304   8.619   8.092   1.547
21809TIP3    H265305   8.642   8.103   1.397
21810TIP3   OH265306   9.144   8.273   1.319
21810TIP3    H165307   9.108   8.276   1.408
21810TIP3    H265308   9.134   8.182   1.293
21811TIP3   OH265309   8.739   8.003   1.659
21811TIP3    H165310   8.695   7.929   1.702
21811TIP3    H265311   8.802   7.961   1.601
21812TIP3   OH265312   8.898   7.856   1.490
21812TIP3    H165313   8.898   7.857   1.394
21812TIP3    H265314   8.990   7.838   1.513
21813TIP3   OH265315   9.680   8.111   1.195
21813TIP3    H165316   9.666   8.058   1.116
21813TIP3    H265317   9.647   8.198   1.172
21814TIP3   OH265318   8.660   8.944   1.488
21814TIP3    H165319   8.735   8.886   1.487
21814TIP3    H265320   8.635   8.953   1.395
21815TIP3   OH265321   8.203   8.225   1.611
21815TIP3    H165322   8.279   8.233   1.669
21815TIP3    H265323   8.199   8.132   1.591
21816TIP3   OH265324   0.121   9.151   2.019
21816TIP3    H165325   0.154   9.234   2.053
21816TIP3    H265326   0.192   9.117   1.965
21817TIP3   OH265327   0.032   8.313   1.540
21817TIP3    H165328   0.095   8.379   1.510
21817TIP3    H265329   0.076   8.272   1.615
21818TIP3   OH265330   0.155   8.167   1.742
21818TIP3    H165331   0.090   8.123   1.796
21818TIP3    H265332   0.218   8.202   1.804
21819TIP3   OH265333   0.124   8.545   2.054
21819TIP3    H165334   0.199   8.495   2.086
21819TIP3    H265335   0.162   8.629   2.026
21820TIP3   OH265336   0.075   8.089   1.383
21820TIP3    H165337   0.007   8.091   1.316
21820TIP3    H265338   0.057   8.165   1.438
21821TIP3   OH265339   9.735   7.733   1.299
21821TIP3    H165340   9.672   7.761   1.233
21821TIP3    H265341   9.746   7.639   1.284
21822TIP3   OH265342   9.752   8.004   1.865
21822TIP3    H165343   9.757   7.921   1.818
21822TIP3    H265344   9.759   7.980   1.958
21823TIP3   OH265345   9.750   7.462   1.246
21823TIP3    H165346   9.812   7.446   1.318
21823TIP3    H265347   9.669   7.423   1.276
21824TIP3   OH265348   9.765   7.761   1.730
21824TIP3    H165349   9.803   7.677   1.757
21824TIP3    H265350   9.811   7.784   1.650
21825TIP3   OH265351   0.082   7.514   1.799
21825TIP3    H165352   0.126   7.519   1.884
21825TIP3    H265353   0.021   7.441   1.808
21826TIP3   OH265354   0.137   7.413   1.443
21826TIP3    H165355   0.180   7.353   1.382
21826TIP3    H265356   0.196   7.488   1.448
21827TIP3   OH265357   9.495   8.955   1.719
21827TIP3    H165358   9.556   8.954   1.645
21827TIP3    H265359   9.513   9.037   1.764
21828TIP3   OH265360   9.696   7.305   1.817
21828TIP3    H165361   9.618   7.360   1.804
21828TIP3    H265362   9.674   7.250   1.892
21829TIP3   OH265363   8.189   8.620   1.717
21829TIP3    H165364   8.112   8.569   1.693
21829TIP3    H265365   8.161   8.711   1.712
21830TIP3   OH265366   8.913   8.822   1.384
21830TIP3    H165367   9.003   8.831   1.353
21830TIP3    H265368   8.880   8.742   1.343
21831TIP3   OH265369   9.655   8.926   1.488
21831TIP3    H165370   9.646   8.830   1.487
21831TIP3    H265371   9.613   8.955   1.407
21832TIP3   OH265372   8.306   8.657   1.468
21832TIP3    H165373   8.277   8.641   1.558
21832TIP3    H265374   8.291   8.574   1.423
21833TIP3   OH265375   1.353   8.422   1.450
21833TIP3    H165376   1.328   8.511   1.427
21833TIP3    H265377   1.286   8.367   1.410
21834TIP3   OH265378   1.233   8.485   1.799
21834TIP3    H165379   1.288   8.496   1.876
21834TIP3    H265380   1.280   8.421   1.745
21835TIP3   OH265381   0.643   8.358   2.209
21835TIP3    H165382   0.720   8.372   2.263
21835TIP3    H265383   0.677   8.348   2.120
21836TIP3   OH265384   1.615   8.647   1.483
21836TIP3    H165385   1.575   8.600   1.556
21836TIP3    H265386   1.632   8.734   1.518
21837TIP3   OH265387   0.615   8.752   1.916
21837TIP3    H165388   0.594   8.660   1.898
21837TIP3    H265389   0.706   8.761   1.886
21838TIP3   OH265390   0.309   7.952   1.636
21838TIP3    H165391   0.266   8.031   1.670
21838TIP3    H265392   0.238   7.903   1.594
21839TIP3   OH265393   0.380   8.257   1.887
21839TIP3    H165394   0.428   8.178   1.910
21839TIP3    H265395   0.444   8.312   1.841
21840TIP3   OH265396   1.184   9.166   1.399
21840TIP3    H165397   1.230   9.089   1.368
21840TIP3    H265398   1.213   9.177   1.490
21841TIP3   OH265399   1.120   8.729   1.814
21841TIP3    H165400   1.158   8.644   1.792
21841TIP3    H265401   1.188   8.792   1.788
21842TIP3   OH265402   0.855   7.806   1.847
21842TIP3    H165403   0.842   7.880   1.788
21842TIP3    H265404   0.815   7.732   1.802
21843TIP3   OH265405   0.533   8.040   1.942
21843TIP3    H165406   0.600   8.009   2.003
21843TIP3    H265407   0.535   7.976   1.870
21844TIP3   OH265408   0.902   8.218   1.777
21844TIP3    H165409   0.993   8.193   1.790
21844TIP3    H265410   0.861   8.140   1.739
21845TIP3   OH265411   1.236   8.626   1.299
21845TIP3    H165412   1.208   8.604   1.211
21845TIP3    H265413   1.185   8.704   1.322
21846TIP3   OH265414   0.994   8.584   2.021
21846TIP3    H165415   0.943   8.651   2.066
21846TIP3    H265416   1.037   8.630   1.949
21847TIP3   OH265417   0.760   7.943   2.072
21847TIP3    H165418   0.821   8.012   2.098
21847TIP3    H265419   0.804   7.898   2.001
21848TIP3   OH265420   0.208   8.494   1.418
21848TIP3    H165421   0.175   8.510   1.329
21848TIP3    H265422   0.232   8.581   1.450
21849TIP3   OH265423   1.607   8.887   1.615
21849TIP3    H165424   1.512   8.894   1.629
21849TIP3    H265425   1.631   8.969   1.571
21850TIP3   OH265426   1.356   8.977   1.303
21850TIP3    H165427   1.409   8.897   1.294
21850TIP3    H265428   1.410   9.046   1.265
21851TIP3   OH265429   1.526   8.772   1.253
21851TIP3    H165430   1.514   8.707   1.184
21851TIP3    H265431   1.557   8.722   1.328
21852TIP3   OH265432   1.180   8.290   1.278
21852TIP3    H165433   1.096   8.331   1.257
21852TIP3    H265434   1.226   8.286   1.194
21853TIP3   OH265435   1.144   8.106   0.950
21853TIP3    H165436   1.207   8.155   1.003
21853TIP3    H265437   1.195   8.035   0.911
21854TIP3   OH265438   1.532   8.389   1.238
21854TIP3    H165439   1.475   8.407   1.313
21854TIP3    H265440   1.618   8.370   1.277
21855TIP3   OH265441   0.738   8.372   1.613
21855TIP3    H165442   0.703   8.307   1.552
21855TIP3    H265443   0.802   8.324   1.666
21856TIP3   OH265444   0.854   8.779   1.779
21856TIP3    H165445   0.830   8.764   1.688
21856TIP3    H265446   0.947   8.757   1.784
21857TIP3   OH265447   0.808   8.373   1.983
21857TIP3    H165448   0.844   8.313   1.918
21857TIP3    H265449   0.879   8.435   2.001
21858TIP3   OH265450   1.330   8.913   1.751
21858TIP3    H165451   1.315   9.002   1.719
21858TIP3    H265452   1.384   8.925   1.829
21859TIP3   OH265453   1.362   8.249   1.066
21859TIP3    H165454   1.424   8.305   1.113
21859TIP3    H265455   1.387   8.256   0.974
21860TIP3   OH265456   1.102   8.870   1.312
21860TIP3    H165457   1.191   8.906   1.311
21860TIP3    H265458   1.050   8.935   1.264
21861TIP3   OH265459   0.627   8.195   1.426
21861TIP3    H165460   0.545   8.235   1.397
21861TIP3    H265461   0.602   8.104   1.447
21862TIP3   OH265462   1.693   8.840   0.670
21862TIP3    H165463   1.688   8.932   0.646
21862TIP3    H265464   1.784   8.815   0.651
21863TIP3   OH265465   0.289   8.766   1.973
21863TIP3    H165466   0.365   8.710   1.958
21863TIP3    H265467   0.319   8.832   2.035
21864TIP3   OH265468   1.001   9.087   1.144
21864TIP3    H165469   0.963   9.081   1.056
21864TIP3    H265470   0.961   9.166   1.181
21865TIP3   OH265471   0.429   8.984   1.519
21865TIP3    H165472   0.474   8.975   1.603
21865TIP3    H265473   0.378   8.904   1.510
21866TIP3   OH265474   1.196   9.060   0.761
21866TIP3    H165475   1.246   8.986   0.726
21866TIP3    H265476   1.227   9.068   0.851
21867TIP3   OH265477   1.252   9.092   1.027
21867TIP3    H165478   1.175   9.079   1.082
21867TIP3    H265479   1.326   9.091   1.088
21868TIP3   OH265480   1.428   8.251   0.803
21868TIP3    H165481   1.381   8.236   0.721
21868TIP3    H265482   1.514   8.284   0.775
21869TIP3   OH265483   1.169   7.645   1.122
21869TIP3    H165484   1.143   7.636   1.214
21869TIP3    H265485   1.129   7.569   1.079
21870TIP3   OH265486   0.789   7.999   1.663
21870TIP3    H165487   0.700   7.970   1.685
21870TIP3    H265488   0.806   7.961   1.577
21871TIP3   OH265489   1.282   8.081   1.419
21871TIP3    H165490   1.239   8.157   1.380
21871TIP3    H265491   1.341   8.048   1.351
21872TIP3   OH265492   0.836   7.611   1.100
21872TIP3    H165493   0.828   7.608   1.196
21872TIP3    H265494   0.755   7.651   1.070
21873TIP3   OH265495   0.349   7.637   1.917
21873TIP3    H165496   0.438   7.654   1.948
21873TIP3    H265497   0.361   7.587   1.836
21874TIP3   OH265498   0.287   7.646   1.458
21874TIP3    H165499   0.332   7.678   1.379
21874TIP3    H265500   0.222   7.713   1.478
21875TIP3   OH265501   1.120   7.848   1.716
21875TIP3    H165502   1.082   7.761   1.728
21875TIP3    H265503   1.081   7.901   1.785
21876TIP3   OH265504   0.557   7.872   1.722
21876TIP3    H165505   0.469   7.885   1.688
21876TIP3    H265506   0.579   7.782   1.696
21877TIP3   OH265507   0.824   7.873   1.422
21877TIP3    H165508   0.918   7.886   1.411
21877TIP3    H265509   0.786   7.894   1.337
21878TIP3   OH265510   0.717   7.916   1.176
21878TIP3    H165511   0.661   7.857   1.125
21878TIP3    H265512   0.773   7.958   1.112
21879TIP3   OH265513   0.709   7.627   1.678
21879TIP3    H165514   0.667   7.551   1.719
21879TIP3    H265515   0.743   7.594   1.595
21880TIP3   OH265516   0.939   8.411   1.208
21880TIP3    H165517   0.864   8.358   1.183
21880TIP3    H265518   0.910   8.460   1.285
21881TIP3   OH265519   1.405   7.772   1.076
21881TIP3    H165520   1.317   7.737   1.090
21881TIP3    H265521   1.403   7.860   1.114
21882TIP3   OH265522   1.435   8.013   1.200
21882TIP3    H165523   1.518   8.024   1.247
21882TIP3    H265524   1.426   8.094   1.149
21883TIP3   OH265525   0.607   8.485   1.834
21883TIP3    H165526   0.640   8.458   1.748
21883TIP3    H265527   0.668   8.446   1.896
21884TIP3   OH265528   1.096   8.574   1.057
21884TIP3    H165529   1.047   8.656   1.053
21884TIP3    H265530   1.041   8.514   1.107
21885TIP3   OH265531   1.918   8.089   0.853
21885TIP3    H165532   1.838   8.036   0.844
21885TIP3    H265533   1.890   8.178   0.832
21886TIP3   OH265534   1.618   8.887   0.936
21886TIP3    H165535   1.586   8.813   0.987
21886TIP3    H265536   1.635   8.850   0.849
21887TIP3   OH265537   0.741   8.782   1.526
21887TIP3    H165538   0.741   8.861   1.471
21887TIP3    H265539   0.651   8.751   1.524
21888TIP3   OH265540   0.311   8.058   1.245
21888TIP3    H165541   0.357   8.139   1.266
21888TIP3    H265542   0.231   8.061   1.298
21889TIP3   OH265543   0.827   8.545   1.414
21889TIP3    H165544   0.825   8.633   1.451
21889TIP3    H265545   0.802   8.487   1.486
21890TIP3   OH265546   0.984   9.124   1.984
21890TIP3    H165547   1.036   9.204   1.977
21890TIP3    H265548   0.989   9.100   2.076
21891TIP3   OH265549   0.659   9.001   1.373
21891TIP3    H165550   0.572   9.001   1.413
21891TIP3    H265551   0.684   9.094   1.373
21892TIP3   OH265552   1.382   8.644   0.822
21892TIP3    H165553   1.423   8.623   0.906
21892TIP3    H265554   1.299   8.596   0.823
21893TIP3   OH265555   1.701   9.112   0.627
21893TIP3    H165556   1.746   9.180   0.578
21893TIP3    H265557   1.626   9.156   0.668
21894TIP3   OH265558   1.540   8.587   1.043
21894TIP3    H165559   1.526   8.516   1.106
21894TIP3    H265560   1.632   8.579   1.018
21895TIP3   OH265561   0.459   8.952   2.104
21895TIP3    H165562   0.533   8.898   2.076
21895TIP3    H265563   0.487   8.992   2.186
21896TIP3   OH265564   0.729   8.607   0.848
21896TIP3    H165565   0.741   8.516   0.820
21896TIP3    H265566   0.718   8.602   0.943
21897TIP3   OH265567   0.668   8.625   1.122
21897TIP3    H165568   0.729   8.598   1.190
21897TIP3    H265569   0.672   8.720   1.122
21898TIP3   OH265570   0.400   8.313   1.321
21898TIP3    H165571   0.337   8.361   1.374
21898TIP3    H265572   0.419   8.372   1.248
21899TIP3   OH265573   1.479   7.638   1.313
21899TIP3    H165574   1.462   7.693   1.236
21899TIP3    H265575   1.495   7.701   1.383
21900TIP3   OH265576   0.941   8.796   1.040
21900TIP3    H165577   0.859   8.824   1.080
21900TIP3    H265578   0.972   8.873   0.993
21901TIP3   OH265579   1.096   7.887   1.448
21901TIP3    H165580   1.160   7.955   1.428
21901TIP3    H265581   1.103   7.874   1.543
21902TIP3   OH265582   0.697   8.898   1.123
21902TIP3    H165583   0.679   8.971   1.064
21902TIP3    H265584   0.685   8.935   1.210
21903TIP3   OH265585   0.805   7.599   1.379
21903TIP3    H165586   0.804   7.692   1.403
21903TIP3    H265587   0.893   7.570   1.402
21904TIP3   OH265588   0.423   8.493   1.104
21904TIP3    H165589   0.496   8.554   1.117
21904TIP3    H265590   0.456   8.429   1.041
21905TIP3   OH265591   0.342   7.780   1.227
21905TIP3    H165592   0.342   7.876   1.232
21905TIP3    H265593   0.272   7.760   1.164
21906TIP3   OH265594   1.678   9.134   1.525
21906TIP3    H165595   1.626   9.190   1.467
21906TIP3    H265596   1.765   9.174   1.526
21907TIP3   OH265597   0.256   8.765   1.493
21907TIP3    H165598   0.213   8.800   1.572
21907TIP3    H265599   0.210   8.807   1.420
21908TIP3   OH265600   0.881   8.808   0.731
21908TIP3    H165601   0.836   8.739   0.780
21908TIP3    H265602   0.956   8.764   0.691
21909TIP3   OH265603   1.327   8.850   0.649
21909TIP3    H165604   1.362   8.786   0.711
21909TIP3    H265605   1.385   8.842   0.573
21910TIP3   OH265606   0.549   8.305   0.951
21910TIP3    H165607   0.599   8.278   1.029
21910TIP3    H265608   0.616   8.317   0.884
21911TIP3   OH265609   1.135   8.519   0.791
21911TIP3    H165610   1.112   8.528   0.883
21911TIP3    H265611   1.113   8.429   0.769
21912TIP3   OH265612   0.722   8.244   1.162
21912TIP3    H165613   0.701   8.214   1.251
21912TIP3    H265614   0.772   8.172   1.124
21913TIP3   OH265615   0.873   8.067   1.008
21913TIP3    H165616   0.843   8.070   0.917
21913TIP3    H265617   0.968   8.077   1.003
21914TIP3   OH265618   1.645   8.362   0.665
21914TIP3    H165619   1.628   8.316   0.583
21914TIP3    H265620   1.619   8.453   0.647
21915TIP3   OH265621   0.696   9.116   0.949
21915TIP3    H165622   0.784   9.093   0.922
21915TIP3    H265623   0.657   9.158   0.872
21916TIP3   OH265624   0.149   8.489   1.134
21916TIP3    H165625   0.243   8.502   1.126
21916TIP3    H265626   0.132   8.407   1.088
21917TIP3   OH265627   0.063   9.077   1.579
21917TIP3    H165628  -0.004   9.025   1.536
21917TIP3    H265629   0.107   9.016   1.638
21918TIP3   OH265630   0.204   8.904   1.741
21918TIP3    H165631   0.201   8.834   1.807
21918TIP3    H265632   0.255   8.974   1.783
21919TIP3   OH265633   5.205  -0.002   1.550
21919TIP3    H165634   5.203  -0.040   1.638
21919TIP3    H265635   5.268   0.069   1.556
21920TIP3   OH265636   1.812   8.562   1.005
21920TIP3    H165637   1.876   8.627   0.976
21920TIP3    H265638   1.845   8.529   1.088
21921TIP3   OH265639   1.927   8.422   1.218
21921TIP3    H165640   1.954   8.350   1.161
21921TIP3    H265641   2.008   8.470   1.235
21922TIP3   OH265642   1.867   8.359   0.822
21922TIP3    H165643   1.793   8.357   0.762
21922TIP3    H265644   1.844   8.426   0.887
21923TIP3   OH265645   1.660   7.978   0.798
21923TIP3    H165646   1.626   7.979   0.709
21923TIP3    H265647   1.669   7.886   0.820
21924TIP3   OH265648   0.378   8.426   2.110
21924TIP3    H165649   0.371   8.364   2.038
21924TIP3    H265650   0.462   8.406   2.151
21925TIP3   OH265651   1.700   7.709   0.822
21925TIP3    H165652   1.793   7.717   0.841
21925TIP3    H265653   1.688   7.617   0.799
21926TIP3   OH265654   0.334   7.494   1.677
21926TIP3    H165655   0.244   7.487   1.708
21926TIP3    H265656   0.329   7.555   1.603
21927TIP3   OH265657   1.477   9.180   1.168
21927TIP3    H165658   1.551   9.177   1.106
21927TIP3    H265659   1.508   9.236   1.239
21928TIP3   OH265660   3.914   0.020   2.040
21928TIP3    H165661   3.846   0.088   2.034
21928TIP3    H265662   3.947   0.011   1.951
21929TIP3   OH265663   4.352   0.090   1.796
21929TIP3    H165664   4.272   0.071   1.746
21929TIP3    H265665   4.341   0.180   1.826
21930TIP3   OH265666   1.318   9.238   1.920
21930TIP3    H165667   1.233   9.260   1.882
21930TIP3    H265668   1.371   9.209   1.846
21931TIP3   OH265669   4.917   0.155   1.862
21931TIP3    H165670   4.958   0.217   1.922
21931TIP3    H265671   4.941   0.187   1.775
21932TIP3   OH265672   0.364   9.089   1.886
21932TIP3    H165673   0.386   9.056   1.973
21932TIP3    H265674   0.436   9.059   1.831
21933TIP3   OH265675   0.570   8.974   1.754
21933TIP3    H165676   0.581   8.894   1.806
21933TIP3    H265677   0.658   9.012   1.750
21934TIP3   OH265678   0.838   9.053   1.768
21934TIP3    H165679   0.854   8.958   1.762
21934TIP3    H265680   0.887   9.081   1.845
21935TIP3   OH265681   0.608   7.413   1.814
21935TIP3    H165682   0.518   7.392   1.839
21935TIP3    H265683   0.657   7.332   1.829
21936TIP3   OH265684   0.449   7.299   1.506
21936TIP3    H165685   0.491   7.349   1.437
21936TIP3    H265686   0.422   7.364   1.571
21937TIP3   OH265687   0.137   8.887   1.277
21937TIP3    H165688   0.057   8.856   1.235
21937TIP3    H265689   0.144   8.979   1.249
21938TIP3   OH265690   0.587   7.438   1.295
21938TIP3    H165691   0.633   7.378   1.236
21938TIP3    H265692   0.657   7.493   1.331
21939TIP3   OH265693   1.097   7.620   1.390
21939TIP3    H165694   1.165   7.589   1.449
21939TIP3    H265695   1.095   7.715   1.403
21940TIP3   OH265696   0.945   9.031   0.873
21940TIP3    H165697   1.027   9.058   0.831
21940TIP3    H265698   0.913   8.958   0.819
21941TIP3   OH265699   1.661   9.152   0.962
21941TIP3    H165700   1.647   9.058   0.955
21941TIP3    H265701   1.613   9.189   0.887
21942TIP3   OH265702   0.265   8.883   0.935
21942TIP3    H165703   0.266   8.887   1.031
21942TIP3    H265704   0.343   8.834   0.912
21943TIP3   OH265705   2.001   8.736   0.895
21943TIP3    H165706   1.969   8.756   0.807
21943TIP3    H265707   2.034   8.820   0.928
21944TIP3   OH265708   6.062   0.160   0.601
21944TIP3    H165709   6.013   0.138   0.522
21944TIP3    H265710   6.019   0.238   0.635
21945TIP3   OH265711   2.245   9.211   1.015
21945TIP3    H165712   2.323   9.168   1.051
21945TIP3    H265713   2.184   9.139   0.998
21946TIP3   OH265714   6.262   0.050   0.254
21946TIP3    H165715   6.318  -0.021   0.223
21946TIP3    H265716   6.298   0.074   0.339
21947TIP3   OH265717   6.315   0.104   0.524
21947TIP3    H165718   6.228   0.118   0.561
21947TIP3    H265719   6.361   0.052   0.589
21948TIP3   OH265720   2.798   8.813   0.518
21948TIP3    H165721   2.782   8.906   0.532
21948TIP3    H265722   2.847   8.785   0.595
21949TIP3   OH265723   2.481   9.079   1.053
21949TIP3    H165724   2.518   9.129   0.980
21949TIP3    H265725   2.512   8.989   1.039
21950TIP3   OH265726   2.131   8.331   0.745
21950TIP3    H165727   2.172   8.416   0.762
21950TIP3    H265728   2.043   8.340   0.781
21951TIP3   OH265729   5.725   0.048   0.848
21951TIP3    H165730   5.644   0.041   0.899
21951TIP3    H265731   5.749   0.140   0.853
21952TIP3   OH265732   6.676   0.066   0.109
21952TIP3    H165733   6.732   0.109   0.044
21952TIP3    H265734   6.626   0.138   0.148
21953TIP3   OH265735   2.519   8.871   0.329
21953TIP3    H165736   2.539   8.781   0.304
21953TIP3    H265737   2.505   8.868   0.423
21954TIP3   OH265738   2.460   8.889   0.597
21954TIP3    H165739   2.533   8.857   0.650
21954TIP3    H265740   2.465   8.984   0.605
21955TIP3   OH265741   2.213   8.592   0.791
21955TIP3    H165742   2.142   8.631   0.841
21955TIP3    H265743   2.222   8.647   0.713
21956TIP3   OH265744   2.746   9.077   0.557
21956TIP3    H165745   2.658   9.105   0.583
21956TIP3    H265746   2.781   9.150   0.506
21957TIP3   OH265747   2.489   9.162   0.608
21957TIP3    H165748   2.469   9.230   0.543
21957TIP3    H265749   2.478   9.206   0.692
21958TIP3   OH265750   2.218   8.760   0.568
21958TIP3    H165751   2.292   8.820   0.581
21958TIP3    H265752   2.249   8.698   0.502
21959TIP3   OH265753   2.143   8.069   0.655
21959TIP3    H165754   2.157   8.155   0.695
21959TIP3    H265755   2.078   8.027   0.711
21960TIP3   OH265756   2.064   8.999   0.971
21960TIP3    H165757   1.998   9.016   1.038
21960TIP3    H265758   2.027   9.037   0.891
21961TIP3   OH265759   2.681   9.061   0.214
21961TIP3    H165760   2.632   8.991   0.258
21961TIP3    H265761   2.759   9.019   0.180
21962TIP3   OH265762   3.158   9.091   0.153
21962TIP3    H165763   3.246   9.097   0.190
21962TIP3    H265764   3.171   9.100   0.058
21963TIP3   OH265765   2.338   8.563   0.417
21963TIP3    H165766   2.373   8.508   0.487
21963TIP3    H265767   2.412   8.578   0.358
21964TIP3   OH265768   2.821   8.781   0.249
21964TIP3    H165769   2.813   8.793   0.343
21964TIP3    H265770   2.812   8.686   0.236
21965TIP3   OH265771   5.752   0.130   0.423
21965TIP3    H165772   5.840   0.105   0.395
21965TIP3    H265773   5.713   0.170   0.346
21966TIP3   OH265774   1.950   8.756   0.618
21966TIP3    H165775   2.043   8.773   0.603
21966TIP3    H265776   1.932   8.674   0.572
21967TIP3   OH265777   1.902   9.260   1.016
21967TIP3    H165778   1.828   9.205   0.990
21967TIP3    H265779   1.932   9.223   1.099
21968TIP3   OH265780   1.999   9.183   1.265
21968TIP3    H165781   1.965   9.161   1.352
21968TIP3    H265782   2.091   9.202   1.280
21969TIP3   OH265783   5.512   0.046   1.357
21969TIP3    H165784   5.506   0.077   1.447
21969TIP3    H265785   5.593  -0.006   1.356
21970TIP3   OH265786   1.952   9.101   0.745
21970TIP3    H165787   1.865   9.071   0.718
21970TIP3    H265788   1.961   9.189   0.709
21971TIP3   OH265789   6.004   0.049   0.350
21971TIP3    H165790   6.090   0.068   0.312
21971TIP3    H265791   5.973  -0.028   0.302
21972TIP3   OH265792   2.053   9.128   0.409
21972TIP3    H165793   2.052   9.137   0.504
21972TIP3    H265794   2.135   9.082   0.390
21973TIP3   OH265795   0.878   0.866   1.817
21973TIP3    H165796   0.859   0.778   1.787
21973TIP3    H265797   0.825   0.876   1.897
21974TIP3   OH265798   0.517   0.156   1.643
21974TIP3    H165799   0.612   0.163   1.657
21974TIP3    H265800   0.495   0.067   1.670
21975TIP3   OH265801   0.730   0.368   1.744
21975TIP3    H165802   0.764   0.282   1.768
21975TIP3    H265803   0.726   0.366   1.649
21976TIP3   OH265804   1.010   0.900   1.324
21976TIP3    H165805   1.005   0.995   1.311
21976TIP3    H265806   1.102   0.879   1.308
21977TIP3   OH265807   0.338   1.207   1.788
21977TIP3    H165808   0.294   1.186   1.706
21977TIP3    H265809   0.294   1.286   1.819
21978TIP3   OH265810   0.524   1.130   1.431
21978TIP3    H165811   0.572   1.055   1.394
21978TIP3    H265812   0.560   1.139   1.519
21979TIP3   OH265813   0.591   1.170   1.694
21979TIP3    H165814   0.508   1.169   1.742
21979TIP3    H265815   0.658   1.174   1.762
21980TIP3   OH265816   0.754   0.353   1.471
21980TIP3    H165817   0.710   0.333   1.388
21980TIP3    H265818   0.843   0.376   1.446
21981TIP3   OH265819   0.357   0.612   1.713
21981TIP3    H165820   0.340   0.706   1.713
21981TIP3    H265821   0.274   0.573   1.742
21982TIP3   OH265822   1.237   0.188   1.641
21982TIP3    H165823   1.159   0.145   1.606
21982TIP3    H265824   1.235   0.276   1.603
21983TIP3   OH265825   0.982   0.993   1.598
21983TIP3    H165826   0.948   0.946   1.674
21983TIP3    H265827   0.973   0.932   1.525
21984TIP3   OH265828   0.706   0.712   1.486
21984TIP3    H165829   0.747   0.684   1.568
21984TIP3    H265830   0.620   0.670   1.487
21985TIP3   OH265831   1.008   1.173   1.292
21985TIP3    H165832   1.021   1.233   1.218
21985TIP3    H265833   0.940   1.215   1.344
21986TIP3   OH265834   0.847   0.618   1.708
21986TIP3    H165835   0.813   0.532   1.733
21986TIP3    H265836   0.941   0.605   1.698
21987TIP3   OH265837   0.057   0.705   1.487
21987TIP3    H165838   0.104   0.636   1.441
21987TIP3    H265839  -0.007   0.659   1.542
21988TIP3   OH265840   0.271   0.869   1.702
21988TIP3    H165841   0.177   0.880   1.713
21988TIP3    H265842   0.303   0.957   1.682
21989TIP3   OH265843   9.808   0.946   1.732
21989TIP3    H165844   9.793   1.023   1.676
21989TIP3    H265845   9.766   0.970   1.815
21990TIP3   OH265846   0.210   0.904   1.385
21990TIP3    H165847   0.163   0.839   1.438
21990TIP3    H265848   0.284   0.856   1.348
21991TIP3   OH265849   0.650   0.918   1.312
21991TIP3    H165850   0.685   0.855   1.376
21991TIP3    H265851   0.709   0.911   1.237
21992TIP3   OH265852   9.691   0.516   1.591
21992TIP3    H165853   9.670   0.503   1.684
21992TIP3    H265854   9.721   0.430   1.561
21993TIP3   OH265855   0.453   0.603   1.455
21993TIP3    H165856   0.416   0.602   1.543
21993TIP3    H265857   0.441   0.513   1.423
21994TIP3   OH265858   0.173   0.157   1.774
21994TIP3    H165859   0.112   0.089   1.745
21994TIP3    H265860   0.212   0.190   1.693
21995TIP3   OH265861   0.986   0.429   1.340
21995TIP3    H165862   0.973   0.379   1.259
21995TIP3    H265863   0.955   0.517   1.320
21996TIP3   OH265864   0.000   1.172   1.579
21996TIP3    H165865   0.095   1.168   1.567
21996TIP3    H265866  -0.031   1.220   1.502
21997TIP3   OH265867   1.131   0.621   1.686
21997TIP3    H165868   1.180   0.696   1.654
21997TIP3    H265869   1.184   0.587   1.759
21998TIP3   OH265870   1.290   0.512   1.887
21998TIP3    H165871   1.239   0.507   1.967
21998TIP3    H265872   1.373   0.553   1.914
21999TIP3   OH265873   1.199   0.424   1.509
21999TIP3    H165874   1.126   0.415   1.448
21999TIP3    H265875   1.172   0.494   1.569
22000TIP3   OH265876   1.018   0.109   1.486
22000TIP3    H165877   0.984   0.094   1.398
22000TIP3    H265878   1.025   0.022   1.525
22001TIP3   OH265879   7.571   9.111   1.613
22001TIP3    H165880   7.614   9.061   1.544
22001TIP3    H265881   7.481   9.077   1.615
22002TIP3   OH265882   7.858   8.986   1.634
22002TIP3    H165883   7.838   8.963   1.543
22002TIP3    H265884   7.883   9.079   1.630
22003TIP3   OH265885   0.786   1.258   1.865
22003TIP3    H165886   0.852   1.257   1.795
22003TIP3    H265887   0.829   1.304   1.938
22004TIP3   OH265888   0.268   1.123   1.534
22004TIP3    H165889   0.353   1.144   1.497
22004TIP3    H265890   0.237   1.048   1.483
22005TIP3   OH265891   0.958   1.257   1.644
22005TIP3    H165892   0.972   1.164   1.630
22005TIP3    H265893   0.916   1.287   1.563
22006TIP3   OH265894   9.356   0.903   1.581
22006TIP3    H165895   9.361   0.961   1.656
22006TIP3    H265896   9.447   0.883   1.559
22007TIP3   OH265897   2.449   0.729   1.583
22007TIP3    H165898   2.424   0.818   1.562
22007TIP3    H265899   2.379   0.675   1.546
22008TIP3   OH265900   2.441   0.765   1.954
22008TIP3    H165901   2.477   0.738   2.039
22008TIP3    H265902   2.394   0.688   1.923
22009TIP3   OH265903   2.718   1.024   1.649
22009TIP3    H165904   2.711   0.965   1.723
22009TIP3    H265905   2.719   1.112   1.688
22010TIP3   OH265906   1.751   1.040   2.009
22010TIP3    H165907   1.735   0.946   2.018
22010TIP3    H265908   1.846   1.047   1.996
22011TIP3   OH265909   1.437   0.281   1.813
22011TIP3    H165910   1.395   0.363   1.839
22011TIP3    H265911   1.370   0.236   1.760
22012TIP3   OH265912   1.532   0.589   1.984
22012TIP3    H165913   1.584   0.520   2.024
22012TIP3    H265914   1.588   0.667   1.988
22013TIP3   OH265915   2.367   1.511   1.652
22013TIP3    H165916   2.402   1.432   1.611
22013TIP3    H265917   2.378   1.495   1.746
22014TIP3   OH265918   2.239   0.956   1.975
22014TIP3    H165919   2.299   0.888   1.945
22014TIP3    H265920   2.294   1.018   2.023
22015TIP3   OH265921   3.281   0.320   1.986
22015TIP3    H165922   3.261   0.414   1.986
22015TIP3    H265923   3.328   0.306   1.903
22016TIP3   OH265924   2.622   0.438   2.044
22016TIP3    H165925   2.655   0.352   2.073
22016TIP3    H265926   2.622   0.433   1.949
22017TIP3   OH265927   2.000   0.100   1.927
22017TIP3    H165928   1.962   0.171   1.876
22017TIP3    H265929   1.953   0.102   2.010
22018TIP3   OH265930   2.710   0.266   1.624
22018TIP3    H165931   2.769   0.246   1.697
22018TIP3    H265932   2.768   0.287   1.551
22019TIP3   OH265933   2.072   0.523   1.880
22019TIP3    H165934   2.165   0.506   1.892
22019TIP3    H265935   2.034   0.438   1.861
22020TIP3   OH265936   2.354   0.956   1.438
22020TIP3    H165937   2.314   0.929   1.355
22020TIP3    H265938   2.305   1.034   1.463
22021TIP3   OH265939   2.888   0.259   1.831
22021TIP3    H165940   2.927   0.202   1.897
22021TIP3    H265941   2.934   0.343   1.842
22022TIP3   OH265942   1.310   0.810   1.567
22022TIP3    H165943   1.279   0.829   1.479
22022TIP3    H265944   1.330   0.896   1.605
22023TIP3   OH265945   2.724   1.269   1.777
22023TIP3    H165946   2.661   1.269   1.850
22023TIP3    H265947   2.715   1.355   1.737
22024TIP3   OH265948   3.058   0.156   2.035
22024TIP3    H165949   3.077   0.113   2.119
22024TIP3    H265950   3.133   0.214   2.021
22025TIP3   OH265951   2.479   1.313   1.498
22025TIP3    H165952   2.525   1.234   1.471
22025TIP3    H265953   2.516   1.382   1.444
22026TIP3   OH265954   2.601   1.084   1.408
22026TIP3    H165955   2.523   1.029   1.409
22026TIP3    H265956   2.652   1.054   1.483
22027TIP3   OH265957   2.282   0.564   1.433
22027TIP3    H165958   2.200   0.611   1.416
22027TIP3    H265959   2.330   0.569   1.351
22028TIP3   OH265960   2.242   0.414   1.110
22028TIP3    H165961   2.309   0.466   1.155
22028TIP3    H265962   2.292   0.351   1.058
22029TIP3   OH265963   3.153   0.823   1.991
22029TIP3    H165964   3.070   0.870   1.997
22029TIP3    H265965   3.195   0.859   1.913
22030TIP3   OH265966   2.633   0.696   1.379
22030TIP3    H165967   2.580   0.719   1.456
22030TIP3    H265968   2.718   0.672   1.416
22031TIP3   OH265969   1.866   0.672   1.761
22031TIP3    H165970   1.819   0.606   1.709
22031TIP3    H265971   1.940   0.624   1.798
22032TIP3   OH265972   2.007   1.092   1.910
22032TIP3    H165973   1.987   1.077   1.818
22032TIP3    H265974   2.087   1.042   1.926
22033TIP3   OH265975   2.008   0.708   2.080
22033TIP3    H165976   2.036   0.643   2.016
22033TIP3    H265977   2.077   0.774   2.080
22034TIP3   OH265978   2.552   1.293   1.989
22034TIP3    H165979   2.476   1.345   1.963
22034TIP3    H265980   2.515   1.213   2.024
22035TIP3   OH265981   2.467   0.550   1.215
22035TIP3    H165982   2.524   0.613   1.259
22035TIP3    H265983   2.496   0.552   1.123
22036TIP3   OH265984   2.227   1.201   1.471
22036TIP3    H165985   2.307   1.251   1.487
22036TIP3    H265986   2.170   1.262   1.423
22037TIP3   OH265987   9.520   9.010   1.260
22037TIP3    H165988   9.448   9.030   1.320
22037TIP3    H265989   9.532   9.090   1.209
22038TIP3   OH265990   1.726   0.487   1.593
22038TIP3    H165991   1.666   0.555   1.564
22038TIP3    H265992   1.673   0.407   1.595
22039TIP3   OH265993   2.807   1.156   0.819
22039TIP3    H165994   2.799   1.249   0.798
22039TIP3    H265995   2.896   1.134   0.793
22040TIP3   OH265996   2.115   1.433   1.306
22040TIP3    H165997   2.072   1.413   1.223
22040TIP3    H265998   2.075   1.515   1.335
22041TIP3   OH265999   1.541   1.300   1.672
22041TIP3    H166000   1.583   1.293   1.758
22041TIP3    H266001   1.489   1.220   1.664
22042TIP3   OH266002   2.307   1.375   0.917
22042TIP3    H166003   2.361   1.305   0.880
22042TIP3    H266004   2.340   1.386   1.007
22043TIP3   OH266005   2.360   1.424   1.181
22043TIP3    H166006   2.281   1.417   1.235
22043TIP3    H266007   2.432   1.433   1.244
22044TIP3   OH266008   2.548   0.525   0.952
22044TIP3    H166009   2.499   0.535   0.869
22044TIP3    H266010   2.631   0.569   0.936
22045TIP3   OH266011   8.785   9.206   1.290
22045TIP3    H166012   8.727   9.219   1.365
22045TIP3    H266013   8.758   9.121   1.254
22046TIP3   OH266014   1.896   0.315   1.782
22046TIP3    H166015   1.816   0.269   1.809
22046TIP3    H266016   1.871   0.365   1.705
22047TIP3   OH266017   2.370   0.330   1.551
22047TIP3    H166018   2.325   0.409   1.522
22047TIP3    H266019   2.441   0.318   1.488
22048TIP3   OH266020   2.567   0.455   1.766
22048TIP3    H166021   2.540   0.519   1.700
22048TIP3    H266022   2.610   0.386   1.715
22049TIP3   OH266023   8.425   9.147   1.269
22049TIP3    H166024   8.359   9.093   1.312
22049TIP3    H266025   8.375   9.216   1.225
22050TIP3   OH266026   1.433  -0.003   1.628
22050TIP3    H166027   1.470   0.026   1.545
22050TIP3    H266028   1.362   0.059   1.646
22051TIP3   OH266029   2.558   0.668   2.180
22051TIP3    H166030   2.593   0.588   2.140
22051TIP3    H266031   2.575   0.658   2.273
22052TIP3   OH266032   2.262   0.170   1.863
22052TIP3    H166033   2.174   0.150   1.896
22052TIP3    H266034   2.320   0.117   1.916
22053TIP3   OH266035   1.682   0.161   1.853
22053TIP3    H166036   1.598   0.207   1.844
22053TIP3    H266037   1.658   0.068   1.852
22054TIP3   OH266038   2.699   0.178   2.090
22054TIP3    H166039   2.746   0.145   2.166
22054TIP3    H266040   2.713   0.111   2.023
22055TIP3   OH266041   1.855   0.204   1.377
22055TIP3    H166042   1.780   0.171   1.327
22055TIP3    H266043   1.906   0.254   1.314
22056TIP3   OH266044   2.347   0.494   1.933
22056TIP3    H166045   2.422   0.474   1.877
22056TIP3    H266046   2.376   0.471   2.021
22057TIP3   OH266047   8.451   9.110   1.767
22057TIP3    H166048   8.358   9.093   1.781
22057TIP3    H266049   8.473   9.178   1.830
22058TIP3   OH266050   2.053   0.710   1.374
22058TIP3    H166051   1.976   0.662   1.345
22058TIP3    H266052   2.021   0.766   1.445
22059TIP3   OH266053   2.919   0.974   1.993
22059TIP3    H166054   2.949   1.011   1.910
22059TIP3    H266055   2.834   0.935   1.973
22060TIP3   OH266056   2.498   0.073   1.240
22060TIP3    H166057   2.408   0.044   1.255
22060TIP3    H266058   2.496   0.167   1.258
22061TIP3   OH266059   2.563   0.325   1.350
22061TIP3    H166060   2.658   0.331   1.354
22061TIP3    H266061   2.536   0.402   1.299
22062TIP3   OH266062   1.751   0.761   1.998
22062TIP3    H166063   1.780   0.742   1.908
22062TIP3    H266064   1.828   0.743   2.052
22063TIP3   OH266065   2.195   0.886   1.216
22063TIP3    H166066   2.146   0.969   1.213
22063TIP3    H266067   2.139   0.828   1.267
22064TIP3   OH266068   2.980   0.414   1.155
22064TIP3    H166069   2.922   0.367   1.095
22064TIP3    H266070   2.988   0.501   1.117
22065TIP3   OH266071   2.716   1.203   1.084
22065TIP3    H166072   2.685   1.130   1.139
22065TIP3    H266073   2.739   1.163   1.001
22066TIP3   OH266074   2.692   0.857   1.874
22066TIP3    H166075   2.602   0.829   1.886
22066TIP3    H266076   2.736   0.781   1.837
22067TIP3   OH266077   1.856   1.098   1.673
22067TIP3    H166078   1.848   1.173   1.614
22067TIP3    H266079   1.777   1.100   1.726
22068TIP3   OH266080   1.443   0.394   1.395
22068TIP3    H166081   1.483   0.479   1.415
22068TIP3    H266082   1.356   0.399   1.434
22069TIP3   OH266083   1.934   0.859   1.565
22069TIP3    H166084   1.918   0.947   1.598
22069TIP3    H266085   1.909   0.802   1.638
22070TIP3   OH266086   2.108   1.455   2.130
22070TIP3    H166087   2.137   1.539   2.094
22070TIP3    H266088   2.145   1.452   2.218
22071TIP3   OH266089   1.771   1.316   1.524
22071TIP3    H166090   1.684   1.320   1.565
22071TIP3    H266091   1.802   1.407   1.526
22072TIP3   OH266092   2.481   1.049   2.095
22072TIP3    H166093   2.489   1.024   2.187
22072TIP3    H266094   2.528   0.980   2.048
22073TIP3   OH266095   2.496   0.964   0.966
22073TIP3    H166096   2.544   0.933   1.043
22073TIP3    H266097   2.412   0.919   0.970
22074TIP3   OH266098   2.802   1.429   0.780
22074TIP3    H166099   2.848   1.502   0.737
22074TIP3    H266100   2.720   1.467   0.810
22075TIP3   OH266101   2.659   0.869   1.162
22075TIP3    H166102   2.640   0.822   1.243
22075TIP3    H266103   2.755   0.874   1.159
22076TIP3   OH266104   1.843   0.926   0.999
22076TIP3    H166105   1.853   0.835   0.971
22076TIP3    H266106   1.831   0.922   1.093
22077TIP3   OH266107   1.785   0.944   1.273
22077TIP3    H166108   1.835   0.923   1.352
22077TIP3    H266109   1.783   1.039   1.270
22078TIP3   OH266110   1.526   0.647   1.484
22078TIP3    H166111   1.456   0.689   1.533
22078TIP3    H266112   1.541   0.704   1.409
22079TIP3   OH266113   2.618   0.033   1.485
22079TIP3    H166114   2.589   0.050   1.396
22079TIP3    H266115   2.649   0.118   1.517
22080TIP3   OH266116   2.054   1.119   1.202
22080TIP3    H166117   1.968   1.146   1.236
22080TIP3    H266118   2.082   1.193   1.149
22081TIP3   OH266119   2.423   0.032   1.671
22081TIP3    H166120   2.445  -0.021   1.748
22081TIP3    H266121   2.487   0.007   1.605
22082TIP3   OH266122   1.805   1.216   1.272
22082TIP3    H166123   1.785   1.289   1.213
22082TIP3    H266124   1.791   1.253   1.360
22083TIP3   OH266125   8.541   9.215   1.507
22083TIP3    H166126   8.497   9.298   1.524
22083TIP3    H266127   8.508   9.187   1.422
22084TIP3   OH266128   2.799   0.618   1.777
22084TIP3    H166129   2.728   0.558   1.801
22084TIP3    H266130   2.876   0.582   1.821
22085TIP3   OH266131   1.542   0.811   1.259
22085TIP3    H166132   1.614   0.874   1.265
22085TIP3    H266133   1.572   0.747   1.194
22086TIP3   OH266134   1.477   0.118   1.388
22086TIP3    H166135   1.472   0.214   1.390
22086TIP3    H266136   1.409   0.092   1.325
22087TIP3   OH266137   2.734   1.540   1.709
22087TIP3    H166138   2.697   1.585   1.633
22087TIP3    H266139   2.828   1.539   1.692
22088TIP3   OH266140   1.362   1.083   1.650
22088TIP3    H166141   1.319   1.122   1.725
22088TIP3    H266142   1.320   1.124   1.574
22089TIP3   OH266143   1.986   1.135   0.886
22089TIP3    H166144   1.941   1.063   0.930
22089TIP3    H266145   2.063   1.094   0.846
22090TIP3   OH266146   2.443   1.173   0.797
22090TIP3    H166147   2.480   1.108   0.857
22090TIP3    H266148   2.494   1.163   0.717
22091TIP3   OH266149   1.663   0.619   1.107
22091TIP3    H166150   1.713   0.592   1.184
22091TIP3    H266151   1.730   0.633   1.039
22092TIP3   OH266152   2.251   0.839   0.951
22092TIP3    H166153   2.224   0.848   1.043
22092TIP3    H266154   2.224   0.750   0.927
22093TIP3   OH266155   1.832   0.547   1.322
22093TIP3    H166156   1.805   0.511   1.407
22093TIP3    H266157   1.881   0.476   1.280
22094TIP3   OH266158   1.979   0.361   1.183
22094TIP3    H166159   1.942   0.362   1.095
22094TIP3    H266160   2.073   0.378   1.169
22095TIP3   OH266161   2.768   0.654   0.840
22095TIP3    H166162   2.753   0.617   0.754
22095TIP3    H266163   2.749   0.747   0.830
22096TIP3   OH266164   1.803   1.432   1.099
22096TIP3    H166165   1.893   1.412   1.074
22096TIP3    H266166   1.765   1.474   1.021
22097TIP3   OH266167   1.269   0.817   1.275
22097TIP3    H166168   1.364   0.827   1.273
22097TIP3    H266169   1.253   0.732   1.234
22098TIP3   OH266170   1.170   1.411   1.721
22098TIP3    H166171   1.100   1.358   1.683
22098TIP3    H266172   1.215   1.351   1.781
22099TIP3   OH266173   1.302   1.240   1.892
22099TIP3    H166174   1.256   1.190   1.959
22099TIP3    H266175   1.359   1.299   1.940
22100TIP3   OH266176   3.011   1.558   1.724
22100TIP3    H166177   2.995   1.524   1.812
22100TIP3    H266178   3.006   1.653   1.735
22101TIP3   OH266179   2.935   0.864   1.177
22101TIP3    H166180   2.990   0.932   1.136
22101TIP3    H266181   2.984   0.837   1.254
22102TIP3   OH266182   3.064   0.742   1.395
22102TIP3    H166183   2.988   0.695   1.429
22102TIP3    H266184   3.093   0.796   1.468
22103TIP3   OH266185   3.013   1.068   1.760
22103TIP3    H166186   3.099   1.111   1.761
22103TIP3    H266187   2.967   1.109   1.687
22104TIP3   OH266188   2.951   1.324   1.929
22104TIP3    H166189   2.980   1.255   1.989
22104TIP3    H266190   2.883   1.282   1.875
22105TIP3   OH266191   2.981   0.649   1.014
22105TIP3    H166192   2.910   0.643   0.950
22105TIP3    H266193   2.960   0.725   1.067
22106TIP3   OH266194   2.825   0.301   0.962
22106TIP3    H166195   2.785   0.335   0.881
22106TIP3    H266196   2.817   0.206   0.955
22107TIP3   OH266197   2.860   0.597   1.506
22107TIP3    H166198   2.869   0.502   1.495
22107TIP3    H266199   2.844   0.608   1.600
22108TIP3   OH266200   2.799   0.029   0.952
22108TIP3    H166201   2.860   0.004   1.022
22108TIP3    H266202   2.716  -0.012   0.977
22109TIP3   OH266203   2.858   0.322   1.395
22109TIP3    H166204   2.903   0.238   1.408
22109TIP3    H266205   2.899   0.360   1.317
22110TIP3   OH266206   3.016   0.495   1.887
22110TIP3    H166207   3.103   0.511   1.852
22110TIP3    H266208   3.023   0.516   1.980
22111TIP3   OH266209   3.088   0.594   2.130
22111TIP3    H166210   3.104   0.608   2.224
22111TIP3    H266211   3.117   0.675   2.089
22112TIP3   OH266212   2.970   0.072   1.442
22112TIP3    H166213   3.021   0.061   1.522
22112TIP3    H266214   2.917  -0.007   1.436
22113TIP3   OH266215   9.568   9.218   1.090
22113TIP3    H166216   9.614   9.160   1.029
22113TIP3    H266217   9.620   9.298   1.091
22114TIP3   OH266218   8.123   9.126   1.825
22114TIP3    H166219   8.061   9.096   1.891
22114TIP3    H266220   8.069   9.167   1.757
22115TIP3   OH266221   2.568   1.512   1.338
22115TIP3    H166222   2.626   1.507   1.262
22115TIP3    H266223   2.607   1.580   1.393
22116TIP3   OH266224   1.704   1.557   2.152
22116TIP3    H166225   1.772   1.569   2.219
22116TIP3    H266226   1.736   1.607   2.077
22117TIP3   OH266227   2.168   1.675   1.976
22117TIP3    H166228   2.099   1.666   1.910
22117TIP3    H266229   2.200   1.764   1.965
22118TIP3   OH266230   2.377   1.495   1.929
22118TIP3    H166231   2.286   1.524   1.936
22118TIP3    H266232   2.428   1.563   1.973
22119TIP3   OH266233   2.695   1.751   1.891
22119TIP3    H166234   2.745   1.823   1.852
22119TIP3    H266235   2.698   1.681   1.826
22120TIP3   OH266236   1.484   1.409   2.029
22120TIP3    H166237   1.521   1.449   2.107
22120TIP3    H266238   1.556   1.361   1.989
22121TIP3   OH266239   1.689   1.280   1.904
22121TIP3    H166240   1.699   1.196   1.949
22121TIP3    H266241   1.775   1.321   1.910
22122TIP3   OH266242   1.955   1.365   1.922
22122TIP3    H166243   1.977   1.273   1.909
22122TIP3    H266244   2.002   1.391   2.000
22123TIP3   OH266245   8.985   9.218   1.950
22123TIP3    H166246   8.975   9.179   2.037
22123TIP3    H266247   9.080   9.218   1.935
22124TIP3   OH266248   9.530   9.191   1.861
22124TIP3    H166249   9.581   9.223   1.786
22124TIP3    H266250   9.558   9.246   1.934
22125TIP3   OH266251   3.143   0.027   1.649
22125TIP3    H166252   3.214  -0.034   1.628
22125TIP3    H266253   3.182   0.113   1.635
22126TIP3   OH266254   8.128   8.895   1.658
22126TIP3    H166255   8.044   8.912   1.615
22126TIP3    H266256   8.134   8.961   1.727
22127TIP3   OH266257   8.727   9.013   1.764
22127TIP3    H166258   8.781   9.059   1.828
22127TIP3    H266259   8.708   8.929   1.805
22128TIP3   OH266260   9.260   9.191   1.928
22128TIP3    H166261   9.346   9.199   1.887
22128TIP3    H266262   9.257   9.101   1.961
22129TIP3   OH266263   9.341   9.083   1.449
22129TIP3    H166264   9.267   9.140   1.467
22129TIP3    H266265   9.321   9.002   1.496
22130TIP3   OH266266   1.252   1.204   1.428
22130TIP3    H166267   1.168   1.170   1.396
22130TIP3    H266268   1.255   1.294   1.398
22131TIP3   OH266269   8.255   8.989   1.422
22131TIP3    H166270   8.289   8.915   1.372
22131TIP3    H266271   8.218   8.950   1.501
22132TIP3   OH266272   2.058   1.351   1.035
22132TIP3    H166273   2.139   1.378   0.992
22132TIP3    H266274   2.022   1.283   0.978
22133TIP3   OH266275   2.707   1.473   1.105
22133TIP3    H166276   2.710   1.378   1.098
22133TIP3    H266277   2.670   1.502   1.021
22134TIP3   OH266278   1.367   1.196   1.084
22134TIP3    H166279   1.366   1.205   1.179
22134TIP3    H266280   1.448   1.148   1.066
22135TIP3   OH266281   4.100   0.926   1.089
22135TIP3    H166282   4.094   1.016   1.057
22135TIP3    H266283   4.078   0.872   1.013
22136TIP3   OH266284   3.553   0.996   1.861
22136TIP3    H166285   3.462   0.973   1.843
22136TIP3    H266286   3.548   1.072   1.918
22137TIP3   OH266287   4.467   1.348   1.189
22137TIP3    H166288   4.553   1.317   1.220
22137TIP3    H266289   4.465   1.440   1.213
22138TIP3   OH266290   3.544   1.271   1.588
22138TIP3    H166291   3.479   1.299   1.522
22138TIP3    H266292   3.583   1.353   1.618
22139TIP3   OH266293   3.211   0.523   1.294
22139TIP3    H166294   3.162   0.600   1.324
22139TIP3    H266295   3.146   0.468   1.251
22140TIP3   OH266296   3.330   0.795   1.504
22140TIP3    H166297   3.366   0.714   1.539
22140TIP3    H266298   3.299   0.771   1.416
22141TIP3   OH266299   4.235   1.874   1.125
22141TIP3    H166300   4.310   1.815   1.130
22141TIP3    H266301   4.215   1.894   1.217
22142TIP3   OH266302   3.968   1.285   1.470
22142TIP3    H166303   4.039   1.260   1.410
22142TIP3    H266304   4.002   1.265   1.557
22143TIP3   OH266305   4.993   0.605   1.509
22143TIP3    H166306   5.025   0.691   1.480
22143TIP3    H266307   5.059   0.543   1.478
22144TIP3   OH266308   4.479   0.765   1.438
22144TIP3    H166309   4.534   0.705   1.489
22144TIP3    H266310   4.415   0.708   1.395
22145TIP3   OH266311   3.800   0.377   1.480
22145TIP3    H166312   3.774   0.448   1.422
22145TIP3    H266313   3.755   0.300   1.444
22146TIP3   OH266314   4.460   0.380   1.066
22146TIP3    H166315   4.536   0.383   1.124
22146TIP3    H266316   4.453   0.468   1.029
22147TIP3   OH266317   3.442   0.575   1.618
22147TIP3    H166318   3.525   0.551   1.659
22147TIP3    H266319   3.439   0.522   1.538
22148TIP3   OH266320   3.860   0.780   1.359
22148TIP3    H166321   3.947   0.761   1.324
22148TIP3    H266322   3.811   0.699   1.344
22149TIP3   OH266323   3.697   0.346   1.988
22149TIP3    H166324   3.682   0.354   1.894
22149TIP3    H266325   3.633   0.281   2.017
22150TIP3   OH266326   4.110   1.181   0.992
22150TIP3    H166327   4.027   1.186   0.946
22150TIP3    H266328   4.158   1.259   0.966
22151TIP3   OH266329   3.803   1.081   1.703
22151TIP3    H166330   3.799   1.078   1.799
22151TIP3    H266331   3.886   1.124   1.684
22152TIP3   OH266332   4.663   0.448   1.244
22152TIP3    H166333   4.740   0.393   1.234
22152TIP3    H266334   4.695   0.527   1.288
22153TIP3   OH266335   3.669   0.445   1.713
22153TIP3    H166336   3.728   0.510   1.751
22153TIP3    H266337   3.717   0.411   1.637
22154TIP3   OH266338   3.099   1.033   1.036
22154TIP3    H166339   3.066   1.049   0.947
22154TIP3    H266340   3.126   1.120   1.067
22155TIP3   OH266341   5.005   0.456   1.751
22155TIP3    H166342   4.934   0.474   1.814
22155TIP3    H266343   5.008   0.535   1.696
22156TIP3   OH266344   4.132   0.048   1.626
22156TIP3    H166345   4.131  -0.044   1.651
22156TIP3    H266346   4.057   0.086   1.671
22157TIP3   OH266347   4.347   1.615   1.106
22157TIP3    H166348   4.324   1.546   1.043
22157TIP3    H266349   4.408   1.671   1.059
22158TIP3   OH266350   4.291   1.381   0.981
22158TIP3    H166351   4.353   1.384   0.907
22158TIP3    H266352   4.347   1.366   1.058
22159TIP3   OH266353   4.034   0.804   0.855
22159TIP3    H166354   3.959   0.861   0.841
22159TIP3    H266355   4.088   0.816   0.777
22160TIP3   OH266356   4.025   0.642   0.566
22160TIP3    H166357   4.092   0.691   0.614
22160TIP3    H266358   4.073   0.572   0.523
22161TIP3   OH266359   4.332   0.960   0.835
22161TIP3    H166360   4.292   1.000   0.912
22161TIP3    H266361   4.413   0.920   0.868
22162TIP3   OH266362   3.636   0.907   1.256
22162TIP3    H166363   3.597   0.846   1.194
22162TIP3    H266364   3.716   0.864   1.286
22163TIP3   OH266365   3.779   1.444   1.366
22163TIP3    H166366   3.790   1.414   1.276
22163TIP3    H266367   3.847   1.399   1.416
22164TIP3   OH266368   3.871   0.824   1.635
22164TIP3    H166369   3.855   0.810   1.542
22164TIP3    H266370   3.832   0.909   1.654
22165TIP3   OH266371   4.243   0.774   0.663
22165TIP3    H166372   4.278   0.847   0.714
22165TIP3    H266373   4.283   0.784   0.576
22166TIP3   OH266374   4.025   1.511   0.901
22166TIP3    H166375   4.043   1.516   0.994
22166TIP3    H266376   3.941   1.555   0.889
22167TIP3   OH266377   4.784   0.034   0.758
22167TIP3    H166378   4.702   0.050   0.806
22167TIP3    H266379   4.792   0.110   0.700
22168TIP3   OH266380   3.522   0.745   1.064
22168TIP3    H166381   3.448   0.796   1.032
22168TIP3    H266382   3.492   0.654   1.062
22169TIP3   OH266383   4.562   1.357   0.190
22169TIP3    H166384   4.517   1.438   0.213
22169TIP3    H266385   4.653   1.373   0.213
22170TIP3   OH266386   3.079   1.307   1.604
22170TIP3    H166387   3.166   1.284   1.638
22170TIP3    H266388   3.053   1.384   1.654
22171TIP3   OH266389   3.821   1.653   0.744
22171TIP3    H166390   3.819   1.643   0.649
22171TIP3    H266391   3.740   1.699   0.765
22172TIP3   OH266392   3.279   1.525   1.182
22172TIP3    H166393   3.333   1.501   1.258
22172TIP3    H266394   3.241   1.442   1.152
22173TIP3   OH266395   4.049   1.576   0.367
22173TIP3    H166396   4.115   1.517   0.331
22173TIP3    H266397   4.075   1.587   0.459
22174TIP3   OH266398   4.088   1.653   0.623
22174TIP3    H166399   4.030   1.648   0.699
22174TIP3    H266400   4.173   1.620   0.655
22175TIP3   OH266401   3.918   0.130   1.770
22175TIP3    H166402   3.823   0.135   1.759
22175TIP3    H266403   3.939   0.203   1.829
22176TIP3   OH266404   4.347   0.781   0.414
22176TIP3    H166405   4.302   0.789   0.330
22176TIP3    H266406   4.438   0.805   0.395
22177TIP3   OH266407   4.037   0.217   0.762
22177TIP3    H166408   4.004   0.221   0.852
22177TIP3    H266409   4.005   0.133   0.729
22178TIP3   OH266410   3.838   0.627   1.812
22178TIP3    H166411   3.844   0.658   1.902
22178TIP3    H266412   3.848   0.705   1.759
22179TIP3   OH266413   3.697   0.568   1.311
22179TIP3    H166414   3.610   0.542   1.340
22179TIP3    H266415   3.705   0.533   1.223
22180TIP3   OH266416   4.161   0.610   1.006
22180TIP3    H166417   4.110   0.674   0.956
22180TIP3    H266418   4.231   0.584   0.947
22181TIP3   OH266419   4.287   0.637   1.255
22181TIP3    H166420   4.222   0.625   1.185
22181TIP3    H266421   4.370   0.648   1.209
22182TIP3   OH266422   3.717   0.190   0.733
22182TIP3    H166423   3.706   0.191   0.828
22182TIP3    H266424   3.639   0.233   0.699
22183TIP3   OH266425   3.258   0.259   1.574
22183TIP3    H166426   3.330   0.279   1.634
22183TIP3    H266427   3.302   0.227   1.495
22184TIP3   OH266428   3.172   0.220   1.098
22184TIP3    H166429   3.214   0.254   1.019
22184TIP3    H266430   3.106   0.286   1.119
22185TIP3   OH266431   4.267   0.956   1.641
22185TIP3    H166432   4.352   0.929   1.605
22185TIP3    H266433   4.289   0.999   1.724
22186TIP3   OH266434   4.064   0.450   1.415
22186TIP3    H166435   3.983   0.416   1.454
22186TIP3    H266436   4.127   0.379   1.427
22187TIP3   OH266437   3.464   0.442   1.381
22187TIP3    H166438   3.378   0.450   1.340
22187TIP3    H266439   3.494   0.354   1.357
22188TIP3   OH266440   3.716   0.450   1.068
22188TIP3    H166441   3.811   0.455   1.064
22188TIP3    H266442   3.687   0.469   0.978
22189TIP3   OH266443   4.610   0.591   1.626
22189TIP3    H166444   4.640   0.558   1.710
22189TIP3    H266445   4.649   0.532   1.562
22190TIP3   OH266446   3.612   0.483   0.817
22190TIP3    H166447   3.552   0.430   0.765
22190TIP3    H266448   3.666   0.528   0.752
22191TIP3   OH266449   3.617   0.202   1.352
22191TIP3    H166450   3.594   0.128   1.408
22191TIP3    H266451   3.647   0.162   1.270
22192TIP3   OH266452   4.082   0.514   1.773
22192TIP3    H166453   3.994   0.548   1.764
22192TIP3    H266454   4.135   0.589   1.801
22193TIP3   OH266455   3.825   0.983   0.851
22193TIP3    H166456   3.745   0.936   0.829
22193TIP3    H266457   3.803   1.035   0.928
22194TIP3   OH266458   4.288   0.305   0.720
22194TIP3    H166459   4.193   0.293   0.727
22194TIP3    H266460   4.303   0.395   0.749
22195TIP3   OH266461   4.348   0.559   0.810
22195TIP3    H166462   4.443   0.560   0.814
22195TIP3    H266463   4.325   0.633   0.753
22196TIP3   OH266464   3.550   0.958   1.517
22196TIP3    H166465   3.578   0.944   1.426
22196TIP3    H266466   3.471   0.905   1.525
22197TIP3   OH266467   4.003   1.090   0.655
22197TIP3    H166468   4.038   1.176   0.676
22197TIP3    H266469   3.939   1.073   0.724
22198TIP3   OH266470   4.789   0.642   0.552
22198TIP3    H166471   4.709   0.604   0.516
22198TIP3    H266472   4.801   0.724   0.504
22199TIP3   OH266473   4.487   1.375   0.514
22199TIP3    H166474   4.446   1.304   0.563
22199TIP3    H266475   4.554   1.331   0.461
22200TIP3   OH266476   4.624   1.115   1.489
22200TIP3    H166477   4.530   1.115   1.471
22200TIP3    H266478   4.663   1.160   1.415
22201TIP3   OH266479   3.574   1.322   1.129
22201TIP3    H166480   3.569   1.399   1.072
22201TIP3    H266481   3.489   1.321   1.175
22202TIP3   OH266482   3.223   0.636   0.881
22202TIP3    H166483   3.262   0.721   0.899
22202TIP3    H266484   3.140   0.637   0.929
22203TIP3   OH266485   3.735   1.105   1.090
22203TIP3    H166486   3.673   1.178   1.095
22203TIP3    H266487   3.692   1.035   1.139
22204TIP3   OH266488   3.483   1.558   1.004
22204TIP3    H166489   3.399   1.562   1.051
22204TIP3    H266490   3.513   1.649   1.001
22205TIP3   OH266491   4.286   1.290   1.561
22205TIP3    H166492   4.278   1.373   1.515
22205TIP3    H266493   4.312   1.228   1.493
22206TIP3   OH266494   4.250   1.174   0.415
22206TIP3    H166495   4.286   1.159   0.502
22206TIP3    H266496   4.162   1.137   0.419
22207TIP3   OH266497   4.640   1.761   0.412
22207TIP3    H166498   4.642   1.840   0.357
22207TIP3    H266499   4.558   1.718   0.390
22208TIP3   OH266500   4.405   1.138   0.639
22208TIP3    H166501   4.361   1.087   0.707
22208TIP3    H266502   4.496   1.105   0.641
22209TIP3   OH266503   3.292   1.431   1.788
22209TIP3    H166504   3.381   1.451   1.816
22209TIP3    H266505   3.236   1.483   1.845
22210TIP3   OH266506   3.621   1.170   0.477
22210TIP3    H166507   3.637   1.078   0.454
22210TIP3    H266508   3.618   1.171   0.573
22211TIP3   OH266509   3.571   1.197   0.758
22211TIP3    H166510   3.652   1.189   0.808
22211TIP3    H266511   3.554   1.291   0.755
22212TIP3   OH266512   3.314   0.886   0.955
22212TIP3    H166513   3.242   0.929   1.000
22212TIP3    H266514   3.335   0.944   0.882
22213TIP3   OH266515   4.472   0.601   1.936
22213TIP3    H166516   4.493   0.645   2.018
22213TIP3    H266517   4.456   0.510   1.962
22214TIP3   OH266518   4.308   0.184   0.969
22214TIP3    H166519   4.287   0.208   0.879
22214TIP3    H266520   4.355   0.260   1.003
22215TIP3   OH266521   3.786   1.370   0.642
22215TIP3    H166522   3.705   1.411   0.671
22215TIP3    H266523   3.818   1.427   0.571
22216TIP3   OH266524   3.989   0.450   1.143
22216TIP3    H166525   4.052   0.504   1.094
22216TIP3    H266526   4.019   0.455   1.234
22217TIP3   OH266527   4.167   0.112   1.190
22217TIP3    H166528   4.203   0.165   1.261
22217TIP3    H266529   4.220   0.135   1.114
22218TIP3   OH266530   3.552   1.470   0.747
22218TIP3    H166531   3.529   1.535   0.680
22218TIP3    H266532   3.523   1.510   0.829
22219TIP3   OH266533   3.682   0.179   1.012
22219TIP3    H166534   3.670   0.269   1.040
22219TIP3    H266535   3.776   0.163   1.020
22220TIP3   OH266536   4.565   0.940   1.236
22220TIP3    H166537   4.536   0.871   1.295
22220TIP3    H266538   4.658   0.953   1.257
22221TIP3   OH266539   3.331   1.063   0.741
22221TIP3    H166540   3.404   1.124   0.753
22221TIP3    H266541   3.361   1.003   0.672
22222TIP3   OH266542   3.240   0.360   0.873
22222TIP3    H166543   3.252   0.454   0.882
22222TIP3    H266544   3.196   0.349   0.789
22223TIP3   OH266545   3.639   0.092   1.753
22223TIP3    H166546   3.619   0.060   1.665
22223TIP3    H266547   3.631   0.014   1.808
22224TIP3   OH266548   3.159   1.290   1.106
22224TIP3    H166549   3.104   1.312   1.181
22224TIP3    H266550   3.120   1.338   1.033
22225TIP3   OH266551   3.761   1.362   0.337
22225TIP3    H166552   3.721   1.292   0.388
22225TIP3    H266553   3.842   1.324   0.302
22226TIP3   OH266554   4.226   1.402   0.263
22226TIP3    H166555   4.263   1.335   0.321
22226TIP3    H266556   4.293   1.414   0.195
22227TIP3   OH266557   3.451   0.873   0.585
22227TIP3    H166558   3.499   0.848   0.664
22227TIP3    H266559   3.518   0.884   0.518
22228TIP3   OH266560   3.991   1.071   0.386
22228TIP3    H166561   3.977   1.075   0.480
22228TIP3    H266562   3.982   0.978   0.365
22229TIP3   OH266563   3.615   0.810   0.801
22229TIP3    H166564   3.596   0.771   0.886
22229TIP3    H266565   3.667   0.743   0.755
22230TIP3   OH266566   3.760   0.635   0.643
22230TIP3    H166567   3.730   0.637   0.552
22230TIP3    H266568   3.855   0.635   0.637
22231TIP3   OH266569   4.579   0.883   0.290
22231TIP3    H166570   4.564   0.837   0.207
22231TIP3    H266571   4.536   0.968   0.278
22232TIP3   OH266572   4.001   0.320   1.950
22232TIP3    H166573   4.023   0.397   1.897
22232TIP3    H266574   3.947   0.354   2.021
22233TIP3   OH266575   3.537   1.646   0.534
22233TIP3    H166576   3.631   1.641   0.516
22233TIP3    H266577   3.502   1.700   0.463
22234TIP3   OH266578   3.058   1.062   0.756
22234TIP3    H166579   3.153   1.073   0.751
22234TIP3    H266580   3.042   0.978   0.712
22235TIP3   OH266581   2.926   1.596   1.202
22235TIP3    H166582   2.852   1.557   1.155
22235TIP3    H266583   2.968   1.522   1.246
22236TIP3   OH266584   3.049   1.386   1.337
22236TIP3    H166585   3.033   1.326   1.410
22236TIP3    H266586   3.095   1.460   1.376
22237TIP3   OH266587   4.677   1.076   0.650
22237TIP3    H166588   4.679   1.131   0.571
22237TIP3    H266589   4.758   1.097   0.696
22238TIP3   OH266590   4.816   1.021   1.022
22238TIP3    H166591   4.733   1.067   1.008
22238TIP3    H266592   4.811   0.989   1.113
22239TIP3   OH266593   4.792   0.899   0.457
22239TIP3    H166594   4.722   0.890   0.393
22239TIP3    H266595   4.755   0.955   0.526
22240TIP3   OH266596   4.573   0.544   0.414
22240TIP3    H166597   4.532   0.551   0.328
22240TIP3    H266598   4.588   0.450   0.426
22241TIP3   OH266599   4.555   0.884   0.962
22241TIP3    H166600   4.640   0.841   0.963
22241TIP3    H266601   4.536   0.903   1.054
22242TIP3   OH266602   3.297   0.890   1.761
22242TIP3    H166603   3.303   0.857   1.671
22242TIP3    H266604   3.280   0.983   1.751
22243TIP3   OH266605   4.598   0.272   0.411
22243TIP3    H166606   4.659   0.249   0.481
22243TIP3    H266607   4.516   0.232   0.437
22244TIP3   OH266608   4.619   0.546   0.837
22244TIP3    H166609   4.658   0.464   0.865
22244TIP3    H266610   4.691   0.610   0.839
22245TIP3   OH266611   4.764   0.675   1.355
22245TIP3    H166612   4.858   0.662   1.345
22245TIP3    H266613   4.756   0.735   1.429
22246TIP3   OH266614   4.745   0.317   0.933
22246TIP3    H166615   4.818   0.271   0.975
22246TIP3    H266616   4.676   0.251   0.926
22247TIP3   OH266617   3.452   0.289   1.769
22247TIP3    H166618   3.505   0.209   1.772
22247TIP3    H266619   3.515   0.358   1.748
22248TIP3   OH266620   3.275   0.579   1.843
22248TIP3    H166621   3.328   0.577   1.764
22248TIP3    H266622   3.263   0.673   1.862
22249TIP3   OH266623   4.825   0.234   0.576
22249TIP3    H166624   4.863   0.174   0.512
22249TIP3    H266625   4.880   0.311   0.573
22250TIP3   OH266626   3.256   0.100   1.327
22250TIP3    H166627   3.171   0.077   1.364
22250TIP3    H266628   3.235   0.148   1.247
22251TIP3   OH266629   4.491   1.805   0.984
22251TIP3    H166630   4.511   1.812   0.891
22251TIP3    H266631   4.544   1.873   1.025
22252TIP3   OH266632   3.481   0.168   2.103
22252TIP3    H166633   3.475   0.173   2.198
22252TIP3    H266634   3.406   0.219   2.072
22253TIP3   OH266635   3.680   1.792   1.633
22253TIP3    H166636   3.719   1.820   1.716
22253TIP3    H266637   3.664   1.874   1.586
22254TIP3   OH266638   3.389   1.662   1.582
22254TIP3    H166639   3.393   1.633   1.673
22254TIP3    H266640   3.368   1.755   1.587
22255TIP3   OH266641   3.456   1.456   1.385
22255TIP3    H166642   3.446   1.524   1.452
22255TIP3    H266643   3.547   1.462   1.357
22256TIP3   OH266644   3.837   1.713   1.360
22256TIP3    H166645   3.843   1.617   1.358
22256TIP3    H266646   3.744   1.731   1.371
22257TIP3   OH266647   4.237   0.229   1.433
22257TIP3    H166648   4.220   0.168   1.504
22257TIP3    H266649   4.332   0.226   1.421
22258TIP3   OH266650   4.789   0.086   1.395
22258TIP3    H166651   4.841   0.134   1.458
22258TIP3    H266652   4.702   0.126   1.400
22259TIP3   OH266653   4.977   0.221   1.035
22259TIP3    H166654   5.019   0.136   1.028
22259TIP3    H266655   5.050   0.284   1.037
22260TIP3   OH266656   0.291   9.223   1.511
22260TIP3    H166657   0.202   9.187   1.519
22260TIP3    H266658   0.347   9.146   1.499
22261TIP3   OH266659   0.117   9.138   1.166
22261TIP3    H166660   0.139   9.181   1.084
22261TIP3    H266661   0.083   9.208   1.222
22262TIP3   OH266662   3.987   0.026   1.383
22262TIP3    H166663   4.043   0.056   1.311
22262TIP3    H266664   4.039   0.043   1.462
22263TIP3   OH266665   4.499   0.174   1.309
22263TIP3    H166666   4.510   0.169   1.214
22263TIP3    H266667   4.478   0.084   1.335
22264TIP3   OH266668   4.570   0.100   0.922
22264TIP3    H166669   4.479   0.130   0.922
22264TIP3    H266670   4.567   0.013   0.961
22265TIP3   OH266671   3.048   1.439   0.911
22265TIP3    H166672   2.962   1.407   0.883
22265TIP3    H266673   3.051   1.530   0.880
22266TIP3   OH266674   3.477   0.014   0.920
22266TIP3    H166675   3.523  -0.048   0.863
22266TIP3    H266676   3.547   0.069   0.956
22267TIP3   OH266677   3.954   0.204   1.027
22267TIP3    H166678   4.011   0.142   1.072
22267TIP3    H266679   3.970   0.288   1.071
22268TIP3   OH266680   3.798   1.595   0.469
22268TIP3    H166681   3.884   1.616   0.432
22268TIP3    H266682   3.765   1.524   0.414
22269TIP3   OH266683   4.541   1.798   0.717
22269TIP3    H166684   4.582   1.713   0.705
22269TIP3    H266685   4.471   1.801   0.651
22270TIP3   OH266686   3.151   1.439   0.574
22270TIP3    H166687   3.156   1.459   0.668
22270TIP3    H266688   3.233   1.395   0.554
22271TIP3   OH266689   4.827   0.780   0.783
22271TIP3    H166690   4.831   0.870   0.751
22271TIP3    H266691   4.816   0.727   0.704
22272TIP3   OH266692   5.110   1.094   1.013
22272TIP3    H166693   5.142   1.004   1.022
22272TIP3    H266694   5.152   1.126   0.933
22273TIP3   OH266695   5.673   0.566   0.880
22273TIP3    H166696   5.652   0.653   0.847
22273TIP3    H266697   5.595   0.514   0.864
22274TIP3   OH266698   5.234   0.850   1.080
22274TIP3    H166699   5.294   0.884   1.014
22274TIP3    H266700   5.223   0.758   1.057
22275TIP3   OH266701   4.971   1.154   0.495
22275TIP3    H166702   4.923   1.162   0.413
22275TIP3    H266703   4.938   1.225   0.550
22276TIP3   OH266704   5.841   0.911   0.083
22276TIP3    H166705   5.896   0.981   0.119
22276TIP3    H266706   5.903   0.845   0.053
22277TIP3   OH266707   6.529   0.284   0.199
22277TIP3    H166708   6.466   0.301   0.269
22277TIP3    H266709   6.547   0.370   0.162
22278TIP3   OH266710   5.304   0.913   0.487
22278TIP3    H166711   5.298   0.994   0.437
22278TIP3    H266712   5.328   0.846   0.423
22279TIP3   OH266713   9.339   5.681   7.902
22279TIP3    H166714   9.338   5.669   7.807
22279TIP3    H266715   9.422   5.642   7.930
22280TIP3   OH266716   5.844   0.457   0.245
22280TIP3    H166717   5.814   0.462   0.335
22280TIP3    H266718   5.804   0.376   0.211
22281TIP3   OH266719   5.549   0.784   0.754
22281TIP3    H166720   5.482   0.762   0.819
22281TIP3    H266721   5.522   0.738   0.675
22282TIP3   OH266722   5.512   0.450   0.219
22282TIP3    H166723   5.502   0.439   0.313
22282TIP3    H266724   5.431   0.490   0.189
22283TIP3   OH266725   5.172   0.411   1.007
22283TIP3    H166726   5.226   0.458   1.071
22283TIP3    H266727   5.235   0.368   0.949
22284TIP3   OH266728   4.990   0.458   0.571
22284TIP3    H166729   5.045   0.493   0.501
22284TIP3    H266730   4.919   0.521   0.581
22285TIP3   OH266731   5.355   0.652   0.896
22285TIP3    H166732   5.267   0.666   0.859
22285TIP3    H266733   5.380   0.566   0.865
22286TIP3   OH266734   5.516   0.668   0.508
22286TIP3    H166735   5.606   0.699   0.495
22286TIP3    H266736   5.469   0.700   0.431
22287TIP3   OH266737   5.385   0.749   0.280
22287TIP3    H166738   5.332   0.688   0.229
22287TIP3    H266739   5.450   0.782   0.218
22288TIP3   OH266740   5.449   0.415   0.796
22288TIP3    H166741   5.430   0.332   0.840
22288TIP3    H266742   5.457   0.391   0.703
22289TIP3   OH266743   5.618   1.315   0.290
22289TIP3    H166744   5.599   1.221   0.284
22289TIP3    H266745   5.714   1.320   0.294
22290TIP3   OH266746   6.069   0.604   0.238
22290TIP3    H166747   5.986   0.558   0.235
22290TIP3    H266748   6.068   0.663   0.163
22291TIP3   OH266749   5.032   0.886   0.314
22291TIP3    H166750   5.088   0.962   0.327
22291TIP3    H266751   4.956   0.901   0.370
22292TIP3   OH266752   8.700   6.032   7.922
22292TIP3    H166753   8.719   5.941   7.898
22292TIP3    H266754   8.686   6.030   8.017
22293TIP3   OH266755   5.385   1.412   0.187
22293TIP3    H166756   5.463   1.376   0.229
22293TIP3    H266757   5.343   1.464   0.256
22294TIP3   OH266758   5.199   1.126   0.354
22294TIP3    H166759   5.127   1.152   0.411
22294TIP3    H266760   5.209   1.199   0.292
22295TIP3   OH266761   6.154   0.535   0.489
22295TIP3    H166762   6.121   0.556   0.402
22295TIP3    H266763   6.224   0.599   0.503
22296TIP3   OH266764   5.782   0.749   0.552
22296TIP3    H166765   5.863   0.792   0.523
22296TIP3    H266766   5.739   0.814   0.607
22297TIP3   OH266767   5.990   0.421   0.681
22297TIP3    H166768   6.027   0.457   0.762
22297TIP3    H266769   6.046   0.456   0.612
22298TIP3   OH266770   5.499   0.398   0.503
22298TIP3    H166771   5.491   0.492   0.516
22298TIP3    H266772   5.593   0.380   0.507
22299TIP3   OH266773   5.119   1.294   0.138
22299TIP3    H166774   5.154   1.375   0.101
22299TIP3    H266775   5.173   1.225   0.099
22300TIP3   OH266776   5.066   0.609   0.352
22300TIP3    H166777   5.073   0.705   0.349
22300TIP3    H266778   5.007   0.587   0.281
22301TIP3   OH266779   5.463   0.270   1.200
22301TIP3    H166780   5.464   0.243   1.108
22301TIP3    H266781   5.495   0.194   1.248
22302TIP3   OH266782   4.973   1.671   0.690
22302TIP3    H166783   4.921   1.731   0.743
22302TIP3    H266784   4.951   1.692   0.600
22303TIP3   OH266785   8.906   6.256   7.839
22303TIP3    H166786   8.937   6.167   7.858
22303TIP3    H266787   8.973   6.313   7.879
22304TIP3   OH266788   5.266   1.085   0.049
22304TIP3    H166789   5.310   1.047   0.125
22304TIP3    H266790   5.337   1.104  -0.013
22305TIP3   OH266791   9.017   6.005   7.907
22305TIP3    H166792   8.982   6.009   7.995
22305TIP3    H266793   9.032   5.912   7.891
22306TIP3   OH266794   5.536   1.058   0.314
22306TIP3    H166795   5.550   1.019   0.400
22306TIP3    H266796   5.546   0.985   0.253
22307TIP3   OH266797   5.572   0.867   0.118
22307TIP3    H166798   5.543   0.870   0.027
22307TIP3    H266799   5.667   0.871   0.114
22308TIP3   OH266800   4.881   1.212   0.240
22308TIP3    H166801   4.957   1.252   0.198
22308TIP3    H266802   4.852   1.144   0.180
22309TIP3   OH266803   9.539   5.473   7.899
22309TIP3    H166804   9.545   5.465   7.803
22309TIP3    H266805   9.584   5.396   7.932
22310TIP3   OH266806   9.617   5.217   7.951
22310TIP3    H166807   9.698   5.187   7.992
22310TIP3    H266808   9.554   5.147   7.967
22311TIP3   OH266809   5.277   0.557   1.214
22311TIP3    H166810   5.266   0.510   1.297
22311TIP3    H266811   5.370   0.578   1.211
22312TIP3   OH266812   5.048   0.827   1.361
22312TIP3    H166813   5.053   0.774   1.281
22312TIP3    H266814   5.081   0.913   1.334
22313TIP3   OH266815   6.591   0.520   0.065
22313TIP3    H166816   6.628   0.455   0.005
22313TIP3    H266817   6.665   0.576   0.089
22314TIP3   OH266818   5.091   0.284   0.757
22314TIP3    H166819   5.012   0.263   0.806
22314TIP3    H266820   5.065   0.354   0.697
22315TIP3   OH266821   5.372   0.193   0.941
22315TIP3    H166822   5.285   0.154   0.948
22315TIP3    H266823   5.432   0.120   0.954
22316TIP3   OH266824   5.179   0.088   0.593
22316TIP3    H166825   5.209   0.136   0.516
22316TIP3    H266826   5.154   0.155   0.656
22317TIP3   OH266827   5.787   0.315   0.852
22317TIP3    H166828   5.856   0.338   0.790
22317TIP3    H266829   5.754   0.399   0.884
22318TIP3   OH266830   6.344   0.346   0.394
22318TIP3    H166831   6.273   0.398   0.430
22318TIP3    H266832   6.342   0.264   0.445
22319TIP3   OH266833   4.913   1.755   0.437
22319TIP3    H166834   4.821   1.744   0.411
22319TIP3    H266835   4.960   1.771   0.356
22320TIP3   OH266836   5.284   0.256   0.390
22320TIP3    H166837   5.329   0.197   0.329
22320TIP3    H266838   5.354   0.301   0.437
22321TIP3   OH266839   5.772   0.474   0.513
22321TIP3    H166840   5.836   0.437   0.573
22321TIP3    H266841   5.772   0.568   0.532
22322TIP3   OH266842   8.164   6.376   7.961
22322TIP3    H166843   8.202   6.406   8.044
22322TIP3    H266844   8.238   6.376   7.900
22323TIP3   OH266845   8.749   2.456   1.557
22323TIP3    H166846   8.718   2.533   1.509
22323TIP3    H266847   8.813   2.415   1.498
22324TIP3   OH266848   8.472   1.881   1.668
22324TIP3    H166849   8.506   1.791   1.670
22324TIP3    H266850   8.458   1.899   1.576
22325TIP3   OH266851   8.616   2.592   1.770
22325TIP3    H166852   8.547   2.527   1.777
22325TIP3    H266853   8.684   2.550   1.718
22326TIP3   OH266854   8.372   2.218   1.574
22326TIP3    H166855   8.334   2.158   1.638
22326TIP3    H266856   8.303   2.228   1.508
22327TIP3   OH266857   8.709   2.746   1.554
22327TIP3    H166858   8.673   2.828   1.521
22327TIP3    H266859   8.657   2.726   1.632
22328TIP3   OH266860   8.313   2.664   1.549
22328TIP3    H166861   8.295   2.644   1.640
22328TIP3    H266862   8.360   2.587   1.517
22329TIP3   OH266863   7.998   2.084   1.736
22329TIP3    H166864   7.969   2.165   1.778
22329TIP3    H266865   8.092   2.080   1.753
22330TIP3   OH266866   8.746   1.907   1.476
22330TIP3    H166867   8.719   1.878   1.389
22330TIP3    H266868   8.717   1.998   1.481
22331TIP3   OH266869   8.885   1.957   1.708
22331TIP3    H166870   8.844   1.924   1.627
22331TIP3    H266871   8.822   2.019   1.742
22332TIP3   OH266872   8.675   1.683   1.623
22332TIP3    H166873   8.713   1.746   1.562
22332TIP3    H266874   8.656   1.606   1.570
22333TIP3   OH266875   0.295   2.334   1.720
22333TIP3    H166876   0.263   2.419   1.690
22333TIP3    H266877   0.228   2.272   1.692
22334TIP3   OH266878   0.566   2.620   1.805
22334TIP3    H166879   0.576   2.547   1.866
22334TIP3    H266880   0.587   2.697   1.858
22335TIP3   OH266881   0.161   3.068   1.774
22335TIP3    H166882   0.219   3.007   1.729
22335TIP3    H266883   0.110   3.014   1.834
22336TIP3   OH266884   1.164   1.889   2.114
22336TIP3    H166885   1.139   1.977   2.085
22336TIP3    H266886   1.210   1.852   2.039
22337TIP3   OH266887   0.576   1.782   1.768
22337TIP3    H166888   0.639   1.780   1.840
22337TIP3    H266889   0.623   1.822   1.695
22338TIP3   OH266890   0.191   2.549   1.580
22338TIP3    H166891   0.155   2.518   1.497
22338TIP3    H266892   0.134   2.621   1.606
22339TIP3   OH266893   0.758   1.801   1.966
22339TIP3    H166894   0.806   1.736   2.018
22339TIP3    H266895   0.792   1.885   1.996
22340TIP3   OH266896   9.042   2.337   1.773
22340TIP3    H166897   8.949   2.317   1.777
22340TIP3    H266898   9.047   2.431   1.790
22341TIP3   OH266899   0.594   2.839   1.975
22341TIP3    H166900   0.511   2.837   2.022
22341TIP3    H266901   0.593   2.923   1.928
22342TIP3   OH266902   0.309   2.893   1.620
22342TIP3    H166903   0.359   2.813   1.606
22342TIP3    H266904   0.366   2.963   1.588
22343TIP3   OH266905   0.447   2.666   1.562
22343TIP3    H166906   0.373   2.606   1.564
22343TIP3    H266907   0.499   2.644   1.639
22344TIP3   OH266908   0.129   2.168   1.567
22344TIP3    H166909   0.046   2.209   1.546
22344TIP3    H266910   0.176   2.165   1.483
22345TIP3   OH266911   0.092   1.976   1.252
22345TIP3    H166912   0.157   2.024   1.302
22345TIP3    H266913   0.141   1.906   1.209
22346TIP3   OH266914   1.030   2.373   2.102
22346TIP3    H166915   0.947   2.410   2.132
22346TIP3    H266916   1.064   2.437   2.039
22347TIP3   OH266917   0.479   2.254   1.531
22347TIP3    H166918   0.427   2.284   1.605
22347TIP3    H266919   0.563   2.228   1.570
22348TIP3   OH266920   9.520   2.210   1.909
22348TIP3    H166921   9.476   2.158   1.842
22348TIP3    H266922   9.534   2.150   1.982
22349TIP3   OH266923   9.625   2.684   2.032
22349TIP3    H166924   9.573   2.670   1.953
22349TIP3    H266925   9.655   2.596   2.057
22350TIP3   OH266926   0.353   2.812   2.104
22350TIP3    H166927   0.264   2.840   2.084
22350TIP3    H266928   0.345   2.721   2.131
22351TIP3   OH266929   0.314   2.116   1.358
22351TIP3    H166930   0.373   2.174   1.405
22351TIP3    H266931   0.345   2.118   1.268
22352TIP3   OH266932   0.053   2.792   1.622
22352TIP3    H166933   0.142   2.829   1.625
22352TIP3    H266934   0.006   2.848   1.560
22353TIP3   OH266935   0.828   1.341   1.414
22353TIP3    H166936   0.751   1.361   1.466
22353TIP3    H266937   0.839   1.416   1.356
22354TIP3   OH266938   9.396   2.052   1.718
22354TIP3    H166939   9.316   2.095   1.686
22354TIP3    H266940   9.375   1.958   1.716
22355TIP3   OH266941   0.651   2.713   0.978
22355TIP3    H166942   0.643   2.806   0.956
22355TIP3    H266943   0.740   2.690   0.951
22356TIP3   OH266944   9.756   2.991   1.443
22356TIP3    H166945   9.726   2.967   1.355
22356TIP3    H266946   9.737   3.085   1.450
22357TIP3   OH266947   0.157   2.937   1.074
22357TIP3    H166948   0.207   2.864   1.038
22357TIP3    H266949   0.194   2.952   1.160
22358TIP3   OH266950   0.218   2.981   1.340
22358TIP3    H166951   0.138   2.971   1.393
22358TIP3    H266952   0.289   2.968   1.402
22359TIP3   OH266953   0.394   2.081   1.096
22359TIP3    H166954   0.346   2.088   1.013
22359TIP3    H266955   0.475   2.129   1.081
22360TIP3   OH266956   0.106   1.516   1.415
22360TIP3    H166957   0.075   1.519   1.506
22360TIP3    H266958   0.064   1.439   1.378
22361TIP3   OH266959   0.243   1.953   1.695
22361TIP3    H166960   0.201   2.030   1.658
22361TIP3    H266961   0.305   1.924   1.627
22362TIP3   OH266962   0.437   1.986   1.897
22362TIP3    H166963   0.358   1.993   1.844
22362TIP3    H266964   0.478   1.905   1.868
22363TIP3   OH266965   9.570   1.506   1.385
22363TIP3    H166966   9.566   1.499   1.480
22363TIP3    H266967   9.488   1.550   1.361
22364TIP3   OH266968   9.033   1.551   1.785
22364TIP3    H166969   9.053   1.571   1.694
22364TIP3    H266970   9.107   1.588   1.834
22365TIP3   OH266971   9.560   1.741   1.728
22365TIP3    H166972   9.651   1.769   1.727
22365TIP3    H266973   9.526   1.769   1.643
22366TIP3   OH266974   9.454   1.801   1.481
22366TIP3    H166975   9.395   1.747   1.427
22366TIP3    H266976   9.516   1.838   1.418
22367TIP3   OH266977   9.689   2.299   1.506
22367TIP3    H166978   9.615   2.243   1.486
22367TIP3    H266979   9.670   2.335   1.593
22368TIP3   OH266980   0.798   2.521   2.130
22368TIP3    H166981   0.824   2.600   2.082
22368TIP3    H266982   0.716   2.494   2.089
22369TIP3   OH266983   0.355   1.624   1.410
22369TIP3    H166984   0.262   1.601   1.411
22369TIP3    H266985   0.356   1.718   1.425
22370TIP3   OH266986   0.416   1.886   1.485
22370TIP3    H166987   0.511   1.889   1.497
22370TIP3    H266988   0.395   1.964   1.435
22371TIP3   OH266989   0.045   2.461   1.355
22371TIP3    H166990  -0.005   2.543   1.353
22371TIP3    H266991  -0.010   2.401   1.406
22372TIP3   OH266992   0.824   1.969   1.299
22372TIP3    H166993   0.767   1.923   1.237
22372TIP3    H266994   0.828   2.059   1.266
22373TIP3   OH266995   0.565   2.787   1.242
22373TIP3    H166996   0.539   2.720   1.305
22373TIP3    H266997   0.585   2.738   1.162
22374TIP3   OH266998   0.572   2.416   1.996
22374TIP3    H166999   0.478   2.398   1.998
22374TIP3    H267000   0.611   2.334   1.969
22375TIP3   OH267001   9.470   2.630   1.805
22375TIP3    H167002   9.469   2.711   1.754
22375TIP3    H267003   9.380   2.598   1.803
22376TIP3   OH267004   9.092   1.933   1.527
22376TIP3    H167005   9.138   2.017   1.532
22376TIP3    H267006   9.029   1.935   1.599
22377TIP3   OH267007   9.619   2.404   1.743
22377TIP3    H167008   9.580   2.487   1.770
22377TIP3    H267009   9.591   2.341   1.809
22378TIP3   OH267010   9.451   2.879   1.679
22378TIP3    H167011   9.391   2.941   1.722
22378TIP3    H267012   9.538   2.920   1.689
22379TIP3   OH267013   0.336   2.522   1.124
22379TIP3    H167014   0.386   2.493   1.201
22379TIP3    H267015   0.253   2.475   1.131
22380TIP3   OH267016   0.644   2.983   0.927
22380TIP3    H167017   0.660   3.042   0.852
22380TIP3    H267018   0.574   3.026   0.976
22381TIP3   OH267019   0.506   2.430   1.317
22381TIP3    H167020   0.491   2.380   1.398
22381TIP3    H267021   0.601   2.441   1.313
22382TIP3   OH267022   9.487   2.483   1.138
22382TIP3    H167023   9.498   2.392   1.110
22382TIP3    H267024   9.475   2.478   1.232
22383TIP3   OH267025   9.443   2.506   1.411
22383TIP3    H167026   9.517   2.483   1.466
22383TIP3    H267027   9.438   2.602   1.416
22384TIP3   OH267028   9.185   2.182   1.601
22384TIP3    H167029   9.135   2.229   1.668
22384TIP3    H267030   9.198   2.247   1.531
22385TIP3   OH267031   0.427   1.574   1.674
22385TIP3    H167032   0.401   1.592   1.584
22385TIP3    H267033   0.468   1.656   1.703
22386TIP3   OH267034   9.696   2.687   1.352
22386TIP3    H167035   9.611   2.717   1.384
22386TIP3    H267036   9.723   2.754   1.289
22387TIP3   OH267037   0.040   1.782   1.766
22387TIP3    H167038   0.109   1.839   1.732
22387TIP3    H267039   0.044   1.794   1.861
22388TIP3   OH267040   0.250   1.465   1.850
22388TIP3    H167041   0.285   1.487   1.936
22388TIP3    H267042   0.312   1.503   1.788
22389TIP3   OH267043   9.445   2.783   1.419
22389TIP3    H167044   9.427   2.858   1.362
22389TIP3    H267045   9.435   2.817   1.508
22390TIP3   OH267046   9.559   1.472   1.657
22390TIP3    H167047   9.539   1.556   1.699
22390TIP3    H267048   9.653   1.460   1.672
22391TIP3   OH267049   0.647   2.161   1.924
22391TIP3    H167050   0.571   2.103   1.928
22391TIP3    H267051   0.713   2.118   1.978
22392TIP3   OH267052   9.206   2.367   1.396
22392TIP3    H167053   9.279   2.428   1.408
22392TIP3    H267054   9.236   2.306   1.329
22393TIP3   OH267055   9.094   1.654   1.536
22393TIP3    H167056   9.113   1.748   1.534
22393TIP3    H267057   9.045   1.639   1.455
22394TIP3   OH267058   0.613   3.088   1.871
22394TIP3    H167059   0.570   3.151   1.813
22394TIP3    H267060   0.706   3.110   1.866
22395TIP3   OH267061   9.006   2.607   1.820
22395TIP3    H167062   8.980   2.681   1.875
22395TIP3    H267063   9.005   2.643   1.731
22396TIP3   OH267064   9.638   2.688   1.036
22396TIP3    H167065   9.589   2.616   1.076
22396TIP3    H267066   9.713   2.646   0.994
22397TIP3   OH267067   0.282   2.728   0.952
22397TIP3    H167068   0.317   2.664   1.014
22397TIP3    H267069   0.339   2.722   0.876
22398TIP3   OH267070   9.317   2.171   1.243
22398TIP3    H167071   9.365   2.147   1.322
22398TIP3    H267072   9.384   2.185   1.177
22399TIP3   OH267073   0.087   2.398   1.092
22399TIP3    H167074   0.063   2.408   1.184
22399TIP3    H267075   0.064   2.307   1.072
22400TIP3   OH267076   9.486   2.121   1.459
22400TIP3    H167077   9.463   2.088   1.546
22400TIP3    H267078   9.533   2.049   1.418
22401TIP3   OH267079   9.622   1.934   1.308
22401TIP3    H167080   9.592   1.937   1.217
22401TIP3    H267081   9.717   1.944   1.302
22402TIP3   OH267082   0.609   2.222   0.992
22402TIP3    H167083   0.596   2.183   0.906
22402TIP3    H267084   0.587   2.315   0.980
22403TIP3   OH267085   9.460   3.014   1.254
22403TIP3    H167086   9.546   2.983   1.226
22403TIP3    H267087   9.417   3.043   1.173
22404TIP3   OH267088   8.934   2.349   1.386
22404TIP3    H167089   9.028   2.362   1.399
22404TIP3    H267090   8.926   2.257   1.360
22405TIP3   OH267091   0.876   3.172   1.870
22405TIP3    H167092   0.896   3.179   1.964
22405TIP3    H267093   0.848   3.260   1.845
22406TIP3   OH267094   0.785   2.435   1.321
22406TIP3    H167095   0.842   2.507   1.292
22406TIP3    H267096   0.831   2.398   1.397
22407TIP3   OH267097   0.915   2.293   1.522
22407TIP3    H167098   0.846   2.256   1.578
22407TIP3    H267099   0.978   2.330   1.584
22408TIP3   OH267100   0.920   2.725   1.978
22408TIP3    H167101   0.990   2.662   1.957
22408TIP3    H267102   0.912   2.778   1.899
22409TIP3   OH267103   0.818   2.965   2.121
22409TIP3    H167104   0.725   2.978   2.101
22409TIP3    H267105   0.840   2.880   2.083
22410TIP3   OH267106   0.819   2.210   1.168
22410TIP3    H167107   0.747   2.210   1.106
22410TIP3    H267108   0.804   2.288   1.221
22411TIP3   OH267109   0.673   1.852   1.102
22411TIP3    H167110   0.623   1.888   1.029
22411TIP3    H267111   0.668   1.758   1.091
22412TIP3   OH267112   0.710   2.155   1.655
22412TIP3    H167113   0.716   2.061   1.641
22412TIP3    H267114   0.693   2.165   1.749
22413TIP3   OH267115   0.639   1.579   1.070
22413TIP3    H167116   0.701   1.557   1.140
22413TIP3    H267117   0.554   1.546   1.102
22414TIP3   OH267118   0.706   1.879   1.539
22414TIP3    H167119   0.753   1.797   1.551
22414TIP3    H267120   0.746   1.919   1.461
22415TIP3   OH267121   0.854   2.041   2.063
22415TIP3    H167122   0.938   2.067   2.024
22415TIP3    H267123   0.868   2.051   2.157
22416TIP3   OH267124   0.825   1.631   1.588
22416TIP3    H167125   0.866   1.619   1.673
22416TIP3    H267126   0.763   1.558   1.581
22417TIP3   OH267127   0.863   1.541   1.230
22417TIP3    H167128   0.914   1.481   1.176
22417TIP3    H267129   0.917   1.620   1.235
22418TIP3   OH267130   0.448   3.085   1.495
22418TIP3    H167131   0.509   3.082   1.421
22418TIP3    H267132   0.488   3.147   1.556
22419TIP3   OH267133   0.868   1.462   2.036
22419TIP3    H167134   0.908   1.512   1.965
22419TIP3    H267135   0.775   1.484   2.031
22420TIP3   OH267136   0.975   1.585   1.815
22420TIP3    H167137   1.045   1.526   1.788
22420TIP3    H267138   1.011   1.673   1.803
22421TIP3   OH267139   0.601   1.469   1.948
22421TIP3    H167140   0.579   1.512   1.866
22421TIP3    H267141   0.630   1.381   1.922
22422TIP3   OH267142   0.639   1.420   1.592
22422TIP3    H167143   0.558   1.467   1.613
22422TIP3    H267144   0.625   1.332   1.627
22423TIP3   OH267145   8.981   2.737   1.579
22423TIP3    H167146   8.886   2.741   1.574
22423TIP3    H267147   9.010   2.726   1.489
22424TIP3   OH267148   9.353   1.327   1.535
22424TIP3    H167149   9.402   1.259   1.489
22424TIP3    H267150   9.419   1.370   1.591
22425TIP3   OH267151   0.033   1.519   1.683
22425TIP3    H167152   0.097   1.480   1.742
22425TIP3    H267153   0.031   1.612   1.708
22426TIP3   OH267154   9.704   2.910   1.178
22426TIP3    H167155   9.787   2.937   1.138
22426TIP3    H267156   9.671   2.842   1.121
22427TIP3   OH267157   0.603   3.056   1.268
22427TIP3    H167158   0.596   2.961   1.263
22427TIP3    H267159   0.560   3.088   1.188
22428TIP3   OH267160   9.017   2.739   1.302
22428TIP3    H167161   9.033   2.834   1.305
22428TIP3    H267162   9.093   2.703   1.257
22429TIP3   OH267163   2.074   2.615   1.189
22429TIP3    H167164   2.053   2.689   1.132
22429TIP3    H267165   2.014   2.545   1.161
22430TIP3   OH267166   1.959   2.510   1.604
22430TIP3    H167167   2.017   2.511   1.680
22430TIP3    H267168   1.948   2.417   1.583
22431TIP3   OH267169   1.385   2.498   1.961
22431TIP3    H167170   1.417   2.525   2.047
22431TIP3    H267171   1.464   2.483   1.909
22432TIP3   OH267172   2.304   2.881   1.266
22432TIP3    H167173   2.256   2.807   1.303
22432TIP3    H267174   2.291   2.952   1.329
22433TIP3   OH267175   1.375   2.818   1.648
22433TIP3    H167176   1.347   2.727   1.639
22433TIP3    H267177   1.401   2.827   1.740
22434TIP3   OH267178   1.061   2.068   1.436
22434TIP3    H167179   1.023   2.152   1.463
22434TIP3    H267180   0.988   2.020   1.397
22435TIP3   OH267181   1.132   2.377   1.676
22435TIP3    H167182   1.180   2.301   1.710
22435TIP3    H267183   1.200   2.437   1.646
22436TIP3   OH267184   2.009   3.359   1.195
22436TIP3    H167185   2.020   3.271   1.159
22436TIP3    H267186   2.024   3.350   1.289
22437TIP3   OH267187   1.832   2.722   1.714
22437TIP3    H167188   1.878   2.654   1.665
22437TIP3    H267189   1.874   2.804   1.687
22438TIP3   OH267190   2.875   2.250   1.650
22438TIP3    H167191   2.917   2.315   1.594
22438TIP3    H267192   2.885   2.167   1.602
22439TIP3   OH267193   2.244   2.247   1.687
22439TIP3    H167194   2.265   2.156   1.667
22439TIP3    H267195   2.209   2.282   1.605
22440TIP3   OH267196   1.655   1.942   1.632
22440TIP3    H167197   1.629   2.014   1.574
22440TIP3    H267198   1.602   1.868   1.604
22441TIP3   OH267199   2.316   2.036   1.225
22441TIP3    H167200   2.391   2.023   1.284
22441TIP3    H267201   2.355   2.069   1.144
22442TIP3   OH267202   1.281   2.163   1.772
22442TIP3    H167203   1.362   2.138   1.817
22442TIP3    H267204   1.279   2.108   1.694
22443TIP3   OH267205   1.692   2.331   1.545
22443TIP3    H167206   1.783   2.302   1.548
22443TIP3    H267207   1.642   2.255   1.515
22444TIP3   OH267208   1.640   1.927   2.097
22444TIP3    H167209   1.591   1.975   2.031
22444TIP3    H267210   1.573   1.895   2.157
22445TIP3   OH267211   2.006   2.805   1.005
22445TIP3    H167212   1.956   2.763   0.934
22445TIP3    H267213   1.952   2.880   1.030
22446TIP3   OH267214   1.615   2.712   1.870
22446TIP3    H167215   1.650   2.672   1.950
22446TIP3    H267216   1.692   2.730   1.816
22447TIP3   OH267217   2.523   2.026   1.393
22447TIP3    H167218   2.521   1.966   1.468
22447TIP3    H267219   2.546   2.111   1.431
22448TIP3   OH267220   1.528   2.041   1.863
22448TIP3    H167221   1.577   2.119   1.890
22448TIP3    H267222   1.576   2.007   1.788
22449TIP3   OH267223   0.953   2.625   1.202
22449TIP3    H167224   0.917   2.647   1.116
22449TIP3    H267225   0.976   2.710   1.241
22450TIP3   OH267226   2.449   3.077   1.502
22450TIP3    H167227   2.355   3.078   1.488
22450TIP3    H267228   2.485   3.130   1.431
22451TIP3   OH267229   2.812   2.022   1.825
22451TIP3    H167230   2.772   2.031   1.912
22451TIP3    H267231   2.810   2.111   1.789
22452TIP3   OH267232   1.963   1.616   1.799
22452TIP3    H167233   1.958   1.524   1.826
22452TIP3    H267234   1.888   1.657   1.841
22453TIP3   OH267235   2.139   3.144   1.076
22453TIP3    H167236   2.193   3.067   1.056
22453TIP3    H267237   2.202   3.216   1.085
22454TIP3   OH267238   2.260   2.901   0.997
22454TIP3    H167239   2.172   2.865   0.986
22454TIP3    H267240   2.281   2.885   1.089
22455TIP3   OH267241   1.921   2.433   1.050
22455TIP3    H167242   1.833   2.468   1.034
22455TIP3    H267243   1.959   2.424   0.962
22456TIP3   OH267244   1.879   2.227   0.742
22456TIP3    H167245   1.946   2.278   0.789
22456TIP3    H267246   1.928   2.161   0.694
22457TIP3   OH267247   2.802   2.625   1.625
22457TIP3    H167248   2.756   2.701   1.660
22457TIP3    H267249   2.742   2.589   1.560
22458TIP3   OH267250   2.264   2.494   1.027
22458TIP3    H167251   2.216   2.531   1.101
22458TIP3    H267252   2.346   2.463   1.065
22459TIP3   OH267253   1.505   2.486   1.412
22459TIP3    H167254   1.464   2.427   1.348
22459TIP3    H267255   1.578   2.435   1.449
22460TIP3   OH267256   1.663   2.892   1.525
22460TIP3    H167257   1.599   2.890   1.453
22460TIP3    H267258   1.652   2.808   1.569
22461TIP3   OH267259   1.593   2.449   1.773
22461TIP3    H167260   1.633   2.416   1.693
22461TIP3    H267261   1.625   2.539   1.780
22462TIP3   OH267262   2.176   3.093   1.463
22462TIP3    H167263   2.155   3.176   1.421
22462TIP3    H267264   2.092   3.049   1.473
22463TIP3   OH267265   2.097   2.370   0.837
22463TIP3    H167266   2.157   2.427   0.886
22463TIP3    H267267   2.125   2.379   0.746
22464TIP3   OH267268   1.839   3.013   1.056
22464TIP3    H167269   1.847   3.058   1.140
22464TIP3    H267270   1.780   3.067   1.004
22465TIP3   OH267271   2.592   1.581   0.878
22465TIP3    H167272   2.515   1.605   0.930
22465TIP3    H267273   2.611   1.660   0.826
22466TIP3   OH267274   1.375   2.328   1.220
22466TIP3    H167275   1.297   2.377   1.192
22466TIP3    H267276   1.341   2.241   1.242
22467TIP3   OH267277   2.414   2.955   0.390
22467TIP3    H167278   2.418   3.051   0.390
22467TIP3    H267279   2.505   2.927   0.394
22468TIP3   OH267280   0.963   2.923   1.784
22468TIP3    H167281   1.051   2.929   1.820
22468TIP3    H267282   0.920   3.004   1.811
22469TIP3   OH267283   1.724   3.229   0.911
22469TIP3    H167284   1.688   3.215   0.823
22469TIP3    H267285   1.682   3.310   0.941
22470TIP3   OH267286   1.178   3.105   1.327
22470TIP3    H167287   1.226   3.097   1.410
22470TIP3    H267288   1.126   3.025   1.322
22471TIP3   OH267289   1.950   3.184   0.577
22471TIP3    H167290   1.991   3.107   0.538
22471TIP3    H267291   1.973   3.180   0.669
22472TIP3   OH267292   1.990   3.191   0.850
22472TIP3    H167293   1.900   3.199   0.882
22472TIP3    H267294   2.040   3.162   0.926
22473TIP3   OH267295   1.756   1.737   1.938
22473TIP3    H167296   1.678   1.701   1.895
22473TIP3    H267297   1.721   1.806   1.995
22474TIP3   OH267298   2.178   2.348   0.575
22474TIP3    H167299   2.135   2.347   0.490
22474TIP3    H267300   2.263   2.388   0.559
22475TIP3   OH267301   1.890   1.767   0.900
22475TIP3    H167302   1.854   1.775   0.989
22475TIP3    H267303   1.854   1.684   0.867
22476TIP3   OH267304   1.675   2.255   1.948
22476TIP3    H167305   1.710   2.303   2.023
22476TIP3    H267306   1.644   2.323   1.888
22477TIP3   OH267307   1.543   2.123   1.461
22477TIP3    H167308   1.455   2.099   1.490
22477TIP3    H267309   1.549   2.087   1.372
22478TIP3   OH267310   2.030   2.212   1.172
22478TIP3    H167311   1.987   2.289   1.135
22478TIP3    H267312   2.085   2.178   1.102
22479TIP3   OH267313   2.170   2.201   1.407
22479TIP3    H167314   2.114   2.218   1.332
22479TIP3    H267315   2.218   2.121   1.384
22480TIP3   OH267316   1.562   1.747   0.883
22480TIP3    H167317   1.552   1.750   0.979
22480TIP3    H267318   1.483   1.791   0.850
22481TIP3   OH267319   1.106   1.804   1.727
22481TIP3    H167320   1.183   1.830   1.778
22481TIP3    H267321   1.142   1.773   1.644
22482TIP3   OH267322   1.013   1.774   1.243
22482TIP3    H167323   1.057   1.810   1.166
22482TIP3    H267324   0.950   1.841   1.268
22483TIP3   OH267325   2.126   2.547   1.817
22483TIP3    H167326   2.189   2.548   1.745
22483TIP3    H267327   2.173   2.586   1.891
22484TIP3   OH267328   1.914   1.923   1.506
22484TIP3    H167329   1.834   1.929   1.560
22484TIP3    H267330   1.982   1.897   1.567
22485TIP3   OH267331   1.309   2.010   1.542
22485TIP3    H167332   1.222   2.018   1.502
22485TIP3    H267333   1.336   1.921   1.524
22486TIP3   OH267334   1.568   2.009   1.215
22486TIP3    H167335   1.662   2.023   1.206
22486TIP3    H267336   1.533   2.030   1.128
22487TIP3   OH267337   2.302   1.994   1.621
22487TIP3    H167338   2.386   1.948   1.627
22487TIP3    H267339   2.236   1.924   1.624
22488TIP3   OH267340   1.461   2.041   0.966
22488TIP3    H167341   1.399   1.989   0.914
22488TIP3    H267342   1.514   2.087   0.901
22489TIP3   OH267343   1.948   2.239   1.579
22489TIP3    H167344   2.022   2.200   1.532
22489TIP3    H267345   1.957   2.208   1.669
22490TIP3   OH267346   1.467   1.771   1.508
22490TIP3    H167347   1.440   1.692   1.555
22490TIP3    H267348   1.486   1.740   1.419
22491TIP3   OH267349   1.923   2.180   1.849
22491TIP3    H167350   1.831   2.188   1.872
22491TIP3    H267351   1.956   2.111   1.906
22492TIP3   OH267352   1.676   2.551   1.001
22492TIP3    H167353   1.600   2.497   0.979
22492TIP3    H267354   1.651   2.595   1.082
22493TIP3   OH267355   2.685   2.862   1.690
22493TIP3    H167356   2.677   2.890   1.599
22493TIP3    H267357   2.606   2.895   1.733
22494TIP3   OH267358   2.141   1.868   0.902
22494TIP3    H167359   2.048   1.847   0.895
22494TIP3    H267360   2.143   1.964   0.910
22495TIP3   OH267361   2.190   2.137   0.952
22495TIP3    H167362   2.286   2.138   0.954
22495TIP3    H267363   2.166   2.215   0.903
22496TIP3   OH267364   1.354   2.539   1.636
22496TIP3    H167365   1.400   2.527   1.553
22496TIP3    H267366   1.414   2.504   1.702
22497TIP3   OH267367   1.819   2.704   0.827
22497TIP3    H167368   1.770   2.786   0.823
22497TIP3    H267369   1.768   2.648   0.886
22498TIP3   OH267370   2.585   2.202   0.763
22498TIP3    H167371   2.532   2.154   0.700
22498TIP3    H267372   2.580   2.293   0.735
22499TIP3   OH267373   2.373   2.906   0.745
22499TIP3    H167374   2.319   2.900   0.824
22499TIP3    H267375   2.327   2.969   0.689
22500TIP3   OH267376   2.290   2.812   1.566
22500TIP3    H167377   2.240   2.731   1.558
22500TIP3    H267378   2.378   2.789   1.536
22501TIP3   OH267379   1.475   2.903   1.324
22501TIP3    H167380   1.464   2.975   1.261
22501TIP3    H267381   1.391   2.900   1.370
22502TIP3   OH267382   1.060   2.200   1.035
22502TIP3    H167383   1.102   2.283   1.058
22502TIP3    H267384   0.979   2.200   1.084
22503TIP3   OH267385   1.584   2.671   1.224
22503TIP3    H167386   1.554   2.758   1.253
22503TIP3    H267387   1.558   2.612   1.294
22504TIP3   OH267388   1.749   3.245   1.806
22504TIP3    H167389   1.817   3.308   1.785
22504TIP3    H267390   1.736   3.254   1.900
22505TIP3   OH267391   1.387   3.107   1.154
22505TIP3    H167392   1.307   3.110   1.205
22505TIP3    H267393   1.406   3.199   1.135
22506TIP3   OH267394   2.103   2.932   1.723
22506TIP3    H167395   2.140   2.909   1.808
22506TIP3    H267396   2.165   2.896   1.659
22507TIP3   OH267397   2.110   2.760   0.594
22507TIP3    H167398   2.152   2.724   0.672
22507TIP3    H267399   2.023   2.719   0.593
22508TIP3   OH267400   2.399   3.233   0.407
22508TIP3    H167401   2.454   3.279   0.344
22508TIP3    H267402   2.312   3.272   0.397
22509TIP3   OH267403   2.241   2.637   0.797
22509TIP3    H167404   2.240   2.604   0.888
22509TIP3    H267405   2.334   2.643   0.775
22510TIP3   OH267406   1.185   3.007   1.931
22510TIP3    H167407   1.168   2.961   2.013
22510TIP3    H267408   1.163   3.099   1.950
22511TIP3   OH267409   1.478   2.740   0.627
22511TIP3    H167410   1.489   2.648   0.602
22511TIP3    H267411   1.466   2.737   0.722
22512TIP3   OH267412   1.419   2.755   0.900
22512TIP3    H167413   1.481   2.735   0.969
22512TIP3    H267414   1.413   2.851   0.900
22513TIP3   OH267415   1.151   2.451   1.114
22513TIP3    H167416   1.085   2.499   1.165
22513TIP3    H267417   1.170   2.508   1.040
22514TIP3   OH267418   2.214   2.066   2.047
22514TIP3    H167419   2.205   2.146   2.098
22514TIP3    H267420   2.125   2.029   2.044
22515TIP3   OH267421   2.187   1.804   1.164
22515TIP3    H167422   2.163   1.821   1.072
22515TIP3    H267423   2.225   1.887   1.194
22516TIP3   OH267424   1.672   2.930   0.809
22516TIP3    H167425   1.590   2.957   0.849
22516TIP3    H267426   1.698   3.005   0.755
22517TIP3   OH267427   1.847   2.022   1.256
22517TIP3    H167428   1.908   2.090   1.228
22517TIP3    H267429   1.871   2.004   1.346
22518TIP3   OH267430   2.011   1.706   1.349
22518TIP3    H167431   1.989   1.787   1.396
22518TIP3    H267432   2.081   1.732   1.289
22519TIP3   OH267433   1.432   3.028   0.897
22519TIP3    H167434   1.414   3.106   0.843
22519TIP3    H267435   1.415   3.057   0.986
22520TIP3   OH267436   1.530   1.738   1.163
22520TIP3    H167437   1.519   1.830   1.188
22520TIP3    H267438   1.624   1.722   1.168
22521TIP3   OH267439   2.386   2.370   1.385
22521TIP3    H167440   2.313   2.309   1.394
22521TIP3    H267441   2.452   2.336   1.446
22522TIP3   OH267442   1.176   2.621   0.894
22522TIP3    H167443   1.248   2.684   0.903
22522TIP3    H267444   1.207   2.558   0.829
22523TIP3   OH267445   1.079   1.922   1.022
22523TIP3    H167446   1.095   2.015   1.035
22523TIP3    H267447   1.016   1.918   0.950
22524TIP3   OH267448   1.507   1.637   1.871
22524TIP3    H167449   1.474   1.608   1.786
22524TIP3    H267450   1.489   1.564   1.930
22525TIP3   OH267451   1.002   2.888   1.287
22525TIP3    H167452   0.959   2.924   1.365
22525TIP3    H267453   0.959   2.932   1.214
22526TIP3   OH267454   1.636   2.929   0.502
22526TIP3    H167455   1.588   2.865   0.554
22526TIP3    H267456   1.708   2.880   0.463
22527TIP3   OH267457   2.081   2.985   0.447
22527TIP3    H167458   2.104   2.903   0.491
22527TIP3    H267459   2.123   2.978   0.361
22528TIP3   OH267460   1.298   2.433   0.739
22528TIP3    H167461   1.348   2.409   0.818
22528TIP3    H267462   1.365   2.448   0.673
22529TIP3   OH267463   1.857   2.657   0.561
22529TIP3    H167464   1.834   2.667   0.653
22529TIP3    H267465   1.845   2.564   0.543
22530TIP3   OH267466   1.467   2.376   0.955
22530TIP3    H167467   1.444   2.345   1.042
22530TIP3    H267468   1.515   2.304   0.915
22531TIP3   OH267469   1.610   2.197   0.797
22531TIP3    H167470   1.580   2.202   0.706
22531TIP3    H267471   1.705   2.204   0.792
22532TIP3   OH267472   2.397   2.467   0.459
22532TIP3    H167473   2.386   2.425   0.373
22532TIP3    H267474   2.371   2.558   0.445
22533TIP3   OH267475   1.946   1.973   2.035
22533TIP3    H167476   1.910   1.896   1.992
22533TIP3    H267477   1.889   1.988   2.110
22534TIP3   OH267478   1.440   3.249   0.723
22534TIP3    H167479   1.525   3.220   0.691
22534TIP3    H267480   1.395   3.281   0.645
22535TIP3   OH267481   0.903   2.628   0.902
22535TIP3    H167482   0.998   2.637   0.904
22535TIP3    H267483   0.887   2.541   0.866
22536TIP3   OH267484   0.803   3.207   1.375
22536TIP3    H167485   0.736   3.159   1.326
22536TIP3    H267486   0.844   3.142   1.431
22537TIP3   OH267487   0.942   3.024   1.526
22537TIP3    H167488   0.927   2.960   1.595
22537TIP3    H267489   0.999   3.090   1.566
22538TIP3   OH267490   2.513   2.676   0.755
22538TIP3    H167491   2.470   2.757   0.726
22538TIP3    H267492   2.594   2.706   0.796
22539TIP3   OH267493   2.710   2.483   1.014
22539TIP3    H167494   2.634   2.442   1.056
22539TIP3    H267495   2.764   2.513   1.087
22540TIP3   OH267496   2.733   2.877   1.422
22540TIP3    H167497   2.813   2.826   1.411
22540TIP3    H267498   2.761   2.968   1.412
22541TIP3   OH267499   2.592   2.444   0.644
22541TIP3    H167500   2.526   2.440   0.574
22541TIP3    H267501   2.572   2.526   0.690
22542TIP3   OH267502   2.433   2.092   0.569
22542TIP3    H167503   2.388   2.113   0.487
22542TIP3    H267504   2.439   1.997   0.569
22543TIP3   OH267505   2.493   2.369   1.135
22543TIP3    H167506   2.485   2.279   1.105
22543TIP3    H267507   2.456   2.369   1.223
22544TIP3   OH267508   1.118   2.541   1.902
22544TIP3    H167509   1.105   2.493   1.820
22544TIP3    H267510   1.212   2.534   1.919
22545TIP3   OH267511   2.429   1.820   0.553
22545TIP3    H167512   2.493   1.800   0.621
22545TIP3    H267513   2.347   1.786   0.586
22546TIP3   OH267514   2.474   2.119   1.005
22546TIP3    H167515   2.519   2.037   1.024
22546TIP3    H267516   2.516   2.151   0.925
22547TIP3   OH267517   2.585   2.254   1.533
22547TIP3    H167518   2.676   2.258   1.504
22547TIP3    H267519   2.589   2.263   1.628
22548TIP3   OH267520   2.808   2.471   1.852
22548TIP3    H167521   2.747   2.517   1.910
22548TIP3    H267522   2.810   2.524   1.772
22549TIP3   OH267523   2.591   1.874   1.057
22549TIP3    H167524   2.636   1.856   1.140
22549TIP3    H267525   2.527   1.803   1.049
22550TIP3   OH267526   1.329   1.847   1.888
22550TIP3    H167527   1.387   1.771   1.889
22550TIP3    H267528   1.388   1.922   1.881
22551TIP3   OH267529   1.106   2.132   1.997
22551TIP3    H167530   1.158   2.151   1.918
22551TIP3    H267531   1.089   2.218   2.036
22552TIP3   OH267532   2.651   1.794   0.716
22552TIP3    H167533   2.699   1.735   0.657
22552TIP3    H267534   2.707   1.871   0.723
22553TIP3   OH267535   1.094   1.650   1.472
22553TIP3    H167536   1.009   1.634   1.513
22553TIP3    H267537   1.074   1.700   1.393
22554TIP3   OH267538   2.301   3.367   1.033
22554TIP3    H167539   2.327   3.309   0.961
22554TIP3    H267540   2.355   3.445   1.023
22555TIP3   OH267541   1.438   3.327   1.687
22555TIP3    H167542   1.391   3.328   1.771
22555TIP3    H267543   1.426   3.416   1.653
22556TIP3   OH267544   1.950   3.422   1.690
22556TIP3    H167545   1.868   3.433   1.641
22556TIP3    H267546   1.934   3.468   1.772
22557TIP3   OH267547   1.111   3.199   1.664
22557TIP3    H167548   1.112   3.179   1.758
22557TIP3    H267549   1.193   3.163   1.631
22558TIP3   OH267550   1.331   3.074   1.557
22558TIP3    H167551   1.349   2.987   1.590
22558TIP3    H267552   1.402   3.128   1.590
22559TIP3   OH267553   1.650   3.171   1.477
22559TIP3    H167554   1.648   3.080   1.506
22559TIP3    H267555   1.675   3.220   1.554
22560TIP3   OH267556   2.115   1.790   1.640
22560TIP3    H167557   2.078   1.717   1.690
22560TIP3    H267558   2.179   1.749   1.581
22561TIP3   OH267559   2.662   1.707   1.507
22561TIP3    H167560   2.698   1.751   1.430
22561TIP3    H267561   2.619   1.777   1.557
22562TIP3   OH267562   2.751   1.799   1.268
22562TIP3    H167563   2.816   1.731   1.252
22562TIP3    H267564   2.798   1.881   1.254
22563TIP3   OH267565   1.402   1.538   1.638
22563TIP3    H167566   1.311   1.509   1.650
22563TIP3    H267567   1.452   1.456   1.633
22564TIP3   OH267568   1.219   1.450   1.310
22564TIP3    H167569   1.243   1.498   1.231
22564TIP3    H267570   1.184   1.517   1.369
22565TIP3   OH267571   1.858   1.572   1.539
22565TIP3    H167572   1.909   1.617   1.472
22565TIP3    H267573   1.900   1.597   1.622
22566TIP3   OH267574   2.326   1.715   1.481
22566TIP3    H167575   2.375   1.696   1.401
22566TIP3    H267576   2.347   1.642   1.539
22567TIP3   OH267577   2.406   1.667   1.064
22567TIP3    H167578   2.328   1.715   1.093
22567TIP3    H267579   2.396   1.579   1.101
22568TIP3   OH267580   0.885   3.010   1.070
22568TIP3    H167581   0.802   2.979   1.035
22568TIP3    H267582   0.893   3.100   1.039
22569TIP3   OH267583   1.321   1.575   1.069
22569TIP3    H167584   1.367   1.513   1.013
22569TIP3    H267585   1.390   1.629   1.106
22570TIP3   OH267586   1.804   1.768   1.163
22570TIP3    H167587   1.862   1.715   1.218
22570TIP3    H267588   1.819   1.858   1.193
22571TIP3   OH267589   1.684   3.159   0.640
22571TIP3    H167590   1.771   3.184   0.610
22571TIP3    H267591   1.658   3.088   0.581
22572TIP3   OH267592   2.389   3.197   0.847
22572TIP3    H167593   2.454   3.127   0.855
22572TIP3    H267594   2.337   3.173   0.771
22573TIP3   OH267595   1.002   3.007   0.721
22573TIP3    H167596   1.001   3.020   0.816
22573TIP3    H267597   1.083   2.960   0.704
22574TIP3   OH267598   2.836   2.366   0.806
22574TIP3    H167599   2.784   2.410   0.873
22574TIP3    H267600   2.772   2.323   0.750
22575TIP3   OH267601   2.887   2.650   1.152
22575TIP3    H167602   2.977   2.623   1.134
22575TIP3    H267603   2.873   2.726   1.096
22576TIP3   OH267604   3.386   2.126   1.096
22576TIP3    H167605   3.360   2.213   1.068
22576TIP3    H267606   3.419   2.084   1.016
22577TIP3   OH267607   4.129   2.310   0.766
22577TIP3    H167608   4.120   2.310   0.862
22577TIP3    H267609   4.121   2.402   0.741
22578TIP3   OH267610   3.095   2.343   1.261
22578TIP3    H167611   3.145   2.415   1.222
22578TIP3    H267612   3.036   2.315   1.191
22579TIP3   OH267613   3.570   2.713   1.071
22579TIP3    H167614   3.601   2.631   1.108
22579TIP3    H267615   3.487   2.690   1.028
22580TIP3   OH267616   3.466   2.254   1.606
22580TIP3    H167617   3.379   2.267   1.568
22580TIP3    H267618   3.477   2.328   1.666
22581TIP3   OH267619   3.329   2.521   1.254
22581TIP3    H167620   3.364   2.580   1.320
22581TIP3    H267621   3.384   2.443   1.260
22582TIP3   OH267622   2.745   2.835   0.651
22582TIP3    H167623   2.700   2.851   0.568
22582TIP3    H267624   2.787   2.918   0.673
22583TIP3   OH267625   3.906   1.977   1.354
22583TIP3    H167626   3.898   1.885   1.327
22583TIP3    H267627   3.819   2.000   1.386
22584TIP3   OH267628   3.729   2.679   0.495
22584TIP3    H167629   3.662   2.741   0.524
22584TIP3    H267630   3.811   2.715   0.528
22585TIP3   OH267631   3.695   2.460   0.259
22585TIP3    H167632   3.774   2.504   0.291
22585TIP3    H267633   3.697   2.374   0.301
22586TIP3   OH267634   3.929   2.598   0.288
22586TIP3    H167635   3.948   2.672   0.345
22586TIP3    H267636   3.920   2.637   0.201
22587TIP3   OH267637   4.355   1.798   0.504
22587TIP3    H167638   4.294   1.843   0.562
22587TIP3    H267639   4.396   1.868   0.452
22588TIP3   OH267640   3.035   2.508   0.687
22588TIP3    H167641   3.040   2.585   0.744
22588TIP3    H267642   2.960   2.458   0.720
22589TIP3   OH267643   2.899   3.331   0.888
22589TIP3    H167644   2.967   3.268   0.865
22589TIP3    H267645   2.822   3.302   0.839
22590TIP3   OH267646   3.735   3.430   0.114
22590TIP3    H167647   3.799   3.391   0.054
22590TIP3    H267648   3.748   3.383   0.196
22591TIP3   OH267649   3.650   2.016   1.477
22591TIP3    H167650   3.629   2.019   1.384
22591TIP3    H267651   3.663   2.107   1.502
22592TIP3   OH267652   7.359   7.192   8.023
22592TIP3    H167653   7.270   7.176   7.992
22592TIP3    H267654   7.383   7.277   7.987
22593TIP3   OH267655   3.739   1.925   0.309
22593TIP3    H167656   3.760   1.918   0.402
22593TIP3    H267657   3.659   1.874   0.298
22594TIP3   OH267658   3.310   2.357   0.985
22594TIP3    H167659   3.256   2.426   1.025
22594TIP3    H267660   3.258   2.325   0.911
22595TIP3   OH267661   3.848   2.403   0.701
22595TIP3    H167662   3.804   2.488   0.714
22595TIP3    H267663   3.891   2.411   0.616
22596TIP3   OH267664   3.323   1.997   0.334
22596TIP3    H167665   3.308   1.993   0.428
22596TIP3    H267666   3.247   2.044   0.299
22597TIP3   OH267667   2.899   2.008   1.176
22597TIP3    H167668   2.987   2.019   1.213
22597TIP3    H267669   2.915   1.967   1.091
22598TIP3   OH267670   2.801   2.027   0.740
22598TIP3    H167671   2.848   2.062   0.664
22598TIP3    H267672   2.731   2.090   0.756
22599TIP3   OH267673   3.661   2.196   0.973
22599TIP3    H167674   3.616   2.276   0.948
22599TIP3    H267675   3.628   2.176   1.061
22600TIP3   OH267676   2.959   2.267   1.031
22600TIP3    H167677   2.910   2.278   0.950
22600TIP3    H267678   3.006   2.184   1.019
22601TIP3   OH267679   3.392   2.261   0.625
22601TIP3    H167680   3.465   2.323   0.617
22601TIP3    H267681   3.340   2.275   0.546
22602TIP3   OH267682   3.215   2.289   0.420
22602TIP3    H167683   3.138   2.239   0.392
22602TIP3    H267684   3.263   2.305   0.339
22603TIP3   OH267685   3.338   1.826   0.932
22603TIP3    H167686   3.262   1.805   0.987
22603TIP3    H267687   3.318   1.912   0.895
22604TIP3   OH267688   3.468   2.806   0.499
22604TIP3    H167689   3.394   2.745   0.504
22604TIP3    H267690   3.430   2.892   0.515
22605TIP3   OH267691   3.766   2.177   0.188
22605TIP3    H167692   3.720   2.096   0.208
22605TIP3    H267693   3.806   2.204   0.270
22606TIP3   OH267694   4.011   2.430   0.482
22606TIP3    H167695   4.107   2.438   0.485
22606TIP3    H267696   3.986   2.484   0.406
22607TIP3   OH267697   3.169   2.757   1.225
22607TIP3    H167698   3.210   2.835   1.189
22607TIP3    H267699   3.243   2.701   1.249
22608TIP3   OH267700   3.771   3.016   0.224
22608TIP3    H167701   3.766   3.028   0.319
22608TIP3    H267702   3.778   2.922   0.212
22609TIP3   OH267703   4.507   2.486   0.281
22609TIP3    H167704   4.421   2.528   0.280
22609TIP3    H267705   4.570   2.558   0.287
22610TIP3   OH267706   2.811   2.414   0.480
22610TIP3    H167707   2.849   2.501   0.474
22610TIP3    H267708   2.734   2.425   0.537
22611TIP3   OH267709   3.183   3.435   0.725
22611TIP3    H167710   3.095   3.466   0.708
22611TIP3    H267711   3.239   3.512   0.716
22612TIP3   OH267712   3.297   2.998   0.017
22612TIP3    H167713   3.265   2.947  -0.057
22612TIP3    H267714   3.313   2.933   0.086
22613TIP3   OH267715   3.166   3.036   0.366
22613TIP3    H167716   3.213   2.969   0.316
22613TIP3    H267717   3.202   3.031   0.454
22614TIP3   OH267718   2.909   2.669   0.507
22614TIP3    H167719   2.850   2.719   0.562
22614TIP3    H267720   2.965   2.622   0.569
22615TIP3   OH267721   3.997   2.099   0.653
22615TIP3    H167722   3.983   2.105   0.558
22615TIP3    H267723   4.031   2.185   0.677
22616TIP3   OH267724   3.679   2.187   0.701
22616TIP3    H167725   3.739   2.261   0.700
22616TIP3    H267726   3.660   2.172   0.794
22617TIP3   OH267727   3.759   1.959   0.872
22617TIP3    H167728   3.735   2.045   0.908
22617TIP3    H267729   3.833   1.930   0.925
22618TIP3   OH267730   3.261   3.283   0.516
22618TIP3    H167731   3.212   3.333   0.452
22618TIP3    H267732   3.237   3.322   0.600
22619TIP3   OH267733   3.250   1.988   0.598
22619TIP3    H167734   3.229   2.073   0.636
22619TIP3    H267735   3.344   1.979   0.609
22620TIP3   OH267736   2.924   2.907   0.318
22620TIP3    H167737   3.001   2.960   0.338
22620TIP3    H267738   2.960   2.824   0.286
22621TIP3   OH267739   2.883   2.150   0.510
22621TIP3    H167740   2.872   2.245   0.502
22621TIP3    H267741   2.851   2.115   0.427
22622TIP3   OH267742   3.300   1.797   1.330
22622TIP3    H167743   3.258   1.808   1.244
22622TIP3    H267744   3.255   1.723   1.369
22623TIP3   OH267745   2.795   3.095   0.739
22623TIP3    H167746   2.710   3.081   0.782
22623TIP3    H267747   2.773   3.141   0.658
22624TIP3   OH267748   3.068   2.693   0.204
22624TIP3    H167749   3.096   2.662   0.290
22624TIP3    H267750   3.150   2.707   0.156
22625TIP3   OH267751   3.549   2.827   0.006
22625TIP3    H167752   3.580   2.792   0.089
22625TIP3    H267753   3.470   2.777  -0.013
22626TIP3   OH267754   3.218   2.646   0.453
22626TIP3    H167755   3.184   2.605   0.532
22626TIP3    H267756   3.286   2.586   0.422
22627TIP3   OH267757   3.369   2.321   0.196
22627TIP3    H167758   3.342   2.358   0.111
22627TIP3    H267759   3.420   2.244   0.173
22628TIP3   OH267760   7.446   7.423   7.908
22628TIP3    H167761   7.440   7.376   7.824
22628TIP3    H267762   7.433   7.515   7.885
22629TIP3   OH267763   3.327   3.536   0.204
22629TIP3    H167764   3.364   3.623   0.189
22629TIP3    H267765   3.253   3.530   0.144
22630TIP3   OH267766   2.666   2.849   0.392
22630TIP3    H167767   2.754   2.878   0.368
22630TIP3    H267768   2.655   2.765   0.346
22631TIP3   OH267769   2.637   3.347   0.798
22631TIP3    H167770   2.563   3.401   0.767
22631TIP3    H267771   2.614   3.325   0.888
22632TIP3   OH267772   2.682   3.382   1.092
22632TIP3    H167773   2.663   3.294   1.126
22632TIP3    H267774   2.650   3.441   1.160
22633TIP3   OH267775   4.487   2.777   0.206
22633TIP3    H167776   4.502   2.802   0.115
22633TIP3    H267777   4.454   2.857   0.248
22634TIP3   OH267778   7.579   6.986   7.997
22634TIP3    H167779   7.512   7.047   7.967
22634TIP3    H267780   7.561   6.905   7.949
22635TIP3   OH267781   2.963   2.723   1.397
22635TIP3    H167782   2.918   2.686   1.321
22635TIP3    H267783   3.043   2.761   1.361
22636TIP3   OH267784   4.213   2.099  -0.030
22636TIP3    H167785   4.297   2.081   0.013
22636TIP3    H267786   4.149   2.050   0.021
22637TIP3   OH267787   4.295   2.415   0.491
22637TIP3    H167788   4.293   2.327   0.530
22637TIP3    H267789   4.386   2.443   0.503
22638TIP3   OH267790   4.536   2.108   0.588
22638TIP3    H167791   4.550   2.099   0.682
22638TIP3    H267792   4.444   2.136   0.581
22639TIP3   OH267793   3.122   2.073   1.320
22639TIP3    H167794   3.214   2.068   1.348
22639TIP3    H267795   3.107   2.167   1.305
22640TIP3   OH267796   2.962   2.445   1.474
22640TIP3    H167797   3.009   2.398   1.405
22640TIP3    H267798   2.873   2.454   1.440
22641TIP3   OH267799   4.467   2.068   0.072
22641TIP3    H167800   4.481   1.982   0.111
22641TIP3    H267801   4.511   2.129   0.131
22642TIP3   OH267802   2.858   1.858   0.944
22642TIP3    H167803   2.768   1.850   0.975
22642TIP3    H267804   2.855   1.925   0.876
22643TIP3   OH267805   3.116   2.051   1.951
22643TIP3    H167806   3.130   1.957   1.954
22643TIP3    H267807   3.124   2.074   1.859
22644TIP3   OH267808   3.899   2.165   1.156
22644TIP3    H167809   3.935   2.114   1.228
22644TIP3    H267810   3.950   2.139   1.079
22645TIP3   OH267811   3.142   1.752   1.111
22645TIP3    H167812   3.047   1.737   1.114
22645TIP3    H267813   3.181   1.666   1.126
22646TIP3   OH267814   2.985   1.669   0.778
22646TIP3    H167815   3.011   1.716   0.698
22646TIP3    H267816   2.952   1.738   0.836
22647TIP3   OH267817   3.655   1.774   1.110
22647TIP3    H167818   3.749   1.795   1.110
22647TIP3    H267819   3.633   1.763   1.202
22648TIP3   OH267820   4.297   2.054   0.929
22648TIP3    H167821   4.282   1.999   0.852
22648TIP3    H267822   4.281   1.995   1.003
22649TIP3   OH267823   4.207   1.930   0.693
22649TIP3    H167824   4.120   1.965   0.674
22649TIP3    H267825   4.190   1.857   0.753
22650TIP3   OH267826   2.640   3.220   0.549
22650TIP3    H167827   2.555   3.227   0.506
22650TIP3    H267828   2.636   3.283   0.621
22651TIP3   OH267829   3.075   1.789   0.540
22651TIP3    H167830   3.129   1.730   0.487
22651TIP3    H267831   3.135   1.858   0.568
22652TIP3   OH267832   3.521   1.979   0.599
22652TIP3    H167833   3.588   1.911   0.587
22652TIP3    H267834   3.571   2.060   0.611
22653TIP3   OH267835   2.751   3.101   0.230
22653TIP3    H167836   2.778   3.179   0.278
22653TIP3    H267837   2.817   3.035   0.252
22654TIP3   OH267838   8.302   6.982   7.787
22654TIP3    H167839   8.386   6.974   7.832
22654TIP3    H267840   8.317   6.943   7.701
22655TIP3   OH267841   4.641   2.265   0.181
22655TIP3    H167842   4.682   2.226   0.258
22655TIP3    H267843   4.593   2.341   0.215
22656TIP3   OH267844   8.035   7.021   7.977
22656TIP3    H167845   7.966   7.087   7.978
22656TIP3    H267846   8.006   6.956   8.041
22657TIP3   OH267847   4.744   2.139   0.399
22657TIP3    H167848   4.685   2.138   0.475
22657TIP3    H267849   4.829   2.162   0.436
22658TIP3   OH267850   4.756   1.939   0.209
22658TIP3    H167851   4.819   1.971   0.144
22658TIP3    H267852   4.749   2.010   0.273
22659TIP3   OH267853   8.182   6.673   8.015
22659TIP3    H167854   8.215   6.656   7.927
22659TIP3    H267855   8.222   6.756   8.040
22660TIP3   OH267856   9.536   3.805   0.852
22660TIP3    H167857   9.540   3.799   0.948
22660TIP3    H267858   9.593   3.734   0.822
22661TIP3   OH267859   0.462   3.148   1.047
22661TIP3    H167860   0.389   3.169   1.104
22661TIP3    H267861   0.472   3.226   0.991
22662TIP3   OH267862   0.080   3.835   0.719
22662TIP3    H167863   0.024   3.847   0.642
22662TIP3    H267864   0.134   3.914   0.723
22663TIP3   OH267865   9.553   3.327   1.018
22663TIP3    H167866   9.506   3.349   1.098
22663TIP3    H267867   9.517   3.241   0.993
22664TIP3   OH267868   9.232   3.327   1.026
22664TIP3    H167869   9.259   3.361   1.112
22664TIP3    H267870   9.150   3.372   1.007
22665TIP3   OH267871   9.806   3.418   1.038
22665TIP3    H167872   9.713   3.403   1.026
22665TIP3    H267873   9.817   3.513   1.027
22666TIP3   OH267874   0.077   3.682   1.027
22666TIP3    H167875   0.161   3.674   1.071
22666TIP3    H267876   0.092   3.747   0.958
22667TIP3   OH267877   0.478   3.787   0.927
22667TIP3    H167878   0.418   3.739   0.870
22667TIP3    H267879   0.478   3.876   0.892
22668TIP3   OH267880   0.069   3.381   1.301
22668TIP3    H167881   0.043   3.386   1.209
22668TIP3    H267882   0.085   3.472   1.326
22669TIP3   OH267883   0.237   4.056   0.649
22669TIP3    H167884   0.236   4.015   0.563
22669TIP3    H267885   0.190   4.139   0.637
22670TIP3   OH267886   0.455   4.038   0.811
22670TIP3    H167887   0.385   4.036   0.747
22670TIP3    H267888   0.428   4.104   0.875
22671TIP3   OH267889   0.308   3.672   0.752
22671TIP3    H167890   0.231   3.718   0.718
22671TIP3    H267891   0.300   3.583   0.719
22672TIP3   OH267892   0.281   3.399   0.703
22672TIP3    H167893   0.342   3.380   0.774
22672TIP3    H267894   0.198   3.361   0.731
22673TIP3   OH267895   0.331   3.653   1.133
22673TIP3    H167896   0.381   3.579   1.169
22673TIP3    H267897   0.393   3.697   1.075
22674TIP3   OH267898   0.473   3.427   1.226
22674TIP3    H167899   0.510   3.423   1.314
22674TIP3    H267900   0.409   3.356   1.224
22675TIP3   OH267901   0.502   3.353   0.868
22675TIP3    H167902   0.550   3.293   0.812
22675TIP3    H267903   0.556   3.432   0.871
22676TIP3   OH267904   0.527   3.274   1.686
22676TIP3    H167905   0.563   3.333   1.621
22676TIP3    H267906   0.435   3.300   1.694
22677TIP3   OH267907   0.621   3.399   1.462
22677TIP3    H167908   0.691   3.339   1.435
22677TIP3    H267909   0.653   3.486   1.435
22678TIP3   OH267910   0.255   3.303   1.664
22678TIP3    H167911   0.227   3.286   1.574
22678TIP3    H267912   0.218   3.231   1.715
22679TIP3   OH267913   0.284   3.226   1.237
22679TIP3    H167914   0.206   3.278   1.259
22679TIP3    H267915   0.267   3.141   1.277
22680TIP3   OH267916   9.055   3.008   1.291
22680TIP3    H167917   9.082   3.023   1.201
22680TIP3    H267918   8.984   3.070   1.305
22681TIP3   OH267919   9.422   3.351   1.260
22681TIP3    H167920   9.428   3.263   1.298
22681TIP3    H267921   9.445   3.410   1.331
22682TIP3   OH267922   1.752   4.374   0.979
22682TIP3    H167923   1.678   4.412   0.931
22682TIP3    H267924   1.807   4.336   0.911
22683TIP3   OH267925   0.685   3.852   1.103
22683TIP3    H167926   0.642   3.850   1.189
22683TIP3    H267927   0.615   3.829   1.041
22684TIP3   OH267928   1.247   3.731   1.160
22684TIP3    H167929   1.204   3.811   1.131
22684TIP3    H267930   1.182   3.662   1.144
22685TIP3   OH267931   1.971   3.816   0.847
22685TIP3    H167932   1.983   3.846   0.937
22685TIP3    H267933   2.059   3.810   0.812
22686TIP3   OH267934   1.295   4.226   1.144
22686TIP3    H167935   1.371   4.228   1.086
22686TIP3    H267936   1.294   4.137   1.179
22687TIP3   OH267937   1.583   4.489   0.797
22687TIP3    H167938   1.580   4.449   0.710
22687TIP3    H267939   1.620   4.576   0.782
22688TIP3   OH267940   2.203   3.985   1.243
22688TIP3    H167941   2.236   3.937   1.167
22688TIP3    H267942   2.205   4.077   1.215
22689TIP3   OH267943   1.101   3.867   1.621
22689TIP3    H167944   1.048   3.932   1.575
22689TIP3    H267945   1.179   3.856   1.566
22690TIP3   OH267946   1.477   3.358   1.375
22690TIP3    H167947   1.537   3.285   1.392
22690TIP3    H267948   1.461   3.396   1.462
22691TIP3   OH267949   1.704   4.714   0.686
22691TIP3    H167950   1.757   4.669   0.620
22691TIP3    H267951   1.762   4.783   0.719
22692TIP3   OH267952   1.486   4.147   0.728
22692TIP3    H167953   1.392   4.144   0.707
22692TIP3    H267954   1.528   4.154   0.642
22693TIP3   OH267955   1.488   3.960   0.386
22693TIP3    H167956   1.553   4.014   0.432
22693TIP3    H267957   1.539   3.910   0.322
22694TIP3   OH267958   1.070   4.331   1.024
22694TIP3    H167959   1.021   4.264   0.977
22694TIP3    H267960   1.137   4.283   1.073
22695TIP3   OH267961   2.151   3.336   0.442
22695TIP3    H167962   2.089   3.305   0.508
22695TIP3    H267963   2.187   3.417   0.478
22696TIP3   OH267964   0.955   4.131   0.861
22696TIP3    H167965   0.884   4.181   0.819
22696TIP3    H267966   0.913   4.050   0.889
22697TIP3   OH267967   2.066   4.805   0.009
22697TIP3    H167968   2.104   4.826   0.094
22697TIP3    H267969   2.138   4.770  -0.043
22698TIP3   OH267970   1.616   5.020   0.188
22698TIP3    H167971   1.659   4.950   0.139
22698TIP3    H267972   1.597   4.981   0.273
22699TIP3   OH267973   1.684   5.128   0.516
22699TIP3    H167974   1.636   5.127   0.599
22699TIP3    H267975   1.683   5.037   0.487
22700TIP3   OH267976   1.439   3.577   1.578
22700TIP3    H167977   1.350   3.585   1.542
22700TIP3    H267978   1.442   3.644   1.646
22701TIP3   OH267979   1.724   4.144   0.137
22701TIP3    H167980   1.701   4.133   0.045
22701TIP3    H267981   1.803   4.199   0.135
22702TIP3   OH267982   1.529   3.558   0.513
22702TIP3    H167983   1.476   3.580   0.589
22702TIP3    H267984   1.491   3.477   0.480
22703TIP3   OH267985   1.102   3.975   1.101
22703TIP3    H167986   1.035   3.919   1.141
22703TIP3    H267987   1.111   3.941   1.011
22704TIP3   OH267988   1.673   3.957   0.766
22704TIP3    H167989   1.595   4.011   0.779
22704TIP3    H267990   1.707   3.983   0.681
22705TIP3   OH267991   1.765   4.085   0.990
22705TIP3    H167992   1.738   4.031   0.916
22705TIP3    H267993   1.860   4.091   0.983
22706TIP3   OH267994   1.205   3.560   0.511
22706TIP3    H167995   1.215   3.571   0.606
22706TIP3    H267996   1.119   3.599   0.492
22707TIP3   OH267997   0.719   3.621   1.337
22707TIP3    H167998   0.793   3.654   1.390
22707TIP3    H267999   0.761   3.580   1.261
22708TIP3   OH268000   0.659   3.582   0.877
22708TIP3    H168001   0.704   3.613   0.799
22708TIP3    H268002   0.599   3.653   0.901
22709TIP3   OH268003   1.506   3.677   1.098
22709TIP3    H168004   1.411   3.690   1.103
22709TIP3    H268005   1.530   3.641   1.183
22710TIP3   OH268006   0.936   3.781   1.183
22710TIP3    H168007   0.849   3.796   1.148
22710TIP3    H268008   0.960   3.694   1.153
22711TIP3   OH268009   1.140   3.818   0.870
22711TIP3    H168010   1.232   3.845   0.873
22711TIP3    H268011   1.114   3.832   0.779
22712TIP3   OH268012   1.992   3.915   1.397
22712TIP3    H168013   1.946   3.858   1.335
22712TIP3    H268014   2.065   3.950   1.346
22713TIP3   OH268015   1.070   3.841   0.608
22713TIP3    H168016   1.011   3.786   0.557
22713TIP3    H268017   1.126   3.883   0.543
22714TIP3   OH268018   1.636   4.106   1.332
22714TIP3    H168019   1.705   4.162   1.296
22714TIP3    H268020   1.657   4.019   1.300
22715TIP3   OH268021   1.053   3.542   1.107
22715TIP3    H168022   1.040   3.465   1.162
22715TIP3    H268023   1.061   3.508   1.018
22716TIP3   OH268024   1.694   4.150   1.600
22716TIP3    H168025   1.669   4.122   1.511
22716TIP3    H268026   1.638   4.099   1.658
22717TIP3   OH268027   1.283   4.352   0.553
22717TIP3    H168028   1.207   4.294   0.543
22717TIP3    H268029   1.286   4.373   0.646
22718TIP3   OH268030   1.727   3.744   0.534
22718TIP3    H168031   1.645   3.700   0.510
22718TIP3    H268032   1.731   3.819   0.475
22719TIP3   OH268033   1.577   4.632   0.410
22719TIP3    H168034   1.482   4.625   0.409
22719TIP3    H268035   1.605   4.568   0.476
22720TIP3   OH268036   2.297   4.091   0.475
22720TIP3    H168037   2.311   4.018   0.415
22720TIP3    H268038   2.288   4.167   0.419
22721TIP3   OH268039   2.147   4.758   0.457
22721TIP3    H168040   2.103   4.753   0.541
22721TIP3    H268041   2.115   4.839   0.417
22722TIP3   OH268042   0.692   4.004   0.668
22722TIP3    H168043   0.727   4.093   0.679
22722TIP3    H268044   0.609   4.005   0.716
22723TIP3   OH268045   1.205   4.580   1.024
22723TIP3    H168046   1.128   4.636   1.030
22723TIP3    H268047   1.170   4.491   1.017
22724TIP3   OH268048   1.696   4.484   0.217
22724TIP3    H168049   1.661   4.547   0.280
22724TIP3    H268050   1.619   4.438   0.185
22725TIP3   OH268051   2.087   5.229   0.142
22725TIP3    H168052   2.166   5.205   0.095
22725TIP3    H268053   2.019   5.172   0.107
22726TIP3   OH268054   1.863   4.560   0.520
22726TIP3    H168055   1.864   4.480   0.468
22726TIP3    H268056   1.952   4.569   0.553
22727TIP3   OH268057   1.098   4.523   0.238
22727TIP3    H168058   1.104   4.431   0.210
22727TIP3    H268059   1.048   4.520   0.319
22728TIP3   OH268060   1.017   4.567   0.494
22728TIP3    H168061   1.073   4.562   0.572
22728TIP3    H268062   1.004   4.660   0.479
22729TIP3   OH268063   0.749   4.267   0.740
22729TIP3    H168064   0.668   4.306   0.773
22729TIP3    H268065   0.773   4.323   0.666
22730TIP3   OH268066   1.803   3.622   0.765
22730TIP3    H168067   1.752   3.655   0.691
22730TIP3    H268068   1.857   3.696   0.793
22731TIP3   OH268069   1.274   4.860   0.487
22731TIP3    H168070   1.183   4.867   0.458
22731TIP3    H268071   1.297   4.768   0.473
22732TIP3   OH268072   1.519   3.741   0.806
22732TIP3    H168073   1.588   3.800   0.777
22732TIP3    H268074   1.469   3.792   0.870
22733TIP3   OH268075   1.613   3.487   0.924
22733TIP3    H168076   1.573   3.562   0.969
22733TIP3    H268077   1.664   3.526   0.853
22734TIP3   OH268078   1.106   3.541   0.826
22734TIP3    H168079   1.101   3.634   0.847
22734TIP3    H268080   1.200   3.524   0.812
22735TIP3   OH268081   0.786   4.426   0.521
22735TIP3    H168082   0.853   4.494   0.518
22735TIP3    H268083   0.814   4.361   0.457
22736TIP3   OH268084   0.723   3.727   0.653
22736TIP3    H168085   0.732   3.821   0.665
22736TIP3    H268086   0.665   3.719   0.577
22737TIP3   OH268087   0.994   3.425   1.561
22737TIP3    H168088   0.978   3.387   1.474
22737TIP3    H268089   1.028   3.352   1.613
22738TIP3   OH268090   1.134   4.757   0.098
22738TIP3    H168091   1.114   4.672   0.137
22738TIP3    H268092   1.220   4.780   0.132
22739TIP3   OH268093   1.719   4.807   0.064
22739TIP3    H168094   1.790   4.769   0.116
22739TIP3    H268095   1.749   4.799  -0.027
22740TIP3   OH268096   0.911   4.241   0.367
22740TIP3    H168097   0.960   4.213   0.444
22740TIP3    H268098   0.977   4.246   0.298
22741TIP3   OH268099   1.420   4.459   0.168
22741TIP3    H168100   1.380   4.501   0.243
22741TIP3    H268101   1.419   4.366   0.189
22742TIP3   OH268102   1.078   4.164   0.571
22742TIP3    H168103   1.062   4.127   0.658
22742TIP3    H268104   1.126   4.095   0.525
22743TIP3   OH268105   1.220   3.980   0.426
22743TIP3    H168106   1.196   3.985   0.334
22743TIP3    H268107   1.315   3.965   0.426
22744TIP3   OH268108   1.944   4.295   0.061
22744TIP3    H168109   1.950   4.251  -0.024
22744TIP3    H268110   1.940   4.389   0.039
22745TIP3   OH268111   1.474   3.740   1.800
22745TIP3    H168112   1.495   3.828   1.768
22745TIP3    H268113   1.506   3.739   1.890
22746TIP3   OH268114   1.018   5.064   0.310
22746TIP3    H168115   1.109   5.068   0.280
22746TIP3    H268116   0.968   5.097   0.236
22747TIP3   OH268117   0.513   4.418   0.501
22747TIP3    H168118   0.608   4.423   0.515
22747TIP3    H268119   0.499   4.328   0.470
22748TIP3   OH268120   2.355   4.560   0.466
22748TIP3    H168121   2.327   4.483   0.417
22748TIP3    H268122   2.273   4.603   0.492
22749TIP3   OH268123   2.215   4.326   0.351
22749TIP3    H168124   2.212   4.363   0.262
22749TIP3    H268125   2.135   4.359   0.392
22750TIP3   OH268126   2.119   3.919   0.124
22750TIP3    H168127   2.074   3.991   0.168
22750TIP3    H268128   2.049   3.872   0.079
22751TIP3   OH268129   1.938   3.702   0.205
22751TIP3    H168130   2.025   3.662   0.200
22751TIP3    H268131   1.881   3.631   0.234
22752TIP3   OH268132   2.190   3.894   0.678
22752TIP3    H168133   2.177   3.806   0.642
22752TIP3    H268134   2.212   3.947   0.602
22753TIP3   OH268135   2.221   3.625   0.841
22753TIP3    H168136   2.195   3.613   0.933
22753TIP3    H268137   2.172   3.557   0.794
22754TIP3   OH268138   0.912   3.686   1.521
22754TIP3    H168139   0.928   3.597   1.552
22754TIP3    H268140   0.978   3.739   1.566
22755TIP3   OH268141   2.196   3.586   0.234
22755TIP3    H168142   2.231   3.506   0.194
22755TIP3    H268143   2.208   3.572   0.328
22756TIP3   OH268144   0.729   3.447   1.104
22756TIP3    H168145   0.642   3.432   1.143
22756TIP3    H268146   0.711   3.501   1.027
22757TIP3   OH268147   1.863   3.660   1.335
22757TIP3    H168148   1.778   3.623   1.358
22757TIP3    H268149   1.875   3.637   1.243
22758TIP3   OH268150   2.320   3.552   1.281
22758TIP3    H168151   2.319   3.639   1.320
22758TIP3    H268152   2.248   3.553   1.218
22759TIP3   OH268153   2.484   3.566   0.996
22759TIP3    H168154   2.568   3.522   1.009
22759TIP3    H268155   2.508   3.652   0.959
22760TIP3   OH268156   1.030   3.337   1.291
22760TIP3    H168157   0.943   3.298   1.295
22760TIP3    H268158   1.091   3.263   1.293
22761TIP3   OH268159   0.861   3.254   0.948
22761TIP3    H168160   0.873   3.296   0.863
22761TIP3    H268161   0.819   3.320   1.003
22762TIP3   OH268162   1.424   3.372   1.109
22762TIP3    H168163   1.501   3.406   1.063
22762TIP3    H268164   1.447   3.379   1.202
22763TIP3   OH268165   2.113   3.586   1.092
22763TIP3    H168166   2.026   3.623   1.080
22763TIP3    H268167   2.098   3.493   1.111
22764TIP3   OH268168   2.076   3.422   0.732
22764TIP3    H168169   1.986   3.452   0.722
22764TIP3    H268170   2.069   3.340   0.780
22765TIP3   OH268171   0.933   3.371   0.698
22765TIP3    H168172   0.989   3.315   0.644
22765TIP3    H268173   0.992   3.432   0.741
22766TIP3   OH268174   1.367   3.525   0.755
22766TIP3    H168175   1.410   3.445   0.784
22766TIP3    H268176   1.425   3.595   0.785
22767TIP3   OH268177   1.280   5.075   0.213
22767TIP3    H168178   1.338   5.134   0.262
22767TIP3    H268179   1.269   5.118   0.128
22768TIP3   OH268180   2.516   4.247   0.526
22768TIP3    H168181   2.591   4.206   0.571
22768TIP3    H268182   2.448   4.180   0.528
22769TIP3   OH268183   6.630   8.575   7.903
22769TIP3    H168184   6.650   8.569   7.996
22769TIP3    H268185   6.584   8.493   7.883
22770TIP3   OH268186   6.241   8.371   7.888
22770TIP3    H168187   6.234   8.442   7.952
22770TIP3    H268188   6.195   8.404   7.811
22771TIP3   OH268189   2.552   3.815   0.889
22771TIP3    H168190   2.554   3.904   0.923
22771TIP3    H268191   2.508   3.822   0.805
22772TIP3   OH268192   2.545   3.847   0.377
22772TIP3    H168193   2.625   3.899   0.385
22772TIP3    H268194   2.489   3.898   0.319
22773TIP3   OH268195   2.941   3.989   0.033
22773TIP3    H168196   2.868   4.010  -0.026
22773TIP3    H268197   3.015   4.038  -0.002
22774TIP3   OH268198   2.453   4.232   0.160
22774TIP3    H168199   2.545   4.250   0.181
22774TIP3    H268200   2.405   4.308   0.192
22775TIP3   OH268201   2.992   3.851   0.360
22775TIP3    H168202   2.905   3.876   0.328
22775TIP3    H268203   3.042   3.833   0.280
22776TIP3   OH268204   2.575   3.970   0.065
22776TIP3    H168205   2.594   4.037   0.131
22776TIP3    H268206   2.495   3.928   0.095
22777TIP3   OH268207   6.006   9.131   7.744
22777TIP3    H168208   6.085   9.135   7.798
22777TIP3    H268209   6.031   9.171   7.661
22778TIP3   OH268210   6.355   8.742   7.845
22778TIP3    H168211   6.308   8.805   7.790
22778TIP3    H268212   6.417   8.796   7.894
22779TIP3   OH268213   8.829   0.055   7.944
22779TIP3    H168214   8.854   0.057   8.037
22779TIP3    H268215   8.841  -0.036   7.918
22780TIP3   OH268216   2.461   3.794   0.632
22780TIP3    H168217   2.453   3.699   0.631
22780TIP3    H268218   2.491   3.817   0.543
22781TIP3   OH268219   2.930   3.528   0.699
22781TIP3    H168220   2.851   3.579   0.715
22781TIP3    H268221   2.921   3.453   0.758
22782TIP3   OH268222   2.590   3.587   0.445
22782TIP3    H168223   2.680   3.567   0.419
22782TIP3    H268224   2.576   3.677   0.416
22783TIP3   OH268225   2.712   3.570   0.167
22783TIP3    H168226   2.751   3.548   0.083
22783TIP3    H268227   2.745   3.658   0.187
22784TIP3   OH268228   8.234   0.876   7.827
22784TIP3    H168229   8.288   0.817   7.774
22784TIP3    H268230   8.158   0.823   7.851
22785TIP3   OH268231   1.833   5.261   0.324
22785TIP3    H168232   1.777   5.253   0.247
22785TIP3    H268233   1.781   5.225   0.396
   9.80000   9.23953   8.00167   0.00000   0.00000  -3.26667   0.00000  -3.26667  -4.61976
