Title
44415
    1GLY      N    1   6.397   4.619   3.820 -0.0757 -0.0999 -0.2002
    1GLY    HT1    2   6.386   4.661   3.725 -0.0388 -0.5424 -0.3977
    1GLY    HT2    3   6.495   4.595   3.844  0.0897 -0.2146 -0.9739
    1GLY    HT3    4   6.358   4.684   3.892  0.1090 -0.0156 -0.1755
    1GLY     CA    5   6.321   4.494   3.822 -0.2899 -0.1268  0.1888
    1GLY    HA1    6   6.310   4.464   3.925 -0.5197 -1.4250 -0.2004
    1GLY    HA2    7   6.377   4.426   3.760  1.9986 -0.2604  2.3720
    1GLY      C    8   6.184   4.515   3.765 -0.2258 -0.1478 -0.3328
    1GLY      O    9   6.140   4.613   3.707 -0.5637 -0.0066  0.3321
    2ASP      N   10   6.103   4.405   3.773  0.2657  0.2155  0.4465
    2ASP     HN   11   6.137   4.324   3.821  0.9011  1.5611  2.3496
    2ASP     CA   12   5.967   4.401   3.719 -0.5800  0.3034 -0.6768
    2ASP     HA   13   5.967   4.459   3.627  0.1214 -0.0052 -0.8791
    2ASP     CB   14   5.927   4.253   3.691  0.0366  0.5338  0.4488
    2ASP    HB1   15   5.819   4.246   3.667  0.5290 -0.9502 -1.4698
    2ASP    HB2   16   5.940   4.186   3.779  0.9467  0.5395  0.3240
    2ASP     CG   17   6.003   4.193   3.570  0.2913  0.5047 -0.1981
    2ASP    OD1   18   5.980   4.074   3.540 -0.2447 -0.1598  0.1585
    2ASP    OD2   19   6.074   4.268   3.506 -0.0359  0.2455  0.1965
    2ASP      C   20   5.857   4.477   3.808  0.1090 -0.1430  0.5005
    2ASP      O   21   5.874   4.496   3.928 -0.0437  0.4424 -0.3175
    3SER      N   22   5.740   4.516   3.747 -0.6336  0.4713  0.5660
    3SER     HN   23   5.732   4.510   3.648 -1.9151 -1.0033  0.7429
    3SER     CA   24   5.629   4.578   3.823  0.1924  0.3719 -0.4209
    3SER     HA   25   5.663   4.660   3.884  0.2355 -0.7557  1.1079
    3SER     CB   26   5.515   4.620   3.735 -0.1569 -0.0028 -0.3595
    3SER    HB1   27   5.424   4.646   3.793  0.8814  2.3997  0.2784
    3SER    HB2   28   5.488   4.543   3.659  1.4324  1.3943 -2.4169
    3SER     OG   29   5.552   4.746   3.669 -0.5020  0.0500  0.1709
    3SER    HG1   30   5.632   4.721   3.622  0.8735  0.6165  2.1338
    3SER      C   31   5.573   4.475   3.921 -0.0084  0.3885  0.1195
    3SER      O   32   5.556   4.358   3.892  0.2859  0.4457  0.3939
    4GLY      N   33   5.539   4.523   4.039 -0.0249  0.0494  0.1825
    4GLY     HN   34   5.562   4.617   4.062 -1.6799 -0.1413  2.7536
    4GLY     CA   35   5.469   4.441   4.136  0.3467  0.3953 -0.4267
    4GLY    HA1   36   5.468   4.500   4.227  1.0088 -0.2152 -0.0110
    4GLY    HA2   37   5.530   4.352   4.146  0.9913  1.0470  1.7759
    4GLY      C   38   5.334   4.403   4.103 -0.4442 -1.3470 -0.2703
    4GLY      O   39   5.289   4.433   3.989  0.2599 -0.3225  0.1561
    5SER      N   40   5.267   4.340   4.192  0.4326 -0.7066 -0.7909
    5SER     HN   41   5.310   4.333   4.282 -1.3880 -1.0618  0.0818
    5SER     CA   42   5.149   4.267   4.173  0.6172 -0.0361 -0.2102
    5SER     HA   43   5.167   4.209   4.084  2.8536  1.1935 -0.5925
    5SER     CB   44   5.099   4.174   4.290  0.4304 -0.1988  0.5218
    5SER    HB1   45   4.994   4.144   4.273  0.5194 -0.2271  0.0112
    5SER    HB2   46   5.090   4.226   4.387  0.9733 -0.3437  0.6541
    5SER     OG   47   5.176   4.053   4.291 -0.6376  0.4554 -0.2257
    5SER    HG1   48   5.266   4.063   4.322 -0.8719 -0.1101  0.6641
    5SER      C   49   5.038   4.361   4.147 -0.3745 -0.4522  0.0640
    5SER      O   50   5.029   4.452   4.224  0.3405  0.7482  0.5115
    6GLY      N   51   4.958   4.344   4.046 -0.0450  0.0273  0.0208
    6GLY     HN   52   4.986   4.291   3.966 -1.0390  0.1931 -0.4533
    6GLY     CA   53   4.841   4.428   4.020 -0.0362  0.7528 -0.1986
    6GLY    HA1   54   4.799   4.383   3.931 -1.1270  1.1405  0.1156
    6GLY    HA2   55   4.872   4.530   4.006 -2.7462  1.6681  0.2280
    6GLY      C   56   4.730   4.419   4.116  0.5478  0.4456 -0.4237
    6GLY      O   57   4.730   4.331   4.209  0.3566  0.2829 -0.3644
    7PRO      N   58   4.635   4.511   4.097 -0.0550  0.2833 -0.2604
    7PRO     CD   59   4.617   4.586   3.967  0.6363  0.4773 -0.2646
    7PRO    HD1   60   4.618   4.512   3.884 -1.2009  0.6511 -0.4669
    7PRO    HD2   61   4.690   4.667   3.947  2.0209 -1.1211 -1.9198
    7PRO     CA   62   4.523   4.529   4.192  0.3944  0.5152  0.0244
    7PRO     HA   63   4.564   4.537   4.291 -2.8091  2.3760  1.2794
    7PRO     CB   64   4.451   4.650   4.137  0.1178 -0.1711  0.2354
    7PRO    HB1   65   4.505   4.745   4.157  0.6523 -0.3772 -0.2311
    7PRO    HB2   66   4.342   4.652   4.157  0.6232 -0.8008  3.3479
    7PRO     CG   67   4.479   4.641   3.980 -0.1105  0.1614 -0.4395
    7PRO    HG1   68   4.394   4.574   3.953 -0.5598  0.2535  0.7471
    7PRO    HG2   69   4.467   4.739   3.929 -0.5172  0.8941  1.0437
    7PRO      C   70   4.445   4.403   4.188  0.2324 -0.6613  0.2479
    7PRO      O   71   4.418   4.346   4.081 -0.3105 -0.9327 -0.0122
    8GLY      N   72   4.400   4.351   4.302  0.2368  0.4658  0.2133
    8GLY     HN   73   4.416   4.394   4.390 -5.3640  0.7015  1.2881
    8GLY     CA   74   4.311   4.232   4.302  0.4650 -0.8897 -0.3231
    8GLY    HA1   75   4.289   4.211   4.406 -1.4038  0.2718 -0.4715
    8GLY    HA2   76   4.362   4.143   4.268  0.9316  0.5925 -3.5916
    8GLY      C   77   4.184   4.224   4.228 -0.2647 -0.1291  0.1288
    8GLY      O   78   4.138   4.324   4.170  0.1948 -0.0853  0.2441
    9ASP      N   79   4.120   4.101   4.228  0.0360  0.0409 -0.1515
    9ASP     HN   80   4.158   4.024   4.279  0.6111  1.1135  1.0619
    9ASP     CA   81   3.991   4.079   4.170 -0.6439  0.1218  0.0316
    9ASP     HA   82   3.993   4.116   4.069 -0.7157 -2.0672 -0.7984
    9ASP     CB   83   3.953   3.932   4.157 -0.1233 -0.5683  0.0523
    9ASP    HB1   84   3.850   3.921   4.119 -0.3635 -0.1228  0.5544
    9ASP    HB2   85   3.957   3.877   4.254 -0.8073 -0.0015  0.4105
    9ASP     CG   86   4.039   3.861   4.061 -0.3232  0.3346  0.3804
    9ASP    OD1   87   4.107   3.923   3.977  0.2694  0.2621  0.6257
    9ASP    OD2   88   4.041   3.732   4.066  0.4430  0.0780 -0.3158
    9ASP      C   89   3.885   4.158   4.250  0.8099  0.2175 -0.2122
    9ASP      O   90   3.898   4.157   4.372  0.1209  0.2278  0.5240
   10PRO      N   91   3.793   4.231   4.193  0.2230 -0.4658  0.2499
   10PRO     CD   92   3.784   4.252   4.048 -0.5458  0.4251  0.2979
   10PRO    HD1   93   3.729   4.161   4.017 -0.3227  0.1409  0.7387
   10PRO    HD2   94   3.884   4.274   4.005  0.9571 -1.9602  2.4573
   10PRO     CA   95   3.693   4.306   4.269 -0.2494 -0.1336 -0.3791
   10PRO     HA   96   3.743   4.376   4.334 -0.3568 -1.2400  0.9285
   10PRO     CB   97   3.607   4.379   4.167  0.5490 -0.2576 -0.3120
   10PRO    HB1   98   3.590   4.486   4.193  2.6023 -0.0812  0.3937
   10PRO    HB2   99   3.517   4.317   4.146  0.0055  0.8384 -1.3056
   10PRO     CG  100   3.694   4.379   4.037 -0.0599 -0.2186 -0.0277
   10PRO    HG1  101   3.636   4.365   3.943 -0.8179  1.0723  0.2389
   10PRO    HG2  102   3.750   4.475   4.039  1.6230 -1.1831  0.4551
   10PRO      C  103   3.620   4.217   4.369 -0.0375  1.1216  0.0073
   10PRO      O  104   3.594   4.100   4.331 -0.5404  0.0470 -0.1634
   11GLY      N  105   3.595   4.258   4.487 -0.1756  0.2394 -0.9470
   11GLY     HN  106   3.633   4.348   4.507  0.4202  0.3002 -2.3086
   11GLY     CA  107   3.498   4.196   4.575 -0.2770  0.5884 -0.2162
   11GLY    HA1  108   3.485   4.271   4.652 -1.0091 -0.0609  0.2991
   11GLY    HA2  109   3.540   4.115   4.632  0.2360  1.2547  0.3527
   11GLY      C  110   3.363   4.159   4.519 -0.2660 -0.2825 -0.2566
   11GLY      O  111   3.313   4.222   4.425  0.6836  0.3743 -0.3207
   12SER      N  112   3.310   4.047   4.573 -0.3135 -0.2393  0.1827
   12SER     HN  113   3.350   3.995   4.648  0.3750 -1.0165 -0.7022
   12SER     CA  114   3.180   3.995   4.537  0.5276  0.3026  0.2840
   12SER     HA  115   3.181   3.972   4.432 -0.0609 -2.7614  0.8944
   12SER     CB  116   3.150   3.855   4.601 -0.7960 -0.5441  0.4705
   12SER    HB1  117   3.042   3.833   4.584 -0.4474 -2.0470  0.1432
   12SER    HB2  118   3.161   3.863   4.712  1.5949 -0.7924  0.2661
   12SER     OG  119   3.240   3.756   4.550  0.1062 -0.0439 -0.9401
   12SER    HG1  120   3.330   3.778   4.573  0.4425 -3.2882  1.2019
   12SER      C  121   3.065   4.091   4.578  0.5848 -0.2397  0.1990
   12SER      O  122   3.070   4.173   4.669  0.1243  0.0377  0.2612
   13GLY      N  123   2.956   4.080   4.498 -0.8957 -0.1560  0.1949
   13GLY     HN  124   2.961   4.005   4.432 -0.2435  1.8542 -2.0759
   13GLY     CA  125   2.824   4.143   4.503 -0.3497 -0.3595  0.7005
   13GLY    HA1  126   2.767   4.110   4.417  0.1705  0.0477  0.1911
   13GLY    HA2  127   2.839   4.249   4.519 -0.0181 -0.2375 -0.3781
   13GLY      C  128   2.743   4.092   4.617 -0.2982 -0.1120 -0.0797
   13GLY      O  129   2.767   3.984   4.670  0.1333  0.2817 -0.0526
   14ASP      N  130   2.638   4.172   4.659  0.3669 -0.7985  0.4845
   14ASP     HN  131   2.627   4.265   4.626  1.6806 -0.6205  0.5200
   14ASP     CA  132   2.555   4.136   4.771 -0.2297  0.6247 -0.2747
   14ASP     HA  133   2.624   4.115   4.852  2.4248 -0.8455 -2.8495
   14ASP     CB  134   2.455   4.253   4.795 -0.1924  0.3307 -0.2606
   14ASP    HB1  135   2.386   4.221   4.876 -0.5893 -0.4989 -0.9122
   14ASP    HB2  136   2.404   4.269   4.698 -1.6760  0.0044  0.4478
   14ASP     CG  137   2.515   4.384   4.836 -0.0129 -0.2151 -0.4853
   14ASP    OD1  138   2.435   4.477   4.850 -0.0301 -0.2425 -0.2372
   14ASP    OD2  139   2.637   4.389   4.870 -0.1966  0.2461  0.7213
   14ASP      C  140   2.473   4.013   4.759 -0.1587  0.1814 -0.5645
   14ASP      O  141   2.408   3.985   4.655  0.4434  0.0201 -0.2264
   15SER      N  142   2.458   3.935   4.866  0.4198 -0.8711  0.4716
   15SER     HN  143   2.492   3.965   4.955 -1.0628 -0.3165  0.8735
   15SER     CA  144   2.399   3.803   4.846  0.1366 -0.0321 -0.0911
   15SER     HA  145   2.383   3.784   4.741 -5.9333  2.1233  0.2279
   15SER     CB  146   2.484   3.690   4.904  0.3190  0.6248 -0.0000
   15SER    HB1  147   2.566   3.673   4.831  0.1615  2.3880 -0.6111
   15SER    HB2  148   2.421   3.598   4.903 -1.8930  2.0867 -2.2824
   15SER     OG  149   2.520   3.713   5.044  0.5021 -0.3663  0.1080
   15SER    HG1  150   2.435   3.722   5.088 -0.1866  3.2260 -1.7558
   15SER      C  151   2.252   3.795   4.894  0.5612  0.7640 -0.2836
   15SER    OT1  152   2.199   3.901   4.927  0.0534  0.1205  0.1840
   15SER    OT2  153   2.196   3.683   4.894  0.0327  0.6994  0.1647
   16LIT    LIT  154   2.587   1.574   5.271  1.0542 -1.1780 -0.2330
   17LIT    LIT  155   7.118   2.583   1.032 -0.0700 -0.1791  0.9962
   18LIT    LIT  156   1.566   0.444   0.814 -0.1706  1.0095 -1.2816
   19LIT    LIT  157   6.746   5.315   6.629 -0.4346 -0.0151  1.0531
   20LIT    LIT  158   6.543   6.502   0.133 -0.3286  0.3241  0.8343
   21LIT    LIT  159   0.700   4.920   0.714  0.8945 -0.3517  0.2556
   22LIT    LIT  160   4.999   2.534   3.213  0.7635  0.3939 -0.9204
   23LIT    LIT  161   5.633   7.315   5.989 -0.9788 -0.0176  0.1346
   24LIT    LIT  162   6.733   1.363   1.385  0.0105  0.7262 -0.2572
   25LIT    LIT  163   3.331   4.637   5.191  0.2438  0.2173 -0.6206
   26LIT    LIT  164   7.171   0.087   2.092 -1.0557 -0.4236  0.2982
   27LIT    LIT  165   2.593   2.156   0.961  0.9123  0.7758 -0.8671
   28LIT    LIT  166   4.115   0.804   1.375  0.7287 -1.0620 -0.7422
   29LIT    LIT  167   6.083   1.931   1.776 -0.1314  0.4153 -0.0432
   30LIT    LIT  168   0.072   1.323   0.644  0.9679 -0.2120 -0.9368
   31LIT    LIT  169   2.786   7.934   2.114 -0.5792  0.2126  0.5340
   32LIT    LIT  170   4.988   1.826   2.039  0.4694  0.3423  0.3800
   33LIT    LIT  171   5.266   6.480   0.076 -0.3415  0.2210 -1.1321
   34LIT    LIT  172   4.639   1.785   1.313 -0.3547  0.5512 -0.6270
   35LIT    LIT  173   6.231   0.459   5.279 -0.0221 -0.3221 -0.0059
   36LIT    LIT  174   6.080   4.936   6.233 -0.3156 -0.5645  0.1011
   37LIT    LIT  175   2.387   2.011   2.938  0.2267 -0.7186  0.2854
   38LIT    LIT  176   7.350   1.514   6.025 -0.2626  0.6233 -0.1598
   39LIT    LIT  177   8.091   4.237   6.125  1.0060 -0.0910  0.2953
   40LIT    LIT  178   2.678   2.880   1.782 -0.4380 -0.6526 -0.5310
   41LIT    LIT  179   2.660   0.412   3.018  0.7647 -0.2428  0.0619
   42LIT    LIT  180   8.315   0.139   6.900 -0.6082 -0.0379  1.4564
   43LIT    LIT  181   4.756   6.248   0.153 -1.6794  0.3041  0.0905
   44LIT    LIT  182   6.234   2.727   1.449 -0.5647  0.9741 -0.1497
   45LIT    LIT  183   0.043   7.924   0.116  1.1887 -0.1349 -0.1627
   46LIT    LIT  184   3.065   0.360   2.578 -0.5019 -0.1511  0.4377
   47LIT    LIT  185   1.851   0.521   2.016 -0.7194  0.4768  0.5246
   48LIT    LIT  186   6.094   6.729   5.706  0.1912  0.8728  0.8486
   49LIT    LIT  187   0.222   0.666   5.979 -0.0089 -0.4167  0.1353
   50LIT    LIT  188   7.536   4.283   4.541 -0.1122  0.0674  0.6846
   51LIT    LIT  189   1.937   4.239   2.795  0.6765 -0.2479 -0.1411
   52LIT    LIT  190   2.605   6.080   3.376 -0.7285 -0.0787 -0.3683
   53LIT    LIT  191   4.918   5.105   0.353  0.3077 -0.5593 -0.2487
   54LIT    LIT  192   1.221   3.512   5.508 -0.3211 -1.6599 -0.6480
   55LIT    LIT  193   4.302   6.684   3.060 -0.4119  0.0782 -0.0230
   56LIT    LIT  194   1.172   2.946   6.677  0.0501  2.0560 -0.4709
   57LIT    LIT  195   1.341   1.218   3.108  0.8084  0.5787 -0.8561
   58LIT    LIT  196   5.937   7.123   6.777  0.3136 -0.0739 -0.8545
   59LIT    LIT  197   6.637   6.441   5.506  0.4212  0.5648 -0.2379
   60LIT    LIT  198   7.862   5.168   2.987 -0.1045  0.9762 -0.2792
   61CLA    CLA  199   1.985   7.878   5.495 -0.5873  0.2743 -0.0557
   62CLA    CLA  200   6.792   1.762   6.252 -0.0703  0.3109 -0.2387
   63CLA    CLA  201   6.678   2.975   4.667 -0.4675 -0.0677  0.3380
   64CLA    CLA  202   2.575   2.608   5.380 -0.1813 -0.1830 -0.0399
   65CLA    CLA  203   3.303   4.148   2.152  0.0346  0.1418 -0.1801
   66CLA    CLA  204   4.918   1.765   2.819  0.0682 -0.2129 -0.1951
   67CLA    CLA  205   6.520   1.375   1.514  0.2610 -0.2549 -0.2072
   68CLA    CLA  206   4.345   2.709   6.554 -0.0824 -0.1495 -0.2713
   69CLA    CLA  207   7.840   6.993   1.717  0.0591 -0.2958 -0.3562
   70CLA    CLA  208   5.523   1.116   5.103  0.5803 -0.2618 -0.1061
   71CLA    CLA  209   0.201   1.447   1.137  0.3048 -0.3342  0.3563
   72CLA    CLA  210   3.494   7.168   2.194  0.0652  0.4245 -0.3026
   73CLA    CLA  211   2.605   0.261   3.188 -0.4080 -0.3728  0.3330
   74CLA    CLA  212   7.412   2.159   3.514  0.3590 -0.4055  0.4266
   75CLA    CLA  213   4.594   2.033   1.595  0.3731 -0.1884  0.2632
   76CLA    CLA  214   4.603   1.259   6.559 -0.1717  0.0128 -0.0123
   77CLA    CLA  215   6.517   0.920   4.359 -0.2818  0.0424  0.2934
   78CLA    CLA  216   6.437   3.367   0.927  0.3078 -0.3356  0.1816
   79CLA    CLA  217   4.895   4.698   4.814  0.0963  0.1574 -0.6204
   80CLA    CLA  218   1.278   6.405   6.351  0.1694 -0.1372  0.2396
   81CLA    CLA  219   1.275   5.591   2.266 -0.0914  0.1028 -0.1236
   82CLA    CLA  220   4.503   6.426   5.670  0.1962  0.0698 -0.5803
   83CLA    CLA  221   3.976   3.388   2.458 -0.1159 -0.3431  0.1310
   84CLA    CLA  222   0.899   4.342   5.192 -0.3247 -0.3096 -0.2528
   85CLA    CLA  223   1.579   1.161   0.708 -0.0299 -0.1199  0.2022
   86CLA    CLA  224   8.017   7.063   2.313 -0.2592  0.2321 -0.2594
   87CLA    CLA  225   6.846   5.228   6.823 -0.2090  0.1676 -0.0305
   88CLA    CLA  226   0.879   0.002   0.937  0.2893  0.0336  0.1995
   89CLA    CLA  227   1.316   0.223   2.707  0.5451 -0.0274 -0.0082
   90CLA    CLA  228   8.297   3.401   4.805  0.0617 -0.0773  0.3859
   91CLA    CLA  229   4.059   7.592   5.218  0.1439 -0.4418  0.2945
   92CLA    CLA  230   4.608   7.765   3.424 -0.1609  0.0246  0.1613
   93CLA    CLA  231   7.073   2.321   2.840 -0.0085 -0.0039  0.2812
   94CLA    CLA  232   8.202   4.190   0.209 -0.4829  0.2282  0.1434
   95CLA    CLA  233   2.337   1.802   1.488  0.0186 -0.5559  0.1331
   96CLA    CLA  234   5.774   6.130   5.880 -0.1444 -0.0096 -0.2795
   97CLA    CLA  235   1.726   2.482   1.996  0.0047 -0.2886 -0.3949
   98CLA    CLA  236   3.800   1.503   2.617 -0.1296  0.0445 -0.2757
   99CLA    CLA  237   4.690   0.545   1.724 -0.0787  0.2871 -0.4657
  100CLA    CLA  238   7.699   1.008   5.457 -0.0045  0.4708  0.0880
  101CLA    CLA  239   7.124   5.553   2.237 -0.1482 -0.3260 -0.4754
  102CLA    CLA  240   1.030   2.431   6.133  0.0695  0.1644  0.0977
  103TIP3   OH2  241   0.064   6.147   2.543 -0.5498 -0.2392 -0.4369
  103TIP3    H1  242   0.137   6.156   2.482 -0.2509 -2.1448 -0.3985
  103TIP3    H2  243   0.096   6.183   2.625  0.1919 -0.6862 -0.5322
  104TIP3   OH2  244   2.303   1.847   3.026  0.1726  0.1154 -0.5094
  104TIP3    H1  245   2.320   1.761   3.065 -2.8367  0.2454  1.2568
  104TIP3    H2  246   2.218   1.838   2.984  0.0735  2.0816 -0.7742
  105TIP3   OH2  247   7.992   7.478   3.185  0.0988  0.4406 -0.5047
  105TIP3    H1  248   7.914   7.482   3.240 -0.6911  1.8981 -1.6780
  105TIP3    H2  249   8.028   7.567   3.188  0.1482  0.5037 -2.1681
  106TIP3   OH2  250   0.444   7.977   3.217  0.4700 -0.0401  0.0937
  106TIP3    H1  251   0.473   8.062   3.184 -1.9776  0.3240 -1.2121
  106TIP3    H2  252   0.468   7.978   3.309  1.6010  1.5642 -0.2016
  107TIP3   OH2  253   0.563   7.764   2.747  0.6115  0.0849  0.3287
  107TIP3    H1  254   0.538   7.720   2.828 -0.4696 -0.3372 -0.2250
  107TIP3    H2  255   0.558   7.858   2.768 -2.2381  0.0318  0.0207
  108TIP3   OH2  256   0.713   7.707   2.078 -0.0413  0.2214  0.0030
  108TIP3    H1  257   0.733   7.711   1.984  0.3591  1.3200  0.1271
  108TIP3    H2  258   0.699   7.798   2.103 -2.3758 -0.2428  0.5365
  109TIP3   OH2  259   1.664   3.314   4.166  0.2142  0.2511 -0.0745
  109TIP3    H1  260   1.684   3.391   4.112 -1.3312  0.5793 -0.2057
  109TIP3    H2  261   1.648   3.349   4.254 -2.2426  0.3343 -0.5030
  110TIP3   OH2  262   8.367   5.137   2.989 -0.2555  0.3262  0.5102
  110TIP3    H1  263   8.366   5.218   2.937  1.0140 -0.3077 -0.5302
  110TIP3    H2  264   8.311   5.076   2.941 -1.5054  0.6797  1.4836
  111TIP3   OH2  265   0.810   1.238   4.429  0.3546  0.4626  0.4352
  111TIP3    H1  266   0.832   1.148   4.449  0.5662  0.8240  1.8484
  111TIP3    H2  267   0.884   1.289   4.461  1.5993  0.9250 -2.9663
  112TIP3   OH2  268   8.407   7.490   3.555  0.1297 -0.2697 -0.4775
  112TIP3    H1  269   8.429   7.492   3.462  2.4099  2.2249  0.0439
  112TIP3    H2  270   8.401   7.582   3.580 -2.0303 -0.8973  1.5294
  113TIP3   OH2  271   1.953   0.398   2.128  0.1430  0.0773 -0.1368
  113TIP3    H1  272   2.005   0.318   2.135  3.6429  2.1471 -1.1903
  113TIP3    H2  273   1.967   0.442   2.212  2.7019  2.0881 -1.5464
  114TIP3   OH2  274   2.048   7.710   1.154 -0.3041 -0.5249 -0.7685
  114TIP3    H1  275   2.099   7.790   1.155  2.2114 -2.0946 -0.3469
  114TIP3    H2  276   2.056   7.677   1.065 -1.3194 -0.3430 -0.9377
  115TIP3   OH2  277   3.274   0.608   1.119 -0.4160  0.6522  0.3565
  115TIP3    H1  278   3.317   0.585   1.201  0.1762  3.3149  0.8188
  115TIP3    H2  279   3.221   0.530   1.097 -0.0670 -0.3345  2.8795
  116TIP3   OH2  280   3.817   0.937   1.530 -0.2903 -0.5448  0.3402
  116TIP3    H1  281   3.842   1.029   1.527 -0.8638 -0.3798  0.5754
  116TIP3    H2  282   3.874   0.899   1.597 -0.3356 -0.2777  0.5296
  117TIP3   OH2  283   3.794   0.332   1.890 -0.1181  0.0807 -0.6519
  117TIP3    H1  284   3.716   0.370   1.929 -0.8547 -1.8434 -0.2213
  117TIP3    H2  285   3.773   0.323   1.797 -1.0552 -1.9399 -0.2739
  118TIP3   OH2  286   0.727   7.198   0.292  0.3822  0.4840  0.4287
  118TIP3    H1  287   0.720   7.117   0.242  0.7237 -0.7816  2.4161
  118TIP3    H2  288   0.693   7.265   0.232 -0.6172 -1.2050 -0.9479
  119TIP3   OH2  289   3.699   2.151   1.892 -0.2665  0.6990  0.6613
  119TIP3    H1  290   3.679   2.240   1.919 -1.1563  0.9426 -0.7524
  119TIP3    H2  291   3.673   2.147   1.800 -2.3374 -1.6689  1.2864
  120TIP3   OH2  292   4.267   1.399   2.313 -0.3106  0.2589  0.1263
  120TIP3    H1  293   4.227   1.464   2.370 -0.9762  0.4491 -0.5434
  120TIP3    H2  294   4.361   1.406   2.329 -0.4354  0.9001  0.5653
  121TIP3   OH2  295   7.020   6.199   6.564  0.1495 -0.1194  0.1449
  121TIP3    H1  296   6.958   6.273   6.564 -1.1727 -1.1578  2.6653
  121TIP3    H2  297   6.998   6.150   6.644  0.5558 -3.6245 -1.8145
  122TIP3   OH2  298   1.171   7.987   1.289 -0.2238  0.4162  0.3096
  122TIP3    H1  299   1.199   7.901   1.256  0.2134 -0.0803  1.9301
  122TIP3    H2  300   1.252   8.034   1.307 -0.4313 -0.0144  2.4258
  123TIP3   OH2  301   4.619   0.467   0.722  0.4556  0.1221  0.1662
  123TIP3    H1  302   4.527   0.460   0.748 -0.1544  2.3303 -1.2248
  123TIP3    H2  303   4.668   0.463   0.803 -0.7334 -2.9987  0.7867
  124TIP3   OH2  304   6.584   0.799   2.007  0.4800 -0.3706  0.3971
  124TIP3    H1  305   6.558   0.890   1.991 -1.4289 -0.9223  0.2530
  124TIP3    H2  306   6.596   0.794   2.102  1.5433  0.2494  0.3138
  125TIP3   OH2  307   2.599   0.323   2.243  0.1528  0.2932 -0.0230
  125TIP3    H1  308   2.584   0.410   2.280  1.8793  0.4953  0.2472
  125TIP3    H2  309   2.621   0.268   2.319  2.4293  0.4095 -0.5875
  126TIP3   OH2  310   2.133   1.413   3.146  0.8009 -0.7602  0.6650
  126TIP3    H1  311   2.074   1.487   3.134  0.3618 -1.3449 -0.9197
  126TIP3    H2  312   2.138   1.401   3.241 -1.2061 -0.3826  0.8276
  127TIP3   OH2  313   0.875   7.454   1.639 -0.5281 -0.0235  0.1344
  127TIP3    H1  314   0.817   7.480   1.567 -1.1028 -0.8474  0.2957
  127TIP3    H2  315   0.862   7.360   1.648  0.2572 -0.0823  0.6923
  128TIP3   OH2  316   3.908   1.213   2.545 -0.5944 -0.1765 -0.1643
  128TIP3    H1  317   4.002   1.226   2.557 -0.4490 -1.1476 -0.2271
  128TIP3    H2  318   3.871   1.301   2.549  0.0946  0.0461  1.8018
  129TIP3   OH2  319   6.703   1.866   0.422  0.0880 -0.3476 -0.0663
  129TIP3    H1  320   6.672   1.802   0.358 -0.1964  1.3754 -1.7085
  129TIP3    H2  321   6.626   1.885   0.476 -0.1000 -0.6156 -0.2381
  130TIP3   OH2  322   5.503   1.528   0.126 -0.2903 -0.7654  0.1535
  130TIP3    H1  323   5.518   1.623   0.132  0.1075 -0.7399 -1.0533
  130TIP3    H2  324   5.470   1.515   0.037  0.0790 -1.8144  0.1643
  131TIP3   OH2  325   5.095   0.618   2.555  0.1261 -0.3823  0.2167
  131TIP3    H1  326   5.120   0.693   2.501 -0.6666  0.1540  0.5800
  131TIP3    H2  327   5.032   0.654   2.618 -0.4533 -1.4010  0.2258
  132TIP3   OH2  328   3.387   0.507   2.772  0.7348 -0.2061  0.1403
  132TIP3    H1  329   3.442   0.540   2.842  0.4662 -0.3192  0.4034
  132TIP3    H2  330   3.394   0.573   2.702  2.4659 -0.9882 -0.4517
  133TIP3   OH2  331   5.383   0.525   2.438 -0.6209 -0.1001 -0.1937
  133TIP3    H1  332   5.428   0.609   2.439 -0.0242 -0.4286  1.8061
  133TIP3    H2  333   5.290   0.547   2.442 -0.4794  0.4770 -0.1292
  134TIP3   OH2  334   4.365   0.239   1.636 -0.5030  0.0247  0.3552
  134TIP3    H1  335   4.383   0.157   1.589 -1.2212  0.3868 -0.5424
  134TIP3    H2  336   4.441   0.249   1.694 -0.6345 -1.5359  0.8372
  135TIP3   OH2  337   5.850   1.142   0.987  0.5095 -0.2695  0.1111
  135TIP3    H1  338   5.820   1.080   1.053 -0.3277 -0.1502 -0.1470
  135TIP3    H2  339   5.942   1.157   1.007  0.5379 -1.0774  0.5807
  136TIP3   OH2  340   1.869   7.068   0.118 -0.2874  0.2012  0.9538
  136TIP3    H1  341   1.847   7.000   0.182  0.9224  0.4955  1.6874
  136TIP3    H2  342   1.821   7.146   0.147  0.8393  0.5382  1.9317
  137TIP3   OH2  343   1.477   1.384   2.780 -0.2737 -0.2425 -0.3848
  137TIP3    H1  344   1.476   1.374   2.685  0.5746  0.2230 -0.4468
  137TIP3    H2  345   1.409   1.449   2.798  1.1191  1.3968 -0.8920
  138TIP3   OH2  346   0.989   6.690   1.366 -0.4365  0.5295  0.2078
  138TIP3    H1  347   0.928   6.750   1.408  1.4514  0.4818  3.1037
  138TIP3    H2  348   1.064   6.745   1.341  0.4785 -0.2719  1.1659
  139TIP3   OH2  349   2.121   6.567   1.778  0.3420  0.4445  0.3266
  139TIP3    H1  350   2.107   6.555   1.872  0.9330 -0.3518  0.3140
  139TIP3    H2  351   2.098   6.659   1.762  0.6180  0.6877  1.3131
  140TIP3   OH2  352   3.556   0.480   2.017 -0.5150 -0.5941 -0.4418
  140TIP3    H1  353   3.601   0.522   1.944 -1.6469 -1.0604 -1.4353
  140TIP3    H2  354   3.529   0.551   2.074  1.3487 -0.2957  0.1253
  141TIP3   OH2  355   1.096   7.648   1.726  0.6824 -0.1760 -0.0872
  141TIP3    H1  356   1.061   7.729   1.688  0.1080  0.2812  1.3808
  141TIP3    H2  357   1.074   7.580   1.663  0.9139  0.7670 -1.1973
  142TIP3   OH2  358   2.058   7.034   4.172  0.0997 -0.2256 -0.1697
  142TIP3    H1  359   2.125   7.000   4.113  0.3185 -2.7427  1.4513
  142TIP3    H2  360   2.083   7.001   4.259 -1.9476  0.7464  0.8334
  143TIP3   OH2  361   6.529   0.763   0.846 -0.8318 -0.1425 -0.5285
  143TIP3    H1  362   6.500   0.844   0.889  2.0824  0.7721 -0.1433
  143TIP3    H2  363   6.458   0.741   0.786 -3.8483  0.0348  2.7616
  144TIP3   OH2  364   6.338   3.757   5.899  0.6516  0.6442  0.0330
  144TIP3    H1  365   6.315   3.843   5.865 -0.7221 -0.0589 -0.8599
  144TIP3    H2  366   6.278   3.697   5.854 -0.0355 -0.4984  2.4263
  145TIP3   OH2  367   3.862   2.020   2.063 -0.3400  0.0500 -0.5659
  145TIP3    H1  368   3.918   1.990   1.991 -1.1451  1.6638 -1.9094
  145TIP3    H2  369   3.786   2.057   2.019 -0.3295  2.0945  1.0778
  146TIP3   OH2  370   8.116   7.710   3.259  0.2791  0.6090 -0.0879
  146TIP3    H1  371   8.195   7.745   3.217 -0.7759  1.7931 -1.1352
  146TIP3    H2  372   8.104   7.767   3.335 -1.6127  2.8252 -1.9634
  147TIP3   OH2  373   2.423   0.013   3.166 -0.2875 -0.3206 -0.3022
  147TIP3    H1  374   2.422  -0.031   3.251 -0.1041  1.0193  0.4102
  147TIP3    H2  375   2.469   0.096   3.182 -0.1199 -0.1233 -1.7391
  148TIP3   OH2  376   5.143   1.932   1.285  0.2118 -0.3298  0.6886
  148TIP3    H1  377   5.127   2.014   1.238  1.4210  0.3735  1.4861
  148TIP3    H2  378   5.105   1.946   1.371 -0.5094 -0.9989  0.4773
  149TIP3   OH2  379   1.443   2.541   2.372 -0.5253 -0.1996  0.1460
  149TIP3    H1  380   1.465   2.449   2.361  1.6660  0.2719  0.3511
  149TIP3    H2  381   1.400   2.565   2.290  1.8755 -0.5868 -1.2753
  150TIP3   OH2  382   4.399   1.029   1.844 -0.6420 -0.4419 -0.1742
  150TIP3    H1  383   4.381   0.960   1.908 -0.1215  0.7798  1.3258
  150TIP3    H2  384   4.396   0.985   1.760 -2.7608 -1.7992  0.5857
  151TIP3   OH2  385   2.298   0.909   2.250  0.1059 -0.4478  0.1169
  151TIP3    H1  386   2.359   0.838   2.268  0.3811 -0.2545 -0.0518
  151TIP3    H2  387   2.323   0.940   2.163 -1.0073 -1.1693 -0.4728
  152TIP3   OH2  388   1.669   7.074   2.558 -0.5076 -0.6651 -0.1982
  152TIP3    H1  389   1.633   7.060   2.646  0.7420  0.2643  0.4775
  152TIP3    H2  390   1.743   7.133   2.572 -2.2965  2.1872 -2.2996
  153TIP3   OH2  391   3.844   1.853   1.182 -0.0528 -0.5465  0.2604
  153TIP3    H1  392   3.810   1.898   1.105  0.8161 -0.9498 -0.3653
  153TIP3    H2  393   3.835   1.760   1.162 -1.3533 -0.6712  1.3364
  154TIP3   OH2  394   2.920   1.317   4.687 -0.0854  0.5729 -0.3193
  154TIP3    H1  395   2.988   1.306   4.621 -0.1485  0.4299 -0.3603
  154TIP3    H2  396   2.967   1.319   4.771 -0.2307 -2.1372 -0.1108
  155TIP3   OH2  397   4.297   0.523   0.506 -0.3719  0.0930 -0.1272
  155TIP3    H1  398   4.289   0.466   0.429 -1.3785 -0.1066  0.1187
  155TIP3    H2  399   4.279   0.465   0.580  2.0800 -0.0686  0.3902
  156TIP3   OH2  400   6.534   1.118   2.947 -0.4023 -0.3347  0.1829
  156TIP3    H1  401   6.468   1.072   2.999  0.1235  0.5112  1.6394
  156TIP3    H2  402   6.499   1.118   2.858 -0.8851 -2.6204  0.3500
  157TIP3   OH2  403   6.386   2.334   6.684  0.5598 -0.5196 -0.4255
  157TIP3    H1  404   6.318   2.293   6.630  0.0997 -1.9732  1.1938
  157TIP3    H2  405   6.346   2.414   6.717  0.9527  0.5372 -2.4556
  158TIP3   OH2  406   4.555   1.507   3.071 -0.0432 -0.6819  0.1267
  158TIP3    H1  407   4.616   1.488   3.142  1.6055 -1.8847 -1.5331
  158TIP3    H2  408   4.612   1.537   2.999 -1.6401  0.2438 -0.7716
  159TIP3   OH2  409   6.481   0.108   0.738  0.1515 -0.4619 -0.0372
  159TIP3    H1  410   6.547   0.135   0.802 -0.5050  2.7549 -0.6327
  159TIP3    H2  411   6.518   0.133   0.654 -0.7638 -0.9567 -0.5906
  160TIP3   OH2  412   3.019   6.682   3.167 -0.2124 -0.0740 -0.4213
  160TIP3    H1  413   3.103   6.642   3.192 -2.6823 -3.3940  3.0717
  160TIP3    H2  414   3.023   6.770   3.206  1.6387 -0.2071 -0.2585
  161TIP3   OH2  415   5.672   0.076   0.522  0.4723 -0.3117  0.3847
  161TIP3    H1  416   5.767   0.064   0.521  0.7473  1.8734 -0.0110
  161TIP3    H2  417   5.657   0.150   0.581 -0.9185 -0.0358 -0.2912
  162TIP3   OH2  418   1.373   7.504   3.275 -0.3353 -0.1843  0.6080
  162TIP3    H1  419   1.377   7.413   3.247  0.5243 -0.4471  1.5818
  162TIP3    H2  420   1.283   7.515   3.307 -0.8808 -0.2769 -0.8318
  163TIP3   OH2  421   1.781   7.017   2.079 -0.7039 -0.7001  0.9196
  163TIP3    H1  422   1.743   6.933   2.105  0.1931 -1.5069 -0.3394
  163TIP3    H2  423   1.706   7.068   2.047 -0.9544 -1.7808 -0.2636
  164TIP3   OH2  424   5.091   2.142   2.920  0.0007  0.0784  0.2886
  164TIP3    H1  425   5.042   2.078   2.972 -1.6113  2.5263  1.8769
  164TIP3    H2  426   5.121   2.207   2.984  2.4569  0.4270 -1.1484
  165TIP3   OH2  427   4.487   1.727   2.600  0.0029  0.5587 -0.6191
  165TIP3    H1  428   4.392   1.732   2.614 -0.0491 -0.8142 -0.3220
  165TIP3    H2  429   4.499   1.646   2.550  0.9947  0.8574 -0.8680
  166TIP3   OH2  430   6.096   5.411   6.897 -0.8017  0.3028  0.6689
  166TIP3    H1  431   6.052   5.449   6.973 -1.9785  1.6732 -0.6617
  166TIP3    H2  432   6.065   5.321   6.893 -3.5721  1.2398 -0.2308
  167TIP3   OH2  433   3.676   1.780   1.397 -0.0585 -0.5106  0.2796
  167TIP3    H1  434   3.759   1.802   1.355  0.4393 -1.0233  0.9733
  167TIP3    H2  435   3.692   1.695   1.437 -1.0073 -0.7308  0.1861
  168TIP3   OH2  436   6.223   0.441   2.214 -0.8231  0.4198  0.6294
  168TIP3    H1  437   6.291   0.505   2.196 -1.6159  1.0954 -0.0208
  168TIP3    H2  438   6.211   0.444   2.309  1.3126 -1.0289  0.9855
  169TIP3   OH2  439   3.741   7.889   2.199 -0.4352 -0.1731  0.4135
  169TIP3    H1  440   3.734   7.845   2.114  0.6668  1.2137 -0.3990
  169TIP3    H2  441   3.821   7.854   2.238 -0.8554 -0.6892  0.8346
  170TIP3   OH2  442   2.184   6.383   2.551  0.0306  0.2781 -0.0912
  170TIP3    H1  443   2.121   6.330   2.502  2.3301 -1.6711 -1.0115
  170TIP3    H2  444   2.190   6.340   2.636 -1.9461  2.1237  1.0488
  171TIP3   OH2  445   6.101   1.225   1.073 -0.1722  0.3714 -0.2442
  171TIP3    H1  446   6.129   1.303   1.026 -0.5203  0.5381 -0.1768
  171TIP3    H2  447   6.045   1.258   1.144 -1.4617 -0.0384 -1.0607
  172TIP3   OH2  448   0.096   7.301   3.414  0.1187  0.1397 -0.5047
  172TIP3    H1  449   0.087   7.327   3.505  0.3646 -1.4387 -0.0234
  172TIP3    H2  450   0.151   7.223   3.416  1.3772  0.9668 -2.1382
  173TIP3   OH2  451   1.348   7.663   2.560  0.1209 -0.1100  0.3370
  173TIP3    H1  452   1.392   7.600   2.504  2.7415  1.4093  0.5761
  173TIP3    H2  453   1.384   7.748   2.533 -0.2086  0.8603  2.8353
  174TIP3   OH2  454   4.304   1.902   1.691 -0.1022 -0.0566  0.5341
  174TIP3    H1  455   4.386   1.937   1.655  0.9668 -2.1189  0.8631
  174TIP3    H2  456   4.294   1.818   1.647 -0.9238 -0.7722  2.0643
  175TIP3   OH2  457   3.041   0.305   3.214  0.1291  0.3376 -0.1508
  175TIP3    H1  458   3.100   0.317   3.289 -1.2177  1.3231  0.7697
  175TIP3    H2  459   3.024   0.211   3.212  0.3310  0.2754  0.6830
  176TIP3   OH2  460   7.489   6.260   6.559  0.3550 -0.1562 -0.4279
  176TIP3    H1  461   7.523   6.242   6.472 -1.6496 -1.6061 -0.9506
  176TIP3    H2  462   7.548   6.326   6.595  2.3745 -1.0026 -2.1007
  177TIP3   OH2  463   4.547   0.302   1.831 -0.6783 -0.0144  0.1404
  177TIP3    H1  464   4.550   0.303   1.927  0.6275 -1.0254  0.1131
  177TIP3    H2  465   4.603   0.376   1.805 -0.7530  0.0464  0.1534
  178TIP3   OH2  466   4.371   0.698   2.030 -0.4566  0.1030 -0.2555
  178TIP3    H1  467   4.395   0.782   2.070  0.1543  0.1697 -0.7590
  178TIP3    H2  468   4.447   0.674   1.978 -0.5003 -0.9221  0.1394
  179TIP3   OH2  469   5.836   1.970   1.536 -0.1019 -0.7217 -0.1336
  179TIP3    H1  470   5.930   1.976   1.552  0.3523 -0.9031 -2.5323
  179TIP3    H2  471   5.805   2.060   1.548  0.8350 -0.1420 -1.8604
  180TIP3   OH2  472   7.980   5.574   6.291  0.1960 -0.3715 -0.1287
  180TIP3    H1  473   7.903   5.620   6.325  0.1072 -0.1358 -0.6398
  180TIP3    H2  474   8.007   5.516   6.362  1.2132  1.5677  1.1064
  181TIP3   OH2  475   5.839   1.985   1.106  0.1948 -0.2288  0.4842
  181TIP3    H1  476   5.918   1.995   1.159  0.1152 -0.2885  0.6154
  181TIP3    H2  477   5.791   1.914   1.149  0.9026 -1.3983 -0.6161
  182TIP3   OH2  478   1.789   7.250   6.180  0.6997  0.0626 -0.7098
  182TIP3    H1  479   1.878   7.276   6.201  0.8804 -0.3906 -0.9220
  182TIP3    H2  480   1.796   7.204   6.096  0.2036  0.4464 -0.9677
  183TIP3   OH2  481   7.269   0.037   2.465 -0.2448  0.1108 -0.3627
  183TIP3    H1  482   7.229  -0.003   2.388 -0.1853  0.2468 -0.4651
  183TIP3    H2  483   7.198   0.045   2.527 -0.3177  0.1029 -0.4447
  184TIP3   OH2  484   5.257   0.190   0.612 -0.3287 -0.4218  0.8912
  184TIP3    H1  485   5.269   0.265   0.670 -0.9713  0.2146  0.2070
  184TIP3    H2  486   5.252   0.228   0.524 -0.5147 -1.2753  0.5285
  185TIP3   OH2  487   3.745   5.197   5.603  0.0878 -0.0486 -0.0051
  185TIP3    H1  488   3.725   5.257   5.531 -0.2108  1.9029  1.6695
  185TIP3    H2  489   3.837   5.216   5.625  0.1919 -0.6636  0.1024
  186TIP3   OH2  490   6.048   0.919   0.882 -0.5742 -0.2375  0.0544
  186TIP3    H1  491   6.051   0.914   0.977 -1.2491  1.4768  0.1767
  186TIP3    H2  492   6.037   0.828   0.854  0.3970 -0.8483  1.5613
  187TIP3   OH2  493   6.347   2.137   2.531  0.2077  0.4957  0.1450
  187TIP3    H1  494   6.442   2.142   2.530  0.2282  0.2053 -0.7651
  187TIP3    H2  495   6.319   2.201   2.465 -0.1148 -0.9251 -1.1369
  188TIP3   OH2  496   0.886   4.924   6.811  0.0800  0.1635  0.0798
  188TIP3    H1  497   0.939   4.971   6.746  0.5643 -0.8636 -0.2734
  188TIP3    H2  498   0.944   4.914   6.886 -0.8683  2.4075  1.1430
  189TIP3   OH2  499   3.389   7.511   3.492 -0.0366  0.1955  0.3938
  189TIP3    H1  500   3.315   7.457   3.464 -0.0489 -0.4258  1.5931
  189TIP3    H2  501   3.462   7.482   3.439 -0.0712 -0.9481  0.9635
  190TIP3   OH2  502   5.887   0.656   2.463 -0.2145 -0.8294 -1.0152
  190TIP3    H1  503   5.939   0.685   2.539 -0.5219  0.3965 -1.2705
  190TIP3    H2  504   5.850   0.573   2.491 -1.3115  0.1821  0.6558
  191TIP3   OH2  505   5.767   1.380   1.107 -0.5356 -0.2154 -0.3542
  191TIP3    H1  506   5.739   1.424   1.026 -1.1704 -1.4459 -0.8132
  191TIP3    H2  507   5.806   1.298   1.077  0.4577 -0.0734  0.5191
  192TIP3   OH2  508   0.627   7.654   0.572  0.1663  0.4460 -0.2752
  192TIP3    H1  509   0.572   7.732   0.585  0.6922  1.1979 -2.3331
  192TIP3    H2  510   0.565   7.585   0.548 -0.0685  0.8380 -0.8140
  193TIP3   OH2  511   5.807   1.179   2.585  0.4423  0.0337  0.2875
  193TIP3    H1  512   5.879   1.202   2.644 -0.5160 -1.3068  2.0362
  193TIP3    H2  513   5.847   1.175   2.498  2.1292  0.8849  0.9996
  194TIP3   OH2  514   7.648   0.824   1.981  0.3383  0.0307  1.1269
  194TIP3    H1  515   7.619   0.823   2.072 -0.1332 -0.6281  0.9791
  194TIP3    H2  516   7.570   0.796   1.931  0.4844  0.7276  0.4965
  195TIP3   OH2  517   2.578   7.587   1.972  0.0275  0.0392  0.1865
  195TIP3    H1  518   2.519   7.514   1.955  0.8225 -0.4238 -0.6342
  195TIP3    H2  519   2.591   7.585   2.067  0.8736 -1.5601  0.0607
  196TIP3   OH2  520   2.560   7.702   1.342  0.0689  0.0552 -0.4397
  196TIP3    H1  521   2.597   7.790   1.345  1.7590 -0.5432 -2.6089
  196TIP3    H2  522   2.599   7.657   1.417  0.0930  0.8146  0.0044
  197TIP3   OH2  523   4.371   0.249   0.157 -0.8248  0.1128 -0.1327
  197TIP3    H1  524   4.425   0.294   0.092 -0.3977  0.8025  0.6679
  197TIP3    H2  525   4.375   0.157   0.133  0.5164  0.1838 -0.2545
  198TIP3   OH2  526   3.967   6.026   6.035  0.1280  0.8744  0.3073
  198TIP3    H1  527   3.904   5.974   5.984 -0.8240 -0.9608  3.2073
  198TIP3    H2  528   3.913   6.089   6.082  0.8303  1.5505  0.2175
  199TIP3   OH2  529   5.849   7.970   0.495 -0.1368 -0.3373  0.1827
  199TIP3    H1  530   5.873   8.061   0.513  0.3402 -0.2322 -0.9125
  199TIP3    H2  531   5.754   7.968   0.499 -0.1027 -0.0578  1.3957
  200TIP3   OH2  532   7.715   4.533   6.459 -0.2267  0.7097  0.1213
  200TIP3    H1  533   7.633   4.494   6.430  0.7271 -0.9396 -0.4093
  200TIP3    H2  534   7.697   4.563   6.548 -1.6556  1.1831 -0.3055
  201TIP3   OH2  535   5.098   1.131   2.070 -0.0879  0.4362  0.1999
  201TIP3    H1  536   5.170   1.161   2.014  1.9794  0.0963  2.5513
  201TIP3    H2  537   5.101   1.036   2.065 -1.3145  0.4483 -0.8212
  202TIP3   OH2  538   0.523   4.830   6.940  0.1353  0.0256 -0.3721
  202TIP3    H1  539   0.508   4.844   6.846 -0.3416  1.2070 -0.1365
  202TIP3    H2  540   0.442   4.861   6.981  0.5850  0.0926  0.4684
  203TIP3   OH2  541   2.644   6.966   3.516 -0.4337  0.1933 -0.3035
  203TIP3    H1  542   2.565   6.979   3.569  0.5374 -0.6936  1.3897
  203TIP3    H2  543   2.706   7.030   3.551  0.9421 -1.8919  1.1227
  204TIP3   OH2  544   6.972   1.914   1.150  0.4109 -0.6095 -0.6143
  204TIP3    H1  545   6.999   1.963   1.227  1.7926 -1.7990 -0.3082
  204TIP3    H2  546   6.929   1.978   1.093 -1.0799  0.1768  1.3552
  205TIP3   OH2  547   5.208   0.620   1.418  0.6105  0.3775  0.5982
  205TIP3    H1  548   5.262   0.573   1.354  0.5428 -0.4038  1.1163
  205TIP3    H2  549   5.209   0.564   1.496 -1.1671  0.2193  0.5132
  206TIP3   OH2  550   2.487   7.943   4.355  0.7327 -0.2616 -0.5451
  206TIP3    H1  551   2.457   7.857   4.325  0.3626  0.0451 -1.0633
  206TIP3    H2  552   2.580   7.945   4.333  0.6165 -0.3125 -1.0514
  207TIP3   OH2  553   5.452   1.242   1.274 -0.1269 -0.9032  0.2196
  207TIP3    H1  554   5.505   1.192   1.337 -0.3742 -1.0479  0.3141
  207TIP3    H2  555   5.453   1.331   1.307  0.6694 -0.7633 -0.1828
  208TIP3   OH2  556   1.876   4.938   0.911  0.4504  0.4508  0.1857
  208TIP3    H1  557   1.911   5.009   0.965  2.8542 -1.3718  1.1013
  208TIP3    H2  558   1.861   4.979   0.825 -0.8239  2.7027  1.4239
  209TIP3   OH2  559   3.564   2.251   3.728 -0.3105 -0.1502  0.3929
  209TIP3    H1  560   3.612   2.170   3.713  1.1005  0.6314  0.6339
  209TIP3    H2  561   3.631   2.318   3.735 -1.4810  1.1134 -0.1880
  210TIP3   OH2  562   0.980   3.581   1.095  0.1724 -0.0343 -0.3347
  210TIP3    H1  563   0.995   3.490   1.119  0.4371 -0.1190 -0.8239
  210TIP3    H2  564   0.948   3.578   1.005 -2.8453  0.1467  0.6567
  211TIP3   OH2  565   0.472   4.184   0.420  0.4739  0.2194 -0.2261
  211TIP3    H1  566   0.447   4.092   0.418 -2.7494  1.0199  1.1406
  211TIP3    H2  567   0.458   4.215   0.331 -0.7028 -0.0348 -0.1287
  212TIP3   OH2  568   7.811   7.245   1.925  0.2028 -0.4793 -0.4689
  212TIP3    H1  569   7.872   7.185   1.882 -0.4112 -1.6262  0.2480
  212TIP3    H2  570   7.726   7.223   1.888 -0.3604 -1.6168  1.4495
  213TIP3   OH2  571   4.290   0.727   1.370  0.1849  0.0711 -0.3853
  213TIP3    H1  572   4.303   0.671   1.447 -0.3366  0.6350  0.1227
  213TIP3    H2  573   4.345   0.688   1.303  1.6056  0.2815  0.6350
  214TIP3   OH2  574   3.714   1.939   4.210  0.1996  0.0571 -0.0479
  214TIP3    H1  575   3.738   1.959   4.300  2.5361 -1.4562 -0.2809
  214TIP3    H2  576   3.628   1.898   4.215  0.9043 -1.2295  1.6190
  215TIP3   OH2  577   6.590   7.831   3.017  0.5511 -0.3996  0.0573
  215TIP3    H1  578   6.540   7.902   2.978  2.5750  1.9723  1.5821
  215TIP3    H2  579   6.526   7.783   3.071 -0.3912  1.7242  0.8869
  216TIP3   OH2  580   1.115   4.197   1.476 -0.7920 -0.2986  0.2216
  216TIP3    H1  581   1.029   4.201   1.517 -1.0621 -0.7306 -0.3007
  216TIP3    H2  582   1.125   4.105   1.451 -0.8104  0.0432 -1.0657
  217TIP3   OH2  583   3.541   3.204   1.844  0.6954  0.1013  0.0403
  217TIP3    H1  584   3.518   3.261   1.917  0.2098  1.0240 -0.8119
  217TIP3    H2  585   3.472   3.138   1.841  0.8655 -0.1040  0.5801
  218TIP3   OH2  586   3.004   2.257   2.748 -0.9039  0.2500 -0.2588
  218TIP3    H1  587   2.956   2.282   2.669 -0.8594 -3.2015 -1.4425
  218TIP3    H2  588   2.935   2.240   2.813 -0.9541  2.5989  0.3610
  219TIP3   OH2  589   2.117   1.889   2.006 -0.4956 -0.1312  0.2181
  219TIP3    H1  590   2.195   1.866   2.057  0.2994  2.7725  0.4423
  219TIP3    H2  591   2.151   1.914   1.920 -1.6414 -2.9568 -1.1037
  220TIP3   OH2  592   2.682   1.077   1.281  0.4977 -0.3425 -0.2677
  220TIP3    H1  593   2.730   1.126   1.214 -0.2217  0.8143  0.0508
  220TIP3    H2  594   2.658   0.995   1.237  1.3909 -0.2681 -0.9241
  221TIP3   OH2  595   1.371   3.632   1.651 -0.5859  0.1584  0.3668
  221TIP3    H1  596   1.315   3.657   1.578 -0.5020 -1.3772 -0.2569
  221TIP3    H2  597   1.327   3.666   1.729 -2.2253 -0.7406 -0.1413
  222TIP3   OH2  598   0.600   2.101   1.809  0.3113 -0.2461  0.0039
  222TIP3    H1  599   0.583   2.108   1.903 -0.0048 -0.8667 -0.0043
  222TIP3    H2  600   0.519   2.065   1.772  0.1815  0.6704 -0.6061
  223TIP3   OH2  601   2.070   1.361   2.126 -0.7070  0.4405 -0.2531
  223TIP3    H1  602   2.107   1.359   2.038 -0.7088  1.7638 -0.2841
  223TIP3    H2  603   2.081   1.271   2.158  0.5840  0.2984 -1.0572
  224TIP3   OH2  604   1.337   0.621   2.846  0.2045  0.0481 -0.1849
  224TIP3    H1  605   1.410   0.669   2.885  2.3857 -3.8290  0.7629
  224TIP3    H2  606   1.374   0.578   2.769 -0.4391 -3.5670  1.3821
  225TIP3   OH2  607   3.385   1.975   3.348 -0.0084  0.3039 -0.6268
  225TIP3    H1  608   3.464   2.028   3.363  0.2052  0.0952 -1.0042
  225TIP3    H2  609   3.378   1.922   3.427  0.0112  0.5984 -0.4239
  226TIP3   OH2  610   4.326   2.512   1.019 -0.3736  0.3090  0.1463
  226TIP3    H1  611   4.412   2.521   1.059  1.9396 -1.2085 -4.2040
  226TIP3    H2  612   4.289   2.600   1.022  0.9350  0.8188  2.7827
  227TIP3   OH2  613   7.715   7.107   3.747  0.3101 -0.2578  0.2453
  227TIP3    H1  614   7.702   7.034   3.808  0.3897 -2.3337 -2.1027
  227TIP3    H2  615   7.752   7.065   3.668  1.7022  2.5392 -0.6564
  228TIP3   OH2  616   7.901   6.392   6.793 -0.2686 -0.0525  0.2147
  228TIP3    H1  617   7.863   6.395   6.881 -0.2698  0.9181  0.1887
  228TIP3    H2  618   7.995   6.400   6.808 -0.3517  1.3095  0.0660
  229TIP3   OH2  619   3.382   0.475   0.730  0.2762  0.7136  0.0058
  229TIP3    H1  620   3.404   0.516   0.814  0.6459  0.1423  0.1890
  229TIP3    H2  621   3.430   0.527   0.666 -0.5696  1.5939  0.0715
  230TIP3   OH2  622   1.492   2.020   1.510  0.4419 -0.0063 -0.8950
  230TIP3    H1  623   1.562   1.980   1.562  0.4202  0.5509 -0.4223
  230TIP3    H2  624   1.433   1.948   1.488 -0.0055 -0.1117  0.5889
  231TIP3   OH2  625   4.540   6.507   6.884 -0.3262 -0.0547 -0.0830
  231TIP3    H1  626   4.471   6.564   6.919 -1.2941 -1.5046  0.4149
  231TIP3    H2  627   4.493   6.429   6.853  0.8377 -0.0035 -2.0205
  232TIP3   OH2  628   0.848   3.253   0.556 -0.8361  0.0210  0.2688
  232TIP3    H1  629   0.935   3.277   0.589  0.8370 -1.6734 -2.7379
  232TIP3    H2  630   0.856   3.160   0.533 -3.6841 -0.3546  0.6135
  233TIP3   OH2  631   1.989   1.258   1.740 -0.1241  0.7880 -0.4203
  233TIP3    H1  632   1.982   1.231   1.648  0.8166  2.0072 -0.8629
  233TIP3    H2  633   1.909   1.223   1.781 -1.3348  1.5858 -2.0328
  234TIP3   OH2  634   3.077   1.139   1.188 -0.3259  0.3524 -0.1031
  234TIP3    H1  635   3.125   1.115   1.109 -1.6873 -1.1149 -0.5000
  234TIP3    H2  636   3.130   1.106   1.260  0.8498  1.5743 -0.3875
  235TIP3   OH2  637   0.584   2.708   1.474 -0.8550  0.0079 -0.5076
  235TIP3    H1  638   0.498   2.667   1.488 -0.9402  0.3914  0.1015
  235TIP3    H2  639   0.626   2.704   1.559 -1.0125  1.5527 -0.3420
  236TIP3   OH2  640   3.252   1.370   1.433 -0.0696 -0.2249 -0.2674
  236TIP3    H1  641   3.286   1.282   1.417 -0.6964 -0.1812 -1.9112
  236TIP3    H2  642   3.314   1.428   1.389 -0.6158  0.0431 -0.6873
  237TIP3   OH2  643   1.783   0.648   2.144 -0.1537  0.0156  0.3321
  237TIP3    H1  644   1.783   0.743   2.129  0.0718 -0.0541 -0.1321
  237TIP3    H2  645   1.772   0.639   2.239  0.2852  0.5204  0.4397
  238TIP3   OH2  646   2.030   0.086   2.098 -0.0771 -0.2882 -0.1587
  238TIP3    H1  647   1.968   0.071   2.169 -0.8942  0.3669 -0.7213
  238TIP3    H2  648   2.013   0.015   2.036  0.3746 -0.6420  0.1229
  239TIP3   OH2  649   2.027   4.508   1.819 -0.1833 -0.3488 -0.7381
  239TIP3    H1  650   2.102   4.566   1.805 -1.2058  0.9052 -1.1273
  239TIP3    H2  651   2.002   4.480   1.731 -2.6015  2.3963 -0.9945
  240TIP3   OH2  652   3.780   1.645   3.241 -0.6969 -0.0072  0.0259
  240TIP3    H1  653   3.736   1.560   3.253 -1.0434  0.0341 -0.8897
  240TIP3    H2  654   3.786   1.655   3.146  0.6415  0.3328  0.1416
  241TIP3   OH2  655   1.819   1.328   2.873  0.2863 -0.8521 -0.8363
  241TIP3    H1  656   1.821   1.415   2.915 -0.1349 -1.1619 -0.1702
  241TIP3    H2  657   1.779   1.344   2.788 -0.1778 -0.4591 -0.5476
  242TIP3   OH2  658   1.373   2.675   1.867  0.0693 -0.2713  0.8360
  242TIP3    H1  659   1.305   2.607   1.863  0.2920 -0.5039  0.9618
  242TIP3    H2  660   1.435   2.651   1.798 -0.6436  0.6737 -0.1582
  243TIP3   OH2  661   3.065   3.442   3.233 -0.3631 -0.4745  0.2857
  243TIP3    H1  662   2.993   3.405   3.181  0.6802 -1.9918 -0.0922
  243TIP3    H2  663   3.124   3.368   3.248 -0.0288  0.2391  2.5739
  244TIP3   OH2  664   2.457   4.234   3.514 -0.0742 -0.0073  0.7371
  244TIP3    H1  665   2.448   4.320   3.555  1.3401  1.4332 -1.8077
  244TIP3    H2  666   2.552   4.222   3.504 -0.2747 -1.6634  0.6635
  245TIP3   OH2  667   1.613   1.151   2.090  0.0297  0.2165 -0.5986
  245TIP3    H1  668   1.632   1.243   2.109  1.2970 -0.0603 -0.4794
  245TIP3    H2  669   1.522   1.151   2.061 -0.2359  1.4001  0.1803
  246TIP3   OH2  670   2.180   2.005   1.081 -0.2767  0.1950 -0.0188
  246TIP3    H1  671   2.095   2.019   1.123 -0.0070 -1.1875  1.0161
  246TIP3    H2  672   2.198   1.912   1.093  0.2298 -0.0473 -2.4360
  247TIP3   OH2  673   1.002   4.090   0.044 -0.3037 -0.6805  0.2394
  247TIP3    H1  674   1.029   4.006   0.081  0.8755 -1.0363 -1.3749
  247TIP3    H2  675   1.077   4.119  -0.007 -1.5024  0.2846 -1.0229
  248TIP3   OH2  676   2.704   2.593   0.049 -0.1984 -0.2773 -1.0180
  248TIP3    H1  677   2.712   2.500   0.069 -0.5501 -0.6766 -2.6206
  248TIP3    H2  678   2.611   2.604   0.026 -0.1146  0.4192 -1.0280
  249TIP3   OH2  679   3.190   1.374   1.786  0.1173  0.3740  0.1602
  249TIP3    H1  680   3.143   1.441   1.836 -0.2935 -0.6413  1.1411
  249TIP3    H2  681   3.225   1.314   1.852 -2.4609 -2.3347 -0.8210
  250TIP3   OH2  682   2.043   1.074   2.329  0.1326  0.7885 -0.3054
  250TIP3    H1  683   2.084   1.056   2.244 -1.1355  0.3258 -0.8465
  250TIP3    H2  684   2.034   0.988   2.369  0.3550  0.9642  0.1192
  251TIP3   OH2  685   2.155   0.286   2.678  0.2394 -0.2453 -0.0591
  251TIP3    H1  686   2.096   0.253   2.746  0.3899  0.2182  0.3006
  251TIP3    H2  687   2.187   0.369   2.713 -1.7832  1.3516 -1.9056
  252TIP3   OH2  688   1.235   1.976   5.642 -0.0978 -0.4729 -0.1839
  252TIP3    H1  689   1.186   2.008   5.566 -0.0566  0.2928  0.1019
  252TIP3    H2  690   1.189   2.014   5.717  1.2604  0.7198  0.0623
  253TIP3   OH2  691   2.702   1.655   2.179 -0.0172 -0.4144 -0.7654
  253TIP3    H1  692   2.736   1.569   2.204 -0.3801  0.1370  1.7198
  253TIP3    H2  693   2.622   1.665   2.230  0.6735  1.9177 -0.0680
  254TIP3   OH2  694   3.763   7.750   6.370  0.8081 -0.1038  0.4120
  254TIP3    H1  695   3.753   7.845   6.379 -0.4011 -0.1224 -0.5896
  254TIP3    H2  696   3.773   7.718   6.460 -3.0175  0.5475  1.1373
  255TIP3   OH2  697   3.122   1.785   1.810 -0.4633 -0.0482 -0.2304
  255TIP3    H1  698   3.096   1.876   1.825 -1.2192 -0.3776  0.5294
  255TIP3    H2  699   3.108   1.743   1.895 -1.3020 -1.1507 -0.9058
  256TIP3   OH2  700   3.328   7.792   6.811  0.1389  0.2802 -0.1543
  256TIP3    H1  701   3.269   7.724   6.841 -0.1860  0.2940 -0.7540
  256TIP3    H2  702   3.361   7.760   6.727  0.1158  0.7785 -0.3593
  257TIP3   OH2  703   3.318   1.717   1.628 -0.2237 -0.2053 -0.0782
  257TIP3    H1  704   3.346   1.807   1.646  1.5003 -0.5885 -0.7390
  257TIP3    H2  705   3.245   1.702   1.688 -0.6046  1.6744 -0.0535
  258TIP3   OH2  706   2.452   1.029   4.476 -0.2155 -0.1708 -0.0370
  258TIP3    H1  707   2.381   1.062   4.422  0.3136  1.6697  0.3650
  258TIP3    H2  708   2.458   0.936   4.453 -0.9050  0.2718 -2.1180
  259TIP3   OH2  709   7.826   5.703   6.488 -0.0389 -0.6552 -0.0526
  259TIP3    H1  710   7.837   5.782   6.435  0.6423 -0.6944  0.0222
  259TIP3    H2  711   7.759   5.726   6.552 -0.8126 -0.5817 -0.8813
  260TIP3   OH2  712   2.014   1.412   2.422 -0.3314 -0.1541 -0.0704
  260TIP3    H1  713   2.052   1.328   2.445 -0.1042 -0.4514 -1.4631
  260TIP3    H2  714   2.004   1.408   2.327 -0.4821  1.3231 -0.1251
  261TIP3   OH2  715   2.820   0.051   3.051 -0.2259  0.7381 -0.7960
  261TIP3    H1  716   2.833   0.054   2.957  0.4139  0.7631 -0.7109
  261TIP3    H2  717   2.753   0.117   3.069 -0.6577  0.4376 -1.2760
  262TIP3   OH2  718   4.380   1.417   2.774 -0.2515  0.2810 -0.1816
  262TIP3    H1  719   4.421   1.360   2.709  0.2833  0.8235 -0.3247
  262TIP3    H2  720   4.444   1.423   2.845 -1.0396 -0.7148  0.6388
  263TIP3   OH2  721   1.119   2.726   0.971  0.2553 -0.4128  0.4013
  263TIP3    H1  722   1.110   2.818   0.993  0.7210 -0.5346  1.1094
  263TIP3    H2  723   1.048   2.682   1.017  1.1986 -0.6607  1.6369
  264TIP3   OH2  724   0.928   2.402   2.746  0.4183  0.5854  0.6770
  264TIP3    H1  725   1.006   2.352   2.767 -0.3221 -0.1786  1.6293
  264TIP3    H2  726   0.930   2.410   2.650 -0.8737 -3.6766  0.1880
  265TIP3   OH2  727   0.627   1.975   0.985  0.1576  0.3035  0.2060
  265TIP3    H1  728   0.597   1.977   1.076  3.6804 -0.4752  1.4401
  265TIP3    H2  729   0.628   2.067   0.959  1.3048  0.7552  1.7426
  266TIP3   OH2  730   3.597   1.664   3.478 -0.3585 -0.5862  0.4304
  266TIP3    H1  731   3.633   1.612   3.406  2.0562 -0.3426  1.3873
  266TIP3    H2  732   3.632   1.752   3.463 -0.8538 -0.2524  1.2299
  267TIP3   OH2  733   3.604   2.587   1.413 -0.5726  0.0782 -0.5407
  267TIP3    H1  734   3.692   2.568   1.378 -0.5985  0.6073 -0.8882
  267TIP3    H2  735   3.598   2.533   1.492 -0.0792 -0.2543 -0.7275
  268TIP3   OH2  736   2.852   1.000   2.829  0.1060  0.1956  0.0232
  268TIP3    H1  737   2.930   1.054   2.821 -0.0445  0.3900 -0.1333
  268TIP3    H2  738   2.832   0.973   2.739 -1.3901  2.1132 -0.2511
  269TIP3   OH2  739   1.903   2.647   3.343 -1.0004  0.3006 -0.2027
  269TIP3    H1  740   1.963   2.644   3.268 -1.6808 -3.5908 -0.6991
  269TIP3    H2  741   1.826   2.694   3.310  1.0563  4.0157 -0.0070
  270TIP3   OH2  742   0.896   5.043   0.561  0.2913  0.2449 -0.2230
  270TIP3    H1  743   0.876   5.136   0.560 -1.1309 -0.0348  0.2669
  270TIP3    H2  744   0.944   5.029   0.643 -2.2533  0.0493  1.3162
  271TIP3   OH2  745   8.427   3.397   3.506  0.2056 -0.2684  0.1616
  271TIP3    H1  746   8.425   3.316   3.455  0.4484  0.0491 -0.3621
  271TIP3    H2  747   8.342   3.400   3.550 -0.5975  0.1451 -1.3469
  272TIP3   OH2  748   2.054   3.402   3.697  0.1439  0.3582  0.4788
  272TIP3    H1  749   2.063   3.432   3.787 -0.1633  0.8266  0.3558
  272TIP3    H2  750   1.972   3.441   3.666  0.9292  1.3049 -0.4333
  273TIP3   OH2  751   1.721   2.564   2.307 -0.6411  0.4421  0.0009
  273TIP3    H1  752   1.706   2.536   2.216 -0.9364  0.4593  0.0431
  273TIP3    H2  753   1.659   2.636   2.320  0.1047  1.1144 -0.1059
  274TIP3   OH2  754   1.892   1.775   1.561  0.1280 -0.4391 -0.2569
  274TIP3    H1  755   1.892   1.870   1.572  0.3235 -0.3759 -0.7740
  274TIP3    H2  756   1.915   1.741   1.647  0.2466 -0.0098 -0.1172
  275TIP3   OH2  757   2.088   2.417   3.205  0.4240  0.4277 -0.2349
  275TIP3    H1  758   2.079   2.377   3.291  0.5661  0.3564 -0.2531
  275TIP3    H2  759   2.181   2.406   3.183 -0.2031 -2.3350 -1.7435
  276TIP3   OH2  760   0.432   7.686   0.184  0.0831 -0.4973  0.3860
  276TIP3    H1  761   0.424   7.645   0.270 -1.5703  1.1400  1.0542
  276TIP3    H2  762   0.382   7.629   0.126  1.0053 -1.4793  0.5389
  277TIP3   OH2  763   4.044   0.725   1.209  0.0227 -0.2535  1.0734
  277TIP3    H1  764   4.100   0.738   1.132  0.3441  0.1274  1.3696
  277TIP3    H2  765   3.987   0.652   1.185 -2.2482  2.0519 -0.9122
  278TIP3   OH2  766   4.311   1.093   3.142 -0.3980 -0.3085  0.0784
  278TIP3    H1  767   4.268   1.177   3.124  1.0520  0.9765  2.3802
  278TIP3    H2  768   4.241   1.038   3.177 -1.2768  0.0571 -1.0685
  279TIP3   OH2  769   3.278   2.523   0.323  0.1184 -0.1603 -0.1153
  279TIP3    H1  770   3.355   2.580   0.316 -0.7409  1.0412  0.1064
  279TIP3    H2  771   3.250   2.509   0.233 -0.4450  0.8552 -0.1069
  280TIP3   OH2  772   1.999   3.158   0.403  0.3266  0.4359 -0.1245
  280TIP3    H1  773   1.925   3.144   0.344  0.0093 -2.4900  0.8969
  280TIP3    H2  774   2.075   3.126   0.355  0.7495  2.0096 -0.5581
  281TIP3   OH2  775   1.532   1.143   1.736  0.1396  0.2477 -0.0120
  281TIP3    H1  776   1.468   1.212   1.751 -0.9919 -0.5610 -1.0049
  281TIP3    H2  777   1.484   1.075   1.688  1.8933 -0.1400 -1.2796
  282TIP3   OH2  778   4.456   1.974   1.920 -0.1525  0.2440 -0.6782
  282TIP3    H1  779   4.463   2.067   1.900 -0.6656 -0.0346 -2.3094
  282TIP3    H2  780   4.396   1.940   1.853  0.9807 -1.4806 -0.8566
  283TIP3   OH2  781   4.784   2.774   0.842  0.6341 -0.5221  0.2727
  283TIP3    H1  782   4.780   2.797   0.934  0.5138 -1.8792  0.6214
  283TIP3    H2  783   4.695   2.783   0.810  0.3301 -1.8010  0.7381
  284TIP3   OH2  784   7.719   5.445   6.563 -0.3592  0.1825  0.5336
  284TIP3    H1  785   7.785   5.513   6.566  0.7481 -0.8749  0.6412
  284TIP3    H2  786   7.636   5.491   6.550  0.4297  1.4964  0.1757
  285TIP3   OH2  787   4.121   0.290   0.578  0.3702  0.3013  0.5545
  285TIP3    H1  788   4.033   0.321   0.601  0.5258  0.9265  0.3298
  285TIP3    H2  789   4.118   0.277   0.484  1.0625  2.1425  0.2640
  286TIP3   OH2  790   3.189   1.738   0.798 -0.1380 -0.4450  0.1712
  286TIP3    H1  791   3.142   1.698   0.872 -1.8685  1.0125 -0.0957
  286TIP3    H2  792   3.278   1.750   0.830 -0.8069 -0.0480  1.9637
  287TIP3   OH2  793   3.050   2.190   1.622  0.2502 -0.1768 -0.0397
  287TIP3    H1  794   2.957   2.179   1.603 -0.0851  1.8436  0.3476
  287TIP3    H2  795   3.070   2.122   1.686 -0.9180 -0.7498 -0.2809
  288TIP3   OH2  796   5.434   1.265   2.814  0.0183 -0.4688  0.8206
  288TIP3    H1  797   5.372   1.306   2.753  0.3618  0.3271  1.0004
  288TIP3    H2  798   5.379   1.216   2.875 -0.2368 -2.9701 -1.3388
  289TIP3   OH2  799   1.386   1.411   0.731  0.3245  0.1272  0.0581
  289TIP3    H1  800   1.456   1.346   0.721 -0.4881 -0.6867 -0.3151
  289TIP3    H2  801   1.335   1.380   0.806  0.9183  1.2358  0.9348
  290TIP3   OH2  802   1.526   6.809   3.114 -0.5427  0.3806  0.3379
  290TIP3    H1  803   1.587   6.865   3.066  0.4079 -0.6536  0.3209
  290TIP3    H2  804   1.440   6.836   3.082  0.0453  0.0667 -1.5880
  291TIP3   OH2  805   5.082   2.522   1.118  0.2256  0.0838  0.7299
  291TIP3    H1  806   5.117   2.434   1.121 -0.1941 -0.1320 -0.2915
  291TIP3    H2  807   5.158   2.579   1.125  0.4990 -0.3571  1.3707
  292TIP3   OH2  808   5.686   0.304   1.332 -0.0787 -0.1857 -0.5722
  292TIP3    H1  809   5.609   0.268   1.376 -0.5792 -1.9001 -2.8360
  292TIP3    H2  810   5.714   0.236   1.271  2.8756  0.6673 -0.2420
  293TIP3   OH2  811   4.012   2.677   3.863 -0.2925  0.3467  0.0519
  293TIP3    H1  812   4.014   2.623   3.941 -0.6210  0.3987  0.0989
  293TIP3    H2  813   3.923   2.711   3.860 -0.4386 -0.0840 -0.6382
  294TIP3   OH2  814   0.861   7.087   2.016 -0.0202 -0.1228 -0.2927
  294TIP3    H1  815   0.810   7.159   2.053  0.8464  0.6408 -0.5813
  294TIP3    H2  816   0.948   7.123   2.003  0.2117 -0.9865 -1.1812
  295TIP3   OH2  817   3.975   3.310   0.768  0.6727 -0.3691  0.0678
  295TIP3    H1  818   3.933   3.392   0.741  2.4761 -0.4304 -3.2121
  295TIP3    H2  819   4.068   3.324   0.754  1.0741 -2.7557  0.0954
  296TIP3   OH2  820   0.686   5.370   6.619  0.3930  0.0837  0.3343
  296TIP3    H1  821   0.595   5.397   6.607  1.2486  2.5142 -1.0969
  296TIP3    H2  822   0.695   5.357   6.714 -1.1212  1.0332  0.6287
  297TIP3   OH2  823   6.674   1.496   0.936  0.1526 -0.3852 -0.0959
  297TIP3    H1  824   6.700   1.584   0.965 -0.3980 -0.3824  0.4076
  297TIP3    H2  825   6.590   1.509   0.893 -0.0002 -0.6834  0.1081
  298TIP3   OH2  826   5.812   0.714   1.796  0.7582 -0.2309  0.4145
  298TIP3    H1  827   5.729   0.670   1.810 -0.8502  2.1747 -1.1899
  298TIP3    H2  828   5.831   0.756   1.881 -0.0140 -0.2337  0.5914
  299TIP3   OH2  829   5.576   3.344   0.508 -0.2081  0.2369 -0.4943
  299TIP3    H1  830   5.621   3.261   0.494 -0.8641 -0.3818  1.0200
  299TIP3    H2  831   5.489   3.331   0.470 -0.4890  0.0358  0.1986
  300TIP3   OH2  832   2.392   4.041   0.577 -0.1717 -0.3422  0.3331
  300TIP3    H1  833   2.330   4.057   0.647  1.1667 -0.5049  1.5795
  300TIP3    H2  834   2.471   4.089   0.603  0.1830  0.0129 -1.3039
  301TIP3   OH2  835   4.284   0.936   0.924 -0.3332 -0.0173  0.5038
  301TIP3    H1  836   4.342   0.871   0.885  1.5255  1.4438  0.7659
  301TIP3    H2  837   4.218   0.952   0.856  1.1335  0.2984 -0.8766
  302TIP3   OH2  838   3.592   2.362   1.585  0.2004  0.6029 -0.1336
  302TIP3    H1  839   3.631   2.285   1.546 -0.0869 -0.2424  1.2159
  302TIP3    H2  840   3.506   2.333   1.617  0.0664  1.4750  0.3446
  303TIP3   OH2  841   5.079   1.720   1.132 -0.5766 -0.0534  0.3787
  303TIP3    H1  842   5.095   1.802   1.180 -1.5035  0.7885 -0.7239
  303TIP3    H2  843   5.088   1.744   1.040 -0.8145 -1.2066  0.0520
  304TIP3   OH2  844   4.703   3.657   1.774  0.5199  0.0197 -0.1779
  304TIP3    H1  845   4.657   3.648   1.857 -0.3094  0.9722 -0.5254
  304TIP3    H2  846   4.680   3.578   1.725  1.2863 -0.7072  0.6268
  305TIP3   OH2  847   2.288   1.981   0.608  0.3985  0.1061  0.5947
  305TIP3    H1  848   2.234   1.966   0.530  0.3861 -1.0503  0.8135
  305TIP3    H2  849   2.233   1.951   0.680  0.2612  1.5251  1.0985
  306TIP3   OH2  850   4.512   1.579   0.864  0.4008  0.8349 -0.0366
  306TIP3    H1  851   4.536   1.663   0.904 -3.2095  1.4893  0.9900
  306TIP3    H2  852   4.450   1.602   0.795 -3.2356 -1.1283  2.4367
  307TIP3   OH2  853   3.543   1.143   0.987  0.3450  0.0106 -0.0186
  307TIP3    H1  854   3.575   1.171   1.073 -1.7609 -0.5028  0.9482
  307TIP3    H2  855   3.586   1.202   0.926 -0.5487  2.4198  1.6192
  308TIP3   OH2  856   1.278   4.579   0.493 -1.0206 -0.3886  0.2806
  308TIP3    H1  857   1.325   4.659   0.471 -0.1965 -0.9355  0.0354
  308TIP3    H2  858   1.233   4.599   0.576 -2.3119  0.9211 -0.7103
  309TIP3   OH2  859   1.698   3.713   1.240 -0.0627 -0.0292  0.3072
  309TIP3    H1  860   1.638   3.665   1.184 -0.2841  0.1797  0.3665
  309TIP3    H2  861   1.701   3.661   1.321  0.2863 -0.3515  0.0915
  310TIP3   OH2  862   6.303   5.159   6.007 -0.7980  0.2871 -0.5188
  310TIP3    H1  863   6.214   5.140   5.976 -0.9666 -1.3935  0.9108
  310TIP3    H2  864   6.308   5.118   6.093  0.1306  3.6907  1.1239
  311TIP3   OH2  865   2.153   2.920   0.765 -0.0037  0.0538 -0.0623
  311TIP3    H1  866   2.234   2.967   0.788  1.5657 -1.6255 -1.9841
  311TIP3    H2  867   2.084   2.985   0.778  1.9034  2.3145 -0.7417
  312TIP3   OH2  868   3.350   2.545   1.920 -0.0013  0.2868  0.2003
  312TIP3    H1  869   3.394   2.467   1.954 -0.8793 -0.3807 -0.1796
  312TIP3    H2  870   3.419   2.610   1.914  0.2601  0.3623  3.0517
  313TIP3   OH2  871   2.057   3.523   2.697  0.4674 -0.6033 -0.3805
  313TIP3    H1  872   2.053   3.436   2.657  0.9124 -0.9532  0.3194
  313TIP3    H2  873   2.135   3.520   2.752 -0.8494 -0.5881  1.5525
  314TIP3   OH2  874   3.362   1.987   2.408  0.0760 -0.4251  0.7542
  314TIP3    H1  875   3.273   1.998   2.441 -1.1640 -2.7057 -1.6058
  314TIP3    H2  876   3.387   2.074   2.378 -1.8003  0.0263  0.4174
  315TIP3   OH2  877   2.825   2.995   2.058  0.4084  0.0685  0.7573
  315TIP3    H1  878   2.810   2.932   2.129  2.3729  2.8841  3.7845
  315TIP3    H2  879   2.906   2.964   2.015 -0.6447 -1.4874 -0.1805
  316TIP3   OH2  880   3.076   1.953   3.390  0.0460 -1.1499 -0.0069
  316TIP3    H1  881   3.160   1.999   3.392  0.0299 -1.0477 -1.2174
  316TIP3    H2  882   3.070   1.910   3.475  0.8408 -0.2950  0.4963
  317TIP3   OH2  883   6.632   0.686   1.656 -0.3652 -0.4521  0.0862
  317TIP3    H1  884   6.564   0.632   1.615 -1.0364  0.0408  0.5446
  317TIP3    H2  885   6.687   0.624   1.703  0.2854 -1.0060 -1.3772
  318TIP3   OH2  886   4.723   1.780   2.233  0.0684 -0.3678 -0.1718
  318TIP3    H1  887   4.722   1.687   2.252  1.6311 -0.4015 -0.1515
  318TIP3    H2  888   4.765   1.820   2.310 -0.0845  0.2846 -0.4206
  319TIP3   OH2  889   5.537   2.435   1.497 -0.2033  0.2412 -0.3928
  319TIP3    H1  890   5.500   2.465   1.580 -2.9785 -0.3946 -1.3516
  319TIP3    H2  891   5.490   2.485   1.431 -2.3906 -3.5920 -1.8517
  320TIP3   OH2  892   6.532   6.980   6.712  0.4433 -0.1114 -0.3751
  320TIP3    H1  893   6.527   6.985   6.617  1.1013 -2.0387 -0.5241
  320TIP3    H2  894   6.441   6.982   6.741  0.3115  3.0210 -0.8743
  321TIP3   OH2  895   4.613   3.992   2.141  0.2803  0.3319 -0.0670
  321TIP3    H1  896   4.538   3.966   2.087  0.1009  1.4618 -0.3665
  321TIP3    H2  897   4.662   4.054   2.086  0.5455  0.8472  0.7473
  322TIP3   OH2  898   3.254   2.206   0.793 -0.0264 -0.7378 -0.3264
  322TIP3    H1  899   3.187   2.233   0.730 -0.4178  0.9592  0.7741
  322TIP3    H2  900   3.205   2.171   0.868  0.2411  1.2099  0.8017
  323TIP3   OH2  901   1.622   3.533   2.281 -0.2179 -0.5161 -0.4233
  323TIP3    H1  902   1.688   3.478   2.324  1.0016  0.6935 -0.6994
  323TIP3    H2  903   1.569   3.472   2.231 -1.1746 -1.8697  2.1517
  324TIP3   OH2  904   5.510   1.436   1.812  0.2622  0.1598 -0.1245
  324TIP3    H1  905   5.442   1.437   1.880 -0.4235  3.3861 -0.7741
  324TIP3    H2  906   5.461   1.429   1.730  0.6871  2.3229 -0.5871
  325TIP3   OH2  907   4.396   0.621   1.599 -0.6406 -0.2253  0.5684
  325TIP3    H1  908   4.473   0.595   1.649 -1.2549  1.0216  2.2226
  325TIP3    H2  909   4.334   0.549   1.610  0.0028 -0.8905 -0.1463
  326TIP3   OH2  910   3.668   2.500   0.523  0.1048  0.1078  0.1576
  326TIP3    H1  911   3.594   2.519   0.465  1.3329  0.5992 -1.2921
  326TIP3    H2  912   3.707   2.421   0.485  0.5348  0.0530  0.7187
  327TIP3   OH2  913   2.261   0.610   4.348 -0.0064  0.1220  0.1608
  327TIP3    H1  914   2.327   0.615   4.417 -0.2697  0.3928  0.3964
  327TIP3    H2  915   2.178   0.608   4.395 -0.1002 -3.2739 -0.0103
  328TIP3   OH2  916   3.938   2.123   1.329 -0.0978  0.2990 -0.5083
  328TIP3    H1  917   3.918   2.030   1.321  1.0578  0.1163 -1.4538
  328TIP3    H2  918   4.009   2.127   1.393 -0.2368  0.5451 -0.3686
  329TIP3   OH2  919   2.921   2.509   1.545  0.2074 -0.0671  0.2471
  329TIP3    H1  920   2.896   2.455   1.470  1.7446 -0.4083 -0.0350
  329TIP3    H2  921   3.015   2.496   1.553  0.4133  1.7216  0.8576
  330TIP3   OH2  922   0.893   7.884   2.742 -0.2130 -0.3205 -0.4629
  330TIP3    H1  923   0.968   7.825   2.729 -0.9471 -0.8920 -2.2375
  330TIP3    H2  924   0.828   7.854   2.679 -2.0101  0.0789  1.1479
  331TIP3   OH2  925   3.629   0.444   2.609 -0.0531 -0.1035  0.0341
  331TIP3    H1  926   3.539   0.465   2.585  0.0388 -0.7935 -0.9300
  331TIP3    H2  927   3.661   0.523   2.652 -0.8883  0.4008 -0.2598
  332TIP3   OH2  928   5.444   1.528   1.389 -0.1805  0.2138 -0.1829
  332TIP3    H1  929   5.447   1.616   1.426  0.7768  0.4393 -0.7815
  332TIP3    H2  930   5.424   1.542   1.296  1.8804 -0.0658 -0.6927
  333TIP3   OH2  931   2.972   0.244   0.399 -0.0551 -0.4716  0.1786
  333TIP3    H1  932   3.067   0.257   0.389 -0.1202 -0.7138 -0.8204
  333TIP3    H2  933   2.951   0.284   0.483  1.3103 -2.3750  1.4726
  334TIP3   OH2  934   2.752   0.580   0.233 -0.1971  0.2747  0.0732
  334TIP3    H1  935   2.677   0.634   0.209 -0.1399  0.3966  0.1662
  334TIP3    H2  936   2.722   0.527   0.307  0.1668  1.1655  0.8690
  335TIP3   OH2  937   4.218   2.206   2.282 -0.3972  0.1187 -0.5115
  335TIP3    H1  938   4.134   2.251   2.291 -2.0462 -3.2180  1.6217
  335TIP3    H2  939   4.201   2.137   2.218  0.6121 -0.8837  0.2960
  336TIP3   OH2  940   3.948   0.840   1.753  0.7027  0.2523 -0.7648
  336TIP3    H1  941   3.897   0.832   1.833  2.4046 -1.7410  0.1528
  336TIP3    H2  942   4.017   0.903   1.774  0.4450  0.6399 -1.0598
  337TIP3   OH2  943   3.745   0.613   2.378  0.1707 -0.2270 -0.4962
  337TIP3    H1  944   3.813   0.680   2.377 -1.5387  1.5404 -1.6062
  337TIP3    H2  945   3.778   0.547   2.438  2.1243  1.3778  0.2650
  338TIP3   OH2  946   3.597   3.796   2.973  0.1079  0.1471 -0.2948
  338TIP3    H1  947   3.639   3.714   2.946  0.8687  0.8207 -1.1716
  338TIP3    H2  948   3.669   3.857   2.986 -0.3787  0.3263  1.5912
  339TIP3   OH2  949   4.131   2.711   2.710 -0.6182 -0.0026 -0.2591
  339TIP3    H1  950   4.156   2.623   2.739 -0.9874 -0.6414 -1.8547
  339TIP3    H2  951   4.068   2.740   2.776 -0.9734 -1.1944 -0.0626
  340TIP3   OH2  952   2.412   1.578   1.013  0.3049  0.4550  0.1282
  340TIP3    H1  953   2.392   1.490   0.981  1.6571  0.4440 -0.7029
  340TIP3    H2  954   2.335   1.630   0.990 -0.1422 -0.3234 -0.1311
  341TIP3   OH2  955   7.850   5.480   6.873 -0.2588 -0.6693 -0.2592
  341TIP3    H1  956   7.763   5.509   6.847  0.0948  0.8128  0.1335
  341TIP3    H2  957   7.836   5.430   6.953 -0.8406 -1.1527 -0.6690
  342TIP3   OH2  958   5.728   1.515   1.344  0.6819 -0.8780 -0.6985
  342TIP3    H1  959   5.745   1.452   1.275  0.5832 -1.8086  0.1191
  342TIP3    H2  960   5.642   1.489   1.379 -0.2025  0.7975 -1.5485
  343TIP3   OH2  961   2.023   0.552   0.906 -0.7471  0.2231  0.4954
  343TIP3    H1  962   2.084   0.624   0.920 -2.0488  1.8640 -1.8167
  343TIP3    H2  963   2.067   0.475   0.942  1.1768  1.9516  1.9479
  344TIP3   OH2  964   2.807   2.066   1.568 -0.2748  0.1810 -0.0874
  344TIP3    H1  965   2.717   2.034   1.575  0.0795 -0.9375 -0.4920
  344TIP3    H2  966   2.860   1.986   1.567  0.6924  0.8278 -0.1536
  345TIP3   OH2  967   4.798   5.644   4.101 -0.3461 -0.1123 -0.1344
  345TIP3    H1  968   4.753   5.712   4.051  1.4504 -0.1122 -1.8211
  345TIP3    H2  969   4.820   5.686   4.185 -1.7726  0.4686 -0.0443
  346TIP3   OH2  970   2.294   2.122   3.360  0.3421 -0.1853 -0.6427
  346TIP3    H1  971   2.225   2.185   3.384  2.1313  1.1923  1.0596
  346TIP3    H2  972   2.330   2.157   3.278  0.5738  0.3722 -0.3035
  347TIP3   OH2  973   3.615   2.677   4.514  0.4304  0.2753 -0.1834
  347TIP3    H1  974   3.529   2.644   4.486 -0.1424  1.8729 -0.3506
  347TIP3    H2  975   3.625   2.761   4.469  1.8844  0.3287  0.2010
  348TIP3   OH2  976   4.159   1.357   1.114  0.1395  0.1782 -0.3868
  348TIP3    H1  977   4.183   1.265   1.127 -1.1537 -0.3528 -1.6159
  348TIP3    H2  978   4.089   1.354   1.049 -1.4380  1.8791  1.1952
  349TIP3   OH2  979   4.846   1.592   0.929  0.8991  0.8883 -0.2814
  349TIP3    H1  980   4.924   1.597   0.875 -1.1354  0.6937 -3.3591
  349TIP3    H2  981   4.782   1.649   0.886 -1.4104 -0.7790  0.7765
  350TIP3   OH2  982   3.811   2.535   3.445 -0.0577 -0.4627 -0.3384
  350TIP3    H1  983   3.890   2.504   3.489  0.2442  2.9872  1.7737
  350TIP3    H2  984   3.741   2.525   3.509  0.1393  3.4006  0.6072
  351TIP3   OH2  985   8.244   5.399   6.836 -0.2449 -0.3017 -0.3776
  351TIP3    H1  986   8.172   5.373   6.894 -0.2149  0.9679  0.2569
  351TIP3    H2  987   8.308   5.329   6.844 -0.2049 -0.1097  1.2131
  352TIP3   OH2  988   5.014   1.984   1.520 -0.5153 -0.4827 -0.1375
  352TIP3    H1  989   4.949   2.043   1.481 -0.8293  0.1014  1.2312
  352TIP3    H2  990   5.032   2.023   1.606 -0.1516 -1.9642  0.4617
  353TIP3   OH2  991   6.323   4.118   6.633  0.1147 -0.1924 -0.2656
  353TIP3    H1  992   6.344   4.179   6.704  0.9198 -2.0900  1.1837
  353TIP3    H2  993   6.347   4.032   6.668 -0.7372 -1.3152 -2.3597
  354TIP3   OH2  994   2.537   1.193   0.357 -0.7284  0.1475 -0.1886
  354TIP3    H1  995   2.497   1.108   0.335 -0.6836 -0.1776  0.9646
  354TIP3    H2  996   2.596   1.210   0.284 -1.2258 -0.5056 -0.7538
  355TIP3   OH2  997   4.538   3.802   2.456 -0.1506 -0.1895  0.0163
  355TIP3    H1  998   4.587   3.825   2.535 -0.0035  0.3624 -0.2393
  355TIP3    H2  999   4.471   3.869   2.449  0.0254 -0.0699 -0.5014
  356TIP3   OH2 1000   3.099   2.568   2.372 -0.4647  0.3260 -0.0464
  356TIP3    H1 1001   3.086   2.663   2.374  0.4858  0.4409  0.9011
  356TIP3    H2 1002   3.164   2.551   2.441 -0.0700 -0.9220 -0.7145
  357TIP3   OH2 1003   1.853   2.028   0.387  0.2564  0.0696  0.6541
  357TIP3    H1 1004   1.878   2.006   0.298  1.2166 -0.8775  1.1485
  357TIP3    H2 1005   1.933   2.063   0.427 -0.3945  1.3602  0.8791
  358TIP3   OH2 1006   0.682   5.050   6.921 -0.1997 -0.0563 -0.0129
  358TIP3    H1 1007   0.754   5.034   6.861 -0.2278  0.8870 -0.3085
  358TIP3    H2 1008   0.627   4.972   6.914 -0.1948  0.0417 -1.1999
  359TIP3   OH2 1009   4.505   2.861   0.759 -0.0040  0.1356  0.6834
  359TIP3    H1 1010   4.515   2.789   0.696  3.1088 -1.0770  2.4654
  359TIP3    H2 1011   4.416   2.850   0.793 -0.0863 -2.0334 -0.1215
  360TIP3   OH2 1012   6.158   2.539   0.755 -0.0902  0.0555  0.0998
  360TIP3    H1 1013   6.208   2.568   0.831  0.5626  2.2021 -1.1277
  360TIP3    H2 1014   6.202   2.459   0.726  0.0732 -0.3929  1.5370
  361TIP3   OH2 1015   3.209   1.048   2.660  0.7364 -0.3765  0.6592
  361TIP3    H1 1016   3.155   1.103   2.716 -1.3004 -0.6604 -0.9874
  361TIP3    H2 1017   3.180   1.067   2.571  3.0106 -0.9121 -0.2381
  362TIP3   OH2 1018   4.396   2.206   0.389 -0.3849  0.3991  0.8021
  362TIP3    H1 1019   4.463   2.254   0.438 -1.6473  3.6675 -0.5217
  362TIP3    H2 1020   4.357   2.271   0.330 -1.0693 -2.6632 -2.3188
  363TIP3   OH2 1021   7.606   6.392   3.765 -0.3440 -0.1957 -0.4721
  363TIP3    H1 1022   7.517   6.419   3.743  0.2442  1.6298 -0.6724
  363TIP3    H2 1023   7.655   6.397   3.683  0.8885  2.7280  0.3744
  364TIP3   OH2 1024   5.360   3.638   0.336 -0.3453  0.8517 -0.2045
  364TIP3    H1 1025   5.423   3.629   0.408 -0.7899  1.5656  0.2797
  364TIP3    H2 1026   5.280   3.598   0.370 -0.2719  0.2781 -0.6857
  365TIP3   OH2 1027   4.459   0.837   2.748 -0.2950  0.2123  0.1666
  365TIP3    H1 1028   4.442   0.795   2.664 -1.3315  1.0760 -0.0665
  365TIP3    H2 1029   4.542   0.799   2.777  0.1961  0.0742 -1.3557
  366TIP3   OH2 1030   4.931   3.086   0.332 -0.1868 -0.0491  0.2105
  366TIP3    H1 1031   4.867   3.071   0.400 -1.9018  0.5352 -1.2274
  366TIP3    H2 1032   4.933   3.005   0.281  1.8905 -0.8816  1.5750
  367TIP3   OH2 1033   2.856   1.011   4.578  0.4507  0.1783 -0.0440
  367TIP3    H1 1034   2.808   1.035   4.499  0.1209  2.4644  0.8045
  367TIP3    H2 1035   2.788   0.986   4.640  0.6070 -0.2044 -0.0288
  368TIP3   OH2 1036   6.318   6.088   6.883 -0.8131  0.4059  0.0169
  368TIP3    H1 1037   6.323   6.106   6.977  1.1580 -0.4688  0.0919
  368TIP3    H2 1038   6.259   6.013   6.877 -0.9209  0.4398  0.5556
  369TIP3   OH2 1039   2.156   3.028   1.711  0.0325 -0.8577  0.0114
  369TIP3    H1 1040   2.142   3.093   1.779 -1.8601 -0.8318 -0.3640
  369TIP3    H2 1041   2.251   3.020   1.704  0.2738  1.1098  0.7688
  370TIP3   OH2 1042   1.121   7.218   2.019 -0.2557 -0.6901  0.2644
  370TIP3    H1 1043   1.138   7.308   2.045  0.1868 -0.7873  0.3161
  370TIP3    H2 1044   1.159   7.165   2.089 -0.3867 -0.9191  0.1642
  371TIP3   OH2 1045   2.587   2.839   1.620 -0.1278 -0.5736  0.2024
  371TIP3    H1 1046   2.521   2.896   1.580 -2.2980 -1.0082  3.0424
  371TIP3    H2 1047   2.582   2.759   1.568  0.4198  0.4962 -1.5658
  372TIP3   OH2 1048   1.396   7.577   2.977 -0.1897  0.0074  0.1265
  372TIP3    H1 1049   1.358   7.490   2.990  2.0950 -1.3244 -1.5963
  372TIP3    H2 1050   1.331   7.624   2.925  0.0603 -1.9429 -2.0669
  373TIP3   OH2 1051   2.318   2.267   2.474 -0.1207 -0.2744  0.9660
  373TIP3    H1 1052   2.351   2.312   2.397  0.3780 -1.1659  0.6611
  373TIP3    H2 1053   2.384   2.201   2.494 -0.6987 -0.6669  1.5971
  374TIP3   OH2 1054   2.532   4.252   0.078  0.1381 -0.0085  0.6837
  374TIP3    H1 1055   2.462   4.243   0.143  0.4767  0.6447  1.1350
  374TIP3    H2 1056   2.523   4.341   0.044 -0.0662 -0.3563 -0.2022
  375TIP3   OH2 1057   5.461   5.472   6.732  0.7766  0.0677 -0.0845
  375TIP3    H1 1058   5.551   5.503   6.735  0.3424  1.2491  0.9137
  375TIP3    H2 1059   5.408   5.549   6.749 -0.4101 -0.7425 -0.0202
  376TIP3   OH2 1060   3.227   3.490   0.043  0.0279  0.0059  0.0738
  376TIP3    H1 1061   3.238   3.468   0.136  1.4319  0.3988  0.0005
  376TIP3    H2 1062   3.306   3.458   0.001  0.2336  1.4859 -0.7014
  377TIP3   OH2 1063   5.022   3.052   1.732  0.1503  0.1733 -0.2449
  377TIP3    H1 1064   4.928   3.054   1.713 -0.2205 -0.3438  1.4430
  377TIP3    H2 1065   5.040   3.136   1.775  0.4368  0.2320 -0.4762
  378TIP3   OH2 1066   7.046   4.792   6.731 -0.1631 -0.2872 -0.0497
  378TIP3    H1 1067   6.996   4.842   6.795  3.4027 -0.9887  3.4881
  378TIP3    H2 1068   7.122   4.848   6.712  0.6142 -1.6183 -0.9238
  379TIP3   OH2 1069   3.515   3.160   1.549 -0.6928  0.2537 -0.1751
  379TIP3    H1 1070   3.573   3.222   1.504 -2.2976  1.1825 -1.0423
  379TIP3    H2 1071   3.526   3.179   1.642 -0.0115  0.7885 -0.3673
  380TIP3   OH2 1072   3.002   2.100   0.371  0.4826 -0.6782  0.1653
  380TIP3    H1 1073   3.012   2.101   0.276 -0.4987  0.2341  0.0655
  380TIP3    H2 1074   3.053   2.176   0.401 -0.1867 -0.2586  0.2590
  381TIP3   OH2 1075   2.549   0.792   2.821  0.0074  0.1681 -0.2933
  381TIP3    H1 1076   2.494   0.766   2.895 -1.1586  1.7893 -0.5623
  381TIP3    H2 1077   2.516   0.878   2.795  1.6062  0.4394 -1.5280
  382TIP3   OH2 1078   2.518   1.608   0.680  0.0892  0.0728 -0.2292
  382TIP3    H1 1079   2.524   1.513   0.680 -0.6513  0.0185  1.0402
  382TIP3    H2 1080   2.428   1.626   0.707  0.2413  1.1345 -0.4056
  383TIP3   OH2 1081   6.721   6.829   5.663  0.0028 -0.1835 -0.1421
  383TIP3    H1 1082   6.792   6.887   5.635  0.4044  0.3966  1.9512
  383TIP3    H2 1083   6.765   6.757   5.707 -0.5937 -1.1927 -1.1722
  384TIP3   OH2 1084   2.130   2.871   1.922  0.2590  0.4957  0.7437
  384TIP3    H1 1085   2.133   2.909   1.834 -0.1872  0.2843  0.6362
  384TIP3    H2 1086   2.038   2.877   1.948 -0.0323 -1.5475  0.2689
  385TIP3   OH2 1087   3.346   0.101   5.241  0.1745 -0.7819 -0.0723
  385TIP3    H1 1088   3.425   0.085   5.190 -0.8032 -0.9057 -1.5897
  385TIP3    H2 1089   3.377   0.139   5.324  1.6675  1.2733 -1.5279
  386TIP3   OH2 1090   2.882   0.540   3.292  0.2524 -0.4872 -0.2046
  386TIP3    H1 1091   2.972   0.568   3.310  0.5580 -1.5060 -0.1066
  386TIP3    H2 1092   2.892   0.457   3.246 -0.6053  0.1549 -1.5913
  387TIP3   OH2 1093   3.482   0.162   0.493 -0.1875 -0.2194 -0.1279
  387TIP3    H1 1094   3.548   0.218   0.534 -1.0101  0.3883  0.3724
  387TIP3    H2 1095   3.432   0.126   0.566  0.4237 -1.7452 -0.4288
  388TIP3   OH2 1096   3.163   0.671   0.049  0.1400  0.4342 -0.1486
  388TIP3    H1 1097   3.238   0.634   0.097 -0.3431  0.3497  0.5441
  388TIP3    H2 1098   3.189   0.760   0.028 -0.1284  0.8673  1.3355
  389TIP3   OH2 1099   4.626   0.637   1.025 -0.3860 -0.8140 -0.2609
  389TIP3    H1 1100   4.690   0.683   1.080 -0.5112 -2.4606  1.3093
  389TIP3    H2 1101   4.672   0.559   0.994 -1.5404 -1.9182  0.7375
  390TIP3   OH2 1102   2.481   3.541   2.234  0.5698  0.0506 -0.4650
  390TIP3    H1 1103   2.398   3.493   2.244  0.2451  0.5334 -0.8261
  390TIP3    H2 1104   2.531   3.488   2.172  2.5011 -2.8366  3.3241
  391TIP3   OH2 1105   4.709   0.673   2.878  0.2637 -0.2853  0.2391
  391TIP3    H1 1106   4.655   0.661   2.956 -0.7375 -0.7875 -0.5148
  391TIP3    H2 1107   4.760   0.751   2.896  1.0380 -1.1627  1.9529
  392TIP3   OH2 1108   4.488   3.084   1.060  0.1060  0.1325  0.8528
  392TIP3    H1 1109   4.500   3.112   1.151 -0.1844 -0.5229  1.0982
  392TIP3    H2 1110   4.512   2.992   1.061 -1.9917 -0.4339  0.7299
  393TIP3   OH2 1111   4.268   2.675   0.748  0.1888 -0.2649 -0.1820
  393TIP3    H1 1112   4.191   2.621   0.728  0.5973 -0.6854 -0.6316
  393TIP3    H2 1113   4.249   2.712   0.834 -0.0525 -1.2223  0.1922
  394TIP3   OH2 1114   3.390   1.386   2.164 -0.2499  0.0305  0.1319
  394TIP3    H1 1115   3.457   1.407   2.099  0.0388  0.0399  0.4272
  394TIP3    H2 1116   3.325   1.334   2.116 -1.1002  1.7885 -0.6535
  395TIP3   OH2 1117   1.963   2.537   1.624 -0.2069  0.2818  0.1331
  395TIP3    H1 1118   1.923   2.621   1.645  0.2573  0.2923  0.9957
  395TIP3    H2 1119   2.032   2.526   1.689 -1.4449 -1.5984  1.1702
  396TIP3   OH2 1120   0.082   6.439   1.855 -0.4987 -0.1711 -0.6710
  396TIP3    H1 1121   0.159   6.494   1.867  1.2774 -2.9620  1.3139
  396TIP3    H2 1122   0.027   6.458   1.931 -0.1963 -0.6386 -0.3340
  397TIP3   OH2 1123   0.472   7.554   2.931  0.7533 -0.7986  0.6726
  397TIP3    H1 1124   0.455   7.491   3.001  0.6148 -1.6862 -0.1482
  397TIP3    H2 1125   0.480   7.500   2.852 -0.8571  0.3395 -0.2857
  398TIP3   OH2 1126   1.980   7.239   2.096  0.2700  0.2026  0.3601
  398TIP3    H1 1127   1.946   7.327   2.109  1.0840  0.3856  1.3164
  398TIP3    H2 1128   1.903   7.182   2.103 -0.5482  0.9604 -2.0908
  399TIP3   OH2 1129   3.860   1.143   3.193  0.3443 -0.3261 -0.0012
  399TIP3    H1 1130   3.862   1.092   3.274 -0.2706  0.2713  0.3941
  399TIP3    H2 1131   3.867   1.077   3.123  1.5892 -0.7913  0.5421
  400TIP3   OH2 1132   1.483   7.168   2.342 -0.2201  0.1573  0.5161
  400TIP3    H1 1133   1.560   7.141   2.392  0.2222  2.5613  1.1811
  400TIP3    H2 1134   1.409   7.134   2.392  0.3353 -1.2059  0.4529
  401TIP3   OH2 1135   0.987   7.920   1.676  0.3018  0.1498  0.0226
  401TIP3    H1 1136   0.912   7.968   1.710 -0.5850 -1.3299  0.1727
  401TIP3    H2 1137   1.021   7.975   1.606 -0.8542  0.8835  0.0286
  402TIP3   OH2 1138   3.725   2.473   1.106 -0.3062 -0.4195 -0.0872
  402TIP3    H1 1139   3.777   2.450   1.183 -0.8246 -0.9150  0.1135
  402TIP3    H2 1140   3.790   2.489   1.037  0.1768  0.6467  0.6207
  403TIP3   OH2 1141   2.303   2.657   1.849  0.0951 -0.0823  0.1641
  403TIP3    H1 1142   2.221   2.607   1.849 -0.1123  0.2592  0.5883
  403TIP3    H2 1143   2.283   2.737   1.897  0.6541  0.0439  0.1903
  404TIP3   OH2 1144   1.919   2.560   3.037 -0.4427  0.1614 -0.0391
  404TIP3    H1 1145   1.988   2.520   3.090 -0.8349  0.0296  0.3751
  404TIP3    H2 1146   1.885   2.489   2.983 -2.0998 -0.4336  1.6973
  405TIP3   OH2 1147   3.735   4.421   0.874  0.2274 -0.4490 -0.0852
  405TIP3    H1 1148   3.682   4.391   0.947 -0.1868 -1.0364 -0.6118
  405TIP3    H2 1149   3.792   4.489   0.910 -1.1675  0.4793  0.4000
  406TIP3   OH2 1150   0.827   6.594   6.265 -0.0481  0.3583 -0.1438
  406TIP3    H1 1151   0.795   6.628   6.348 -0.5881  1.7268 -0.8957
  406TIP3    H2 1152   0.920   6.619   6.264  0.0503  0.0182  0.1978
  407TIP3   OH2 1153   5.222   1.868   3.632  0.1185  0.2605  0.0966
  407TIP3    H1 1154   5.151   1.808   3.657  1.6886 -1.1299  1.3469
  407TIP3    H2 1155   5.244   1.843   3.542  0.0802 -0.3791  0.2616
  408TIP3   OH2 1156   3.086   1.606   0.576 -0.3647 -0.7253 -0.3900
  408TIP3    H1 1157   3.128   1.648   0.651  0.3473 -1.3152 -0.4530
  408TIP3    H2 1158   3.045   1.678   0.528 -1.0824 -0.3796  0.7185
  409TIP3   OH2 1159   8.472   5.871   5.946  0.6746 -0.1816  0.6550
  409TIP3    H1 1160   8.445   5.779   5.946  0.7761 -0.2127  1.7288
  409TIP3    H2 1161   8.564   5.869   5.972  0.5629  0.2586  1.0859
  410TIP3   OH2 1162   5.799   0.107   1.154  0.3175  0.7067  0.1315
  410TIP3    H1 1163   5.805   0.117   1.059 -2.5953 -0.6587 -0.2541
  410TIP3    H2 1164   5.795   0.012   1.168  1.3794  0.8764  1.6803
  411TIP3   OH2 1165   2.495   2.575   1.628  0.6821 -0.4485  1.0962
  411TIP3    H1 1166   2.446   2.493   1.638  1.4870 -1.2219 -0.9412
  411TIP3    H2 1167   2.428   2.644   1.631  0.0107 -1.1407  2.9777
  412TIP3   OH2 1168   2.893   0.841   1.972 -0.2664 -0.3601 -0.1583
  412TIP3    H1 1169   2.859   0.865   1.886  1.8694 -0.0130 -0.9486
  412TIP3    H2 1170   2.922   0.750   1.962 -1.1941 -0.7478  0.5808
  413TIP3   OH2 1171   2.050   1.779   0.051 -0.8348 -0.2009 -0.3045
  413TIP3    H1 1172   2.086   1.708  -0.003 -2.0885 -0.3601 -0.9699
  413TIP3    H2 1173   1.970   1.741   0.089 -0.8424  0.4592  0.3364
  414TIP3   OH2 1174   2.812   2.464   0.368  0.4490  0.2341  0.2801
  414TIP3    H1 1175   2.886   2.504   0.414 -0.8542 -0.3097  3.0065
  414TIP3    H2 1176   2.747   2.534   0.362  0.3796  0.1303 -0.1793
  415TIP3   OH2 1177   2.116   3.134   2.313  0.0775  0.0226 -0.3371
  415TIP3    H1 1178   2.145   3.218   2.351 -1.0847 -1.0393  3.1253
  415TIP3    H2 1179   2.028   3.151   2.281  1.0103  0.8906 -2.5759
  416TIP3   OH2 1180   3.215   1.979   2.719  0.4218  0.0288  0.4669
  416TIP3    H1 1181   3.187   2.037   2.647 -1.2510 -0.8736  0.3623
  416TIP3    H2 1182   3.274   2.033   2.772  0.6514  1.1149 -0.8636
  417TIP3   OH2 1183   7.709   5.751   6.716 -0.5422  0.0352  0.1300
  417TIP3    H1 1184   7.679   5.836   6.748 -1.3631  0.4411 -1.6665
  417TIP3    H2 1185   7.643   5.689   6.747 -0.6442  0.2410  0.3245
  418TIP3   OH2 1186   2.193   2.978   0.282  0.7938 -0.6362  0.1325
  418TIP3    H1 1187   2.272   2.954   0.235  1.0852  0.5954 -0.0426
  418TIP3    H2 1188   2.144   2.897   0.292  1.1529 -1.0572 -1.5227
  419TIP3   OH2 1189   6.957   0.118   0.654  0.0525 -0.4958 -0.6016
  419TIP3    H1 1190   6.946   0.026   0.680  1.0678 -0.3702  0.2984
  419TIP3    H2 1191   6.878   0.161   0.688 -1.3528 -1.3553 -2.6707
  420TIP3   OH2 1192   6.369   3.441   2.045  0.6817 -0.1722  0.0972
  420TIP3    H1 1193   6.351   3.528   2.082 -2.3374 -0.4751 -0.5983
  420TIP3    H2 1194   6.423   3.459   1.967  1.2478  0.9629  0.7423
  421TIP3   OH2 1195   8.479   8.030   1.054 -0.2184 -0.1159 -0.6275
  421TIP3    H1 1196   8.419   8.062   1.120  1.5216  1.0353  0.4376
  421TIP3    H2 1197   8.496   7.939   1.078 -0.0628  0.1227  0.1628
  422TIP3   OH2 1198   0.225   5.793   6.019  0.2025 -0.2861  0.4745
  422TIP3    H1 1199   0.310   5.838   6.012  0.4508 -0.8412 -0.0570
  422TIP3    H2 1200   0.220   5.738   5.941 -0.7719 -0.0530  0.3751
  423TIP3   OH2 1201   3.846   1.954   0.617 -0.3937 -0.4674  0.0497
  423TIP3    H1 1202   3.782   2.024   0.617  0.0253 -0.0834  0.4469
  423TIP3    H2 1203   3.795   1.874   0.601 -1.1392 -0.3243  1.5896
  424TIP3   OH2 1204   2.655   0.608   3.467  0.8822  0.2845  0.1827
  424TIP3    H1 1205   2.730   0.596   3.408  1.2633  3.4553 -0.0377
  424TIP3    H2 1206   2.580   0.579   3.416  1.6725 -0.7402 -0.4256
  425TIP3   OH2 1207   3.488   1.102   2.021 -0.0744  0.2371  0.1378
  425TIP3    H1 1208   3.485   1.008   2.001 -1.6195  0.1407  0.7161
  425TIP3    H2 1209   3.502   1.105   2.116 -0.6333  0.5785  0.2089
  426TIP3   OH2 1210   4.961   1.543   1.695 -0.3328  0.3833  0.0855
  426TIP3    H1 1211   4.883   1.560   1.748 -0.2526  0.4988  0.1663
  426TIP3    H2 1212   4.959   1.611   1.628 -1.7526 -1.1851 -1.5360
  427TIP3   OH2 1213   2.521   0.355   2.885  0.4357 -0.1876  0.2174
  427TIP3    H1 1214   2.432   0.319   2.891  0.6262 -0.5194  1.1542
  427TIP3    H2 1215   2.560   0.309   2.811  0.8544 -2.3418  1.7240
  428TIP3   OH2 1216   1.812   1.683   2.045  0.3432 -0.6198  0.1633
  428TIP3    H1 1217   1.793   1.660   1.954 -1.8114  0.0650  0.4119
  428TIP3    H2 1218   1.857   1.767   2.039 -0.5283 -0.1783 -0.2229
  429TIP3   OH2 1219   1.479   1.545   1.793 -0.6486 -0.4490  0.1391
  429TIP3    H1 1220   1.461   1.524   1.884 -1.5829 -0.6937 -0.0944
  429TIP3    H2 1221   1.398   1.585   1.761 -1.0634 -2.2828 -1.1559
  430TIP3   OH2 1222   4.484   0.419   2.625  0.2299  0.3871 -0.3734
  430TIP3    H1 1223   4.574   0.451   2.618  0.1102  1.2359  1.6030
  430TIP3    H2 1224   4.483   0.370   2.707 -1.2127  0.7438 -0.1692
  431TIP3   OH2 1225   3.826   1.781   3.885 -0.4355  0.4815  0.0546
  431TIP3    H1 1226   3.922   1.782   3.889 -0.3236 -1.4024 -1.2078
  431TIP3    H2 1227   3.806   1.720   3.814 -2.5972 -0.0244  1.0493
  432TIP3   OH2 1228   6.280   1.090   1.214  0.2515  0.0257  0.1223
  432TIP3    H1 1229   6.224   1.059   1.286  0.9664 -2.2235 -0.2440
  432TIP3    H2 1230   6.219   1.126   1.150 -1.2474 -5.3155 -1.7310
  433TIP3   OH2 1231   4.890   5.067   6.379  0.4199 -0.0178 -0.1897
  433TIP3    H1 1232   4.976   5.102   6.357  1.1769 -0.5510  1.7757
  433TIP3    H2 1233   4.885   5.073   6.475 -0.9455 -1.7367 -0.1121
  434TIP3   OH2 1234   4.043   3.468   1.893  0.0752  0.1895  0.1365
  434TIP3    H1 1235   4.100   3.447   1.819  0.3612  1.8051 -0.1170
  434TIP3    H2 1236   4.103   3.477   1.968 -0.2137 -1.4603  0.6000
  435TIP3   OH2 1237   4.806   3.903   1.266 -0.2428  0.6888  0.0559
  435TIP3    H1 1238   4.734   3.959   1.295 -0.3152  2.0179 -2.5897
  435TIP3    H2 1239   4.885   3.948   1.297 -0.3860  1.1914 -0.3114
  436TIP3   OH2 1240   3.136   0.176   1.430  0.1402 -0.4950 -0.3927
  436TIP3    H1 1241   3.185   0.119   1.489 -0.4229  0.5793  1.1417
  436TIP3    H2 1242   3.054   0.129   1.414  0.5184 -1.0384 -0.7780
  437TIP3   OH2 1243   6.806   2.978   0.266 -0.5566  0.9885 -0.7506
  437TIP3    H1 1244   6.739   2.974   0.335 -2.4393 -0.3690 -2.5733
  437TIP3    H2 1245   6.889   2.971   0.313 -1.8115 -0.6630  1.3379
  438TIP3   OH2 1246   3.244   1.031   2.345  0.0623 -0.2480  0.8923
  438TIP3    H1 1247   3.197   1.022   2.263  1.1559  0.0017  0.2271
  438TIP3    H2 1248   3.298   1.109   2.334  1.0210 -0.8175  1.4411
  439TIP3   OH2 1249   3.727   1.818   0.862  0.0086 -0.0177  0.7301
  439TIP3    H1 1250   3.730   1.887   0.795 -1.7686 -2.4447 -1.9769
  439TIP3    H2 1251   3.818   1.788   0.869  0.2702  0.4661 -0.4216
  440TIP3   OH2 1252   7.013   6.312   5.983 -0.0543  0.4510 -1.0627
  440TIP3    H1 1253   7.109   6.313   5.988 -0.1043 -0.2524  0.3746
  440TIP3    H2 1254   6.985   6.283   6.070 -1.5616 -0.0492 -1.7040
  441TIP3   OH2 1255   2.938   1.505   2.244  0.0645  0.1833  0.0995
  441TIP3    H1 1256   2.876   1.536   2.310  1.2934  0.3103  1.2220
  441TIP3    H2 1257   3.024   1.530   2.278  0.7844 -0.5888 -1.1004
  442TIP3   OH2 1258   3.172   7.694   1.441 -0.4106 -0.7828 -0.0527
  442TIP3    H1 1259   3.206   7.762   1.499 -1.5085  1.2928 -1.7703
  442TIP3    H2 1260   3.220   7.705   1.360 -3.4602  0.7211 -1.7533
  443TIP3   OH2 1261   4.254   1.065   1.181 -0.4159  0.3319 -0.3318
  443TIP3    H1 1262   4.348   1.068   1.199 -0.5655  0.7228  0.4083
  443TIP3    H2 1263   4.246   1.013   1.101  0.2843 -1.3154  0.6453
  444TIP3   OH2 1264   3.848   2.118   3.127 -0.0534  0.1259  0.1929
  444TIP3    H1 1265   3.896   2.124   3.045  0.9428  1.1156  0.8253
  444TIP3    H2 1266   3.871   2.032   3.162  0.8807  0.4020  0.2604
  445TIP3   OH2 1267   3.739   2.651   0.744  0.5219  0.6966 -0.2189
  445TIP3    H1 1268   3.756   2.605   0.662 -2.2588  0.3541 -0.6295
  445TIP3    H2 1269   3.781   2.597   0.811 -0.5672 -1.1241 -0.9767
  446TIP3   OH2 1270   2.938   1.688   0.052 -0.5364 -0.2246  0.2679
  446TIP3    H1 1271   2.853   1.648   0.067  0.4737 -2.9346 -0.7885
  446TIP3    H2 1272   2.953   1.678  -0.042  2.0441 -2.2676  0.8107
  447TIP3   OH2 1273   6.988   5.402   6.128  0.1949  0.0362  0.0131
  447TIP3    H1 1274   6.970   5.488   6.092  2.7850  1.3839  1.8129
  447TIP3    H2 1275   6.941   5.341   6.071 -0.4144  2.5130 -2.1728
  448TIP3   OH2 1276   3.505   3.029   1.202  0.5147 -0.0979  0.2761
  448TIP3    H1 1277   3.522   3.117   1.166  2.0294 -0.0631  1.0421
  448TIP3    H2 1278   3.560   2.971   1.149 -1.6985 -0.8380 -1.3094
  449TIP3   OH2 1279   3.486   0.227   2.726  0.2212 -0.6873  0.4122
  449TIP3    H1 1280   3.578   0.241   2.751  0.8218  0.3032 -2.1336
  449TIP3    H2 1281   3.447   0.314   2.732 -0.1196 -0.8040 -0.1142
  450TIP3   OH2 1282   2.829   0.500   4.295  0.1135  0.2884  0.3168
  450TIP3    H1 1283   2.840   0.592   4.270 -0.3418  0.1481 -0.4286
  450TIP3    H2 1284   2.793   0.458   4.217 -0.6456 -0.3201  0.9890
  451TIP3   OH2 1285   0.422   7.369   1.669 -0.3194 -0.0382 -0.1607
  451TIP3    H1 1286   0.486   7.317   1.620  2.1988  1.9175  0.8930
  451TIP3    H2 1287   0.342   7.364   1.616  2.1713  1.7366 -4.4344
  452TIP3   OH2 1288   6.897   2.556   0.367  0.2717 -0.2318 -0.3935
  452TIP3    H1 1289   6.817   2.593   0.330  0.6557 -1.1756 -2.2012
  452TIP3    H2 1290   6.967   2.590   0.313  1.1606  0.8412  1.3797
  453TIP3   OH2 1291   0.759   5.837   6.519 -0.0885  0.0467 -0.5102
  453TIP3    H1 1292   0.699   5.899   6.479  0.8615  0.5613 -1.1777
  453TIP3    H2 1293   0.718   5.812   6.601 -2.0520 -0.9727 -1.7708
  454TIP3   OH2 1294   2.888   8.001   0.245 -0.9172  0.5715 -0.2452
  454TIP3    H1 1295   2.861   8.004   0.337  0.4035  1.5926  0.1294
  454TIP3    H2 1296   2.809   7.976   0.197 -1.9087  1.1865  1.0410
  455TIP3   OH2 1297   4.982   2.105   1.086  0.0805  0.4493  0.4374
  455TIP3    H1 1298   4.995   2.104   0.992 -0.7603 -2.6349  0.2998
  455TIP3    H2 1299   4.901   2.153   1.099 -1.4535 -1.7361 -0.7084
  456TIP3   OH2 1300   5.676   7.418   0.763 -0.3384 -0.7467 -0.1337
  456TIP3    H1 1301   5.753   7.397   0.711 -0.7189 -0.5455 -0.7773
  456TIP3    H2 1302   5.682   7.360   0.840  1.4775  0.6254  0.7963
  457TIP3   OH2 1303   0.569   6.024   5.696 -0.0045 -0.4127 -0.3928
  457TIP3    H1 1304   0.657   6.007   5.661  0.2210 -1.0654  0.4427
  457TIP3    H2 1305   0.544   6.108   5.659  0.0295 -1.2811 -2.4594
  458TIP3   OH2 1306   3.518   2.768   0.613  0.2774  0.0472  0.1282
  458TIP3    H1 1307   3.572   2.711   0.668  1.5651 -1.3644 -2.5235
  458TIP3    H2 1308   3.429   2.754   0.645  0.7716 -2.2083  0.6239
  459TIP3   OH2 1309   4.643   1.734   1.497 -0.2553 -0.5226  0.4444
  459TIP3    H1 1310   4.629   1.812   1.551 -1.1036 -1.8667  2.1707
  459TIP3    H2 1311   4.657   1.663   1.559  0.9763 -1.7004 -1.1193
  460TIP3   OH2 1312   6.460   2.009   2.002 -0.2682  0.3799  0.2905
  460TIP3    H1 1313   6.472   1.937   2.064 -0.3875  0.3006  0.2192
  460TIP3    H2 1314   6.549   2.039   1.984 -0.2419  0.5255  0.6479
  461TIP3   OH2 1315   5.732   2.667   0.144  0.1103  0.0754 -0.4086
  461TIP3    H1 1316   5.705   2.756   0.121  1.0532  0.4913  0.0575
  461TIP3    H2 1317   5.816   2.678   0.189  0.0145 -1.0101  0.0653
  462TIP3   OH2 1318   2.941   6.884   1.641  0.1230 -0.4021  0.3058
  462TIP3    H1 1319   2.884   6.892   1.717 -2.2099  0.2936 -1.4499
  462TIP3    H2 1320   3.016   6.941   1.660 -1.9980  2.3769  0.7324
  463TIP3   OH2 1321   4.896   3.692   0.610 -0.0715  0.1041 -0.1944
  463TIP3    H1 1322   4.888   3.600   0.587 -1.3610  0.3053 -0.6145
  463TIP3    H2 1323   4.990   3.706   0.623 -0.0450 -1.6571  1.5870
  464TIP3   OH2 1324   0.869   5.455   5.997 -0.0606  0.4870 -0.3979
  464TIP3    H1 1325   0.777   5.459   5.970 -0.0881 -0.0246 -0.3846
  464TIP3    H2 1326   0.869   5.490   6.086 -0.1232  1.2139 -0.6762
  465TIP3   OH2 1327   7.817   2.951   1.607 -0.1770  0.4794 -0.0891
  465TIP3    H1 1328   7.722   2.941   1.608 -0.0807 -0.6907 -1.0810
  465TIP3    H2 1329   7.832   3.045   1.617 -1.3866  0.4994  1.6574
  466TIP3   OH2 1330   6.051   1.985   2.478 -0.0874  0.3590 -0.2779
  466TIP3    H1 1331   6.081   2.059   2.530 -0.8830 -0.2550  1.0783
  466TIP3    H2 1332   6.028   2.024   2.393 -0.2486  1.6298  0.3292
  467TIP3   OH2 1333   5.521   4.410   6.830  0.2164  0.3072  0.2072
  467TIP3    H1 1334   5.481   4.496   6.844  1.2327  0.9230 -0.6236
  467TIP3    H2 1335   5.552   4.384   6.917 -3.3165 -0.8714  1.1764
  468TIP3   OH2 1336   5.739   2.958   0.265  0.0323  0.4444 -0.0018
  468TIP3    H1 1337   5.759   3.046   0.232  2.2711  0.0058  0.1083
  468TIP3    H2 1338   5.791   2.951   0.346  0.0100 -1.0288 -0.1151
  469TIP3   OH2 1339   6.747   2.007   1.630  0.4199  0.2620  0.0276
  469TIP3    H1 1340   6.808   2.057   1.684  0.4275  0.3683 -0.0798
  469TIP3    H2 1341   6.664   2.011   1.678  1.0089 -1.6847  1.2634
  470TIP3   OH2 1342   6.532   3.583   3.561  0.2428 -0.0550 -0.2221
  470TIP3    H1 1343   6.514   3.519   3.493  0.4028  0.0725 -0.3866
  470TIP3    H2 1344   6.466   3.567   3.629  0.7504 -0.8807  0.0747
  471TIP3   OH2 1345   4.145   2.242   1.228 -0.5942  0.3660  0.5841
  471TIP3    H1 1346   4.218   2.182   1.241 -1.3927 -1.0556 -1.1715
  471TIP3    H2 1347   4.071   2.198   1.270 -1.0927  0.2735 -0.3643
  472TIP3   OH2 1348   1.611   5.718   5.557  0.5160  0.1746 -0.2070
  472TIP3    H1 1349   1.585   5.646   5.614  0.3544 -0.5518 -1.1930
  472TIP3    H2 1350   1.691   5.753   5.597  1.4062 -1.4778 -0.5105
  473TIP3   OH2 1351   6.179   3.077   1.159  0.2646 -0.0304  0.1195
  473TIP3    H1 1352   6.231   3.037   1.089  0.2758  0.3900 -0.1190
  473TIP3    H2 1353   6.129   3.146   1.115  0.2080  0.1830  0.5110
  474TIP3   OH2 1354   1.681   7.515   6.237  0.6436 -0.3963 -0.0565
  474TIP3    H1 1355   1.644   7.537   6.152 -1.3680 -3.5130 -0.0520
  474TIP3    H2 1356   1.721   7.428   6.224  0.7015 -0.7121  2.0423
  475TIP3   OH2 1357   5.960   2.028   0.610  0.0596 -0.4872  0.0725
  475TIP3    H1 1358   5.928   2.070   0.690  1.5291  0.4547  0.2062
  475TIP3    H2 1359   5.918   2.076   0.539 -1.7936 -1.7866  0.2828
  476TIP3   OH2 1360   6.229   1.888   0.193 -0.2401  0.2511  0.3281
  476TIP3    H1 1361   6.193   1.958   0.139 -1.5159 -0.1971  0.5823
  476TIP3    H2 1362   6.320   1.878   0.163 -0.6314  0.6945 -1.0104
  477TIP3   OH2 1363   4.570   2.006   2.620 -0.4679 -0.2079 -0.1614
  477TIP3    H1 1364   4.541   1.918   2.643 -1.0171  0.0296  0.0439
  477TIP3    H2 1365   4.494   2.047   2.578  0.0082 -0.0745 -0.9137
  478TIP3   OH2 1366   5.103   0.857   0.940  0.2401  0.5293 -0.1212
  478TIP3    H1 1367   5.093   0.952   0.929  0.5447  0.4224 -1.5306
  478TIP3    H2 1368   5.125   0.845   1.032 -0.5611  1.7623  0.2408
  479TIP3   OH2 1369   6.178   1.651   0.042  0.3623 -0.0878 -0.0509
  479TIP3    H1 1370   6.198   1.677  -0.048  1.0835  0.5178  0.2816
  479TIP3    H2 1371   6.165   1.733   0.089 -1.6702 -0.4173  0.0511
  480TIP3   OH2 1372   6.974   1.878   0.166  0.4251 -0.0276  0.6206
  480TIP3    H1 1373   6.940   1.809   0.108  1.2003 -0.3073  0.4902
  480TIP3    H2 1374   7.032   1.929   0.110  0.0901  0.5526  0.8003
  481TIP3   OH2 1375   7.584   1.368   1.623  0.0802  0.6523  0.1536
  481TIP3    H1 1376   7.491   1.343   1.628  0.6089 -1.3873  0.0873
  481TIP3    H2 1377   7.613   1.336   1.538  1.1738  0.0805  0.7313
  482TIP3   OH2 1378   5.486   7.677   1.086 -0.6693 -0.6430 -0.4375
  482TIP3    H1 1379   5.541   7.704   1.012 -0.1512 -2.3564 -0.7132
  482TIP3    H2 1380   5.537   7.608   1.129 -1.0013  0.2957  1.4899
  483TIP3   OH2 1381   5.102   0.496   2.101 -0.1968  0.2703  0.3429
  483TIP3    H1 1382   5.093   0.574   2.156  0.0355  0.4546  0.1226
  483TIP3    H2 1383   5.013   0.465   2.089 -0.5824  2.1219 -1.9168
  484TIP3   OH2 1384   5.250   2.817   0.771 -0.0765  1.0395  0.5302
  484TIP3    H1 1385   5.294   2.801   0.688  1.0067  0.9447  1.1195
  484TIP3    H2 1386   5.168   2.860   0.747 -0.1511  0.2546 -0.6418
  485TIP3   OH2 1387   5.686   1.330   0.154  0.2673  0.1855  0.1708
  485TIP3    H1 1388   5.629   1.406   0.139  0.6171  0.0458 -2.0431
  485TIP3    H2 1389   5.754   1.362   0.213 -1.3064  0.7344  1.7331
  486TIP3   OH2 1390   6.347   1.736   1.424 -0.4145 -0.8971  0.1527
  486TIP3    H1 1391   6.319   1.758   1.335 -1.1866  0.4244  0.6983
  486TIP3    H2 1392   6.438   1.706   1.414 -0.7544 -1.4957 -1.1678
  487TIP3   OH2 1393   4.603   3.512   2.727 -0.0152  0.6373 -0.4790
  487TIP3    H1 1394   4.538   3.448   2.698 -0.6640  1.1434 -0.1528
  487TIP3    H2 1395   4.664   3.520   2.653 -1.1169  1.2010 -1.3396
  488TIP3   OH2 1396   5.154   3.802   2.444 -0.1850 -0.2422  0.0463
  488TIP3    H1 1397   5.201   3.797   2.361  1.1908  2.2280  0.6393
  488TIP3    H2 1398   5.070   3.760   2.426  0.0648  0.2967 -2.5998
  489TIP3   OH2 1399   2.924   7.490   6.278 -0.5239  0.0926 -0.1470
  489TIP3    H1 1400   2.931   7.402   6.316  1.0742 -1.0407 -2.8921
  489TIP3    H2 1401   2.836   7.492   6.240  0.3100 -1.3056 -2.2533
  490TIP3   OH2 1402   5.784   2.011   0.312 -0.0871  0.1349  0.9482
  490TIP3    H1 1403   5.785   2.102   0.281 -3.7512 -0.0153  0.0745
  490TIP3    H2 1404   5.737   2.016   0.396 -0.4365 -0.9518  0.8212
  491TIP3   OH2 1405   1.194   5.463   6.710 -0.3429 -0.5729  0.0115
  491TIP3    H1 1406   1.261   5.429   6.651 -0.3674  0.4563 -0.6186
  491TIP3    H2 1407   1.114   5.417   6.685 -0.3153 -0.2641 -0.6405
  492TIP3   OH2 1408   6.349   3.744   1.459  0.5852 -0.0356 -0.2486
  492TIP3    H1 1409   6.336   3.768   1.367 -1.1255  1.2049  0.2918
  492TIP3    H2 1410   6.433   3.698   1.460  0.6310 -0.0547 -2.4289
  493TIP3   OH2 1411   4.975   1.596   0.660 -0.0202 -0.0614  0.2462
  493TIP3    H1 1412   4.889   1.627   0.631 -0.9190 -1.9289  0.8515
  493TIP3    H2 1413   5.012   1.553   0.583  0.5530  1.0427 -0.1178
  494TIP3   OH2 1414   0.223   3.074   1.501 -0.5213  0.2935 -0.2516
  494TIP3    H1 1415   0.182   2.990   1.519 -1.0682  0.2768 -1.4757
  494TIP3    H2 1416   0.316   3.053   1.486 -0.8466 -0.2645 -1.6280
  495TIP3   OH2 1417   6.994   0.485   1.139  0.7173  0.2527  0.0828
  495TIP3    H1 1418   6.965   0.412   1.085  0.4276 -0.0661  0.6618
  495TIP3    H2 1419   7.089   0.488   1.126  0.9318 -1.1419  1.1523
  496TIP3   OH2 1420   7.228   1.727   1.102 -0.1374 -0.3025 -0.1993
  496TIP3    H1 1421   7.281   1.653   1.132 -3.0578 -2.5596 -0.2992
  496TIP3    H2 1422   7.265   1.803   1.146  1.7782 -2.1233  1.4256
  497TIP3   OH2 1423   0.622   0.868   0.027 -0.3078  0.3684 -0.0819
  497TIP3    H1 1424   0.604   0.804  -0.042 -0.2183  0.3219 -0.0619
  497TIP3    H2 1425   0.614   0.819   0.108 -2.3167  0.8684  0.0248
  498TIP3   OH2 1426   8.334   1.799   0.628 -0.4745  0.4181 -0.5887
  498TIP3    H1 1427   8.416   1.845   0.613  0.5860 -1.1796  0.0751
  498TIP3    H2 1428   8.351   1.709   0.600 -0.7175 -0.8847  3.0678
  499TIP3   OH2 1429   7.896   4.835   6.731  0.5503 -0.1143  0.2791
  499TIP3    H1 1430   7.815   4.806   6.689  0.5698  0.5349 -0.2087
  499TIP3    H2 1431   7.939   4.753   6.758  1.0649 -0.6073 -1.9306
  500TIP3   OH2 1432   3.182   7.964   0.801 -0.0582 -0.0082 -0.0125
  500TIP3    H1 1433   3.276   7.961   0.819  0.2148  0.1280 -1.3547
  500TIP3    H2 1434   3.157   7.872   0.794  0.3501 -0.0257 -1.4494
  501TIP3   OH2 1435   6.803   1.158   1.426 -0.0645 -0.0541  0.6727
  501TIP3    H1 1436   6.879   1.100   1.434  1.7399  1.6551 -2.8103
  501TIP3    H2 1437   6.730   1.098   1.409  1.3729 -1.5091 -0.6396
  502TIP3   OH2 1438   7.156   1.670   0.842  0.1438 -0.1779 -0.0087
  502TIP3    H1 1439   7.061   1.674   0.854  0.0800 -0.9606 -0.2839
  502TIP3    H2 1440   7.191   1.689   0.929 -0.2416  1.6484 -0.2304
  503TIP3   OH2 1441   8.454   7.902   1.574  0.4108  0.2996  0.0177
  503TIP3    H1 1442   8.489   7.836   1.633  0.2983  1.9714  2.0071
  503TIP3    H2 1443   8.412   7.966   1.631 -1.2074  1.0962 -1.9830
  504TIP3   OH2 1444   3.722   1.416   1.147 -0.0188  0.2054 -0.0332
  504TIP3    H1 1445   3.797   1.473   1.131  0.8874 -0.7742  0.7158
  504TIP3    H2 1446   3.646   1.471   1.126  0.9086  1.0653 -1.1879
  505TIP3   OH2 1447   6.663   1.810   3.258  0.1684 -0.4651  0.4607
  505TIP3    H1 1448   6.634   1.869   3.188  1.3677 -1.4931 -0.9269
  505TIP3    H2 1449   6.738   1.855   3.297  0.3537 -0.5169  0.1714
  506TIP3   OH2 1450   5.943   2.261   0.434 -0.8230 -0.7050 -0.6558
  506TIP3    H1 1451   5.884   2.250   0.360 -0.8072  0.7177 -0.8803
  506TIP3    H2 1452   6.018   2.308   0.399 -0.5540 -0.5354  0.1309
  507TIP3   OH2 1453   6.869   1.492   1.451  0.2857  0.3189  0.3657
  507TIP3    H1 1454   6.874   1.583   1.420 -0.5268  0.7684  1.5455
  507TIP3    H2 1455   6.957   1.474   1.485  0.7725  0.2873 -0.8726
  508TIP3   OH2 1456   0.222   4.447   5.743  0.1677 -0.2627 -0.3622
  508TIP3    H1 1457   0.227   4.542   5.748  0.2771 -0.2640 -0.4508
  508TIP3    H2 1458   0.168   4.422   5.818  0.2195 -0.1371 -0.2816
  509TIP3   OH2 1459   6.568   3.075   1.501  0.0129 -0.3037  0.2265
  509TIP3    H1 1460   6.492   3.109   1.455  0.2795  0.7117  0.5247
  509TIP3    H2 1461   6.624   3.151   1.515  0.8224 -0.9391  0.5174
  510TIP3   OH2 1462   0.340   4.887   6.406 -0.3685  0.1747  0.6298
  510TIP3    H1 1463   0.292   4.810   6.373  0.2586  0.2322 -0.4282
  510TIP3    H2 1464   0.370   4.932   6.327  0.6545  0.6302  1.2727
  511TIP3   OH2 1465   7.895   1.457   0.125 -0.0157  0.6076  0.0196
  511TIP3    H1 1466   7.841   1.422   0.196  0.7939 -0.2402  0.2304
  511TIP3    H2 1467   7.881   1.396   0.052 -0.5638  1.2717 -0.4330
  512TIP3   OH2 1468   5.470   1.087   0.383  0.2546 -0.3060 -0.6666
  512TIP3    H1 1469   5.534   1.054   0.321 -0.0077  0.5342 -1.3948
  512TIP3    H2 1470   5.482   1.182   0.382  0.5342 -0.3194  0.8857
  513TIP3   OH2 1471   3.873   2.070   0.968 -0.0205 -0.2436 -0.3859
  513TIP3    H1 1472   3.899   2.012   0.896 -1.1113 -1.1827 -0.0359
  513TIP3    H2 1473   3.946   2.066   1.030  0.0182 -1.0687 -0.4800
  514TIP3   OH2 1474   5.198   1.136   1.202  0.2044 -0.2269 -0.0394
  514TIP3    H1 1475   5.287   1.134   1.239  0.1472 -0.3840  0.0851
  514TIP3    H2 1476   5.171   1.227   1.210  0.3466 -0.1829 -0.0577
  515TIP3   OH2 1477   6.647   4.503   0.058  0.0717  0.2006 -0.3334
  515TIP3    H1 1478   6.648   4.575  -0.005  0.0582  0.4773 -0.0159
  515TIP3    H2 1479   6.740   4.489   0.078  0.2057 -1.0582 -1.7511
  516TIP3   OH2 1480   5.652   3.204   1.598 -0.0309 -0.1890  0.2598
  516TIP3    H1 1481   5.567   3.179   1.561  0.2754 -0.9941  0.0842
  516TIP3    H2 1482   5.711   3.202   1.523  0.0855  0.6857  0.3221
  517TIP3   OH2 1483   6.064   6.627   5.877 -0.1585 -1.0266  0.2127
  517TIP3    H1 1484   6.003   6.657   5.944 -0.6787 -2.2146  0.2754
  517TIP3    H2 1485   6.114   6.557   5.920  0.6077 -0.6906 -0.1297
  518TIP3   OH2 1486   4.296   0.875   0.345 -0.6177  0.4799  0.2369
  518TIP3    H1 1487   4.309   0.906   0.434  0.1463  1.0077 -0.0545
  518TIP3    H2 1488   4.383   0.844   0.318 -1.0920 -0.7492  0.0858
  519TIP3   OH2 1489   4.164   0.990   2.148 -0.0771 -0.2162  0.5192
  519TIP3    H1 1490   4.124   1.073   2.174 -0.0935  0.1129 -0.5315
  519TIP3    H2 1491   4.146   0.983   2.055  0.4705 -1.1015  0.4733
  520TIP3   OH2 1492   7.284   5.556   6.242  0.0021  0.1013 -0.5694
  520TIP3    H1 1493   7.343   5.503   6.295 -2.2019 -1.4161  0.4890
  520TIP3    H2 1494   7.336   5.583   6.167  2.0189 -1.1539  0.3289
  521TIP3   OH2 1495   3.844   1.881   1.652 -0.0436 -0.6117  0.8221
  521TIP3    H1 1496   3.897   1.806   1.624  0.5391  0.2973 -0.6079
  521TIP3    H2 1497   3.895   1.922   1.722 -1.1562 -2.4860  2.7848
  522TIP3   OH2 1498   5.431   4.406   0.782 -0.1813  0.2073 -0.6631
  522TIP3    H1 1499   5.342   4.371   0.785 -0.1129  0.1003  0.2365
  522TIP3    H2 1500   5.487   4.329   0.773 -0.1314  0.2224 -0.4677
  523TIP3   OH2 1501   7.155   1.486   1.505  0.6639 -0.2845  0.0776
  523TIP3    H1 1502   7.120   1.462   1.591 -1.1754  0.4791 -0.4305
  523TIP3    H2 1503   7.188   1.575   1.517  0.6566 -0.2812  0.0718
  524TIP3   OH2 1504   8.347   5.330   5.996  0.1339  0.7616 -0.1291
  524TIP3    H1 1505   8.398   5.274   6.054  0.3606 -0.3189 -1.3625
  524TIP3    H2 1506   8.256   5.320   6.025  0.3137  0.6603  0.3889
  525TIP3   OH2 1507   5.689   4.305   0.803 -0.1530  0.0181 -0.2305
  525TIP3    H1 1508   5.692   4.370   0.733 -1.5725  0.7223  0.3269
  525TIP3    H2 1509   5.705   4.222   0.760  1.4386  0.7045 -1.0019
  526TIP3   OH2 1510   6.835   1.604   0.550  0.0331  0.2072 -0.4609
  526TIP3    H1 1511   6.800   1.689   0.523 -0.5810 -0.1762 -0.8817
  526TIP3    H2 1512   6.868   1.566   0.469  0.7733  0.2558 -0.1872
  527TIP3   OH2 1513   6.853   0.970   0.934  0.1270 -0.0272  0.1887
  527TIP3    H1 1514   6.929   1.016   0.972 -0.0256 -0.3759  0.9336
  527TIP3    H2 1515   6.789   1.039   0.920  0.4823  0.2292 -0.1907
  528TIP3   OH2 1516   5.771   1.845   2.780 -0.4230  0.6456 -0.0076
  528TIP3    H1 1517   5.767   1.776   2.847 -1.4013 -0.9481 -1.6353
  528TIP3    H2 1518   5.784   1.797   2.698 -0.5276  2.4678 -1.1108
  529TIP3   OH2 1519   6.076   3.531   2.755 -0.0069  0.1148 -0.2350
  529TIP3    H1 1520   6.102   3.455   2.808  2.9703  1.5557  0.4968
  529TIP3    H2 1521   6.036   3.493   2.677  0.5617 -2.1941  0.5516
  530TIP3   OH2 1522   6.283   2.882   2.907  0.4455  0.6006 -0.0790
  530TIP3    H1 1523   6.335   2.953   2.943  0.9000  0.9229 -1.3510
  530TIP3    H2 1524   6.255   2.914   2.821  0.3176 -0.5959 -0.4887
  531TIP3   OH2 1525   6.059   2.281   0.987  0.0350 -0.2692 -0.2056
  531TIP3    H1 1526   5.972   2.269   1.024  0.3155 -0.7595  0.2908
  531TIP3    H2 1527   6.085   2.370   1.014 -0.5475  0.1039 -0.8533
  532TIP3   OH2 1528   5.313   2.124   1.702 -0.4004  0.1621  0.4397
  532TIP3    H1 1529   5.322   2.029   1.715 -0.1816  0.2667  1.0758
  532TIP3    H2 1530   5.334   2.162   1.788 -0.0970  0.8071  0.0861
  533TIP3   OH2 1531   6.710   1.371   1.186 -0.8857  0.1761  0.0099
  533TIP3    H1 1532   6.698   1.280   1.158  0.1605  0.3490 -1.0496
  533TIP3    H2 1533   6.705   1.422   1.105 -2.8273  1.2084  0.7682
  534TIP3   OH2 1534   8.270   4.000   5.116  0.1897 -0.3167  0.0757
  534TIP3    H1 1535   8.338   3.996   5.049  0.2891 -1.5025  0.2397
  534TIP3    H2 1536   8.318   4.011   5.198  0.0286  2.1290 -0.1095
  535TIP3   OH2 1537   6.848   7.081   6.890 -0.3505  0.2912  0.7176
  535TIP3    H1 1538   6.918   7.145   6.902 -0.8337  1.1141 -0.7774
  535TIP3    H2 1539   6.774   7.132   6.856 -1.0436 -0.8972  0.4131
  536TIP3   OH2 1540   6.302   1.810   1.146 -0.2495 -0.5610 -0.0218
  536TIP3    H1 1541   6.290   1.745   1.076 -2.6812  0.1167 -0.2705
  536TIP3    H2 1542   6.373   1.866   1.114 -0.3986 -1.0949 -1.3339
  537TIP3   OH2 1543   4.108   5.637   0.461  0.2247  0.1916  0.2409
  537TIP3    H1 1544   4.163   5.686   0.523  0.1513  1.6380 -0.8456
  537TIP3    H2 1545   4.163   5.626   0.384 -0.0945 -0.6406  0.1236
  538TIP3   OH2 1546   5.511   3.089   1.028 -0.4371 -0.3304 -0.3855
  538TIP3    H1 1547   5.581   3.027   1.010 -0.3827 -0.1940 -0.6400
  538TIP3    H2 1548   5.556   3.172   1.043 -0.3935 -0.6744  1.5021
  539TIP3   OH2 1549   5.915   1.905   1.859  0.1617 -0.3823  0.0348
  539TIP3    H1 1550   5.903   1.854   1.939  0.3283  0.2650  0.4691
  539TIP3    H2 1551   5.838   1.962   1.854  1.6055  1.7503  1.3398
  540TIP3   OH2 1552   7.265   5.103   4.609 -0.6329  0.0983 -0.0099
  540TIP3    H1 1553   7.305   5.187   4.630  2.0968 -1.6024  1.9091
  540TIP3    H2 1554   7.192   5.095   4.670  1.0741 -0.2987  2.0525
  541TIP3   OH2 1555   5.680   3.654   2.286 -0.2000 -0.3074 -0.5058
  541TIP3    H1 1556   5.693   3.586   2.352  1.1180  0.3075 -0.1046
  541TIP3    H2 1557   5.639   3.609   2.213 -0.0067 -1.3850  0.0402
  542TIP3   OH2 1558   8.259   4.056   6.549 -0.0375 -0.1199  0.3388
  542TIP3    H1 1559   8.204   3.978   6.555  1.4167 -1.0918  1.7127
  542TIP3    H2 1560   8.326   4.033   6.485  2.7434 -1.5780  3.6377
  543TIP3   OH2 1561   5.555   1.443   0.899 -0.0591 -0.2412  0.1939
  543TIP3    H1 1562   5.537   1.349   0.897  3.4825 -0.9860  0.0840
  543TIP3    H2 1563   5.598   1.462   0.816 -1.1194  1.5900  0.0291
  544TIP3   OH2 1564   6.084   3.089   1.957  0.3854 -0.3681 -0.3812
  544TIP3    H1 1565   5.995   3.093   1.991  0.3616 -1.6907 -0.2751
  544TIP3    H2 1566   6.133   3.039   2.022  0.7386 -1.3837 -1.4140
  545TIP3   OH2 1567   4.925   2.409   1.783 -0.4696  0.5646 -0.2288
  545TIP3    H1 1568   4.845   2.450   1.816  0.5105  2.0337  0.3836
  545TIP3    H2 1569   4.921   2.423   1.688 -2.6092 -2.4466 -0.6849
  546TIP3   OH2 1570   6.349   0.423   0.818 -0.1664 -0.0116  0.1507
  546TIP3    H1 1571   6.433   0.468   0.826  0.5910 -0.9465 -1.8669
  546TIP3    H2 1572   6.352   0.353   0.883  0.0926  0.7529  0.9502
  547TIP3   OH2 1573   4.710   0.941   2.038  0.3222  0.5916  0.5266
  547TIP3    H1 1574   4.708   1.001   1.964  1.0681  1.1818  0.9762
  547TIP3    H2 1575   4.619   0.933   2.065 -0.0980 -0.5005 -1.1423
  548TIP3   OH2 1576   5.411   0.610   0.642  0.7821 -0.6907 -0.4057
  548TIP3    H1 1577   5.502   0.632   0.620 -0.2959  3.1164 -1.4704
  548TIP3    H2 1578   5.366   0.606   0.557 -0.3158 -1.1853  0.1899
  549TIP3   OH2 1579   7.422   1.222   3.414  0.5029  0.7222 -0.0622
  549TIP3    H1 1580   7.498   1.205   3.468 -0.1748 -1.2463  0.3162
  549TIP3    H2 1581   7.446   1.299   3.362  1.9691  1.3284  1.4654
  550TIP3   OH2 1582   6.623   2.458   0.679 -0.0587 -0.4103 -0.1241
  550TIP3    H1 1583   6.613   2.385   0.740  0.4994 -0.9269 -0.6259
  550TIP3    H2 1584   6.547   2.451   0.621 -1.8714  1.5144  1.9272
  551TIP3   OH2 1585   4.459   1.740   1.251  0.1531 -0.0496  0.4768
  551TIP3    H1 1586   4.406   1.777   1.180  2.1621  0.2073 -0.9369
  551TIP3    H2 1587   4.422   1.653   1.266 -0.3358 -0.0873 -0.8654
  552TIP3   OH2 1588   7.360   0.971   1.793  0.6079  0.0369 -0.2437
  552TIP3    H1 1589   7.302   0.925   1.733  0.5320  0.6798 -0.6712
  552TIP3    H2 1590   7.355   0.922   1.875 -1.5264  0.8227  0.1103
  553TIP3   OH2 1591   6.688   2.497   2.584 -0.3495  0.7165  0.6437
  553TIP3    H1 1592   6.782   2.496   2.570 -0.1693 -2.0261  1.6451
  553TIP3    H2 1593   6.653   2.549   2.512  1.7634  0.1410 -0.8463
  554TIP3   OH2 1594   8.052   2.718   0.703  0.9132  0.1970  0.0716
  554TIP3    H1 1595   8.084   2.805   0.683 -1.0379  0.8269 -0.4602
  554TIP3    H2 1596   8.031   2.720   0.796 -2.7097  1.5496 -0.6902
  555TIP3   OH2 1597   7.240   2.173   1.504  0.1312  0.8303  0.1071
  555TIP3    H1 1598   7.242   2.231   1.579  1.3100  1.9608 -0.7629
  555TIP3    H2 1599   7.331   2.145   1.493  0.2605  1.8710 -1.7770
  556TIP3   OH2 1600   5.762   1.717   2.492  0.2202  0.1079  0.2976
  556TIP3    H1 1601   5.761   1.695   2.399 -0.3789 -4.8759  1.3373
  556TIP3    H2 1602   5.678   1.761   2.507  0.1736  0.6475 -1.4474
  557TIP3   OH2 1603   6.096   0.700   1.765 -0.3127  0.9533  0.2622
  557TIP3    H1 1604   6.001   0.687   1.762  0.0104 -1.5286 -0.3524
  557TIP3    H2 1605   6.133   0.615   1.740  2.0795  1.9451  0.2628
  558TIP3   OH2 1606   0.045   1.380   0.451  0.1153 -0.3828  0.0285
  558TIP3    H1 1607   0.129   1.405   0.411 -0.9658 -0.4948 -2.3547
  558TIP3    H2 1608  -0.016   1.448   0.424 -0.6931 -0.5434  1.3952
  559TIP3   OH2 1609   6.116   1.974   1.258 -0.6147 -0.2778 -0.5288
  559TIP3    H1 1610   6.190   1.949   1.201 -0.8303  0.4759 -1.1349
  559TIP3    H2 1611   6.104   1.897   1.315  0.4719 -0.5123 -0.5913
  560TIP3   OH2 1612   3.797   2.261   0.649 -0.8605  0.1752  0.2207
  560TIP3    H1 1613   3.813   2.303   0.733 -0.3604 -0.7237  0.5790
  560TIP3    H2 1614   3.725   2.199   0.667 -1.0203  0.2662 -0.1049
  561TIP3   OH2 1615   3.997   3.188   2.890  0.2366 -0.3096 -0.0505
  561TIP3    H1 1616   4.043   3.159   2.811  1.6073 -0.1310  0.6657
  561TIP3    H2 1617   3.953   3.109   2.922  0.4564 -0.6057 -0.4707
  562TIP3   OH2 1618   0.210   6.157   6.354 -0.1233 -0.3040 -0.7729
  562TIP3    H1 1619   0.162   6.153   6.271  0.0270  1.1661 -0.9284
  562TIP3    H2 1620   0.294   6.195   6.331  0.4378 -1.1566 -0.1654
  563TIP3   OH2 1621   6.519   3.293   0.115  0.0819  0.1384 -0.1607
  563TIP3    H1 1622   6.524   3.272   0.208 -1.0011  1.0983  0.1279
  563TIP3    H2 1623   6.574   3.228   0.072 -0.4825 -1.1350  1.0277
  564TIP3   OH2 1624   1.020   6.859   6.876 -0.2478  0.3256 -0.2595
  564TIP3    H1 1625   1.115   6.848   6.883 -0.3899  0.2575  1.7392
  564TIP3    H2 1626   0.984   6.774   6.903 -0.8682 -0.1107 -2.3234
  565TIP3   OH2 1627   4.707   3.361   1.172  0.2593 -0.0025 -0.5281
  565TIP3    H1 1628   4.754   3.353   1.256  1.0599  1.1971 -0.8458
  565TIP3    H2 1629   4.756   3.305   1.112 -0.6890 -1.3690 -0.0556
  566TIP3   OH2 1630   7.097   2.150   0.527 -0.5612  0.5874  0.4371
  566TIP3    H1 1631   7.035   2.214   0.492 -1.5371 -0.9591 -0.7480
  566TIP3    H2 1632   7.044   2.071   0.542  0.1630  0.6683  3.9051
  567TIP3   OH2 1633   7.228   3.407   0.651 -0.0810  0.0727  0.5294
  567TIP3    H1 1634   7.146   3.448   0.624  0.8599  1.4797 -0.2470
  567TIP3    H2 1635   7.241   3.336   0.587 -1.1675 -0.7766  1.2337
  568TIP3   OH2 1636   0.788   6.394   6.085  0.2377 -0.2001 -0.1703
  568TIP3    H1 1637   0.796   6.464   6.150 -0.9885 -0.6729  0.5060
  568TIP3    H2 1638   0.852   6.329   6.112  0.3212 -0.0152  0.0835
  569TIP3   OH2 1639   0.170   5.008   5.920 -0.3161 -0.2208 -0.0689
  569TIP3    H1 1640   0.195   5.101   5.921  1.6266 -0.7275  0.3646
  569TIP3    H2 1641   0.253   4.961   5.926 -0.7493 -2.1007 -6.0074
  570TIP3   OH2 1642   0.724   5.929   6.158 -0.8350  0.0934  0.3041
  570TIP3    H1 1643   0.710   5.974   6.241 -0.7620 -0.2164  0.4873
  570TIP3    H2 1644   0.819   5.935   6.144 -0.9145  0.5976 -0.0159
  571TIP3   OH2 1645   7.774   1.628   1.567 -0.0142  0.0065 -0.0913
  571TIP3    H1 1646   7.812   1.686   1.634  2.3569 -1.9032  0.2896
  571TIP3    H2 1647   7.711   1.575   1.615  0.9516 -0.6704  0.4447
  572TIP3   OH2 1648   7.917   2.084   1.296 -0.2382 -0.2828 -0.1673
  572TIP3    H1 1649   7.931   1.990   1.294  0.0965 -0.2435  0.3556
  572TIP3    H2 1650   7.908   2.106   1.389 -0.4721  0.1745 -0.2951
  573TIP3   OH2 1651   0.183   4.463   6.581 -0.2156 -0.7091 -0.5383
  573TIP3    H1 1652   0.240   4.509   6.519 -0.7709  0.6606 -0.0682
  573TIP3    H2 1653   0.114   4.527   6.601  1.3131 -0.1554  3.4168
  574TIP3   OH2 1654   7.399   0.934   0.425 -0.4315  0.4206 -0.2511
  574TIP3    H1 1655   7.426   0.903   0.338 -0.7381 -0.3200 -0.0866
  574TIP3    H2 1656   7.359   0.858   0.466 -0.0200  0.6868  0.6584
  575TIP3   OH2 1657   5.793   2.276   0.217 -0.6350 -0.0269  0.0728
  575TIP3    H1 1658   5.876   2.310   0.183 -0.3169  0.0706  0.9305
  575TIP3    H2 1659   5.738   2.265   0.139 -0.6956  2.3383 -0.2610
  576TIP3   OH2 1660   0.481   7.500   1.035 -0.2530  0.3051  0.1787
  576TIP3    H1 1661   0.478   7.445   0.957  0.6296 -1.5173  1.3894
  576TIP3    H2 1662   0.574   7.516   1.050 -0.4714  1.6419  0.1943
  577TIP3   OH2 1663   6.061   0.096   0.331  0.1959  0.3960 -0.0684
  577TIP3    H1 1664   6.098   0.083   0.419  0.7401 -1.1954 -0.5046
  577TIP3    H2 1665   6.134   0.128   0.279 -0.5558  3.0225  0.4389
  578TIP3   OH2 1666   5.220   1.463   0.234 -0.4749  0.5021  0.0562
  578TIP3    H1 1667   5.127   1.465   0.254 -0.6621 -2.1822 -0.3604
  578TIP3    H2 1668   5.232   1.383   0.183  2.1331  0.5567  0.5199
  579TIP3   OH2 1669   7.516   1.880   0.773 -0.2030  0.3681 -0.3694
  579TIP3    H1 1670   7.514   1.817   0.845  1.8514 -0.2283 -0.8117
  579TIP3    H2 1671   7.483   1.961   0.811 -0.1306 -0.2287  0.9733
  580TIP3   OH2 1672   6.011   3.509   6.743 -0.3196  0.8189  0.0246
  580TIP3    H1 1673   6.004   3.494   6.837 -1.2573  0.3832 -0.1099
  580TIP3    H2 1674   6.008   3.604   6.733 -0.3031  0.8625  0.4288
  581TIP3   OH2 1675   4.028   1.842   0.849  0.0299 -0.4003  0.1378
  581TIP3    H1 1676   4.097   1.831   0.914 -1.4627  0.8571  2.0332
  581TIP3    H2 1677   4.004   1.753   0.823  0.9237 -0.9104  1.0348
  582TIP3   OH2 1678   6.208   2.007   1.902  0.5594  0.1049  0.1053
  582TIP3    H1 1679   6.180   2.083   1.952  0.6322 -1.3377  2.3654
  582TIP3    H2 1680   6.301   1.996   1.924  0.7074 -0.3129 -0.6757
  583TIP3   OH2 1681   6.574   2.200   1.225  0.4131 -0.3871 -0.5902
  583TIP3    H1 1682   6.654   2.243   1.197  0.0157 -0.8266 -2.4808
  583TIP3    H2 1683   6.603   2.121   1.271  1.0741 -0.4878 -1.1696
  584TIP3   OH2 1684   7.079   1.376   1.237 -0.3870  0.2615 -0.2646
  584TIP3    H1 1685   7.120   1.403   1.319  1.0086 -2.1163 -0.1283
  584TIP3    H2 1686   7.041   1.457   1.201  2.0488  2.0075  0.9600
  585TIP3   OH2 1687   6.768   6.704   6.825 -0.4848 -0.3406  0.3236
  585TIP3    H1 1688   6.747   6.719   6.733 -1.5253 -0.9123  0.4714
  585TIP3    H2 1689   6.858   6.673   6.824  0.0525  1.1629 -0.3778
  586TIP3   OH2 1690   4.675   1.772   3.696  0.7134  0.1474  0.1476
  586TIP3    H1 1691   4.770   1.783   3.704  0.7907 -1.0560  1.0073
  586TIP3    H2 1692   4.645   1.763   3.787  0.1719 -2.6179 -0.2774
  587TIP3   OH2 1693   7.737   4.125   6.835  0.5460 -0.2780  0.1937
  587TIP3    H1 1694   7.713   4.180   6.761 -1.1793 -1.1542  0.0722
  587TIP3    H2 1695   7.785   4.052   6.796  0.2291 -0.3865  0.0021
  588TIP3   OH2 1696   5.847   3.199   1.385 -0.2436 -0.2599  0.7455
  588TIP3    H1 1697   5.811   3.150   1.311 -1.5640  0.1042  1.1481
  588TIP3    H2 1698   5.843   3.291   1.359  0.9233 -0.2451  0.5689
  589TIP3   OH2 1699   6.760   2.280   0.124  0.0140 -0.0375 -0.3393
  589TIP3    H1 1700   6.708   2.308   0.200 -0.1629 -0.0112 -0.4709
  589TIP3    H2 1701   6.804   2.200   0.154 -0.9547 -0.6757 -0.5876
  590TIP3   OH2 1702   7.532   1.752   1.205 -0.0827  0.3572  0.6416
  590TIP3    H1 1703   7.456   1.807   1.187 -0.3005  0.1384  0.8902
  590TIP3    H2 1704   7.497   1.678   1.255 -0.0286 -0.7305 -0.8989
  591TIP3   OH2 1705   2.433   3.616   0.484 -0.0580  0.1797  0.2376
  591TIP3    H1 1706   2.348   3.609   0.528 -0.0557  0.0476  0.2203
  591TIP3    H2 1707   2.486   3.670   0.543 -1.1374  2.8995 -1.2145
  592TIP3   OH2 1708   3.296   3.598   1.662 -0.0253 -0.0911  0.3228
  592TIP3    H1 1709   3.339   3.639   1.738 -0.4663  0.2145  0.4109
  592TIP3    H2 1710   3.248   3.669   1.621  1.0973 -0.0110 -0.8955
  593TIP3   OH2 1711   4.649   1.595   2.791  0.8485 -0.2664  0.5906
  593TIP3    H1 1712   4.582   1.656   2.759  0.2300 -0.0656  2.2572
  593TIP3    H2 1713   4.731   1.644   2.784  0.6554 -0.0410 -0.1940
  594TIP3   OH2 1714   3.051   1.962   0.724 -0.2902  0.0500  0.5729
  594TIP3    H1 1715   3.087   1.878   0.754  1.7070  0.6318 -0.0804
  594TIP3    H2 1716   3.028   2.008   0.804 -0.1575 -0.6130  0.9970
  595TIP3   OH2 1717   1.103   6.375   6.786  0.2290 -0.0741  0.0150
  595TIP3    H1 1718   1.135   6.301   6.734 -1.0194 -0.0868 -0.7498
  595TIP3    H2 1719   1.066   6.336   6.865  0.6240 -0.1773  0.1492
  596TIP3   OH2 1720   5.528   0.525   1.017  0.9217  0.3779  0.1861
  596TIP3    H1 1721   5.464   0.575   0.966  0.9362 -0.5062 -0.7263
  596TIP3    H2 1722   5.612   0.567   1.000  1.1124 -0.6396 -1.5134
  597TIP3   OH2 1723   5.183   2.289   1.156  0.0245  0.1838  0.7963
  597TIP3    H1 1724   5.233   2.283   1.237  1.4662 -1.5502 -0.2000
  597TIP3    H2 1725   5.118   2.219   1.162  0.2258 -0.0380  0.3800
  598TIP3   OH2 1726   2.755   2.479   0.719 -0.5449 -0.1764  0.5842
  598TIP3    H1 1727   2.745   2.511   0.809  1.7280  3.2576 -0.2537
  598TIP3    H2 1728   2.718   2.549   0.665 -0.4337 -1.4688 -1.1933
  599TIP3   OH2 1729   8.452   1.480   0.159  0.7649  0.1625  0.0250
  599TIP3    H1 1730   8.422   1.543   0.093 -0.4200  2.4425  2.6671
  599TIP3    H2 1731   8.389   1.408   0.154  0.2906  0.6338 -0.8243
  600TIP3   OH2 1732   6.864   2.622   0.670 -0.1248  0.2143  0.1268
  600TIP3    H1 1733   6.779   2.578   0.665  1.8062 -3.8346  0.2844
  600TIP3    H2 1734   6.899   2.615   0.581  1.2686 -0.8961  0.7472
  601TIP3   OH2 1735   5.558   4.638   1.221  0.0603 -0.0570  0.2060
  601TIP3    H1 1736   5.588   4.552   1.193 -1.1145 -0.0230 -1.2116
  601TIP3    H2 1737   5.465   4.626   1.241  0.7910 -0.0270  3.9233
  602TIP3   OH2 1738   8.135   0.721   1.443 -0.3996  0.2044  0.0798
  602TIP3    H1 1739   8.073   0.662   1.400 -1.3745  0.3355  1.2869
  602TIP3    H2 1740   8.190   0.663   1.497 -1.4268  0.3818  1.3510
  603TIP3   OH2 1741   2.933   7.038   6.950  0.1602  0.0488  0.4610
  603TIP3    H1 1742   3.028   7.031   6.935 -0.0132 -0.5425 -0.4205
  603TIP3    H2 1743   2.912   7.129   6.929  0.3959 -0.0369 -0.1507
  604TIP3   OH2 1744   7.930   1.928   0.093 -0.2106  0.3235 -0.5477
  604TIP3    H1 1745   7.950   1.856   0.033  1.7299 -0.8955  1.4662
  604TIP3    H2 1746   7.877   1.888   0.161 -2.4757  1.7174 -1.4345
  605TIP3   OH2 1747   8.054   0.911   1.642  0.5207 -0.2228  0.2239
  605TIP3    H1 1748   7.964   0.893   1.670  0.5494  0.6243  0.8538
  605TIP3    H2 1749   8.065   0.856   1.564 -1.1457  1.0165 -0.9387
  606TIP3   OH2 1750   6.984   2.911  -0.005 -0.1028  0.1212  0.3422
  606TIP3    H1 1751   7.018   2.969   0.063  0.0894 -0.7373  0.9798
  606TIP3    H2 1752   6.963   2.830   0.040  1.3587 -0.9536 -0.8625
  607TIP3   OH2 1753   0.750   3.047   2.117  0.0800 -0.3412 -0.1373
  607TIP3    H1 1754   0.711   3.094   2.191 -0.0191  1.0719 -1.0626
  607TIP3    H2 1755   0.818   2.993   2.156 -0.4435 -0.1441  1.0723
  608TIP3   OH2 1756   6.098   2.227   1.368 -0.0870 -0.1556  0.2705
  608TIP3    H1 1757   6.011   2.257   1.341 -0.5148 -1.0781  0.6298
  608TIP3    H2 1758   6.111   2.146   1.319  0.7144  0.1470 -0.0280
  609TIP3   OH2 1759   8.083   1.402   2.502  0.1441 -0.3359 -0.8407
  609TIP3    H1 1760   7.991   1.428   2.501 -0.3690 -1.8833  1.5870
  609TIP3    H2 1761   8.081   1.306   2.503  1.8219 -0.4062 -1.6921
  610TIP3   OH2 1762   6.637   2.992   2.365 -0.2192  0.2233 -0.0866
  610TIP3    H1 1763   6.581   3.053   2.317 -1.3648 -1.1031 -0.4677
  610TIP3    H2 1764   6.693   3.048   2.419 -0.8542  1.6216 -0.8575
  611TIP3   OH2 1765   3.791   6.711   4.182 -0.5020 -0.0067  0.1262
  611TIP3    H1 1766   3.884   6.693   4.175 -0.4031  0.8620 -0.9297
  611TIP3    H2 1767   3.762   6.724   4.091 -2.1762 -2.8289  0.1671
  612TIP3   OH2 1768   7.768   0.681   1.327 -0.6763  0.5074  0.0225
  612TIP3    H1 1769   7.837   0.621   1.357 -2.1213 -0.7360  0.8880
  612TIP3    H2 1770   7.761   0.663   1.233 -1.8399 -1.4638  0.4657
  613TIP3   OH2 1771   6.269   1.228   1.618  0.0267  0.2801 -0.2914
  613TIP3    H1 1772   6.314   1.143   1.613  0.5211  0.5343 -0.1808
  613TIP3    H2 1773   6.337   1.292   1.600  0.6621  0.9225  3.7720
  614TIP3   OH2 1774   6.490   2.962   0.486 -0.1845 -0.1439  0.1109
  614TIP3    H1 1775   6.531   3.030   0.433 -1.2757  0.9569  0.6341
  614TIP3    H2 1776   6.443   3.011   0.554 -0.4558 -1.4545  0.8818
  615TIP3   OH2 1777   5.685   3.075   1.824 -0.5681 -0.2103 -0.1088
  615TIP3    H1 1778   5.699   3.121   1.742 -0.7204  1.6712  0.8993
  615TIP3    H2 1779   5.599   3.036   1.816 -1.8295  2.4034  0.2563
  616TIP3   OH2 1780   7.283   1.257   0.938 -0.1673 -0.1833  0.3962
  616TIP3    H1 1781   7.344   1.321   0.975  0.8381 -0.4017 -0.8396
  616TIP3    H2 1782   7.217   1.310   0.893 -0.4020  0.0299  0.9838
  617TIP3   OH2 1783   3.214   4.669   6.460  0.2655 -0.3372  0.2912
  617TIP3    H1 1784   3.186   4.592   6.510 -0.4499  0.9786  1.9601
  617TIP3    H2 1785   3.169   4.743   6.502  2.5226  1.2509  0.0142
  618TIP3   OH2 1786   0.201   1.318   3.501  0.1470 -0.2126  0.2276
  618TIP3    H1 1787   0.275   1.369   3.469 -0.4886 -0.6414 -2.0661
  618TIP3    H2 1788   0.172   1.364   3.580  0.0276  2.5823 -1.3880
  619TIP3   OH2 1789   3.484   7.078   5.500  0.3685 -0.7605  0.3626
  619TIP3    H1 1790   3.578   7.071   5.518  0.8209  0.9646 -1.2114
  619TIP3    H2 1791   3.464   7.002   5.446  0.6867 -1.5358  1.3114
  620TIP3   OH2 1792   7.074   3.712   1.415  0.1884 -0.6177 -0.2908
  620TIP3    H1 1793   7.162   3.729   1.380 -0.2760 -0.7886 -1.5691
  620TIP3    H2 1794   7.052   3.790   1.465  1.3661 -0.8773  0.6623
  621TIP3   OH2 1795   6.908   7.821   0.793 -0.3879 -0.5148 -0.7617
  621TIP3    H1 1796   6.901   7.732   0.828 -0.4105 -0.4108 -0.4994
  621TIP3    H2 1797   6.962   7.811   0.714  1.1148 -0.5135  0.2368
  622TIP3   OH2 1798   0.440   2.029   1.208  0.2925  0.1801 -0.3569
  622TIP3    H1 1799   0.434   2.122   1.186  1.5188  0.4719  0.4567
  622TIP3    H2 1800   0.374   2.015   1.275 -0.0661  0.4150 -0.6637
  623TIP3   OH2 1801   0.665   1.989   0.693 -0.2945  0.5270  0.2182
  623TIP3    H1 1802   0.750   1.969   0.652 -0.5076 -1.4134  0.6996
  623TIP3    H2 1803   0.677   1.966   0.785 -1.2741  0.4906  0.3342
  624TIP3   OH2 1804   0.064   6.164   5.897  0.6107  0.4279  0.7823
  624TIP3    H1 1805   0.120   6.168   5.975  0.0704  1.9366  1.1056
  624TIP3    H2 1806  -0.018   6.128   5.929  1.0790 -0.9452  0.4808
  625TIP3   OH2 1807   1.968   4.709   6.008  0.3198  0.2652  0.0632
  625TIP3    H1 1808   1.930   4.762   6.078  0.2928  1.2034 -0.6415
  625TIP3    H2 1809   2.058   4.741   6.002  1.0162 -1.3968  1.1970
  626TIP3   OH2 1810   8.019   0.255   0.237 -0.1046  0.5712  0.5158
  626TIP3    H1 1811   8.074   0.190   0.192 -1.4386  0.0707 -0.4091
  626TIP3    H2 1812   7.953   0.203   0.282  0.3789  1.1556  1.9258
  627TIP3   OH2 1813   7.524   2.145   2.795 -0.1839  0.1504 -0.1739
  627TIP3    H1 1814   7.497   2.061   2.833 -1.7708  0.7387  0.0404
  627TIP3    H2 1815   7.496   2.210   2.859  3.7843  0.6905  1.1279
  628TIP3   OH2 1816   2.613   4.446   5.506  0.5430 -0.4333 -0.6352
  628TIP3    H1 1817   2.566   4.512   5.557  1.9461  1.6415 -1.9772
  628TIP3    H2 1818   2.590   4.363   5.549 -1.3176  0.8762  1.0278
  629TIP3   OH2 1819   0.654   6.788   6.687  0.1699  0.3063  0.1881
  629TIP3    H1 1820   0.650   6.804   6.781 -0.5118 -1.2454  0.4400
  629TIP3    H2 1821   0.701   6.864   6.652  1.0261  0.5697  1.8523
  630TIP3   OH2 1822   3.178   6.431   4.896 -0.2301 -0.3152 -0.6593
  630TIP3    H1 1823   3.141   6.502   4.948  0.4704 -0.4393  0.0094
  630TIP3    H2 1824   3.259   6.466   4.860 -1.3376  0.2025 -2.7320
  631TIP3   OH2 1825   0.358   1.382   0.004 -0.2546 -0.1639 -0.5380
  631TIP3    H1 1826   0.454   1.386   0.008 -0.2852  1.0294 -0.8116
  631TIP3    H2 1827   0.330   1.474   0.011 -1.2789 -0.2602 -3.0640
  632TIP3   OH2 1828   4.391   1.731   0.553  0.3689  0.2594  0.2960
  632TIP3    H1 1829   4.429   1.815   0.579 -1.2598  1.4966 -1.2444
  632TIP3    H2 1830   4.380   1.738   0.459 -2.1243 -0.6935  0.4760
  633TIP3   OH2 1831   1.409   6.018   3.822  0.5696  0.1562 -0.1079
  633TIP3    H1 1832   1.494   6.061   3.817  0.0664  1.0200 -1.7830
  633TIP3    H2 1833   1.400   5.993   3.914  2.1923  0.9374  0.2860
  634TIP3   OH2 1834   0.776   6.361   6.603 -0.1393  0.1746  0.5441
  634TIP3    H1 1835   0.813   6.445   6.575 -0.6398  0.1612 -0.1911
  634TIP3    H2 1836   0.832   6.295   6.562 -1.3858  0.1501 -1.1997
  635TIP3   OH2 1837   6.767   2.509   1.913 -0.5670  0.5919  0.1911
  635TIP3    H1 1838   6.725   2.467   1.988  1.0884  1.7030  1.7762
  635TIP3    H2 1839   6.728   2.597   1.910  0.2793  0.9846  0.5422
  636TIP3   OH2 1840   0.385   5.602   1.167  0.3869  0.3516 -0.2439
  636TIP3    H1 1841   0.458   5.543   1.184  0.5716  0.2739 -1.2755
  636TIP3    H2 1842   0.317   5.575   1.229  1.3381  0.6345  0.9277
  637TIP3   OH2 1843   4.289   0.896   6.099  0.1274  0.2669 -0.4064
  637TIP3    H1 1844   4.381   0.899   6.126  0.7571  0.2789 -2.4858
  637TIP3    H2 1845   4.257   0.811   6.130  0.2372  1.1056  2.1248
  638TIP3   OH2 1846   8.249   2.851   1.016 -0.0057 -0.0846  0.7980
  638TIP3    H1 1847   8.167   2.853   1.066 -1.5413 -1.7429 -1.5824
  638TIP3    H2 1848   8.233   2.909   0.942 -0.0092 -2.4313 -1.0906
  639TIP3   OH2 1849   8.220   2.715   2.396  0.2861 -0.5350  0.2492
  639TIP3    H1 1850   8.141   2.757   2.363  0.5821 -0.3222 -0.1921
  639TIP3    H2 1851   8.199   2.622   2.399  0.1732 -0.5291 -0.3032
  640TIP3   OH2 1852   8.352   1.652   1.152  0.6503  0.3834  0.1633
  640TIP3    H1 1853   8.415   1.598   1.105 -1.6710 -1.3510 -1.0755
  640TIP3    H2 1854   8.291   1.589   1.191 -0.7893  2.0330  0.6440
  641TIP3   OH2 1855   3.623   0.902   3.515  0.6451 -0.1094 -0.0630
  641TIP3    H1 1856   3.588   0.891   3.603  0.3243  0.2642 -0.1425
  641TIP3    H2 1857   3.613   0.816   3.474  0.7062 -0.2570  0.2336
  642TIP3   OH2 1858   3.517   2.616   3.491  0.5386  0.0075 -0.3882
  642TIP3    H1 1859   3.516   2.559   3.568 -0.0945  0.2043 -0.2558
  642TIP3    H2 1860   3.454   2.685   3.511  0.0353 -0.1971 -1.2813
  643TIP3   OH2 1861   0.579   1.590   1.822  0.5412  0.0580  0.3658
  643TIP3    H1 1862   0.606   1.611   1.732  1.8372  1.1663  0.9831
  643TIP3    H2 1863   0.539   1.671   1.854  2.6609  0.6333  1.7095
  644TIP3   OH2 1864   7.792   4.539   1.094  0.2560  0.4383 -0.5344
  644TIP3    H1 1865   7.815   4.489   1.172  0.6106  1.1144 -0.2042
  644TIP3    H2 1866   7.780   4.473   1.026  0.0904 -0.1440  0.0542
  645TIP3   OH2 1867   0.741   5.710   1.170 -0.6416  0.3424 -0.0441
  645TIP3    H1 1868   0.712   5.629   1.213  1.8781 -0.5333  0.1030
  645TIP3    H2 1869   0.686   5.717   1.092 -2.1783 -0.4763  0.9320
  646TIP3   OH2 1870   0.047   3.249   0.562 -0.1274 -0.0145 -0.0410
  646TIP3    H1 1871   0.044   3.341   0.587  0.4029  0.4459 -1.5709
  646TIP3    H2 1872  -0.044   3.228   0.538 -0.3511 -0.0454  0.8275
  647TIP3   OH2 1873   0.244   4.034   1.240  0.5644 -0.1428  0.3833
  647TIP3    H1 1874   0.199   3.971   1.184  0.2134  0.0582  0.4326
  647TIP3    H2 1875   0.179   4.057   1.307  1.4334 -1.4431  1.7013
  648TIP3   OH2 1876   7.162   2.628   2.814  0.2671 -0.1834  0.4205
  648TIP3    H1 1877   7.216   2.655   2.888 -0.0640  1.9234 -0.0684
  648TIP3    H2 1878   7.141   2.537   2.832 -0.0292  0.3494  3.0794
  649TIP3   OH2 1879   7.758   3.760   3.323  0.1280 -0.0891  0.3296
  649TIP3    H1 1880   7.689   3.694   3.332  0.5596 -0.6381 -0.3356
  649TIP3    H2 1881   7.715   3.834   3.281 -0.6969  0.6052  2.3175
  650TIP3   OH2 1882   1.393   1.745   2.633  0.0326 -0.2438 -0.3770
  650TIP3    H1 1883   1.485   1.725   2.651  0.1880  0.8036  0.0899
  650TIP3    H2 1884   1.397   1.819   2.571 -0.4922 -0.2022 -0.3626
  651TIP3   OH2 1885   0.792   2.225   0.943 -0.3062 -0.2700 -0.3175
  651TIP3    H1 1886   0.855   2.260   1.006  0.0833  0.4861 -1.1295
  651TIP3    H2 1887   0.843   2.168   0.886 -0.1423  1.2401 -1.6861
  652TIP3   OH2 1888   7.567   2.420   1.718 -0.1660 -0.3209 -0.1995
  652TIP3    H1 1889   7.524   2.501   1.744  1.6118  0.2957  0.8760
  652TIP3    H2 1890   7.644   2.448   1.669  1.4714 -1.2805  1.7432
  653TIP3   OH2 1891   7.499   3.395   1.409  0.1487 -0.0586 -0.2322
  653TIP3    H1 1892   7.475   3.355   1.325  1.8465  1.2188 -1.3737
  653TIP3    H2 1893   7.419   3.441   1.437 -0.3416 -0.2507 -1.2836
  654TIP3   OH2 1894   0.026   2.176   0.718  0.0741 -0.2644 -0.4466
  654TIP3    H1 1895  -0.023   2.258   0.719 -0.9570 -0.8798 -0.0727
  654TIP3    H2 1896   0.095   2.188   0.783  0.4507  0.6043 -0.9829
  655TIP3   OH2 1897   8.323   3.251   0.846 -0.0135  0.5940  0.2162
  655TIP3    H1 1898   8.276   3.228   0.926 -1.0891 -1.3159 -0.9269
  655TIP3    H2 1899   8.255   3.260   0.780  1.0112  0.4474 -0.8712
  656TIP3   OH2 1900   7.666   4.424   3.598  0.0874 -0.0164 -0.2998
  656TIP3    H1 1901   7.714   4.408   3.517 -0.4590 -0.7378 -0.4869
  656TIP3    H2 1902   7.725   4.393   3.667 -0.1389 -1.0124 -0.5358
  657TIP3   OH2 1903   1.949   3.900   1.307  0.4495  0.2082 -0.2219
  657TIP3    H1 1904   1.968   3.987   1.270 -2.7076  2.3366  2.8599
  657TIP3    H2 1905   1.877   3.867   1.255  1.8637 -0.7548 -1.6031
  658TIP3   OH2 1906   1.637   3.151   3.102  0.0765 -0.6275 -0.2677
  658TIP3    H1 1907   1.597   3.211   3.038 -0.4973  0.6214  1.2410
  658TIP3    H2 1908   1.570   3.084   3.117  0.1515 -0.8387 -0.8506
  659TIP3   OH2 1909   2.318   0.116   1.235 -0.0687  0.1559  0.5023
  659TIP3    H1 1910   2.224   0.100   1.227 -0.4587  2.0243  1.0522
  659TIP3    H2 1911   2.350   0.119   1.145 -0.3896 -1.2421  0.3337
  660TIP3   OH2 1912   0.839   5.446   4.906 -1.0601  0.3616  0.1232
  660TIP3    H1 1913   0.806   5.531   4.876 -1.0392  0.6260  0.8371
  660TIP3    H2 1914   0.932   5.462   4.922 -1.2529  0.4541  1.1658
  661TIP3   OH2 1915   2.058   3.594   2.370  0.0395  0.2011 -0.1282
  661TIP3    H1 1916   2.120   3.624   2.437  1.2828  0.1335 -1.2313
  661TIP3    H2 1917   1.978   3.644   2.387 -0.1930 -0.9475  2.3794
  662TIP3   OH2 1918   0.275   3.898   3.233  0.3947 -0.4265 -0.1555
  662TIP3    H1 1919   0.273   3.985   3.275 -0.4030 -0.2627 -0.5210
  662TIP3    H2 1920   0.209   3.904   3.164  0.2788 -1.3553 -0.1280
  663TIP3   OH2 1921   7.362   2.020   0.385  0.2976 -0.0349  0.0272
  663TIP3    H1 1922   7.294   2.070   0.432  0.6939  0.5525 -0.0120
  663TIP3    H2 1923   7.444   2.058   0.415  0.5376  1.1271 -1.9579
  664TIP3   OH2 1924   0.145   1.694   1.601 -0.0173  0.2858 -0.1338
  664TIP3    H1 1925   0.064   1.736   1.572 -0.4935 -1.1338 -0.9471
  664TIP3    H2 1926   0.209   1.715   1.533  0.0664  0.7053  0.0768
  665TIP3   OH2 1927   1.189   4.667   1.681 -0.2465  0.3038  0.0016
  665TIP3    H1 1928   1.103   4.708   1.676 -1.2885 -1.4725  2.1606
  665TIP3    H2 1929   1.184   4.592   1.622 -0.5217 -0.3156  0.7922
  666TIP3   OH2 1930   2.301   2.593   2.650 -0.3860 -0.0055 -0.8191
  666TIP3    H1 1931   2.284   2.600   2.744 -0.8886  0.5833 -0.9563
  666TIP3    H2 1932   2.227   2.543   2.615  0.1000 -0.7520 -0.8174
  667TIP3   OH2 1933   0.659   3.297   2.524  0.4074 -0.2766 -0.2115
  667TIP3    H1 1934   0.619   3.231   2.468 -1.5675 -0.2968  1.1770
  667TIP3    H2 1935   0.608   3.376   2.510  0.6073  0.0284  0.6910
  668TIP3   OH2 1936   2.011   1.954   3.308 -0.5563  0.0038 -0.0910
  668TIP3    H1 1937   2.009   2.020   3.239  1.1113 -0.9908 -1.1533
  668TIP3    H2 1938   2.050   1.998   3.383 -0.9604  0.6721 -0.2736
  669TIP3   OH2 1939   2.195   3.376   2.426  0.3678 -0.4755  0.3497
  669TIP3    H1 1940   2.138   3.450   2.449  0.5204  0.4627 -2.1076
  669TIP3    H2 1941   2.276   3.393   2.473 -0.4166 -0.3213  1.6494
  670TIP3   OH2 1942   0.661   2.176   3.157 -0.3918 -0.2287  0.6618
  670TIP3    H1 1943   0.600   2.136   3.220 -0.5029  0.9127  1.2886
  670TIP3    H2 1944   0.748   2.155   3.192 -0.4029 -1.6404 -0.0976
  671TIP3   OH2 1945   0.931   5.692   4.706  0.1403 -0.7747 -0.3312
  671TIP3    H1 1946   0.934   5.608   4.660 -1.3102 -2.3127  2.2482
  671TIP3    H2 1947   1.008   5.690   4.763 -0.0335 -0.4419 -0.0867
  672TIP3   OH2 1948   0.221   3.108   0.791  0.1281  0.1838 -0.1906
  672TIP3    H1 1949   0.185   3.170   0.728 -1.6022 -0.8657 -0.2490
  672TIP3    H2 1950   0.195   3.142   0.876 -0.2844 -0.1371 -0.1910
  673TIP3   OH2 1951   7.502   2.799   1.880  0.1210  0.5120  0.0015
  673TIP3    H1 1952   7.559   2.827   1.952  2.4680 -1.4364 -1.0171
  673TIP3    H2 1953   7.531   2.851   1.805 -1.1060  1.2225 -0.0091
  674TIP3   OH2 1954   8.081   1.722   2.630  0.4504 -0.7040 -0.0635
  674TIP3    H1 1955   8.031   1.707   2.711 -1.2817 -1.0822 -1.1704
  674TIP3    H2 1956   8.058   1.811   2.604 -0.9409 -1.4411 -1.4332
  675TIP3   OH2 1957   0.888   4.231   1.619 -0.0935 -0.4829  0.6533
  675TIP3    H1 1958   0.834   4.216   1.541  1.0731  0.2358 -0.3106
  675TIP3    H2 1959   0.825   4.248   1.689 -1.1804 -1.9480  0.0548
  676TIP3   OH2 1960   2.940   3.077   3.769  0.0732 -0.1634 -0.2282
  676TIP3    H1 1961   2.994   3.108   3.696 -1.6926  1.4404 -0.9172
  676TIP3    H2 1962   2.851   3.073   3.732 -0.9489  1.2557  1.9876
  677TIP3   OH2 1963   0.337   5.714   3.092 -0.0882 -0.3723 -0.1391
  677TIP3    H1 1964   0.315   5.726   3.000  0.1445 -0.3474 -0.1895
  677TIP3    H2 1965   0.410   5.774   3.108 -0.3500 -0.1220  0.1464
  678TIP3   OH2 1966   0.553   3.329   2.136 -0.4678 -0.0254  0.3751
  678TIP3    H1 1967   0.551   3.379   2.218  2.2790 -0.9979  1.0911
  678TIP3    H2 1968   0.535   3.239   2.163  1.2823 -0.4850  0.0555
  679TIP3   OH2 1969   1.564   4.365   2.615  0.3237  0.1323 -0.0717
  679TIP3    H1 1970   1.616   4.284   2.615 -0.6531 -0.5050 -0.2048
  679TIP3    H2 1971   1.478   4.338   2.581 -0.4792  0.9127  1.3050
  680TIP3   OH2 1972   1.447   4.960   1.655 -0.0508  0.7370  0.0356
  680TIP3    H1 1973   1.364   5.000   1.680  0.3202  1.3004  0.3702
  680TIP3    H2 1974   1.460   4.891   1.721 -1.4356 -0.9900 -1.4112
  681TIP3   OH2 1975   1.807   5.613   0.646 -0.2319  0.1847 -0.1780
  681TIP3    H1 1976   1.766   5.678   0.703 -1.7914 -1.2192  0.3559
  681TIP3    H2 1977   1.754   5.615   0.566 -0.4158 -0.5587 -0.0794
  682TIP3   OH2 1978   1.744   3.065   0.252 -0.3011 -0.5827  0.3171
  682TIP3    H1 1979   1.725   3.138   0.193  0.5436 -0.6947 -0.1058
  682TIP3    H2 1980   1.761   2.991   0.194  1.4382 -0.4778  0.6450
  683TIP3   OH2 1981   3.619   2.148   3.405 -0.3902 -0.2859  0.3837
  683TIP3    H1 1982   3.664   2.126   3.323  0.0681  0.0990  0.5299
  683TIP3    H2 1983   3.659   2.089   3.469 -1.4023 -1.2366  0.1524
  684TIP3   OH2 1984   3.682   7.414   6.774  0.3915 -0.2734 -0.1002
  684TIP3    H1 1985   3.741   7.382   6.842 -0.3280 -0.4424  0.4569
  684TIP3    H2 1986   3.688   7.349   6.704 -0.6331 -1.3423  0.7881
  685TIP3   OH2 1987   0.421   2.763   2.004  0.5118 -0.3287  0.7162
  685TIP3    H1 1988   0.494   2.732   2.057  0.8089  2.2845  1.9389
  685TIP3    H2 1989   0.348   2.771   2.065 -0.4475 -1.7103 -0.2357
  686TIP3   OH2 1990   2.120   3.818   2.720 -0.2601  0.3334 -0.1391
  686TIP3    H1 1991   2.215   3.808   2.716 -0.1397  1.1318  0.6901
  686TIP3    H2 1992   2.088   3.729   2.736  0.2020 -0.2952 -2.5489
  687TIP3   OH2 1993   4.074   6.603   6.599 -0.1494  0.1935  0.2534
  687TIP3    H1 1994   4.094   6.613   6.692  0.3275 -0.7787  0.2644
  687TIP3    H2 1995   4.129   6.667   6.555  0.9121 -0.5363  0.5097
  688TIP3   OH2 1996   0.140   2.010   4.995  0.1480 -0.3850 -0.1941
  688TIP3    H1 1997   0.111   1.937   4.939  1.6572 -1.1405 -0.0136
  688TIP3    H2 1998   0.133   1.976   5.084 -0.6333  0.2383 -0.0139
  689TIP3   OH2 1999   0.564   5.393   1.256  0.2230 -0.2255  0.4233
  689TIP3    H1 2000   0.527   5.369   1.340 -1.3000 -0.0518 -0.1793
  689TIP3    H2 2001   0.565   5.311   1.206  0.3384 -0.1665  0.3283
  690TIP3   OH2 2002   5.414   7.596   6.165  0.1783  0.0639 -0.2545
  690TIP3    H1 2003   5.357   7.672   6.180  0.5049  0.0896  0.9930
  690TIP3    H2 2004   5.356   7.520   6.172  0.0641  0.1476 -0.2960
  691TIP3   OH2 2005   0.167   1.983   1.301  0.2144 -0.2333  0.2585
  691TIP3    H1 2006   0.195   1.894   1.280  0.3171 -0.0256 -0.5361
  691TIP3    H2 2007   0.079   1.989   1.262  1.1035  0.7222 -1.6611
  692TIP3   OH2 2008   7.766   0.239   6.629  0.0722 -0.0905  0.2838
  692TIP3    H1 2009   7.714   0.299   6.575  0.0518 -0.3324  0.0308
  692TIP3    H2 2010   7.702   0.176   6.662  0.0315  0.2560  0.8667
  693TIP3   OH2 2011   0.322   3.881   0.603 -0.0740 -0.7795 -0.1729
  693TIP3    H1 2012   0.416   3.872   0.620  0.3866 -1.0413 -2.6109
  693TIP3    H2 2013   0.294   3.793   0.580 -0.9948 -0.7648  0.9047
  694TIP3   OH2 2014   1.112   3.362   1.562 -0.6673  0.3185  0.2635
  694TIP3    H1 2015   1.038   3.423   1.563 -0.6350  0.3952 -1.1743
  694TIP3    H2 2016   1.143   3.363   1.472  0.2588 -0.7324  0.5561
  695TIP3   OH2 2017   1.262   1.741   0.976 -0.0473  0.4837 -0.0451
  695TIP3    H1 2018   1.256   1.646   0.979  1.0404  0.4034 -0.5071
  695TIP3    H2 2019   1.303   1.766   1.059  1.4048  0.4165 -0.7391
  696TIP3   OH2 2020   3.059   3.442   2.818  0.5379  0.0815  0.8552
  696TIP3    H1 2021   3.142   3.463   2.774  0.1772 -1.0185 -0.3918
  696TIP3    H2 2022   2.995   3.500   2.779  0.4603 -0.0096  0.8467
  697TIP3   OH2 2023   6.537   0.476   5.993  0.3060  0.1730  0.0408
  697TIP3    H1 2024   6.518   0.503   6.083 -0.7801  0.2655 -0.2098
  697TIP3    H2 2025   6.543   0.380   5.998  0.9462  0.2240  0.3345
  698TIP3   OH2 2026   4.109   3.153   1.477  0.3336  1.1081  0.5079
  698TIP3    H1 2027   4.170   3.124   1.408  1.0795  4.4105 -0.3000
  698TIP3    H2 2028   4.062   3.226   1.438 -1.1736  1.3065  2.6294
  699TIP3   OH2 2029   2.307   2.849   2.519 -0.0467  0.2263 -0.0932
  699TIP3    H1 2030   2.298   2.772   2.575 -0.2602  0.5768  0.3571
  699TIP3    H2 2031   2.219   2.864   2.484 -0.4525  1.4550  1.4018
  700TIP3   OH2 2032   6.007   6.580   6.325 -0.3889 -0.7179  0.2549
  700TIP3    H1 2033   5.922   6.604   6.362 -1.3388 -2.2958 -0.8638
  700TIP3    H2 2034   6.036   6.505   6.376 -0.0804 -0.7417  0.0473
  701TIP3   OH2 2035   0.886   5.947   1.194 -0.3744 -0.0602  0.5864
  701TIP3    H1 2036   0.835   5.866   1.191  2.5633 -1.9497 -1.1086
  701TIP3    H2 2037   0.907   5.966   1.103 -1.5507  3.0501  0.8979
  702TIP3   OH2 2038   8.015   3.541   0.521 -0.1201 -0.4836 -1.2684
  702TIP3    H1 2039   8.018   3.634   0.499  1.1877 -0.5972 -1.5933
  702TIP3    H2 2040   7.932   3.510   0.484 -1.1209  0.8121 -0.1132
  703TIP3   OH2 2041   5.689   1.346   6.372  0.1994  0.0701 -0.1377
  703TIP3    H1 2042   5.783   1.335   6.386  0.6804  0.9253 -2.4708
  703TIP3    H2 2043   5.649   1.278   6.426  2.1995 -0.8777  0.2023
  704TIP3   OH2 2044   3.737   4.975   6.189  1.0733  0.2938 -0.1252
  704TIP3    H1 2045   3.815   4.980   6.245  0.7046  0.4344  0.3846
  704TIP3    H2 2046   3.668   5.017   6.241  0.8871  1.0542 -0.9767
  705TIP3   OH2 2047   1.947   3.855   3.054 -0.0177 -0.3761  0.3291
  705TIP3    H1 2048   2.011   3.917   3.090  0.0927 -0.5162  0.3757
  705TIP3    H2 2049   1.980   3.769   3.079 -0.6789 -0.4115  1.0818
  706TIP3   OH2 2050   0.877   4.820   3.400 -0.5612 -0.0610  0.1537
  706TIP3    H1 2051   0.935   4.752   3.435 -1.7940 -0.4444  1.5271
  706TIP3    H2 2052   0.893   4.896   3.456 -0.3291  0.2841 -0.3813
  707TIP3   OH2 2053   1.528   7.663   6.523  0.1072 -0.0034 -0.1659
  707TIP3    H1 2054   1.464   7.735   6.524 -0.5914 -0.6378  0.7391
  707TIP3    H2 2055   1.492   7.601   6.459  0.5295  0.2750 -0.6806
  708TIP3   OH2 2056   7.726   2.868   0.565 -0.3314 -0.3816 -0.3188
  708TIP3    H1 2057   7.807   2.824   0.538 -0.1443 -0.2596  0.0473
  708TIP3    H2 2058   7.691   2.813   0.635  0.0599  0.2195  0.3508
  709TIP3   OH2 2059   6.104   7.375   6.353  0.2157  0.1148 -0.0886
  709TIP3    H1 2060   6.025   7.424   6.327 -0.9365 -1.0751  1.0913
  709TIP3    H2 2061   6.170   7.402   6.289 -0.9142  1.7548 -0.6188
  710TIP3   OH2 2062   7.887   2.271   1.060  0.0365 -0.4196 -0.4777
  710TIP3    H1 2063   7.915   2.245   0.972  0.4895 -1.2775 -0.0798
  710TIP3    H2 2064   7.908   2.196   1.116 -0.9958 -0.1895  0.2254
  711TIP3   OH2 2065   0.439   4.598   0.464  0.0949  0.2606  0.5989
  711TIP3    H1 2066   0.516   4.653   0.452  1.9350 -2.3760 -0.0907
  711TIP3    H2 2067   0.418   4.566   0.376 -0.7282 -0.4129  1.0277
  712TIP3   OH2 2068   2.292   4.153   2.708  0.7280 -0.0867 -0.4443
  712TIP3    H1 2069   2.269   4.190   2.622  0.3306  1.9841  0.5121
  712TIP3    H2 2070   2.387   4.148   2.706  0.8400  1.7133 -0.3300
  713TIP3   OH2 2071   2.097   4.664   3.058 -0.7713 -0.4837  0.5439
  713TIP3    H1 2072   2.108   4.569   3.067 -0.2140 -0.4930 -0.1956
  713TIP3    H2 2073   2.115   4.682   2.966 -1.9321  0.2109  0.4534
  714TIP3   OH2 2074   5.254   1.347   6.793 -0.1648 -0.8275  0.2600
  714TIP3    H1 2075   5.231   1.407   6.722 -2.8592  0.2505  2.0020
  714TIP3    H2 2076   5.329   1.389   6.836  0.9652 -1.0846 -1.3830
  715TIP3   OH2 2077   4.031   6.364   6.825  0.2007 -0.1164  0.1735
  715TIP3    H1 2078   4.045   6.376   6.731  1.0595  0.8114  0.4119
  715TIP3    H2 2079   3.937   6.375   6.837  0.1676  0.3641 -0.5048
  716TIP3   OH2 2080   0.558   4.615   0.948 -0.3848  0.2855 -0.0086
  716TIP3    H1 2081   0.563   4.573   0.862  1.5759 -0.9625  0.6848
  716TIP3    H2 2082   0.503   4.556   1.000 -0.4138  0.3230  0.0035
  717TIP3   OH2 2083   8.318   2.563   0.495  0.2982 -0.5014  0.8945
  717TIP3    H1 2084   8.282   2.609   0.419  0.5407 -3.1326 -0.8464
  717TIP3    H2 2085   8.389   2.620   0.525  2.8160 -1.2194 -3.2978
  718TIP3   OH2 2086   1.111   3.590   2.630  0.2640  0.8183 -0.3763
  718TIP3    H1 2087   1.197   3.549   2.636 -0.9943 -1.6457  2.4653
  718TIP3    H2 2088   1.053   3.520   2.600 -1.2004  1.6938  0.3278
  719TIP3   OH2 2089   0.100   2.317   2.019  0.0355  0.5537 -0.1920
  719TIP3    H1 2090   0.065   2.406   2.012  1.2428  0.9421 -1.6615
  719TIP3    H2 2091   0.175   2.326   2.078 -0.6138  0.2771  0.6661
  720TIP3   OH2 2092   2.055   3.827   3.569  0.1330  0.1056 -0.1873
  720TIP3    H1 2093   1.988   3.895   3.573  1.5542  1.6030 -1.2030
  720TIP3    H2 2094   2.137   3.875   3.553  1.2785 -1.7740 -0.1057
  721TIP3   OH2 2095   1.196   0.739   0.817 -0.8223  0.2632 -0.2190
  721TIP3    H1 2096   1.103   0.759   0.804 -1.0925 -1.0632 -0.3263
  721TIP3    H2 2097   1.242   0.814   0.779 -1.8488  0.9694 -0.0825
  722TIP3   OH2 2098   1.844   2.111   0.872 -0.2799 -0.3494  0.2585
  722TIP3    H1 2099   1.813   2.064   0.950  1.3352 -2.8062 -0.5188
  722TIP3    H2 2100   1.783   2.085   0.803  0.4702 -1.1309 -0.1169
  723TIP3   OH2 2101   1.160   1.943   1.729 -0.4797  0.3492 -0.0545
  723TIP3    H1 2102   1.145   1.948   1.824 -0.3384  1.3685 -0.0809
  723TIP3    H2 2103   1.100   2.007   1.692 -1.0872 -0.5957 -0.7258
  724TIP3   OH2 2104   2.419   2.692   1.263 -0.0956 -0.3095 -0.4928
  724TIP3    H1 2105   2.486   2.663   1.325 -1.0657 -0.5078  0.4773
  724TIP3    H2 2106   2.405   2.617   1.205 -0.0692 -0.5490 -0.1866
  725TIP3   OH2 2107   2.669   2.418   2.379 -0.0290  0.3261 -0.2600
  725TIP3    H1 2108   2.664   2.454   2.290  1.9855 -0.4009 -0.6942
  725TIP3    H2 2109   2.628   2.485   2.434 -3.0468 -0.0498 -1.9298
  726TIP3   OH2 2110   1.119   1.879   0.254 -0.1835 -0.0426 -0.2364
  726TIP3    H1 2111   1.181   1.885   0.181  0.0590 -0.5771 -0.0850
  726TIP3    H2 2112   1.097   1.786   0.258  0.7355 -0.2089  1.1235
  727TIP3   OH2 2113   1.682   3.936   0.085  0.2712 -1.3260 -0.4239
  727TIP3    H1 2114   1.589   3.916   0.097  0.3651 -1.1132  0.7058
  727TIP3    H2 2115   1.683   4.030   0.067  0.2820 -1.3022 -0.2956
  728TIP3   OH2 2116   0.983   4.486   0.038 -0.6856 -0.5196 -0.0224
  728TIP3    H1 2117   1.007   4.455  -0.050  0.4779 -0.5330  0.2989
  728TIP3    H2 2118   1.042   4.559   0.055  0.0566 -1.4159  1.3208
  729TIP3   OH2 2119   4.976   3.670   2.039 -0.2229 -0.5930 -0.1849
  729TIP3    H1 2120   4.900   3.626   2.075  0.1205 -1.3884 -0.4077
  729TIP3    H2 2121   5.038   3.599   2.020 -0.1329 -0.1475 -1.6886
  730TIP3   OH2 2122   2.485   4.755   3.471 -0.4924  0.8850 -0.4958
  730TIP3    H1 2123   2.399   4.775   3.510 -0.4782 -1.7197  1.0087
  730TIP3    H2 2124   2.543   4.743   3.546  0.9978  1.8055 -1.4920
  731TIP3   OH2 2125   1.176   2.595   3.124 -0.1166 -0.1777 -0.2965
  731TIP3    H1 2126   1.204   2.597   3.032 -0.0876 -1.0732 -0.3121
  731TIP3    H2 2127   1.162   2.502   3.142  0.4781 -0.0581  0.7885
  732TIP3   OH2 2128   6.747   3.433   3.642 -0.5247 -0.2307 -0.5643
  732TIP3    H1 2129   6.677   3.498   3.636  0.5136  1.0474  0.8860
  732TIP3    H2 2130   6.824   3.478   3.608 -0.2576 -1.4258 -1.5649
  733TIP3   OH2 2131   2.827   4.217   3.105 -0.0409 -0.1604  0.4716
  733TIP3    H1 2132   2.820   4.130   3.144  0.6729 -0.3996  0.0604
  733TIP3    H2 2133   2.788   4.208   3.018 -0.1807 -0.0138  0.5189
  734TIP3   OH2 2134   1.423   1.650   2.350  0.1617  0.2301  0.1009
  734TIP3    H1 2135   1.513   1.679   2.335  0.4301 -0.3679  0.5392
  734TIP3    H2 2136   1.432   1.568   2.399 -0.4645 -2.2450 -3.6648
  735TIP3   OH2 2137   1.257   5.063   2.141  0.2466  0.4283 -0.0766
  735TIP3    H1 2138   1.173   5.051   2.186  0.7973 -1.2754  0.5324
  735TIP3    H2 2139   1.254   5.153   2.109 -0.8060  1.1833  2.0354
  736TIP3   OH2 2140   0.553   1.246   3.652  0.0150 -0.1820  0.3496
  736TIP3    H1 2141   0.562   1.312   3.584 -0.4900  0.6633  1.0904
  736TIP3    H2 2142   0.491   1.284   3.715  0.1549 -1.1164  1.0754
  737TIP3   OH2 2143   1.825   2.122   2.885 -0.1605 -0.4514 -0.0786
  737TIP3    H1 2144   1.843   2.083   2.799 -2.2976  0.1049 -0.8055
  737TIP3    H2 2145   1.851   2.213   2.876 -1.8946  0.0115 -0.6914
  738TIP3   OH2 2146   2.432   2.735   2.276 -0.3020  0.1724  0.0280
  738TIP3    H1 2147   2.440   2.737   2.371 -0.2821  0.9728  0.0177
  738TIP3    H2 2148   2.367   2.803   2.257 -1.6544 -1.1994 -0.3995
  739TIP3   OH2 2149   2.328   4.078   1.420 -0.3351 -0.5678 -0.4113
  739TIP3    H1 2150   2.403   4.072   1.480  0.8880 -0.7446 -1.9417
  739TIP3    H2 2151   2.264   4.131   1.467  0.9629  0.0365  0.6957
  740TIP3   OH2 2152   3.971   3.676   3.044 -0.2849  0.1147  0.2906
  740TIP3    H1 2153   3.965   3.581   3.036  0.0259  0.0923  0.3524
  740TIP3    H2 2154   4.041   3.691   3.107  0.2475  0.4018 -0.3597
  741TIP3   OH2 2155   1.552   3.239   0.575  0.5347  0.4085 -0.1347
  741TIP3    H1 2156   1.520   3.156   0.539  0.1679  0.7777 -0.6703
  741TIP3    H2 2157   1.473   3.289   0.595  0.6752 -0.4382  2.7923
  742TIP3   OH2 2158   2.928   2.806   1.531  0.0521  0.3640 -0.1197
  742TIP3    H1 2159   2.899   2.832   1.619  1.4667  0.0710  0.4432
  742TIP3    H2 2160   2.931   2.710   1.534 -0.5584  0.3227 -0.7084
  743TIP3   OH2 2161   2.515   3.476   1.083 -0.5584  0.2023  0.3089
  743TIP3    H1 2162   2.582   3.535   1.120  1.3596 -0.2373 -2.3286
  743TIP3    H2 2163   2.542   3.389   1.111 -0.4016  0.0877 -0.1986
  744TIP3   OH2 2164   1.730   4.761   1.400  0.0883  0.1171 -0.3753
  744TIP3    H1 2165   1.660   4.724   1.455  0.3769  0.3288  0.1418
  744TIP3    H2 2166   1.782   4.813   1.461  0.7619 -0.1329 -0.7405
  745TIP3   OH2 2167   5.015   7.321   6.224 -0.1979 -0.1520  0.0620
  745TIP3    H1 2168   4.935   7.270   6.234 -1.0099  1.5683  2.7178
  745TIP3    H2 2169   4.987   7.412   6.229  1.6519  0.5140 -1.2729
  746TIP3   OH2 2170   8.163   1.964   0.771 -0.0803 -0.0422 -0.0716
  746TIP3    H1 2171   8.197   2.044   0.730 -0.5143  0.5784  0.7639
  746TIP3    H2 2172   8.221   1.895   0.740  2.0109  1.0107  1.3807
  747TIP3   OH2 2173   1.763   3.004   2.421  0.1939  0.0321  0.0516
  747TIP3    H1 2174   1.792   3.052   2.343 -0.3658 -0.9436 -0.7607
  747TIP3    H2 2175   1.699   2.941   2.388  0.6158 -0.9917  1.1661
  748TIP3   OH2 2176   4.302   7.667   5.394  0.0491 -0.1997  0.7058
  748TIP3    H1 2177   4.348   7.699   5.317  0.9235  0.9355  1.6916
  748TIP3    H2 2178   4.213   7.649   5.362  0.7538 -1.0488 -0.8609
  749TIP3   OH2 2179   5.796   0.258   3.931 -0.5744  0.1584  0.0610
  749TIP3    H1 2180   5.710   0.288   3.960 -0.5506 -2.0025  2.5361
  749TIP3    H2 2181   5.821   0.191   3.994  2.1263 -0.5759 -1.6857
  750TIP3   OH2 2182   7.531   0.695   6.148 -0.0163  0.3310  0.8856
  750TIP3    H1 2183   7.485   0.613   6.164 -0.7308 -0.0058 -2.5366
  750TIP3    H2 2184   7.604   0.672   6.090  0.1630  1.9648  0.4254
  751TIP3   OH2 2185   0.155   0.936   3.759 -0.2869 -0.7831  1.1054
  751TIP3    H1 2186   0.126   1.013   3.807 -0.0312  0.4124 -0.6201
  751TIP3    H2 2187   0.251   0.941   3.762 -0.2519  0.1964 -0.8911
  752TIP3   OH2 2188   0.793   3.758   0.163  0.1683 -0.0360  0.3964
  752TIP3    H1 2189   0.757   3.670   0.175 -2.0020  0.6623 -0.6127
  752TIP3    H2 2190   0.887   3.745   0.153 -0.0943 -2.2075  0.6125
  753TIP3   OH2 2191   0.918   5.882   1.611 -0.3256 -0.4168  0.6743
  753TIP3    H1 2192   0.948   5.901   1.700 -0.3197  0.4003  0.5070
  753TIP3    H2 2193   0.826   5.906   1.611 -0.1462  0.2901  0.2605
  754TIP3   OH2 2194   1.044   3.431   0.664 -0.5256 -0.1593  0.4050
  754TIP3    H1 2195   1.060   3.505   0.605 -1.2335 -0.0242  0.3677
  754TIP3    H2 2196   1.004   3.472   0.741 -1.4429 -0.5607  0.1532
  755TIP3   OH2 2197   4.195   7.321   6.511 -0.6615 -0.1179  0.5648
  755TIP3    H1 2198   4.111   7.290   6.544 -1.4346 -0.4857 -1.6606
  755TIP3    H2 2199   4.252   7.244   6.514 -0.6538 -0.0873  1.2431
  756TIP3   OH2 2200   8.336   1.186   6.721  0.7775  0.0531  0.6141
  756TIP3    H1 2201   8.407   1.227   6.770  0.6891 -1.3375  1.9279
  756TIP3    H2 2202   8.323   1.101   6.763  0.5786 -1.1068 -1.7394
  757TIP3   OH2 2203   2.495   4.608   1.923  0.2342 -0.0758  0.3231
  757TIP3    H1 2204   2.544   4.529   1.901  1.3954  0.9047 -0.6557
  757TIP3    H2 2205   2.407   4.576   1.942  0.8229 -1.6682  0.4862
  758TIP3   OH2 2206   2.755   1.410   3.102 -0.4887  0.0705  0.1768
  758TIP3    H1 2207   2.673   1.401   3.152 -0.6453 -0.4798 -0.1678
  758TIP3    H2 2208   2.802   1.482   3.144 -1.2808  0.5810  0.2021
  759TIP3   OH2 2209   0.992   3.091   1.726 -0.4264 -0.2248  0.4286
  759TIP3    H1 2210   0.940   3.126   1.799 -0.1748 -0.4528  0.7220
  759TIP3    H2 2211   0.980   3.154   1.655 -0.0514  0.4099  0.9231
  760TIP3   OH2 2212   3.920   7.245   6.496  0.6516 -0.0307 -0.7271
  760TIP3    H1 2213   3.871   7.316   6.453 -0.1709 -0.9490 -1.3231
  760TIP3    H2 2214   3.858   7.208   6.559  0.3831 -1.5450 -1.8589
  761TIP3   OH2 2215   1.300   3.762   1.879  0.6193 -0.0752  0.2436
  761TIP3    H1 2216   1.257   3.726   1.956 -1.6523  2.1332  0.0434
  761TIP3    H2 2217   1.251   3.841   1.858  2.9726  0.9221 -1.7669
  762TIP3   OH2 2218   1.773   2.734   1.811  0.2642 -0.3760  0.2187
  762TIP3    H1 2219   1.775   2.659   1.870 -1.6812  0.1352  1.0062
  762TIP3    H2 2220   1.698   2.717   1.753  0.3053  0.5512 -0.1198
  763TIP3   OH2 2221   3.435   7.428   3.798 -0.2703 -0.0243 -0.0956
  763TIP3    H1 2222   3.429   7.436   3.702  0.0419  0.3374 -0.0910
  763TIP3    H2 2223   3.363   7.371   3.822 -0.5812  0.1841 -0.5127
  764TIP3   OH2 2224   0.550   3.014   3.979  0.0082  0.6493  0.4078
  764TIP3    H1 2225   0.531   3.037   4.070 -1.9094  0.5157  0.0578
  764TIP3    H2 2226   0.514   3.087   3.928 -1.7374 -0.7343 -0.4066
  765TIP3   OH2 2227   2.625   2.527   3.307  0.4264  0.4224  0.9475
  765TIP3    H1 2228   2.710   2.568   3.295  0.0483  0.8644 -0.3498
  765TIP3    H2 2229   2.568   2.598   3.339  0.3294  0.3534  0.9290
  766TIP3   OH2 2230   1.651   1.919   2.280 -0.4379  0.1959 -0.7800
  766TIP3    H1 2231   1.677   1.827   2.277  0.6457  0.4294  0.8676
  766TIP3    H2 2232   1.721   1.966   2.235 -0.1116  0.3980 -0.0606
  767TIP3   OH2 2233   1.011   1.045   1.752 -0.0092 -0.2319  0.2458
  767TIP3    H1 2234   1.106   1.032   1.755 -0.2085 -1.4671  3.7115
  767TIP3    H2 2235   0.991   1.057   1.659  3.4843 -0.2773 -0.5695
  768TIP3   OH2 2236   2.700   2.087   2.236 -0.2591 -0.0586 -0.2092
  768TIP3    H1 2237   2.713   2.169   2.188  1.1616 -0.7482 -1.0234
  768TIP3    H2 2238   2.686   2.021   2.168  0.0397 -0.7436  0.3837
  769TIP3   OH2 2239   3.053   2.524   1.220  0.5048 -0.0041  0.1504
  769TIP3    H1 2240   3.076   2.599   1.276  1.4319 -0.2555  0.1149
  769TIP3    H2 2241   3.080   2.550   1.132  0.2913 -0.1466  0.0419
  770TIP3   OH2 2242   1.100   2.993   1.052  0.0781 -0.0536  0.5109
  770TIP3    H1 2243   1.054   2.975   1.134 -1.5688 -2.7403 -0.9243
  770TIP3    H2 2244   1.083   3.085   1.034 -1.3060  0.0191  2.1328
  771TIP3   OH2 2245   7.993   3.470   1.493 -0.2616  0.2207 -0.3742
  771TIP3    H1 2246   8.069   3.474   1.552 -0.4543 -0.2682 -0.0910
  771TIP3    H2 2247   8.032   3.455   1.406 -0.0142  0.3071 -0.2797
  772TIP3   OH2 2248   8.435   3.185   1.910 -0.3859 -0.5233  0.1703
  772TIP3    H1 2249   8.366   3.132   1.869  1.1278 -0.8964 -2.0295
  772TIP3    H2 2250   8.484   3.123   1.965 -0.3567 -0.8016 -0.1634
  773TIP3   OH2 2251   3.788   1.593   3.709 -0.1585 -0.3926 -0.2236
  773TIP3    H1 2252   3.695   1.602   3.687 -0.5424 -0.8947  1.0931
  773TIP3    H2 2253   3.830   1.567   3.628 -0.8064  2.0614 -1.3960
  774TIP3   OH2 2254   1.974   3.704   1.988  0.5821 -0.2679 -0.1054
  774TIP3    H1 2255   1.885   3.701   2.023 -0.0608  2.2537 -1.4120
  774TIP3    H2 2256   2.023   3.642   2.041 -1.9531 -1.6829  0.6443
  775TIP3   OH2 2257   1.178   3.665   2.941 -0.1586  0.1016  0.5821
  775TIP3    H1 2258   1.088   3.652   2.914  0.4577 -0.5513 -1.2526
  775TIP3    H2 2259   1.230   3.621   2.874  1.5789  1.7992  0.7567
  776TIP3   OH2 2260   2.638   0.964   2.083 -0.2192  0.5044 -0.1745
  776TIP3    H1 2261   2.710   0.921   2.037 -1.3678 -1.1060 -0.5289
  776TIP3    H2 2262   2.634   1.052   2.045  0.7535  0.1788 -1.0486
  777TIP3   OH2 2263   2.032   0.192   2.912 -0.0927  0.9944 -0.0194
  777TIP3    H1 2264   2.117   0.155   2.936  0.7909  1.4250 -2.2777
  777TIP3    H2 2265   1.978   0.116   2.890 -0.0829  0.7574  0.7715
  778TIP3   OH2 2266   3.769   0.183   2.708 -0.1844 -0.4105  0.3210
  778TIP3    H1 2267   3.759   0.194   2.613  1.6639 -1.5358 -0.0348
  778TIP3    H2 2268   3.834   0.113   2.717  0.2323  0.2164  2.4184
  779TIP3   OH2 2269   1.817   2.338   0.565  0.0595  0.2854  0.0485
  779TIP3    H1 2270   1.818   2.414   0.507  0.2789 -0.3050 -0.7311
  779TIP3    H2 2271   1.727   2.308   0.564  0.6481 -1.5562 -2.4325
  780TIP3   OH2 2272   2.271   1.135   2.481 -0.4129  0.2394  0.3054
  780TIP3    H1 2273   2.203   1.114   2.418 -1.4024  0.1545  1.3850
  780TIP3    H2 2274   2.301   1.223   2.456  0.5743 -0.5755 -1.4506
  781TIP3   OH2 2275   3.556   2.927   0.173 -0.5391  0.3614  0.7438
  781TIP3    H1 2276   3.590   2.980   0.246 -2.1703  0.5379  1.3983
  781TIP3    H2 2277   3.633   2.910   0.118  0.7098  0.3156  2.4504
  782TIP3   OH2 2278   0.231   1.681   3.409  0.2890  0.6852  0.2436
  782TIP3    H1 2279   0.245   1.601   3.359  0.2162 -0.8352  2.5813
  782TIP3    H2 2280   0.310   1.690   3.463 -0.5233  1.0966  1.3927
  783TIP3   OH2 2281   8.097   4.141   0.891 -0.7847  0.0793 -0.5858
  783TIP3    H1 2282   8.172   4.196   0.914 -0.9442  0.2009 -0.3432
  783TIP3    H2 2283   8.135   4.064   0.850 -0.4740 -0.2358  0.2837
  784TIP3   OH2 2284   8.339   0.130   6.201 -0.2590  0.2975  0.0369
  784TIP3    H1 2285   8.410   0.152   6.141 -0.4606  0.8432 -0.0031
  784TIP3    H2 2286   8.365   0.045   6.238  0.8225  0.8691  0.6292
  785TIP3   OH2 2287   0.959   2.440   1.645 -0.0223  0.9278 -0.4531
  785TIP3    H1 2288   0.977   2.475   1.558  0.0513  0.9985 -0.4096
  785TIP3    H2 2289   0.874   2.397   1.636  0.3052  0.3298 -0.7367
  786TIP3   OH2 2290   2.512   3.486   3.404  0.0686 -0.2369 -0.3497
  786TIP3    H1 2291   2.422   3.474   3.432  0.1141 -0.5362 -0.3311
  786TIP3    H2 2292   2.552   3.399   3.411  0.3433 -0.1176 -0.4062
  787TIP3   OH2 2293   6.959   6.462   6.905  0.0946 -0.5334  0.0300
  787TIP3    H1 2294   6.919   6.476   6.991  0.5929  1.7794 -0.0981
  787TIP3    H2 2295   7.036   6.407   6.924  0.5739  0.4944  1.1725
  788TIP3   OH2 2296   2.217   2.387   4.536  0.1014 -0.0820 -0.3740
  788TIP3    H1 2297   2.132   2.417   4.570 -1.2563 -1.7891 -2.1421
  788TIP3    H2 2298   2.267   2.468   4.523 -1.0756  0.9198  1.1094
  789TIP3   OH2 2299   3.450   7.497   6.635 -0.2951  0.0369  0.5788
  789TIP3    H1 2300   3.371   7.452   6.666  0.1587 -1.1020  0.1123
  789TIP3    H2 2301   3.521   7.456   6.684 -0.1013  2.0460  2.0718
  790TIP3   OH2 2302   1.735   4.786   2.094  0.0541  0.7406  0.3656
  790TIP3    H1 2303   1.652   4.739   2.088 -0.0260  1.0065 -0.5998
  790TIP3    H2 2304   1.711   4.878   2.084  0.3954  0.8687  0.7237
  791TIP3   OH2 2305   0.463   1.746   6.534 -0.2796 -0.1623  0.1769
  791TIP3    H1 2306   0.392   1.809   6.526  1.4917  1.9342  0.2807
  791TIP3    H2 2307   0.508   1.749   6.450  1.2947  0.6193  1.0044
  792TIP3   OH2 2308   1.767   4.597   1.197  0.0309  0.3232  0.0768
  792TIP3    H1 2309   1.757   4.667   1.262  0.2771  0.5025 -0.0803
  792TIP3    H2 2310   1.677   4.575   1.172 -0.0937 -0.1922  0.9567
  793TIP3   OH2 2311   3.647   2.432   2.704  0.2660  0.5697 -0.4803
  793TIP3    H1 2312   3.641   2.337   2.721  0.4459  0.6418 -0.0027
  793TIP3    H2 2313   3.735   2.456   2.733 -0.0225  1.0112  0.0438
  794TIP3   OH2 2314   3.825   3.555   0.671  0.4774 -0.2200  1.0271
  794TIP3    H1 2315   3.824   3.608   0.591  2.4568 -2.3609 -0.4703
  794TIP3    H2 2316   3.838   3.618   0.741  0.5678  1.5188 -0.5030
  795TIP3   OH2 2317   3.168   3.871   2.095  0.2843 -0.0036  0.0510
  795TIP3    H1 2318   3.191   3.862   2.003  2.1220 -0.3654  0.5284
  795TIP3    H2 2319   3.198   3.958   2.119 -4.8254  2.2414 -0.9446
  796TIP3   OH2 2320   3.626   4.120   1.609  0.2921  0.2600  0.1550
  796TIP3    H1 2321   3.580   4.043   1.643  1.5999  0.2894  2.0813
  796TIP3    H2 2322   3.575   4.195   1.643 -0.1203  0.2701 -0.4732
  797TIP3   OH2 2323   2.193   4.086   0.362  0.8344  0.1738 -0.1953
  797TIP3    H1 2324   2.210   4.053   0.450  1.1280 -0.3021 -0.4272
  797TIP3    H2 2325   2.132   4.159   0.375  3.3405  2.1808  0.6879
  798TIP3   OH2 2326   1.721   3.830   0.664  0.3324 -0.3111 -0.1720
  798TIP3    H1 2327   1.791   3.872   0.614  0.7564  1.0568  1.5280
  798TIP3    H2 2328   1.756   3.745   0.687  0.5398 -0.5349 -1.2682
  799TIP3   OH2 2329   0.062   4.127   3.902  0.5191 -0.3527  0.3164
  799TIP3    H1 2330   0.086   4.036   3.921 -0.9840 -0.6958  0.6119
  799TIP3    H2 2331   0.108   4.178   3.969  1.2449 -0.9008  0.2433
  800TIP3   OH2 2332   0.845   5.221   2.479  0.0653  0.2907  0.3721
  800TIP3    H1 2333   0.855   5.312   2.505 -0.9107  0.9303 -1.4048
  800TIP3    H2 2334   0.753   5.201   2.493  0.3578 -0.5529  1.1467
  801TIP3   OH2 2335   4.376   2.763   1.677 -0.0569 -0.0407 -0.0477
  801TIP3    H1 2336   4.454   2.814   1.695 -1.9712  2.8576  0.2978
  801TIP3    H2 2337   4.367   2.764   1.582  0.3398 -0.4490 -0.0937
  802TIP3   OH2 2338   3.111   2.796   1.250 -0.6610 -0.0651 -0.0574
  802TIP3    H1 2339   3.095   2.875   1.302 -1.1112  0.4535 -0.9520
  802TIP3    H2 2340   3.201   2.771   1.271 -0.4414  0.8136  0.0768
  803TIP3   OH2 2341   1.089   3.708   2.034 -0.3390 -0.1092  0.1598
  803TIP3    H1 2342   1.104   3.705   2.129  0.9096  0.2643 -0.0096
  803TIP3    H2 2343   1.021   3.774   2.022  0.3991  0.7738  0.7113
  804TIP3   OH2 2344   1.064   3.051   2.035  0.1372  0.1170  0.7230
  804TIP3    H1 2345   0.983   3.090   2.002  0.1372 -0.8073 -0.3982
  804TIP3    H2 2346   1.035   2.993   2.106 -0.0013  1.0899  1.4658
  805TIP3   OH2 2347   3.406   1.191   2.825 -0.1981  0.1657  0.0864
  805TIP3    H1 2348   3.372   1.137   2.754 -1.2147  1.3938 -0.3972
  805TIP3    H2 2349   3.466   1.134   2.873 -1.8258 -1.6226  0.0591
  806TIP3   OH2 2350   0.089   2.997   2.029 -0.0993  0.2199 -0.0226
  806TIP3    H1 2351   0.105   2.932   1.960 -0.6850 -0.7411  0.7336
  806TIP3    H2 2352   0.144   2.968   2.102 -1.4162 -0.2357  0.8111
  807TIP3   OH2 2353   7.636   4.622   2.475  0.0800 -0.6401  0.1388
  807TIP3    H1 2354   7.636   4.555   2.407  1.3015 -0.8568  0.3515
  807TIP3    H2 2355   7.713   4.603   2.528 -0.0900  0.3686  0.7596
  808TIP3   OH2 2356   1.661   4.264   0.077  0.0394  0.3327 -0.7399
  808TIP3    H1 2357   1.573   4.297   0.060 -0.0683  0.5112  0.1686
  808TIP3    H2 2358   1.658   4.232   0.167 -0.0262 -2.7039 -1.7513
  809TIP3   OH2 2359   1.497   4.613   1.075  0.1591  0.0200 -0.2460
  809TIP3    H1 2360   1.463   4.534   1.118 -1.6475 -0.6233 -2.7191
  809TIP3    H2 2361   1.465   4.685   1.129  0.9009 -0.8663  1.4281
  810TIP3   OH2 2362   0.351   2.961   0.031  0.1396  0.3349 -0.3695
  810TIP3    H1 2363   0.367   2.947   0.125 -0.9296  1.3091 -0.0296
  810TIP3    H2 2364   0.367   2.876  -0.009  0.6086 -0.0873  0.7003
  811TIP3   OH2 2365   1.721   6.255   2.405 -0.9923  0.2227 -0.0602
  811TIP3    H1 2366   1.700   6.198   2.480  0.1257  0.2367  0.2648
  811TIP3    H2 2367   1.727   6.195   2.330  1.5010 -0.3005  0.5093
  812TIP3   OH2 2368   3.614   2.860   2.456 -0.1680 -0.2752  0.1187
  812TIP3    H1 2369   3.574   2.785   2.501 -0.7389  0.4560  0.8372
  812TIP3    H2 2370   3.596   2.844   2.363  0.4234 -1.4454  0.2007
  813TIP3   OH2 2371   6.315   1.503   6.090 -0.0379  0.4504 -0.5418
  813TIP3    H1 2372   6.311   1.484   5.996 -1.1962  1.0240 -0.6127
  813TIP3    H2 2373   6.387   1.565   6.099  0.5552 -0.1673 -0.9512
  814TIP3   OH2 2374   1.839   5.001   0.468  0.3710  0.1515 -0.2719
  814TIP3    H1 2375   1.920   4.958   0.495  1.1746  1.7511 -0.0798
  814TIP3    H2 2376   1.791   4.934   0.420  1.2845 -1.1569  0.6176
  815TIP3   OH2 2377   0.182   4.124   0.657 -0.4015  0.3444  0.1037
  815TIP3    H1 2378   0.191   4.061   0.585 -2.1520 -0.2704  0.3875
  815TIP3    H2 2379   0.193   4.210   0.615  1.0972 -0.1097 -0.4462
  816TIP3   OH2 2380   5.548   6.916   6.805 -0.0447  0.1550 -0.0628
  816TIP3    H1 2381   5.608   6.907   6.879 -0.4813  1.9176  0.5380
  816TIP3    H2 2382   5.604   6.948   6.734  0.0869 -0.0241 -0.0395
  817TIP3   OH2 2383   2.804   3.089   2.535 -0.4627  0.4891 -0.0146
  817TIP3    H1 2384   2.816   3.053   2.447 -0.4336  0.4380  0.0104
  817TIP3    H2 2385   2.786   3.182   2.521 -2.5967  0.0736 -0.2085
  818TIP3   OH2 2386   1.997   0.704   1.397 -0.0067 -0.0607  0.1014
  818TIP3    H1 2387   1.929   0.650   1.358  1.2168 -1.2458 -0.4602
  818TIP3    H2 2388   2.076   0.649   1.394  1.0164  1.3390  0.5573
  819TIP3   OH2 2389   5.225   3.672   1.200  0.1045  0.0815 -0.0405
  819TIP3    H1 2390   5.286   3.673   1.274  0.0450 -0.2035  0.0143
  819TIP3    H2 2391   5.151   3.620   1.231 -0.1993  0.4817 -0.0829
  820TIP3   OH2 2392   3.124   7.631   6.894  0.4496  0.2281 -0.4135
  820TIP3    H1 2393   3.033   7.610   6.872  0.3126  0.3262  0.0504
  820TIP3    H2 2394   3.140   7.584   6.976  1.3623 -1.1900 -1.3797
  821TIP3   OH2 2395   8.275   4.672   0.146 -0.1117 -0.2765  0.0738
  821TIP3    H1 2396   8.272   4.739   0.214  1.9517 -0.1534  0.0845
  821TIP3    H2 2397   8.307   4.593   0.191  1.1304 -0.2322 -0.7072
  822TIP3   OH2 2398   6.966   1.283   4.563  0.4574 -0.0754  0.4104
  822TIP3    H1 2399   6.893   1.252   4.617 -0.5643  0.1232 -0.8445
  822TIP3    H2 2400   7.021   1.332   4.624 -0.5837 -0.0029  1.3096
  823TIP3   OH2 2401   0.235   3.215   2.060 -0.5322 -0.6165  0.1019
  823TIP3    H1 2402   0.275   3.201   1.974 -1.9249  0.7648 -0.8100
  823TIP3    H2 2403   0.144   3.188   2.049 -0.4685 -1.3979  1.4395
  824TIP3   OH2 2404   4.064   0.895   2.689 -0.1461  0.0171  0.2728
  824TIP3    H1 2405   4.020   0.969   2.731  2.6530  1.1289  1.3376
  824TIP3    H2 2406   4.106   0.848   2.761  0.8894 -0.6990 -0.7873
  825TIP3   OH2 2407   1.892   0.338   1.213 -0.5359 -0.3554 -0.7311
  825TIP3    H1 2408   1.866   0.427   1.238 -0.2884 -0.7466  0.9830
  825TIP3    H2 2409   1.811   0.287   1.217 -0.8732 -0.0198 -2.7019
  826TIP3   OH2 2410   8.277   4.750   2.367 -0.4638  0.4240 -0.6196
  826TIP3    H1 2411   8.303   4.659   2.352 -0.7698 -0.2870  2.7327
  826TIP3    H2 2412   8.305   4.796   2.288  2.2589 -2.0555 -1.2088
  827TIP3   OH2 2413   6.142   3.689   0.938  0.0881  0.3824  0.1686
  827TIP3    H1 2414   6.116   3.616   0.994  2.2768 -0.6639 -0.1452
  827TIP3    H2 2415   6.194   3.649   0.868 -0.9118  1.9179 -1.5125
  828TIP3   OH2 2416   3.675   3.862   0.228 -0.2682 -0.4276  0.2883
  828TIP3    H1 2417   3.722   3.944   0.245 -0.5468 -0.1893 -0.0798
  828TIP3    H2 2418   3.639   3.873   0.140 -0.9958 -0.6182  0.5580
  829TIP3   OH2 2419   3.649   5.523   0.601  0.0368  0.2704 -0.0693
  829TIP3    H1 2420   3.647   5.462   0.675  1.8775 -0.3705 -0.5231
  829TIP3    H2 2421   3.658   5.609   0.642  1.8191 -0.1418  0.4550
  830TIP3   OH2 2422   3.080   3.527   1.929 -0.4663  0.5512  0.3075
  830TIP3    H1 2423   3.108   3.443   1.893  0.9047  0.7256  0.9309
  830TIP3    H2 2424   2.988   3.534   1.905 -1.1681 -2.0810  2.0087
  831TIP3   OH2 2425   2.692   4.283   0.364  0.0852 -0.0930 -0.4307
  831TIP3    H1 2426   2.644   4.229   0.301 -1.5300  2.5326 -1.5638
  831TIP3    H2 2427   2.778   4.242   0.371 -0.8832 -2.4065 -1.7183
  832TIP3   OH2 2428   4.249   2.463   2.786 -0.5974  0.1366  0.1172
  832TIP3    H1 2429   4.311   2.417   2.843  0.4516  0.2289 -0.9027
  832TIP3    H2 2430   4.298   2.475   2.704 -2.2411 -0.4564 -0.9774
  833TIP3   OH2 2431   7.977   1.495   6.549  0.4471 -0.0500  0.5438
  833TIP3    H1 2432   7.899   1.516   6.497  1.8909  0.6879 -1.3955
  833TIP3    H2 2433   7.980   1.562   6.617  0.1133  0.7016 -0.1768
  834TIP3   OH2 2434   2.383   3.163   1.076 -0.0277  0.1809  0.0016
  834TIP3    H1 2435   2.327   3.221   1.024 -2.2779 -0.9984  1.0306
  834TIP3    H2 2436   2.346   3.076   1.061  2.2381 -0.7873 -0.1553
  835TIP3   OH2 2437   0.167   1.010   6.658 -0.6253 -0.1212  0.3824
  835TIP3    H1 2438   0.181   1.010   6.753 -2.0708  3.1422  0.6627
  835TIP3    H2 2439   0.224   1.079   6.626 -0.9523 -0.4860 -0.9997
  836TIP3   OH2 2440   2.090   1.673   6.331  0.1110 -0.3473 -0.2403
  836TIP3    H1 2441   2.144   1.751   6.325  2.5406 -2.1601 -3.5709
  836TIP3    H2 2442   2.110   1.637   6.418  0.2213  1.8301  0.6488
  837TIP3   OH2 2443   5.140   3.464   2.171 -0.3499 -0.2486  0.0227
  837TIP3    H1 2444   5.210   3.478   2.234 -0.0676 -0.0975 -0.3206
  837TIP3    H2 2445   5.077   3.407   2.216 -0.8234  0.9670  0.9283
  838TIP3   OH2 2446   4.478   3.380   0.635  0.8896  0.1310  0.3871
  838TIP3    H1 2447   4.524   3.315   0.582  1.4163 -0.4965  1.6152
  838TIP3    H2 2448   4.538   3.455   0.639 -0.1082  1.1315 -1.8430
  839TIP3   OH2 2449   5.027   4.872   1.909  0.3802  0.0053  0.1970
  839TIP3    H1 2450   5.063   4.949   1.953  0.0372 -0.2434  0.9292
  839TIP3    H2 2451   5.086   4.857   1.835  0.2684  1.1548 -0.1340
  840TIP3   OH2 2452   4.090   2.851   1.334 -0.3206 -0.1986 -0.1880
  840TIP3    H1 2453   4.033   2.831   1.409  0.1201  1.3094  0.5752
  840TIP3    H2 2454   4.030   2.863   1.261 -0.8975  0.1668  0.3386
  841TIP3   OH2 2455   3.125   2.499   1.768  0.1055  0.2739  0.1350
  841TIP3    H1 2456   3.150   2.529   1.681  0.2456 -0.7951 -0.1979
  841TIP3    H2 2457   3.196   2.529   1.825  0.5971 -0.0586 -0.3033
  842TIP3   OH2 2458   6.449   2.582   0.203 -0.8167  0.2299 -0.0559
  842TIP3    H1 2459   6.448   2.567   0.297 -1.3877 -0.0805 -0.1057
  842TIP3    H2 2460   6.539   2.608   0.183 -1.1331  2.0752  0.8600
  843TIP3   OH2 2461   4.522   7.500   6.163  0.9306 -0.0606  0.1838
  843TIP3    H1 2462   4.460   7.453   6.219  0.7862 -0.9462 -0.7086
  843TIP3    H2 2463   4.588   7.534   6.223  0.4685 -0.5188  0.9587
  844TIP3   OH2 2464   8.306   1.197   6.450 -0.6115  0.4541 -0.3212
  844TIP3    H1 2465   8.332   1.219   6.540 -2.0913 -1.9307  0.7429
  844TIP3    H2 2466   8.218   1.231   6.442 -1.0287 -0.6089 -0.3506
  845TIP3   OH2 2467   2.533   1.813   1.150  0.0004 -0.0213  0.1713
  845TIP3    H1 2468   2.442   1.820   1.177  0.0133 -0.2771  0.2837
  845TIP3    H2 2469   2.542   1.723   1.118 -0.3714  0.7148 -2.0410
  846TIP3   OH2 2470   1.556   5.787   6.595 -0.1101 -0.1484 -0.0439
  846TIP3    H1 2471   1.606   5.795   6.676 -1.5200  1.1986  0.7099
  846TIP3    H2 2472   1.498   5.863   6.595 -2.0510 -1.5928 -0.9654
  847TIP3   OH2 2473   3.183   3.925   1.814 -0.6940  0.4154  0.1368
  847TIP3    H1 2474   3.142   3.877   1.742  0.3705  0.9863 -0.8671
  847TIP3    H2 2475   3.122   3.997   1.832 -0.8006  0.4816 -0.4454
  848TIP3   OH2 2476   4.763   3.848   0.996  0.2182 -0.1980  0.1434
  848TIP3    H1 2477   4.806   3.846   1.081  0.1966  0.3480  0.1712
  848TIP3    H2 2478   4.681   3.895   1.012  0.3588  0.1804 -0.2440
  849TIP3   OH2 2479   4.541   1.939   0.403 -0.4283  0.1392 -0.5333
  849TIP3    H1 2480   4.508   1.897   0.323  0.3056  0.3987 -0.9778
  849TIP3    H2 2481   4.508   2.028   0.399  0.3796  0.4197 -1.0138
  850TIP3   OH2 2482   3.847   4.377   1.868 -0.8967 -0.2380 -0.4768
  850TIP3    H1 2483   3.863   4.451   1.925 -1.3036 -0.2938 -0.2868
  850TIP3    H2 2484   3.756   4.351   1.886 -1.3025  0.2651 -1.7313
  851TIP3   OH2 2485   3.935   2.200   1.632 -0.2569  0.2991  0.4728
  851TIP3    H1 2486   3.984   2.119   1.615 -0.0727  0.5655 -0.2759
  851TIP3    H2 2487   3.843   2.173   1.628 -0.2273  0.4335 -1.3826
  852TIP3   OH2 2488   3.578   2.163   0.954 -0.0292  0.0334 -0.6326
  852TIP3    H1 2489   3.644   2.095   0.969 -1.6013 -1.2968  0.4058
  852TIP3    H2 2490   3.582   2.218   1.032 -0.2680 -0.1526 -0.4888
  853TIP3   OH2 2491   0.879   1.262   4.743 -0.3052  0.3630 -0.1974
  853TIP3    H1 2492   0.872   1.181   4.693 -2.2449 -0.1669  0.8673
  853TIP3    H2 2493   0.790   1.279   4.773  0.8400  0.3249  3.5425
  854TIP3   OH2 2494   2.796   3.902   1.242 -0.6975 -0.2734 -0.2332
  854TIP3    H1 2495   2.828   3.972   1.299 -1.2086 -0.2133 -0.0215
  854TIP3    H2 2496   2.840   3.918   1.158 -0.3192 -0.0786 -0.0030
  855TIP3   OH2 2497   1.890   4.948   1.537 -0.5508  0.3628  0.4570
  855TIP3    H1 2498   1.911   4.961   1.629  0.1305 -0.1674  0.3763
  855TIP3    H2 2499   1.973   4.924   1.496 -0.6484  1.5727 -0.4813
  856TIP3   OH2 2500   4.293   2.958   0.918 -0.3549  0.3932  0.3837
  856TIP3    H1 2501   4.222   3.022   0.919 -0.4201  0.3582 -1.1291
  856TIP3    H2 2502   4.357   2.992   0.982 -2.0831 -0.0278  2.4065
  857TIP3   OH2 2503   3.668   2.332   0.006  0.4069 -0.1456 -0.1554
  857TIP3    H1 2504   3.649   2.404   0.066  0.1877 -0.3036 -0.0316
  857TIP3    H2 2505   3.602   2.266   0.027  0.6204 -0.3901 -0.2526
  858TIP3   OH2 2506   4.627   4.679   1.176 -0.0265 -0.2933  0.5253
  858TIP3    H1 2507   4.539   4.701   1.207 -0.3011 -0.7326  0.0615
  858TIP3    H2 2508   4.647   4.594   1.215  0.1340 -0.2635  0.5104
  859TIP3   OH2 2509   5.986   7.365   5.924  0.0264  0.3824  0.0875
  859TIP3    H1 2510   5.931   7.296   5.885 -0.5198  0.5191  0.5941
  859TIP3    H2 2511   6.074   7.328   5.925 -0.5088 -0.9392  1.7539
  860TIP3   OH2 2512   4.016   2.854   0.222  0.1087  0.2971 -0.2112
  860TIP3    H1 2513   4.044   2.942   0.249 -1.0034  0.3373  0.8475
  860TIP3    H2 2514   3.965   2.869   0.142  0.4180  0.5582 -0.3592
  861TIP3   OH2 2515   2.071   4.448   0.119  0.2616  0.0395  0.2237
  861TIP3    H1 2516   2.126   4.377   0.150  0.4396  0.0676 -0.0287
  861TIP3    H2 2517   1.982   4.425   0.148  0.1651 -0.7554 -0.6820
  862TIP3   OH2 2518   4.914   5.125   2.656  0.2545 -0.3345 -0.4312
  862TIP3    H1 2519   4.945   5.038   2.632  0.6106 -0.4811  0.5627
  862TIP3    H2 2520   4.993   5.174   2.677  0.0043  0.0353 -0.3469
  863TIP3   OH2 2521   4.107   3.152   2.634  0.3378 -0.5517 -0.7497
  863TIP3    H1 2522   4.061   3.224   2.590  1.4302 -0.3488 -1.5942
  863TIP3    H2 2523   4.120   3.086   2.566  0.9866 -0.7528 -0.4355
  864TIP3   OH2 2524   7.238   6.695   4.666  0.5356  0.1115  0.0931
  864TIP3    H1 2525   7.322   6.730   4.636 -0.0265  1.6230  0.2276
  864TIP3    H2 2526   7.224   6.737   4.751 -2.1812  2.9842 -1.6371
  865TIP3   OH2 2527   4.447   1.732   2.061  0.1661  0.3773 -0.1114
  865TIP3    H1 2528   4.422   1.735   2.153 -2.6812 -0.3277 -0.7970
  865TIP3    H2 2529   4.476   1.821   2.041 -0.5972  0.9191  1.1082
  866TIP3   OH2 2530   7.368   5.576   4.537  0.2876  0.4096  0.0103
  866TIP3    H1 2531   7.311   5.611   4.605  0.7732  0.1693  0.5485
  866TIP3    H2 2532   7.324   5.599   4.454 -1.3912 -1.1139  0.4375
  867TIP3   OH2 2533   5.159   3.025   2.031  0.5386 -0.5832  0.0678
  867TIP3    H1 2534   5.217   2.978   2.091  0.4052 -1.1664 -0.2566
  867TIP3    H2 2535   5.104   2.957   1.992  0.5373 -0.1935 -0.6215
  868TIP3   OH2 2536   5.669   7.922   5.965 -0.2016  0.6169 -0.6001
  868TIP3    H1 2537   5.618   7.902   6.044  0.3146  0.2672 -0.3459
  868TIP3    H2 2538   5.639   7.857   5.901  1.5575 -1.1192  0.2643
  869TIP3   OH2 2539   1.748   4.108   0.321  0.2462  0.4235 -0.3608
  869TIP3    H1 2540   1.768   4.019   0.293 -0.2961 -0.0386  0.6853
  869TIP3    H2 2541   1.743   4.103   0.417 -3.3938  0.8023 -0.4525
  870TIP3   OH2 2542   3.632   1.090   0.506 -0.4227  0.4728  0.1307
  870TIP3    H1 2543   3.660   1.164   0.451  0.7903  0.8387  1.2271
  870TIP3    H2 2544   3.537   1.100   0.513 -0.2464  2.0589  0.4473
  871TIP3   OH2 2545   3.655   4.077   3.096 -0.4480  0.0382  0.0034
  871TIP3    H1 2546   3.712   4.147   3.064  0.1259 -0.4225  0.0039
  871TIP3    H2 2547   3.709   4.029   3.159 -1.5081  0.8125  1.5190
  872TIP3   OH2 2548   0.789   1.772   0.898 -0.0222 -0.0425 -0.9990
  872TIP3    H1 2549   0.744   1.693   0.928  1.2626  0.1730  1.5565
  872TIP3    H2 2550   0.733   1.844   0.928  1.4826  0.1900  1.3952
  873TIP3   OH2 2551   0.923   4.529   0.661  0.4912  0.1424  0.2461
  873TIP3    H1 2552   0.908   4.459   0.598 -0.6529  0.1241  0.5353
  873TIP3    H2 2553   0.908   4.489   0.747 -0.0406  0.7020  0.4217
  874TIP3   OH2 2554   0.210   0.206   5.514 -0.6662  0.3252  0.0195
  874TIP3    H1 2555   0.282   0.182   5.455 -2.2629  1.2000 -2.3768
  874TIP3    H2 2556   0.131   0.179   5.467 -2.0079  1.0505  1.7967
  875TIP3   OH2 2557   0.063   0.223   6.041  0.6534 -0.8296 -0.1059
  875TIP3    H1 2558   0.088   0.274   5.963 -0.2337  0.4298  0.4245
  875TIP3    H2 2559   0.064   0.132   6.011 -0.5804 -0.2901 -1.8426
  876TIP3   OH2 2560   2.237   4.818   0.559 -0.2287 -0.2180  0.2090
  876TIP3    H1 2561   2.323   4.815   0.516 -1.0315 -1.1611 -1.3566
  876TIP3    H2 2562   2.257   4.846   0.649  1.8137 -1.1435  0.0872
  877TIP3   OH2 2563   1.841   4.727   0.704 -0.1911 -0.1693  0.2469
  877TIP3    H1 2564   1.754   4.732   0.744  0.1814  1.2627  0.8946
  877TIP3    H2 2565   1.902   4.731   0.778  0.4821  1.2997 -0.3744
  878TIP3   OH2 2566   1.609   2.888   1.241  0.0711 -0.1996 -0.2107
  878TIP3    H1 2567   1.538   2.904   1.178  0.4578  0.8189 -0.3905
  878TIP3    H2 2568   1.663   2.821   1.198 -0.3746 -0.4452 -0.3964
  879TIP3   OH2 2569   6.792   2.043   0.998  0.5726  0.3749  0.0448
  879TIP3    H1 2570   6.707   2.002   0.986  0.7834 -0.1411  0.3255
  879TIP3    H2 2571   6.822   2.062   0.909  0.1744  0.5470 -0.0543
  880TIP3   OH2 2572   3.041   3.573   2.231 -0.1701  0.4403 -0.9008
  880TIP3    H1 2573   3.081   3.492   2.262  2.0884  1.7498 -0.2717
  880TIP3    H2 2574   3.037   3.562   2.136  0.0904 -0.4205 -0.8233
  881TIP3   OH2 2575   2.013   3.539   1.173 -0.2531 -0.1553 -0.3588
  881TIP3    H1 2576   2.064   3.579   1.243 -1.5833  0.8977  0.0086
  881TIP3    H2 2577   2.009   3.446   1.197  0.7306 -0.1018  0.0625
  882TIP3   OH2 2578   5.087   3.150   1.223 -0.4788  0.4760  0.5555
  882TIP3    H1 2579   5.142   3.106   1.158 -0.2883  1.9282 -0.2922
  882TIP3    H2 2580   5.072   3.084   1.290  0.7717 -0.5185 -0.1106
  883TIP3   OH2 2581   3.878   2.876   2.400  0.0704  0.2194  0.1751
  883TIP3    H1 2582   3.905   2.953   2.350 -0.5199 -0.5018 -1.2779
  883TIP3    H2 2583   3.797   2.902   2.444 -0.0048  0.4946 -0.1311
  884TIP3   OH2 2584   6.156   2.345   1.611 -0.1863 -0.3787  0.2911
  884TIP3    H1 2585   6.086   2.392   1.655  0.6378 -0.0237  1.2653
  884TIP3    H2 2586   6.129   2.341   1.519 -1.9063 -1.0780  0.8124
  885TIP3   OH2 2587   3.440   3.294  -0.014 -0.2408  0.1957  0.2317
  885TIP3    H1 2588   3.523   3.287   0.034 -1.0555  0.3303  1.7059
  885TIP3    H2 2589   3.397   3.209   0.001 -0.8741  0.5523  0.4692
  886TIP3   OH2 2590   4.484   2.940   3.002 -0.2205 -0.3138 -0.0412
  886TIP3    H1 2591   4.415   2.959   2.938 -0.3193  0.2449  0.2260
  886TIP3    H2 2592   4.439   2.941   3.086 -0.2154 -1.7144 -0.0117
  887TIP3   OH2 2593   1.564   1.022   6.460  0.1777  0.1236  0.0346
  887TIP3    H1 2594   1.577   0.946   6.404  1.0495  0.2314  0.0719
  887TIP3    H2 2595   1.645   1.028   6.511 -0.2911  0.4830  0.7497
  888TIP3   OH2 2596   0.040   1.214   4.154  0.0513 -0.6952 -0.5441
  888TIP3    H1 2597  -0.025   1.146   4.171 -0.2076 -0.0833  0.9760
  888TIP3    H2 2598  -0.009   1.296   4.159  1.0118 -0.1942  1.1520
  889TIP3   OH2 2599   3.705   3.976   1.975  0.6191 -0.0041  0.4363
  889TIP3    H1 2600   3.682   4.034   2.047  1.0915  0.7007  0.0260
  889TIP3    H2 2601   3.626   3.970   1.922  0.5718  0.2870  0.4718
  890TIP3   OH2 2602   4.108   3.308   1.021 -0.1651  0.0308 -0.0055
  890TIP3    H1 2603   4.201   3.307   0.998 -0.4260  0.4761 -1.0751
  890TIP3    H2 2604   4.062   3.305   0.938 -1.1053  2.1987  0.4096
  891TIP3   OH2 2605   4.534   4.392   1.836 -0.5878 -0.4958 -0.6861
  891TIP3    H1 2606   4.607   4.337   1.809 -0.4262 -0.6570  0.0811
  891TIP3    H2 2607   4.462   4.367   1.778  0.0634 -0.0659 -1.7092
  892TIP3   OH2 2608   1.953   2.575   0.129 -0.0369 -0.6883  0.5144
  892TIP3    H1 2609   1.999   2.492   0.140  0.4230 -0.6358 -0.8633
  892TIP3    H2 2610   1.874   2.552   0.079  1.3096  0.0277 -2.0579
  893TIP3   OH2 2611   4.761   2.924   0.537  0.4901 -0.1362  0.0039
  893TIP3    H1 2612   4.709   2.844   0.527  0.9727 -0.3667 -0.7486
  893TIP3    H2 2613   4.703   2.985   0.583  0.3465 -1.1237  1.1520
  894TIP3   OH2 2614   5.215   7.583   5.783  0.0036  0.0367  0.1245
  894TIP3    H1 2615   5.218   7.602   5.690 -0.3391 -1.6786 -0.2491
  894TIP3    H2 2616   5.297   7.617   5.818 -0.3071  1.5760 -0.6191
  895TIP3   OH2 2617   3.480   6.678   1.527 -0.0935  0.0074  0.0182
  895TIP3    H1 2618   3.440   6.708   1.609 -0.1031 -0.5447  0.2186
  895TIP3    H2 2619   3.561   6.730   1.520  0.1967 -0.3484  0.6707
  896TIP3   OH2 2620   6.447   1.423   0.395  0.8066 -0.3967 -0.0762
  896TIP3    H1 2621   6.385   1.370   0.444 -1.7139  2.4540 -0.0864
  896TIP3    H2 2622   6.397   1.459   0.322  3.0624  0.0683 -1.4754
  897TIP3   OH2 2623   2.782   2.540   1.016 -0.1545  0.2178  0.9723
  897TIP3    H1 2624   2.867   2.554   0.974 -0.9060  1.3506 -0.2234
  897TIP3    H2 2625   2.781   2.602   1.089 -0.0857  0.4695  0.7647
  898TIP3   OH2 2626   3.393   3.500   3.116 -0.5964  0.0595  0.7897
  898TIP3    H1 2627   3.485   3.472   3.117 -0.3737  0.7523  0.6522
  898TIP3    H2 2628   3.355   3.462   3.195  0.0330  0.4667  1.2965
  899TIP3   OH2 2629   1.168   3.890   0.651  0.0065  0.1767 -0.8569
  899TIP3    H1 2630   1.190   3.950   0.722  1.3980 -2.3864  0.9650
  899TIP3    H2 2631   1.145   3.947   0.577  0.2898  2.9006  1.0933
  900TIP3   OH2 2632   3.503   3.463   1.593  0.4297 -0.1151  0.3828
  900TIP3    H1 2633   3.512   3.408   1.671  1.8567 -0.2309  0.1552
  900TIP3    H2 2634   3.422   3.512   1.606  0.1880 -0.8168  1.5086
  901TIP3   OH2 2635   7.932   0.056   6.905 -0.0599 -0.4252 -0.3206
  901TIP3    H1 2636   8.007   0.033   6.960  0.0368 -0.5786 -0.5173
  901TIP3    H2 2637   7.957   0.137   6.862 -0.9507  0.8140  1.4488
  902TIP3   OH2 2638   3.050   5.661   1.186 -0.3811 -0.6978  0.3824
  902TIP3    H1 2639   3.091   5.608   1.117 -0.2700 -1.7631  1.2565
  902TIP3    H2 2640   3.084   5.749   1.171  1.0954 -1.2789  0.1903
  903TIP3   OH2 2641   7.830   0.351   6.263  0.6175 -0.0009 -0.3729
  903TIP3    H1 2642   7.897   0.284   6.259  1.3925  0.8383 -1.9431
  903TIP3    H2 2643   7.874   0.427   6.302 -0.1263 -0.2396  0.9646
  904TIP3   OH2 2644   2.215   3.549   0.079  0.0608  0.2553 -0.0768
  904TIP3    H1 2645   2.211   3.598  -0.003 -0.9548  1.9579  0.9793
  904TIP3    H2 2646   2.171   3.466   0.058 -1.2709  1.1445 -0.9449
  905TIP3   OH2 2647   4.135   4.674   1.804 -0.0266 -0.5402 -0.0681
  905TIP3    H1 2648   4.229   4.659   1.811  0.1375 -0.2648 -1.4503
  905TIP3    H2 2649   4.102   4.596   1.759 -0.3642 -0.3492 -0.1471
  906TIP3   OH2 2650   6.571   1.105   6.783 -0.4704 -0.4490  0.4009
  906TIP3    H1 2651   6.544   1.084   6.872 -0.5916 -0.8238  0.2752
  906TIP3    H2 2652   6.665   1.124   6.790 -0.4711 -0.5228  0.5974
  907TIP3   OH2 2653   4.407   4.662   0.671  0.5030  0.7518 -0.2555
  907TIP3    H1 2654   4.391   4.586   0.726 -0.7283  0.4235 -1.0431
  907TIP3    H2 2655   4.495   4.691   0.695  0.4101 -0.0377  1.0845
  908TIP3   OH2 2656   2.563   2.577   1.916  0.2066 -0.5352  0.6253
  908TIP3    H1 2657   2.472   2.602   1.901  0.5264  0.7183  0.6777
  908TIP3    H2 2658   2.593   2.542   1.833  0.5194  1.8001 -0.3060
  909TIP3   OH2 2659   3.896   3.081   1.614  0.0785 -0.1311  0.2109
  909TIP3    H1 2660   3.985   3.085   1.579  0.4061 -3.0294  0.5832
  909TIP3    H2 2661   3.905   3.104   1.707  0.7810 -2.3441  0.7191
  910TIP3   OH2 2662   6.227   6.829   6.727  0.1200 -0.4659  0.4792
  910TIP3    H1 2663   6.227   6.789   6.641 -1.0619  0.9302 -0.1997
  910TIP3    H2 2664   6.234   6.756   6.789 -0.0090 -1.5381 -0.7694
  911TIP3   OH2 2665   5.414   3.408   0.910 -0.2224 -0.7142 -0.2890
  911TIP3    H1 2666   5.325   3.439   0.893  0.4995  0.7665 -1.4717
  911TIP3    H2 2667   5.425   3.419   1.004 -1.7207 -2.1039  0.0808
  912TIP3   OH2 2668   5.716   7.495   6.746  0.7440  0.0495  0.1412
  912TIP3    H1 2669   5.708   7.541   6.662  2.4250  1.1883  0.5905
  912TIP3    H2 2670   5.627   7.466   6.765  0.6511 -2.1414 -3.1073
  913TIP3   OH2 2671   5.730   3.964   3.610  0.0810  0.5129 -0.2884
  913TIP3    H1 2672   5.669   4.037   3.598 -0.8735 -0.1287  0.5690
  913TIP3    H2 2673   5.816   4.005   3.603 -0.3908  1.1613 -3.1900
  914TIP3   OH2 2674   5.060   3.286   3.678  0.6363 -0.7630  0.4732
  914TIP3    H1 2675   5.121   3.287   3.604  1.5605 -2.0039  1.1993
  914TIP3    H2 2676   4.974   3.299   3.638  1.3382  0.7897 -0.5901
  915TIP3   OH2 2677   6.442   2.421   0.439  0.7745 -0.2029 -0.2558
  915TIP3    H1 2678   6.363   2.373   0.464  1.6648 -0.9916  1.1403
  915TIP3    H2 2679   6.422   2.512   0.457  1.2277 -0.6959  3.0587
  916TIP3   OH2 2680   1.713   1.435   6.838  0.0457  0.1092  0.1766
  916TIP3    H1 2681   1.740   1.355   6.884 -0.9491 -0.6482 -0.5293
  916TIP3    H2 2682   1.687   1.495   6.908  3.8939  1.0166  0.8944
  917TIP3   OH2 2683   7.111   0.084   6.627 -0.2458 -0.3766  0.3664
  917TIP3    H1 2684   7.149   0.080   6.539  0.7920 -0.5319  0.8099
  917TIP3    H2 2685   7.103  -0.008   6.654 -1.1559 -0.3492  0.1821
  918TIP3   OH2 2686   6.007   5.258   6.570 -0.5769  0.3801  0.2645
  918TIP3    H1 2687   5.977   5.349   6.580 -0.4200  0.6016 -1.2146
  918TIP3    H2 2688   5.950   5.221   6.503 -0.8813 -0.7411  1.1242
  919TIP3   OH2 2689   5.592   3.813   0.681 -0.3489 -0.4672  0.6630
  919TIP3    H1 2690   5.568   3.761   0.757 -0.0489 -1.3431  0.1764
  919TIP3    H2 2691   5.607   3.748   0.612  0.4575  0.2392  0.1586
  920TIP3   OH2 2692   5.787   0.177   6.575  0.1757  0.2897 -0.1491
  920TIP3    H1 2693   5.767   0.233   6.500  1.6426  0.5764 -0.3386
  920TIP3    H2 2694   5.759   0.089   6.548 -1.8644  0.8559  0.0382
  921TIP3   OH2 2695   7.777   3.764   1.186 -0.1460  0.4441  0.4393
  921TIP3    H1 2696   7.807   3.842   1.139 -0.1906 -0.4915 -1.1969
  921TIP3    H2 2697   7.771   3.697   1.118 -3.8422  0.0166  1.0913
  922TIP3   OH2 2698   2.239   1.987   1.787 -0.6589  0.0082  0.0697
  922TIP3    H1 2699   2.267   1.945   1.706  0.5613 -0.3475  0.6701
  922TIP3    H2 2700   2.210   2.074   1.760  0.4597  0.1629 -0.6599
  923TIP3   OH2 2701   4.143   4.704   0.896  0.7959 -0.1003 -0.7858
  923TIP3    H1 2702   4.107   4.682   0.810  1.3519 -0.4679 -0.9299
  923TIP3    H2 2703   4.106   4.638   0.955  1.0424 -0.3346 -0.8908
  924TIP3   OH2 2704   0.661   4.253   1.260 -0.5953 -1.1840  0.7160
  924TIP3    H1 2705   0.591   4.231   1.321 -0.7579 -0.7953  0.6709
  924TIP3    H2 2706   0.617   4.261   1.175 -0.3094 -2.1062  0.4753
  925TIP3   OH2 2707   4.789   3.182   1.659  0.4292 -0.1624  0.4967
  925TIP3    H1 2708   4.701   3.144   1.662  0.2090  0.0849 -1.4651
  925TIP3    H2 2709   4.786   3.253   1.723 -0.8661 -0.0730  0.3672
  926TIP3   OH2 2710   6.859   6.596   6.406  0.0487  0.1365  0.3716
  926TIP3    H1 2711   6.904   6.553   6.479  0.6845  0.7201  0.3247
  926TIP3    H2 2712   6.823   6.676   6.445 -0.6837 -0.1674  0.3346
  927TIP3   OH2 2713   3.007   2.655   1.953  0.2371  0.3799  0.4434
  927TIP3    H1 2714   3.049   2.611   1.879 -2.4215  0.0795 -0.9621
  927TIP3    H2 2715   3.009   2.591   2.024  0.4633 -0.3131 -0.1892
  928TIP3   OH2 2716   0.845   0.299   6.445  0.0683  0.4346 -0.0063
  928TIP3    H1 2717   0.881   0.211   6.435 -0.9456 -0.0787  0.7974
  928TIP3    H2 2718   0.764   0.297   6.394 -0.2449  0.7235  0.4763
  929TIP3   OH2 2719   3.469   5.405   1.768 -0.4123  0.0731 -0.3543
  929TIP3    H1 2720   3.493   5.494   1.741 -0.1529  0.8069  2.1208
  929TIP3    H2 2721   3.384   5.390   1.729 -0.0723  1.0918 -1.5053
  930TIP3   OH2 2722   7.040   5.883   5.801  0.0297  0.5278  0.6200
  930TIP3    H1 2723   6.998   5.921   5.724 -0.6076  0.6618  1.0393
  930TIP3    H2 2724   7.134   5.889   5.782 -0.1415  0.0126 -0.4106
  931TIP3   OH2 2725   1.237   1.706   6.825 -0.0251 -0.2801  0.0655
  931TIP3    H1 2726   1.230   1.729   6.918  0.6886 -1.4228  0.4116
  931TIP3    H2 2727   1.225   1.611   6.823 -0.3622 -0.2189 -1.0527
  932TIP3   OH2 2728   2.813   4.435   1.205 -0.8439  0.1725 -0.2226
  932TIP3    H1 2729   2.859   4.495   1.264 -2.0407 -0.3971  1.3364
  932TIP3    H2 2730   2.787   4.490   1.131 -0.8989  1.3174  0.6339
  933TIP3   OH2 2731   2.698   2.206   0.803 -0.1082 -0.0529  0.0291
  933TIP3    H1 2732   2.688   2.293   0.764 -0.1309 -0.2112 -0.3280
  933TIP3    H2 2733   2.731   2.152   0.731 -1.2937 -0.6270 -0.1087
  934TIP3   OH2 2734   4.001   2.474   3.684 -0.0237 -0.2734  0.0298
  934TIP3    H1 2735   4.024   2.538   3.752  1.8529 -2.0743  1.1434
  934TIP3    H2 2736   4.081   2.464   3.632 -1.2419  0.5648 -2.0366
  935TIP3   OH2 2737   2.903   3.755   0.646  0.3525 -0.0616 -0.5182
  935TIP3    H1 2738   2.878   3.753   0.739 -1.9107 -2.5868 -1.1146
  935TIP3    H2 2739   2.859   3.832   0.611  1.8417  1.3558  0.6156
  936TIP3   OH2 2740   5.863   7.057   5.438 -0.1348 -0.3993 -0.5054
  936TIP3    H1 2741   5.953   7.026   5.424  0.0255  0.2088 -0.8375
  936TIP3    H2 2742   5.837   7.094   5.353 -0.7950 -0.8164 -0.4841
  937TIP3   OH2 2743   3.451   4.057   0.826  0.1724 -0.3262  0.1175
  937TIP3    H1 2744   3.464   4.150   0.808 -0.4046 -0.3874 -0.6177
  937TIP3    H2 2745   3.462   4.050   0.921 -0.8198  0.6628  0.3228
  938TIP3   OH2 2746   6.273   0.543   6.438 -0.2147  0.2012 -0.1022
  938TIP3    H1 2747   6.199   0.483   6.428 -0.5690  0.2147  2.1816
  938TIP3    H2 2748   6.234   0.628   6.458  0.3646  0.5334 -0.3561
  939TIP3   OH2 2749   1.813   5.418   2.608 -0.0285  0.9450  0.4215
  939TIP3    H1 2750   1.869   5.494   2.595  0.1789  0.6269 -0.6343
  939TIP3    H2 2751   1.732   5.440   2.563  0.6633 -0.1417 -1.4307
  940TIP3   OH2 2752   3.654   3.165   0.309  0.1797 -0.3171 -0.5844
  940TIP3    H1 2753   3.732   3.200   0.353 -0.6097  0.4687  0.2022
  940TIP3    H2 2754   3.595   3.140   0.379 -0.7586  0.1785 -1.1811
  941TIP3   OH2 2755   4.231   2.996   0.582 -0.2277  0.3412  0.1790
  941TIP3    H1 2756   4.247   2.929   0.648  0.2617  0.2921  0.0124
  941TIP3    H2 2757   4.145   2.974   0.546  0.0076 -0.2996  0.0055
  942TIP3   OH2 2758   2.535   0.793   6.479  0.1080  0.6429  0.0730
  942TIP3    H1 2759   2.453   0.802   6.430  0.1965 -1.9469 -0.6167
  942TIP3    H2 2760   2.522   0.715   6.533  1.5284  1.1464  1.1572
  943TIP3   OH2 2761   4.853   3.275   1.405 -0.6180 -0.3243 -0.0124
  943TIP3    H1 2762   4.943   3.298   1.381 -0.6376 -0.0954  0.1311
  943TIP3    H2 2763   4.860   3.242   1.494 -0.9036  1.1839  0.5711
  944TIP3   OH2 2764   1.960   4.399   1.183  0.0629  0.4552  0.4249
  944TIP3    H1 2765   2.027   4.453   1.226  0.7360 -1.9529  2.5032
  944TIP3    H2 2766   1.878   4.444   1.202  0.8410  2.1649 -0.1336
  945TIP3   OH2 2767   8.113   2.184   6.612 -0.1413 -0.0562 -0.3065
  945TIP3    H1 2768   8.102   2.264   6.662  0.1076 -0.5220  0.5117
  945TIP3    H2 2769   8.032   2.175   6.561 -0.4849  0.3112  0.1794
  946TIP3   OH2 2770   1.602   4.845   0.178 -0.7596  0.1136  0.3582
  946TIP3    H1 2771   1.653   4.812   0.105  0.0539  0.1582  0.9022
  946TIP3    H2 2772   1.654   4.824   0.256 -1.3753  0.5113  0.8862
  947TIP3   OH2 2773   0.764   4.575   0.231 -0.4045  0.7807  0.1100
  947TIP3    H1 2774   0.702   4.519   0.184  0.4712  0.0678 -0.2380
  947TIP3    H2 2775   0.850   4.535   0.212  0.2265  2.1877 -0.0629
  948TIP3   OH2 2776   2.733   2.311   2.071 -0.2507 -0.7951 -0.1108
  948TIP3    H1 2777   2.810   2.362   2.095 -0.6205 -0.3054  0.0484
  948TIP3    H2 2778   2.693   2.360   1.999 -0.6478 -0.8152  0.0960
  949TIP3   OH2 2779   1.293   5.119   0.832 -0.4445  0.4845  0.1174
  949TIP3    H1 2780   1.348   5.181   0.879 -1.1064  1.5540 -0.4862
  949TIP3    H2 2781   1.354   5.061   0.788  0.1788  0.2272  1.3200
  950TIP3   OH2 2782   2.127   4.920   2.443 -0.3992  0.5519  0.0947
  950TIP3    H1 2783   2.189   4.908   2.370 -0.2860  0.7949  0.1504
  950TIP3    H2 2784   2.046   4.949   2.402 -1.3865 -2.5517 -0.2855
  951TIP3   OH2 2785   2.112   5.066   2.019  0.2029 -0.2135  0.4769
  951TIP3    H1 2786   2.043   5.011   2.057  0.1029 -0.9127 -0.6874
  951TIP3    H2 2787   2.192   5.015   2.028 -0.0872 -1.1182 -1.7066
  952TIP3   OH2 2788   5.655   2.966   1.298  0.0460 -0.0957  0.2574
  952TIP3    H1 2789   5.580   2.922   1.259  2.2151 -1.5699 -2.4853
  952TIP3    H2 2790   5.670   2.922   1.381 -0.9873 -1.0085 -0.0358
  953TIP3   OH2 2791   7.280   1.010   6.717  0.4286  0.2795 -0.4776
  953TIP3    H1 2792   7.366   0.990   6.682  1.1411  1.9342  0.2885
  953TIP3    H2 2793   7.232   0.927   6.712  2.3005 -0.8418 -0.2273
  954TIP3   OH2 2794   1.427   4.071   0.792  0.4216 -0.6030 -0.1293
  954TIP3    H1 2795   1.515   4.088   0.826  0.1066  0.2391  0.2726
  954TIP3    H2 2796   1.440   4.003   0.726  1.1746 -1.5464  0.9747
  955TIP3   OH2 2797   6.484   6.755   6.209 -0.1776 -0.5937 -0.1742
  955TIP3    H1 2798   6.458   6.663   6.219 -0.3269 -0.4821  0.5162
  955TIP3    H2 2799   6.421   6.791   6.148  0.4771 -1.1938 -1.2284
  956TIP3   OH2 2800   4.796   5.066   0.772 -0.0027  0.3400 -0.4678
  956TIP3    H1 2801   4.843   5.014   0.838 -0.5149 -1.3069 -1.3842
  956TIP3    H2 2802   4.746   5.130   0.824 -0.0463 -0.6381  0.7240
  957TIP3   OH2 2803   3.305   4.374   1.915 -0.2282  0.1624  0.4111
  957TIP3    H1 2804   3.399   4.375   1.896 -0.6677 -0.1223 -1.9464
  957TIP3    H2 2805   3.294   4.306   1.981  0.7707 -2.4232 -1.9956
  958TIP3   OH2 2806   4.063   7.528   6.185  0.3767 -0.2082  1.1777
  958TIP3    H1 2807   4.061   7.507   6.091  1.7127  0.5771  0.9657
  958TIP3    H2 2808   3.972   7.518   6.213  0.1349 -1.5013  0.0316
  959TIP3   OH2 2809   4.092   1.749   2.278  0.0974  0.4492  0.0212
  959TIP3    H1 2810   4.101   1.801   2.198  0.2248 -0.1429 -0.3585
  959TIP3    H2 2811   4.008   1.704   2.268  1.9530 -2.8474 -1.7398
  960TIP3   OH2 2812   3.715   4.124   0.305  0.2344  0.2013  0.2000
  960TIP3    H1 2813   3.630   4.125   0.348 -0.8339 -1.5158 -1.7878
  960TIP3    H2 2814   3.715   4.203   0.250 -0.4747 -0.2974 -0.5238
  961TIP3   OH2 2815   3.540   2.916   1.435 -0.0593 -0.2815  0.0893
  961TIP3    H1 2816   3.529   2.996   1.487  0.1947  0.7970 -1.4860
  961TIP3    H2 2817   3.522   2.944   1.345  0.3324 -1.9399 -0.5050
  962TIP3   OH2 2818   1.356   2.641   1.048 -0.2666  0.4217  0.8396
  962TIP3    H1 2819   1.397   2.716   1.092  1.1987  0.5514 -0.7194
  962TIP3    H2 2820   1.276   2.676   1.009 -0.7207  0.6689  1.9671
  963TIP3   OH2 2821   3.128   1.521   0.178 -0.0557  0.1650 -0.7330
  963TIP3    H1 2822   3.081   1.472   0.246  1.3436  0.6340  0.6015
  963TIP3    H2 2823   3.070   1.595   0.158  0.0413  0.6858  0.8155
  964TIP3   OH2 2824   4.655   2.207   2.040  0.4367 -0.0523 -0.4581
  964TIP3    H1 2825   4.636   2.169   2.126  1.2482  2.7962  1.0574
  964TIP3    H2 2826   4.570   2.210   1.996  0.0358 -1.6809  0.1923
  965TIP3   OH2 2827   4.972   4.090   0.642 -0.0653 -0.3551  0.0848
  965TIP3    H1 2828   5.029   4.117   0.570 -0.1652 -3.4853 -1.2406
  965TIP3    H2 2829   5.032   4.061   0.711  0.0027  0.0904  0.2102
  966TIP3   OH2 2830   2.292   4.538   0.791 -0.1270 -0.7368  0.1894
  966TIP3    H1 2831   2.202   4.523   0.819  0.2264  0.8209  2.2567
  966TIP3    H2 2832   2.301   4.633   0.786  1.9825 -0.7990  2.0619
  967TIP3   OH2 2833   4.459   3.407   1.267  0.1110  0.2511  0.2282
  967TIP3    H1 2834   4.447   3.498   1.241 -0.6212  0.5093  1.4380
  967TIP3    H2 2835   4.548   3.386   1.240  0.0583  1.1122 -0.6666
  968TIP3   OH2 2836   4.207   1.645   2.817 -0.3981  0.0356 -0.2767
  968TIP3    H1 2837   4.264   1.570   2.797  2.4198  2.1034 -0.3209
  968TIP3    H2 2838   4.185   1.682   2.732  0.5688  0.8946 -0.1733
  969TIP3   OH2 2839   4.038   2.301   3.447  0.0528  0.2638 -0.6263
  969TIP3    H1 2840   4.074   2.218   3.415 -0.8867 -0.4065  0.0037
  969TIP3    H2 2841   4.075   2.311   3.535 -1.1907 -0.3955 -0.0005
  970TIP3   OH2 2842   4.412   1.770   3.592  0.1426 -0.0929 -0.4863
  970TIP3    H1 2843   4.421   1.713   3.515  1.1466 -1.3477  0.5417
  970TIP3    H2 2844   4.502   1.786   3.620 -0.3128 -3.1097  2.9486
  971TIP3   OH2 2845   5.231   4.099   1.944 -0.1714  0.6480  0.8928
  971TIP3    H1 2846   5.171   4.124   2.014 -0.6751 -0.3465  0.8154
  971TIP3    H2 2847   5.280   4.179   1.925 -2.9258  2.0652 -0.4959
  972TIP3   OH2 2848   2.569   3.016   2.251  0.4720 -0.5992 -0.4614
  972TIP3    H1 2849   2.498   3.007   2.314  0.8189  0.1835  0.0489
  972TIP3    H2 2850   2.642   2.968   2.290  0.8478  0.3337 -0.0176
  973TIP3   OH2 2851   3.834   2.857   2.068 -0.3266  0.3385  0.1865
  973TIP3    H1 2852   3.805   2.847   1.977  0.8769 -0.0176 -0.1753
  973TIP3    H2 2853   3.775   2.922   2.105 -0.7837  0.5472 -0.8773
  974TIP3   OH2 2854   2.731   3.643   3.448 -0.1537 -0.2739  0.2111
  974TIP3    H1 2855   2.649   3.593   3.449  1.4439 -3.0069  0.8934
  974TIP3    H2 2856   2.747   3.662   3.356  0.0319 -2.5424 -0.2614
  975TIP3   OH2 2857   6.013   6.906   4.846 -0.1281 -0.3876  0.8853
  975TIP3    H1 2858   6.032   6.814   4.867 -0.0128 -0.7616 -0.7755
  975TIP3    H2 2859   5.932   6.903   4.797  0.6174  0.2608 -0.3947
  976TIP3   OH2 2860   5.514   7.864   6.280 -0.2771  0.4304 -0.5633
  976TIP3    H1 2861   5.425   7.843   6.253  0.1002 -1.7166 -0.2399
  976TIP3    H2 2862   5.514   7.856   6.375  0.3225  0.1717 -0.5807
  977TIP3   OH2 2863   2.903   3.102   1.084  0.2530  0.3285  0.5931
  977TIP3    H1 2864   2.972   3.063   1.138 -0.8720 -1.0538  1.0564
  977TIP3    H2 2865   2.835   3.035   1.079 -0.0256  0.7438 -1.8619
  978TIP3   OH2 2866   1.468   3.268   2.683  0.2828  0.0638  0.0879
  978TIP3    H1 2867   1.509   3.303   2.762 -0.0231 -0.7906  0.6420
  978TIP3    H2 2868   1.443   3.179   2.707 -1.0130  0.2387 -0.5399
  979TIP3   OH2 2869   1.766   1.172   6.924  0.2748 -0.0578  0.1880
  979TIP3    H1 2870   1.789   1.105   6.989 -0.2373  0.8529  1.3363
  979TIP3    H2 2871   1.686   1.139   6.883 -0.0756 -0.0703  0.8744
  980TIP3   OH2 2872   4.018   2.659   0.459 -0.2202 -0.0465 -0.9386
  980TIP3    H1 2873   4.073   2.688   0.387  0.7642  1.1384  0.2629
  980TIP3    H2 2874   3.979   2.740   0.494 -1.9828 -0.7657 -1.1669
  981TIP3   OH2 2875   6.205   3.470   1.535 -0.2757 -0.2773 -0.2190
  981TIP3    H1 2876   6.179   3.541   1.594 -1.7049  0.3172 -1.5197
  981TIP3    H2 2877   6.277   3.507   1.484 -0.9405  0.2127 -0.8140
  982TIP3   OH2 2878   2.494   4.956   0.994  0.0777  0.6616 -0.1127
  982TIP3    H1 2879   2.558   4.897   1.033 -0.6044  0.4375  0.6901
  982TIP3    H2 2880   2.500   5.036   1.045  0.4411  1.0096 -0.6955
  983TIP3   OH2 2881   3.004   0.710   1.196  0.0390  0.4118  0.1190
  983TIP3    H1 2882   3.097   0.704   1.172  0.1141  1.8043  0.0661
  983TIP3    H2 2883   2.963   0.638   1.147  0.8445  0.7301 -1.0586
  984TIP3   OH2 2884   3.484   3.959   0.029 -0.1940 -0.2083  0.2480
  984TIP3    H1 2885   3.398   3.939   0.066 -2.0029  1.2095 -2.9423
  984TIP3    H2 2886   3.497   4.052   0.048  0.7845 -0.4852  0.9638
  985TIP3   OH2 2887   5.095   4.537   0.970  0.5201 -0.3617 -0.1510
  985TIP3    H1 2888   5.029   4.478   1.006 -0.3402 -0.5375 -1.9579
  985TIP3    H2 2889   5.176   4.485   0.967  0.2574 -0.7877  0.2047
  986TIP3   OH2 2890   0.567   0.708   4.728  0.2333 -0.1574 -0.3366
  986TIP3    H1 2891   0.582   0.632   4.672 -0.5022  0.4407 -1.3485
  986TIP3    H2 2892   0.480   0.693   4.765  1.5943 -1.6618  2.4419
  987TIP3   OH2 2893   2.614   2.954   0.528 -0.8428 -0.5929  0.1257
  987TIP3    H1 2894   2.524   2.972   0.501 -0.7909  0.0528  0.3984
  987TIP3    H2 2895   2.648   3.038   0.559 -0.7166 -1.2114  1.7068
  988TIP3   OH2 2896   1.357   6.741   6.036  0.1169 -0.2453  0.3736
  988TIP3    H1 2897   1.400   6.656   6.050 -1.9077 -1.2064  0.9495
  988TIP3    H2 2898   1.393   6.798   6.103 -0.0822 -1.2701  1.3630
  989TIP3   OH2 2899   2.178   3.849   0.967 -0.2934 -0.1024 -0.0401
  989TIP3    H1 2900   2.194   3.833   1.060  0.3141 -0.1287 -0.1495
  989TIP3    H2 2901   2.183   3.762   0.927  0.9458  0.0985 -0.3254
  990TIP3   OH2 2902   6.717   1.459   2.325 -0.1324 -0.5427 -0.1255
  990TIP3    H1 2903   6.689   1.543   2.360  0.1825 -1.0759  1.4215
  990TIP3    H2 2904   6.810   1.454   2.346 -0.1488 -1.2761 -0.2036
  991TIP3   OH2 2905   4.204   3.424   0.678  0.0002  0.1863  0.1490
  991TIP3    H1 2906   4.190   3.499   0.620  0.3846  2.0243  2.3680
  991TIP3    H2 2907   4.299   3.412   0.680 -0.0802 -0.5240 -0.4185
  992TIP3   OH2 2908   7.328   5.344   4.715  0.6006  0.3752  0.5228
  992TIP3    H1 2909   7.342   5.412   4.650  1.4981  0.8541  1.2059
  992TIP3    H2 2910   7.416   5.310   4.733  0.2836 -0.2030  0.9935
  993TIP3   OH2 2911   0.836   6.250   5.177  0.6628 -0.0529 -0.1152
  993TIP3    H1 2912   0.825   6.337   5.216 -2.1260 -0.1621 -0.5648
  993TIP3    H2 2913   0.769   6.196   5.219  0.2769 -1.1893 -2.1275
  994TIP3   OH2 2914   3.291   1.974   2.050  0.1383 -0.0142  0.5180
  994TIP3    H1 2915   3.342   2.052   2.075  1.4456 -0.9394  0.7786
  994TIP3    H2 2916   3.289   1.976   1.954  1.0415 -0.2066  0.4921
  995TIP3   OH2 2917   4.283   3.236   0.470  0.6868 -0.2335 -0.2631
  995TIP3    H1 2918   4.261   3.302   0.535 -0.9024 -0.9432 -0.0617
  995TIP3    H2 2919   4.254   3.153   0.508 -0.0455 -0.6899 -1.7478
  996TIP3   OH2 2920   3.886   3.576   1.127  0.2886 -0.5701 -0.2375
  996TIP3    H1 2921   3.907   3.488   1.098  1.5840 -0.4280  0.2312
  996TIP3    H2 2922   3.890   3.572   1.223 -1.2382 -0.3831 -0.1516
  997TIP3   OH2 2923   4.352   2.217   1.558 -0.1933 -0.1582 -0.5058
  997TIP3    H1 2924   4.427   2.158   1.567 -1.6582 -2.1161 -0.7023
  997TIP3    H2 2925   4.316   2.224   1.646 -0.7229 -0.5040 -0.6955
  998TIP3   OH2 2926   2.419   3.211   1.339  0.3090  0.0272 -0.2331
  998TIP3    H1 2927   2.398   3.179   1.251 -0.3625  1.1240 -0.4729
  998TIP3    H2 2928   2.504   3.254   1.331  0.9224 -1.1041 -0.0365
  999TIP3   OH2 2929   1.469   1.238   1.011  0.0223 -0.1688  0.3009
  999TIP3    H1 2930   1.506   1.213   0.927  0.6774  0.9039  0.2555
  999TIP3    H2 2931   1.528   1.200   1.076  0.5655  0.5491  0.2414
 1000TIP3   OH2 2932   1.345   4.335   0.797  0.2552 -0.2327 -0.1797
 1000TIP3    H1 2933   1.340   4.336   0.892 -1.6480  1.7585 -0.2501
 1000TIP3    H2 2934   1.357   4.243   0.774  0.5881 -0.7549  1.9503
 1001TIP3   OH2 2935   4.034   2.006   2.880 -0.2432 -0.0279  0.3962
 1001TIP3    H1 2936   3.982   1.938   2.838  0.5848 -0.7114  0.4636
 1001TIP3    H2 2937   4.114   2.012   2.828 -0.7126  1.5722 -0.1789
 1002TIP3   OH2 2938   6.707   6.195   6.902  0.1991 -0.4440  0.3484
 1002TIP3    H1 2939   6.624   6.242   6.900  0.6487  0.4472  1.8721
 1002TIP3    H2 2940   6.700   6.137   6.978  1.7849  1.2574  1.8703
 1003TIP3   OH2 2941   2.926   5.274   1.599  0.0555 -0.5879  0.2012
 1003TIP3    H1 2942   2.910   5.363   1.566 -0.2167 -1.1705 -1.2768
 1003TIP3    H2 2943   2.839   5.235   1.606  0.2126 -0.9053  0.3724
 1004TIP3   OH2 2944   4.394   4.997   0.741 -0.5190 -0.5841  0.0472
 1004TIP3    H1 2945   4.311   4.955   0.763 -0.8725 -0.5304 -1.1439
 1004TIP3    H2 2946   4.457   4.925   0.736 -0.1917 -0.4794  2.2753
 1005TIP3   OH2 2947   2.249   5.620   1.585  0.1352  0.5920  0.1263
 1005TIP3    H1 2948   2.333   5.578   1.566  0.0623 -0.0405  1.1506
 1005TIP3    H2 2949   2.247   5.627   1.680 -1.2669 -0.0150  0.1532
 1006TIP3   OH2 2950   1.893   4.076   2.068  0.2807 -0.7157 -0.3128
 1006TIP3    H1 2951   1.934   4.161   2.056 -1.4929 -0.0196 -1.6533
 1006TIP3    H2 2952   1.924   4.023   1.995 -0.1248 -0.6043 -0.5696
 1007TIP3   OH2 2953   1.946   5.272   4.123  0.2242 -0.0742 -0.2552
 1007TIP3    H1 2954   1.996   5.312   4.051  0.4025 -1.0000 -0.6529
 1007TIP3    H2 2955   1.887   5.211   4.079 -0.5133  0.2316  0.3026
 1008TIP3   OH2 2956   1.664   0.706   5.038  0.2810  0.6106  0.4409
 1008TIP3    H1 2957   1.735   0.763   5.009  1.4053 -1.4985 -1.0450
 1008TIP3    H2 2958   1.585   0.759   5.025  1.4937  2.7364  1.4855
 1009TIP3   OH2 2959   4.979   3.838   3.330  0.0603 -0.6485  0.3115
 1009TIP3    H1 2960   4.946   3.927   3.341  0.2715 -0.7027  1.4324
 1009TIP3    H2 2961   4.925   3.784   3.388 -0.2375 -1.2961 -0.5498
 1010TIP3   OH2 2962   6.263   1.043   6.334 -0.1321  0.1110 -0.6903
 1010TIP3    H1 2963   6.305   1.102   6.272  0.2092 -0.6878 -1.2416
 1010TIP3    H2 2964   6.330   1.028   6.401  1.3583 -2.8840 -2.6945
 1011TIP3   OH2 2965   2.564   4.553   1.072 -0.5523 -0.5178 -0.2390
 1011TIP3    H1 2966   2.566   4.483   1.006 -1.2180 -0.5997 -0.1801
 1011TIP3    H2 2967   2.490   4.529   1.129  0.6962 -1.0405  1.1914
 1012TIP3   OH2 2968   0.631   3.543   6.218 -0.6432 -0.1508 -0.0927
 1012TIP3    H1 2969   0.647   3.624   6.267  0.1968 -0.0082 -0.6052
 1012TIP3    H2 2970   0.601   3.481   6.284 -3.6263  1.2352 -0.0211
 1013TIP3   OH2 2971   8.062   0.485   6.512 -0.0570  0.1670  0.0874
 1013TIP3    H1 2972   7.980   0.521   6.479  0.2804  1.1569  0.3256
 1013TIP3    H2 2973   8.121   0.487   6.437 -0.8349 -2.4205 -0.6345
 1014TIP3   OH2 2974   4.987   3.522   3.046 -0.1139 -0.5153  0.9118
 1014TIP3    H1 2975   4.907   3.544   2.997 -0.3879 -3.3270 -0.0068
 1014TIP3    H2 2976   5.052   3.586   3.015 -1.6413  0.9735  0.6883
 1015TIP3   OH2 2977   2.106   5.507   3.894  0.4577 -0.5601 -0.1604
 1015TIP3    H1 2978   2.047   5.473   3.828  1.8658 -1.1742 -1.1301
 1015TIP3    H2 2979   2.056   5.575   3.939 -1.1284 -1.4124 -0.6279
 1016TIP3   OH2 2980   3.030   4.529   2.132 -0.0946 -0.2929 -0.1498
 1016TIP3    H1 2981   2.978   4.555   2.057  0.2750  0.3754 -0.1750
 1016TIP3    H2 2982   2.980   4.459   2.173 -1.1772  0.5819  0.0327
 1017TIP3   OH2 2983   3.956   4.989   1.134 -0.2267  0.4950 -0.6655
 1017TIP3    H1 2984   3.976   5.040   1.055  0.9045 -1.0136 -1.3807
 1017TIP3    H2 2985   4.014   4.913   1.129 -0.5116  0.1137  1.3728
 1018TIP3   OH2 2986   7.306   6.253   6.081  0.3098  0.4688 -0.2170
 1018TIP3    H1 2987   7.359   6.178   6.053 -0.2746  0.6598 -1.9402
 1018TIP3    H2 2988   7.282   6.234   6.171 -1.0619 -2.1454 -1.0752
 1019TIP3   OH2 2989   6.704   5.573   5.894 -0.5904 -0.4596  0.5449
 1019TIP3    H1 2990   6.781   5.613   5.936 -0.0967 -0.8287 -0.0116
 1019TIP3    H2 2991   6.637   5.641   5.900 -0.0722  0.0590  0.5793
 1020TIP3   OH2 2992   6.223   2.909   0.885  0.0275 -0.1464  0.6943
 1020TIP3    H1 2993   6.148   2.892   0.941 -0.9863 -1.2932 -0.9683
 1020TIP3    H2 2994   6.295   2.860   0.925 -0.1095  0.9210  2.2665
 1021TIP3   OH2 2995   4.130   2.066   1.499  0.3149  0.1557  0.6744
 1021TIP3    H1 2996   4.165   1.978   1.508 -0.6106 -0.2024  0.7748
 1021TIP3    H2 2997   4.207   2.122   1.495  0.8960 -0.5920  1.2873
 1022TIP3   OH2 2998   5.169   3.539   0.931 -0.0718  0.3869 -0.4115
 1022TIP3    H1 2999   5.079   3.508   0.928  0.3173 -0.8055 -0.1437
 1022TIP3    H2 3000   5.171   3.601   1.004 -1.1348  1.9655 -1.6921
 1023TIP3   OH2 3001   1.793   5.217   0.307  0.2430 -0.1633 -1.0741
 1023TIP3    H1 3002   1.749   5.186   0.228 -0.3218 -0.1948 -0.7473
 1023TIP3    H2 3003   1.782   5.146   0.370 -2.1058  1.1708  0.0730
 1024TIP3   OH2 3004   0.515   0.299   5.437  0.2797  0.2108 -0.5463
 1024TIP3    H1 3005   0.530   0.390   5.411  1.9411 -0.3832 -1.8402
 1024TIP3    H2 3006   0.456   0.264   5.369  1.1289 -0.1543 -1.1157
 1025TIP3   OH2 3007   3.304   0.929   0.025 -0.3324 -0.2170 -0.2085
 1025TIP3    H1 3008   3.352   0.990  -0.030  0.3277 -0.4424  0.1057
 1025TIP3    H2 3009   3.354   0.926   0.107  0.1327 -1.8330 -0.5324
 1026TIP3   OH2 3010   6.542   7.581   4.634 -0.2723 -0.0645 -0.7608
 1026TIP3    H1 3011   6.530   7.513   4.567 -1.3328  0.3033 -0.9635
 1026TIP3    H2 3012   6.602   7.644   4.594  2.2420 -1.8058  0.1446
 1027TIP3   OH2 3013   3.885   4.593   1.042  0.2686 -0.2740  0.4891
 1027TIP3    H1 3014   3.966   4.545   1.060  0.4432  0.0355  0.5392
 1027TIP3    H2 3015   3.844   4.605   1.128  0.5001  0.1468  0.5428
 1028TIP3   OH2 3016   3.670   2.237   1.317  0.6008  0.0868 -0.3969
 1028TIP3    H1 3017   3.763   2.214   1.319  1.0511  1.8990  2.1678
 1028TIP3    H2 3018   3.624   2.155   1.335  1.8680 -0.1977  1.7387
 1029TIP3   OH2 3019   1.138   3.086   3.292  0.0653 -0.4779 -0.0459
 1029TIP3    H1 3020   1.223   3.126   3.272  0.2713 -1.1355 -0.5133
 1029TIP3    H2 3021   1.090   3.154   3.340  0.8058 -0.0581  0.1063
 1030TIP3   OH2 3022   3.061   3.877   0.986  0.5748 -0.0283  0.2874
 1030TIP3    H1 3023   3.084   3.877   0.893  2.1515  0.2558  0.6492
 1030TIP3    H2 3024   3.022   3.791   1.001  0.5282 -0.1641 -0.5838
 1031TIP3   OH2 3025   4.220   0.534   2.749  0.5991  0.1358 -0.7582
 1031TIP3    H1 3026   4.180   0.548   2.663  0.5006 -1.2809 -0.9515
 1031TIP3    H2 3027   4.301   0.487   2.731  0.6536 -0.0324 -0.0879
 1032TIP3   OH2 3028   5.400   6.349   3.059  0.0605 -0.2825  0.5919
 1032TIP3    H1 3029   5.376   6.381   3.146  0.6499  0.7214  0.3891
 1032TIP3    H2 3030   5.356   6.407   2.998  0.0108 -0.7097  0.2135
 1033TIP3   OH2 3031   0.461   0.379   5.701 -0.5607  0.2158 -0.4933
 1033TIP3    H1 3032   0.464   0.307   5.764  0.9945  0.3389 -0.4169
 1033TIP3    H2 3033   0.481   0.338   5.617  1.7854  0.7689 -0.2400
 1034TIP3   OH2 3034   4.612   4.848   0.754 -0.7397  1.0159  0.1804
 1034TIP3    H1 3035   4.675   4.920   0.744 -0.3950  0.6130 -0.5843
 1034TIP3    H2 3036   4.649   4.795   0.824 -0.8113  1.3854  0.5042
 1035TIP3   OH2 3037   4.569   4.799   1.498  0.0826  0.0965  0.2218
 1035TIP3    H1 3038   4.536   4.766   1.582 -1.0100  0.1672 -0.1643
 1035TIP3    H2 3039   4.625   4.730   1.465 -1.3001 -0.9286 -0.0471
 1036TIP3   OH2 3040   7.048   5.370   5.776 -0.0749  0.1111  0.1022
 1036TIP3    H1 3041   7.079   5.383   5.686 -2.1828 -0.1735 -0.7067
 1036TIP3    H2 3042   7.047   5.458   5.814  2.3489  0.0371  0.3888
 1037TIP3   OH2 3043   5.179   3.510   0.494  0.3665 -0.0548 -0.5351
 1037TIP3    H1 3044   5.219   3.423   0.497 -0.0277 -0.2925 -1.8667
 1037TIP3    H2 3045   5.086   3.495   0.508 -0.0363 -0.1205 -2.9888
 1038TIP3   OH2 3046   6.707   5.138   1.821  0.0574  0.0236 -0.2120
 1038TIP3    H1 3047   6.722   5.228   1.794  1.1311  0.0276  0.3728
 1038TIP3    H2 3048   6.683   5.092   1.740  0.6542  0.5867 -0.7124
 1039TIP3   OH2 3049   3.491   4.710   1.396 -0.6344  0.1578  0.4034
 1039TIP3    H1 3050   3.487   4.710   1.492  0.6358 -1.0074  0.4594
 1039TIP3    H2 3051   3.491   4.803   1.373  0.7238  0.4823  1.6120
 1040TIP3   OH2 3052   4.674   3.146   2.418  0.1054  0.7239  0.0063
 1040TIP3    H1 3053   4.757   3.099   2.423  0.0366  0.6022 -0.0121
 1040TIP3    H2 3054   4.616   3.098   2.477  0.0943  0.9054  0.1447
 1041TIP3   OH2 3055   4.695   0.407   5.949  0.1078  0.1833  0.5881
 1041TIP3    H1 3056   4.771   0.357   5.918  1.0456  1.1783  1.2241
 1041TIP3    H2 3057   4.674   0.370   6.034  0.0211  0.0470  0.5071
 1042TIP3   OH2 3058   4.279   1.447   0.312  0.1293  0.2767  0.3549
 1042TIP3    H1 3059   4.263   1.538   0.287 -3.4463 -0.0572  1.1584
 1042TIP3    H2 3060   4.262   1.397   0.232 -1.2954  0.0501  0.7911
 1043TIP3   OH2 3061   5.897   3.485   0.640 -0.5784  0.7632  0.2568
 1043TIP3    H1 3062   5.917   3.498   0.547  0.0731 -0.5620  0.2027
 1043TIP3    H2 3063   5.978   3.505   0.686 -0.3173 -0.5162  0.3735
 1044TIP3   OH2 3064   5.373   3.138   1.902  0.1379  0.3492 -0.1175
 1044TIP3    H1 3065   5.300   3.091   1.942  0.1211  0.8442  0.4368
 1044TIP3    H2 3066   5.373   3.109   1.811 -0.0707 -0.4805  0.1435
 1045TIP3   OH2 3067   8.420   6.080   6.145 -0.4822  0.7213 -0.2085
 1045TIP3    H1 3068   8.353   6.118   6.088 -0.6290 -0.2069 -0.6597
 1045TIP3    H2 3069   8.456   6.007   6.095  0.2331  0.6466  0.4040
 1046TIP3   OH2 3070   1.472   7.140   6.785  0.4272  0.3286 -0.1219
 1046TIP3    H1 3071   1.550   7.085   6.790  0.1097 -0.1823 -0.6612
 1046TIP3    H2 3072   1.418   7.098   6.718  0.0552  1.1474 -0.3382
 1047TIP3   OH2 3073   6.237   2.922   1.398 -0.1082 -0.8238  0.3189
 1047TIP3    H1 3074   6.242   3.003   1.449 -0.5291 -0.6991  0.1579
 1047TIP3    H2 3075   6.205   2.950   1.312  1.2589 -0.9313 -0.2435
 1048TIP3   OH2 3076   0.403   2.287   1.167  0.2701  0.0218  0.3312
 1048TIP3    H1 3077   0.313   2.319   1.168  0.1671 -0.2520  2.1504
 1048TIP3    H2 3078   0.449   2.347   1.108 -0.6876  1.3616  0.9234
 1049TIP3   OH2 3079   5.429   3.413   1.737 -0.0977  0.2555 -0.0087
 1049TIP3    H1 3080   5.458   3.367   1.658 -0.0294 -0.5277  0.4688
 1049TIP3    H2 3081   5.502   3.404   1.798 -0.5064  0.0873  0.4573
 1050TIP3   OH2 3082   5.740   3.260   1.011 -0.3184  0.4374 -0.0588
 1050TIP3    H1 3083   5.727   3.272   0.917 -0.0634  0.1177 -0.1389
 1050TIP3    H2 3084   5.708   3.340   1.051  1.9839  1.6656 -0.6085
 1051TIP3   OH2 3085   5.430   7.553   6.791 -0.1399 -0.1871  0.4167
 1051TIP3    H1 3086   5.381   7.532   6.870 -0.6310  1.9656  0.7160
 1051TIP3    H2 3087   5.366   7.595   6.733  0.7447  0.3288 -0.1997
 1052TIP3   OH2 3088   6.530   1.990   0.595  0.3027  0.1797  0.0425
 1052TIP3    H1 3089   6.552   1.922   0.659 -0.3821  1.0445  1.2331
 1052TIP3    H2 3090   6.444   1.964   0.562  0.4961 -0.0738 -0.2655
 1053TIP3   OH2 3091   0.673   6.222   6.833  0.1599  0.4925 -0.5758
 1053TIP3    H1 3092   0.737   6.275   6.786 -1.4356  2.7481 -0.3252
 1053TIP3    H2 3093   0.675   6.257   6.922  0.5735 -1.3167  0.1385
 1054TIP3   OH2 3094   5.452   4.828   0.368 -0.0251 -0.3490 -0.3863
 1054TIP3    H1 3095   5.457   4.756   0.431  0.8914  0.1683  0.1306
 1054TIP3    H2 3096   5.542   4.856   0.357 -0.3965  0.7898 -0.5144
 1055TIP3   OH2 3097   5.548   3.842   0.993 -0.2766  0.0995  0.8848
 1055TIP3    H1 3098   5.469   3.882   0.956  0.6368  1.9621  0.9188
 1055TIP3    H2 3099   5.598   3.915   1.028  0.4855 -1.3010  2.7695
 1056TIP3   OH2 3100   3.413   3.485   0.579  0.0655  0.2852 -0.8999
 1056TIP3    H1 3101   3.336   3.430   0.566  0.4885 -0.1408 -1.6193
 1056TIP3    H2 3102   3.386   3.550   0.644 -0.0794 -1.5344  0.9221
 1057TIP3   OH2 3103   4.332   2.475   1.314  0.1985  0.0308  0.0144
 1057TIP3    H1 3104   4.283   2.488   1.395 -1.0993  1.5879 -0.9973
 1057TIP3    H2 3105   4.285   2.404   1.269 -0.4479  0.7173 -0.4089
 1058TIP3   OH2 3106   1.873   7.451   6.935 -0.0737 -0.1603  0.8500
 1058TIP3    H1 3107   1.968   7.453   6.936 -0.0711 -0.2053  1.5285
 1058TIP3    H2 3108   1.849   7.408   6.853  0.4593  1.3091 -0.0888
 1059TIP3   OH2 3109   4.673   4.537   0.517 -0.1578 -0.0030  0.3388
 1059TIP3    H1 3110   4.683   4.442   0.510 -1.1072 -0.2270  1.8601
 1059TIP3    H2 3111   4.608   4.559   0.449 -0.5211 -0.5584  0.5016
 1060TIP3   OH2 3112   5.063   4.023   1.345  0.1218  0.0435 -0.4537
 1060TIP3    H1 3113   5.133   4.088   1.348  1.9128 -1.8602 -0.0233
 1060TIP3    H2 3114   5.057   3.990   1.435 -0.6333 -0.5122 -0.7013
 1061TIP3   OH2 3115   5.005   5.765   2.416  0.3658  0.3433 -0.0199
 1061TIP3    H1 3116   5.083   5.753   2.362  0.2549 -0.2433 -0.0492
 1061TIP3    H2 3117   4.981   5.677   2.445  1.1509  0.7810  2.0303
 1062TIP3   OH2 3118   3.880   3.090   0.905  0.6149 -0.2447 -0.3066
 1062TIP3    H1 3119   3.906   3.163   0.849 -0.2181  0.4021  0.1436
 1062TIP3    H2 3120   3.803   3.052   0.861 -0.1021  0.3257  0.4333
 1063TIP3   OH2 3121   1.930   3.642   0.735  0.7312  0.1621  0.6773
 1063TIP3    H1 3122   1.884   3.559   0.744 -0.3308  0.8526  1.7582
 1063TIP3    H2 3123   2.000   3.638   0.800  1.1850 -0.2028  0.1751
 1064TIP3   OH2 3124   4.856   3.263   2.652  0.2407 -0.0189 -0.1163
 1064TIP3    H1 3125   4.797   3.263   2.728 -1.2325  0.8246 -1.2409
 1064TIP3    H2 3126   4.852   3.353   2.619  1.0173 -0.3389 -1.0987
 1065TIP3   OH2 3127   4.867   2.316   2.179 -0.0220  0.0749 -0.7829
 1065TIP3    H1 3128   4.798   2.316   2.114 -0.4776 -1.5500 -0.3326
 1065TIP3    H2 3129   4.828   2.358   2.256 -0.7910 -1.5443 -0.2674
 1066TIP3   OH2 3130   5.168   6.382   1.730 -0.0657 -0.5284  0.2218
 1066TIP3    H1 3131   5.263   6.382   1.740  0.0608 -0.9847 -0.8875
 1066TIP3    H2 3132   5.138   6.310   1.786  0.1679  0.0797  1.1416
 1067TIP3   OH2 3133   4.401   2.473   0.588  0.6202 -0.3580 -0.3456
 1067TIP3    H1 3134   4.346   2.423   0.648 -1.8964 -0.0534 -2.3078
 1067TIP3    H2 3135   4.425   2.552   0.637  0.9542 -1.4167  1.2211
 1068TIP3   OH2 3136   2.435   2.336   0.046 -0.0273 -0.6382 -0.2363
 1068TIP3    H1 3137   2.424   2.354   0.139 -2.1623  0.4692 -0.6700
 1068TIP3    H2 3138   2.521   2.294   0.039  0.4656 -0.0586  2.1218
 1069TIP3   OH2 3139   7.577   1.127   1.197  0.1038 -0.0818 -0.2690
 1069TIP3    H1 3140   7.619   1.056   1.246 -1.4197 -1.0314 -0.2964
 1069TIP3    H2 3141   7.535   1.083   1.122 -0.0133  0.9802 -0.8411
 1070TIP3   OH2 3142   6.997   4.620   1.495  0.2052 -0.0615 -0.0513
 1070TIP3    H1 3143   7.015   4.691   1.434  0.0064 -0.0321 -0.0753
 1070TIP3    H2 3144   6.950   4.555   1.443  1.4336 -0.7338 -0.3319
 1071TIP3   OH2 3145   5.971   2.802   1.034 -0.4881  0.4440  0.2857
 1071TIP3    H1 3146   5.879   2.800   1.007 -0.6899  0.5837  0.9474
 1071TIP3    H2 3147   5.968   2.835   1.124  0.1900  0.2012  0.3938
 1072TIP3   OH2 3148   0.567   5.719   6.713 -0.3008 -0.0096  0.4132
 1072TIP3    H1 3149   0.545   5.657   6.644 -1.3592  0.0182  0.7106
 1072TIP3    H2 3150   0.502   5.789   6.704  1.1669  1.3128 -0.2232
 1073TIP3   OH2 3151   7.548   2.281   0.120  0.0425  0.7090 -0.5532
 1073TIP3    H1 3152   7.612   2.243   0.061 -0.4743 -0.9869 -0.0579
 1073TIP3    H2 3153   7.579   2.258   0.208 -1.0695  0.1375 -0.2971
 1074TIP3   OH2 3154   0.950   1.488   6.091 -0.0612 -0.5776 -0.8023
 1074TIP3    H1 3155   0.859   1.479   6.119 -0.2467  2.2365 -0.3492
 1074TIP3    H2 3156   0.994   1.531   6.164  1.0927  0.1677 -1.9109
 1075TIP3   OH2 3157   4.759   1.388   0.433 -0.1536 -0.4011 -0.4143
 1075TIP3    H1 3158   4.722   1.358   0.350  0.2084  1.5990 -1.3077
 1075TIP3    H2 3159   4.691   1.443   0.471  0.8592  1.1816 -0.8506
 1076TIP3   OH2 3160   1.266   5.695   6.878 -0.0466 -0.4226  0.2775
 1076TIP3    H1 3161   1.359   5.681   6.895  0.1068  0.3182  0.0916
 1076TIP3    H2 3162   1.239   5.619   6.826  1.2589  0.9559 -2.5240
 1077TIP3   OH2 3163   3.091   1.590   2.740  0.1541 -0.2285  0.6427
 1077TIP3    H1 3164   3.093   1.524   2.670 -0.7455  0.8409 -0.3899
 1077TIP3    H2 3165   3.126   1.669   2.700  0.4108  0.1790  1.6465
 1078TIP3   OH2 3166   2.934   2.924   0.684  0.2549 -0.7164  0.1306
 1078TIP3    H1 3167   2.906   2.889   0.599 -0.1826 -0.0379 -0.0135
 1078TIP3    H2 3168   2.880   3.002   0.696  1.6357  0.2677  0.1343
 1079TIP3   OH2 3169   4.675   1.566   1.754 -0.1382  0.5719  0.3352
 1079TIP3    H1 3170   4.652   1.658   1.738 -2.2688 -0.0005 -0.0651
 1079TIP3    H2 3171   4.592   1.523   1.771  0.7961 -1.3677  0.1842
 1080TIP3   OH2 3172   3.161   0.814   0.488  0.6535  0.2900  0.3631
 1080TIP3    H1 3173   3.085   0.781   0.439  2.0200 -3.3427  0.5484
 1080TIP3    H2 3174   3.125   0.843   0.571 -0.4876 -2.4460  0.8971
 1081TIP3   OH2 3175   6.309   3.631   0.630  0.2774 -0.3461  0.2894
 1081TIP3    H1 3176   6.262   3.641   0.547  0.7510 -0.9069 -0.0621
 1081TIP3    H2 3177   6.251   3.578   0.685  0.1700 -0.3903  0.1332
 1082TIP3   OH2 3178   5.948   3.513   0.338  0.3277 -0.7508 -0.0575
 1082TIP3    H1 3179   6.013   3.510   0.268 -0.3374 -0.3728 -0.6967
 1082TIP3    H2 3180   5.870   3.551   0.297  0.5272  1.2778  1.3615
 1083TIP3   OH2 3181   6.217   5.726   6.453  0.2171 -0.3457  0.2518
 1083TIP3    H1 3182   6.206   5.821   6.455  1.4676 -0.2104  1.3309
 1083TIP3    H2 3183   6.211   5.703   6.360 -3.9648  0.2689  0.2614
 1084TIP3   OH2 3184   1.947   2.088   1.269 -0.4693  0.2466  0.5127
 1084TIP3    H1 3185   1.856   2.081   1.300 -0.4580  1.0016  0.7130
 1084TIP3    H2 3186   1.944   2.155   1.201 -0.4923 -1.3859 -1.1419
 1085TIP3   OH2 3187   7.192   3.542   0.247 -0.5344 -0.2200 -0.2111
 1085TIP3    H1 3188   7.203   3.479   0.176 -0.6942 -0.7931  0.2620
 1085TIP3    H2 3189   7.170   3.624   0.204  0.2388 -0.3549 -0.8634
 1086TIP3   OH2 3190   5.507   5.609   0.970 -0.1080 -0.1719 -0.3929
 1086TIP3    H1 3191   5.536   5.700   0.961 -0.8349  0.3107  1.7548
 1086TIP3    H2 3192   5.415   5.616   0.995  0.0208 -1.4926  0.4818
 1087TIP3   OH2 3193   6.296   2.649   0.423 -0.1873  0.5150  0.1743
 1087TIP3    H1 3194   6.272   2.710   0.354  1.6327  1.3753  0.2793
 1087TIP3    H2 3195   6.246   2.677   0.499  2.4710  3.4968  0.9443
 1088TIP3   OH2 3196   6.512   3.494   1.463 -0.2838  0.3987 -0.0411
 1088TIP3    H1 3197   6.498   3.474   1.370  0.2896 -0.3227  0.0202
 1088TIP3    H2 3198   6.604   3.521   1.467 -0.2516  0.2206  0.3538
 1089TIP3   OH2 3199   7.382   5.347   6.938  0.0936 -0.3361  0.1411
 1089TIP3    H1 3200   7.336   5.292   6.875 -0.3758  0.1728  0.0399
 1089TIP3    H2 3201   7.323   5.419   6.955  1.1093  0.6561 -0.4685
 1090TIP3   OH2 3202   6.505   3.079   2.045  0.4407  0.3195  0.1530
 1090TIP3    H1 3203   6.485   3.161   2.089 -0.8363  0.0181  0.1451
 1090TIP3    H2 3204   6.600   3.069   2.056  0.3135  0.7804  1.9128
 1091TIP3   OH2 3205   1.764   0.228   4.745  0.0560  0.2642 -0.2183
 1091TIP3    H1 3206   1.715   0.242   4.826 -1.9143 -0.9996 -1.1585
 1091TIP3    H2 3207   1.732   0.295   4.686  2.1637  1.7818  0.2852
 1092TIP3   OH2 3208   4.459   3.098   1.722 -0.0019  0.0053 -0.1653
 1092TIP3    H1 3209   4.449   3.180   1.674 -1.0571 -0.3912 -0.6386
 1092TIP3    H2 3210   4.450   3.122   1.814 -1.0004  0.3123 -0.3437
 1093TIP3   OH2 3211   0.054   6.452   6.565  0.5597 -0.7784  0.6437
 1093TIP3    H1 3212   0.011   6.478   6.484 -0.4365 -0.1608  1.3470
 1093TIP3    H2 3213   0.103   6.529   6.593  0.5246 -0.8354  0.8659
 1094TIP3   OH2 3214   4.547   4.153   0.852  0.0872 -0.0117  0.6403
 1094TIP3    H1 3215   4.639   4.150   0.879  0.7433 -0.4472 -1.5163
 1094TIP3    H2 3216   4.522   4.061   0.846  0.2225  0.0480 -1.0322
 1095TIP3   OH2 3217   7.423   2.928   1.098 -0.4042  0.5810 -0.3833
 1095TIP3    H1 3218   7.440   2.900   1.188 -2.2546  0.1507 -0.1687
 1095TIP3    H2 3219   7.508   2.919   1.055  0.0005 -1.3301  0.7467
 1096TIP3   OH2 3220   4.472   3.010   1.350  0.3558 -0.6800  0.2420
 1096TIP3    H1 3221   4.391   3.056   1.327  1.4226  0.2756 -1.7224
 1096TIP3    H2 3222   4.442   2.926   1.386 -1.5275  0.1617  0.7412
 1097TIP3   OH2 3223   7.334   4.617  -0.006 -0.2645  0.4574  0.4902
 1097TIP3    H1 3224   7.369   4.701  -0.035  0.5688 -0.1386 -0.2508
 1097TIP3    H2 3225   7.348   4.616   0.088  0.7904  0.6485  0.3389
 1098TIP3   OH2 3226   7.205   6.310   6.926 -0.4744 -0.5102 -0.6633
 1098TIP3    H1 3227   7.171   6.230   6.886 -1.2185 -0.9438  0.8366
 1098TIP3    H2 3228   7.280   6.333   6.871  0.5725 -2.9801 -0.3327
 1099TIP3   OH2 3229   4.295   0.445   5.078 -0.5696  0.2018  0.1200
 1099TIP3    H1 3230   4.298   0.366   5.131  2.5700  0.7033  0.8460
 1099TIP3    H2 3231   4.386   0.457   5.049 -1.6099  1.7215 -2.6974
 1100TIP3   OH2 3232   7.026   5.965   6.162 -0.3803 -0.1419 -0.1468
 1100TIP3    H1 3233   7.001   6.051   6.196  0.8726  0.2167 -0.1307
 1100TIP3    H2 3234   6.996   5.904   6.229 -0.9822  0.3034 -0.0059
 1101TIP3   OH2 3235   3.744   2.979   1.826  0.2302  0.3057 -0.2815
 1101TIP3    H1 3236   3.709   3.067   1.824 -0.7707 -0.0894 -0.4975
 1101TIP3    H2 3237   3.802   2.974   1.750 -0.6890  0.3887 -0.9974
 1102TIP3   OH2 3238   2.338   1.162   6.547  0.0444  0.1742  0.2355
 1102TIP3    H1 3239   2.339   1.258   6.541 -0.1449  0.1214 -0.7834
 1102TIP3    H2 3240   2.401   1.142   6.616 -0.8398  1.0928  1.3300
 1103TIP3   OH2 3241   0.880   0.574   5.092 -0.1107  0.0901  0.1570
 1103TIP3    H1 3242   0.816   0.629   5.046  0.4443 -0.6024 -1.4818
 1103TIP3    H2 3243   0.877   0.605   5.182 -1.2995  1.4286 -0.3139
 1104TIP3   OH2 3244   7.609   4.600   1.813 -0.8161 -0.2158  0.0858
 1104TIP3    H1 3245   7.622   4.683   1.857 -1.6428  0.4822 -0.9548
 1104TIP3    H2 3246   7.598   4.623   1.721 -1.0957 -1.4686 -0.2110
 1105TIP3   OH2 3247   3.537   2.630   2.573 -0.2350  0.0577  0.5003
 1105TIP3    H1 3248   3.451   2.588   2.563  0.7558 -1.7369 -0.8412
 1105TIP3    H2 3249   3.592   2.562   2.613  0.7750  0.9209  0.6018
 1106TIP3   OH2 3250   3.037   3.194   0.857 -1.3568 -0.7081  0.2899
 1106TIP3    H1 3251   3.016   3.180   0.949  0.1153 -0.6213  0.6475
 1106TIP3    H2 3252   3.102   3.264   0.858 -1.1370 -0.8938 -0.7976
 1107TIP3   OH2 3253   2.179   8.017   2.090  0.0752  0.0048 -0.0391
 1107TIP3    H1 3254   2.241   8.083   2.121  0.6570 -1.4087  1.8948
 1107TIP3    H2 3255   2.231   7.937   2.083 -0.8675 -0.4992 -1.3012
 1108TIP3   OH2 3256   5.648   2.645   0.662  0.1721  0.0609 -0.5198
 1108TIP3    H1 3257   5.654   2.565   0.610  0.4078  0.4182 -1.0396
 1108TIP3    H2 3258   5.737   2.659   0.694  0.0285 -0.1608 -0.0048
 1109TIP3   OH2 3259   5.283   3.911   0.335 -0.0394  0.0200  0.3453
 1109TIP3    H1 3260   5.327   3.915   0.420  2.4586 -0.8897 -0.8387
 1109TIP3    H2 3261   5.293   3.820   0.307 -1.0517  0.2549 -0.8272
 1110TIP3   OH2 3262   6.655   6.706   6.578 -0.2309 -0.1465 -0.5791
 1110TIP3    H1 3263   6.625   6.623   6.614 -0.0933  0.4246  0.9087
 1110TIP3    H2 3264   6.575   6.759   6.570 -0.1142  0.1173 -0.0318
 1111TIP3   OH2 3265   5.424   2.127   0.111  0.3172 -0.6887  0.6734
 1111TIP3    H1 3266   5.395   2.068   0.181 -0.8778 -0.4071  0.4363
 1111TIP3    H2 3267   5.388   2.213   0.138  2.4756  0.0436  1.2962
 1112TIP3   OH2 3268   5.781   2.736   1.941  0.2118 -0.6706 -0.7628
 1112TIP3    H1 3269   5.873   2.720   1.921  0.7595 -1.7830  2.3206
 1112TIP3    H2 3270   5.778   2.828   1.969  0.1323 -0.2673 -2.0519
 1113TIP3   OH2 3271   2.026   7.376   6.267  0.5350  0.5044 -0.2162
 1113TIP3    H1 3272   2.119   7.356   6.279 -0.0403 -2.1076  0.2249
 1113TIP3    H2 3273   1.996   7.408   6.352  0.6187 -0.4233  0.1642
 1114TIP3   OH2 3274   3.207   3.156   1.545  0.0516  0.3333 -0.4316
 1114TIP3    H1 3275   3.194   3.249   1.565  0.4598  0.0968  1.0454
 1114TIP3    H2 3276   3.301   3.147   1.531 -0.0469  0.2211 -1.0339
 1115TIP3   OH2 3277   1.358   1.123   5.513  0.1555 -0.3066  0.4383
 1115TIP3    H1 3278   1.353   1.187   5.585  0.4542  0.8291 -0.5239
 1115TIP3    H2 3279   1.270   1.121   5.477  0.6011  1.0711 -0.7839
 1116TIP3   OH2 3280   4.816   4.434   0.261  0.3077  0.0923 -0.1182
 1116TIP3    H1 3281   4.834   4.384   0.182  0.7267  1.6166 -1.0034
 1116TIP3    H2 3282   4.776   4.370   0.321  1.0427 -1.3449 -1.1219
 1117TIP3   OH2 3283   4.691   2.627   2.606  0.0906  0.1329 -0.5132
 1117TIP3    H1 3284   4.642   2.665   2.679 -0.6609  0.7560 -1.3241
 1117TIP3    H2 3285   4.777   2.607   2.642  1.1134  4.2189 -0.4724
 1118TIP3   OH2 3286   3.077   4.971   1.352  0.9408 -0.3568  0.0397
 1118TIP3    H1 3287   3.144   4.902   1.348  1.7045  0.4149 -0.6707
 1118TIP3    H2 3288   3.125   5.050   1.374  0.3627  0.3409 -1.1361
 1119TIP3   OH2 3289   4.535   2.656   2.141 -0.4067  0.3540  0.3190
 1119TIP3    H1 3290   4.559   2.700   2.222  2.3954 -0.3469 -0.0658
 1119TIP3    H2 3291   4.549   2.723   2.073 -2.6008  0.8944  0.3607
 1120TIP3   OH2 3292   1.203   6.630   6.837  0.1003 -0.3053  1.0468
 1120TIP3    H1 3293   1.154   6.553   6.809 -0.2164  0.4006 -0.4301
 1120TIP3    H2 3294   1.276   6.636   6.775  0.9085 -0.1892  1.9897
 1121TIP3   OH2 3295   3.811   0.573   6.530  0.3459 -0.2583  0.1577
 1121TIP3    H1 3296   3.898   0.560   6.569 -0.0329 -0.4462  0.9429
 1121TIP3    H2 3297   3.776   0.485   6.518 -0.1460 -0.1483  0.7751
 1122TIP3   OH2 3298   5.886   2.799   0.468  0.1191  0.0607  0.2460
 1122TIP3    H1 3299   5.928   2.748   0.399 -1.2067 -0.3403 -0.2698
 1122TIP3    H2 3300   5.941   2.784   0.545  0.8562 -0.5536 -0.3940
 1123TIP3   OH2 3301   6.630   4.681   1.065  0.1161 -0.4121  0.0875
 1123TIP3    H1 3302   6.640   4.733   0.985 -1.5690  0.9431  0.7262
 1123TIP3    H2 3303   6.720   4.660   1.091  0.7077 -0.2185 -1.7351
 1124TIP3   OH2 3304   0.061   6.255   6.878  0.3463  0.2758  0.4431
 1124TIP3    H1 3305   0.131   6.245   6.813  0.0184 -0.0135  0.1356
 1124TIP3    H2 3306  -0.008   6.196   6.849 -0.9840  2.2444 -0.5382
 1125TIP3   OH2 3307   5.412   3.124   1.483 -0.0341  0.3885  0.0909
 1125TIP3    H1 3308   5.405   3.071   1.403 -1.4219  0.9137 -0.1512
 1125TIP3    H2 3309   5.342   3.188   1.475 -0.8905 -0.2250  2.2344
 1126TIP3   OH2 3310   6.034   3.666   1.357 -0.0500  0.3615 -0.3405
 1126TIP3    H1 3311   6.090   3.715   1.416  0.1447  2.6380 -2.3279
 1126TIP3    H2 3312   6.066   3.576   1.362  1.4203  0.9568  1.2490
 1127TIP3   OH2 3313   4.243   3.809   0.810  0.0549  0.0666  0.8873
 1127TIP3    H1 3314   4.276   3.886   0.857  0.4735  0.3705  0.1091
 1127TIP3    H2 3315   4.321   3.755   0.795  0.2454  0.7936 -0.9744
 1128TIP3   OH2 3316   4.732   4.263   0.471  0.4265  0.1413  0.1361
 1128TIP3    H1 3317   4.658   4.203   0.481  0.9234 -0.5346 -0.1986
 1128TIP3    H2 3318   4.803   4.221   0.520  0.5346  0.8832  0.6181
 1129TIP3   OH2 3319   2.916   6.737   5.754 -0.0857  0.1085  0.0177
 1129TIP3    H1 3320   3.006   6.742   5.721 -0.1685 -0.1478 -0.2419
 1129TIP3    H2 3321   2.924   6.760   5.847 -0.0163  1.8894 -0.4262
 1130TIP3   OH2 3322   5.200   3.690   0.696  0.2512 -0.2059 -0.1181
 1130TIP3    H1 3323   5.196   3.630   0.621  1.3553 -0.5583  0.0841
 1130TIP3    H2 3324   5.222   3.633   0.770  2.0167  0.5192 -0.0441
 1131TIP3   OH2 3325   6.317   3.172   2.440  0.3054  0.3769  0.1571
 1131TIP3    H1 3326   6.365   3.129   2.510  0.7595 -0.3104 -0.5744
 1131TIP3    H2 3327   6.298   3.260   2.475  0.1520 -0.0937  1.2956
 1132TIP3   OH2 3328   3.686   3.481   2.843 -0.0504 -0.0282 -0.0645
 1132TIP3    H1 3329   3.771   3.470   2.799 -0.2795  1.1951 -0.8445
 1132TIP3    H2 3330   3.709   3.497   2.935  0.6417  1.6587 -0.5081
 1133TIP3   OH2 3331   5.841   5.259   4.221  0.1335  0.4857 -0.5009
 1133TIP3    H1 3332   5.868   5.201   4.150  0.8309 -2.1259  1.8178
 1133TIP3    H2 3333   5.923   5.292   4.258 -0.1149  0.0693  0.4588
 1134TIP3   OH2 3334   7.110   2.002   2.729  0.2491  0.7356 -0.3764
 1134TIP3    H1 3335   7.115   2.013   2.635 -0.0026 -0.4336 -0.5448
 1134TIP3    H2 3336   7.104   2.090   2.764  0.6765  1.1885 -1.4334
 1135TIP3   OH2 3337   4.273   0.836   3.185  0.1722 -0.1512  0.2513
 1135TIP3    H1 3338   4.296   0.819   3.276 -0.3492  2.0596  0.8280
 1135TIP3    H2 3339   4.357   0.852   3.142  0.2815  0.7506  0.7853
 1136TIP3   OH2 3340   3.278   5.179   2.677 -0.1041  0.1005  0.3885
 1136TIP3    H1 3341   3.369   5.208   2.685 -0.0398 -0.1312  0.4918
 1136TIP3    H2 3342   3.226   5.258   2.696  0.0944  1.5164 -4.3082
 1137TIP3   OH2 3343   2.095   1.906   0.788  0.2738 -0.1345  0.3113
 1137TIP3    H1 3344   2.066   1.950   0.868  1.1916 -0.8634  1.0577
 1137TIP3    H2 3345   2.014   1.882   0.743 -0.2509  0.0688  1.1369
 1138TIP3   OH2 3346   2.714   2.067   6.728 -0.3826 -0.5021  0.5900
 1138TIP3    H1 3347   2.763   2.098   6.652 -2.4801 -2.3547 -1.5989
 1138TIP3    H2 3348   2.760   1.987   6.755 -0.5539 -0.6961  0.3045
 1139TIP3   OH2 3349   5.617   3.255   2.063  0.1941  0.1248  0.3352
 1139TIP3    H1 3350   5.534   3.221   2.030 -0.3757  1.7520  0.0370
 1139TIP3    H2 3351   5.670   3.271   1.985  0.3566  0.1930  0.4569
 1140TIP3   OH2 3352   3.315   1.051   0.573 -0.6608 -0.4896 -0.3020
 1140TIP3    H1 3353   3.284   0.987   0.638  0.8144 -1.3984 -0.4775
 1140TIP3    H2 3354   3.268   1.029   0.493 -2.2381  0.4222  0.3538
 1141TIP3   OH2 3355   4.727   2.187   1.108  0.5744 -0.0204 -0.7120
 1141TIP3    H1 3356   4.693   2.268   1.146  0.1050 -1.7212  2.7221
 1141TIP3    H2 3357   4.668   2.166   1.037 -1.0991  1.0697  0.3374
 1142TIP3   OH2 3358   2.572   7.378   5.865  0.1954  0.2782 -0.0886
 1142TIP3    H1 3359   2.566   7.290   5.903  0.7964  0.6122  0.7732
 1142TIP3    H2 3360   2.656   7.379   5.820  0.8396  0.8834  1.1047
 1143TIP3   OH2 3361   1.993   6.793   6.693  0.1598  0.1967  0.3360
 1143TIP3    H1 3362   2.062   6.809   6.629 -0.1451  0.7296  0.1348
 1143TIP3    H2 3363   2.013   6.851   6.766  0.3543 -0.2101  0.6023
 1144TIP3   OH2 3364   5.711   2.542   1.199 -0.7654 -0.1787  0.0525
 1144TIP3    H1 3365   5.691   2.468   1.257 -0.2745 -0.8894 -0.6612
 1144TIP3    H2 3366   5.635   2.599   1.205 -0.4583  0.0657  1.8702
 1145TIP3   OH2 3367   5.706   2.608   3.563  0.1365  0.2897  0.4734
 1145TIP3    H1 3368   5.726   2.568   3.478  1.6172  1.8030  0.0715
 1145TIP3    H2 3369   5.740   2.545   3.627 -1.4580 -1.1053 -0.0272
 1146TIP3   OH2 3370   1.659   7.377   5.662 -0.1480  0.3708  0.2391
 1146TIP3    H1 3371   1.753   7.390   5.652  0.6044 -2.3166  3.2098
 1146TIP3    H2 3372   1.625   7.463   5.687  1.7510  0.9564  0.8539
 1147TIP3   OH2 3373   4.685   2.656   0.579  0.0815  0.6724 -0.6452
 1147TIP3    H1 3374   4.672   2.568   0.543 -0.3906  0.7911 -0.7694
 1147TIP3    H2 3375   4.774   2.654   0.615  0.2284  0.2748 -1.0182
 1148TIP3   OH2 3376   5.177   1.735   0.496 -0.2724  0.1016  0.5653
 1148TIP3    H1 3377   5.251   1.768   0.548  0.4501 -0.0713 -0.3480
 1148TIP3    H2 3378   5.205   1.648   0.468 -1.0946 -0.2276  0.7502
 1149TIP3   OH2 3379   5.398   1.216   0.964 -0.2465  0.5537  0.2467
 1149TIP3    H1 3380   5.428   1.211   1.055  0.8535  1.2494 -0.0725
 1149TIP3    H2 3381   5.319   1.269   0.968 -1.2573 -0.9398  1.0354
 1150TIP3   OH2 3382   3.404   2.941   0.890  0.0114  0.1620 -0.1156
 1150TIP3    H1 3383   3.348   2.886   0.835  1.8920 -2.4045  0.4306
 1150TIP3    H2 3384   3.370   2.929   0.978 -0.3315  0.8610 -0.1510
 1151TIP3   OH2 3385   6.025   4.184   6.335  0.3735 -0.0785 -0.7604
 1151TIP3    H1 3386   6.091   4.252   6.323 -0.3607  0.7047 -0.4326
 1151TIP3    H2 3387   5.980   4.179   6.251  0.0689  0.2294 -0.6175
 1152TIP3   OH2 3388   4.178   6.634   0.609  0.7885 -0.2991  0.3983
 1152TIP3    H1 3389   4.215   6.563   0.556  1.0533  0.5060 -0.5020
 1152TIP3    H2 3390   4.084   6.617   0.609  0.7184  0.0438 -0.8657
 1153TIP3   OH2 3391   5.913   5.794   0.090  0.2636  0.5049  0.1521
 1153TIP3    H1 3392   5.842   5.829   0.143 -0.0691  0.4571 -0.2547
 1153TIP3    H2 3393   5.943   5.716   0.138 -1.4097 -0.7356 -0.7405
 1154TIP3   OH2 3394   5.996   4.824   0.390 -0.8646  0.1708  0.2729
 1154TIP3    H1 3395   6.008   4.753   0.327 -0.3585  0.0234  0.5386
 1154TIP3    H2 3396   6.041   4.899   0.350 -0.8343  0.1684  0.3029
 1155TIP3   OH2 3397   5.447   2.502   0.388 -0.6725  0.2120  0.5318
 1155TIP3    H1 3398   5.459   2.470   0.299 -1.3208 -0.1702  0.5809
 1155TIP3    H2 3399   5.535   2.499   0.426 -0.6997 -1.4102  0.5011
 1156TIP3   OH2 3400   5.755   2.232   1.645  0.3019  0.2285  0.5240
 1156TIP3    H1 3401   5.677   2.283   1.666 -0.7950 -1.0190 -0.4236
 1156TIP3    H2 3402   5.828   2.293   1.657 -0.9128  1.7912  0.1491
 1157TIP3   OH2 3403   2.643   4.811   1.158 -0.5114  0.0322  0.0586
 1157TIP3    H1 3404   2.643   4.721   1.126 -0.5779  0.1651 -0.3140
 1157TIP3    H2 3405   2.731   4.843   1.140 -0.9090  0.4980 -1.0888
 1158TIP3   OH2 3406   2.317   4.050   0.835  0.1278 -0.0302  0.0806
 1158TIP3    H1 3407   2.412   4.045   0.848  0.1293  0.9540  0.4956
 1158TIP3    H2 3408   2.282   3.978   0.888  0.5522  0.3751  0.9084
 1159TIP3   OH2 3409   2.000   4.865   2.161 -0.2161  0.0167  0.1378
 1159TIP3    H1 3410   1.941   4.816   2.105 -0.1073  1.1064 -0.9685
 1159TIP3    H2 3411   1.944   4.903   2.228 -0.9307  1.7417 -1.3990
 1160TIP3   OH2 3412   3.490   3.164   5.210  0.1495  0.2720  0.4621
 1160TIP3    H1 3413   3.440   3.085   5.233  1.2618 -0.9821 -1.2987
 1160TIP3    H2 3414   3.573   3.153   5.255 -0.3030  1.2706  1.5652
 1161TIP3   OH2 3415   6.914   3.057   1.034 -0.0824  0.1047 -0.1206
 1161TIP3    H1 3416   6.855   3.082   0.963 -0.0596 -2.1842 -1.0130
 1161TIP3    H2 3417   6.856   3.040   1.109 -0.1888  1.6225  0.1520
 1162TIP3   OH2 3418   5.163   4.919   1.346  0.0659  0.0513 -0.3096
 1162TIP3    H1 3419   5.105   4.874   1.284  0.4600 -1.1106  0.1481
 1162TIP3    H2 3420   5.139   4.882   1.432  0.4145  0.7054  0.0759
 1163TIP3   OH2 3421   4.067   4.299   2.829 -0.4526  0.3686 -0.1540
 1163TIP3    H1 3422   4.106   4.257   2.906  3.1396  0.2912 -1.8778
 1163TIP3    H2 3423   3.999   4.239   2.800  0.9108 -1.6150  0.6361
 1164TIP3   OH2 3424   5.045   0.846   1.472 -0.6316 -0.2080  0.9940
 1164TIP3    H1 3425   5.109   0.776   1.459 -0.9743 -0.4930  0.8376
 1164TIP3    H2 3426   5.073   0.890   1.552 -0.0142 -0.0861  0.7163
 1165TIP3   OH2 3427   1.611   6.109   6.671 -0.2518  0.3775 -0.0424
 1165TIP3    H1 3428   1.680   6.176   6.666 -0.9455  1.1720  0.7347
 1165TIP3    H2 3429   1.647   6.041   6.727  0.6715 -0.1756 -1.2738
 1166TIP3   OH2 3430   7.402   5.237   5.616  0.0276 -0.3515 -0.0132
 1166TIP3    H1 3431   7.313   5.266   5.593  0.6146  2.0660  0.6115
 1166TIP3    H2 3432   7.445   5.225   5.531  0.3691  2.7389 -0.3653
 1167TIP3   OH2 3433   6.419   2.879   1.102  0.2826  0.1932  0.1532
 1167TIP3    H1 3434   6.428   2.885   1.197  0.8815  0.2412  0.0960
 1167TIP3    H2 3435   6.507   2.897   1.069  0.4184 -1.3596 -0.3464
 1168TIP3   OH2 3436   7.568   6.007   6.220 -0.4902  0.1853  0.0111
 1168TIP3    H1 3437   7.628   5.979   6.151  0.1008  1.4824 -0.0080
 1168TIP3    H2 3438   7.483   6.012   6.177 -0.3215 -0.0756 -0.3578
 1169TIP3   OH2 3439   7.753   5.588   5.140  0.1901  0.0282 -0.5394
 1169TIP3    H1 3440   7.688   5.570   5.071  0.6268  0.5254 -1.0851
 1169TIP3    H2 3441   7.820   5.521   5.127  0.2351  0.0752 -0.5462
 1170TIP3   OH2 3442   5.339   1.975   0.325 -0.1870  0.3623  0.2334
 1170TIP3    H1 3443   5.254   1.995   0.363  0.3877  0.7988  1.3216
 1170TIP3    H2 3444   5.376   1.908   0.384  0.5362  0.7377  0.2145
 1171TIP3   OH2 3445   6.122   0.984   2.524 -0.2408 -0.3201 -0.1484
 1171TIP3    H1 3446   6.169   0.902   2.509  0.2808 -0.1506  0.5389
 1171TIP3    H2 3447   6.190   1.048   2.542 -0.6873  0.1085  0.0443
 1172TIP3   OH2 3448   6.823   2.307   1.098 -0.4158  0.1645  0.4064
 1172TIP3    H1 3449   6.845   2.220   1.064  2.2902  0.6194  0.9350
 1172TIP3    H2 3450   6.901   2.336   1.145 -0.2948  3.9681 -1.9031
 1173TIP3   OH2 3451   5.406   1.171   2.174  0.4607 -0.3780 -0.5978
 1173TIP3    H1 3452   5.444   1.120   2.246  1.4759 -1.2975 -1.7653
 1173TIP3    H2 3453   5.446   1.135   2.095 -0.1089  1.0956 -1.5859
 1174TIP3   OH2 3454   6.287   2.913   0.309 -0.2127  0.0374 -0.6601
 1174TIP3    H1 3455   6.283   3.008   0.304 -1.2041  0.0212 -0.2979
 1174TIP3    H2 3456   6.357   2.895   0.372 -1.7611  0.5883  1.2790
 1175TIP3   OH2 3457   6.586   3.632   0.787  0.5174 -0.5979  0.3685
 1175TIP3    H1 3458   6.551   3.583   0.861  0.1465  0.5323  0.9577
 1175TIP3    H2 3459   6.509   3.654   0.734  0.5170  0.4605  0.7946
 1176TIP3   OH2 3460   0.720   5.267   5.412  0.1390  0.4823 -0.3534
 1176TIP3    H1 3461   0.729   5.242   5.504 -0.3291  0.9342 -0.1850
 1176TIP3    H2 3462   0.657   5.338   5.412  1.9215  2.0989 -0.7887
 1177TIP3   OH2 3463   5.400   4.458   0.377  0.0295 -0.4128  0.3510
 1177TIP3    H1 3464   5.433   4.507   0.301  1.3489  1.1112  1.8799
 1177TIP3    H2 3465   5.419   4.366   0.356  0.0724 -0.0498 -1.2963
 1178TIP3   OH2 3466   5.555   4.524   1.587 -0.6711 -0.6259 -0.1626
 1178TIP3    H1 3467   5.528   4.612   1.561  0.3058  0.2639  1.7666
 1178TIP3    H2 3468   5.491   4.498   1.653  0.4960 -0.3452  1.0885
 1179TIP3   OH2 3469   7.294   2.966   0.849 -0.1321  0.3186  0.2446
 1179TIP3    H1 3470   7.217   3.021   0.834 -0.5138 -0.3074 -0.0960
 1179TIP3    H2 3471   7.337   3.006   0.925 -0.4829  1.0018  0.0881
 1180TIP3   OH2 3472   0.477   6.020   6.909 -0.1050  0.1953 -0.2635
 1180TIP3    H1 3473   0.534   6.060   6.843 -1.0255 -0.0100 -1.2106
 1180TIP3    H2 3474   0.421   5.960   6.859  0.8288 -1.8116  1.0602
 1181TIP3   OH2 3475   0.847   7.777   5.920 -0.4853 -0.0809 -0.0604
 1181TIP3    H1 3476   0.752   7.768   5.911 -0.3334 -0.6036 -1.2948
 1181TIP3    H2 3477   0.878   7.794   5.831  0.7125 -1.3010  0.1046
 1182TIP3   OH2 3478   7.666   2.020   1.081  0.7252 -0.2982  0.0925
 1182TIP3    H1 3479   7.753   1.988   1.059  0.3375 -0.4303 -1.3461
 1182TIP3    H2 3480   7.661   2.106   1.040  0.5915  0.2003  1.1511
 1183TIP3   OH2 3481   3.528   0.881   5.858  0.1195  0.3169 -0.0562
 1183TIP3    H1 3482   3.623   0.884   5.849  0.3369 -2.9109  0.2704
 1183TIP3    H2 3483   3.506   0.789   5.843 -2.7638  0.6566  1.6513
 1184TIP3   OH2 3484   2.920   2.998   3.125 -0.2292 -0.2093 -0.3629
 1184TIP3    H1 3485   2.837   2.955   3.142 -0.3110  0.5090  1.1216
 1184TIP3    H2 3486   2.953   3.022   3.212  1.0196  0.4515 -1.0054
 1185TIP3   OH2 3487   2.845   6.098   5.078  0.1546  0.1499  0.2409
 1185TIP3    H1 3488   2.754   6.124   5.092 -0.0276 -0.4997  0.2649
 1185TIP3    H2 3489   2.891   6.129   5.155 -0.4238 -1.3633  1.2141
 1186TIP3   OH2 3490   1.551   6.194   6.064  0.1231  0.0230  0.0416
 1186TIP3    H1 3491   1.495   6.127   6.103  0.1241 -0.2153 -0.3538
 1186TIP3    H2 3492   1.630   6.194   6.117 -0.0345 -0.0232  0.2751
 1187TIP3   OH2 3493   5.341   3.599   1.424  0.0209  0.4272 -0.2094
 1187TIP3    H1 3494   5.433   3.607   1.400  0.2200 -0.9020  0.0499
 1187TIP3    H2 3495   5.321   3.506   1.411 -0.4191  0.0586  2.8464
 1188TIP3   OH2 3496   2.845   1.847   5.680 -0.6538 -0.0490 -0.0943
 1188TIP3    H1 3497   2.919   1.906   5.669 -1.5671  1.0348 -0.5658
 1188TIP3    H2 3498   2.883   1.759   5.677  0.5561  0.4865 -0.6826
 1189TIP3   OH2 3499   6.161   4.867   2.663 -0.0649 -0.3591  0.4363
 1189TIP3    H1 3500   6.090   4.814   2.699 -0.2918 -0.6435 -0.4188
 1189TIP3    H2 3501   6.168   4.942   2.723 -2.0900  0.4584 -0.3253
 1190TIP3   OH2 3502   5.903   6.074   0.538 -0.5924  0.3710 -0.4222
 1190TIP3    H1 3503   5.919   5.982   0.518 -1.2777  0.2847 -0.6092
 1190TIP3    H2 3504   5.892   6.115   0.452 -0.5530  0.5728 -0.3300
 1191TIP3   OH2 3505   3.042   1.123   6.157 -0.6603  0.4343  0.4500
 1191TIP3    H1 3506   2.994   1.148   6.236 -0.3335  0.8334  0.5224
 1191TIP3    H2 3507   3.084   1.039   6.179 -0.0914  0.8341  0.8978
 1192TIP3   OH2 3508   0.085   1.944   0.568 -0.0872 -0.0589  0.1775
 1192TIP3    H1 3509   0.063   2.017   0.626 -1.8553 -0.2591 -0.2022
 1192TIP3    H2 3510   0.097   1.984   0.482  1.9300  0.1570  0.5351
 1193TIP3   OH2 3511   4.613   0.292   5.478 -0.1835 -0.4992  0.6051
 1193TIP3    H1 3512   4.535   0.243   5.505 -0.9864  1.1833  1.3947
 1193TIP3    H2 3513   4.584   0.383   5.474  1.6738  0.1089  0.6083
 1194TIP3   OH2 3514   3.221   0.720   6.702  0.0015  0.0944 -0.4325
 1194TIP3    H1 3515   3.299   0.775   6.699  0.4059 -0.4726 -0.4123
 1194TIP3    H2 3516   3.164   0.755   6.633  0.7490 -0.2019 -1.2127
 1195TIP3   OH2 3517   4.389   0.274   6.020  0.0871  0.1716  0.4272
 1195TIP3    H1 3518   4.403   0.352   6.072 -1.9424  0.5986  0.3757
 1195TIP3    H2 3519   4.477   0.243   5.998  0.9003  2.2289  0.7384
 1196TIP3   OH2 3520   7.825   1.350   1.770 -0.0952  0.3125  0.1993
 1196TIP3    H1 3521   7.878   1.284   1.726 -1.9229 -1.5586  0.7282
 1196TIP3    H2 3522   7.750   1.364   1.712 -0.7292  0.4260  1.0281
 1197TIP3   OH2 3523   2.886   1.406   6.808  0.8416 -0.8606 -0.0608
 1197TIP3    H1 3524   2.850   1.495   6.814  1.8776 -0.3454 -1.1403
 1197TIP3    H2 3525   2.914   1.386   6.897 -0.6487 -0.6469  0.4645
 1198TIP3   OH2 3526   7.312   5.773   4.987 -0.2047  0.0350  0.3204
 1198TIP3    H1 3527   7.310   5.833   4.913  1.2138 -0.9560 -0.5316
 1198TIP3    H2 3528   7.393   5.794   5.033 -0.3972 -0.2854  0.8188
 1199TIP3   OH2 3529   3.910   4.774   2.325  0.0725  0.3554 -0.3350
 1199TIP3    H1 3530   3.925   4.716   2.400  0.7222 -1.6785 -2.0176
 1199TIP3    H2 3531   3.998   4.791   2.290 -0.3503  0.0027 -1.5847
 1200TIP3   OH2 3532   0.648   5.397   5.848 -0.1116  0.1763 -0.5948
 1200TIP3    H1 3533   0.708   5.370   5.779 -1.9767 -1.0744 -1.7718
 1200TIP3    H2 3534   0.598   5.317   5.869 -0.0648  0.7057  1.6965
 1201TIP3   OH2 3535   0.966   7.370   6.040 -0.3325  0.6735 -0.0983
 1201TIP3    H1 3536   0.875   7.361   6.013 -0.5638  0.2672  0.7895
 1201TIP3    H2 3537   1.011   7.297   5.997 -0.7073 -0.0050  0.6597
 1202TIP3   OH2 3538   7.404   4.875   1.501 -0.6188 -0.4164  0.2983
 1202TIP3    H1 3539   7.460   4.932   1.449 -2.7714  2.4701  1.0093
 1202TIP3    H2 3540   7.361   4.818   1.437  2.3299 -2.0229 -0.3281
 1203TIP3   OH2 3541   0.206   2.430   4.411  0.2958 -0.0484  0.5861
 1203TIP3    H1 3542   0.228   2.498   4.474  0.7991  1.0994 -0.8232
 1203TIP3    H2 3543   0.116   2.406   4.432 -0.4523  2.2048  0.0536
 1204TIP3   OH2 3544   6.141   2.755   0.613 -0.9066 -0.8054  0.3171
 1204TIP3    H1 3545   6.128   2.675   0.664 -1.5372 -0.6057  0.4660
 1204TIP3    H2 3546   6.197   2.809   0.669 -0.3241 -1.2082  0.1395
 1205TIP3   OH2 3547   5.669   1.235   1.705 -0.2990 -0.6624 -0.3465
 1205TIP3    H1 3548   5.631   1.186   1.778 -0.3244 -1.9408 -1.2031
 1205TIP3    H2 3549   5.646   1.326   1.723 -2.5476 -1.2554 -0.1043
 1206TIP3   OH2 3550   4.970   3.713   1.766  0.0734 -0.4753  0.0352
 1206TIP3    H1 3551   4.976   3.716   1.861  0.8408  0.3802 -0.0234
 1206TIP3    H2 3552   4.877   3.705   1.748 -0.2701  1.3549  0.8459
 1207TIP3   OH2 3553   2.552   2.396   5.928 -0.1731 -0.2503 -0.2707
 1207TIP3    H1 3554   2.488   2.445   5.980 -0.3969  0.2787 -1.0428
 1207TIP3    H2 3555   2.539   2.426   5.839  0.9925 -0.3251 -0.4717
 1208TIP3   OH2 3556   7.068   2.704   0.240  0.4178 -0.2501  0.1524
 1208TIP3    H1 3557   7.092   2.762   0.312  2.0282  0.2725 -0.7639
 1208TIP3    H2 3558   7.140   2.714   0.177 -0.1667 -1.9004 -0.8042
 1209TIP3   OH2 3559   3.673   4.181   0.716  0.2903 -0.4337 -0.1993
 1209TIP3    H1 3560   3.697   4.261   0.763  0.1825 -0.5282  0.0206
 1209TIP3    H2 3561   3.681   4.204   0.624 -1.6189  0.4252 -0.1778
 1210TIP3   OH2 3562   0.332   5.533   0.347 -1.3458  0.3574  0.1240
 1210TIP3    H1 3563   0.318   5.625   0.323  0.8495  0.3646 -1.2268
 1210TIP3    H2 3564   0.283   5.483   0.282 -0.2922  0.5340 -0.8305
 1211TIP3   OH2 3565   8.294   4.059   1.601 -0.2986  0.2176  0.0141
 1211TIP3    H1 3566   8.225   4.050   1.535 -1.1546 -0.8223  1.0260
 1211TIP3    H2 3567   8.247   4.060   1.685  0.7148  2.3698  0.5835
 1212TIP3   OH2 3568   7.669   5.663   2.728 -0.4554  0.6274  0.6366
 1212TIP3    H1 3569   7.620   5.587   2.699 -0.5562  0.7428  0.5025
 1212TIP3    H2 3570   7.744   5.667   2.670 -0.9358  1.1668  0.0394
 1213TIP3   OH2 3571   1.724   3.159   2.664  0.5208  0.4227  0.4827
 1213TIP3    H1 3572   1.745   3.083   2.608  1.3350  1.8523 -1.2052
 1213TIP3    H2 3573   1.636   3.185   2.637  0.5551  0.5516  0.4952
 1214TIP3   OH2 3574   7.126   0.533   2.091 -0.2871 -0.7309 -0.3208
 1214TIP3    H1 3575   7.070   0.609   2.107 -1.1208 -1.5232  0.6626
 1214TIP3    H2 3576   7.107   0.508   2.001  0.6053  0.7025 -0.9262
 1215TIP3   OH2 3577   6.266   5.301   1.236 -0.2103  0.1275  0.2937
 1215TIP3    H1 3578   6.207   5.375   1.221  1.4207  1.4710  0.3597
 1215TIP3    H2 3579   6.296   5.276   1.149 -1.9959 -1.5332  0.1189
 1216TIP3   OH2 3580   8.279   4.793   2.657 -0.6120 -0.4488  0.0230
 1216TIP3    H1 3581   8.292   4.795   2.562 -0.8947  1.8187  0.0104
 1216TIP3    H2 3582   8.367   4.797   2.693 -0.5037 -1.2780 -0.1405
 1217TIP3   OH2 3583   2.222   3.515   0.644  0.2799  0.2004 -0.4982
 1217TIP3    H1 3584   2.213   3.429   0.603 -0.1059 -0.0915  0.1877
 1217TIP3    H2 3585   2.135   3.554   0.636  0.4829  0.5790 -0.9091
 1218TIP3   OH2 3586   1.792   6.576   3.001  0.0449 -0.2601  0.4856
 1218TIP3    H1 3587   1.786   6.671   3.010  0.1702 -0.2495  0.4534
 1218TIP3    H2 3588   1.883   6.560   2.974 -0.2164 -0.3269 -0.3635
 1219TIP3   OH2 3589   7.519   2.564   0.885  0.6326  0.2371  0.1283
 1219TIP3    H1 3590   7.566   2.636   0.843  2.7164 -0.7028  0.7812
 1219TIP3    H2 3591   7.511   2.497   0.816 -2.8512  1.7072 -1.0024
 1220TIP3   OH2 3592   1.450   3.798   1.086  0.4487  0.3795  0.3389
 1220TIP3    H1 3593   1.397   3.873   1.114 -0.8619 -0.3898 -0.0396
 1220TIP3    H2 3594   1.507   3.833   1.018 -0.5891  0.9172 -0.2737
 1221TIP3   OH2 3595   5.918   4.929   1.045  0.3086 -0.2931  0.3088
 1221TIP3    H1 3596   5.906   5.023   1.057 -2.5887 -0.4318 -0.9280
 1221TIP3    H2 3597   5.840   4.890   1.084  0.8514 -2.0866 -0.3553
 1222TIP3   OH2 3598   7.169   6.063   1.169  0.1988  0.0592  0.4517
 1222TIP3    H1 3599   7.255   6.040   1.202  0.2021 -0.3141  0.1809
 1222TIP3    H2 3600   7.117   6.080   1.248  0.4588  0.0744  0.6199
 1223TIP3   OH2 3601   7.430   5.753   0.534  0.1378  0.4140  0.1401
 1223TIP3    H1 3602   7.444   5.658   0.542  1.1394  0.4438 -1.0851
 1223TIP3    H2 3603   7.348   5.769   0.580  0.5747 -0.8674  1.4197
 1224TIP3   OH2 3604   1.226   1.650   1.686  0.1168  0.4103  0.1755
 1224TIP3    H1 3605   1.208   1.658   1.593  1.6506 -0.7744 -0.2509
 1224TIP3    H2 3606   1.184   1.726   1.726 -2.6260 -0.3197 -1.1656
 1225TIP3   OH2 3607   4.165   0.103   5.383  0.3047  0.3927  0.4692
 1225TIP3    H1 3608   4.156   0.033   5.447  0.5973 -1.2240 -1.1988
 1225TIP3    H2 3609   4.076   0.127   5.360  0.1542 -1.6303 -1.2346
 1226TIP3   OH2 3610   2.649   6.085   1.254  0.3162  0.2089 -0.5971
 1226TIP3    H1 3611   2.576   6.033   1.288 -0.1612 -0.5281 -2.7103
 1226TIP3    H2 3612   2.720   6.068   1.316 -0.8001 -0.3815  0.5542
 1227TIP3   OH2 3613   1.621   6.362   1.025 -0.3219 -0.0200  0.1627
 1227TIP3    H1 3614   1.621   6.387   1.117  2.3242  0.3014  0.1268
 1227TIP3    H2 3615   1.544   6.405   0.988  0.2083  2.2742  1.6272
 1228TIP3   OH2 3616   8.289   5.469   0.808 -0.1408  0.2744  0.5715
 1228TIP3    H1 3617   8.230   5.413   0.759 -1.2869 -0.8672  3.1972
 1228TIP3    H2 3618   8.376   5.448   0.774 -0.7312 -1.8275  0.3214
 1229TIP3   OH2 3619   2.635   4.232   1.014  0.0519  0.2022  0.1897
 1229TIP3    H1 3620   2.728   4.214   1.001  0.1701  1.7878 -1.3235
 1229TIP3    H2 3621   2.610   4.176   1.087  1.6435 -1.9436 -0.8696
 1230TIP3   OH2 3622   0.949   3.923   1.987  0.5191  0.4545  0.2651
 1230TIP3    H1 3623   0.916   3.954   1.902  0.9424 -1.2791 -0.5595
 1230TIP3    H2 3624   0.884   3.954   2.050  0.0720  1.5766 -0.7121
 1231TIP3   OH2 3625   0.140   2.488   1.624  0.0786  0.1829  0.3694
 1231TIP3    H1 3626   0.161   2.421   1.689 -2.5010 -0.5493  0.5341
 1231TIP3    H2 3627   0.215   2.491   1.566  0.2826 -2.7983  0.4308
 1232TIP3   OH2 3628   8.407   4.936   0.884 -0.0649 -0.4891 -0.1791
 1232TIP3    H1 3629   8.474   4.869   0.896 -1.2434 -2.2070 -2.6480
 1232TIP3    H2 3630   8.377   4.924   0.794 -3.5702  0.3002  0.7992
 1233TIP3   OH2 3631   4.518   1.436   6.154  0.0107  0.2981 -0.6490
 1233TIP3    H1 3632   4.538   1.491   6.078  2.2365  0.4647  0.0284
 1233TIP3    H2 3633   4.603   1.421   6.196 -1.2037  0.3116  1.8994
 1234TIP3   OH2 3634   5.559   1.688   6.020 -1.2168  0.2552 -0.3757
 1234TIP3    H1 3635   5.504   1.633   6.075  0.0512 -0.5078  0.1359
 1234TIP3    H2 3636   5.517   1.685   5.934 -1.3967 -1.1594 -0.2491
 1235TIP3   OH2 3637   0.725   2.558   1.918  0.1044  0.2255 -0.1333
 1235TIP3    H1 3638   0.693   2.599   1.999  3.5016  2.3059  0.2608
 1235TIP3    H2 3639   0.800   2.506   1.946 -0.2360 -1.0789 -1.6011
 1236TIP3   OH2 3640  -0.006   4.225   2.328 -0.5915  0.1885  0.4357
 1236TIP3    H1 3641   0.053   4.227   2.252  0.6171 -1.9448  1.2951
 1236TIP3    H2 3642   0.049   4.252   2.401 -1.6561  1.8200  0.6702
 1237TIP3   OH2 3643   6.812   4.766   2.984  0.3453  0.9364  0.6698
 1237TIP3    H1 3644   6.783   4.729   2.901 -0.4079  0.4840  1.1314
 1237TIP3    H2 3645   6.907   4.761   2.980  0.2694 -0.4267  0.4509
 1238TIP3   OH2 3646   7.978   1.950   0.979  0.1880  0.4103 -0.4734
 1238TIP3    H1 3647   8.054   1.986   0.934  1.7794 -0.0052  1.7666
 1238TIP3    H2 3648   7.987   1.855   0.972  0.5054  0.3371  0.7569
 1239TIP3   OH2 3649   7.523   3.932   2.544  0.1958 -0.5049  0.0618
 1239TIP3    H1 3650   7.540   3.920   2.450 -0.4385 -0.9969  0.0069
 1239TIP3    H2 3651   7.545   3.847   2.583  1.0486 -0.1067  0.4420
 1240TIP3   OH2 3652   7.041   4.980   2.042 -0.1675  0.2007 -0.0829
 1240TIP3    H1 3653   7.068   5.006   1.954 -1.6879  0.2116 -0.5588
 1240TIP3    H2 3654   6.959   5.026   2.056  0.5265  0.9200  1.7248
 1241TIP3   OH2 3655   8.212   4.821   1.270  0.6927  0.4142  0.1582
 1241TIP3    H1 3656   8.257   4.897   1.306 -0.5479  0.7501  1.0187
 1241TIP3    H2 3657   8.215   4.835   1.175  1.6115  0.8667  0.2404
 1242TIP3   OH2 3658   8.356   4.386   1.588  0.7665 -0.3396  0.0491
 1242TIP3    H1 3659   8.412   4.341   1.525 -0.2465  0.2058 -1.2874
 1242TIP3    H2 3660   8.317   4.458   1.538 -0.3961 -0.1499  1.1868
 1243TIP3   OH2 3661   7.803   3.798   2.728 -0.6224  0.1842 -0.2220
 1243TIP3    H1 3662   7.745   3.773   2.656  1.4662  0.0317 -1.8960
 1243TIP3    H2 3663   7.840   3.715   2.759  0.4830  0.4890 -0.7128
 1244TIP3   OH2 3664   1.362   4.695   1.883 -0.0288 -0.1958  0.0814
 1244TIP3    H1 3665   1.310   4.697   1.802  0.2306  1.6887 -0.0509
 1244TIP3    H2 3666   1.350   4.605   1.916 -0.8028 -0.7408 -1.6002
 1245TIP3   OH2 3667   1.342   4.799   2.388 -0.2520  0.2859  0.4933
 1245TIP3    H1 3668   1.423   4.831   2.429  0.6448  0.6469 -1.5008
 1245TIP3    H2 3669   1.346   4.832   2.298 -2.8772  0.7550  0.5051
 1246TIP3   OH2 3670   0.107   6.463   0.369 -0.5790 -0.0765  0.4018
 1246TIP3    H1 3671   0.063   6.540   0.333 -2.7267 -0.9330  1.0698
 1246TIP3    H2 3672   0.142   6.493   0.453 -1.8274  0.0752  0.8845
 1247TIP3   OH2 3673   1.088   4.327   1.196  0.2990 -0.5170  0.5269
 1247TIP3    H1 3674   1.054   4.266   1.131 -2.2294  0.9577  0.3764
 1247TIP3    H2 3675   1.122   4.271   1.266 -0.3458 -2.0934 -0.3938
 1248TIP3   OH2 3676   6.019   8.045   6.208 -0.4699 -0.3834 -0.8113
 1248TIP3    H1 3677   6.019   8.035   6.113  0.3194 -0.8417 -0.7622
 1248TIP3    H2 3678   5.997   7.959   6.242  1.1044 -0.6891 -0.5330
 1249TIP3   OH2 3679   7.581   5.234   2.461  0.0832  0.3788 -0.4129
 1249TIP3    H1 3680   7.522   5.263   2.391 -0.3311 -0.0830 -0.2601
 1249TIP3    H2 3681   7.589   5.139   2.448 -0.1822  0.2527  0.2976
 1250TIP3   OH2 3682   1.028   7.288   0.583 -0.4840 -0.1663 -0.1154
 1250TIP3    H1 3683   0.936   7.298   0.558 -0.6560 -0.3943  0.4221
 1250TIP3    H2 3684   1.059   7.378   0.594 -1.1925 -0.1137  1.6681
 1251TIP3   OH2 3685   2.898   2.835   2.662 -0.0658 -0.4731 -0.3983
 1251TIP3    H1 3686   2.848   2.916   2.668  0.5833 -0.0032 -1.1930
 1251TIP3    H2 3687   2.935   2.836   2.574 -1.0384 -2.2218 -0.8663
 1252TIP3   OH2 3688   7.856   3.396   0.276 -0.2695  0.1106  0.3559
 1252TIP3    H1 3689   7.797   3.339   0.226  1.3525 -0.5798 -0.8183
 1252TIP3    H2 3690   7.910   3.439   0.210 -0.4405  1.8496  1.3329
 1253TIP3   OH2 3691   7.802   2.831   1.330 -0.8522  0.0609 -0.2398
 1253TIP3    H1 3692   7.811   2.865   1.419 -1.1353 -0.3799 -0.0422
 1253TIP3    H2 3693   7.743   2.756   1.339  0.8965 -1.3617 -0.4436
 1254TIP3   OH2 3694   0.980   3.936   1.553  0.4288  0.5386  0.0762
 1254TIP3    H1 3695   0.949   3.980   1.474 -1.8261 -0.1382  0.5384
 1254TIP3    H2 3696   0.931   3.976   1.624  1.5051  0.2607  1.0019
 1255TIP3   OH2 3697   0.067   5.846   0.824  0.0756  0.9534 -0.0336
 1255TIP3    H1 3698   0.109   5.932   0.827  0.2643  0.8335  1.4310
 1255TIP3    H2 3699   0.040   5.830   0.915  1.0231 -1.0049 -0.0664
 1256TIP3   OH2 3700   1.489   5.000   0.674  0.5101  0.4207  0.1514
 1256TIP3    H1 3701   1.424   4.995   0.604 -0.9887  0.0406  1.5320
 1256TIP3    H2 3702   1.504   4.909   0.700 -0.0176  0.6432  1.2716
 1257TIP3   OH2 3703   2.598   5.434   0.801  0.0098  0.0901  0.1686
 1257TIP3    H1 3704   2.675   5.489   0.787  1.0905 -1.6710 -1.1026
 1257TIP3    H2 3705   2.523   5.493   0.789  1.1346  1.2331 -1.3727
 1258TIP3   OH2 3706   7.505   1.134   6.469  0.2305  0.3152 -1.0636
 1258TIP3    H1 3707   7.434   1.197   6.460  0.9030  1.0276 -1.4305
 1258TIP3    H2 3708   7.495   1.076   6.393  0.3387  0.7074 -1.3744
 1259TIP3   OH2 3709   3.147   4.121   0.143  0.0769  0.0370  0.0858
 1259TIP3    H1 3710   3.232   4.156   0.172 -0.0404  1.0924 -0.7976
 1259TIP3    H2 3711   3.164   4.029   0.125  1.3086  0.4692 -1.0589
 1260TIP3   OH2 3712   1.473   4.259   3.691  0.7099  0.4242  0.1642
 1260TIP3    H1 3713   1.425   4.330   3.735 -2.1303 -0.8076 -0.8077
 1260TIP3    H2 3714   1.487   4.193   3.759  1.2260  0.8755  0.4994
 1261TIP3   OH2 3715   3.091   6.773   6.507 -0.0852 -0.3069  0.3876
 1261TIP3    H1 3716   3.148   6.731   6.442 -0.2583  0.3988 -0.2162
 1261TIP3    H2 3717   3.151   6.823   6.563  0.0333 -0.6956  0.6147
 1262TIP3   OH2 3718   1.991   5.001   1.776  0.3016 -0.1660 -0.0223
 1262TIP3    H1 3719   2.060   5.008   1.841  1.4614 -0.7325 -1.1784
 1262TIP3    H2 3720   1.933   4.932   1.809  0.3195  0.2510  0.9000
 1263TIP3   OH2 3721   7.073   1.845   6.109 -0.3693  0.7363  0.3501
 1263TIP3    H1 3722   7.071   1.936   6.139  2.0279  0.9992 -0.1931
 1263TIP3    H2 3723   6.984   1.813   6.124 -0.8303  2.6892  2.0252
 1264TIP3   OH2 3724   0.183   1.904   5.236 -0.0940  0.2682  0.0380
 1264TIP3    H1 3725   0.120   1.912   5.307  0.6287 -1.2650  0.8757
 1264TIP3    H2 3726   0.255   1.963   5.260 -0.1713  0.2897  0.2130
 1265TIP3   OH2 3727   8.298   1.927   6.262 -0.2216 -0.8435  0.1703
 1265TIP3    H1 3728   8.304   1.977   6.343  0.8989 -1.1823  0.2943
 1265TIP3    H2 3729   8.334   1.842   6.283 -1.9055 -1.6580 -0.1126
 1266TIP3   OH2 3730   7.515   2.423   0.644 -0.1455 -0.2164  0.2366
 1266TIP3    H1 3731   7.527   2.474   0.564  1.1099  2.6231  2.1608
 1266TIP3    H2 3732   7.558   2.339   0.626  1.2692  0.8661 -1.5938
 1267TIP3   OH2 3733   7.611   3.563   2.081  0.4829 -0.4890 -0.2888
 1267TIP3    H1 3734   7.588   3.654   2.063  1.2322 -0.2909 -0.2708
 1267TIP3    H2 3735   7.548   3.535   2.147 -0.5161 -0.3609 -1.1803
 1268TIP3   OH2 3736   1.647   5.046   2.073  0.0903 -0.3610 -0.1140
 1268TIP3    H1 3737   1.624   5.123   2.126 -1.1919  0.2631 -1.5398
 1268TIP3    H2 3738   1.565   4.997   2.066  0.2855 -0.5216 -1.3814
 1269TIP3   OH2 3739   2.087   4.126   1.211 -0.1738 -0.4798  0.1162
 1269TIP3    H1 3740   2.106   4.148   1.303  0.0543 -0.9017  0.1728
 1269TIP3    H2 3741   2.071   4.210   1.169 -1.7315 -0.3742  0.8633
 1270TIP3   OH2 3742   2.197   6.822   0.324 -0.4641 -0.2811  0.2941
 1270TIP3    H1 3743   2.120   6.820   0.381 -1.8545 -0.4776 -1.5259
 1270TIP3    H2 3744   2.178   6.755   0.258  0.8121  0.3747 -0.7494
 1271TIP3   OH2 3745   2.261   5.197   2.898  0.1248 -0.3319  0.0683
 1271TIP3    H1 3746   2.237   5.155   2.981 -0.3276 -2.8273 -1.2925
 1271TIP3    H2 3747   2.342   5.153   2.871  0.0669  0.2028 -1.0185
 1272TIP3   OH2 3748   3.514   7.317   1.920  0.1376 -1.1276  0.1376
 1272TIP3    H1 3749   3.425   7.339   1.891  0.2292 -0.2613  0.5071
 1272TIP3    H2 3750   3.501   7.273   2.005  0.2132  1.6187  1.6326
 1273TIP3   OH2 3751   2.492   2.977   2.955 -0.3859  0.4404  0.1019
 1273TIP3    H1 3752   2.542   3.017   2.884 -1.0777 -3.0795 -2.4993
 1273TIP3    H2 3753   2.549   2.907   2.988 -1.2929  0.1081  0.9878
 1274TIP3   OH2 3754   7.552   1.759   6.820  0.0748  0.0256  0.2101
 1274TIP3    H1 3755   7.582   1.747   6.910  0.5553  1.8776  0.3194
 1274TIP3    H2 3756   7.508   1.844   6.820  0.2058  0.1113 -1.3235
 1275TIP3   OH2 3757   5.039   0.398   6.344 -0.0926  0.0706 -0.7432
 1275TIP3    H1 3758   5.060   0.374   6.254  2.2951 -1.9953  0.3307
 1275TIP3    H2 3759   5.020   0.315   6.388 -0.9375  1.0260  0.7496
 1276TIP3   OH2 3760   7.722   1.694   6.124  0.4791  0.7651  0.4368
 1276TIP3    H1 3761   7.786   1.670   6.192 -0.2468  0.3373  0.9808
 1276TIP3    H2 3762   7.740   1.786   6.106  0.8149  0.8306  1.0705
 1277TIP3   OH2 3763   1.473   6.024   0.375 -0.3285  0.3950  0.0373
 1277TIP3    H1 3764   1.538   6.094   0.386  0.4661 -0.2357 -0.5135
 1277TIP3    H2 3765   1.452   5.996   0.464 -1.2928  1.9132  0.2962
 1278TIP3   OH2 3766   6.461   0.105   1.347  0.1578 -0.0430  0.4600
 1278TIP3    H1 3767   6.431   0.079   1.434 -0.0881 -0.0874  0.3635
 1278TIP3    H2 3768   6.422   0.041   1.288 -1.0440  0.9515  0.1513
 1279TIP3   OH2 3769   1.021   5.027   0.806  0.1094 -0.0582 -0.0334
 1279TIP3    H1 3770   1.034   4.961   0.873  0.9400  1.2623  1.1352
 1279TIP3    H2 3771   1.097   5.085   0.814 -0.9771  1.4667 -0.5065
 1280TIP3   OH2 3772   7.679   4.310   5.365 -0.2711  0.2420 -0.2797
 1280TIP3    H1 3773   7.692   4.216   5.352 -2.0821 -0.0353 -0.1626
 1280TIP3    H2 3774   7.732   4.331   5.442 -0.4133 -0.8315  0.1199
 1281TIP3   OH2 3775   6.513   1.707   6.096 -0.2938  0.7360 -0.3565
 1281TIP3    H1 3776   6.455   1.778   6.124 -0.2711  1.0565 -1.0981
 1281TIP3    H2 3777   6.589   1.714   6.153 -1.3425 -0.2393  1.2258
 1282TIP3   OH2 3778   3.077   4.541   0.243 -0.3764 -0.0074 -0.2845
 1282TIP3    H1 3779   3.071   4.524   0.149  0.8990 -1.3856 -0.1407
 1282TIP3    H2 3780   3.158   4.592   0.253  0.0006 -0.6911  0.1632
 1283TIP3   OH2 3781   0.016   6.276   0.190 -0.0421  0.5082 -0.3706
 1283TIP3    H1 3782  -0.048   6.214   0.225 -0.8840  0.9181 -1.1623
 1283TIP3    H2 3783   0.039   6.332   0.264 -0.7326  0.4718 -0.1308
 1284TIP3   OH2 3784   2.973   7.881   5.071 -0.1165 -0.1125 -0.2863
 1284TIP3    H1 3785   2.932   7.968   5.070 -0.6412 -0.3496  0.2727
 1284TIP3    H2 3786   3.018   7.878   5.156  2.7995  0.9468 -1.7424
 1285TIP3   OH2 3787   2.322   4.286   0.238  0.1274  0.2380 -0.0001
 1285TIP3    H1 3788   2.326   4.339   0.317 -2.9747  0.1504  0.2733
 1285TIP3    H2 3789   2.268   4.211   0.262 -0.1041 -0.2343 -1.9287
 1286TIP3   OH2 3790   7.993   2.496   5.273 -0.2000 -0.3604 -0.1989
 1286TIP3    H1 3791   7.991   2.591   5.259  0.6599 -0.1721  0.8721
 1286TIP3    H2 3792   7.922   2.462   5.219 -1.2537  1.0091  0.2921
 1287TIP3   OH2 3793   1.151   7.095   1.109  0.0764 -0.2928 -0.0457
 1287TIP3    H1 3794   1.169   7.164   1.045  0.0885 -0.6519 -0.4283
 1287TIP3    H2 3795   1.209   7.115   1.182  0.4051 -0.1556 -0.3420
 1288TIP3   OH2 3796   0.162   3.516   1.561  0.2330  0.5534 -0.1031
 1288TIP3    H1 3797   0.174   3.428   1.526  0.5986  0.7222 -0.4122
 1288TIP3    H2 3798   0.082   3.511   1.614  1.8430 -0.6766  2.2732
 1289TIP3   OH2 3799   8.330   4.472   0.577  0.7867  0.2364  0.4366
 1289TIP3    H1 3800   8.410   4.521   0.596  0.3041  0.3168  2.3331
 1289TIP3    H2 3801   8.351   4.382   0.603  1.2555 -0.3412 -1.8720
 1290TIP3   OH2 3802   6.971   0.080   6.096 -0.0957  0.4453  0.3199
 1290TIP3    H1 3803   6.996   0.019   6.027 -1.0665 -0.0978  0.4320
 1290TIP3    H2 3804   7.036   0.065   6.165 -0.7422 -0.9963  0.6406
 1291TIP3   OH2 3805   1.132   7.497   0.922 -0.0032 -0.2067 -0.1735
 1291TIP3    H1 3806   1.113   7.590   0.929 -0.6790 -0.3350 -0.3125
 1291TIP3    H2 3807   1.200   7.491   0.855  0.4217  0.2309  0.2127
 1292TIP3   OH2 3808   0.846   4.079   1.359  0.0921  0.3577  0.2353
 1292TIP3    H1 3809   0.818   4.006   1.303 -0.3103  1.2024 -0.6779
 1292TIP3    H2 3810   0.796   4.154   1.328  2.3381  1.6076 -0.5379
 1293TIP3   OH2 3811   1.113   5.849   0.041  0.5093 -0.4109  0.2870
 1293TIP3    H1 3812   1.097   5.818   0.130 -0.4264  0.3657  0.3847
 1293TIP3    H2 3813   1.040   5.814  -0.011  2.4749 -3.1751 -0.7325
 1294TIP3   OH2 3814   1.854   6.654   2.264  0.6150 -0.3887 -0.0647
 1294TIP3    H1 3815   1.814   6.739   2.282 -0.1628 -0.9844  1.1103
 1294TIP3    H2 3816   1.926   6.648   2.327  3.0910  0.9961 -2.6661
 1295TIP3   OH2 3817   7.997   4.896   0.210  0.3030 -0.6743 -0.9364
 1295TIP3    H1 3818   7.992   4.836   0.284 -1.1078  0.9886  0.3396
 1295TIP3    H2 3819   7.911   4.891   0.168 -0.0598  0.9201 -0.4278
 1296TIP3   OH2 3820   8.517   5.249   1.257 -0.0859  0.1026 -0.0006
 1296TIP3    H1 3821   8.463   5.304   1.312 -1.1135 -1.8758  1.0310
 1296TIP3    H2 3822   8.481   5.260   1.169  0.0433  1.4355  0.1059
 1297TIP3   OH2 3823   1.527   4.430   1.738 -0.1974  0.0003  0.1835
 1297TIP3    H1 3824   1.445   4.393   1.771  0.8590 -2.2549  0.3956
 1297TIP3    H2 3825   1.566   4.474   1.814 -0.8053  0.3518  0.2957
 1298TIP3   OH2 3826   4.214   7.635   0.100 -0.0349 -0.4091 -0.3436
 1298TIP3    H1 3827   4.219   7.648   0.195  0.2999  2.3775 -0.6884
 1298TIP3    H2 3828   4.247   7.717   0.064 -0.6426 -1.2598 -2.8793
 1299TIP3   OH2 3829   8.164   6.601   0.019 -0.6712 -0.0315  0.1147
 1299TIP3    H1 3830   8.084   6.566  -0.019  0.0723 -0.5924 -0.9641
 1299TIP3    H2 3831   8.206   6.526   0.062 -0.7725  0.2785  0.7586
 1300TIP3   OH2 3832   2.915   6.555   1.228 -0.3501 -0.0897  0.0974
 1300TIP3    H1 3833   2.845   6.569   1.164 -0.2167 -0.3879 -0.1114
 1300TIP3    H2 3834   2.913   6.634   1.282 -0.6010  0.0709 -0.1425
 1301TIP3   OH2 3835   5.072   0.663   6.861  0.0239 -0.0798 -0.6864
 1301TIP3    H1 3836   5.153   0.687   6.816 -0.2410 -1.2883 -1.8496
 1301TIP3    H2 3837   5.003   0.698   6.805 -0.2614  1.7690  0.7861
 1302TIP3   OH2 3838   0.821   1.096   0.850  0.2119 -0.1316 -0.1455
 1302TIP3    H1 3839   0.871   1.172   0.881  0.9981 -0.6050 -0.2626
 1302TIP3    H2 3840   0.770   1.069   0.927  1.1227 -0.4524  0.3486
 1303TIP3   OH2 3841   6.491   4.510   1.877 -0.4267  0.1392  0.3251
 1303TIP3    H1 3842   6.400   4.508   1.849 -0.5469 -1.4626  0.7974
 1303TIP3    H2 3843   6.493   4.575   1.948 -0.8460  1.4023 -0.7873
 1304TIP3   OH2 3844   0.597   4.312   0.947  0.1633 -0.3128  0.7598
 1304TIP3    H1 3845   0.568   4.236   0.895  0.8148 -0.5800  0.7829
 1304TIP3    H2 3846   0.515   4.356   0.972 -0.0983  0.6832 -1.7700
 1305TIP3   OH2 3847   5.160   0.522   6.557 -0.0523 -0.0480 -0.0840
 1305TIP3    H1 3848   5.123   0.478   6.481 -1.1441  0.0061  0.4120
 1305TIP3    H2 3849   5.160   0.456   6.626  0.2662  0.1086  0.0681
 1306TIP3   OH2 3850   0.676   4.228   0.594  0.7699 -0.2566  0.4048
 1306TIP3    H1 3851   0.615   4.229   0.520 -2.1755  0.4245  2.7320
 1306TIP3    H2 3852   0.709   4.138   0.596  1.6918 -0.0110 -2.3348
 1307TIP3   OH2 3853   5.551   1.287   5.699  0.1756 -0.0706 -0.0081
 1307TIP3    H1 3854   5.597   1.281   5.783 -0.0487 -0.0760  0.1157
 1307TIP3    H2 3855   5.611   1.248   5.636 -0.2022 -1.2725  0.3596
 1308TIP3   OH2 3856   0.981   6.724   0.198  0.3873  0.7468 -0.5488
 1308TIP3    H1 3857   1.000   6.633   0.174 -1.1717 -0.1274  1.3828
 1308TIP3    H2 3858   0.893   6.740   0.164 -0.3405  0.6939  1.2497
 1309TIP3   OH2 3859   4.291   3.942   1.418  0.6341  0.5787 -0.3882
 1309TIP3    H1 3860   4.349   3.966   1.489  1.1339 -1.5011 -0.0675
 1309TIP3    H2 3861   4.205   3.934   1.459  0.3703  2.1372 -0.5796
 1310TIP3   OH2 3862   1.255   7.762   6.801 -0.3286  0.9983  0.3293
 1310TIP3    H1 3863   1.336   7.786   6.757 -0.8216  0.9367 -0.6206
 1310TIP3    H2 3864   1.225   7.683   6.756 -0.5838  0.6490  1.0985
 1311TIP3   OH2 3865   0.608   3.504   1.345  0.4209 -0.2242 -0.1664
 1311TIP3    H1 3866   0.583   3.492   1.436 -0.8539 -1.3777 -0.6455
 1311TIP3    H2 3867   0.623   3.415   1.312  1.1151  0.1936 -1.0123
 1312TIP3   OH2 3868   2.586   5.162   0.150 -0.1767  0.1235  0.0060
 1312TIP3    H1 3869   2.668   5.113   0.151 -0.1216  0.2181  0.1720
 1312TIP3    H2 3870   2.610   5.248   0.116 -0.0239  0.4730  0.9877
 1313TIP3   OH2 3871   7.916   2.226   0.708  0.1163 -0.2191 -0.0152
 1313TIP3    H1 3872   7.971   2.160   0.666  0.2732  0.8699 -1.5698
 1313TIP3    H2 3873   7.947   2.310   0.674 -0.1751  0.6695  1.8261
 1314TIP3   OH2 3874   0.564   2.872   2.929  0.2622 -0.5935 -0.3596
 1314TIP3    H1 3875   0.657   2.883   2.946  0.1024 -0.5639  0.5167
 1314TIP3    H2 3876   0.539   2.793   2.977 -0.1541 -0.6145 -0.6067
 1315TIP3   OH2 3877   8.366   4.209   0.613 -0.1666 -0.2896 -0.2159
 1315TIP3    H1 3878   8.434   4.213   0.546 -0.7280 -2.6653 -0.9841
 1315TIP3    H2 3879   8.290   4.171   0.568 -0.4765 -2.1591  1.8099
 1316TIP3   OH2 3880   0.492   3.486   1.618  0.5027  0.2932 -0.0268
 1316TIP3    H1 3881   0.487   3.459   1.710  0.4269  1.5332  0.3391
 1316TIP3    H2 3882   0.405   3.468   1.583  0.4743 -0.0110  0.2001
 1317TIP3   OH2 3883   1.639   5.983   1.245 -0.0383  0.4726  0.2392
 1317TIP3    H1 3884   1.735   5.985   1.241 -0.0490  2.8944  0.3267
 1317TIP3    H2 3885   1.615   5.897   1.211  2.1653 -0.1475  0.1742
 1318TIP3   OH2 3886   0.518   5.321   4.627 -0.6500 -0.0175 -0.2066
 1318TIP3    H1 3887   0.475   5.359   4.704 -0.1987 -2.1749  1.1206
 1318TIP3    H2 3888   0.460   5.249   4.601  0.3238 -0.6679 -0.5674
 1319TIP3   OH2 3889   5.524   1.456   6.190 -0.3315 -0.5383  0.1555
 1319TIP3    H1 3890   5.555   1.389   6.252  1.9108 -0.0887 -0.4171
 1319TIP3    H2 3891   5.584   1.529   6.204 -1.8435  0.8068 -0.2817
 1320TIP3   OH2 3892   0.373   4.913   1.339  0.0798  0.1419 -0.2101
 1320TIP3    H1 3893   0.440   4.872   1.284 -0.0568 -1.0808  0.5034
 1320TIP3    H2 3894   0.290   4.887   1.298 -0.0367 -1.2625  0.8959
 1321TIP3   OH2 3895   2.594   5.338   1.904 -0.2629 -0.5001 -0.1850
 1321TIP3    H1 3896   2.515   5.370   1.949  1.2520  2.5884  0.4331
 1321TIP3    H2 3897   2.658   5.325   1.974  1.0379  1.0111 -1.0636
 1322TIP3   OH2 3898   1.774   7.738   1.167  0.7075  0.2925 -0.4107
 1322TIP3    H1 3899   1.860   7.756   1.130  0.5379  1.6485 -0.1893
 1322TIP3    H2 3900   1.780   7.650   1.203  2.2585  0.7128  0.3701
 1323TIP3   OH2 3901   8.421   4.955   1.842 -0.0681  1.3012  0.0393
 1323TIP3    H1 3902   8.448   5.035   1.798 -0.8104  1.2049 -0.5914
 1323TIP3    H2 3903   8.337   4.932   1.802  1.0334 -0.8305 -1.1587
 1324TIP3   OH2 3904   5.128   7.049   5.840  0.8006  0.3920  0.2775
 1324TIP3    H1 3905   5.145   7.143   5.849  1.1276  0.3057  0.6033
 1324TIP3    H2 3906   5.042   7.036   5.880  0.1503  0.7620 -0.9714
 1325TIP3   OH2 3907   0.057   5.111   0.576 -0.0779 -0.1415 -0.0924
 1325TIP3    H1 3908   0.067   5.181   0.511 -1.3185 -0.0216 -0.1673
 1325TIP3    H2 3909   0.033   5.157   0.657 -1.9026 -0.5308 -0.3859
 1326TIP3   OH2 3910   1.746   4.176   2.741 -0.9610  0.4929 -0.2901
 1326TIP3    H1 3911   1.706   4.109   2.686 -0.2091 -0.9230  0.8476
 1326TIP3    H2 3912   1.689   4.182   2.817 -1.6484  1.9926 -0.8959
 1327TIP3   OH2 3913   0.850   5.376   2.865  0.1032  0.3891 -0.6594
 1327TIP3    H1 3914   0.763   5.365   2.827 -0.0493 -1.0855  0.1093
 1327TIP3    H2 3915   0.899   5.298   2.837  0.0816 -0.5775  1.9193
 1328TIP3   OH2 3916   1.800   6.507   1.643 -0.2392 -0.6625  0.1151
 1328TIP3    H1 3917   1.791   6.503   1.738  0.0354 -3.5369  0.0678
 1328TIP3    H2 3918   1.722   6.556   1.614 -0.6798 -0.3581  1.7587
 1329TIP3   OH2 3919   5.666   2.067   6.348  0.8085  0.0744 -0.4235
 1329TIP3    H1 3920   5.629   2.151   6.374 -1.5272 -0.9038 -0.4304
 1329TIP3    H2 3921   5.608   2.036   6.278  2.4817 -0.8783 -1.4171
 1330TIP3   OH2 3922   3.742   6.465   2.468 -0.3038 -0.1628  0.1503
 1330TIP3    H1 3923   3.738   6.381   2.515  0.0645  0.5060  1.4231
 1330TIP3    H2 3924   3.653   6.499   2.474 -1.0527 -1.5534 -2.4815
 1331TIP3   OH2 3925   4.286   2.819   6.914 -0.5403 -0.2137  0.4472
 1331TIP3    H1 3926   4.265   2.788   6.826  1.1123  0.5179 -0.2241
 1331TIP3    H2 3927   4.259   2.911   6.914 -1.2922 -0.4329  0.9733
 1332TIP3   OH2 3928   7.707   1.648   6.598  0.4068 -0.1918  0.5498
 1332TIP3    H1 3929   7.665   1.665   6.682 -1.8523 -0.2436 -0.5290
 1332TIP3    H2 3930   7.687   1.556   6.580 -0.1554  0.1414 -0.5906
 1333TIP3   OH2 3931   1.714   4.067   1.715  0.2167  0.2141 -0.2819
 1333TIP3    H1 3932   1.655   3.994   1.699 -0.2335  0.4896  0.0886
 1333TIP3    H2 3933   1.798   4.027   1.735  0.7859 -0.1463 -3.1708
 1334TIP3   OH2 3934   1.500   4.628   1.534 -0.3762 -0.0159  0.3577
 1334TIP3    H1 3935   1.426   4.689   1.535 -1.1118 -0.8956  0.7362
 1334TIP3    H2 3936   1.482   4.568   1.607 -0.2613 -1.3582 -0.6939
 1335TIP3   OH2 3937   2.865   4.119   2.580 -0.1805  0.0273 -0.2295
 1335TIP3    H1 3938   2.908   4.199   2.552 -1.3221  1.0343  0.7939
 1335TIP3    H2 3939   2.779   4.122   2.537  0.1630 -1.1758 -1.0218
 1336TIP3   OH2 3940   0.616   3.485   6.489  0.3603 -0.3459  0.5099
 1336TIP3    H1 3941   0.578   3.397   6.500 -0.3177 -0.2895 -1.2352
 1336TIP3    H2 3942   0.583   3.534   6.564 -0.2278 -1.2522  0.8594
 1337TIP3   OH2 3943   0.364   6.150   1.092  0.1462  0.2558  0.4788
 1337TIP3    H1 3944   0.396   6.088   1.157  0.0882  2.0646  2.2716
 1337TIP3    H2 3945   0.421   6.136   1.016  1.5810 -0.4369  1.6448
 1338TIP3   OH2 3946   1.664   6.173   1.421  0.0186 -0.4663  0.3525
 1338TIP3    H1 3947   1.619   6.257   1.416  0.6955 -0.0260  1.4327
 1338TIP3    H2 3948   1.627   6.121   1.350 -1.0902  0.4129  0.2785
 1339TIP3   OH2 3949   8.445   5.729   0.588  0.2763 -0.4412 -0.1313
 1339TIP3    H1 3950   8.502   5.653   0.585 -1.0926 -1.5261  0.5681
 1339TIP3    H2 3951   8.487   5.787   0.652 -0.0933 -1.8375  1.4358
 1340TIP3   OH2 3952   2.667   5.187   1.674 -0.2821 -0.4459 -0.1318
 1340TIP3    H1 3953   2.669   5.248   1.747 -0.7678 -0.6883  0.0903
 1340TIP3    H2 3954   2.664   5.100   1.715  0.4129 -0.6225 -0.4427
 1341TIP3   OH2 3955   3.925   4.427   2.525  0.2560  0.0654  0.1405
 1341TIP3    H1 3956   3.854   4.367   2.505  0.4883  0.3899 -1.6866
 1341TIP3    H2 3957   3.994   4.406   2.463  0.9429  1.1676  0.5017
 1342TIP3   OH2 3958   7.885   2.039   4.883  0.3414  0.5136  0.2844
 1342TIP3    H1 3959   7.846   2.038   4.795  0.7778 -1.7593  0.0906
 1342TIP3    H2 3960   7.975   2.010   4.869  0.4774  0.3675  1.4709
 1343TIP3   OH2 3961   0.333   4.916   2.348 -0.2457 -0.1983 -0.0438
 1343TIP3    H1 3962   0.302   4.853   2.413  0.3130  1.1371  1.5317
 1343TIP3    H2 3963   0.420   4.884   2.324  0.1369  0.1070  0.9340
 1344TIP3   OH2 3964   0.046   1.585   6.736 -0.1486  0.7498 -0.3421
 1344TIP3    H1 3965   0.139   1.560   6.728 -0.5675 -0.5661 -1.2991
 1344TIP3    H2 3966   0.048   1.669   6.782  1.4586  0.2189  0.5946
 1345TIP3   OH2 3967   7.432   0.909   6.280 -0.4714  0.0004  0.5705
 1345TIP3    H1 3968   7.343   0.878   6.296 -0.2130 -1.1801 -0.2822
 1345TIP3    H2 3969   7.481   0.831   6.255  0.7399  0.6921  0.7453
 1346TIP3   OH2 3970   3.054   4.483   0.938 -0.2595 -0.3857 -0.6077
 1346TIP3    H1 3971   3.088   4.570   0.959 -1.3883 -0.1374  0.2097
 1346TIP3    H2 3972   2.959   4.495   0.934 -0.3876 -1.4875 -0.9511
 1347TIP3   OH2 3973   8.260   5.261   1.526 -0.5299  0.4328 -0.1952
 1347TIP3    H1 3974   8.167   5.277   1.542  0.2438  3.7494  1.3691
 1347TIP3    H2 3975   8.294   5.344   1.494  1.9290 -0.7463 -0.7817
 1348TIP3   OH2 3976   3.133   6.066   0.877  0.2199  0.3144 -0.3708
 1348TIP3    H1 3977   3.108   6.118   0.953  1.1183  1.4037 -0.8035
 1348TIP3    H2 3978   3.075   6.097   0.807 -0.5649 -0.6440 -0.1606
 1349TIP3   OH2 3979   0.876   2.948   6.913 -0.0974  0.5522 -0.2172
 1349TIP3    H1 3980   0.818   2.881   6.950 -1.4240  2.0325  0.3968
 1349TIP3    H2 3981   0.897   2.914   6.825 -2.1676  0.1512 -0.5893
 1350TIP3   OH2 3982   0.220   6.539   0.606  0.4441 -0.0268  0.7207
 1350TIP3    H1 3983   0.202   6.612   0.665  3.0824  1.0089  0.3122
 1350TIP3    H2 3984   0.305   6.560   0.567  0.6273 -2.6781 -0.4099
 1351TIP3   OH2 3985   2.361   4.429   1.258 -0.3062 -0.5409  0.3863
 1351TIP3    H1 3986   2.432   4.420   1.321  0.7517 -0.6884 -0.8038
 1351TIP3    H2 3987   2.365   4.349   1.206 -1.0151 -0.3183 -0.0211
 1352TIP3   OH2 3988   8.066   3.837   0.498  0.1592 -0.0183  0.0291
 1352TIP3    H1 3989   8.151   3.794   0.500  0.2218  0.1064 -0.0150
 1352TIP3    H2 3990   8.083   3.927   0.524  0.3221  0.4946 -1.7625
 1353TIP3   OH2 3991   2.658   4.767   0.305  0.0534 -0.5999  0.1546
 1353TIP3    H1 3992   2.649   4.688   0.359 -1.1107 -1.6819 -1.5938
 1353TIP3    H2 3993   2.573   4.776   0.262  0.4670  1.1405 -0.3258
 1354TIP3   OH2 3994   1.115   5.866   2.214  0.4612  0.5538 -1.1882
 1354TIP3    H1 3995   1.158   5.781   2.221  1.1420  1.0508  0.8655
 1354TIP3    H2 3996   1.022   5.846   2.225  0.6988  0.1635  0.2252
 1355TIP3   OH2 3997   0.337   5.714   1.944 -0.4230 -0.1236  0.7399
 1355TIP3    H1 3998   0.384   5.632   1.924  0.9661  0.8351 -0.0518
 1355TIP3    H2 3999   0.353   5.769   1.867 -5.0595 -0.6592 -0.7710
 1356TIP3   OH2 4000   1.426   4.181   1.362 -0.2147 -0.1188 -0.0095
 1356TIP3    H1 4001   1.496   4.222   1.414 -0.3180 -1.5279  1.2670
 1356TIP3    H2 4002   1.443   4.087   1.370 -0.2526 -0.3695 -2.5252
 1357TIP3   OH2 4003   2.136   7.404   5.186 -0.3758 -0.4085 -0.4511
 1357TIP3    H1 4004   2.161   7.459   5.111  0.7688 -0.3176 -0.0221
 1357TIP3    H2 4005   2.201   7.426   5.254  0.0083 -2.1840 -0.2266
 1358TIP3   OH2 4006   1.517   5.782   2.306  0.0096  0.0869  0.4411
 1358TIP3    H1 4007   1.447   5.718   2.289  0.5963 -0.5716  0.4664
 1358TIP3    H2 4008   1.488   5.861   2.262 -1.2650  0.1440  1.3241
 1359TIP3   OH2 4009   8.462   3.466   1.782  0.3367  0.4002  0.9770
 1359TIP3    H1 4010   8.509   3.397   1.829  1.5099  1.1779  0.9679
 1359TIP3    H2 4011   8.458   3.538   1.844 -1.2188  0.2035  1.1169
 1360TIP3   OH2 4012   0.733   5.094   0.789 -0.2793  0.0038  0.0926
 1360TIP3    H1 4013   0.680   5.170   0.815  0.2360  0.3001  0.2876
 1360TIP3    H2 4014   0.823   5.126   0.791 -0.0918 -0.4892 -0.2718
 1361TIP3   OH2 4015   1.189   3.553   3.196 -0.1988  0.0936  0.2771
 1361TIP3    H1 4016   1.190   3.596   3.110 -1.9918 -0.4295 -0.0190
 1361TIP3    H2 4017   1.098   3.527   3.209  0.2753 -0.8471  1.8458
 1362TIP3   OH2 4018   0.130   5.409   1.874  0.0584 -0.0288  0.2406
 1362TIP3    H1 4019   0.137   5.420   1.969  0.5463 -1.2681  0.3620
 1362TIP3    H2 4020   0.219   5.388   1.846 -0.4144 -1.4725 -0.2273
 1363TIP3   OH2 4021   1.191   4.446   1.552  0.1461  0.1787 -0.0286
 1363TIP3    H1 4022   1.170   4.419   1.641  0.2024  1.5100  0.4021
 1363TIP3    H2 4023   1.188   4.365   1.501 -1.4165 -0.3569  0.8810
 1364TIP3   OH2 4024   0.408   3.409   1.909  0.0279 -0.2150 -0.5729
 1364TIP3    H1 4025   0.333   3.352   1.888 -0.4300 -0.5208  1.7378
 1364TIP3    H2 4026   0.442   3.374   1.991  2.5113  0.1632 -1.3947
 1365TIP3   OH2 4027   6.388   0.259   6.652 -0.0256  0.3498 -0.1782
 1365TIP3    H1 4028   6.391   0.239   6.745 -0.8882  1.5605  0.1139
 1365TIP3    H2 4029   6.429   0.345   6.644 -0.1595  0.3530 -0.8919
 1366TIP3   OH2 4030   1.804   3.197   3.322  0.1643 -0.6494  0.7263
 1366TIP3    H1 4031   1.826   3.270   3.381  1.2401 -1.3887  1.2435
 1366TIP3    H2 4032   1.731   3.231   3.270  0.3756  0.6569  1.2434
 1367TIP3   OH2 4033   1.838   4.588   2.579 -0.2273 -0.2452 -0.5498
 1367TIP3    H1 4034   1.823   4.681   2.559 -0.2492 -0.0586  0.3095
 1367TIP3    H2 4035   1.822   4.543   2.496  0.7987  0.6236 -1.2397
 1368TIP3   OH2 4036   7.855   3.875   6.793 -0.0059  0.7414 -0.4763
 1368TIP3    H1 4037   7.917   3.812   6.755 -0.3026 -0.8676  1.5971
 1368TIP3    H2 4038   7.775   3.824   6.807 -0.3226  1.6159  1.0543
 1369TIP3   OH2 4039   3.102   7.462   1.314 -0.2051 -0.4972 -0.0389
 1369TIP3    H1 4040   3.102   7.546   1.360 -1.7951  0.9623 -2.5914
 1369TIP3    H2 4041   3.132   7.399   1.380 -1.6106  1.6141  2.7507
 1370TIP3   OH2 4042   6.463   0.796   5.879 -0.5660 -0.2047 -0.6730
 1370TIP3    H1 4043   6.522   0.723   5.899 -1.0672 -0.2373  0.7512
 1370TIP3    H2 4044   6.504   0.841   5.806 -0.4951 -2.2015 -1.8854
 1371TIP3   OH2 4045   7.669   1.219   5.230 -0.6487  0.1549  0.2777
 1371TIP3    H1 4046   7.703   1.135   5.261  1.0529  0.9625  0.6787
 1371TIP3    H2 4047   7.616   1.251   5.302  2.2357  1.4180  1.9185
 1372TIP3   OH2 4048   5.480   2.412   6.155 -0.0583 -0.4736  0.6006
 1372TIP3    H1 4049   5.440   2.450   6.077  2.3302 -0.1153 -0.4959
 1372TIP3    H2 4050   5.572   2.403   6.132  0.8578  0.4918  3.7109
 1373TIP3   OH2 4051   2.332   6.231   0.974 -0.4932 -0.0486 -0.2319
 1373TIP3    H1 4052   2.309   6.311   0.926  0.7340  1.1450  1.1264
 1373TIP3    H2 4053   2.372   6.263   1.055 -1.6865 -2.0325  1.1759
 1374TIP3   OH2 4054   7.427   0.320   6.766 -0.1663 -0.1113  0.2386
 1374TIP3    H1 4055   7.458   0.233   6.745  1.8106  0.5359  0.3792
 1374TIP3    H2 4056   7.400   0.315   6.858  1.3266 -0.2136  0.6792
 1375TIP3   OH2 4057   2.792   4.527   0.900  0.1854  0.4954 -0.9950
 1375TIP3    H1 4058   2.720   4.466   0.884  1.2015 -1.6855  2.3469
 1375TIP3    H2 4059   2.749   4.610   0.921 -1.2974 -0.2713 -0.9039
 1376TIP3   OH2 4060   1.724   5.532   1.540 -0.3600  0.0029  0.1584
 1376TIP3    H1 4061   1.808   5.564   1.506 -0.6510 -0.1215 -0.6803
 1376TIP3    H2 4062   1.740   5.518   1.633  0.4236  0.4193  0.0880
 1377TIP3   OH2 4063   0.145   5.304   0.797 -0.3013 -0.1422  0.0786
 1377TIP3    H1 4064   0.182   5.392   0.790 -0.3565 -0.0658  0.7413
 1377TIP3    H2 4065   0.221   5.246   0.791 -0.4476 -0.1420 -2.3441
 1378TIP3   OH2 4066   3.449   5.079   1.021 -0.2442  0.1332  0.5638
 1378TIP3    H1 4067   3.395   5.158   1.016  0.4877  0.7099  1.8130
 1378TIP3    H2 4068   3.537   5.109   1.002 -0.4370 -0.9516 -2.3344
 1379TIP3   OH2 4069   1.909   4.457   0.632  0.2503  0.2962  0.4410
 1379TIP3    H1 4070   1.890   4.551   0.622 -1.6614 -0.1877 -0.5927
 1379TIP3    H2 4071   1.939   4.449   0.723  2.7766  2.2651 -0.1483
 1380TIP3   OH2 4072   2.340   5.992   0.175  0.0968 -0.0009  0.2900
 1380TIP3    H1 4073   2.294   5.955   0.100 -1.6818  1.8620  0.4111
 1380TIP3    H2 4074   2.288   5.967   0.251  0.8981 -0.3492  0.7305
 1381TIP3   OH2 4075   0.986   4.792   2.323  0.2224  0.1411  0.1128
 1381TIP3    H1 4076   1.009   4.882   2.345  1.4877 -0.1234 -0.0620
 1381TIP3    H2 4077   1.063   4.741   2.350 -1.2615 -1.1516  2.0728
 1382TIP3   OH2 4078   0.904   3.621   0.843 -0.0169  0.0183  0.0860
 1382TIP3    H1 4079   0.924   3.712   0.822 -1.0666  0.3089  0.3565
 1382TIP3    H2 4080   0.846   3.592   0.773 -0.4418 -0.1577  0.5087
 1383TIP3   OH2 4081   1.959   3.293   1.804 -0.0276 -0.5900  0.1759
 1383TIP3    H1 4082   1.900   3.368   1.811  0.5878 -0.0718 -0.1162
 1383TIP3    H2 4083   1.903   3.217   1.814 -0.4929 -0.0609  1.6158
 1384TIP3   OH2 4084   6.637   4.121   3.032 -0.0945 -0.4134  0.0702
 1384TIP3    H1 4085   6.657   4.122   3.126  2.3270 -0.5467 -0.4184
 1384TIP3    H2 4086   6.544   4.142   3.027 -0.2195 -0.2911  2.5028
 1385TIP3   OH2 4087   3.910   5.523   1.196  0.4745 -0.0228 -0.1350
 1385TIP3    H1 4088   3.970   5.591   1.226 -1.6515  1.2499  1.3472
 1385TIP3    H2 4089   3.844   5.517   1.265 -0.0727 -2.7136 -0.8456
 1386TIP3   OH2 4090   2.644   4.128   0.680  0.0155 -0.2346  0.3824
 1386TIP3    H1 4091   2.685   4.068   0.617 -0.1298 -0.1813  0.2359
 1386TIP3    H2 4092   2.701   4.205   0.680  0.9063 -0.8848  1.5261
 1387TIP3   OH2 4093   1.232   5.725   0.817  0.1495  0.2991 -0.3865
 1387TIP3    H1 4094   1.268   5.637   0.820  2.1941  1.1351  0.6833
 1387TIP3    H2 4095   1.206   5.744   0.907  0.8294  1.2036 -0.3676
 1388TIP3   OH2 4096   6.300   4.182   2.841  0.0229  0.1573 -0.2984
 1388TIP3    H1 4097   6.225   4.142   2.884  1.0771 -2.2497 -0.6408
 1388TIP3    H2 4098   6.360   4.204   2.912 -0.3798  0.8188 -0.1507
 1389TIP3   OH2 4099   2.724   6.979   0.649  0.0877  0.1849  0.0358
 1389TIP3    H1 4100   2.744   7.051   0.588 -0.4764  0.7179  0.4651
 1389TIP3    H2 4101   2.782   6.993   0.723 -0.6258  0.7145  0.5059
 1390TIP3   OH2 4102   6.867   0.315   6.236  0.0795 -0.4138 -0.2341
 1390TIP3    H1 4103   6.878   0.230   6.194 -0.1665 -0.9513  0.7884
 1390TIP3    H2 4104   6.773   0.332   6.230 -0.0048 -0.6467  0.3928
 1391TIP3   OH2 4105   1.457   2.879   2.089  0.6926  0.2893 -0.4562
 1391TIP3    H1 4106   1.436   2.796   2.047 -1.2523  0.9422 -0.8183
 1391TIP3    H2 4107   1.427   2.945   2.027  0.3446  1.2602  0.7277
 1392TIP3   OH2 4108   0.995   6.030   0.914  0.2142  0.5863  0.3485
 1392TIP3    H1 4109   1.089   6.042   0.900  0.5012 -1.6346  0.2578
 1392TIP3    H2 4110   0.954   6.067   0.836  1.2496 -2.0010 -1.4932
 1393TIP3   OH2 4111   1.808   6.964   0.555  0.2389 -0.3173  0.1743
 1393TIP3    H1 4112   1.726   7.003   0.587  0.9841  0.7517  0.7907
 1393TIP3    H2 4113   1.790   6.869   0.554 -0.9592 -0.1085  0.4189
 1394TIP3   OH2 4114   3.889   1.032   0.570  0.2872 -0.3439 -0.4221
 1394TIP3    H1 4115   3.794   1.036   0.558  0.3155  1.4292 -0.1766
 1394TIP3    H2 4116   3.925   1.042   0.482  0.2628 -0.8690 -0.4962
 1395TIP3   OH2 4117   2.649   7.626   1.065  0.0576  0.5254 -0.6443
 1395TIP3    H1 4118   2.710   7.632   1.139 -1.5539  0.9085  0.6634
 1395TIP3    H2 4119   2.567   7.663   1.098 -1.1702 -0.8465 -2.0787
 1396TIP3   OH2 4120   2.504   3.356   2.609 -0.6504  0.1755 -0.1122
 1396TIP3    H1 4121   2.493   3.262   2.600  0.1703  0.1857 -1.3503
 1396TIP3    H2 4122   2.597   3.371   2.592 -0.8184  1.2258 -0.1372
 1397TIP3   OH2 4123   7.945   6.516   2.648  0.1877  0.1578  0.3432
 1397TIP3    H1 4124   7.921   6.607   2.662  2.7939  0.7967  0.9400
 1397TIP3    H2 4125   7.891   6.488   2.574 -1.2351  1.9329  0.6890
 1398TIP3   OH2 4126   1.441   6.672   0.772  0.2992 -0.3879  0.3280
 1398TIP3    H1 4127   1.411   6.594   0.726 -1.4797 -1.0138  2.4450
 1398TIP3    H2 4128   1.369   6.734   0.764  1.2794  0.6591 -0.4433
 1399TIP3   OH2 4129   2.061   5.294   1.768  0.7565  0.2861 -0.0688
 1399TIP3    H1 4130   2.130   5.305   1.702 -0.1308  0.3329 -1.0008
 1399TIP3    H2 4131   2.045   5.200   1.771 -0.1007  0.3985 -0.8633
 1400TIP3   OH2 4132   1.543   3.907   2.087  0.3440 -0.7895 -0.0119
 1400TIP3    H1 4133   1.623   3.859   2.065  0.7442 -0.0633 -0.1432
 1400TIP3    H2 4134   1.536   3.974   2.020  0.6693  0.3745  1.1032
 1401TIP3   OH2 4135   4.175   7.893   6.767  0.0424  0.3811 -0.0063
 1401TIP3    H1 4136   4.084   7.910   6.741 -0.0096  1.6289  0.9469
 1401TIP3    H2 4137   4.184   7.798   6.759 -1.1612  0.3075 -0.7115
 1402TIP3   OH2 4138   0.412   2.355   1.501 -0.5685  0.6299  0.1923
 1402TIP3    H1 4139   0.422   2.342   1.596 -1.7436 -0.3363  0.2015
 1402TIP3    H2 4140   0.337   2.300   1.478  1.1893 -1.0423 -1.7155
 1403TIP3   OH2 4141   7.253   3.166   2.762 -0.0549  0.0009 -0.5371
 1403TIP3    H1 4142   7.265   3.139   2.671 -0.4878 -0.5916 -0.4252
 1403TIP3    H2 4143   7.171   3.124   2.789 -0.6307  1.2778 -0.2825
 1404TIP3   OH2 4144   0.784   3.232   0.854 -0.3687  1.1534  0.2730
 1404TIP3    H1 4145   0.714   3.264   0.911 -0.3567  1.3465  0.1826
 1404TIP3    H2 4146   0.751   3.245   0.765 -0.7607 -0.0089  0.2471
 1405TIP3   OH2 4147   6.198   1.300   4.518 -0.7492 -0.2254 -0.2421
 1405TIP3    H1 4148   6.197   1.367   4.449 -1.1234 -0.3254 -0.3329
 1405TIP3    H2 4149   6.288   1.301   4.551 -0.8594  0.5991  0.0327
 1406TIP3   OH2 4150   2.293   7.705   2.206 -0.1655 -0.0472  0.2890
 1406TIP3    H1 4151   2.227   7.742   2.263 -1.4020 -1.0450 -0.4645
 1406TIP3    H2 4152   2.312   7.618   2.243  0.1244 -0.0941  0.0383
 1407TIP3   OH2 4153   7.050   2.513   6.255  0.0893  0.2258 -0.0286
 1407TIP3    H1 4154   6.982   2.525   6.322  1.2525 -0.2314  1.2484
 1407TIP3    H2 4155   7.119   2.574   6.280  1.5817 -1.6711  0.6160
 1408TIP3   OH2 4156   6.685   3.746   1.669 -0.6568 -0.8474 -0.2119
 1408TIP3    H1 4157   6.605   3.799   1.665 -1.0229 -1.3378  0.4386
 1408TIP3    H2 4158   6.724   3.754   1.583 -1.3423 -0.4851 -0.4889
 1409TIP3   OH2 4159   2.200   4.844   3.535  0.1983  0.3024 -0.0094
 1409TIP3    H1 4160   2.122   4.862   3.586  0.8450 -1.3191  1.6083
 1409TIP3    H2 4161   2.168   4.803   3.455 -0.7241  1.6302 -0.3396
 1410TIP3   OH2 4162   2.509   2.003   1.907 -0.4846 -0.0443 -0.3728
 1410TIP3    H1 4163   2.420   1.989   1.876 -0.5811 -0.1802 -0.0411
 1410TIP3    H2 4164   2.508   1.973   1.998  0.2566 -1.3919 -0.7962
 1411TIP3   OH2 4165   1.583   5.798   0.250  0.3997  0.0111  0.3494
 1411TIP3    H1 4166   1.520   5.784   0.179 -2.2451 -3.7177  3.1946
 1411TIP3    H2 4167   1.547   5.872   0.300  1.2544  1.4102 -1.0672
 1412TIP3   OH2 4168   8.473   2.724   5.796 -0.4436  0.2523 -0.4110
 1412TIP3    H1 4169   8.505   2.804   5.754 -0.8674  0.2965 -0.6486
 1412TIP3    H2 4170   8.386   2.711   5.760 -0.1516 -0.6471 -0.8315
 1413TIP3   OH2 4171   7.898   1.293   6.872  0.3478  0.4614 -0.2921
 1413TIP3    H1 4172   7.809   1.288   6.836 -0.4749 -0.6998  1.7939
 1413TIP3    H2 4173   7.949   1.232   6.820 -0.9844 -1.7333  0.8937
 1414TIP3   OH2 4174   7.856   1.264   5.853 -0.4804 -0.0493 -0.4480
 1414TIP3    H1 4175   7.898   1.196   5.800  0.2349  0.8183 -1.0170
 1414TIP3    H2 4176   7.918   1.338   5.850  0.0857 -0.3394  2.4677
 1415TIP3   OH2 4177   1.777   6.843   0.232  0.2687 -0.3541 -0.3482
 1415TIP3    H1 4178   1.722   6.835   0.153  1.7350 -0.9820 -1.3329
 1415TIP3    H2 4179   1.715   6.859   0.303 -0.9785  1.5444 -1.8320
 1416TIP3   OH2 4180   0.880   2.330   5.122 -0.3051 -0.8572  0.0055
 1416TIP3    H1 4181   0.906   2.245   5.157 -0.6535 -0.6816  0.6919
 1416TIP3    H2 4182   0.789   2.319   5.097 -0.5504 -0.4916  0.7249
 1417TIP3   OH2 4183   0.083   4.494   1.347  0.1130  0.3202 -0.1213
 1417TIP3    H1 4184   0.042   4.571   1.308  1.3806  0.1883 -1.7641
 1417TIP3    H2 4185   0.036   4.420   1.307  0.2488  0.2083 -0.0716
 1418TIP3   OH2 4186   7.641   0.804   6.481 -0.5072 -0.3979  0.1703
 1418TIP3    H1 4187   7.576   0.736   6.500  0.4682 -1.5466 -0.5454
 1418TIP3    H2 4188   7.611   0.845   6.400  0.5519 -2.0858 -1.1090
 1419TIP3   OH2 4189   7.084   3.500   3.999  0.4078  0.3839  0.1812
 1419TIP3    H1 4190   6.994   3.525   3.981  0.6128 -0.4912 -2.2169
 1419TIP3    H2 4191   7.137   3.554   3.940  1.1034 -2.4424 -1.9151
 1420TIP3   OH2 4192   0.577   2.912   5.594  0.1377  0.5216 -0.3966
 1420TIP3    H1 4193   0.536   2.875   5.672 -0.3230  1.5854 -0.1227
 1420TIP3    H2 4194   0.631   2.984   5.627 -0.2212  1.1080 -1.0858
 1421TIP3   OH2 4195   4.673   5.647   1.202  0.0107 -0.3916 -0.5977
 1421TIP3    H1 4196   4.673   5.720   1.264 -0.7271  0.3425 -1.4373
 1421TIP3    H2 4197   4.733   5.583   1.239 -0.5801 -0.0541  0.9829
 1422TIP3   OH2 4198   2.063   5.447   1.993 -0.2707  0.9424  0.5027
 1422TIP3    H1 4199   2.086   5.391   2.067 -0.5845  0.4305  0.2130
 1422TIP3    H2 4200   2.051   5.387   1.920 -1.3227  1.3193  0.3565
 1423TIP3   OH2 4201   7.575   2.047   6.569  0.4935 -0.3981 -0.6803
 1423TIP3    H1 4202   7.580   1.954   6.590  0.8189 -0.6808 -1.9744
 1423TIP3    H2 4203   7.618   2.055   6.484 -0.2737  0.8103 -0.9679
 1424TIP3   OH2 4204   6.255   6.589   5.665 -0.1952  0.8813  0.2726
 1424TIP3    H1 4205   6.268   6.549   5.579 -3.0870 -2.0828  1.1181
 1424TIP3    H2 4206   6.266   6.517   5.727 -1.3480  2.2899  2.1636
 1425TIP3   OH2 4207   3.491   7.751   6.550 -0.7220  0.1462 -0.0087
 1425TIP3    H1 4208   3.472   7.664   6.585 -1.3989 -0.3920 -1.6656
 1425TIP3    H2 4209   3.573   7.740   6.501 -1.2428  0.2382 -0.9108
 1426TIP3   OH2 4210   8.221   2.904   5.911  0.2859 -0.1407  0.0948
 1426TIP3    H1 4211   8.214   2.878   5.819  0.2279 -1.4295  0.4485
 1426TIP3    H2 4212   8.180   2.832   5.959  0.8655  0.2370  1.1708
 1427TIP3   OH2 4213   3.484   3.715   1.313 -0.5653  0.2360 -0.3525
 1427TIP3    H1 4214   3.453   3.626   1.301 -0.1048  0.0809 -0.3953
 1427TIP3    H2 4215   3.406   3.769   1.304 -1.2193 -0.3060  1.7827
 1428TIP3   OH2 4216   6.928   1.554   6.881  0.4643 -0.3814 -0.0169
 1428TIP3    H1 4217   6.948   1.641   6.916 -0.5977 -0.2395  0.2354
 1428TIP3    H2 4218   6.976   1.494   6.938  0.2308 -0.0367  0.5447
 1429TIP3   OH2 4219   3.579   7.570   0.207 -0.2533  0.3949 -0.5193
 1429TIP3    H1 4220   3.631   7.630   0.261 -0.7437  1.3781 -1.1258
 1429TIP3    H2 4221   3.585   7.486   0.252  0.6825  0.8339  0.1867
 1430TIP3   OH2 4222   0.604   3.561   0.210  0.5180  0.2790 -0.0717
 1430TIP3    H1 4223   0.647   3.488   0.256 -0.6898  0.5290  1.4807
 1430TIP3    H2 4224   0.516   3.529   0.192  0.6255  0.6105 -1.2475
 1431TIP3   OH2 4225   1.028   1.128   6.387 -0.0083  0.7369 -0.6803
 1431TIP3    H1 4226   1.119   1.106   6.368  0.5301  1.2533  1.2157
 1431TIP3    H2 4227   0.997   1.057   6.444 -0.6787  0.7776 -0.9835
 1432TIP3   OH2 4228   8.067   3.001   5.577  0.5738  0.3347  0.6111
 1432TIP3    H1 4229   7.985   2.955   5.560 -0.3924  1.2467  2.5551
 1432TIP3    H2 4230   8.122   2.982   5.501 -1.1886 -0.8435 -0.4090
 1433TIP3   OH2 4231   1.558   7.801   0.859  0.4822 -0.0030  0.1496
 1433TIP3    H1 4232   1.646   7.828   0.832 -0.1340  1.0253 -0.8392
 1433TIP3    H2 4233   1.504   7.816   0.782 -0.6313 -0.3381  0.8658
 1434TIP3   OH2 4234   2.936   7.678   0.404  0.1186  0.1621  0.0147
 1434TIP3    H1 4235   2.969   7.768   0.410  1.7064 -0.5323  2.0432
 1434TIP3    H2 4236   2.843   7.685   0.428  0.0345  1.3420 -0.5776
 1435TIP3   OH2 4237   0.243   2.960   6.035  0.1028  0.1854 -0.1282
 1435TIP3    H1 4238   0.224   2.866   6.037  0.0231  0.1618 -1.3611
 1435TIP3    H2 4239   0.163   3.001   6.066 -0.2784 -0.1134 -0.6966
 1436TIP3   OH2 4240   0.725   0.991   5.889 -0.2644  0.3175  0.6996
 1436TIP3    H1 4241   0.776   0.955   5.961 -1.6325 -1.7070  0.6726
 1436TIP3    H2 4242   0.792   1.025   5.828  0.9149  1.0696  2.3836
 1437TIP3   OH2 4243   0.828   0.828   5.240  0.1185  0.7467 -0.3155
 1437TIP3    H1 4244   0.765   0.813   5.310  0.5392  0.0243 -0.0824
 1437TIP3    H2 4245   0.913   0.834   5.285  0.6564 -1.7525 -0.9243
 1438TIP3   OH2 4246   4.257   5.626   0.248  0.0324 -0.2142  0.7891
 1438TIP3    H1 4247   4.329   5.569   0.221 -0.4949  0.2027 -1.6816
 1438TIP3    H2 4248   4.270   5.706   0.196 -3.3778 -0.9433 -1.3069
 1439TIP3   OH2 4249   7.992   1.105   5.381 -0.5174 -0.7783  0.0904
 1439TIP3    H1 4250   7.921   1.055   5.421 -0.1397 -1.4980 -0.1236
 1439TIP3    H2 4251   8.026   1.047   5.312  0.0717 -0.3157 -0.0121
 1440TIP3   OH2 4252   7.901   0.988   5.106  0.0597 -0.0285  0.7551
 1440TIP3    H1 4253   7.931   0.918   5.048  0.0804  1.6180 -1.2937
 1440TIP3    H2 4254   7.810   0.967   5.125 -0.1412 -0.2472 -0.4273
 1441TIP3   OH2 4255   8.030   0.685   5.955 -0.0776  0.4192  0.8159
 1441TIP3    H1 4256   8.018   0.733   5.873 -0.4124 -0.4051  0.3684
 1441TIP3    H2 4257   8.052   0.752   6.020  2.6824  0.8547 -0.4624
 1442TIP3   OH2 4258   7.721   2.759   0.829 -0.6709  0.6947 -0.4833
 1442TIP3    H1 4259   7.709   2.828   0.894  0.4767  0.3406  0.1192
 1442TIP3    H2 4260   7.805   2.718   0.852 -0.4664  0.2650 -1.9028
 1443TIP3   OH2 4261   7.375   1.560   6.735  0.3271 -0.2593 -0.5864
 1443TIP3    H1 4262   7.405   1.649   6.754  0.2673 -0.6963  1.6413
 1443TIP3    H2 4263   7.432   1.503   6.787 -1.8947 -1.3273  0.7476
 1444TIP3   OH2 4264   1.668   2.162   5.965 -0.4186  0.0740  0.2223
 1444TIP3    H1 4265   1.671   2.090   6.028 -0.4028  0.3255  0.5118
 1444TIP3    H2 4266   1.581   2.201   5.978  0.0538  0.9089  0.9696
 1445TIP3   OH2 4267   2.618   6.005   1.943  0.1789 -0.0345 -0.0703
 1445TIP3    H1 4268   2.529   6.034   1.925  0.5437  1.1944  0.0705
 1445TIP3    H2 4269   2.637   6.039   2.031  1.3275  1.0176 -0.7102
 1446TIP3   OH2 4270   2.104   1.181   6.695  0.0114  0.2888  0.3126
 1446TIP3    H1 4271   2.156   1.198   6.774 -0.7091  0.6769  0.7090
 1446TIP3    H2 4272   2.165   1.140   6.635  0.6978  0.4435  0.8948
 1447TIP3   OH2 4273   6.403   0.069   2.293  0.4062  0.3465 -0.6846
 1447TIP3    H1 4274   6.442   0.076   2.380 -0.5554  1.9946 -0.3774
 1447TIP3    H2 4275   6.440  -0.012   2.257  1.1470 -0.1162  1.0717
 1448TIP3   OH2 4276   1.978   5.332   0.510 -0.3257 -0.2844  0.3871
 1448TIP3    H1 4277   1.920   5.358   0.438  0.3883  0.5365  0.0955
 1448TIP3    H2 4278   1.937   5.253   0.546 -1.5311  0.1879  0.0887
 1449TIP3   OH2 4279   7.283   3.844   4.790 -0.5377  0.4078 -0.7137
 1449TIP3    H1 4280   7.241   3.899   4.856  1.1217  2.0870 -1.0211
 1449TIP3    H2 4281   7.362   3.811   4.833  0.5988  1.5709 -1.8251
 1450TIP3   OH2 4282   7.372   4.318   6.831  0.1912  0.2845 -0.0979
 1450TIP3    H1 4283   7.374   4.412   6.813  1.2910  0.4713  0.9644
 1450TIP3    H2 4284   7.388   4.277   6.745  1.1123  1.0938 -0.3152
 1451TIP3   OH2 4285   0.501   3.262   0.237  0.0433  0.1938  0.0055
 1451TIP3    H1 4286   0.487   3.169   0.253 -2.2537  0.5139 -0.0633
 1451TIP3    H2 4287   0.595   3.269   0.220  0.4265 -1.9502  1.0502
 1452TIP3   OH2 4288   5.821   3.158   5.791  0.4148  0.1449  0.3194
 1452TIP3    H1 4289   5.760   3.189   5.858 -0.0722 -0.3588  0.1093
 1452TIP3    H2 4290   5.860   3.079   5.829 -0.5016 -0.6308 -0.3450
 1453TIP3   OH2 4291   4.592   0.237   0.472 -0.1461  0.1055  0.3069
 1453TIP3    H1 4292   4.672   0.249   0.421 -0.5228 -1.6643 -0.7524
 1453TIP3    H2 4293   4.569   0.325   0.502  2.1482  0.6421  0.5831
 1454TIP3   OH2 4294   4.736   6.439   0.760 -0.5113  0.1839  0.1940
 1454TIP3    H1 4295   4.796   6.479   0.822 -2.0327  0.4804  1.5031
 1454TIP3    H2 4296   4.693   6.370   0.809 -1.7823  0.4637 -0.5071
 1455TIP3   OH2 4297   8.003   0.857   6.495 -0.3890 -0.3208 -0.4173
 1455TIP3    H1 4298   8.097   0.872   6.481 -0.2982 -1.2456 -0.8285
 1455TIP3    H2 4299   7.993   0.855   6.590  0.0543 -0.5000 -0.3724
 1456TIP3   OH2 4300   8.189   1.459   4.367  0.4328  0.1418  0.3716
 1456TIP3    H1 4301   8.127   1.527   4.341 -0.3238 -0.5734  0.2901
 1456TIP3    H2 4302   8.252   1.504   4.423  0.5222  1.1258 -0.5093
 1457TIP3   OH2 4303   2.169   1.235   6.325 -0.3154 -0.0798 -0.2326
 1457TIP3    H1 4304   2.158   1.153   6.277  2.0483  0.2195 -1.3661
 1457TIP3    H2 4305   2.222   1.211   6.401  1.1779  0.5222 -1.0558
 1458TIP3   OH2 4306   3.249   5.047   0.684 -0.1992  0.2566 -0.6479
 1458TIP3    H1 4307   3.213   5.131   0.654  2.1190  1.1166 -1.1409
 1458TIP3    H2 4308   3.231   5.046   0.778 -0.1438  1.3975 -0.6105
 1459TIP3   OH2 4309   3.190   4.764   0.950  0.2294  0.0722  0.5316
 1459TIP3    H1 4310   3.153   4.831   1.007 -0.4022 -1.3117  1.7976
 1459TIP3    H2 4311   3.263   4.806   0.906 -0.8926  1.9324  0.4013
 1460TIP3   OH2 4312   2.293   4.851   1.888 -0.0526 -0.6460  0.1958
 1460TIP3    H1 4313   2.336   4.907   1.953  0.2921  0.4541 -0.9549
 1460TIP3    H2 4314   2.354   4.778   1.876  0.3181 -0.3771  0.4258
 1461TIP3   OH2 4315   3.781   3.743   0.440 -0.4281  0.5621  0.2592
 1461TIP3    H1 4316   3.721   3.767   0.370 -1.9479  0.3742  1.4927
 1461TIP3    H2 4317   3.796   3.825   0.487 -0.1369  0.4972  0.2802
 1462TIP3   OH2 4318   5.861   0.385   4.295  0.1602  0.6722 -0.1394
 1462TIP3    H1 4319   5.796   0.357   4.230 -1.5507  1.2658  1.3020
 1462TIP3    H2 4320   5.821   0.366   4.379  1.4263  2.0591  0.7943
 1463TIP3   OH2 4321   0.982   6.140   0.068  0.2024 -0.1272  0.1210
 1463TIP3    H1 4322   0.955   6.140  -0.024  0.9728 -0.7745 -0.1135
 1463TIP3    H2 4323   0.901   6.150   0.117 -0.1969  0.3804 -0.6328
 1464TIP3   OH2 4324   2.876   2.795   0.093 -0.2719 -0.3709 -0.0842
 1464TIP3    H1 4325   2.818   2.721   0.074  0.4569 -1.3702  1.4649
 1464TIP3    H2 4326   2.954   2.755   0.132  1.7960  0.8947 -2.7604
 1465TIP3   OH2 4327   5.443   4.262   1.106 -0.4078 -0.2809  0.0675
 1465TIP3    H1 4328   5.412   4.332   1.163  2.5756  1.0100  0.1542
 1465TIP3    H2 4329   5.511   4.217   1.156  1.7406  0.3918 -2.1347
 1466TIP3   OH2 4330   2.150   6.986   0.103  0.0179  0.0237 -0.2685
 1466TIP3    H1 4331   2.176   6.953   0.189  1.1656 -0.3683 -0.7467
 1466TIP3    H2 4332   2.058   7.008   0.112  0.0326 -0.3787  0.9533
 1467TIP3   OH2 4333   0.306   3.093   6.971 -0.0575  0.4298 -0.0704
 1467TIP3    H1 4334   0.349   3.091   6.886  0.5749 -0.3764  0.2590
 1467TIP3    H2 4335   0.213   3.082   6.952 -0.0614  1.5054 -0.7364
 1468TIP3   OH2 4336   1.202   5.243   1.537  0.5453  0.1208  0.5781
 1468TIP3    H1 4337   1.182   5.171   1.598 -1.0032  0.7304  0.8120
 1468TIP3    H2 4338   1.166   5.321   1.580 -1.0650  0.4815 -1.3453
 1469TIP3   OH2 4339   2.101   3.677   0.302 -0.0467  0.2900  0.4224
 1469TIP3    H1 4340   2.110   3.602   0.361  2.5584 -0.0689 -0.3693
 1469TIP3    H2 4341   2.103   3.639   0.214  1.1490  1.2665  0.0132
 1470TIP3   OH2 4342   3.986   6.965   6.661 -0.2906 -0.7325 -0.1756
 1470TIP3    H1 4343   4.026   7.009   6.585  0.8783 -0.5600  0.5325
 1470TIP3    H2 4344   3.928   6.900   6.622  1.6685 -1.9168 -1.2479
 1471TIP3   OH2 4345   5.523   0.811   5.663 -0.3847 -0.4192  0.2621
 1471TIP3    H1 4346   5.566   0.734   5.625 -0.6849 -0.1985 -0.5463
 1471TIP3    H2 4347   5.481   0.854   5.588  1.2185  1.4781  0.4095
 1472TIP3   OH2 4348   2.312   5.603   0.132  0.1818  0.8084  0.1869
 1472TIP3    H1 4349   2.405   5.625   0.119 -0.1036  0.3819 -2.9698
 1472TIP3    H2 4350   2.313   5.521   0.181  1.4707  0.8520  0.2491
 1473TIP3   OH2 4351   4.210   4.948   0.307  0.6802 -0.6799  0.5530
 1473TIP3    H1 4352   4.114   4.945   0.311  0.4710  1.0325 -1.5776
 1473TIP3    H2 4353   4.234   4.873   0.253  0.6390 -1.7259  1.9669
 1474TIP3   OH2 4354   7.227   0.470   6.610  0.1688  0.2065  0.0169
 1474TIP3    H1 4355   7.280   0.409   6.661  0.4626  1.0591  0.7479
 1474TIP3    H2 4356   7.154   0.418   6.578 -0.4637 -0.1551  1.9946
 1475TIP3   OH2 4357   2.715   3.386   0.854 -0.0296  0.3427  0.1849
 1475TIP3    H1 4358   2.725   3.342   0.938  1.6660  0.5513  0.1074
 1475TIP3    H2 4359   2.620   3.389   0.839 -0.2499 -1.6654  1.0422
 1476TIP3   OH2 4360   0.094   0.613   6.434  0.3302  0.4219 -0.1656
 1476TIP3    H1 4361   0.071   0.553   6.363  2.8934  0.4157 -1.0312
 1476TIP3    H2 4362   0.189   0.603   6.444  0.3808  2.3639  1.4894
 1477TIP3   OH2 4363   8.168   5.200   0.814  0.6377 -0.4079 -0.4149
 1477TIP3    H1 4364   8.094   5.186   0.872  0.2123 -0.0556 -0.8707
 1477TIP3    H2 4365   8.230   5.251   0.866  0.7573 -1.0903  0.1171
 1478TIP3   OH2 4366   2.772   6.824   0.245 -0.0472 -0.4025  0.2531
 1478TIP3    H1 4367   2.684   6.861   0.252  0.0397 -0.1978  0.2641
 1478TIP3    H2 4368   2.825   6.895   0.210  0.4622  0.0048  1.8087
 1479TIP3   OH2 4369   2.026   6.022   0.172 -0.5452 -0.4195 -0.1058
 1479TIP3    H1 4370   1.949   5.967   0.189 -1.5176  1.7248  2.9595
 1479TIP3    H2 4371   2.082   6.006   0.248 -0.4589  2.1058  0.3876
 1480TIP3   OH2 4372   3.255   5.298   1.002  0.4139 -0.2874  0.4366
 1480TIP3    H1 4373   3.227   5.280   0.912  1.5880  0.8927 -0.1847
 1480TIP3    H2 4374   3.241   5.392   1.013  1.3463 -0.2205  1.0952
 1481TIP3   OH2 4375   6.947   1.165   5.578  0.0522 -0.0606 -0.3086
 1481TIP3    H1 4376   6.870   1.128   5.534 -1.7828  0.5419  2.3008
 1481TIP3    H2 4377   6.939   1.259   5.564 -0.0440  0.0537  0.4908
 1482TIP3   OH2 4378   8.447   2.179   5.306 -0.5206 -0.6844 -0.2394
 1482TIP3    H1 4379   8.371   2.201   5.360  0.3542  0.0332  0.7046
 1482TIP3    H2 4380   8.463   2.086   5.324  0.8155 -0.0264  2.0663
 1483TIP3   OH2 4381   3.471   6.307   0.433  0.5326 -0.1727  0.4226
 1483TIP3    H1 4382   3.401   6.370   0.450  0.8333  0.2106  0.2562
 1483TIP3    H2 4383   3.428   6.235   0.387 -0.0281 -0.6024  1.6038
 1484TIP3   OH2 4384   4.338   5.183   0.244 -0.1430 -0.0685 -0.1337
 1484TIP3    H1 4385   4.288   5.103   0.258  0.8132 -0.9026 -1.4470
 1484TIP3    H2 4386   4.424   5.165   0.279  0.4834 -0.1108 -1.6469
 1485TIP3   OH2 4387   4.722   5.220   1.678 -0.1201  0.7809 -0.3406
 1485TIP3    H1 4388   4.641   5.174   1.701  1.0257 -0.8221  0.6683
 1485TIP3    H2 4389   4.761   5.166   1.610  0.0169  1.6322 -0.9348
 1486TIP3   OH2 4390   6.828   2.307   6.759  0.0498  0.3612 -0.2928
 1486TIP3    H1 4391   6.750   2.252   6.767  1.0606 -1.4965 -2.5029
 1486TIP3    H2 4392   6.801   2.379   6.702 -0.6620  1.0096  0.8314
 1487TIP3   OH2 4393   0.887   5.440   1.267  0.1523  0.4467  0.6222
 1487TIP3    H1 4394   0.864   5.411   1.355 -0.5373 -0.9499 -0.0021
 1487TIP3    H2 4395   0.824   5.397   1.210  1.7266 -0.1542 -0.7268
 1488TIP3   OH2 4396   0.090   2.514   6.379 -0.1690  0.2494 -0.6464
 1488TIP3    H1 4397   0.072   2.598   6.421 -1.3100 -0.0667 -0.4976
 1488TIP3    H2 4398   0.032   2.513   6.302 -1.1634 -0.9793  0.0979
 1489TIP3   OH2 4399   2.763   6.199   0.814  0.0195 -0.0520 -0.5193
 1489TIP3    H1 4400   2.689   6.154   0.854 -0.0232 -0.5677 -1.1695
 1489TIP3    H2 4401   2.791   6.263   0.879 -2.2479  1.5128 -1.0393
 1490TIP3   OH2 4402   2.562   3.179   6.524 -0.4136  0.6187 -0.4693
 1490TIP3    H1 4403   2.642   3.218   6.560 -1.7350  1.0723  2.0999
 1490TIP3    H2 4404   2.556   3.094   6.567 -1.0709  0.4021 -0.9972
 1491TIP3   OH2 4405   1.542   2.491   6.160 -0.0555 -0.0604  0.2379
 1491TIP3    H1 4406   1.526   2.401   6.187 -1.8533 -0.5057 -2.1563
 1491TIP3    H2 4407   1.604   2.484   6.087 -2.3274  0.3844 -1.7857
 1492TIP3   OH2 4408   2.014   6.309   1.758 -0.6285 -0.5418  0.5519
 1492TIP3    H1 4409   2.022   6.396   1.719 -2.6308  0.7004  2.7522
 1492TIP3    H2 4410   1.962   6.259   1.695 -1.2652  0.5011  0.2330
 1493TIP3   OH2 4411   7.212   1.614   6.139  0.4871  0.3910 -0.0795
 1493TIP3    H1 4412   7.242   1.626   6.229  1.3539  0.1718 -0.3301
 1493TIP3    H2 4413   7.144   1.680   6.128  0.6747  0.7071  0.6013
 1494TIP3   OH2 4414   8.441   3.548   6.907  0.3075  0.7143 -0.4151
 1494TIP3    H1 4415   8.357   3.572   6.947 -0.7580 -0.5659 -1.8060
 1494TIP3    H2 4416   8.506   3.599   6.955 -1.0732  0.3281  1.9246
 1495TIP3   OH2 4417   3.445   4.233   0.127 -0.3179 -0.0325 -0.2406
 1495TIP3    H1 4418   3.449   4.268   0.216  3.1551 -0.8192 -0.0045
 1495TIP3    H2 4419   3.412   4.306   0.074 -1.3541  0.8004  1.4994
 1496TIP3   OH2 4420   1.661   3.291   0.133  0.2418  0.4504  0.9172
 1496TIP3    H1 4421   1.616   3.375   0.122  0.4891  0.4322 -0.2288
 1496TIP3    H2 4422   1.712   3.281   0.053  0.4207 -0.6675  1.1766
 1497TIP3   OH2 4423   0.160   0.824   5.808 -0.2811 -0.3673 -0.1483
 1497TIP3    H1 4424   0.117   0.857   5.729 -0.2436 -1.4518 -0.6300
 1497TIP3    H2 4425   0.178   0.902   5.860  0.9517  0.5094 -1.8290
 1498TIP3   OH2 4426   4.495   5.536   1.929  0.5609  0.1942  0.2931
 1498TIP3    H1 4427   4.439   5.601   1.971 -0.2983 -0.7983  0.6893
 1498TIP3    H2 4428   4.584   5.561   1.955  0.2108  1.0141  0.7094
 1499TIP3   OH2 4429   2.241   5.104   3.680 -0.1101 -0.0978  0.0595
 1499TIP3    H1 4430   2.230   5.033   3.616 -0.1041  1.5586 -1.8048
 1499TIP3    H2 4431   2.165   5.096   3.738 -0.8987 -0.7121 -1.0385
 1500TIP3   OH2 4432   7.151   2.980   6.824 -0.0559  0.0236  0.2643
 1500TIP3    H1 4433   7.055   2.984   6.815 -0.1097 -0.7408  0.4644
 1500TIP3    H2 4434   7.166   2.904   6.880  0.6574  0.3412  0.5069
 1501TIP3   OH2 4435   0.739   3.952   1.069 -0.8618 -0.6936 -0.3693
 1501TIP3    H1 4436   0.723   3.860   1.090 -1.6659 -0.9818 -2.1408
 1501TIP3    H2 4437   0.656   3.996   1.088 -0.7642 -0.4895 -0.4110
 1502TIP3   OH2 4438   7.450   0.729   6.958 -0.2028 -0.6354  0.1648
 1502TIP3    H1 4439   7.425   0.650   6.910  1.3976 -1.8155  1.2231
 1502TIP3    H2 4440   7.539   0.748   6.928 -0.3525  0.4115  0.3753
 1503TIP3   OH2 4441   1.566   1.076   6.790 -0.2597 -0.7019 -0.4597
 1503TIP3    H1 4442   1.524   1.005   6.740 -0.8555  0.2733 -1.3561
 1503TIP3    H2 4443   1.495   1.135   6.813  0.5654  0.8969 -1.8611
 1504TIP3   OH2 4444   8.532   0.662   6.043 -0.5334  0.3361 -0.4746
 1504TIP3    H1 4445   8.455   0.632   5.994 -0.8120 -3.2202  2.0120
 1504TIP3    H2 4446   8.495   0.715   6.114 -0.6705 -1.1188  0.5413
 1505TIP3   OH2 4447   4.284   3.727   1.248  0.9118 -0.1655  0.5022
 1505TIP3    H1 4448   4.248   3.666   1.313  0.6722 -1.0629 -0.4594
 1505TIP3    H2 4449   4.293   3.810   1.296 -0.8169 -0.3640  1.2468
 1506TIP3   OH2 4450   2.783   4.059   0.048 -0.4578  0.2360  0.0475
 1506TIP3    H1 4451   2.847   4.097   0.107 -1.3201  0.2676  0.9788
 1506TIP3    H2 4452   2.781   3.966   0.071  0.2039 -0.0151 -0.8753
 1507TIP3   OH2 4453   7.170   0.833   6.334 -0.3722  0.0687  0.4202
 1507TIP3    H1 4454   7.082   0.855   6.364 -0.7134 -1.2695  0.4535
 1507TIP3    H2 4455   7.211   0.790   6.409 -0.4706 -1.2995 -0.2795
 1508TIP3   OH2 4456   5.273   5.025   2.844  0.0809  0.0752  0.3955
 1508TIP3    H1 4457   5.241   4.943   2.809  1.5314 -1.0394  1.6050
 1508TIP3    H2 4458   5.366   5.028   2.819 -0.2138  1.8652 -0.5829
 1509TIP3   OH2 4459   2.131   5.417   0.728 -0.0312 -0.1646  0.0415
 1509TIP3    H1 4460   2.075   5.382   0.659 -0.1807  0.7082 -0.2832
 1509TIP3    H2 4461   2.208   5.451   0.683 -0.3424  0.8350  0.2436
 1510TIP3   OH2 4462   6.206   7.152   5.897 -0.1063  0.4856 -0.2198
 1510TIP3    H1 4463   6.289   7.188   5.930  0.3716 -0.6220 -0.2016
 1510TIP3    H2 4464   6.223   7.136   5.805 -0.6084  1.1197 -0.4286
 1511TIP3   OH2 4465   0.766   2.705   6.764 -0.5009 -0.1096 -0.2082
 1511TIP3    H1 4466   0.735   2.753   6.687 -2.2946 -1.7359 -0.5334
 1511TIP3    H2 4467   0.828   2.640   6.728  0.2088  0.4639 -0.0313
 1512TIP3   OH2 4468   5.030   3.484   1.291  0.3076  0.4307  0.0622
 1512TIP3    H1 4469   4.983   3.422   1.235  0.0004  0.7324 -0.0127
 1512TIP3    H2 4470   4.964   3.548   1.317  0.4357  0.2674  0.8089
 1513TIP3   OH2 4471   6.985   2.296   6.527 -0.6607  0.0462 -0.0233
 1513TIP3    H1 4472   7.059   2.246   6.493 -0.0695  1.1937 -0.4812
 1513TIP3    H2 4473   6.966   2.257   6.612 -1.7001 -2.4224 -1.3342
 1514TIP3   OH2 4474   0.572   1.157   6.898 -0.0148 -0.3339 -0.3661
 1514TIP3    H1 4475   0.533   1.245   6.902 -0.5723 -0.5013 -1.7579
 1514TIP3    H2 4476   0.577   1.137   6.804 -1.1651 -2.3351 -0.0473
 1515TIP3   OH2 4477   2.628   5.442   0.056  0.2290  0.3635  0.1428
 1515TIP3    H1 4478   2.715   5.411   0.084 -0.4732 -0.3780  1.5404
 1515TIP3    H2 4479   2.613   5.520   0.108  0.6211  1.2589 -1.0729
 1516TIP3   OH2 4480   2.861   6.596   0.101  0.8067 -0.3768  0.0708
 1516TIP3    H1 4481   2.829   6.601   0.012  1.4208 -0.4814 -0.1595
 1516TIP3    H2 4482   2.823   6.672   0.145 -1.9670 -1.9873  0.5434
 1517TIP3   OH2 4483   2.664   6.073   2.945  0.1238 -0.4126 -0.5033
 1517TIP3    H1 4484   2.697   6.043   2.860 -0.1626 -1.2541 -0.3264
 1517TIP3    H2 4485   2.598   6.008   2.969  0.2867 -0.2481  0.4096
 1518TIP3   OH2 4486   2.974   4.482   0.517 -0.2265 -0.0852  0.1013
 1518TIP3    H1 4487   2.983   4.572   0.549 -1.5339  0.3615 -0.7511
 1518TIP3    H2 4488   2.980   4.490   0.422 -0.4076 -0.8912  0.0227
 1519TIP3   OH2 4489   3.113   4.318   1.422  0.4589  0.0810 -0.1993
 1519TIP3    H1 4490   3.060   4.299   1.345  1.8038 -3.5340 -0.3300
 1519TIP3    H2 4491   3.186   4.369   1.389  0.3447 -0.3322 -1.1139
 1520TIP3   OH2 4492   1.493   5.367   0.335 -0.1245  0.9569 -0.0174
 1520TIP3    H1 4493   1.561   5.320   0.287  0.9076 -0.2904  2.6008
 1520TIP3    H2 4494   1.417   5.309   0.331  0.0526  0.7149  0.1136
 1521TIP3   OH2 4495   6.916   1.664   4.014 -0.2474 -0.1597  0.4024
 1521TIP3    H1 4496   6.966   1.642   3.936  1.7610  0.2314  1.5572
 1521TIP3    H2 4497   6.847   1.722   3.982  2.0564  2.0374 -0.7344
 1522TIP3   OH2 4498   1.279   2.316   4.232  0.0686 -0.3830  0.0254
 1522TIP3    H1 4499   1.323   2.238   4.268 -2.6541 -2.4136 -0.8387
 1522TIP3    H2 4500   1.187   2.302   4.252 -0.4819  2.7097 -0.1292
 1523TIP3   OH2 4501   3.688   6.224   0.634  0.5899  0.5184  0.3568
 1523TIP3    H1 4502   3.668   6.316   0.619  1.6485  0.8005  0.6692
 1523TIP3    H2 4503   3.602   6.183   0.647  0.1159  1.4613  0.2456
 1524TIP3   OH2 4504   1.808   4.318   1.785  0.0296  0.3287 -0.2945
 1524TIP3    H1 4505   1.893   4.289   1.753 -0.0333  1.6444 -1.7239
 1524TIP3    H2 4506   1.745   4.259   1.744  0.1258  0.5348 -0.7450
 1525TIP3   OH2 4507   0.265   1.283   6.109  0.2857  0.1532 -0.1874
 1525TIP3    H1 4508   0.248   1.370   6.073 -1.5251 -0.6845 -1.4406
 1525TIP3    H2 4509   0.184   1.259   6.154  1.3071 -0.2838  1.4719
 1526TIP3   OH2 4510   3.625   6.394   1.712  0.2062 -0.2928  0.2290
 1526TIP3    H1 4511   3.549   6.449   1.732  0.0759 -0.2843 -0.2855
 1526TIP3    H2 4512   3.596   6.305   1.731  0.2706 -0.2261  0.6334
 1527TIP3   OH2 4513   7.720   2.100   6.829 -0.9693  0.4056  0.1318
 1527TIP3    H1 4514   7.686   2.093   6.739 -2.3343 -1.6531  0.7625
 1527TIP3    H2 4515   7.642   2.099   6.884 -0.1617  2.3258  1.3374
 1528TIP3   OH2 4516   2.138   1.869   6.719 -0.4519  0.0497  0.4410
 1528TIP3    H1 4517   2.098   1.938   6.666  1.5447  0.1812 -0.9774
 1528TIP3    H2 4518   2.215   1.910   6.758  1.7387 -1.7417 -1.7978
 1529TIP3   OH2 4519   4.497   5.554   1.505  0.7665  0.4052 -0.1213
 1529TIP3    H1 4520   4.515   5.493   1.434  2.7032 -1.0109  1.5270
 1529TIP3    H2 4521   4.562   5.533   1.572 -1.8754  0.7811  2.6692
 1530TIP3   OH2 4522   2.055   5.702   1.279  0.3651 -0.0520  0.4044
 1530TIP3    H1 4523   2.097   5.787   1.275  0.9755 -0.3124  1.0506
 1530TIP3    H2 4524   1.969   5.715   1.240  1.1445  0.4188 -1.1848
 1531TIP3   OH2 4525   4.067   7.801   6.358 -0.3427  0.1913  0.1187
 1531TIP3    H1 4526   4.076   7.726   6.417  1.5519 -0.6341 -1.1727
 1531TIP3    H2 4527   4.050   7.762   6.272  1.9462  1.1428 -0.8052
 1532TIP3   OH2 4528   5.459   6.892   2.124  0.1882 -0.0607 -0.0037
 1532TIP3    H1 4529   5.446   6.981   2.156 -0.3381 -0.4759  0.9327
 1532TIP3    H2 4530   5.551   6.889   2.097 -0.0446  1.0619 -0.9861
 1533TIP3   OH2 4531   2.953   4.161   0.333 -0.3483 -0.2997 -0.0483
 1533TIP3    H1 4532   3.013   4.178   0.406 -2.0983  0.8441  1.1809
 1533TIP3    H2 4533   3.010   4.145   0.258  1.4864  0.3313  1.1695
 1534TIP3   OH2 4534   3.387   4.953   2.224 -0.0679  0.1685  0.0838
 1534TIP3    H1 4535   3.319   4.900   2.182 -0.6188  0.1203  1.0325
 1534TIP3    H2 4536   3.447   4.889   2.262 -0.9349  0.2098  1.5541
 1535TIP3   OH2 4537   0.041   1.746   4.863  0.2957 -0.1597  0.0293
 1535TIP3    H1 4538  -0.042   1.783   4.832 -0.4021 -0.5594  1.3357
 1535TIP3    H2 4539   0.014   1.672   4.918  1.4714  0.4339  1.4365
 1536TIP3   OH2 4540   3.418   7.819   5.984  0.2399 -0.5066 -0.0967
 1536TIP3    H1 4541   3.437   7.854   6.071  0.3510  0.7565 -0.6204
 1536TIP3    H2 4542   3.504   7.808   5.943  0.1071  0.9079 -0.8035
 1537TIP3   OH2 4543   7.755   4.002   4.885  0.2606  0.1426 -0.2819
 1537TIP3    H1 4544   7.792   4.090   4.886  0.3385  0.1187 -0.6648
 1537TIP3    H2 4545   7.794   3.961   4.807  0.1321 -0.1895 -0.1739
 1538TIP3   OH2 4546   7.722   3.087   5.828 -0.3186 -0.8030 -0.2698
 1538TIP3    H1 4547   7.744   3.014   5.887  1.7559  0.5116  0.6487
 1538TIP3    H2 4548   7.807   3.126   5.806 -1.3062  0.5419 -1.7845
 1539TIP3   OH2 4549   2.928   4.623   1.372 -1.0372  0.0816  0.1003
 1539TIP3    H1 4550   2.916   4.705   1.418 -1.0527 -0.1799  0.5620
 1539TIP3    H2 4551   2.991   4.574   1.425  0.2214  0.4561 -1.0258
 1540TIP3   OH2 4552   3.410   7.160   0.663 -0.2643  0.3216 -0.4901
 1540TIP3    H1 4553   3.358   7.162   0.583 -0.0942 -0.0658 -0.6117
 1540TIP3    H2 4554   3.485   7.218   0.645  0.4776 -0.8158 -1.1008
 1541TIP3   OH2 4555   0.318   1.807   6.896 -0.6212  0.1070  0.2097
 1541TIP3    H1 4556   0.232   1.801   6.854 -1.0943 -0.9187  1.2996
 1541TIP3    H2 4557   0.299   1.807   6.990  0.6162 -1.3094  0.4842
 1542TIP3   OH2 4558   0.855   0.506   6.625 -0.3566  0.0748 -0.2796
 1542TIP3    H1 4559   0.845   0.474   6.715  0.1883 -0.3777 -0.3817
 1542TIP3    H2 4560   0.856   0.428   6.571  0.0352  0.3123 -0.6175
 1543TIP3   OH2 4561   4.409   4.444   1.167  0.2192 -0.1244  0.0154
 1543TIP3    H1 4562   4.500   4.441   1.195  0.8261 -0.9517 -1.9257
 1543TIP3    H2 4563   4.413   4.435   1.071 -1.9406 -1.2351 -0.0100
 1544TIP3   OH2 4564   2.250   7.079   0.888 -0.1564  0.4782  0.2396
 1544TIP3    H1 4565   2.166   7.107   0.853 -2.1533 -3.3486  1.6417
 1544TIP3    H2 4566   2.291   7.030   0.816 -1.4820 -2.0620  1.1699
 1545TIP3   OH2 4567   2.098   6.744   1.397 -0.3364  0.1485  0.1517
 1545TIP3    H1 4568   2.079   6.676   1.462 -1.8384  0.7922  0.4215
 1545TIP3    H2 4569   2.132   6.817   1.448 -0.4621  0.2548  0.0833
 1546TIP3   OH2 4570   3.399   6.539   1.859 -0.1420  0.3302 -0.0244
 1546TIP3    H1 4571   3.459   6.574   1.924 -1.8927  0.1063  1.7554
 1546TIP3    H2 4572   3.335   6.608   1.845 -2.7796 -1.4883  2.4344
 1547TIP3   OH2 4573   6.741   5.443   0.867  0.6100 -0.3212  0.0491
 1547TIP3    H1 4574   6.756   5.507   0.937  2.7228 -0.7270  0.0062
 1547TIP3    H2 4575   6.755   5.358   0.909 -1.2321 -0.7376 -0.1321
 1548TIP3   OH2 4576   0.544   2.443   5.574  0.5766  0.2166  0.1491
 1548TIP3    H1 4577   0.504   2.529   5.587  1.4426  0.6177  0.1822
 1548TIP3    H2 4578   0.548   2.405   5.661  0.2448  0.1553  0.1411
 1549TIP3   OH2 4579   2.827   3.981   0.510  0.6917  0.1151 -0.0398
 1549TIP3    H1 4580   2.868   4.067   0.497 -0.6625  0.9037  0.7779
 1549TIP3    H2 4581   2.765   3.973   0.438 -1.6340  1.3414  1.7641
 1550TIP3   OH2 4582   0.562   1.802   6.784  0.6702  0.5253  0.2455
 1550TIP3    H1 4583   0.473   1.820   6.816  1.0141 -0.0146  1.5571
 1550TIP3    H2 4584   0.550   1.777   6.693 -0.3751  1.8809 -0.0147
 1551TIP3   OH2 4585   4.524   4.073   0.571  0.4834  0.0979 -0.1365
 1551TIP3    H1 4586   4.524   4.105   0.662  0.0491  0.0955 -0.1361
 1551TIP3    H2 4587   4.577   3.993   0.574 -1.1489 -0.9763  0.4984
 1552TIP3   OH2 4588   4.970   6.422   1.473 -0.4481 -0.0308  0.6525
 1552TIP3    H1 4589   5.002   6.490   1.531  0.7729 -0.1683  0.1456
 1552TIP3    H2 4590   5.010   6.341   1.505 -1.0411 -0.3571  0.5951
 1553TIP3   OH2 4591   1.026   0.829   5.464 -0.7572  0.2989  0.4099
 1553TIP3    H1 4592   1.041   0.921   5.443  0.5970  0.5222  2.1455
 1553TIP3    H2 4593   1.009   0.829   5.558 -2.1572 -1.0866  0.1724
 1554TIP3   OH2 4594   4.957   7.381   1.692  0.1399  0.0546  0.2950
 1554TIP3    H1 4595   5.017   7.333   1.749 -0.3029 -1.0413 -0.1448
 1554TIP3    H2 4596   4.920   7.449   1.748  1.1451  0.1973  0.7927
 1555TIP3   OH2 4597   1.828   5.590   1.107 -0.0523  0.0262  0.3752
 1555TIP3    H1 4598   1.831   5.553   1.019 -0.7078  2.1400 -0.5536
 1555TIP3    H2 4599   1.738   5.577   1.136  0.1681 -0.6876  0.7548
 1556TIP3   OH2 4600   5.756   7.540   1.487 -0.0474 -0.2071  0.6281
 1556TIP3    H1 4601   5.775   7.531   1.393 -0.5588  1.4474  0.3417
 1556TIP3    H2 4602   5.805   7.617   1.514 -0.4998 -0.2354  1.5510
 1557TIP3   OH2 4603   5.909   0.769   6.288  0.4454 -0.0785 -0.1943
 1557TIP3    H1 4604   5.944   0.757   6.376  1.1233 -1.2288 -0.6122
 1557TIP3    H2 4605   5.846   0.841   6.297  0.2696 -0.3953  1.2882
 1558TIP3   OH2 4606   3.053   4.985  -0.004 -0.1520 -0.1830 -0.6892
 1558TIP3    H1 4607   3.004   5.030   0.065 -0.4625  0.2020 -1.1655
 1558TIP3    H2 4608   3.143   4.985   0.028 -0.1353  0.8439 -0.7251
 1559TIP3   OH2 4609   7.587   3.855   6.858 -0.2545  0.4354 -0.1368
 1559TIP3    H1 4610   7.600   3.878   6.766 -0.2795  0.5888 -0.1027
 1559TIP3    H2 4611   7.559   3.936   6.900 -3.8728 -0.4736 -0.6861
 1560TIP3   OH2 4612   1.660   7.709   0.427  0.2099  0.1814  0.3251
 1560TIP3    H1 4613   1.596   7.778   0.408  0.6936  0.2637 -1.0916
 1560TIP3    H2 4614   1.632   7.672   0.510 -0.5667  1.5097  0.6774
 1561TIP3   OH2 4615   7.011   1.743   5.069  0.0214 -0.2481 -0.3852
 1561TIP3    H1 4616   6.988   1.834   5.091 -2.5556 -1.3356  1.7004
 1561TIP3    H2 4617   6.927   1.700   5.056  1.0797 -2.9558  1.3388
 1562TIP3   OH2 4618   1.072   3.113   6.739  0.1923  0.3004 -0.0647
 1562TIP3    H1 4619   1.003   3.121   6.805  0.1305 -0.4342 -0.0320
 1562TIP3    H2 4620   1.084   3.202   6.705  0.3581  0.7225  1.0668
 1563TIP3   OH2 4621   4.117   3.609   1.438  0.5137  0.0540  0.4251
 1563TIP3    H1 4622   4.073   3.663   1.504 -0.0539 -0.0687  0.1562
 1563TIP3    H2 4623   4.133   3.525   1.482 -1.4631 -0.6502 -0.1062
 1564TIP3   OH2 4624   7.847   2.903   5.995  0.0593 -0.5194  0.1346
 1564TIP3    H1 4625   7.880   2.827   6.042 -2.2170 -0.1577  2.4586
 1564TIP3    H2 4626   7.870   2.978   6.051 -0.2906  0.1930 -0.6533
 1565TIP3   OH2 4627   0.808   3.251   6.561  0.1624 -0.1209  0.0848
 1565TIP3    H1 4628   0.903   3.241   6.553  0.2881  0.2971  0.9674
 1565TIP3    H2 4629   0.791   3.239   6.654 -0.6246  0.0574 -0.0360
 1566TIP3   OH2 4630   2.595   3.708   0.271  0.7055 -0.6140 -0.2045
 1566TIP3    H1 4631   2.636   3.726   0.355  0.2105  0.9363 -0.2888
 1566TIP3    H2 4632   2.502   3.695   0.292  0.1872  1.9324 -0.7471
 1567TIP3   OH2 4633   8.319   2.683   5.408  0.2493  0.1770  0.3246
 1567TIP3    H1 4634   8.269   2.627   5.347  0.4673 -0.5209  0.7766
 1567TIP3    H2 4635   8.298   2.772   5.381  0.4013 -0.1290 -0.8184
 1568TIP3   OH2 4636   3.937   2.125   5.659  0.3852  0.0033  0.1841
 1568TIP3    H1 4637   3.963   2.216   5.673  1.1215 -0.3415  1.1189
 1568TIP3    H2 4638   3.845   2.130   5.632 -0.0918  0.9039  1.9303
 1569TIP3   OH2 4639   7.799   2.572   6.719 -0.0406  0.0840 -0.1728
 1569TIP3    H1 4640   7.812   2.660   6.756 -0.7542 -0.2963  1.0050
 1569TIP3    H2 4641   7.816   2.583   6.625  0.8662  1.2693  0.1117
 1570TIP3   OH2 4642   5.685   2.471   6.914  0.2365  0.4777  0.3414
 1570TIP3    H1 4643   5.603   2.513   6.941 -1.2837 -1.7650 -0.6487
 1570TIP3    H2 4644   5.681   2.384   6.953  2.9516  0.9148  1.6723
 1571TIP3   OH2 4645   2.942   7.079   0.235 -0.6614 -0.1001  0.3535
 1571TIP3    H1 4646   2.916   7.098   0.325  0.7269 -2.5307  1.3192
 1571TIP3    H2 4647   3.037   7.079   0.237 -0.5416  3.1904 -1.9216
 1572TIP3   OH2 4648   4.357   6.949   0.988  0.0330  0.0168  0.1265
 1572TIP3    H1 4649   4.271   6.928   0.951 -0.3816  0.4511  0.8379
 1572TIP3    H2 4650   4.340   6.961   1.081  0.7587  0.7128  0.1680
 1573TIP3   OH2 4651   5.574   0.726   6.849 -0.5863 -0.3233  0.4096
 1573TIP3    H1 4652   5.501   0.666   6.834 -0.8447 -0.2839  1.4508
 1573TIP3    H2 4653   5.576   0.738   6.944  0.8290 -0.3804  0.3961
 1574TIP3   OH2 4654   6.512   4.709   0.236 -0.1711  0.3993  0.2425
 1574TIP3    H1 4655   6.547   4.633   0.189 -0.6356  0.3582 -0.0422
 1574TIP3    H2 4656   6.590   4.760   0.261 -0.0005  1.5354 -2.4585
 1575TIP3   OH2 4657   1.881   4.503   1.480 -0.2439 -0.0134 -0.5720
 1575TIP3    H1 4658   1.950   4.519   1.544 -1.0490 -0.1326  0.3404
 1575TIP3    H2 4659   1.904   4.557   1.405  1.0357 -0.3392 -0.4139
 1576TIP3   OH2 4660   1.890   2.966   1.910 -0.1988 -0.4406 -0.5019
 1576TIP3    H1 4661   1.844   2.882   1.911  1.9218 -1.6364  0.3522
 1576TIP3    H2 4662   1.841   3.020   1.849 -2.4820 -1.8073  0.0797
 1577TIP3   OH2 4663   4.062   6.331   0.280 -0.3974 -0.2027  0.2350
 1577TIP3    H1 4664   4.081   6.238   0.266 -1.6385 -0.8484  2.5568
 1577TIP3    H2 4665   3.973   6.343   0.246  0.6063  0.7095 -2.1958
 1578TIP3   OH2 4666   2.655   4.539   0.441 -0.3640 -0.0281  0.0238
 1578TIP3    H1 4667   2.708   4.464   0.466  1.2358  0.8946 -0.5208
 1578TIP3    H2 4668   2.589   4.503   0.381  0.5275 -0.9530 -0.4188
 1579TIP3   OH2 4669   1.650   1.196   6.178  0.1346  0.1430  0.0606
 1579TIP3    H1 4670   1.606   1.129   6.125  0.0424 -0.7777  1.2723
 1579TIP3    H2 4671   1.693   1.147   6.248  1.2070  1.2432  0.1875
 1580TIP3   OH2 4672   0.709   0.877   6.590  0.1767 -0.0689 -0.0211
 1580TIP3    H1 4673   0.793   0.912   6.618  0.1630  0.2101 -0.3178
 1580TIP3    H2 4674   0.645   0.936   6.631  0.1162 -0.4417  0.4254
 1581TIP3   OH2 4675   2.073   4.107   2.875  0.3563 -0.1877 -0.0826
 1581TIP3    H1 4676   2.085   4.092   2.969  1.3619 -0.8821 -0.3209
 1581TIP3    H2 4677   2.159   4.091   2.837  0.0491  0.5187 -1.0765
 1582TIP3   OH2 4678   3.853   4.290   3.065 -0.0692  0.2145 -0.0032
 1582TIP3    H1 4679   3.922   4.282   2.999 -0.4537 -2.1600 -0.1941
 1582TIP3    H2 4680   3.786   4.344   3.024  0.1462 -0.3946 -1.1684
 1583TIP3   OH2 4681   1.589   4.568   0.398 -0.3232 -0.5962 -0.6645
 1583TIP3    H1 4682   1.587   4.521   0.481  1.1026  0.2829 -0.1146
 1583TIP3    H2 4683   1.656   4.635   0.410  0.0812 -0.6214 -2.6049
 1584TIP3   OH2 4684   3.721   4.264   1.393 -0.3766 -0.1498  0.1915
 1584TIP3    H1 4685   3.768   4.184   1.368  0.5472  0.7456 -0.9765
 1584TIP3    H2 4686   3.671   4.239   1.470 -1.4136 -2.3218 -1.1401
 1585TIP3   OH2 4687   3.005   1.673   5.380  0.2428 -0.1607 -0.1932
 1585TIP3    H1 4688   3.030   1.736   5.448 -0.3799 -0.4322  0.2872
 1585TIP3    H2 4689   3.088   1.632   5.354  0.4883 -0.0321  0.3780
 1586TIP3   OH2 4690   8.202   0.353   6.106 -0.0319 -0.0099 -0.2171
 1586TIP3    H1 4691   8.247   0.279   6.145  0.7997  0.9140  0.5982
 1586TIP3    H2 4692   8.121   0.361   6.157  0.2172  0.0987  0.1570
 1587TIP3   OH2 4693   4.743   2.379   0.430  0.0258  0.8601 -0.0577
 1587TIP3    H1 4694   4.704   2.389   0.344 -0.5108 -1.5196 -0.1140
 1587TIP3    H2 4695   4.801   2.303   0.422 -1.8110 -0.8782  2.2385
 1588TIP3   OH2 4696   4.959   6.058   0.867 -0.0078 -0.4698 -0.5812
 1588TIP3    H1 4697   4.985   6.146   0.893  2.3134 -1.2039 -0.2758
 1588TIP3    H2 4698   4.927   6.068   0.777  0.5725  0.6411 -0.6713
 1589TIP3   OH2 4699   7.213   0.880   0.070  0.5923  0.2952  0.8914
 1589TIP3    H1 4700   7.203   0.967   0.031  0.7706 -0.0539  0.0628
 1589TIP3    H2 4701   7.307   0.872   0.087  0.7595 -0.2568 -0.2592
 1590TIP3   OH2 4702   1.825   2.243   5.659 -0.4007  0.5143 -0.0462
 1590TIP3    H1 4703   1.830   2.235   5.754  0.7665 -0.7352 -0.2014
 1590TIP3    H2 4704   1.905   2.288   5.634 -0.6302  0.7019 -0.4538
 1591TIP3   OH2 4705   5.786   0.610   0.359 -0.2143  0.2987 -0.1754
 1591TIP3    H1 4706   5.881   0.616   0.354 -0.0897  0.5727  2.0667
 1591TIP3    H2 4707   5.763   0.539   0.298  1.4701 -0.1739 -0.2671
 1592TIP3   OH2 4708   5.476   4.948   1.316 -0.2459  0.1339 -0.1483
 1592TIP3    H1 4709   5.418   5.011   1.360 -0.9451 -0.9778  0.5670
 1592TIP3    H2 4710   5.423   4.914   1.244 -0.2487 -0.4005  0.1052
 1593TIP3   OH2 4711   8.413   3.947   6.329 -0.5805  0.0249  0.2654
 1593TIP3    H1 4712   8.364   3.908   6.257 -1.6703 -0.4991  1.2667
 1593TIP3    H2 4713   8.488   3.889   6.341 -0.6266 -0.1253 -0.1635
 1594TIP3   OH2 4714   1.406   1.454   6.777 -0.4793 -0.1743  0.3662
 1594TIP3    H1 4715   1.327   1.425   6.823 -0.1941 -1.5902 -0.0007
 1594TIP3    H2 4716   1.478   1.428   6.834 -0.2614  1.0406  0.6598
 1595TIP3   OH2 4717   1.145   0.432   6.922  0.2000  0.4626  0.0369
 1595TIP3    H1 4718   1.174   0.362   6.863 -0.4636  1.2905 -1.3140
 1595TIP3    H2 4719   1.196   0.420   7.002  0.0102 -1.6237 -0.1441
 1596TIP3   OH2 4720   3.723   5.782   0.702  0.4192 -0.3164  0.2355
 1596TIP3    H1 4721   3.800   5.810   0.653 -0.0200 -0.8735 -0.7739
 1596TIP3    H2 4722   3.653   5.840   0.671  0.5676  0.6650  1.6651
 1597TIP3   OH2 4723   3.754   5.052   1.300  0.2103  0.1869  0.1698
 1597TIP3    H1 4724   3.809   5.014   1.231 -0.8896  0.7134 -1.0200
 1597TIP3    H2 4725   3.768   4.995   1.376  1.2656 -0.5391 -0.5515
 1598TIP3   OH2 4726   3.450   4.006   1.888  0.1389 -0.3825  0.2196
 1598TIP3    H1 4727   3.407   4.052   1.961 -0.0749  0.2755 -0.3091
 1598TIP3    H2 4728   3.386   3.941   1.860 -0.1581 -0.0094  0.0223
 1599TIP3   OH2 4729   5.275   5.554   1.685  0.1380  0.0913 -0.0616
 1599TIP3    H1 4730   5.191   5.573   1.644 -0.1767 -1.5307 -0.2047
 1599TIP3    H2 4731   5.297   5.466   1.655  1.0946 -0.1466  1.2758
 1600TIP3   OH2 4732   1.365   2.081   6.557 -0.5129  0.0210 -0.1511
 1600TIP3    H1 4733   1.333   2.169   6.538 -0.3193  0.5144  1.7222
 1600TIP3    H2 4734   1.289   2.035   6.592  0.2236  0.5035  2.1397
 1601TIP3   OH2 4735   5.054   6.958   1.507 -0.6418 -0.3220  0.3421
 1601TIP3    H1 4736   5.072   6.864   1.499  0.7846  0.0503 -0.9238
 1601TIP3    H2 4737   5.105   6.986   1.582 -0.4405 -0.3964  0.2332
 1602TIP3   OH2 4738   3.084   6.401   0.822 -0.3184  0.2398 -0.1660
 1602TIP3    H1 4739   3.096   6.463   0.894 -0.2292 -0.2837  0.2675
 1602TIP3    H2 4740   3.031   6.330   0.859 -0.0432 -0.1642 -0.5408
 1603TIP3   OH2 4741   3.346   3.990   0.568 -0.7650 -0.5982  0.6292
 1603TIP3    H1 4742   3.403   3.984   0.645  1.0630  1.0280 -0.5441
 1603TIP3    H2 4743   3.389   3.935   0.502 -1.5861 -0.8819  0.3223
 1604TIP3   OH2 4744   3.045   5.082   1.774 -0.1939 -0.3047 -0.1505
 1604TIP3    H1 4745   2.967   5.058   1.825 -1.0562 -0.1128 -1.3407
 1604TIP3    H2 4746   3.021   5.164   1.731  1.0173  0.2382  0.2113
 1605TIP3   OH2 4747   6.949   6.596   0.510  0.2337  0.0405 -0.4975
 1605TIP3    H1 4748   6.952   6.573   0.603 -0.4727 -0.1558 -0.5246
 1605TIP3    H2 4749   7.026   6.554   0.472 -0.1179 -0.8520 -0.2249
 1606TIP3   OH2 4750   3.645   6.844   1.303 -0.2602 -0.0492 -0.0932
 1606TIP3    H1 4751   3.693   6.867   1.382 -1.7697 -1.1205  1.1694
 1606TIP3    H2 4752   3.572   6.906   1.299 -1.8009 -1.7601  0.9182
 1607TIP3   OH2 4753   4.978   5.711   0.772 -0.1126 -0.0732  0.7152
 1607TIP3    H1 4754   4.949   5.727   0.861 -0.8751 -0.5592  0.5626
 1607TIP3    H2 4755   4.934   5.629   0.747 -1.3772  1.0249 -0.7447
 1608TIP3   OH2 4756   5.663   4.635   2.115 -0.0055  0.5102  0.9729
 1608TIP3    H1 4757   5.625   4.595   2.193  0.4775 -1.3530  0.2769
 1608TIP3    H2 4758   5.757   4.623   2.124 -0.0413 -1.3944 -0.7501
 1609TIP3   OH2 4759   1.360   2.536   5.778 -0.1933 -0.0391 -0.2906
 1609TIP3    H1 4760   1.438   2.506   5.731 -0.4552  1.0373 -1.4386
 1609TIP3    H2 4761   1.330   2.459   5.825  0.6535 -0.8826 -1.1030
 1610TIP3   OH2 4762   2.106   0.983   6.223  0.1660 -0.3032 -0.0463
 1610TIP3    H1 4763   2.129   0.992   6.131 -0.3398 -1.4561 -0.3017
 1610TIP3    H2 4764   2.168   0.919   6.257 -0.6198 -1.0281  0.0340
 1611TIP3   OH2 4765   5.354   5.097   0.166  0.6646 -0.0981 -0.2642
 1611TIP3    H1 4766   5.313   5.013   0.186 -0.1218 -0.0199 -1.4858
 1611TIP3    H2 4767   5.317   5.157   0.231 -0.0531 -0.3393 -0.4425
 1612TIP3   OH2 4768   3.896   1.990   6.806 -0.1203 -0.4451 -0.3722
 1612TIP3    H1 4769   3.948   2.070   6.802 -0.6322 -0.0433  0.8517
 1612TIP3    H2 4770   3.950   1.928   6.855 -1.1579  0.2905  1.7924
 1613TIP3   OH2 4771   4.981   1.317   0.177  0.4701 -0.5205 -0.0363
 1613TIP3    H1 4772   4.893   1.304   0.212 -0.3393 -0.1108 -1.8616
 1613TIP3    H2 4773   5.034   1.250   0.220 -0.2932  0.4606  2.5478
 1614TIP3   OH2 4774   3.920   5.502   1.625 -0.4720 -0.1979 -0.2588
 1614TIP3    H1 4775   3.980   5.438   1.663 -2.2142 -1.2191  0.8417
 1614TIP3    H2 4776   3.974   5.553   1.565  1.5247 -0.9634  0.8496
 1615TIP3   OH2 4777   6.393   1.105   0.391  0.0295  0.4192  0.4401
 1615TIP3    H1 4778   6.449   1.049   0.444  0.6639  1.3721  0.7990
 1615TIP3    H2 4779   6.335   1.148   0.454 -0.4445  0.1657  0.1735
 1616TIP3   OH2 4780   1.051   2.620   5.399 -0.1113 -0.3280 -0.2386
 1616TIP3    H1 4781   0.956   2.610   5.402 -0.1658  0.1117 -0.4350
 1616TIP3    H2 4782   1.073   2.663   5.482 -0.0871 -0.4062 -0.2048
 1617TIP3   OH2 4783   5.720   4.333   1.422  0.5213  0.2561  0.1377
 1617TIP3    H1 4784   5.684   4.413   1.460  1.1198 -0.7531  2.8856
 1617TIP3    H2 4785   5.815   4.344   1.430  0.6294 -0.3335 -0.3267
 1618TIP3   OH2 4786   7.057   7.058   0.524 -0.7034 -0.3060  0.4849
 1618TIP3    H1 4787   7.103   6.978   0.499 -3.3527 -2.2906  1.7087
 1618TIP3    H2 4788   7.083   7.074   0.615  2.4614  2.2357 -0.7538
 1619TIP3   OH2 4789   3.472   0.568   6.581 -0.2889  0.4817 -0.1836
 1619TIP3    H1 4790   3.515   0.483   6.582  0.4544  0.8359 -1.2255
 1619TIP3    H2 4791   3.379   0.548   6.594  0.1483 -0.2858  1.9335
 1620TIP3   OH2 4792   6.238   6.368   1.765  0.5910 -0.2390 -0.1015
 1620TIP3    H1 4793   6.284   6.297   1.809 -0.4117 -0.2863  0.8737
 1620TIP3    H2 4794   6.308   6.423   1.729  1.4205 -0.2058  1.5165
 1621TIP3   OH2 4795   4.289   4.305   1.401  0.5109 -0.4950  0.5311
 1621TIP3    H1 4796   4.312   4.378   1.343  2.0856 -1.1867  0.2716
 1621TIP3    H2 4797   4.235   4.248   1.347 -0.5303  0.3403  0.6618
 1622TIP3   OH2 4798   2.863   2.822   6.725 -0.2019  0.0381 -0.9637
 1622TIP3    H1 4799   2.936   2.760   6.724  0.0129  0.2992 -1.3793
 1622TIP3    H2 4800   2.904   2.908   6.731 -0.5336  0.0839  1.0191
 1623TIP3   OH2 4801   5.949   5.774   1.278 -0.0981  0.7266  0.1270
 1623TIP3    H1 4802   5.894   5.781   1.200 -0.6187 -1.7228  0.2073
 1623TIP3    H2 4803   6.025   5.829   1.260  0.0585 -0.2414 -2.3576
 1624TIP3   OH2 4804   2.723   0.663   6.869 -0.9693  0.2198 -0.5691
 1624TIP3    H1 4805   2.700   0.738   6.815 -1.1313  0.5555 -0.0360
 1624TIP3    H2 4806   2.807   0.687   6.908 -0.0459 -0.6897 -1.9219
 1625TIP3   OH2 4807   6.266   6.415   2.947  0.0807 -0.2597 -0.4686
 1625TIP3    H1 4808   6.283   6.502   2.912  0.6230  0.8817  2.4717
 1625TIP3    H2 4809   6.211   6.373   2.881 -1.1366  2.7215 -1.4461
 1626TIP3   OH2 4810   4.006   5.791   0.185 -0.0563  0.2862  0.3863
 1626TIP3    H1 4811   4.031   5.869   0.235 -2.0879  0.7067  0.8110
 1626TIP3    H2 4812   3.993   5.724   0.251  2.5547 -0.6846 -0.0523
 1627TIP3   OH2 4813   4.514   5.863   1.752 -0.2583 -0.2907 -0.4887
 1627TIP3    H1 4814   4.481   5.854   1.663  0.8559 -1.1854 -0.8273
 1627TIP3    H2 4815   4.471   5.941   1.786  0.6592  1.0841 -2.4106
 1628TIP3   OH2 4816   5.007   4.744   1.184  0.3080 -0.0350 -0.1801
 1628TIP3    H1 4817   4.912   4.729   1.181  0.2524  0.1940  0.4211
 1628TIP3    H2 4818   5.043   4.677   1.126 -0.2706  0.2992 -0.9363
 1629TIP3   OH2 4819   5.456   2.795   2.727  0.7129 -0.2778 -0.4581
 1629TIP3    H1 4820   5.470   2.708   2.764  0.6675  0.0698  0.3910
 1629TIP3    H2 4821   5.482   2.855   2.797 -2.4376  0.3971  0.2078
 1630TIP3   OH2 4822   5.404   4.643   0.574 -0.7291 -0.1040 -0.0917
 1630TIP3    H1 4823   5.401   4.600   0.660 -0.1922  2.9227  1.5149
 1630TIP3    H2 4824   5.394   4.572   0.511 -0.7345 -2.4492  2.4704
 1631TIP3   OH2 4825   5.532   4.245   2.370 -0.3232 -0.5299  0.4065
 1631TIP3    H1 4826   5.479   4.201   2.304  1.0711 -0.7510 -0.6031
 1631TIP3    H2 4827   5.610   4.189   2.378 -0.8266 -0.9194  2.8121
 1632TIP3   OH2 4828   5.568   5.561   2.001 -0.1586  0.0108 -0.1714
 1632TIP3    H1 4829   5.613   5.538   1.920  3.0697 -2.6116  2.2376
 1632TIP3    H2 4830   5.487   5.509   1.999  0.8743 -1.6001 -0.7683
 1633TIP3   OH2 4831   1.219   3.307   6.482  0.5635 -0.4201 -0.6250
 1633TIP3    H1 4832   1.164   3.385   6.475  1.4104  0.2440  0.1182
 1633TIP3    H2 4833   1.172   3.241   6.431 -0.4313  0.4148 -0.8139
 1634TIP3   OH2 4834   3.364   2.667   1.301  0.1041  0.0758 -0.1907
 1634TIP3    H1 4835   3.386   2.608   1.229  0.7760 -1.0414  0.9075
 1634TIP3    H2 4836   3.442   2.665   1.358 -0.4649  0.8397  0.6293
 1635TIP3   OH2 4837   7.574   6.123   1.605 -0.0220  0.1308 -0.4113
 1635TIP3    H1 4838   7.601   6.180   1.533 -1.0550 -1.4086 -2.0559
 1635TIP3    H2 4839   7.541   6.044   1.563  0.7808 -1.4538  1.8105
 1636TIP3   OH2 4840   0.099   1.525   6.023 -0.1056  0.2110  0.1604
 1636TIP3    H1 4841   0.078   1.603   5.973 -0.3320  0.8149  1.1877
 1636TIP3    H2 4842   0.014   1.493   6.054 -0.2071 -1.4602 -1.7275
 1637TIP3   OH2 4843   4.369   4.763   1.019 -0.1038 -0.5739  0.1088
 1637TIP3    H1 4844   4.431   4.691   1.009  2.3824  1.5688 -0.1182
 1637TIP3    H2 4845   4.294   4.737   0.964  1.4052 -2.2243 -1.2369
 1638TIP3   OH2 4846   3.340   3.086   5.513 -1.0404 -0.5123  0.3500
 1638TIP3    H1 4847   3.284   3.156   5.549 -0.0208  1.3559 -1.6073
 1638TIP3    H2 4848   3.300   3.065   5.429  0.2619 -0.2932 -0.3326
 1639TIP3   OH2 4849   2.921   0.214   6.678  0.3366  0.6510  0.0338
 1639TIP3    H1 4850   2.998   0.223   6.622  0.4013 -0.7814 -0.1310
 1639TIP3    H2 4851   2.875   0.297   6.668  1.6159  1.3543 -0.2255
 1640TIP3   OH2 4852   7.808  -0.013   0.714 -0.8415 -0.2513  0.5743
 1640TIP3    H1 4853   7.747   0.054   0.684 -0.3685  0.1232  0.4457
 1640TIP3    H2 4854   7.875  -0.017   0.645  0.0994  0.4156  1.4398
 1641TIP3   OH2 4855   3.408   0.243   6.692 -0.7146  0.2586  0.7341
 1641TIP3    H1 4856   3.338   0.305   6.672  1.5420  2.2630 -1.1199
 1641TIP3    H2 4857   3.445   0.275   6.775 -1.4581 -0.3535  1.3115
 1642TIP3   OH2 4858   3.165   5.407   0.183  0.4842 -1.0071 -0.3601
 1642TIP3    H1 4859   3.230   5.418   0.115 -0.4181  2.7543 -0.7294
 1642TIP3    H2 4860   3.194   5.464   0.254 -1.0092 -1.2891  0.5155
 1643TIP3   OH2 4861   5.173   3.874   2.142 -0.0315  0.1017 -0.3292
 1643TIP3    H1 4862   5.104   3.811   2.120  0.1769 -0.1018 -0.4103
 1643TIP3    H2 4863   5.242   3.856   2.078  0.2317  0.0835 -0.0408
 1644TIP3   OH2 4864   2.869   5.565   2.184  0.1914  0.0235  0.0901
 1644TIP3    H1 4865   2.867   5.535   2.275 -0.3610 -1.3722 -0.3646
 1644TIP3    H2 4866   2.830   5.652   2.186 -1.9299 -0.9080  0.8748
 1645TIP3   OH2 4867   3.835   2.614   0.213  0.7126  1.2755 -0.4646
 1645TIP3    H1 4868   3.896   2.687   0.217  0.4047  1.5774 -1.1918
 1645TIP3    H2 4869   3.889   2.539   0.187  1.2780  0.9478  1.6296
 1646TIP3   OH2 4870   7.553   4.012   0.448  0.4306  0.3043  0.6837
 1646TIP3    H1 4871   7.571   4.095   0.405  1.0164  0.2505  0.8259
 1646TIP3    H2 4872   7.545   3.949   0.376 -1.0051  0.6593  0.5163
 1647TIP3   OH2 4873   7.513   7.702   2.817 -0.3972 -0.3378 -0.1393
 1647TIP3    H1 4874   7.459   7.672   2.743 -0.8936  0.1632  0.0182
 1647TIP3    H2 4875   7.451   7.712   2.889 -0.1501  0.5502 -0.0414
 1648TIP3   OH2 4876   0.404   1.962   4.721  0.0990 -0.3535 -0.0402
 1648TIP3    H1 4877   0.421   1.999   4.634  0.3177  0.6885  0.4495
 1648TIP3    H2 4878   0.359   1.879   4.702  0.1541 -0.1442 -1.1486
 1649TIP3   OH2 4879   7.263   2.430   6.482  0.0756  0.1405 -0.3636
 1649TIP3    H1 4880   7.231   2.521   6.488 -1.8466 -0.5259 -0.0525
 1649TIP3    H2 4881   7.327   2.423   6.553  0.1934  1.2286 -0.3408
 1650TIP3   OH2 4882   1.478   7.590   0.238 -0.4201 -0.2125 -0.2395
 1650TIP3    H1 4883   1.494   7.502   0.271 -1.1627 -0.5808 -0.8630
 1650TIP3    H2 4884   1.552   7.641   0.271 -0.5590 -0.8148  1.0603
 1651TIP3   OH2 4885   1.398   1.854   6.335 -0.3800 -0.8862  0.1119
 1651TIP3    H1 4886   1.420   1.811   6.418 -0.2085 -1.2588 -0.1264
 1651TIP3    H2 4887   1.439   1.799   6.268 -0.1152 -0.3252 -0.1916
 1652TIP3   OH2 4888   5.754   1.668   6.253  0.1306 -0.2675  0.6322
 1652TIP3    H1 4889   5.803   1.608   6.198 -0.3871  0.9090 -1.1492
 1652TIP3    H2 4890   5.813   1.686   6.327  1.0359 -1.4630  0.2094
 1653TIP3   OH2 4891   4.846   0.399   2.045 -0.4476  0.3659 -0.3509
 1653TIP3    H1 4892   4.759   0.361   2.032 -1.0917  0.4114  3.1413
 1653TIP3    H2 4893   4.834   0.493   2.028 -1.6013  0.6748  1.9122
 1654TIP3   OH2 4894   2.293   6.550   2.385 -0.7942 -0.6311 -0.1244
 1654TIP3    H1 4895   2.257   6.478   2.437 -1.0607 -0.1169  0.4142
 1654TIP3    H2 4896   2.352   6.508   2.322 -0.0672 -1.2243  0.9341
 1655TIP3   OH2 4897   3.638   5.792   0.348 -0.6820 -0.1009  0.3630
 1655TIP3    H1 4898   3.710   5.745   0.390 -1.0086 -1.9284 -1.0109
 1655TIP3    H2 4899   3.580   5.816   0.419 -0.2089 -1.3153  1.1867
 1656TIP3   OH2 4900   8.348   2.126   6.469  0.0384  0.3435 -0.2623
 1656TIP3    H1 4901   8.262   2.118   6.511 -0.1122 -0.3952 -0.6842
 1656TIP3    H2 4902   8.332   2.183   6.394  0.2649  1.5074  0.5737
 1657TIP3   OH2 4903   1.943   7.219   1.769  0.6776  0.0477  0.4261
 1657TIP3    H1 4904   1.848   7.213   1.763  0.5448  1.2291  1.1076
 1657TIP3    H2 4905   1.975   7.136   1.734 -0.6077 -0.4110  0.3210
 1658TIP3   OH2 4906   6.855   2.595   6.918  0.0201 -0.3617  0.6909
 1658TIP3    H1 4907   6.792   2.542   6.966 -0.5554 -0.1758  0.1536
 1658TIP3    H2 4908   6.807   2.627   6.841  1.2864 -1.7328 -0.7188
 1659TIP3   OH2 4909   0.741   7.386   3.823  0.5451 -1.0014  0.3474
 1659TIP3    H1 4910   0.769   7.473   3.849  0.3642  0.1625 -3.1141
 1659TIP3    H2 4911   0.822   7.341   3.798  0.3873 -0.8981 -0.3794
 1660TIP3   OH2 4912   1.082   6.909   1.937  0.1589  0.0163 -0.8101
 1660TIP3    H1 4913   1.035   6.866   2.009  0.6203 -0.7590 -0.9651
 1660TIP3    H2 4914   1.051   6.865   1.858  1.3274 -0.6798 -0.8919
 1661TIP3   OH2 4915   1.092   7.980   0.980 -0.3322  0.1148  0.5255
 1661TIP3    H1 4916   1.129   8.013   1.062 -0.1848 -0.9222  0.8901
 1661TIP3    H2 4917   1.011   7.936   1.007 -0.2591 -0.2693  0.1189
 1662TIP3   OH2 4918   8.190   7.340   1.819 -0.2932  0.1177 -0.0357
 1662TIP3    H1 4919   8.259   7.364   1.881 -0.7687 -1.6470  1.2340
 1662TIP3    H2 4920   8.162   7.253   1.848 -2.4407  0.4444 -1.0648
 1663TIP3   OH2 4921   8.305   6.979   1.734 -0.2348 -0.0999 -0.1152
 1663TIP3    H1 4922   8.326   7.039   1.805 -1.1990  0.5326 -0.3498
 1663TIP3    H2 4923   8.256   7.032   1.671 -1.6578 -1.2644 -0.0361
 1664TIP3   OH2 4924   3.196   0.306   2.854  0.1752  0.2574 -0.0930
 1664TIP3    H1 4925   3.266   0.370   2.839 -0.1449  0.7208  0.4272
 1664TIP3    H2 4926   3.121   0.357   2.881 -0.2793 -0.2789 -0.3352
 1665TIP3   OH2 4927   0.646   6.221   1.064  0.6413 -0.6551 -0.9465
 1665TIP3    H1 4928   0.740   6.238   1.065  0.0880  2.7954 -1.1171
 1665TIP3    H2 4929   0.615   6.251   1.149 -0.4662 -0.7014 -1.3218
 1666TIP3   OH2 4930   0.868   7.670   0.338 -0.3091 -0.2779 -0.0100
 1666TIP3    H1 4931   0.931   7.652   0.409 -0.4913  1.8809  0.7525
 1666TIP3    H2 4932   0.785   7.686   0.383 -0.1868  2.2149 -0.5792
 1667TIP3   OH2 4933   1.313   7.305   0.608  0.6428  0.0993  0.3019
 1667TIP3    H1 4934   1.392   7.315   0.556  0.1083 -0.1240 -0.5627
 1667TIP3    H2 4935   1.247   7.273   0.546 -0.5434  1.7741  0.6454
 1668TIP3   OH2 4936   1.473   5.418   2.464  0.1939  0.0262  0.2111
 1668TIP3    H1 4937   1.400   5.457   2.414  2.0677  3.4348 -0.0652
 1668TIP3    H2 4938   1.486   5.478   2.538  2.6908 -0.4975  0.2465
 1669TIP3   OH2 4939   2.826   5.575   0.751  0.3788  0.6989  0.4174
 1669TIP3    H1 4940   2.855   5.577   0.660  1.1898 -1.5681  0.5895
 1669TIP3    H2 4941   2.839   5.664   0.783 -0.8346  1.7506 -1.9570
 1670TIP3   OH2 4942   3.543   0.857   1.039 -0.1554 -0.0062 -0.0579
 1670TIP3    H1 4943   3.593   0.847   1.120 -1.5113 -0.8864  0.6984
 1670TIP3    H2 4944   3.553   0.950   1.015 -0.7549  0.5606  1.8124
 1671TIP3   OH2 4945   0.657   3.217   6.099  0.4979  0.2345 -0.4895
 1671TIP3    H1 4946   0.603   3.286   6.060 -1.3624 -0.2350  1.1715
 1671TIP3    H2 4947   0.619   3.136   6.065 -0.8713 -0.1561  1.9001
 1672TIP3   OH2 4948   1.882   6.912   1.826 -0.0894  0.4569  0.1761
 1672TIP3    H1 4949   1.850   6.981   1.884 -3.7233  0.3254 -1.6032
 1672TIP3    H2 4950   1.821   6.840   1.838  2.1836 -1.5584  0.0817
 1673TIP3   OH2 4951   2.671   6.483   2.436 -0.4953 -0.0535 -1.0659
 1673TIP3    H1 4952   2.639   6.537   2.508 -2.0970 -2.1150 -0.1723
 1673TIP3    H2 4953   2.662   6.393   2.467  1.7974 -0.8891 -2.6447
 1674TIP3   OH2 4954   1.581   6.377   3.651  0.4717  0.0329 -0.3056
 1674TIP3    H1 4955   1.513   6.345   3.709  0.2087 -1.6535 -1.5152
 1674TIP3    H2 4956   1.565   6.472   3.646  1.2455  0.4239  3.2765
 1675TIP3   OH2 4957   5.773   0.233   1.706  0.0743 -0.0455 -0.1643
 1675TIP3    H1 4958   5.686   0.240   1.745  0.1794 -0.4597  0.1529
 1675TIP3    H2 4959   5.765   0.158   1.646  0.5042 -0.7592  0.6573
 1676TIP3   OH2 4960   3.573   7.822   0.332  0.3222  0.4111  0.3149
 1676TIP3    H1 4961   3.659   7.859   0.310 -0.0239  2.3023  2.0655
 1676TIP3    H2 4962   3.520   7.839   0.254  1.5332 -0.9003 -0.8453
 1677TIP3   OH2 4963   7.712   4.465   6.128  0.2320 -0.3141  0.4814
 1677TIP3    H1 4964   7.712   4.491   6.220  0.0769 -1.4248  0.8077
 1677TIP3    H2 4965   7.689   4.372   6.130  0.1690 -0.3278 -0.6860
 1678TIP3   OH2 4966   7.057   1.439   1.772 -0.4982  0.6581 -0.3823
 1678TIP3    H1 4967   6.986   1.413   1.832  0.9032 -1.7660  0.2874
 1678TIP3    H2 4968   7.137   1.427   1.823  0.5617  0.8696 -1.9727
 1679TIP3   OH2 4969   7.871   1.871   6.903 -0.7507  0.0520  0.2407
 1679TIP3    H1 4970   7.826   1.951   6.874  0.5735  0.7243  0.0005
 1679TIP3    H2 4971   7.801   1.807   6.914 -1.8460  1.2809  0.5584
 1680TIP3   OH2 4972   0.463   2.078   4.196  0.6478  0.1654 -0.3158
 1680TIP3    H1 4973   0.395   2.070   4.262 -0.9609 -0.7442 -2.0214
 1680TIP3    H2 4974   0.521   2.004   4.211  1.3324  0.9949  1.2006
 1681TIP3   OH2 4975   2.020   6.937   0.745  0.5645  0.0996  0.1305
 1681TIP3    H1 4976   1.949   6.965   0.688  0.4254  2.3641  1.3463
 1681TIP3    H2 4977   1.977   6.883   0.812  0.3725 -0.5670 -0.5255
 1682TIP3   OH2 4978   7.873   2.821   6.816  0.2373 -0.3247 -0.4420
 1682TIP3    H1 4979   7.847   2.837   6.907  0.9083 -1.1943 -0.0935
 1682TIP3    H2 4980   7.900   2.907   6.783 -2.3648  0.4614 -0.5966
 1683TIP3   OH2 4981   1.125   2.747   5.639 -0.1414 -0.2412  0.0664
 1683TIP3    H1 4982   1.148   2.735   5.731 -1.0403 -0.5456  0.2559
 1683TIP3    H2 4983   1.111   2.841   5.630 -0.8228 -0.3043  0.4288
 1684TIP3   OH2 4984   0.078   2.783   4.479  0.0862  0.4583 -0.5046
 1684TIP3    H1 4985   0.133   2.718   4.522 -1.9954 -0.0435  1.4923
 1684TIP3    H2 4986   0.134   2.860   4.470  1.0400  0.0365  1.6756
 1685TIP3   OH2 4987   5.470   3.546   6.559 -0.4528 -0.2942  0.1351
 1685TIP3    H1 4988   5.516   3.463   6.570 -0.6218 -0.6144 -1.4144
 1685TIP3    H2 4989   5.524   3.595   6.497 -1.7392 -0.3414 -1.0541
 1686TIP3   OH2 4990   2.939   7.700   1.670 -0.1917  0.0652 -0.1825
 1686TIP3    H1 4991   3.000   7.655   1.730 -1.4531 -0.3806  0.7859
 1686TIP3    H2 4992   2.852   7.670   1.697 -1.0324  2.5620  0.0617
 1687TIP3   OH2 4993   2.005   5.387   1.216  0.3194 -0.3992 -0.2890
 1687TIP3    H1 4994   1.967   5.460   1.167  0.9136  2.8593  3.8882
 1687TIP3    H2 4995   1.974   5.400   1.305  1.2512 -4.7814  0.7726
 1688TIP3   OH2 4996   1.775   7.327   0.553 -0.2545  0.2248 -0.5373
 1688TIP3    H1 4997   1.867   7.326   0.525  0.6546  2.9283  2.1267
 1688TIP3    H2 4998   1.763   7.243   0.597  0.6029 -0.5973 -1.8012
 1689TIP3   OH2 4999   1.745   7.490   1.279 -0.3181  0.6295 -0.2614
 1689TIP3    H1 5000   1.696   7.419   1.320 -0.5445  1.2625  0.5863
 1689TIP3    H2 5001   1.833   7.483   1.316 -0.2323  0.5469 -0.4809
 1690TIP3   OH2 5002   1.946   6.978   1.187 -0.6423  0.0768  0.3580
 1690TIP3    H1 5003   2.031   6.940   1.209  0.8624  1.2040 -3.1818
 1690TIP3    H2 5004   1.961   7.073   1.189 -1.4997  0.2663 -1.3283
 1691TIP3   OH2 5005   3.328   6.045   1.980  0.1498 -0.2015 -0.0676
 1691TIP3    H1 5006   3.268   5.979   2.015  0.3694 -0.1433  0.4260
 1691TIP3    H2 5007   3.278   6.089   1.911  0.1254 -1.1346 -0.6659
 1692TIP3   OH2 5008   8.084   5.500   6.584 -0.3942 -0.0469 -0.2146
 1692TIP3    H1 5009   8.145   5.428   6.600  2.8658  2.7577  0.6210
 1692TIP3    H2 5010   8.007   5.478   6.637 -0.2084 -3.7252 -1.3339
 1693TIP3   OH2 5011   3.193   7.003   1.647 -1.3998 -0.1839 -0.5480
 1693TIP3    H1 5012   3.209   7.059   1.723 -1.4966 -0.3958 -0.3685
 1693TIP3    H2 5013   3.252   7.036   1.579  0.3635 -1.4263  0.3317
 1694TIP3   OH2 5014   1.189   3.863   6.114  0.2285 -0.7576 -0.2858
 1694TIP3    H1 5015   1.124   3.793   6.119 -0.3971 -0.2583 -1.2245
 1694TIP3    H2 5016   1.223   3.872   6.203 -2.0571 -0.0018  0.5429
 1695TIP3   OH2 5017   1.363   5.580   0.546  0.1581 -0.5728 -0.4423
 1695TIP3    H1 5018   1.327   5.667   0.558 -0.5320 -1.0655  1.1742
 1695TIP3    H2 5019   1.455   5.595   0.522 -0.2496  0.5994 -1.3114
 1696TIP3   OH2 5020   6.275   0.168   0.193  0.2331 -0.2357  0.0789
 1696TIP3    H1 5021   6.366   0.194   0.210  0.2993  0.3893 -1.1872
 1696TIP3    H2 5022   6.227   0.250   0.186 -0.2349 -0.5429 -0.3355
 1697TIP3   OH2 5023   2.172   6.528   0.408  0.0629 -0.1925  0.2084
 1697TIP3    H1 5024   2.226   6.457   0.373  2.8949  2.4478 -0.9964
 1697TIP3    H2 5025   2.115   6.553   0.335 -0.8638 -1.1458  0.6013
 1698TIP3   OH2 5026   0.325   1.586   6.180 -0.1412 -0.4263 -0.3468
 1698TIP3    H1 5027   0.250   1.554   6.132 -0.8747 -1.7870  1.6402
 1698TIP3    H2 5028   0.380   1.509   6.193 -0.2435 -0.2145  1.4628
 1699TIP3   OH2 5029   3.789   2.628   1.836 -0.2167  0.2643 -0.3227
 1699TIP3    H1 5030   3.852   2.616   1.907 -0.5939  0.4060  0.0413
 1699TIP3    H2 5031   3.842   2.626   1.756 -0.2392 -4.2837 -0.3879
 1700TIP3   OH2 5032   6.801   0.558   0.030 -0.5626  0.7791  0.3457
 1700TIP3    H1 5033   6.780   0.497  -0.041 -2.3770  1.4879  0.2295
 1700TIP3    H2 5034   6.892   0.583   0.014 -0.4639 -0.2794 -0.8264
 1701TIP3   OH2 5035   8.241   1.184   4.440 -0.1866  0.5945  0.1323
 1701TIP3    H1 5036   8.150   1.159   4.459  0.0644 -0.5177 -0.0682
 1701TIP3    H2 5037   8.236   1.276   4.414 -1.5558 -0.0473 -1.9861
 1702TIP3   OH2 5038   7.504   2.592   6.649 -0.4930  0.2212  0.1018
 1702TIP3    H1 5039   7.444   2.571   6.719 -0.4016 -1.0600 -0.1902
 1702TIP3    H2 5040   7.579   2.533   6.662  1.1417  2.4498  1.0299
 1703TIP3   OH2 5041   5.218   4.608   5.556 -0.0500 -0.1743  0.0628
 1703TIP3    H1 5042   5.234   4.702   5.550 -0.4765 -0.1523 -0.7927
 1703TIP3    H2 5043   5.123   4.600   5.565  0.0763 -0.4828  1.2333
 1704TIP3   OH2 5044   0.599   6.713   1.718 -0.3195 -0.1816 -0.5903
 1704TIP3    H1 5045   0.670   6.650   1.719  0.7889  1.0468  1.6859
 1704TIP3    H2 5046   0.551   6.694   1.638  2.0495 -1.6026 -1.7117
 1705TIP3   OH2 5047   0.907   2.164   3.989 -0.2169  0.0606  0.1384
 1705TIP3    H1 5048   0.926   2.240   3.934 -0.2295 -0.1115 -0.1083
 1705TIP3    H2 5049   0.911   2.197   4.078  0.5021  0.1975  0.0637
 1706TIP3   OH2 5050   6.614   3.773   6.422  0.3509 -0.0719 -0.7334
 1706TIP3    H1 5051   6.604   3.811   6.335 -0.4034 -1.1830 -1.1411
 1706TIP3    H2 5052   6.556   3.696   6.421 -1.2538  1.0735  1.4462
 1707TIP3   OH2 5053   0.949   3.590   5.049  0.3050 -0.3639  0.3284
 1707TIP3    H1 5054   1.043   3.604   5.060  0.4525 -1.4881  0.5887
 1707TIP3    H2 5055   0.939   3.559   4.959  0.1443  0.0538  0.2004
 1708TIP3   OH2 5056   4.371   7.126  -0.003 -0.4792 -0.2495 -0.4130
 1708TIP3    H1 5057   4.394   7.217  -0.023  0.1969  0.1175  1.8190
 1708TIP3    H2 5058   4.308   7.133   0.069  0.4123 -1.5558  0.5341
 1709TIP3   OH2 5059   0.049   2.610   6.711  0.2162  0.2755 -0.1212
 1709TIP3    H1 5060   0.144   2.621   6.706  0.2691  0.3193  0.8258
 1709TIP3    H2 5061   0.037   2.523   6.750 -0.1277  0.3121 -0.1389
 1710TIP3   OH2 5062   3.704   7.558   0.474 -0.4029 -0.3099  0.1402
 1710TIP3    H1 5063   3.629   7.607   0.508 -0.3968 -0.1793 -0.0354
 1710TIP3    H2 5064   3.693   7.469   0.508 -0.6850 -0.3132  0.0408
 1711TIP3   OH2 5065   3.432   2.206   0.193  0.2844  0.2044  0.6146
 1711TIP3    H1 5066   3.396   2.124   0.229 -1.7087  1.1593  0.8717
 1711TIP3    H2 5067   3.459   2.256   0.270 -0.4727  0.6638  0.5890
 1712TIP3   OH2 5068   1.812   7.896   0.858 -0.4665  0.5375 -0.8141
 1712TIP3    H1 5069   1.837   7.971   0.912  2.0562 -1.4249  0.8678
 1712TIP3    H2 5070   1.847   7.916   0.772 -1.4854  2.1220 -0.8870
 1713TIP3   OH2 5071   2.765   6.719   0.545 -0.0323 -0.6329  0.8175
 1713TIP3    H1 5072   2.790   6.736   0.455 -0.9764 -1.6671  0.3425
 1713TIP3    H2 5073   2.753   6.805   0.584  0.7553 -0.1779  0.0599
 1714TIP3   OH2 5074   3.380   0.133   0.770  0.0333  0.0498 -0.5540
 1714TIP3    H1 5075   3.338   0.219   0.765 -0.0088  0.0523 -0.1401
 1714TIP3    H2 5076   3.432   0.136   0.850 -1.5838 -1.0402  0.5612
 1715TIP3   OH2 5077   2.563   7.137   1.257 -0.3569 -0.0190 -0.9351
 1715TIP3    H1 5078   2.625   7.097   1.318 -1.3542  1.3717  1.0269
 1715TIP3    H2 5079   2.554   7.072   1.187 -0.5258 -2.4410  1.2623
 1716TIP3   OH2 5080   2.954   7.712   0.090  0.1794 -0.1547 -0.7326
 1716TIP3    H1 5081   2.973   7.797   0.051 -0.2772  0.4113  0.2693
 1716TIP3    H2 5082   2.919   7.732   0.177 -0.7924 -1.3402 -0.8378
 1717TIP3   OH2 5083   4.934   0.833   0.426 -0.2586  0.2628  0.2243
 1717TIP3    H1 5084   4.963   0.905   0.482  0.9189  0.5155 -0.6879
 1717TIP3    H2 5085   5.005   0.822   0.363 -2.2857  1.1441 -2.3033
 1718TIP3   OH2 5086   5.388   1.904   0.636  0.3678 -0.0809 -0.2664
 1718TIP3    H1 5087   5.394   1.998   0.653  0.3186  0.0611 -1.0095
 1718TIP3    H2 5088   5.401   1.863   0.722 -0.2580  0.6213  0.1718
 1719TIP3   OH2 5089   0.149   5.304   6.588  0.3528  0.9020  0.1046
 1719TIP3    H1 5090   0.199   5.278   6.511  0.8261 -0.8473  0.9816
 1719TIP3    H2 5091   0.213   5.299   6.660 -1.1185 -1.5678  1.2800
 1720TIP3   OH2 5092   3.643   6.074   0.906  0.2073  0.3117 -0.2958
 1720TIP3    H1 5093   3.656   6.018   0.983  0.2549  0.5064 -0.1640
 1720TIP3    H2 5094   3.729   6.075   0.864  0.7226  1.9023  0.7817
 1721TIP3   OH2 5095   5.189   1.215   0.394 -0.4093 -0.0184 -0.0573
 1721TIP3    H1 5096   5.230   1.221   0.480  0.0422 -1.3536 -0.1702
 1721TIP3    H2 5097   5.260   1.190   0.335 -0.5604  1.5722 -0.9572
 1722TIP3   OH2 5098   8.183   2.858   6.332  0.1020  0.0601  0.1499
 1722TIP3    H1 5099   8.201   2.952   6.319 -2.1301  0.2309 -2.0306
 1722TIP3    H2 5100   8.137   2.854   6.416 -0.9601  1.0990 -0.3632
 1723TIP3   OH2 5101   8.098   1.507   6.828  0.1336  0.7531  0.4175
 1723TIP3    H1 5102   8.154   1.470   6.896  0.0619 -0.6301 -0.2590
 1723TIP3    H2 5103   8.020   1.452   6.828  0.1522  0.7054 -0.7923
 1724TIP3   OH2 5104   4.946   7.168   2.288  0.0853  0.3602 -0.5527
 1724TIP3    H1 5105   4.979   7.081   2.312  1.7256  0.7238 -1.3843
 1724TIP3    H2 5106   4.948   7.218   2.369 -0.8325 -0.3680 -0.0755
 1725TIP3   OH2 5107   6.130   0.377   2.555  0.8601 -0.1831  0.6071
 1725TIP3    H1 5108   6.198   0.444   2.553 -0.6599  1.4044 -0.2921
 1725TIP3    H2 5109   6.171   0.301   2.595  3.3407  0.5176 -0.5485
 1726TIP3   OH2 5110   5.085   6.606   1.626  0.7735 -0.0919 -0.1330
 1726TIP3    H1 5111   5.104   6.523   1.669  0.1913  0.5019  1.3182
 1726TIP3    H2 5112   5.101   6.672   1.693 -3.5734  0.6401  0.3673
 1727TIP3   OH2 5113   0.060   1.305   6.805 -0.2394  0.0083 -0.2768
 1727TIP3    H1 5114   0.101   1.286   6.721  0.8905  0.6772  0.1259
 1727TIP3    H2 5115   0.033   1.396   6.799 -0.5306 -0.0604 -0.0523
 1728TIP3   OH2 5116   2.987   6.546   0.436 -0.2693  0.3447  0.0335
 1728TIP3    H1 5117   2.938   6.563   0.517 -1.2916 -0.4352 -0.4140
 1728TIP3    H2 5118   2.928   6.492   0.383  1.6503 -1.8887  0.1075
 1729TIP3   OH2 5119   1.126   1.892   6.281  0.2262  0.2465 -0.2677
 1729TIP3    H1 5120   1.220   1.899   6.297  0.4314  0.9308 -1.7097
 1729TIP3    H2 5121   1.108   1.959   6.215 -1.3253  0.3182  0.2119
 1730TIP3   OH2 5122   5.180   7.959   0.522  0.5669 -0.9128  0.2942
 1730TIP3    H1 5123   5.220   7.873   0.533  0.3024 -1.0841 -0.0534
 1730TIP3    H2 5124   5.175   7.972   0.427 -1.9161 -1.7352  0.2655
 1731TIP3   OH2 5125   0.184   2.484   4.819 -0.0646 -0.0298 -0.0138
 1731TIP3    H1 5126   0.114   2.419   4.824  0.6137 -0.7400  0.4595
 1731TIP3    H2 5127   0.245   2.458   4.888  0.1910  1.1510  0.2151
 1732TIP3   OH2 5128   2.927   3.200   6.966 -0.4484 -0.4027 -0.4220
 1732TIP3    H1 5129   2.996   3.206   6.900  0.0354  1.5180  0.2459
 1732TIP3    H2 5130   2.875   3.279   6.954 -0.2121  0.0766  1.6470
 1733TIP3   OH2 5131   6.514   6.054   6.705  0.6707 -0.3051  0.0414
 1733TIP3    H1 5132   6.429   6.067   6.747  0.4479 -2.2510  0.2444
 1733TIP3    H2 5133   6.572   6.114   6.751 -0.3892  0.3406  0.5687
 1734TIP3   OH2 5134   2.183   7.333   1.735 -0.3686 -0.1846 -0.8472
 1734TIP3    H1 5135   2.196   7.293   1.648 -1.8650 -2.1524 -0.2121
 1734TIP3    H2 5136   2.092   7.313   1.756 -0.0287  0.3456  1.1470
 1735TIP3   OH2 5137   2.453   6.895   0.652 -0.2128 -0.0365 -0.3292
 1735TIP3    H1 5138   2.397   6.952   0.600  1.4402 -0.2211 -2.3805
 1735TIP3    H2 5139   2.538   6.940   0.654  0.1327 -0.7070  1.0712
 1736TIP3   OH2 5140   7.674   0.042   1.343  0.5572 -0.0276 -0.0491
 1736TIP3    H1 5141   7.753   0.048   1.289  0.6976  1.0579  0.2680
 1736TIP3    H2 5142   7.615  -0.016   1.293  0.6695  0.9895 -1.3863
 1737TIP3   OH2 5143   0.099   4.216   6.841 -0.3737 -0.9283 -0.1600
 1737TIP3    H1 5144   0.107   4.200   6.935 -1.7668 -2.7844 -0.3245
 1737TIP3    H2 5145   0.184   4.190   6.805 -0.0889 -0.9150  0.4979
 1738TIP3   OH2 5146   3.228   5.755   1.609 -0.2062 -0.1246 -0.0408
 1738TIP3    H1 5147   3.300   5.703   1.645 -1.2948 -0.6223  1.4419
 1738TIP3    H2 5148   3.161   5.690   1.587 -1.0412  0.5390  0.5701
 1739TIP3   OH2 5149   0.235   2.692   6.057 -0.2940  0.2965 -0.2012
 1739TIP3    H1 5150   0.180   2.622   6.092 -2.0074  1.2179 -0.9836
 1739TIP3    H2 5151   0.324   2.666   6.080 -0.8958 -2.0845 -0.4143
 1740TIP3   OH2 5152   1.611   6.463   1.279 -0.0433  0.0863  0.1432
 1740TIP3    H1 5153   1.533   6.517   1.265 -0.2688  0.0057  1.1053
 1740TIP3    H2 5154   1.654   6.502   1.355  0.4429 -0.3439  0.0871
 1741TIP3   OH2 5155   2.032   6.345   0.168 -0.7077 -0.4630  0.4282
 1741TIP3    H1 5156   2.024   6.251   0.160  0.5545 -0.5634  0.1726
 1741TIP3    H2 5157   1.983   6.381   0.094  0.4105 -0.9821 -0.5808
 1742TIP3   OH2 5158   5.221   7.964   0.953 -0.1149 -0.1362  0.3228
 1742TIP3    H1 5159   5.309   7.986   0.920 -1.0715  2.0732 -0.8811
 1742TIP3    H2 5160   5.167   7.958   0.874 -1.0710 -1.3891  1.0643
 1743TIP3   OH2 5161   0.873   2.379   6.829 -0.0890 -0.0857  0.9076
 1743TIP3    H1 5162   0.818   2.425   6.892 -1.2802 -1.4132  0.8799
 1743TIP3    H2 5163   0.810   2.344   6.764  1.0209  0.4952 -0.5000
 1744TIP3   OH2 5164   7.188   0.136   1.525  0.3654  0.0242  0.0371
 1744TIP3    H1 5165   7.135   0.064   1.559 -0.2474  1.6307  2.6260
 1744TIP3    H2 5166   7.126   0.209   1.515  1.3314  0.7436 -0.8151
 1745TIP3   OH2 5167   0.315   2.598   6.697 -0.8180  0.6150  0.3383
 1745TIP3    H1 5168   0.327   2.507   6.668 -0.6224  0.6815  0.2041
 1745TIP3    H2 5169   0.387   2.612   6.759 -0.4238  0.9030 -0.1851
 1746TIP3   OH2 5170   0.928   0.850   1.131 -0.2859 -0.0668  0.5858
 1746TIP3    H1 5171   0.965   0.762   1.124 -1.1003 -0.4532  0.9935
 1746TIP3    H2 5172   0.849   0.847   1.076 -0.9218  0.0653  1.4766
 1747TIP3   OH2 5173   7.354   1.213   0.424  0.2313 -0.1049 -0.4997
 1747TIP3    H1 5174   7.351   1.119   0.443 -1.2059 -0.1560 -0.9308
 1747TIP3    H2 5175   7.415   1.220   0.351  0.6684 -0.6535 -0.1978
 1748TIP3   OH2 5176   2.439   3.937   5.337 -0.0335  0.1787  0.2635
 1748TIP3    H1 5177   2.527   3.905   5.316  0.4455  0.8445  1.2075
 1748TIP3    H2 5178   2.380   3.878   5.289  0.9751  1.0931 -2.1680
 1749TIP3   OH2 5179   3.020   4.662   5.755 -0.1478 -0.0024  0.0286
 1749TIP3    H1 5180   2.948   4.609   5.720  0.3881 -0.7271  0.0248
 1749TIP3    H2 5181   3.021   4.643   5.849 -0.1432  0.2228  0.0740
 1750TIP3   OH2 5182   0.714   2.774   6.234 -0.5047 -0.3092 -0.1021
 1750TIP3    H1 5183   0.638   2.717   6.232  1.4060 -3.0758  2.4077
 1750TIP3    H2 5184   0.766   2.749   6.158 -1.0748  0.1529 -0.6485
 1751TIP3   OH2 5185   6.245   0.312   1.559 -0.4580 -0.5198  0.3221
 1751TIP3    H1 5186   6.259   0.220   1.536 -0.9129 -0.1802 -1.3207
 1751TIP3    H2 5187   6.209   0.352   1.480  0.2149  1.1942  0.8603
 1752TIP3   OH2 5188   6.019   0.430   0.412  0.0815 -0.2769 -0.6158
 1752TIP3    H1 5189   6.056   0.354   0.367 -1.2186 -1.0637 -0.3669
 1752TIP3    H2 5190   5.980   0.395   0.492  0.1187  0.7649 -0.1216
 1753TIP3   OH2 5191   3.850   6.588   1.708  0.1503 -0.2463  0.4724
 1753TIP3    H1 5192   3.777   6.526   1.700  0.8446 -0.8298 -1.6625
 1753TIP3    H2 5193   3.822   6.649   1.777 -1.4243 -1.7135  1.1586
 1754TIP3   OH2 5194   6.330   7.860   3.874  0.0787  0.8057 -0.2184
 1754TIP3    H1 5195   6.396   7.906   3.823  0.3055  0.1203 -0.5383
 1754TIP3    H2 5196   6.273   7.930   3.907  0.0904  1.2711 -1.1726
 1755TIP3   OH2 5197   1.787   1.156   3.079 -0.3752  0.2452 -0.5765
 1755TIP3    H1 5198   1.769   1.211   3.156 -1.6893 -1.6324  0.5029
 1755TIP3    H2 5199   1.786   1.218   3.005 -2.2586  1.6305  0.5515
 1756TIP3   OH2 5200   4.265   3.230   0.014  0.0967 -0.3977 -0.4275
 1756TIP3    H1 5201   4.300   3.285   0.085  0.2576 -1.4105  0.3015
 1756TIP3    H2 5202   4.321   3.152   0.016 -0.9890 -1.1878 -0.5337
 1757TIP3   OH2 5203   2.822   0.182   3.405 -0.6605  0.4299  0.3001
 1757TIP3    H1 5204   2.780   0.232   3.335  0.8678  0.6513 -0.4715
 1757TIP3    H2 5205   2.872   0.114   3.360  0.2705  0.5234  1.1699
 1758TIP3   OH2 5206   8.302   7.502   4.669 -0.1449  0.0167  0.0821
 1758TIP3    H1 5207   8.271   7.517   4.758  1.8451 -0.5154  0.8899
 1758TIP3    H2 5208   8.254   7.424   4.640 -1.2133  0.5170  0.4702
 1759TIP3   OH2 5209   0.804   0.161   4.195 -0.5140 -0.0146  0.1470
 1759TIP3    H1 5210   0.722   0.122   4.224 -1.4929  1.8266 -0.0539
 1759TIP3    H2 5211   0.779   0.219   4.123  0.5875  2.5184  1.7155
 1760TIP3   OH2 5212   5.723   6.811   2.684 -0.2470  0.6700 -0.0990
 1760TIP3    H1 5213   5.682   6.728   2.707 -0.3226  0.7262 -0.0323
 1760TIP3    H2 5214   5.735   6.806   2.589  0.7058  0.1439  0.0414
 1761TIP3   OH2 5215   7.967   7.935   4.408 -0.5802 -0.0174  0.3913
 1761TIP3    H1 5216   7.902   7.940   4.477 -1.5368 -0.6165 -0.4494
 1761TIP3    H2 5217   7.920   7.899   4.333  0.5411  0.2216 -0.4473
 1762TIP3   OH2 5218   7.002   6.262   4.059  0.1938 -0.0512  0.0889
 1762TIP3    H1 5219   7.061   6.311   4.001 -0.9560  1.1009 -0.1325
 1762TIP3    H2 5220   6.921   6.256   4.009  0.4944 -2.7871 -0.1705
 1763TIP3   OH2 5221   2.424   3.392   0.330 -0.8374  0.1118  0.2916
 1763TIP3    H1 5222   2.337   3.353   0.318 -0.1960 -0.9429 -0.9199
 1763TIP3    H2 5223   2.410   3.458   0.398 -2.3055 -0.9838  1.0911
 1764TIP3   OH2 5224   1.772   1.312   6.413  0.4684  0.2153 -0.3339
 1764TIP3    H1 5225   1.779   1.230   6.463  1.0246 -0.5012 -1.5785
 1764TIP3    H2 5226   1.859   1.325   6.376  0.4122  1.4314 -0.0764
 1765TIP3   OH2 5227   8.241   6.086   4.175  0.0738  0.0284 -0.1946
 1765TIP3    H1 5228   8.294   6.095   4.095 -0.8906 -0.0534 -0.8545
 1765TIP3    H2 5229   8.192   6.168   4.181  1.3029  0.6846  1.1861
 1766TIP3   OH2 5230   0.027   2.088   2.465 -0.6461  0.8304  0.4049
 1766TIP3    H1 5231  -0.012   2.030   2.531  0.2407  0.1827  0.3592
 1766TIP3    H2 5232   0.094   2.137   2.513  0.0054  0.3545 -0.0080
 1767TIP3   OH2 5233   0.550   0.066   4.273 -0.3649  0.3514  0.0558
 1767TIP3    H1 5234   0.485   0.006   4.310 -0.7688  1.1530  0.6530
 1767TIP3    H2 5235   0.560   0.135   4.338  0.0791  0.9536 -0.6348
 1768TIP3   OH2 5236   7.343   6.443   3.703 -0.4885 -0.0872 -0.3241
 1768TIP3    H1 5237   7.314   6.462   3.613 -0.7777 -1.1301 -0.4584
 1768TIP3    H2 5238   7.262   6.441   3.754 -0.2807  0.9906  0.0567
 1769TIP3   OH2 5239   0.160   2.090   2.221  0.1922 -0.1660  0.1844
 1769TIP3    H1 5240   0.099   2.059   2.288  0.7185 -1.0271  0.2684
 1769TIP3    H2 5241   0.105   2.138   2.159 -0.6202 -1.2576  0.0512
 1770TIP3   OH2 5242   8.272   0.573   5.954 -0.1770 -0.3297  0.5674
 1770TIP3    H1 5243   8.191   0.624   5.955 -0.0153 -0.0794  1.2954
 1770TIP3    H2 5244   8.255   0.501   6.014  0.1348 -0.2849  0.7083
 1771TIP3   OH2 5245   5.556   7.992   3.456  0.0499 -0.1024  0.1528
 1771TIP3    H1 5246   5.504   7.939   3.395 -2.5021  0.7327  1.4895
 1771TIP3    H2 5247   5.514   8.078   3.454  2.8012  1.2691 -0.3579
 1772TIP3   OH2 5248   8.162   1.161   5.629  0.1887  0.0270 -0.0689
 1772TIP3    H1 5249   8.249   1.174   5.590 -1.2534  3.1238 -2.4224
 1772TIP3    H2 5250   8.104   1.146   5.554 -1.3191 -2.3254  1.4962
 1773TIP3   OH2 5251   6.780   5.959   5.904 -0.1934 -0.3131 -0.4490
 1773TIP3    H1 5252   6.867   5.920   5.894 -1.0242 -2.1314 -0.7354
 1773TIP3    H2 5253   6.782   6.037   5.847  1.2483 -0.3191 -0.4177
 1774TIP3   OH2 5254   1.337   1.392   5.220  0.2182 -0.7372 -0.0044
 1774TIP3    H1 5255   1.308   1.307   5.187  1.2057 -1.1868  0.2821
 1774TIP3    H2 5256   1.421   1.407   5.178 -0.2532  0.4247 -0.5760
 1775TIP3   OH2 5257   2.515   2.833   4.342 -0.1339  0.4467  0.1973
 1775TIP3    H1 5258   2.534   2.846   4.249  0.0631  2.6833  0.5271
 1775TIP3    H2 5259   2.509   2.922   4.378 -2.7857 -0.3215  1.8011
 1776TIP3   OH2 5260   8.363   7.756   3.675  0.2250 -0.1540 -0.0089
 1776TIP3    H1 5261   8.268   7.761   3.677  0.1837 -0.4906 -1.1744
 1776TIP3    H2 5262   8.390   7.829   3.619  0.7372  0.7731  1.3841
 1777TIP3   OH2 5263   3.694   0.412   0.893  0.4689 -0.3174 -0.5541
 1777TIP3    H1 5264   3.608   0.441   0.923  0.2182  0.1858 -1.7165
 1777TIP3    H2 5265   3.681   0.321   0.867  0.2462 -0.2074 -0.8379
 1778TIP3   OH2 5266   8.121   4.580   2.687  0.4604  0.4515 -0.5830
 1778TIP3    H1 5267   8.092   4.601   2.776 -1.9234 -1.4152 -0.8516
 1778TIP3    H2 5268   8.156   4.662   2.653  0.5329  1.4313  1.7367
 1779TIP3   OH2 5269   8.147   6.193   2.245  0.5594  0.1995  0.0985
 1779TIP3    H1 5270   8.096   6.272   2.263  2.6103  1.4024  0.8029
 1779TIP3    H2 5271   8.082   6.128   2.218 -1.3479  1.6329  1.1103
 1780TIP3   OH2 5272   0.129   8.012   4.314 -0.3806  0.1455 -0.1247
 1780TIP3    H1 5273   0.034   8.014   4.307 -0.3689 -1.8535 -1.1599
 1780TIP3    H2 5274   0.151   7.920   4.327  1.4593  0.4901 -0.5572
 1781TIP3   OH2 5275   7.188   7.990   4.421 -0.5310 -0.0300 -0.3530
 1781TIP3    H1 5276   7.269   7.975   4.372 -0.5826 -0.8823 -0.1858
 1781TIP3    H2 5277   7.213   8.045   4.495  0.1883 -1.5457  0.5540
 1782TIP3   OH2 5278   1.249   1.168   5.073 -0.0157 -0.0072 -0.0645
 1782TIP3    H1 5279   1.278   1.138   4.986  1.1511  0.8414  0.0121
 1782TIP3    H2 5280   1.154   1.176   5.065 -0.1866 -2.2529 -0.5314
 1783TIP3   OH2 5281   5.707   7.260   6.160  0.0979  0.1000 -0.2460
 1783TIP3    H1 5282   5.768   7.188   6.179 -1.0467 -0.6850  0.4761
 1783TIP3    H2 5283   5.674   7.287   6.246 -0.2835  0.7772 -0.6032
 1784TIP3   OH2 5284   5.451   6.659   3.731 -0.5378  0.6779  0.4178
 1784TIP3    H1 5285   5.508   6.721   3.686  0.6579  0.3033  1.3989
 1784TIP3    H2 5286   5.510   6.593   3.767 -1.6677 -0.2166  0.6823
 1785TIP3   OH2 5287   5.669   7.816   1.284 -0.1194 -0.0376 -0.1031
 1785TIP3    H1 5288   5.645   7.785   1.372 -0.8861  1.0253  0.0662
 1785TIP3    H2 5289   5.605   7.775   1.226  0.0282 -0.2803 -0.0920
 1786TIP3   OH2 5290   5.610   7.790   6.752  0.2151 -0.0233  0.4356
 1786TIP3    H1 5291   5.647   7.836   6.827 -0.8887  0.6218  0.6015
 1786TIP3    H2 5292   5.624   7.697   6.771 -0.6538  0.1005  1.7734
 1787TIP3   OH2 5293   2.033   0.907   4.612  0.3866  0.5490 -0.1147
 1787TIP3    H1 5294   2.111   0.960   4.595  0.7315  0.4110  1.0448
 1787TIP3    H2 5295   1.983   0.958   4.676 -0.6156  0.7674 -1.0488
 1788TIP3   OH2 5296   1.370   1.713   5.100 -0.4882  0.1888  0.3475
 1788TIP3    H1 5297   1.305   1.728   5.169  0.3103  2.6623  0.5983
 1788TIP3    H2 5298   1.353   1.782   5.036  1.6644  0.6565  0.2689
 1789TIP3   OH2 5299   7.800   1.899   4.667  0.0742  0.0716 -0.2319
 1789TIP3    H1 5300   7.748   1.892   4.587 -0.6940  1.2581  0.1429
 1789TIP3    H2 5301   7.796   1.812   4.706 -0.1722 -0.3114 -1.0901
 1790TIP3   OH2 5302   1.480   0.845   2.928  0.3219  0.1066 -0.1016
 1790TIP3    H1 5303   1.497   0.847   3.022 -0.4625 -0.1511  0.0519
 1790TIP3    H2 5304   1.386   0.863   2.921  0.1940 -0.8168 -0.7775
 1791TIP3   OH2 5305   7.608   1.406   6.454 -0.1116 -0.2423  0.0253
 1791TIP3    H1 5306   7.520   1.422   6.420 -0.0103 -1.2801 -0.7331
 1791TIP3    H2 5307   7.613   1.311   6.464  0.9742 -0.2005 -0.0749
 1792TIP3   OH2 5308   1.933   6.545   2.668  0.1756 -0.7056  0.1276
 1792TIP3    H1 5309   1.929   6.450   2.653  0.7159 -0.8507  0.8157
 1792TIP3    H2 5310   1.988   6.553   2.746 -0.5087  0.1296  0.5302
 1793TIP3   OH2 5311   7.879   7.798   3.606  0.4163 -0.0599 -0.7330
 1793TIP3    H1 5312   7.799   7.811   3.657 -0.2993 -1.2311 -1.5295
 1793TIP3    H2 5313   7.853   7.739   3.535  2.3146 -1.5930 -0.2016
 1794TIP3   OH2 5314   0.880   7.899   3.949 -0.2907  0.1729  0.2921
 1794TIP3    H1 5315   0.829   7.980   3.951  1.5785  1.3624  1.6889
 1794TIP3    H2 5316   0.818   7.832   3.920 -1.6789  2.2265 -1.7128
 1795TIP3   OH2 5317   5.407   0.277   1.099  0.4386  0.2019 -0.2557
 1795TIP3    H1 5318   5.440   0.192   1.068  1.1107  0.7032 -0.9213
 1795TIP3    H2 5319   5.443   0.341   1.038 -0.2027  0.9602  0.1455
 1796TIP3   OH2 5320   5.108   7.911   3.826  0.6779  0.5931 -0.1483
 1796TIP3    H1 5321   5.173   7.954   3.770 -0.0807 -0.3160 -1.7555
 1796TIP3    H2 5322   5.030   7.966   3.819 -0.0012 -0.5205 -1.4702
 1797TIP3   OH2 5323   7.707   6.436   3.506 -0.5299  0.9476  0.4183
 1797TIP3    H1 5324   7.653   6.473   3.437 -0.3145  2.0766  0.8518
 1797TIP3    H2 5325   7.749   6.511   3.548 -0.3446  0.2560  1.5201
 1798TIP3   OH2 5326   0.901   1.441   3.655 -0.3935 -0.0351  1.0117
 1798TIP3    H1 5327   0.929   1.403   3.571 -0.7224 -0.3026  1.0204
 1798TIP3    H2 5328   0.912   1.535   3.643 -0.6258 -0.0566  0.5912
 1799TIP3   OH2 5329   1.710   7.889   3.017 -0.1843  0.2890 -0.2323
 1799TIP3    H1 5330   1.786   7.914   2.964 -0.3637  1.5286  0.0705
 1799TIP3    H2 5331   1.688   7.969   3.066  0.3231 -0.9619  2.1397
 1800TIP3   OH2 5332   8.060   7.237   3.331 -0.7888  0.2013  0.1210
 1800TIP3    H1 5333   8.037   7.152   3.295  0.4877 -0.2809  0.4292
 1800TIP3    H2 5334   8.034   7.299   3.263  2.6071 -0.7718 -2.2346
 1801TIP3   OH2 5335   8.438   6.697   3.619 -0.3673 -0.0872  0.2766
 1801TIP3    H1 5336   8.484   6.617   3.644  0.4849  0.5414  0.7694
 1801TIP3    H2 5337   8.393   6.725   3.699  0.6494  0.7882  0.5560
 1802TIP3   OH2 5338   3.284   6.076   2.744 -0.3293 -0.4215  0.9303
 1802TIP3    H1 5339   3.299   6.160   2.787 -0.5538  0.6074 -0.9611
 1802TIP3    H2 5340   3.251   6.099   2.657 -0.5490 -2.4719  0.4516
 1803TIP3   OH2 5341   1.540   5.176   2.649 -0.2725 -0.3962 -0.1994
 1803TIP3    H1 5342   1.524   5.257   2.600  0.2858 -0.3720 -0.3542
 1803TIP3    H2 5343   1.601   5.202   2.718  0.5593 -0.8434 -0.7501
 1804TIP3   OH2 5344   1.308   7.102   3.536 -0.0344  0.4661  0.1829
 1804TIP3    H1 5345   1.220   7.127   3.509  0.2730  0.6471 -0.6500
 1804TIP3    H2 5346   1.328   7.024   3.484  1.5192  2.2437 -1.9620
 1805TIP3   OH2 5347   4.978   0.257   1.406 -0.1323 -0.7052 -0.6511
 1805TIP3    H1 5348   5.052   0.287   1.459 -2.1453  2.8317  0.3782
 1805TIP3    H2 5349   4.907   0.246   1.470 -1.5755 -0.0120 -2.1062
 1806TIP3   OH2 5350   7.689   7.715   3.086  0.3858 -0.2247 -0.1252
 1806TIP3    H1 5351   7.612   7.754   3.046  1.5019  2.3830  0.1559
 1806TIP3    H2 5352   7.756   7.718   3.017  1.1042  0.4059  0.5823
 1807TIP3   OH2 5353   2.359   0.727   2.993 -0.1020  0.2589  0.4370
 1807TIP3    H1 5354   2.409   0.711   3.073  1.6693  0.7549 -0.5436
 1807TIP3    H2 5355   2.299   0.798   3.015 -0.0135  0.0167  1.4658
 1808TIP3   OH2 5356   7.910   6.228   3.079  0.9337  0.3659  0.1924
 1808TIP3    H1 5357   7.870   6.276   3.006  0.5467 -0.0365  0.1429
 1808TIP3    H2 5358   7.842   6.226   3.146  1.5757  1.4778  0.9013
 1809TIP3   OH2 5359   7.126   7.868   4.846  0.0603 -0.0636  0.5056
 1809TIP3    H1 5360   7.081   7.946   4.812 -1.1173 -0.7763  0.3687
 1809TIP3    H2 5361   7.124   7.879   4.941 -0.8172 -0.3069  0.5186
 1810TIP3   OH2 5362   0.498   7.889   4.114 -0.3495 -0.2903 -0.2712
 1810TIP3    H1 5363   0.527   7.944   4.041  1.0166  0.3872  0.7725
 1810TIP3    H2 5364   0.543   7.924   4.190 -0.9854 -1.6380  0.7384
 1811TIP3   OH2 5365   8.208   7.253   4.561 -0.1818 -1.2316 -0.0735
 1811TIP3    H1 5366   8.196   7.164   4.530 -1.1948 -0.6582 -1.4042
 1811TIP3    H2 5367   8.168   7.308   4.493  0.7060  0.2473  0.5607
 1812TIP3   OH2 5368   4.945   1.730   3.772 -0.3296  0.2912  0.3098
 1812TIP3    H1 5369   4.988   1.645   3.781  2.0557  1.6836  2.6885
 1812TIP3    H2 5370   4.939   1.764   3.861 -1.8822  2.3165 -0.5176
 1813TIP3   OH2 5371   4.130   0.250   2.554 -0.0376  0.1066 -0.0662
 1813TIP3    H1 5372   4.215   0.292   2.568 -1.0825  2.3047 -0.2001
 1813TIP3    H2 5373   4.068   0.322   2.544 -1.8914 -1.4640 -0.2767
 1814TIP3   OH2 5374   7.782   5.164   0.783 -0.0234  0.8041  0.0233
 1814TIP3    H1 5375   7.858   5.141   0.837 -1.2601 -1.5781  0.8139
 1814TIP3    H2 5376   7.808   5.139   0.694 -0.3801 -1.3236  0.4965
 1815TIP3   OH2 5377   8.137   6.602   2.064 -0.4883 -0.2308  0.3307
 1815TIP3    H1 5378   8.084   6.646   1.997  0.6674  3.0870  1.5021
 1815TIP3    H2 5379   8.079   6.598   2.140  0.2844  1.7696  1.0534
 1816TIP3   OH2 5380   0.764   6.471   2.881 -1.0149 -0.1045  0.3541
 1816TIP3    H1 5381   0.836   6.488   2.821 -1.0089  0.0560  0.4061
 1816TIP3    H2 5382   0.733   6.558   2.906 -1.1240 -0.1727  0.4533
 1817TIP3   OH2 5383   7.951   7.121   4.293  0.5220  0.2862 -0.3894
 1817TIP3    H1 5384   7.916   7.071   4.219  0.0850  0.7558 -0.5025
 1817TIP3    H2 5385   7.879   7.124   4.356  0.8091  0.1045 -0.0494
 1818TIP3   OH2 5386   0.688   7.678   3.989  0.0824  0.3813 -0.0662
 1818TIP3    H1 5387   0.719   7.678   4.079 -0.5557 -0.3581  0.1669
 1818TIP3    H2 5388   0.596   7.705   3.995  0.5552  2.1877 -0.6997
 1819TIP3   OH2 5389   1.642   1.008   4.218  0.2022  0.2936 -1.1023
 1819TIP3    H1 5390   1.568   0.966   4.260  0.5687 -0.0368 -0.7860
 1819TIP3    H2 5391   1.717   0.989   4.275  0.2727  1.8674 -0.6320
 1820TIP3   OH2 5392   7.578   7.774   2.115  0.2538  0.3115 -0.5031
 1820TIP3    H1 5393   7.627   7.831   2.055  0.8120  0.3785  0.0152
 1820TIP3    H2 5394   7.588   7.686   2.078  1.5266  0.1988  0.0943
 1821TIP3   OH2 5395   7.293   7.224   3.751 -0.4979  0.0522  1.1330
 1821TIP3    H1 5396   7.344   7.226   3.831  1.6708  2.3669 -0.2036
 1821TIP3    H2 5397   7.355   7.197   3.683 -1.8550 -0.2575 -0.0170
 1822TIP3   OH2 5398   6.648   7.461   4.033  0.6452 -0.6457  0.3493
 1822TIP3    H1 5399   6.656   7.458   3.937 -1.2357  0.5189  0.1042
 1822TIP3    H2 5400   6.583   7.395   4.054  1.5531 -1.3689  0.9049
 1823TIP3   OH2 5401   7.985   4.871   0.718  0.3362  0.4912 -0.3264
 1823TIP3    H1 5402   7.947   4.812   0.653 -0.6631  0.4898  0.2410
 1823TIP3    H2 5403   7.946   4.843   0.801 -0.9911  2.6131 -0.1963
 1824TIP3   OH2 5404   4.838   0.918   2.284  0.4072  0.3618 -0.2083
 1824TIP3    H1 5405   4.842   1.009   2.255 -2.2006  0.8477  0.7910
 1824TIP3    H2 5406   4.815   0.869   2.205 -0.2333  0.8327 -0.3181
 1825TIP3   OH2 5407   0.908   0.827   4.286  0.2160  0.1413 -0.1735
 1825TIP3    H1 5408   0.860   0.807   4.366  1.0373  0.0452  0.3041
 1825TIP3    H2 5409   1.000   0.829   4.314  0.6854 -1.8590 -1.5013
 1826TIP3   OH2 5410   1.667   1.041   5.177  0.2186  0.0220  0.3538
 1826TIP3    H1 5411   1.685   1.105   5.247 -0.1076  0.2579  0.2285
 1826TIP3    H2 5412   1.587   0.997   5.207  0.4424 -0.3216  0.4370
 1827TIP3   OH2 5413   1.150   2.151   3.776 -0.1607 -0.3414 -0.1918
 1827TIP3    H1 5414   1.139   2.069   3.825 -1.2937  1.1269  2.0843
 1827TIP3    H2 5415   1.210   2.203   3.829  2.6556 -0.6659 -2.9303
 1828TIP3   OH2 5416   0.074   7.664   3.822  0.3832  0.1736  0.3241
 1828TIP3    H1 5417   0.013   7.711   3.765  1.5309  0.2447 -0.8650
 1828TIP3    H2 5418   0.150   7.722   3.829 -0.2106  0.6982  2.9066
 1829TIP3   OH2 5419   8.071   6.167   4.525  0.2318  0.9182  0.9115
 1829TIP3    H1 5420   8.093   6.250   4.569 -1.2152  1.3677  0.8327
 1829TIP3    H2 5421   8.062   6.104   4.597  2.3286  0.5824  0.8938
 1830TIP3   OH2 5422   2.776   6.037   4.675 -0.0602  0.5706  0.2035
 1830TIP3    H1 5423   2.713   6.110   4.672  0.6357  1.1346 -0.8724
 1830TIP3    H2 5424   2.727   5.965   4.715 -1.3474  1.0493 -0.4723
 1831TIP3   OH2 5425   8.000   6.748   1.868  0.1283 -0.0253 -0.2651
 1831TIP3    H1 5426   7.972   6.817   1.809  0.3574  0.0426 -0.2970
 1831TIP3    H2 5427   7.958   6.769   1.951 -1.4056 -0.9548 -0.7845
 1832TIP3   OH2 5428   2.497   2.121   3.052 -0.7097  0.0362 -0.1595
 1832TIP3    H1 5429   2.569   2.092   3.107 -1.2707 -0.9521  0.0591
 1832TIP3    H2 5430   2.502   2.217   3.055  0.4700 -0.0231 -0.0037
 1833TIP3   OH2 5431   5.517   7.599   3.697 -0.1825  0.0737 -0.9039
 1833TIP3    H1 5432   5.432   7.634   3.668  0.3116  1.0539 -1.2100
 1833TIP3    H2 5433   5.533   7.525   3.639 -0.0315  0.9466 -2.0008
 1834TIP3   OH2 5434   2.530   1.032   2.539  0.0644  0.2341 -0.3401
 1834TIP3    H1 5435   2.458   1.056   2.482 -1.6068  0.3096  1.7465
 1834TIP3    H2 5436   2.498   1.051   2.628  2.2302 -0.7560  0.6873
 1835TIP3   OH2 5437   2.843   1.091   4.863 -0.5917 -0.0152  0.7026
 1835TIP3    H1 5438   2.756   1.070   4.827  0.3309 -2.0774 -0.3980
 1835TIP3    H2 5439   2.892   1.124   4.788  0.8324 -2.7729  0.3691
 1836TIP3   OH2 5440   8.209   6.623   2.474 -0.2231  0.3718 -0.0398
 1836TIP3    H1 5441   8.197   6.681   2.549  3.2046  1.1986 -0.0683
 1836TIP3    H2 5442   8.214   6.535   2.512 -1.5289  0.4437  0.3529
 1837TIP3   OH2 5443   8.006   5.537   1.765 -0.1726  0.2245 -0.3017
 1837TIP3    H1 5444   8.089   5.536   1.811  0.2420  1.7637 -0.9871
 1837TIP3    H2 5445   8.007   5.618   1.714 -3.4046  1.9036  2.0904
 1838TIP3   OH2 5446   1.440   7.607   4.931 -0.6016  0.2320  0.3820
 1838TIP3    H1 5447   1.428   7.701   4.943  2.2739  0.5115  1.5199
 1838TIP3    H2 5448   1.473   7.576   5.015  0.9104 -1.3205 -0.7314
 1839TIP3   OH2 5449   7.125   6.814   0.452  0.0629  0.6834 -0.1440
 1839TIP3    H1 5450   7.051   6.752   0.452  1.6995 -1.4221  2.6569
 1839TIP3    H2 5451   7.175   6.791   0.374 -0.3989 -0.1828 -0.1971
 1840TIP3   OH2 5452   1.256   7.308   4.427 -0.1692  0.5075 -0.1545
 1840TIP3    H1 5453   1.227   7.263   4.349 -1.1051 -0.6534  0.8408
 1840TIP3    H2 5454   1.175   7.332   4.473  0.3570  1.2649  0.4041
 1841TIP3   OH2 5455   6.502   6.998   4.020 -0.0132  0.6436 -0.1789
 1841TIP3    H1 5456   6.595   7.021   4.023 -0.5285  2.7120  0.9537
 1841TIP3    H2 5457   6.488   6.947   4.099  0.2297  0.0403 -0.5235
 1842TIP3   OH2 5458   0.872   5.639   2.710  0.6483  0.0209 -0.2178
 1842TIP3    H1 5459   0.886   5.580   2.785 -1.2051 -1.1875 -0.8037
 1842TIP3    H2 5460   0.920   5.718   2.734  2.6890 -1.4769  0.8666
 1843TIP3   OH2 5461   2.901   0.184   3.840  0.6475 -0.0561  0.4580
 1843TIP3    H1 5462   2.823   0.188   3.896 -0.5066 -1.0272 -1.0137
 1843TIP3    H2 5463   2.967   0.140   3.892  0.0097  0.2407  1.5219
 1844TIP3   OH2 5464   0.394   7.624   3.433  0.2197  0.5065  0.2717
 1844TIP3    H1 5465   0.432   7.597   3.517  0.3808 -1.5779 -0.4327
 1844TIP3    H2 5466   0.300   7.631   3.450  0.0665 -1.4022  0.2640
 1845TIP3   OH2 5467   0.454   0.409   4.145  0.6511 -0.3247 -0.2709
 1845TIP3    H1 5468   0.478   0.501   4.131  1.6639 -0.5502 -0.0299
 1845TIP3    H2 5469   0.482   0.391   4.235 -0.9882 -0.4174  0.2405
 1846TIP3   OH2 5470   1.004   7.159   4.785  0.0943 -0.4142  0.0074
 1846TIP3    H1 5471   1.052   7.089   4.741 -1.3354 -0.8195 -0.9541
 1846TIP3    H2 5472   1.012   7.138   4.878  2.0991 -0.2439 -0.1115
 1847TIP3   OH2 5473   8.362   7.464   4.232  0.2302  0.2387 -0.3670
 1847TIP3    H1 5474   8.368   7.406   4.156 -0.0931  1.7256 -1.5591
 1847TIP3    H2 5475   8.414   7.540   4.207 -0.2511  0.9295  0.7355
 1848TIP3   OH2 5476   0.373   1.332   5.148 -0.0306  0.3774 -0.0200
 1848TIP3    H1 5477   0.385   1.422   5.119 -1.3481  1.0561  1.3959
 1848TIP3    H2 5478   0.329   1.340   5.233  0.0258 -1.5949  0.2350
 1849TIP3   OH2 5479   6.109   6.600   4.648  0.3550  0.2303 -0.4630
 1849TIP3    H1 5480   6.195   6.635   4.671 -0.8659  0.7192  3.7571
 1849TIP3    H2 5481   6.117   6.506   4.659  0.9830  0.0015 -2.5632
 1850TIP3   OH2 5482   1.879   6.719   6.146  0.0341 -0.4273  0.5000
 1850TIP3    H1 5483   1.829   6.768   6.211 -0.3137 -0.4712  0.2708
 1850TIP3    H2 5484   1.828   6.729   6.065  0.3032 -0.6233  0.3065
 1851TIP3   OH2 5485   1.252   7.521   3.667  0.8028 -0.3140  0.0698
 1851TIP3    H1 5486   1.171   7.572   3.662 -0.0635 -1.5954  0.9076
 1851TIP3    H2 5487   1.316   7.573   3.617 -0.4341  0.8694 -0.3078
 1852TIP3   OH2 5488   7.531   5.832   3.428  0.1693  0.3223  0.1014
 1852TIP3    H1 5489   7.462   5.823   3.362 -0.0156 -0.5963  0.4246
 1852TIP3    H2 5490   7.484   5.858   3.508 -0.0195 -2.0917  0.7934
 1853TIP3   OH2 5491   3.669   0.183   3.061 -0.2811  0.0235  0.3733
 1853TIP3    H1 5492   3.576   0.199   3.052 -0.2276  0.1808  0.0631
 1853TIP3    H2 5493   3.709   0.237   2.993 -0.1501 -1.9442 -1.1831
 1854TIP3   OH2 5494   0.799   6.358   3.231 -0.0467  0.2243  0.7764
 1854TIP3    H1 5495   0.780   6.342   3.138 -0.5949  0.7950  0.7905
 1854TIP3    H2 5496   0.757   6.442   3.250  0.6465  0.4443  1.3679
 1855TIP3   OH2 5497   6.841   6.592   4.399 -0.4755 -0.3176  0.0421
 1855TIP3    H1 5498   6.896   6.514   4.399  0.8396  0.6041 -0.2686
 1855TIP3    H2 5499   6.850   6.628   4.311 -0.8321  0.3645  0.2833
 1856TIP3   OH2 5500   0.581   6.920   3.374  0.6462  0.5137 -0.4368
 1856TIP3    H1 5501   0.588   6.834   3.417  1.0636 -0.4698 -2.4375
 1856TIP3    H2 5502   0.667   6.960   3.388  0.6131  0.4167  0.0773
 1857TIP3   OH2 5503   3.344   0.215   3.090 -0.0047  0.2766 -0.5467
 1857TIP3    H1 5504   3.276   0.251   3.033 -1.8195 -1.5000  0.4279
 1857TIP3    H2 5505   3.357   0.282   3.157 -1.4769  0.2648 -0.2258
 1858TIP3   OH2 5506   8.123   4.696   1.844 -0.1245  0.0310 -0.2836
 1858TIP3    H1 5507   8.055   4.713   1.908 -1.0274 -0.5351 -1.0774
 1858TIP3    H2 5508   8.078   4.652   1.771  0.8956  0.5408 -1.2461
 1859TIP3   OH2 5509   1.498   6.322   3.916 -0.7824 -0.4075  0.3605
 1859TIP3    H1 5510   1.565   6.256   3.898  0.9513  1.0470  1.2756
 1859TIP3    H2 5511   1.525   6.362   3.999 -0.6838  2.7683 -1.1029
 1860TIP3   OH2 5512   0.371   6.523   4.011 -0.0389 -0.2294 -0.0005
 1860TIP3    H1 5513   0.325   6.500   4.092 -2.3039 -0.2486 -1.2550
 1860TIP3    H2 5514   0.448   6.466   4.009  0.8895  0.8482  2.8817
 1861TIP3   OH2 5515   0.141   7.433   3.194  0.0996 -0.0771 -0.0136
 1861TIP3    H1 5516   0.136   7.403   3.285 -1.4310  1.4880  0.4379
 1861TIP3    H2 5517   0.055   7.411   3.157  0.2235  0.5549 -0.6773
 1862TIP3   OH2 5518   2.717   1.324   2.635 -0.2865  0.0716 -0.0881
 1862TIP3    H1 5519   2.633   1.320   2.682 -0.0718 -1.1358  0.2185
 1862TIP3    H2 5520   2.782   1.340   2.703 -0.3720  2.1065 -0.4653
 1863TIP3   OH2 5521   0.516   7.717   4.717  0.0841  0.5155 -0.3976
 1863TIP3    H1 5522   0.523   7.679   4.805 -2.1171  1.0763  0.0356
 1863TIP3    H2 5523   0.427   7.696   4.688  0.3486  1.4731 -1.9775
 1864TIP3   OH2 5524   6.289   5.688   0.091  0.1585 -0.3419 -0.3788
 1864TIP3    H1 5525   6.347   5.724   0.024  2.0727 -2.0722  0.3055
 1864TIP3    H2 5526   6.297   5.593   0.081  1.1338 -0.6691  2.8025
 1865TIP3   OH2 5527   0.891   7.562   3.433 -0.9357  0.3649 -0.0406
 1865TIP3    H1 5528   0.973   7.574   3.385 -0.0072 -0.3941  1.3165
 1865TIP3    H2 5529   0.839   7.640   3.412  0.0827  0.8086 -0.9864
 1866TIP3   OH2 5530   0.790   0.882   2.266  0.0058 -0.1341 -0.3572
 1866TIP3    H1 5531   0.722   0.868   2.332 -1.4511  2.6732 -1.1524
 1866TIP3    H2 5532   0.786   0.805   2.210 -1.6917 -0.5808  0.3539
 1867TIP3   OH2 5533   3.323   0.037   3.494  0.0715  0.0053  0.0800
 1867TIP3    H1 5534   3.290  -0.040   3.540 -0.8698  0.1605 -0.3277
 1867TIP3    H2 5535   3.414   0.046   3.524 -0.5247  0.1179  1.9241
 1868TIP3   OH2 5536   7.978   7.981   3.936  0.1442 -0.0866  0.6087
 1868TIP3    H1 5537   8.038   8.011   3.869 -0.7182 -1.2550 -0.7232
 1868TIP3    H2 5538   7.891   7.999   3.900 -0.3295  1.1414  2.2953
 1869TIP3   OH2 5539   0.491   7.541   4.186  0.1427 -0.4064 -0.4562
 1869TIP3    H1 5540   0.462   7.492   4.110  1.1823  0.1266 -1.2122
 1869TIP3    H2 5541   0.411   7.557   4.237 -0.5885 -0.5745 -1.5467
 1870TIP3   OH2 5542   2.103   0.346   4.228 -0.1509 -0.0766 -0.1132
 1870TIP3    H1 5543   2.182   0.318   4.274  0.3277  0.8561 -0.3512
 1870TIP3    H2 5544   2.096   0.440   4.247 -1.8503 -0.4029  0.8580
 1871TIP3   OH2 5545   1.419   0.261   3.590  0.8073  0.4619  0.1262
 1871TIP3    H1 5546   1.390   0.175   3.622  1.7032 -0.0265 -0.3766
 1871TIP3    H2 5547   1.377   0.270   3.505  0.3948  0.7024  0.3507
 1872TIP3   OH2 5548   7.999   7.320   2.494 -0.0089 -0.1162  0.9193
 1872TIP3    H1 5549   8.056   7.374   2.439 -0.0963  0.1743  1.1075
 1872TIP3    H2 5550   7.981   7.242   2.442 -1.1561  0.7318  0.0056
 1873TIP3   OH2 5551   2.383   0.822   4.216 -0.1248 -0.4286  0.0520
 1873TIP3    H1 5552   2.317   0.757   4.240 -1.2005  1.5636  2.6927
 1873TIP3    H2 5553   2.452   0.813   4.281 -0.1845  0.8976  0.3267
 1874TIP3   OH2 5554   8.412   2.487   3.498  0.5419  0.4094 -0.3827
 1874TIP3    H1 5555   8.327   2.443   3.490  0.1385  0.7987  1.5971
 1874TIP3    H2 5556   8.470   2.419   3.532 -0.1869  1.4469  3.1129
 1875TIP3   OH2 5557   1.728   1.504   4.540  0.0826 -0.3023 -0.4670
 1875TIP3    H1 5558   1.710   1.588   4.583  1.2713 -0.9350  1.3436
 1875TIP3    H2 5559   1.665   1.499   4.468 -1.9853  0.8365  1.2085
 1876TIP3   OH2 5560   0.684   7.296   2.180  0.0692  0.3869 -0.2931
 1876TIP3    H1 5561   0.641   7.210   2.178  0.7717  0.0229 -0.0659
 1876TIP3    H2 5562   0.641   7.346   2.110  1.5301 -1.0691 -2.3199
 1877TIP3   OH2 5563   7.527   6.339   2.314 -0.3714  0.0897  0.2646
 1877TIP3    H1 5564   7.572   6.402   2.259 -0.1794 -0.2614  0.0175
 1877TIP3    H2 5565   7.583   6.261   2.312  0.5854  0.6761  2.4186
 1878TIP3   OH2 5566   4.072   0.067   2.302  0.0051 -0.0273 -0.0717
 1878TIP3    H1 5567   4.021   0.135   2.257 -2.1240 -1.0103  0.7799
 1878TIP3    H2 5568   4.024   0.052   2.384  2.2704 -0.2610  1.2573
 1879TIP3   OH2 5569   5.047   1.107   2.488 -0.5302 -0.3693 -0.0208
 1879TIP3    H1 5570   5.100   1.039   2.529 -0.1823  0.0382  0.2032
 1879TIP3    H2 5571   4.971   1.116   2.546  0.7306  1.3359  1.4313
 1880TIP3   OH2 5572   3.503   0.534   3.007  0.0735  0.3725 -0.5162
 1880TIP3    H1 5573   3.597   0.540   2.986  0.0144 -0.6691 -1.1336
 1880TIP3    H2 5574   3.501   0.522   3.102  0.5023  1.6163 -0.3335
 1881TIP3   OH2 5575   7.158   7.989   3.967  0.4401  0.0226  0.4137
 1881TIP3    H1 5576   7.228   7.931   3.997 -0.1018 -0.1347  1.4041
 1881TIP3    H2 5577   7.105   8.005   4.045  0.0240  1.0713 -0.0733
 1882TIP3   OH2 5578   1.323   6.364   5.421 -0.0723 -0.4328  0.4550
 1882TIP3    H1 5579   1.358   6.446   5.457  0.4248  0.1363 -1.3019
 1882TIP3    H2 5580   1.285   6.319   5.497  1.6895  0.3642  1.8495
 1883TIP3   OH2 5581   7.987   1.381   5.348  0.1236  0.0229 -0.2943
 1883TIP3    H1 5582   8.001   1.288   5.364 -0.5863  0.1690  1.2354
 1883TIP3    H2 5583   8.039   1.425   5.415 -0.2786  0.7249 -0.4404
 1884TIP3   OH2 5584   1.346   2.611   2.124 -0.1517  0.0628 -0.4214
 1884TIP3    H1 5585   1.408   2.571   2.063 -2.2976 -1.1623 -1.8294
 1884TIP3    H2 5586   1.290   2.666   2.071 -1.1848  0.0489  0.6170
 1885TIP3   OH2 5587   0.259   7.650   4.587 -0.3780 -0.1548  0.3601
 1885TIP3    H1 5588   0.270   7.590   4.513  2.0363 -0.6077  1.0620
 1885TIP3    H2 5589   0.168   7.679   4.580 -0.7165 -1.5843 -1.7297
 1886TIP3   OH2 5590   1.807   2.449   2.581 -0.4112 -0.2590  0.2072
 1886TIP3    H1 5591   1.768   2.471   2.496 -0.0951 -0.0623  0.1112
 1886TIP3    H2 5592   1.834   2.533   2.618  1.4997 -0.5322 -0.5032
 1887TIP3   OH2 5593   2.144   6.926   3.099 -0.0219  0.3233 -0.3054
 1887TIP3    H1 5594   2.095   6.989   3.047 -1.4814 -0.0224  0.6094
 1887TIP3    H2 5595   2.215   6.897   3.042 -0.6834  1.0936 -1.5362
 1888TIP3   OH2 5596   0.687   0.548   2.896  0.4828 -0.0241 -0.6469
 1888TIP3    H1 5597   0.672   0.547   2.991  0.4049 -0.7762 -0.6624
 1888TIP3    H2 5598   0.639   0.625   2.865  0.7970  0.4317 -0.0312
 1889TIP3   OH2 5599   1.975   1.484   4.853  0.0208 -0.1695  0.1714
 1889TIP3    H1 5600   1.934   1.566   4.825  0.1543  0.3934  1.5813
 1889TIP3    H2 5601   1.963   1.483   4.948 -1.0153 -2.3519  0.0511
 1890TIP3   OH2 5602   4.252   1.485   5.004  0.1667 -0.2800  0.0344
 1890TIP3    H1 5603   4.326   1.457   5.058 -0.2804 -0.5528  0.5026
 1890TIP3    H2 5604   4.177   1.436   5.037 -0.3131  0.3063 -0.1651
 1891TIP3   OH2 5605   7.286   7.359   4.414  0.1860  0.3407  0.1483
 1891TIP3    H1 5606   7.294   7.390   4.324  0.8413  0.3812  0.2232
 1891TIP3    H2 5607   7.350   7.410   4.464  1.3844 -1.2400  0.2499
 1892TIP3   OH2 5608   6.116   7.445   4.409 -0.1179  0.3418  0.4691
 1892TIP3    H1 5609   6.160   7.499   4.343  0.2400 -0.0910  0.3501
 1892TIP3    H2 5610   6.026   7.477   4.410 -0.3028 -0.1369 -0.7368
 1893TIP3   OH2 5611   1.081   6.066   4.468 -0.3501  0.5474  0.1513
 1893TIP3    H1 5612   1.155   6.116   4.502  1.4701 -1.1238 -1.2845
 1893TIP3    H2 5613   1.104   6.046   4.378 -1.9913 -1.0957  0.0620
 1894TIP3   OH2 5614   1.257   6.250   3.705 -0.1664 -0.1665 -0.1627
 1894TIP3    H1 5615   1.297   6.233   3.619 -1.5953 -2.2045 -0.4611
 1894TIP3    H2 5616   1.294   6.183   3.762 -0.4910  0.1375  0.4051
 1895TIP3   OH2 5617   8.007   7.127   2.692 -0.0342  0.0151  0.1293
 1895TIP3    H1 5618   7.968   7.151   2.776  1.0236 -2.2806  1.3055
 1895TIP3    H2 5619   8.042   7.209   2.657 -2.8380  1.4905  0.6478
 1896TIP3   OH2 5620   3.042   0.533   3.577 -0.0472  0.1315  0.1282
 1896TIP3    H1 5621   3.055   0.627   3.559 -0.1447 -0.1181 -1.3191
 1896TIP3    H2 5622   2.952   0.515   3.549  0.2678 -0.5781 -0.4501
 1897TIP3   OH2 5623   2.333   5.901   2.668  0.0637  0.3636 -0.2121
 1897TIP3    H1 5624   2.265   5.839   2.695 -0.0445  0.9192  0.7845
 1897TIP3    H2 5625   2.415   5.859   2.695 -0.0777  1.1889  1.5330
 1898TIP3   OH2 5626   2.608   0.643   4.101 -0.0127 -0.5884 -1.0079
 1898TIP3    H1 5627   2.576   0.553   4.111  0.6507 -0.4790  2.9930
 1898TIP3    H2 5628   2.528   0.696   4.095 -0.5628 -1.0152  1.6885
 1899TIP3   OH2 5629   0.836   7.640   3.054  0.0189 -0.0419 -0.6898
 1899TIP3    H1 5630   0.864   7.730   3.041  1.1725 -0.3696 -0.5422
 1899TIP3    H2 5631   0.742   7.641   3.039 -0.4067  1.6985  1.8086
 1900TIP3   OH2 5632   2.052   7.134   2.507  0.2989 -0.1089  0.4282
 1900TIP3    H1 5633   1.985   7.083   2.552 -0.9135  0.3103 -0.8747
 1900TIP3    H2 5634   2.016   7.223   2.503  0.3897 -0.1378 -1.3533
 1901TIP3   OH2 5635   2.389   3.001   1.525  0.0989  0.1986  0.0514
 1901TIP3    H1 5636   2.327   2.966   1.461 -0.4715  1.5369 -0.1560
 1901TIP3    H2 5637   2.412   3.087   1.490  2.3366 -0.3955 -0.0390
 1902TIP3   OH2 5638   2.361   2.215   2.152 -0.5382  0.3665  0.8586
 1902TIP3    H1 5639   2.437   2.157   2.163 -0.5347  0.1773 -0.1134
 1902TIP3    H2 5640   2.398   2.301   2.132 -0.5754 -0.0449 -1.1228
 1903TIP3   OH2 5641   1.851   0.904   5.044  0.0554 -1.0794 -0.1067
 1903TIP3    H1 5642   1.783   0.940   5.101 -0.9305 -1.6854 -0.8760
 1903TIP3    H2 5643   1.855   0.964   4.970  0.3255 -1.0616 -0.0778
 1904TIP3   OH2 5644   1.159   7.419   2.967  0.2836  0.3682  0.5026
 1904TIP3    H1 5645   1.135   7.331   2.938  0.9510  0.0706  0.8612
 1904TIP3    H2 5646   1.151   7.473   2.888  0.4843 -0.1289  0.1444
 1905TIP3   OH2 5647   4.857   1.151   2.687  0.6390 -0.2442  0.2530
 1905TIP3    H1 5648   4.925   1.194   2.738  0.6705  0.6210 -0.5151
 1905TIP3    H2 5649   4.799   1.221   2.658 -1.2887 -1.1074  1.9220
 1906TIP3   OH2 5650   3.986   1.093   4.340 -0.2830  0.0962  0.0371
 1906TIP3    H1 5651   3.952   1.151   4.273  0.4878  1.2601  0.6416
 1906TIP3    H2 5652   3.946   1.008   4.321  0.4150  0.2487 -2.2523
 1907TIP3   OH2 5653   3.146   5.913   2.975  0.2530 -0.5126 -0.2411
 1907TIP3    H1 5654   3.137   5.818   2.967 -0.8577 -0.4017 -0.2701
 1907TIP3    H2 5655   3.127   5.947   2.887  0.8804 -0.2780 -0.2901
 1908TIP3   OH2 5656   0.847   7.914   3.060  0.4326 -0.1947  0.7298
 1908TIP3    H1 5657   0.856   7.902   2.965 -0.0508 -0.6679  0.7405
 1908TIP3    H2 5658   0.835   8.009   3.070  1.2747 -0.0460  0.3912
 1909TIP3   OH2 5659   4.104   1.685   4.871 -0.1873  0.2581  0.2935
 1909TIP3    H1 5660   4.059   1.715   4.950 -1.0152 -0.4937  0.1117
 1909TIP3    H2 5661   4.161   1.614   4.902  2.1492  2.2805  0.8115
 1910TIP3   OH2 5662   2.268   6.973   3.987  0.0196 -0.1761 -0.1298
 1910TIP3    H1 5663   2.278   6.915   3.912 -0.3300  1.2812 -1.3239
 1910TIP3    H2 5664   2.333   7.042   3.974 -0.8275  0.7168  0.2885
 1911TIP3   OH2 5665   1.290   7.151   0.828  0.6781 -0.2407  0.0333
 1911TIP3    H1 5666   1.363   7.171   0.887 -0.1584  0.5088  0.8423
 1911TIP3    H2 5667   1.303   7.209   0.753  0.0786  1.0327  0.8849
 1912TIP3   OH2 5668   1.217   6.457   1.447 -0.9026 -0.5034 -0.1764
 1912TIP3    H1 5669   1.191   6.416   1.365 -0.8389 -2.1123  0.5797
 1912TIP3    H2 5670   1.208   6.388   1.512  3.7406 -0.7442  0.3852
 1913TIP3   OH2 5671   0.434   6.199   1.886  0.4152  0.1259 -0.1652
 1913TIP3    H1 5672   0.409   6.288   1.859  1.1987  0.3812 -0.0891
 1913TIP3    H2 5673   0.448   6.153   1.803  0.4654  0.2113 -0.2047
 1914TIP3   OH2 5674   8.272   7.631   2.838 -0.6838  0.1606 -0.4458
 1914TIP3    H1 5675   8.298   7.578   2.914 -2.5974  1.4828  1.1778
 1914TIP3    H2 5676   8.351   7.680   2.815 -0.7515  1.6869  2.3662
 1915TIP3   OH2 5677   3.475   0.327   4.197  0.5014 -0.1605 -0.3902
 1915TIP3    H1 5678   3.453   0.235   4.207 -2.1284  0.4208 -0.6592
 1915TIP3    H2 5679   3.476   0.341   4.102  3.3510 -0.4370 -0.4634
 1916TIP3   OH2 5680   0.252   6.728   3.371  0.5463 -0.7169  0.0489
 1916TIP3    H1 5681   0.324   6.762   3.317  1.2077 -1.4173  0.4737
 1916TIP3    H2 5682   0.214   6.806   3.411 -1.1207  0.0174 -2.8082
 1917TIP3   OH2 5683   7.688   6.901   3.906 -0.6377 -0.3972 -0.4599
 1917TIP3    H1 5684   7.604   6.869   3.941 -0.6730  0.4170  0.2285
 1917TIP3    H2 5685   7.739   6.822   3.889 -0.7040 -0.8246  1.2475
 1918TIP3   OH2 5686   1.752   6.713   4.363  0.5143 -0.0016  0.5737
 1918TIP3    H1 5687   1.663   6.691   4.338  0.1835  1.5143  0.3801
 1918TIP3    H2 5688   1.807   6.658   4.307 -0.2916 -0.9928  0.7468
 1919TIP3   OH2 5689   7.441   6.040   4.038  0.3667  0.4480  0.0211
 1919TIP3    H1 5690   7.360   6.030   3.989 -0.3919  1.1925  1.0979
 1919TIP3    H2 5691   7.477   5.951   4.044 -0.4957  0.0794 -0.2405
 1920TIP3   OH2 5692   7.428   3.531   1.821  0.7721 -0.1392 -0.2449
 1920TIP3    H1 5693   7.448   3.439   1.805  0.7523  0.2003 -2.3265
 1920TIP3    H2 5694   7.333   3.533   1.833  0.9811 -0.6296  1.7488
 1921TIP3   OH2 5695   0.162   0.520   4.160  0.2043 -0.0676 -0.8809
 1921TIP3    H1 5696   0.090   0.514   4.098  1.0105 -2.0116 -1.6818
 1921TIP3    H2 5697   0.241   0.513   4.106  0.9469 -0.1281  0.1914
 1922TIP3   OH2 5698   3.427   0.901   4.950  0.3005 -0.9719 -0.1189
 1922TIP3    H1 5699   3.426   0.978   5.006 -0.0546  0.5247 -2.1609
 1922TIP3    H2 5700   3.516   0.898   4.914  0.2075 -1.3158 -0.3257
 1923TIP3   OH2 5701   0.180   0.067   3.746  0.3396  0.2208 -0.1347
 1923TIP3    H1 5702   0.219   0.142   3.792  0.6918 -0.9739  1.5495
 1923TIP3    H2 5703   0.255   0.017   3.715  0.1152 -0.3640  0.2719
 1924TIP3   OH2 5704   6.815   7.871   5.069  0.0047  0.0710  0.0156
 1924TIP3    H1 5705   6.778   7.903   5.152  0.2370 -0.1821  0.2160
 1924TIP3    H2 5706   6.902   7.910   5.065  0.4789 -0.9291  0.4954
 1925TIP3   OH2 5707   3.643   0.362   4.769 -0.5518  0.0867 -0.0471
 1925TIP3    H1 5708   3.583   0.312   4.824 -0.2408 -0.1903  0.0394
 1925TIP3    H2 5709   3.587   0.428   4.726 -0.5561  1.2373  1.6989
 1926TIP3   OH2 5710   1.577   0.954   6.051  0.7869  0.1563  0.0710
 1926TIP3    H1 5711   1.593   0.913   5.966 -1.0714 -1.4574  0.4465
 1926TIP3    H2 5712   1.527   0.888   6.100 -0.1783  1.9581  1.5798
 1927TIP3   OH2 5713   2.361   1.266   3.560  0.3857  0.1210 -0.2840
 1927TIP3    H1 5714   2.407   1.205   3.618 -0.9434  0.7745  1.5104
 1927TIP3    H2 5715   2.396   1.352   3.583  0.3922  0.3079 -0.9836
 1928TIP3   OH2 5716   0.886   7.196   3.227  0.0086 -0.3878  0.0886
 1928TIP3    H1 5717   0.896   7.291   3.222 -2.1068 -0.1845 -0.9053
 1928TIP3    H2 5718   0.852   7.181   3.315 -1.6604  0.0105 -0.4629
 1929TIP3   OH2 5719   1.216   0.147   5.242 -0.0109  0.5660 -0.7210
 1929TIP3    H1 5720   1.187   0.223   5.191 -1.2008  0.9094  0.4371
 1929TIP3    H2 5721   1.141   0.124   5.296  2.0228  1.9080  2.8653
 1930TIP3   OH2 5722   0.634   0.617   4.083  0.2282  0.3186  0.2420
 1930TIP3    H1 5723   0.723   0.629   4.049  0.1368 -0.6730 -0.3707
 1930TIP3    H2 5724   0.578   0.618   4.005  0.1508 -3.2556  0.1685
 1931TIP3   OH2 5725   3.090   0.866   5.189  0.4068  0.4477 -0.2600
 1931TIP3    H1 5726   3.153   0.896   5.254 -0.7396 -0.1637  1.1627
 1931TIP3    H2 5727   3.073   0.775   5.212 -0.0846  0.2432 -1.3737
 1932TIP3   OH2 5728   8.352   7.276   4.048 -0.0751 -1.1882  0.0302
 1932TIP3    H1 5729   8.269   7.325   4.046  1.0664  0.7688 -0.4368
 1932TIP3    H2 5730   8.339   7.205   3.986 -0.8240  0.0950 -1.3177
 1933TIP3   OH2 5731   8.053   6.045   3.280 -0.0826 -0.0282 -0.3050
 1933TIP3    H1 5732   7.975   6.101   3.280  0.0675  0.1860 -0.8420
 1933TIP3    H2 5733   8.062   6.016   3.371 -0.3397  0.5701 -0.0860
 1934TIP3   OH2 5734   5.213   1.047   4.152 -0.0957 -0.5821 -0.2675
 1934TIP3    H1 5735   5.238   0.957   4.129 -0.1302 -1.3516  2.5256
 1934TIP3    H2 5736   5.119   1.043   4.165 -0.1328 -0.0765 -0.3825
 1935TIP3   OH2 5737   2.225   2.105   2.925 -0.4021  0.2473  0.5726
 1935TIP3    H1 5738   2.218   2.184   2.871  1.1026  0.1550  0.2142
 1935TIP3    H2 5739   2.137   2.091   2.959 -1.1203  0.9772 -0.9357
 1936TIP3   OH2 5740   3.404   0.608   3.753 -0.2428  0.5982  0.5426
 1936TIP3    H1 5741   3.317   0.582   3.784 -1.4428  1.4672 -1.9959
 1936TIP3    H2 5742   3.408   0.702   3.768  0.6112  0.4323  1.4250
 1937TIP3   OH2 5743   4.202   0.571   4.521 -0.3882  0.2457  0.0262
 1937TIP3    H1 5744   4.263   0.576   4.594 -2.0196 -1.3873  1.5324
 1937TIP3    H2 5745   4.254   0.535   4.449  0.8274  0.3868  0.8222
 1938TIP3   OH2 5746   2.952   7.851   1.220 -0.2319 -0.1276 -0.0128
 1938TIP3    H1 5747   2.996   7.802   1.150 -0.6197 -0.3273 -0.1160
 1938TIP3    H2 5748   2.949   7.791   1.294 -0.6476 -0.2331 -0.1179
 1939TIP3   OH2 5749   0.954   7.251   3.748 -0.3371  0.1391  0.0390
 1939TIP3    H1 5750   1.016   7.314   3.785  0.3667 -0.7280  0.3735
 1939TIP3    H2 5751   0.986   7.166   3.779 -2.7574 -0.1982  1.8098
 1940TIP3   OH2 5752   1.941   6.686   3.290  0.1657  0.1888 -0.1252
 1940TIP3    H1 5753   2.033   6.690   3.264 -0.0515 -0.8407 -1.1092
 1940TIP3    H2 5754   1.894   6.724   3.216 -0.3903 -1.8157 -0.8157
 1941TIP3   OH2 5755   1.370   7.072   2.697  0.0314 -0.1702  0.2734
 1941TIP3    H1 5756   1.349   7.026   2.615 -0.4294 -0.5714  0.6173
 1941TIP3    H2 5757   1.322   7.154   2.690 -1.0670 -0.7683  0.7249
 1942TIP3   OH2 5758   4.466   1.070   3.511  0.2395  0.8970  0.6809
 1942TIP3    H1 5759   4.544   1.068   3.567  1.2964  0.9142 -0.7463
 1942TIP3    H2 5760   4.485   1.139   3.447 -0.6095  0.3364 -0.1769
 1943TIP3   OH2 5761   2.502   6.901   2.689 -0.0351 -0.6657 -0.4303
 1943TIP3    H1 5762   2.476   6.811   2.668  1.1616 -1.0870 -0.1641
 1943TIP3    H2 5763   2.585   6.913   2.643  0.1831  0.0564  0.1402
 1944TIP3   OH2 5764   3.090   6.150   1.836  0.3880  0.0127  0.7630
 1944TIP3    H1 5765   3.074   6.114   1.923  0.7930 -0.3856  0.6715
 1944TIP3    H2 5766   3.007   6.137   1.789  0.3703 -0.3356  0.8900
 1945TIP3   OH2 5767   8.135   5.367   2.111  0.8305 -0.3009  0.1696
 1945TIP3    H1 5768   8.126   5.272   2.107  1.6811 -0.3207 -1.7341
 1945TIP3    H2 5769   8.210   5.387   2.055  0.8722  1.4716  0.8122
 1946TIP3   OH2 5770   0.380   7.840   3.676  0.0746 -0.2253 -0.1607
 1946TIP3    H1 5771   0.317   7.900   3.635  0.1319 -0.1068 -0.0762
 1946TIP3    H2 5772   0.349   7.753   3.652 -1.6951 -0.2699  2.1509
 1947TIP3   OH2 5773   5.798   0.629   4.163 -0.5662 -0.2357 -0.1144
 1947TIP3    H1 5774   5.807   0.608   4.070  1.4944 -0.4244  0.1022
 1947TIP3    H2 5775   5.811   0.545   4.208  0.0357  0.1266  0.4011
 1948TIP3   OH2 5776   5.484   0.983   3.058 -0.3554  0.7656 -0.2972
 1948TIP3    H1 5777   5.450   1.028   3.135  1.9077  0.2390  1.0484
 1948TIP3    H2 5778   5.525   1.052   3.006  1.3121  0.6069  0.7682
 1949TIP3   OH2 5779   0.035   6.860   3.153 -0.2149 -0.6768 -0.0185
 1949TIP3    H1 5780   0.069   6.924   3.089  1.0560  0.1793  1.4674
 1949TIP3    H2 5781   0.073   6.777   3.125  0.8505 -0.2028 -0.0232
 1950TIP3   OH2 5782   4.115   0.995   1.394 -0.3142 -0.3824 -0.5986
 1950TIP3    H1 5783   4.165   1.033   1.322 -0.6192  1.1649 -0.0318
 1950TIP3    H2 5784   4.084   1.071   1.443 -1.2443 -1.3859  0.3888
 1951TIP3   OH2 5785   1.427   7.724   2.208  0.0822  0.0152 -0.3727
 1951TIP3    H1 5786   1.421   7.793   2.274  3.6102  1.2485 -1.2563
 1951TIP3    H2 5787   1.395   7.765   2.128  2.0052  0.6092 -0.8568
 1952TIP3   OH2 5788   4.568   0.354   4.325  1.0893  0.1647 -0.3622
 1952TIP3    H1 5789   4.521   0.432   4.352 -0.7018 -1.2139  0.5944
 1952TIP3    H2 5790   4.609   0.321   4.406  0.4976 -0.7656 -0.4323
 1953TIP3   OH2 5791   5.675   0.754   3.122  0.1392  0.0537 -0.1242
 1953TIP3    H1 5792   5.681   0.713   3.036  0.7527  0.7603 -0.4297
 1953TIP3    H2 5793   5.640   0.842   3.104 -2.2847 -0.7313  0.6498
 1954TIP3   OH2 5794   4.899   3.430   0.568  0.0924  0.2200  0.2309
 1954TIP3    H1 5795   4.856   3.355   0.610  0.2065  0.0715  0.0848
 1954TIP3    H2 5796   4.857   3.436   0.482  0.6865 -0.2211 -0.0980
 1955TIP3   OH2 5797   1.246   6.858   1.394 -0.0496 -0.1088 -0.2516
 1955TIP3    H1 5798   1.325   6.892   1.352 -0.6440  0.3684 -0.9973
 1955TIP3    H2 5799   1.199   6.936   1.424  1.4061 -0.4828  3.3207
 1956TIP3   OH2 5800   8.129   5.569   4.636 -0.8276 -0.8868  0.3758
 1956TIP3    H1 5801   8.193   5.632   4.603 -1.5289 -0.0559  0.5926
 1956TIP3    H2 5802   8.181   5.494   4.665  0.0235 -0.3217  0.3071
 1957TIP3   OH2 5803   7.459   7.740   3.698  0.3445  0.5561  0.0831
 1957TIP3    H1 5804   7.497   7.690   3.626  0.0166 -2.1540  1.7680
 1957TIP3    H2 5805   7.455   7.830   3.664  0.9595 -0.5078 -2.9699
 1958TIP3   OH2 5806   2.335   0.223   4.361 -0.0226 -0.3802  0.2544
 1958TIP3    H1 5807   2.350   0.145   4.307  0.2865  0.0898 -0.3278
 1958TIP3    H2 5808   2.279   0.191   4.432 -3.5533 -0.2114 -2.3447
 1959TIP3   OH2 5809   5.519   0.548   3.542 -0.4410 -0.5996 -0.0595
 1959TIP3    H1 5810   5.516   0.484   3.472 -0.2411 -0.8015  0.1168
 1959TIP3    H2 5811   5.561   0.503   3.615  0.0665 -0.1480 -0.0639
 1960TIP3   OH2 5812   4.731   0.165   2.161  0.5539 -0.0342 -0.1754
 1960TIP3    H1 5813   4.802   0.227   2.145  0.4744  0.4526  1.3024
 1960TIP3    H2 5814   4.734   0.106   2.085  1.5410  0.9006 -0.8885
 1961TIP3   OH2 5815   4.107   2.303   1.836  0.5630  0.1512  0.9122
 1961TIP3    H1 5816   4.063   2.319   1.920 -0.3713  0.1347  0.4278
 1961TIP3    H2 5817   4.036   2.282   1.775  1.0887  1.7653 -0.2734
 1962TIP3   OH2 5818   4.694   0.804   3.388 -0.3695 -0.1451  0.5961
 1962TIP3    H1 5819   4.785   0.823   3.364 -1.0662  0.0706 -1.9593
 1962TIP3    H2 5820   4.700   0.728   3.445  1.2561 -1.7483 -1.6411
 1963TIP3   OH2 5821   3.716   1.376   2.876 -0.1354  0.3776  0.0584
 1963TIP3    H1 5822   3.737   1.419   2.793 -0.7499 -0.9271 -0.7844
 1963TIP3    H2 5823   3.731   1.283   2.859 -1.3114 -0.0065  1.0717
 1964TIP3   OH2 5824   4.434   0.940   2.155 -0.4742 -0.0267 -0.0417
 1964TIP3    H1 5825   4.458   1.028   2.184  0.9786 -1.1588  2.3045
 1964TIP3    H2 5826   4.349   0.923   2.195 -1.1170  0.5708 -1.1179
 1965TIP3   OH2 5827   5.857   1.935   3.585 -0.1252 -0.0957 -0.3867
 1965TIP3    H1 5828   5.799   1.993   3.534  0.0917  0.3834 -0.0914
 1965TIP3    H2 5829   5.921   1.994   3.625  0.2282 -0.5655 -0.2534
 1966TIP3   OH2 5830   4.582   0.631   1.356  0.4623 -0.2715 -0.4610
 1966TIP3    H1 5831   4.677   0.628   1.364  0.4259 -1.1235 -0.3484
 1966TIP3    H2 5832   4.550   0.600   1.441  0.0848 -1.2388 -0.9508
 1967TIP3   OH2 5833   3.068   7.091   1.943 -0.2755 -0.1630  0.0622
 1967TIP3    H1 5834   3.062   7.101   2.038 -0.0927  0.8550 -0.0224
 1967TIP3    H2 5835   2.987   7.048   1.918 -0.2595 -0.5623  0.7005
 1968TIP3   OH2 5836   1.468   0.994   4.605  0.0634 -0.0367  0.4940
 1968TIP3    H1 5837   1.517   0.921   4.567  0.1008 -0.5649  1.5292
 1968TIP3    H2 5838   1.519   1.072   4.584 -0.0016 -0.3100 -0.6663
 1969TIP3   OH2 5839   2.716   0.102   2.071  0.4959 -0.0990 -0.2917
 1969TIP3    H1 5840   2.811   0.106   2.077  0.3035  0.5625  3.3343
 1969TIP3    H2 5841   2.685   0.178   2.120 -1.9034 -0.9256 -0.4459
 1970TIP3   OH2 5842   2.375   6.654   4.393  0.0452  0.1101  0.6395
 1970TIP3    H1 5843   2.412   6.568   4.370 -0.7062 -0.2285  0.6913
 1970TIP3    H2 5844   2.310   6.634   4.460  0.9029  0.8771  1.7210
 1971TIP3   OH2 5845   5.843   1.403   4.364  0.2934 -0.3135  0.2241
 1971TIP3    H1 5846   5.830   1.350   4.443  0.2101 -0.7207 -0.0582
 1971TIP3    H2 5847   5.938   1.410   4.354  0.3753  2.8507  2.4191
 1972TIP3   OH2 5848   1.928   7.839   4.654  0.1999 -0.3406  0.4142
 1972TIP3    H1 5849   1.921   7.845   4.559 -2.8098 -2.2194  0.4622
 1972TIP3    H2 5850   1.992   7.769   4.669 -1.0817 -1.6620 -0.2487
 1973TIP3   OH2 5851   2.152   7.801   2.423 -0.0268 -0.6110 -0.6073
 1973TIP3    H1 5852   2.089   7.859   2.465 -0.6617 -0.8784 -1.1820
 1973TIP3    H2 5853   2.214   7.779   2.492 -0.1187  0.2772 -0.2340
 1974TIP3   OH2 5854   1.773   7.070   4.208 -0.0853  0.6003 -0.1920
 1974TIP3    H1 5855   1.763   6.983   4.170  1.9734 -0.1846  0.9650
 1974TIP3    H2 5856   1.868   7.083   4.213 -0.3062  1.5598  2.5905
 1975TIP3   OH2 5857   7.589   6.563   2.746  0.3127 -0.6057  0.1415
 1975TIP3    H1 5858   7.626   6.616   2.675  0.7270  0.5968  1.2393
 1975TIP3    H2 5859   7.608   6.613   2.825  0.4270 -2.2549  1.1720
 1976TIP3   OH2 5860   5.281   1.936   3.911  0.0968 -0.4253 -0.5145
 1976TIP3    H1 5861   5.270   1.850   3.952 -2.1253  1.0352  2.1077
 1976TIP3    H2 5862   5.265   1.920   3.818  2.1853 -3.2699 -0.4623
 1977TIP3   OH2 5863   1.564   0.394   2.228 -0.0163 -0.2277  0.1684
 1977TIP3    H1 5864   1.641   0.351   2.265  0.5723  0.9264  0.3066
 1977TIP3    H2 5865   1.497   0.388   2.296 -0.2676 -1.8258 -0.2099
 1978TIP3   OH2 5866   2.354   0.939   1.952 -0.2197  0.1646 -0.2947
 1978TIP3    H1 5867   2.381   1.020   1.910 -1.3611  0.6949 -0.0386
 1978TIP3    H2 5868   2.435   0.893   1.970  0.5760  2.1293  1.3090
 1979TIP3   OH2 5869   4.055   0.584   2.512 -0.1085  0.3680  0.3723
 1979TIP3    H1 5870   3.988   0.648   2.486  0.3210  0.3635 -0.8071
 1979TIP3    H2 5871   4.081   0.543   2.429 -0.0191 -0.9834  1.0620
 1980TIP3   OH2 5872   1.194   7.738   3.367 -0.6972 -0.2260  0.4883
 1980TIP3    H1 5873   1.137   7.701   3.300 -0.0930  0.9747 -0.7294
 1980TIP3    H2 5874   1.147   7.815   3.398  0.5815  1.2326 -1.1014
 1981TIP3   OH2 5875   6.652   3.670   5.446  0.2431  0.6472 -0.0368
 1981TIP3    H1 5876   6.711   3.628   5.509  1.5924 -0.6444 -2.1046
 1981TIP3    H2 5877   6.656   3.763   5.469  2.3266  0.4554  0.4912
 1982TIP3   OH2 5878   2.459   7.839   2.022 -0.2910 -0.3048 -0.1824
 1982TIP3    H1 5879   2.422   7.812   2.106  3.5368 -0.8888  1.4191
 1982TIP3    H2 5880   2.464   7.758   1.971 -0.3078 -0.4082 -0.0219
 1983TIP3   OH2 5881   0.972   7.360   1.216 -0.1147 -0.2604 -0.3574
 1983TIP3    H1 5882   1.039   7.321   1.161 -0.0647  0.3893 -0.7598
 1983TIP3    H2 5883   1.010   7.360   1.304 -0.2737 -1.4860 -0.2730
 1984TIP3   OH2 5884   2.415   6.848   2.379  0.0756  1.3440  0.1745
 1984TIP3    H1 5885   2.353   6.783   2.411 -1.6146  2.3855 -0.8989
 1984TIP3    H2 5886   2.482   6.797   2.334  0.1973  0.1762  1.6484
 1985TIP3   OH2 5887   7.259   1.673   3.046 -0.0602 -0.3373 -0.2436
 1985TIP3    H1 5888   7.316   1.748   3.061  1.4974 -1.0650 -2.1977
 1985TIP3    H2 5889   7.188   1.707   2.992 -0.4152  0.1407  0.5153
 1986TIP3   OH2 5890   2.566   6.189   4.387  0.3926 -0.0290  0.0371
 1986TIP3    H1 5891   2.561   6.183   4.482 -0.2809 -0.7720 -0.0404
 1986TIP3    H2 5892   2.570   6.283   4.369 -0.3833  0.1480  0.7513
 1987TIP3   OH2 5893   1.386   7.077   3.835  0.0110 -0.1355  0.0520
 1987TIP3    H1 5894   1.408   7.120   3.752 -0.4139  0.7865  0.3988
 1987TIP3    H2 5895   1.438   6.997   3.836 -0.0363 -0.1935 -1.1418
 1988TIP3   OH2 5896   1.919   6.912   2.613 -0.0586  0.2696 -1.0777
 1988TIP3    H1 5897   1.831   6.882   2.588 -0.9079  1.3084  0.5575
 1988TIP3    H2 5898   1.978   6.842   2.584 -2.0314 -3.7599  3.8471
 1989TIP3   OH2 5899   3.242   0.172   1.158 -0.0160 -0.0063  0.6678
 1989TIP3    H1 5900   3.335   0.194   1.149 -0.1343  1.3317  2.3577
 1989TIP3    H2 5901   3.233   0.146   1.250 -1.0171 -1.6738  0.1171
 1990TIP3   OH2 5902   1.433   7.675   3.541  0.3550  0.1066 -0.7185
 1990TIP3    H1 5903   1.528   7.666   3.534  0.4340 -0.3656  0.9065
 1990TIP3    H2 5904   1.402   7.663   3.451  1.8233  0.2066 -1.2572
 1991TIP3   OH2 5905   0.858   7.358   2.379  0.4213 -0.1768  0.0879
 1991TIP3    H1 5906   0.796   7.323   2.314 -0.0211  0.4717  0.1570
 1991TIP3    H2 5907   0.871   7.449   2.353  1.0174 -0.1897  0.3292
 1992TIP3   OH2 5908   5.695   4.064   6.909 -0.4926  0.0642 -1.0134
 1992TIP3    H1 5909   5.650   4.129   6.963  1.3269  0.0425  0.6019
 1992TIP3    H2 5910   5.750   4.116   6.851 -0.4149  0.0221 -0.9771
 1993TIP3   OH2 5911   1.125   7.059   3.859  0.3572  0.0857  0.2346
 1993TIP3    H1 5912   1.146   7.026   3.946  1.7370 -1.8594 -0.7905
 1993TIP3    H2 5913   1.207   7.052   3.810 -0.2505  1.6596 -1.0911
 1994TIP3   OH2 5914   6.420   0.150   3.694 -0.0964 -0.2762  0.1590
 1994TIP3    H1 5915   6.480   0.142   3.769 -0.2253 -1.1935  0.1717
 1994TIP3    H2 5916   6.384   0.238   3.702  2.9234  1.1825 -1.1155
 1995TIP3   OH2 5917   2.017   7.027   4.493 -0.3132  0.0291 -0.3638
 1995TIP3    H1 5918   1.952   6.969   4.532 -0.0296  1.0735  1.7514
 1995TIP3    H2 5919   2.101   6.990   4.517 -0.1158 -0.0581 -1.1568
 1996TIP3   OH2 5920   0.063   5.822   1.808 -0.7439 -0.0711 -0.2593
 1996TIP3    H1 5921   0.126   5.795   1.875  0.4266 -0.6188 -1.5760
 1996TIP3    H2 5922   0.069   5.918   1.806  1.3079 -0.2135 -1.5922
 1997TIP3   OH2 5923   5.395   1.144   3.907 -0.0387  0.1101 -0.0598
 1997TIP3    H1 5924   5.372   1.135   3.999  1.3337  0.4230  0.3276
 1997TIP3    H2 5925   5.371   1.060   3.868 -1.3326  0.2505  0.4140
 1998TIP3   OH2 5926   1.498   7.819   1.429 -0.1366 -0.2395  0.2820
 1998TIP3    H1 5927   1.482   7.860   1.514  1.6167  0.0650  0.4693
 1998TIP3    H2 5928   1.505   7.892   1.368 -1.1906 -0.4498 -0.0948
 1999TIP3   OH2 5929   3.692   5.868   1.493  0.4942 -0.3077  0.3796
 1999TIP3    H1 5930   3.659   5.876   1.583 -1.2266 -0.7022 -0.1848
 1999TIP3    H2 5931   3.618   5.894   1.438  1.8531  0.9014 -0.9147
 2000TIP3   OH2 5932   5.919   0.894   2.922  0.0262 -0.5730 -0.2072
 2000TIP3    H1 5933   5.894   0.985   2.934  1.9323  0.2393 -2.0256
 2000TIP3    H2 5934   5.851   0.858   2.865 -1.1892 -0.5281  1.2086
 2001TIP3   OH2 5935   5.921   3.046   2.548  0.1152  0.0486  0.0222
 2001TIP3    H1 5936   5.876   3.070   2.467  2.5778 -0.1905 -1.4703
 2001TIP3    H2 5937   5.856   2.996   2.597 -1.6085  0.6598 -1.5574
 2002TIP3   OH2 5938   0.482   7.377   2.739 -0.0827  0.2556 -0.1584
 2002TIP3    H1 5939   0.433   7.308   2.783 -0.3719  0.3798 -0.2888
 2002TIP3    H2 5940   0.482   7.352   2.647  2.5175 -1.2363  0.2075
 2003TIP3   OH2 5941   2.685   0.242   3.636  0.1451  0.0023 -0.0712
 2003TIP3    H1 5942   2.712   0.262   3.547 -1.0525  0.7737 -0.2564
 2003TIP3    H2 5943   2.766   0.215   3.680  0.7214 -0.4450 -1.3971
 2004TIP3   OH2 5944   4.587   0.617   3.117 -0.5514  0.5742  0.5789
 2004TIP3    H1 5945   4.637   0.619   3.198 -0.0571  1.3011  0.2601
 2004TIP3    H2 5946   4.498   0.596   3.143  0.1066 -1.8080  1.0744
 2005TIP3   OH2 5947   1.125   7.110   3.097  0.0787  0.1305 -0.2491
 2005TIP3    H1 5948   1.095   7.146   3.013 -0.3685  0.7053  0.1524
 2005TIP3    H2 5949   1.045   7.104   3.150  0.4528  0.3244  0.3400
 2006TIP3   OH2 5950   1.407   7.894   2.420 -0.5476 -0.4463  0.1783
 2006TIP3    H1 5951   1.340   7.955   2.390  0.0879 -0.9461 -2.3778
 2006TIP3    H2 5952   1.481   7.950   2.445 -0.3565 -0.0978 -1.1297
 2007TIP3   OH2 5953   1.390   6.432   2.116  0.4196  0.5257  0.0361
 2007TIP3    H1 5954   1.427   6.414   2.202  1.2149  0.0592 -0.3850
 2007TIP3    H2 5955   1.441   6.505   2.083  0.4944  0.3428 -0.2595
 2008TIP3   OH2 5956   1.724   6.877   2.355  0.1095 -0.4294 -0.2245
 2008TIP3    H1 5957   1.685   6.959   2.386  0.5466 -0.1907 -0.3004
 2008TIP3    H2 5958   1.699   6.812   2.420 -0.1182 -0.2051 -0.0861
 2009TIP3   OH2 5959   4.832   0.787   1.170  0.2315 -0.5558 -0.3997
 2009TIP3    H1 5960   4.862   0.866   1.125  0.3588 -0.0365  0.5893
 2009TIP3    H2 5961   4.857   0.800   1.261  1.6658 -2.4470 -0.4958
 2010TIP3   OH2 5962   0.770   6.113   1.393 -0.2800 -0.2828 -0.1104
 2010TIP3    H1 5963   0.781   6.044   1.327 -0.6862  0.8388 -1.3538
 2010TIP3    H2 5964   0.852   6.161   1.392 -0.6141  0.2895 -0.4445
 2011TIP3   OH2 5965   4.166   1.255   2.640  0.0319 -0.0799 -0.4550
 2011TIP3    H1 5966   4.234   1.197   2.674 -0.8767 -1.1768 -0.4759
 2011TIP3    H2 5967   4.126   1.293   2.719 -0.8021 -1.1605 -0.3330
 2012TIP3   OH2 5968   0.427   6.835   3.142  0.3240  0.1593  0.2085
 2012TIP3    H1 5969   0.412   6.909   3.082 -1.9134 -0.0252  0.4979
 2012TIP3    H2 5970   0.492   6.867   3.204 -0.8126  2.0257  0.4894
 2013TIP3   OH2 5971   3.296   0.018   2.845  0.1298 -0.0902  1.0079
 2013TIP3    H1 5972   3.335   0.069   2.916  0.7600  1.0732 -0.1373
 2013TIP3    H2 5973   3.343   0.046   2.767  0.3839 -2.3574  0.3193
 2014TIP3   OH2 5974   4.461   0.650   4.311  0.7877 -0.1384 -0.7397
 2014TIP3    H1 5975   4.433   0.741   4.322  1.2800 -0.0786  0.0181
 2014TIP3    H2 5976   4.469   0.640   4.216 -0.7952  0.1432 -0.9153
 2015TIP3   OH2 5977   1.685   7.406   3.635  0.0789  0.0377  0.4733
 2015TIP3    H1 5978   1.675   7.434   3.545 -0.2167 -0.4129  0.3670
 2015TIP3    H2 5979   1.763   7.452   3.666 -0.1406  0.6152  0.1609
 2016TIP3   OH2 5980   3.169   6.739   2.035 -0.1995  0.6585 -0.0608
 2016TIP3    H1 5981   3.225   6.751   1.958  3.7835 -0.2953  2.6076
 2016TIP3    H2 5982   3.152   6.645   2.038 -0.2775  0.6833  0.2996
 2017TIP3   OH2 5983   5.307   0.404   2.978  0.2111 -0.8344 -0.1934
 2017TIP3    H1 5984   5.321   0.351   2.900 -0.1713  1.9526 -2.2614
 2017TIP3    H2 5985   5.393   0.439   2.999  0.2602 -1.3449  0.4736
 2018TIP3   OH2 5986   3.608   0.844   2.029 -0.3349 -0.2305 -0.3214
 2018TIP3    H1 5987   3.594   0.777   2.096  0.0462 -0.6958 -0.7020
 2018TIP3    H2 5988   3.703   0.848   2.018 -0.4694 -1.5582 -2.2290
 2019TIP3   OH2 5989   6.140   1.720   2.261 -0.1532 -0.0669  0.1370
 2019TIP3    H1 5990   6.107   1.707   2.350  0.5229 -0.0251  0.3895
 2019TIP3    H2 5991   6.208   1.786   2.269  0.6526 -0.8369 -0.2501
 2020TIP3   OH2 5992   6.818   5.175   0.579  0.4155  0.2561  0.0606
 2020TIP3    H1 5993   6.780   5.124   0.508 -0.8756  0.1467  0.8121
 2020TIP3    H2 5994   6.815   5.116   0.655 -1.0152  1.4134  0.9120
 2021TIP3   OH2 5995   0.663   7.439   4.375  0.5110 -0.4784  0.0930
 2021TIP3    H1 5996   0.607   7.445   4.299  0.5390  2.1943  0.2589
 2021TIP3    H2 5997   0.603   7.437   4.450  0.5755  2.1768  0.2588
 2022TIP3   OH2 5998   3.875   1.214   4.123 -0.3257  0.4127 -0.0829
 2022TIP3    H1 5999   3.792   1.225   4.170  0.3572  0.2307  1.1535
 2022TIP3    H2 6000   3.848   1.203   4.031 -1.6392  1.0083  0.2150
 2023TIP3   OH2 6001   3.260   1.113   3.983  0.6199  1.0585 -0.4236
 2023TIP3    H1 6002   3.294   1.050   4.046  1.3664 -0.2673 -2.1127
 2023TIP3    H2 6003   3.182   1.071   3.946  0.3507  1.7017 -0.6014
 2024TIP3   OH2 6004   4.324   6.480   5.946  0.9044 -0.3267 -0.1306
 2024TIP3    H1 6005   4.244   6.428   5.944 -0.5353  1.8469 -0.6718
 2024TIP3    H2 6006   4.375   6.449   5.871  0.6289 -1.7573  0.2488
 2025TIP3   OH2 6007   4.220   1.024   4.505 -0.2901 -0.1737  0.1179
 2025TIP3    H1 6008   4.150   1.053   4.447 -2.3509 -1.1038  2.0171
 2025TIP3    H2 6009   4.206   1.074   4.586 -0.0199 -1.8249  1.2105
 2026TIP3   OH2 6010   5.190   0.630   3.304 -0.1481 -0.3592  0.4850
 2026TIP3    H1 6011   5.268   0.685   3.300 -1.5767  1.9424  2.6478
 2026TIP3    H2 6012   5.224   0.540   3.304  2.3955  0.5528 -0.0121
 2027TIP3   OH2 6013   4.905   3.598   0.934 -0.3859 -0.2618  0.0997
 2027TIP3    H1 6014   4.895   3.692   0.920  1.3681  0.0436  0.7106
 2027TIP3    H2 6015   4.816   3.567   0.951 -0.9024  1.3992  0.6101
 2028TIP3   OH2 6016   3.905   0.059   3.794  0.2508  0.5196  0.2976
 2028TIP3    H1 6017   3.878   0.119   3.863 -0.2886 -0.0516  0.5906
 2028TIP3    H2 6018   3.866  -0.025   3.818  0.6480  0.1476 -0.3258
 2029TIP3   OH2 6019   3.331   1.366   3.707  0.4149  0.2361 -0.3172
 2029TIP3    H1 6020   3.274   1.403   3.639  0.5462 -0.5902 -0.8859
 2029TIP3    H2 6021   3.283   1.380   3.788  1.6352  4.0402 -0.1643
 2030TIP3   OH2 6022   8.476   6.721   0.382 -0.4055  0.8288  0.6242
 2030TIP3    H1 6023   8.516   6.794   0.429 -0.1260  0.0197  1.6485
 2030TIP3    H2 6024   8.437   6.667   0.450 -2.0944  0.9099 -0.2661
 2031TIP3   OH2 6025   0.953   6.917   3.704 -0.1646  0.3952 -0.5777
 2031TIP3    H1 6026   1.024   6.948   3.760 -0.9254 -0.0320  0.6414
 2031TIP3    H2 6027   0.958   6.821   3.710 -1.5624  0.3781  0.4385
 2032TIP3   OH2 6028   4.133   0.599   3.299 -0.2931  0.2819 -0.6049
 2032TIP3    H1 6029   4.136   0.657   3.223  1.2230 -0.3228 -1.0292
 2032TIP3    H2 6030   4.123   0.658   3.374 -1.1662  0.9174 -1.2075
 2033TIP3   OH2 6031   3.551   1.243   2.538  0.0958 -0.4465 -0.1143
 2033TIP3    H1 6032   3.519   1.234   2.628 -0.2364  0.8211 -0.1069
 2033TIP3    H2 6033   3.626   1.302   2.545 -0.8077  0.8074 -0.8646
 2034TIP3   OH2 6034   0.555   7.942   1.993 -0.1859  0.3907  0.3301
 2034TIP3    H1 6035   0.499   7.870   2.023 -0.5474  0.0916 -1.0494
 2034TIP3    H2 6036   0.540   7.947   1.899  1.2060  1.0926  0.1254
 2035TIP3   OH2 6037   2.173   6.010   2.903  0.1545 -0.4687 -0.0719
 2035TIP3    H1 6038   2.210   5.923   2.887 -1.5194 -1.2669  0.3252
 2035TIP3    H2 6039   2.117   5.999   2.979  0.2328  1.0680  0.2297
 2036TIP3   OH2 6040   2.098   6.829   1.691 -0.5465 -0.1846 -0.4572
 2036TIP3    H1 6041   2.022   6.860   1.742  0.2255  1.6883 -0.4432
 2036TIP3    H2 6042   2.138   6.908   1.656 -0.3768 -1.3752 -3.0694
 2037TIP3   OH2 6043   4.195   1.760   2.554 -0.0645 -0.0397 -0.5230
 2037TIP3    H1 6044   4.148   1.703   2.493 -0.4225  1.4413 -1.6649
 2037TIP3    H2 6045   4.143   1.841   2.557  0.7584  0.4713  0.5791
 2038TIP3   OH2 6046   3.053   1.048   3.094 -0.2627 -1.1013  0.0135
 2038TIP3    H1 6047   2.987   1.064   3.161  0.3397 -1.2147  0.6342
 2038TIP3    H2 6048   3.126   1.105   3.118 -0.4958 -0.2807 -1.1951
 2039TIP3   OH2 6049   2.519   5.014   2.498 -0.3171  0.2705  0.1421
 2039TIP3    H1 6050   2.452   5.073   2.532  0.1099 -0.1201  1.6584
 2039TIP3    H2 6051   2.471   4.955   2.440 -1.3982 -0.4492  1.7527
 2040TIP3   OH2 6052   5.647   1.776   3.690 -0.3158  0.0375  0.3645
 2040TIP3    H1 6053   5.732   1.817   3.676 -0.7735  0.9302  0.1059
 2040TIP3    H2 6054   5.627   1.792   3.782 -0.7590  0.9480  0.1246
 2041TIP3   OH2 6055   0.353   7.798   3.030  0.2638  0.3433  0.1062
 2041TIP3    H1 6056   0.425   7.735   3.024  0.6952  0.7102  1.3884
 2041TIP3    H2 6057   0.389   7.872   3.079 -0.2970  1.5212 -1.2121
 2042TIP3   OH2 6058   4.310   0.222   2.266 -0.3090 -0.3711 -0.3475
 2042TIP3    H1 6059   4.283   0.196   2.178 -0.0403 -2.3029  0.1161
 2042TIP3    H2 6060   4.235   0.199   2.322  0.3179 -1.0504  0.2185
 2043TIP3   OH2 6061   6.779   3.860   5.572  0.1413  0.9259  0.8773
 2043TIP3    H1 6062   6.871   3.854   5.597 -0.0069 -1.0954  1.0383
 2043TIP3    H2 6063   6.731   3.826   5.647 -0.6070 -0.0407 -0.0171
 2044TIP3   OH2 6064   4.760   0.867   0.673 -0.2277  0.1233 -0.0358
 2044TIP3    H1 6065   4.734   0.856   0.581  2.6048 -0.4111 -0.8575
 2044TIP3    H2 6066   4.818   0.944   0.672  0.1057 -0.1012  1.2275
 2045TIP3   OH2 6067   3.403   0.250   4.917 -0.2103 -0.5887  0.0554
 2045TIP3    H1 6068   3.440   0.180   4.971  1.1687 -0.4939 -0.7432
 2045TIP3    H2 6069   3.342   0.206   4.859  1.6014 -1.3590 -1.3331
 2046TIP3   OH2 6070   0.086   7.504   2.438 -0.0708 -0.0101  0.2735
 2046TIP3    H1 6071   0.080   7.410   2.455  0.6628 -0.1613 -0.2861
 2046TIP3    H2 6072   0.161   7.533   2.490 -0.2380  0.2508  0.3700
 2047TIP3   OH2 6073   0.503   6.311   3.061  0.6067  0.2323  0.4127
 2047TIP3    H1 6074   0.591   6.277   3.075  0.4298 -0.4568 -0.1302
 2047TIP3    H2 6075   0.513   6.406   3.062  1.0161  0.1915  2.5510
 2048TIP3   OH2 6076   3.297   0.371   1.697  0.3400  0.0998 -0.5211
 2048TIP3    H1 6077   3.256   0.285   1.702  1.6958 -0.6238 -1.4736
 2048TIP3    H2 6078   3.376   0.363   1.751  0.1282  0.9523 -0.0761
 2049TIP3   OH2 6079   5.641   1.020   3.641  0.3638 -0.0913  0.0806
 2049TIP3    H1 6080   5.686   1.033   3.724  0.0229 -2.7831  0.7361
 2049TIP3    H2 6081   5.571   1.085   3.640  1.3514  1.0066  1.1577
 2050TIP3   OH2 6082   2.197   7.838   3.620 -0.5084  0.2190  0.1290
 2050TIP3    H1 6083   2.141   7.893   3.566  1.1522  1.4943 -0.3493
 2050TIP3    H2 6084   2.137   7.779   3.665 -2.1007  0.6487 -1.3865
 2051TIP3   OH2 6085   6.982   1.826   5.721 -0.1862 -0.1486 -0.2117
 2051TIP3    H1 6086   7.043   1.755   5.743 -0.0024 -0.4549 -1.6501
 2051TIP3    H2 6087   6.918   1.785   5.662  0.3787  1.0678 -1.6869
 2052TIP3   OH2 6088   0.162   7.183   2.590 -0.2527  0.2098 -0.4201
 2052TIP3    H1 6089   0.142   7.158   2.680  1.2733  0.8365  0.1191
 2052TIP3    H2 6090   0.115   7.120   2.536 -2.8499  1.0652  0.7629
 2053TIP3   OH2 6091   3.001   7.446   2.301 -0.3975  0.1882 -0.2350
 2053TIP3    H1 6092   3.008   7.447   2.397  0.2915 -1.4023 -0.2492
 2053TIP3    H2 6093   2.920   7.397   2.284 -0.9670  1.1941 -0.4616
 2054TIP3   OH2 6094   0.170   6.417   4.521 -0.2598 -0.1774  0.3836
 2054TIP3    H1 6095   0.103   6.458   4.466  1.6279  0.2358 -1.7165
 2054TIP3    H2 6096   0.183   6.478   4.593  1.0627  2.0100 -1.6269
 2055TIP3   OH2 6097   0.734   6.453   2.557 -0.4372  0.2846 -0.8437
 2055TIP3    H1 6098   0.720   6.372   2.606 -0.2417 -0.0664 -1.3571
 2055TIP3    H2 6099   0.682   6.519   2.603 -0.5134 -0.1110 -0.3615
 2056TIP3   OH2 6100   3.144   7.730   6.020 -0.5609 -0.3084  0.2330
 2056TIP3    H1 6101   3.235   7.761   6.023 -0.7967  0.5814 -1.2983
 2056TIP3    H2 6102   3.139   7.677   5.941 -2.0555  1.9611 -1.2697
 2057TIP3   OH2 6103   1.951   7.821   1.460 -0.1940 -0.0499 -0.1529
 2057TIP3    H1 6104   1.954   7.866   1.545  1.0669  0.5200 -0.4852
 2057TIP3    H2 6105   1.897   7.744   1.476 -2.2063  1.4501  0.4817
 2058TIP3   OH2 6106   1.357   7.250   3.158  0.4660  0.6513  0.2846
 2058TIP3    H1 6107   1.269   7.214   3.144  0.2231  1.1749  0.4266
 2058TIP3    H2 6108   1.401   7.238   3.073 -0.4855  2.3740 -0.4828
 2059TIP3   OH2 6109   0.955   7.509   2.677  0.1338  0.1655 -0.0246
 2059TIP3    H1 6110   0.926   7.438   2.620  0.8892 -1.0979  1.1279
 2059TIP3    H2 6111   0.885   7.518   2.742  0.7240 -0.5632  0.7245
 2060TIP3   OH2 6112   4.202   6.218   2.186  0.0722 -0.3303 -1.0249
 2060TIP3    H1 6113   4.192   6.162   2.109  2.0587 -2.2193  0.0368
 2060TIP3    H2 6114   4.147   6.177   2.253  1.4855 -1.0188 -0.2618
 2061TIP3   OH2 6115   4.406   2.307   2.950  0.8030  0.1062  0.3381
 2061TIP3    H1 6116   4.322   2.305   2.996 -0.1005 -0.6528 -1.2887
 2061TIP3    H2 6117   4.441   2.218   2.960  0.5213 -0.1125 -0.5581
 2062TIP3   OH2 6118   2.841   6.824   4.905  0.1088 -0.1319 -0.2414
 2062TIP3    H1 6119   2.750   6.839   4.883  0.0346 -1.0232 -0.5758
 2062TIP3    H2 6120   2.866   6.898   4.961 -0.8210  0.0865 -0.1198
 2063TIP3   OH2 6121   2.619   5.893   4.818 -0.2105 -0.5050 -0.4086
 2063TIP3    H1 6122   2.578   5.942   4.890 -0.7919 -1.4999 -0.0593
 2063TIP3    H2 6123   2.549   5.837   4.785  0.8698 -2.2533  0.2141
 2064TIP3   OH2 6124   3.844   1.443   1.855  0.5320 -0.0807  0.3951
 2064TIP3    H1 6125   3.831   1.348   1.861  1.5389 -0.1932  0.9277
 2064TIP3    H2 6126   3.836   1.473   1.946 -0.8604  0.4997  0.0985
 2065TIP3   OH2 6127   1.657   7.931   1.971 -0.2121  0.0270 -0.1085
 2065TIP3    H1 6128   1.740   7.975   1.954 -0.1623 -0.5525 -1.3931
 2065TIP3    H2 6129   1.675   7.838   1.959 -0.7901 -0.2056  0.7069
 2066TIP3   OH2 6130   3.543   0.437   4.478 -0.2373  0.2987 -0.2408
 2066TIP3    H1 6131   3.482   0.381   4.525  1.1507 -0.1487  1.1028
 2066TIP3    H2 6132   3.537   0.409   4.387  0.6489 -2.2806  0.4458
 2067TIP3   OH2 6133   3.569   0.101   3.588 -0.3289 -0.1273 -0.5853
 2067TIP3    H1 6134   3.600   0.158   3.658  1.2657 -3.3754  1.4899
 2067TIP3    H2 6135   3.647   0.085   3.534 -0.9317  0.1975 -1.5688
 2068TIP3   OH2 6136   2.586   7.243   2.593  0.0112 -0.3300 -0.3867
 2068TIP3    H1 6137   2.505   7.223   2.547 -0.0856  0.5443 -0.6111
 2068TIP3    H2 6138   2.643   7.167   2.578 -0.8467 -1.0530 -0.0228
 2069TIP3   OH2 6139   5.429   3.026   0.529 -0.1812 -0.2994  0.7300
 2069TIP3    H1 6140   5.389   3.025   0.615  2.3882  1.5378  1.9967
 2069TIP3    H2 6141   5.466   2.938   0.518 -3.0762 -1.5063  0.1859
 2070TIP3   OH2 6142   5.491   2.342   5.010 -0.3992 -0.3434  0.2503
 2070TIP3    H1 6143   5.560   2.293   5.054  0.2060  1.4387  1.3577
 2070TIP3    H2 6144   5.411   2.319   5.057 -0.5907 -2.4282 -1.0459
 2071TIP3   OH2 6145   5.998   1.237   2.762 -0.3063  0.4736  0.0327
 2071TIP3    H1 6146   6.089   1.260   2.746  0.1105 -0.6468  0.7335
 2071TIP3    H2 6147   5.979   1.275   2.848 -0.4348  0.5259 -0.0190
 2072TIP3   OH2 6148   7.518   0.240   4.406  0.9260  0.1922  0.6610
 2072TIP3    H1 6149   7.548   0.316   4.356  0.7761 -1.0288 -1.3352
 2072TIP3    H2 6150   7.430   0.265   4.437  1.1219  1.0530  0.5371
 2073TIP3   OH2 6151   6.365   1.816   0.790 -0.5068  0.5222  0.0271
 2073TIP3    H1 6152   6.300   1.876   0.825  0.3602  1.0941  0.6825
 2073TIP3    H2 6153   6.320   1.732   0.784 -1.3531  0.9547  0.2904
 2074TIP3   OH2 6154   4.199   1.381   2.034  0.0526  0.0801 -0.0695
 2074TIP3    H1 6155   4.129   1.316   2.041 -0.3507  0.2808 -2.0502
 2074TIP3    H2 6156   4.222   1.401   2.125 -1.7308 -0.7648  0.5916
 2075TIP3   OH2 6157   5.567   0.347   2.973 -0.4617 -0.3696  0.0675
 2075TIP3    H1 6158   5.643   0.314   2.925  1.4603 -0.0035  2.7317
 2075TIP3    H2 6159   5.546   0.277   3.035 -1.7273 -0.0734 -0.0082
 2076TIP3   OH2 6160   4.867   1.696   1.977  0.0238 -0.1953  0.0090
 2076TIP3    H1 6161   4.786   1.664   2.018 -1.1634  1.3539 -1.0652
 2076TIP3    H2 6162   4.839   1.729   1.892  1.6935  0.9344 -0.1193
 2077TIP3   OH2 6163   5.730   0.629   3.876  0.0234  0.3012  0.3575
 2077TIP3    H1 6164   5.777   0.706   3.844  0.0100  0.7369  1.3716
 2077TIP3    H2 6165   5.765   0.557   3.823  1.8248  0.6231  1.0662
 2078TIP3   OH2 6166   0.331   6.965   2.504 -0.5930 -0.1236 -0.1419
 2078TIP3    H1 6167   0.273   6.938   2.433 -1.5451 -1.9448  1.2933
 2078TIP3    H2 6168   0.323   6.896   2.569  2.1814  0.2587  0.6674
 2079TIP3   OH2 6169   8.422   7.488   3.020  0.3566 -0.3220 -0.4126
 2079TIP3    H1 6170   8.495   7.490   2.958 -0.8207  1.2375 -1.8066
 2079TIP3    H2 6171   8.367   7.416   2.990  1.3653 -1.5681  0.7045
 2080TIP3   OH2 6172   5.520   1.447   2.534 -0.1408  0.2853  0.2002
 2080TIP3    H1 6173   5.567   1.448   2.618  0.9378 -0.4043 -0.3764
 2080TIP3    H2 6174   5.589   1.439   2.468 -1.0879 -1.0027 -0.6567
 2081TIP3   OH2 6175   6.309   0.854   2.367 -0.7836  0.4268  0.3986
 2081TIP3    H1 6176   6.243   0.840   2.300 -0.2184 -0.8824  0.1078
 2081TIP3    H2 6177   6.359   0.929   2.337 -1.6651  0.9652  0.2583
 2082TIP3   OH2 6178   3.467   0.267   1.903 -0.3804 -0.1825 -0.2677
 2082TIP3    H1 6179   3.385   0.237   1.942 -0.6822  1.0732  0.1046
 2082TIP3    H2 6180   3.501   0.331   1.966  1.3812 -1.4113  0.0384
 2083TIP3   OH2 6181   1.523   6.817   3.928  0.4512  0.6181  0.3196
 2083TIP3    H1 6182   1.438   6.809   3.970  0.4317  0.8964  0.3291
 2083TIP3    H2 6183   1.586   6.810   4.000  0.4204  1.0127  0.3830
 2084TIP3   OH2 6184   1.895   7.363   0.127 -0.2878 -0.3908  0.0770
 2084TIP3    H1 6185   1.985   7.394   0.127 -0.5013  0.2338  0.6285
 2084TIP3    H2 6186   1.873   7.353   0.034  0.1635 -0.0218 -0.0690
 2085TIP3   OH2 6187   1.226   7.049   2.240  0.7579 -0.4616  0.1186
 2085TIP3    H1 6188   1.306   7.027   2.192  0.5339 -1.1204  0.0389
 2085TIP3    H2 6189   1.191   6.964   2.268  0.2014 -0.1633  0.3378
 2086TIP3   OH2 6190   4.280   0.067   1.903  0.0345  0.2842 -0.3241
 2086TIP3    H1 6191   4.360   0.015   1.911  0.5196  0.8928 -1.1384
 2086TIP3    H2 6192   4.311   0.156   1.886 -0.8198  0.5026 -0.7629
 2087TIP3   OH2 6193   4.411   0.273   3.050 -0.2987 -0.3542 -0.6209
 2087TIP3    H1 6194   4.382   0.339   3.114  2.3025 -0.9414  1.2827
 2087TIP3    H2 6195   4.369   0.192   3.079 -0.3383 -0.3182 -0.5777
 2088TIP3   OH2 6196   5.016   0.306   0.076  0.0267 -0.0557 -0.1203
 2088TIP3    H1 6197   4.947   0.358   0.035 -1.2795 -0.3165  1.7019
 2088TIP3    H2 6198   5.046   0.247   0.006 -1.2725  0.3709 -1.0576
 2089TIP3   OH2 6199   3.022   1.879   5.155  0.3011 -0.2894 -0.2516
 2089TIP3    H1 6200   3.051   1.851   5.242 -0.9274 -1.0615 -0.0869
 2089TIP3    H2 6201   2.945   1.934   5.171  0.4975  0.1594 -0.8133
 2090TIP3   OH2 6202   5.675   3.512   5.028  0.0177  0.0744 -0.3731
 2090TIP3    H1 6203   5.631   3.428   5.015  0.1128 -0.1219  0.5389
 2090TIP3    H2 6204   5.700   3.539   4.940 -0.6980 -0.4766 -0.7585
 2091TIP3   OH2 6205   0.780   2.715   1.679  0.3455  0.2854  0.0297
 2091TIP3    H1 6206   0.805   2.635   1.727 -0.4934  0.3374  0.5656
 2091TIP3    H2 6207   0.739   2.770   1.745 -2.9719 -0.5916 -1.2166
 2092TIP3   OH2 6208   4.734   1.434   2.288  0.7059  0.0287  0.7508
 2092TIP3    H1 6209   4.828   1.416   2.282  0.9821  1.8634 -0.9827
 2092TIP3    H2 6210   4.694   1.376   2.224  0.9340  0.9977 -0.2848
 2093TIP3   OH2 6211   4.938   1.311   4.146 -0.1423  0.0157 -0.3881
 2093TIP3    H1 6212   4.886   1.382   4.108  1.1363  0.9322 -0.4314
 2093TIP3    H2 6213   4.952   1.337   4.237  1.5502  0.5162 -0.7903
 2094TIP3   OH2 6214   2.112   6.787   3.672  0.4687 -0.2651 -0.0009
 2094TIP3    H1 6215   2.032   6.756   3.630  0.2287 -0.5305  0.6371
 2094TIP3    H2 6216   2.172   6.806   3.600 -0.0200 -0.4782 -0.4641
 2095TIP3   OH2 6217   2.173   1.747   3.399 -1.8571  0.1376  0.1660
 2095TIP3    H1 6218   2.235   1.803   3.446 -0.9832  0.1149 -0.9290
 2095TIP3    H2 6219   2.127   1.805   3.339 -3.5312  0.3062  1.5743
 2096TIP3   OH2 6220   3.266   0.225   3.981 -0.0330  0.2460 -0.6957
 2096TIP3    H1 6221   3.226   0.295   3.929  0.7057 -1.1814 -3.3028
 2096TIP3    H2 6222   3.199   0.157   3.986  0.7241 -0.6298 -1.9490
 2097TIP3   OH2 6223   2.716   0.594   3.738 -0.0645  0.0392 -0.5093
 2097TIP3    H1 6224   2.700   0.506   3.772  0.7435  0.0735 -0.0407
 2097TIP3    H2 6225   2.666   0.597   3.656 -0.0257 -0.8831 -0.5701
 2098TIP3   OH2 6226   4.071   2.745   2.160 -0.0334 -0.1106 -0.2425
 2098TIP3    H1 6227   4.107   2.824   2.199 -1.1113 -0.0989  0.7610
 2098TIP3    H2 6228   3.987   2.772   2.124  0.1057 -0.5478 -0.8903
 2099TIP3   OH2 6229   1.200   7.282   1.386  0.3304 -0.3991 -0.0252
 2099TIP3    H1 6230   1.230   7.305   1.298 -0.6215  3.0127  0.4731
 2099TIP3    H2 6231   1.271   7.310   1.444  0.0888 -0.7948  0.4707
 2100TIP3   OH2 6232   6.031   1.851   4.488  0.1110  0.1246 -0.1158
 2100TIP3    H1 6233   5.991   1.764   4.496 -1.7092  1.0827  1.6681
 2100TIP3    H2 6234   6.064   1.853   4.398 -0.4990 -2.1273 -0.4347
 2101TIP3   OH2 6235   4.263   7.936   2.316 -0.1426 -0.6586  0.2386
 2101TIP3    H1 6236   4.328   7.879   2.275  0.1380 -1.4931  1.8054
 2101TIP3    H2 6237   4.185   7.881   2.323  0.6241 -1.4457  3.2805
 2102TIP3   OH2 6238   8.266   1.699   1.670  0.2446  0.1152  0.5306
 2102TIP3    H1 6239   8.336   1.760   1.645  0.7342 -0.2486  1.0126
 2102TIP3    H2 6240   8.311   1.616   1.685 -0.5659 -0.6367 -1.1385
 2103TIP3   OH2 6241   5.904   0.856   3.308 -0.3337  0.5466 -0.1646
 2103TIP3    H1 6242   5.836   0.802   3.268 -0.2127 -1.0053  1.6463
 2103TIP3    H2 6243   5.857   0.931   3.345 -1.0797 -0.4842  1.0190
 2104TIP3   OH2 6244   8.245   0.732   2.148 -0.2764 -0.0978 -0.5440
 2104TIP3    H1 6245   8.211   0.646   2.122 -0.1212 -0.4587  0.4280
 2104TIP3    H2 6246   8.337   0.730   2.121 -0.1365 -0.4428 -0.0614
 2105TIP3   OH2 6247   6.220   1.468   1.438 -0.1603 -0.1130 -0.3954
 2105TIP3    H1 6248   6.217   1.519   1.519  0.1144  1.0237 -1.0914
 2105TIP3    H2 6249   6.312   1.444   1.428 -0.2533 -0.5598 -0.1847
 2106TIP3   OH2 6250   6.673   2.343   1.690  0.0507  0.4742  0.1281
 2106TIP3    H1 6251   6.583   2.345   1.657  0.0737 -1.4650 -0.1559
 2106TIP3    H2 6252   6.675   2.406   1.762 -0.8954  2.2731 -1.3779
 2107TIP3   OH2 6253   4.531   1.405   4.198  0.2033  0.3514 -0.0242
 2107TIP3    H1 6254   4.558   1.497   4.195 -0.5607  0.6073  0.7427
 2107TIP3    H2 6255   4.553   1.371   4.112  1.0129  1.1092 -0.1255
 2108TIP3   OH2 6256   3.174   7.576   1.853 -0.0121 -0.4116 -0.1389
 2108TIP3    H1 6257   3.179   7.493   1.807  1.1516 -0.0363 -0.7125
 2108TIP3    H2 6258   3.121   7.558   1.931  2.1590 -2.2543  0.9789
 2109TIP3   OH2 6259   0.060   3.136   3.130  0.1286  0.2977  0.8212
 2109TIP3    H1 6260   0.039   3.099   3.216  0.0628  0.3428  0.8248
 2109TIP3    H2 6261  -0.014   3.113   3.075  1.3492 -1.9743  0.0908
 2110TIP3   OH2 6262   7.034   1.008   4.948  0.1992  0.5793  0.0029
 2110TIP3    H1 6263   7.105   1.064   4.978 -0.5392  0.1602  2.7022
 2110TIP3    H2 6264   7.078   0.926   4.924  0.5480 -0.2146  3.0894
 2111TIP3   OH2 6265   0.227   7.670   2.631 -0.6892 -0.0458  0.4550
 2111TIP3    H1 6266   0.267   7.718   2.704  0.4805 -1.8419  1.0496
 2111TIP3    H2 6267   0.150   7.721   2.607  0.6344  2.1964  0.9185
 2112TIP3   OH2 6268   8.335   1.524   2.480 -0.2289  0.1266 -0.3083
 2112TIP3    H1 6269   8.384   1.457   2.527 -0.5175  0.5393  0.5923
 2112TIP3    H2 6270   8.244   1.493   2.482  0.0864 -1.0708 -2.7162
 2113TIP3   OH2 6271   7.821   0.149   3.260  0.0240 -0.4942 -0.1338
 2113TIP3    H1 6272   7.740   0.098   3.259 -0.1419 -0.2320 -1.7714
 2113TIP3    H2 6273   7.803   0.223   3.201  0.9783  0.3209  0.5887
 2114TIP3   OH2 6274   3.153   7.030   1.034 -0.0931  0.4457 -0.1298
 2114TIP3    H1 6275   3.246   7.037   1.013  0.3517 -0.3251  1.4617
 2114TIP3    H2 6276   3.109   7.037   0.950  1.4367  0.3343 -0.9633
 2115TIP3   OH2 6277   1.907   7.711   2.301 -0.3574 -0.4582  1.1771
 2115TIP3    H1 6278   1.978   7.770   2.323 -0.9297  0.1152  1.5200
 2115TIP3    H2 6279   1.836   7.768   2.272  0.4639 -1.2031 -2.4852
 2116TIP3   OH2 6280   6.272   1.290   2.542 -0.5937 -0.2001 -1.4208
 2116TIP3    H1 6281   6.241   1.375   2.573 -1.5315 -1.5245  1.3945
 2116TIP3    H2 6282   6.365   1.303   2.523 -0.5441  1.2446 -0.2347
 2117TIP3   OH2 6283   2.339   7.151   2.425  0.1843 -0.0974  0.2495
 2117TIP3    H1 6284   2.369   7.062   2.443 -0.7099 -0.8621 -1.8124
 2117TIP3    H2 6285   2.244   7.148   2.440 -0.1089  0.0369 -1.4871
 2118TIP3   OH2 6286   4.900   1.206   2.249 -0.5317 -0.5291  0.0355
 2118TIP3    H1 6287   4.953   1.200   2.329  0.3100  1.3287 -0.3460
 2118TIP3    H2 6288   4.962   1.187   2.178 -0.8192 -0.2666 -0.2893
 2119TIP3   OH2 6289   2.920   5.833   1.902  0.2755 -0.0841 -0.1492
 2119TIP3    H1 6290   2.855   5.824   1.972  1.1031  0.2833  0.6752
 2119TIP3    H2 6291   2.934   5.744   1.871 -1.1709 -0.0809 -0.8352
 2120TIP3   OH2 6292   1.849   7.989   2.775 -0.2967 -0.0226 -0.3095
 2120TIP3    H1 6293   1.922   8.036   2.733  1.9391 -1.5572  1.6834
 2120TIP3    H2 6294   1.837   7.911   2.721 -0.2314  0.0768 -0.4691
 2121TIP3   OH2 6295   3.676   7.360   2.949  0.4555 -0.0341  0.2042
 2121TIP3    H1 6296   3.749   7.332   2.893  1.3421 -0.3295  1.4669
 2121TIP3    H2 6297   3.659   7.450   2.924  0.5217 -0.3125 -0.8668
 2122TIP3   OH2 6298   7.766   0.573   1.067  0.5151  0.7980  0.1556
 2122TIP3    H1 6299   7.763   0.585   0.972 -0.1433  1.1248  0.2123
 2122TIP3    H2 6300   7.859   0.583   1.090  0.5886  1.3492 -0.3731
 2123TIP3   OH2 6301   3.665   6.312   2.698 -0.0217  0.0216 -0.1586
 2123TIP3    H1 6302   3.586   6.365   2.713 -1.0504 -1.2650 -0.9408
 2123TIP3    H2 6303   3.657   6.239   2.760  2.0838  1.4606  1.9029
 2124TIP3   OH2 6304   5.789   7.905   2.677 -0.1625  0.0244  0.3168
 2124TIP3    H1 6305   5.867   7.920   2.623  0.4348 -0.1004  1.1437
 2124TIP3    H2 6306   5.805   7.820   2.719 -1.2735 -0.5587 -0.4196
 2125TIP3   OH2 6307   6.713   1.853   3.970 -0.2129 -0.3480  0.2073
 2125TIP3    H1 6308   6.642   1.803   3.929 -2.2578  1.4238  1.4967
 2125TIP3    H2 6309   6.738   1.918   3.904 -1.2379  0.3644  0.5021
 2126TIP3   OH2 6310   6.140   0.790   2.766 -0.4019 -0.2238 -0.1539
 2126TIP3    H1 6311   6.076   0.732   2.726  0.7204 -0.9438 -0.9397
 2126TIP3    H2 6312   6.092   0.871   2.784 -1.9719 -1.3740  0.9405
 2127TIP3   OH2 6313   5.846   2.123   2.592  0.3064 -0.0569  0.0482
 2127TIP3    H1 6314   5.859   2.131   2.687 -0.7273 -0.6417  0.2456
 2127TIP3    H2 6315   5.906   2.053   2.566 -0.7202 -1.1694  0.5870
 2128TIP3   OH2 6316   1.668   7.881   3.833  0.0548  0.0301 -0.5439
 2128TIP3    H1 6317   1.677   7.787   3.849 -1.6975  0.0549  0.6938
 2128TIP3    H2 6318   1.635   7.887   3.744 -1.1331 -0.6102 -0.1640
 2129TIP3   OH2 6319   6.482   1.588   1.991  0.0129 -0.4597  0.1253
 2129TIP3    H1 6320   6.473   1.639   2.071  0.9355 -0.9137  0.5158
 2129TIP3    H2 6321   6.404   1.532   1.990 -0.7874  0.6305 -0.0898
 2130TIP3   OH2 6322   8.225   0.395   3.177  0.1371 -0.0833 -0.0325
 2130TIP3    H1 6323   8.160   0.454   3.216  1.1143  0.2326  1.1716
 2130TIP3    H2 6324   8.307   0.443   3.183  1.1169 -1.9123  1.8291
 2131TIP3   OH2 6325   7.422   0.845   2.921 -0.3207  0.4507 -0.5944
 2131TIP3    H1 6326   7.333   0.842   2.957 -0.8304 -0.0739 -1.8889
 2131TIP3    H2 6327   7.410   0.862   2.828  0.8579 -1.4364 -1.1103
 2132TIP3   OH2 6328   1.807   5.959   2.297 -0.0972  0.3154  0.0901
 2132TIP3    H1 6329   1.798   5.866   2.273  0.2058  0.2983  0.0357
 2132TIP3    H2 6330   1.812   6.005   2.213 -1.3728  0.5048  0.1045
 2133TIP3   OH2 6331   5.008   7.545   3.632  0.5239  0.0347  0.5328
 2133TIP3    H1 6332   5.039   7.519   3.545  1.4479 -1.6253  1.3317
 2133TIP3    H2 6333   4.935   7.485   3.651  0.4666  0.2431  0.9929
 2134TIP3   OH2 6334   4.878   0.858   5.242  0.0310  0.0422  0.5844
 2134TIP3    H1 6335   4.880   0.781   5.298  0.3411  0.5117  1.2229
 2134TIP3    H2 6336   4.968   0.891   5.242  0.5030 -1.1255 -1.8424
 2135TIP3   OH2 6337   7.764   2.196   2.505 -0.0230  0.1158 -0.2006
 2135TIP3    H1 6338   7.837   2.201   2.567 -1.1963  0.1339  1.1993
 2135TIP3    H2 6339   7.726   2.283   2.504  0.1913  0.2060 -1.2151
 2136TIP3   OH2 6340   4.865   7.732   3.243  0.0968  0.0613 -0.2942
 2136TIP3    H1 6341   4.838   7.766   3.158 -0.4553 -0.8411 -0.4813
 2136TIP3    H2 6342   4.798   7.763   3.304  0.2134  0.2663 -0.2679
 2137TIP3   OH2 6343   5.256   3.128   5.268  0.1568  0.0495 -0.5906
 2137TIP3    H1 6344   5.319   3.146   5.337 -0.5258  1.8305 -0.3933
 2137TIP3    H2 6345   5.240   3.034   5.273  2.0034 -0.2476  0.0179
 2138TIP3   OH2 6346   4.775   1.785   3.191 -0.3903 -0.1816  0.5877
 2138TIP3    H1 6347   4.814   1.831   3.266 -0.3926  0.7735  0.0084
 2138TIP3    H2 6348   4.847   1.772   3.131 -1.0368  2.1603 -0.7713
 2139TIP3   OH2 6349   7.733   2.996   3.409 -0.0351  0.0888 -0.2893
 2139TIP3    H1 6350   7.750   2.993   3.315  1.4401 -1.0207 -0.0201
 2139TIP3    H2 6351   7.759   2.909   3.440 -3.5831 -0.7052  0.6600
 2140TIP3   OH2 6352   6.517   1.108   2.689  0.3797  0.2173  0.5761
 2140TIP3    H1 6353   6.547   1.196   2.666  0.2386  0.3431  0.8692
 2140TIP3    H2 6354   6.593   1.052   2.674  0.0507  0.1658 -0.9981
 2141TIP3   OH2 6355   5.717   0.525   3.288  0.0766 -0.3882 -0.1349
 2141TIP3    H1 6356   5.713   0.467   3.212  1.9991  0.2467 -0.7629
 2141TIP3    H2 6357   5.724   0.613   3.250 -0.4401  0.0498  0.7898
 2142TIP3   OH2 6358   6.759   0.979   2.636 -0.2895 -0.1677  0.5378
 2142TIP3    H1 6359   6.799   1.036   2.701  0.0333 -1.0299  1.1147
 2142TIP3    H2 6360   6.762   0.892   2.676 -0.5410 -0.6261 -0.4230
 2143TIP3   OH2 6361   6.572   1.475   3.655  0.0648  0.1810  0.1371
 2143TIP3    H1 6362   6.532   1.532   3.721  0.6623  0.7744 -0.0020
 2143TIP3    H2 6363   6.640   1.427   3.703  1.4419  1.6343 -0.3277
 2144TIP3   OH2 6364   4.054   2.431   3.217 -0.2531 -0.3541 -0.1134
 2144TIP3    H1 6365   4.024   2.381   3.293  0.8025 -0.4998  0.2141
 2144TIP3    H2 6366   3.975   2.475   3.185 -0.8769 -0.9730  0.5456
 2145TIP3   OH2 6367   5.263   0.420   4.543 -0.2094 -0.2961 -0.0404
 2145TIP3    H1 6368   5.310   0.501   4.560  1.4654 -1.3220  0.2459
 2145TIP3    H2 6369   5.226   0.432   4.456 -0.4942  1.0020  0.2374
 2146TIP3   OH2 6370   1.817   6.411   2.149 -0.6690  0.8583 -0.0968
 2146TIP3    H1 6371   1.819   6.484   2.210 -1.4010  0.6683  0.1550
 2146TIP3    H2 6372   1.792   6.336   2.202  1.4180  0.1582 -0.0861
 2147TIP3   OH2 6373   7.784   0.881   2.677  0.0167 -0.1443  0.0005
 2147TIP3    H1 6374   7.753   0.890   2.767  0.5074  0.0407  0.1539
 2147TIP3    H2 6375   7.726   0.937   2.626  1.5743  2.1395  0.6270
 2148TIP3   OH2 6376   6.033   0.451   5.357 -1.0583 -0.1078 -0.5051
 2148TIP3    H1 6377   5.999   0.374   5.402 -0.2283 -0.9562 -1.3120
 2148TIP3    H2 6378   5.964   0.476   5.296 -1.6663  0.2944  0.3291
 2149TIP3   OH2 6379   7.086   1.259   3.357 -0.2565  0.4732 -0.1138
 2149TIP3    H1 6380   7.019   1.315   3.319 -0.4029  0.4290  0.0788
 2149TIP3    H2 6381   7.165   1.313   3.358 -0.1920  0.3888 -0.7145
 2150TIP3   OH2 6382   4.003   1.686   1.954  0.0607  0.0316  0.2168
 2150TIP3    H1 6383   4.072   1.636   1.997 -0.0457  0.7452  1.2336
 2150TIP3    H2 6384   3.984   1.638   1.874  1.2705 -0.5297  0.2680
 2151TIP3   OH2 6385   3.916   7.367   1.205  0.3662 -0.1297 -0.8381
 2151TIP3    H1 6386   3.924   7.450   1.158 -0.4346  1.2292  1.3127
 2151TIP3    H2 6387   3.830   7.334   1.180 -0.0493  0.5764 -0.3623
 2152TIP3   OH2 6388   2.307   7.623   2.564 -0.3682 -0.9306 -0.4136
 2152TIP3    H1 6389   2.396   7.614   2.597 -0.2736 -0.4433 -0.5330
 2152TIP3    H2 6390   2.253   7.633   2.642 -0.1100  0.5241 -0.4005
 2153TIP3   OH2 6391   5.364   0.394   1.976 -0.0420 -0.4047 -0.1203
 2153TIP3    H1 6392   5.413   0.428   2.050 -0.3593 -1.8416  0.7616
 2153TIP3    H2 6393   5.282   0.443   1.977 -1.2660 -2.3907  2.2496
 2154TIP3   OH2 6394   3.980   2.274   2.084  0.0237 -0.3684  0.1081
 2154TIP3    H1 6395   3.977   2.178   2.083 -1.6371 -0.3159 -1.0304
 2154TIP3    H2 6396   3.933   2.299   2.164  2.1147 -0.5189  1.4385
 2155TIP3   OH2 6397   5.260   0.715   1.896 -0.1135 -0.0455  0.2089
 2155TIP3    H1 6398   5.225   0.800   1.921 -2.7546 -0.1627 -2.8896
 2155TIP3    H2 6399   5.184   0.659   1.886  1.3151 -1.7664 -1.4855
 2156TIP3   OH2 6400   2.850   7.588   0.782  0.2009 -0.0211 -0.5061
 2156TIP3    H1 6401   2.830   7.671   0.738  0.0520 -0.0564 -0.5048
 2156TIP3    H2 6402   2.869   7.613   0.872 -0.3732 -0.0461 -0.3764
 2157TIP3   OH2 6403   4.772   0.027   1.938  0.4964 -0.4496 -0.3577
 2157TIP3    H1 6404   4.769   0.037   1.843  0.2747  0.0067 -0.3040
 2157TIP3    H2 6405   4.863   0.004   1.957  0.5419 -0.5405 -0.6772
 2158TIP3   OH2 6406   7.213   0.788   1.665  0.0467 -0.4618  0.1034
 2158TIP3    H1 6407   7.119   0.800   1.659  0.2262  1.2772  0.4054
 2158TIP3    H2 6408   7.224   0.706   1.713 -1.3054 -0.5209  0.3232
 2159TIP3   OH2 6409   5.166   7.301   3.184 -0.0457 -0.3387  0.3224
 2159TIP3    H1 6410   5.252   7.286   3.147 -0.4884 -0.6716 -0.5826
 2159TIP3    H2 6411   5.153   7.396   3.180  0.0597 -0.3403 -0.0186
 2160TIP3   OH2 6412   1.824   7.419   1.581 -0.1641 -0.3264 -0.1441
 2160TIP3    H1 6413   1.769   7.343   1.559 -0.5583 -0.0534 -0.1112
 2160TIP3    H2 6414   1.761   7.490   1.596  0.2940  0.7165 -2.8579
 2161TIP3   OH2 6415   6.636   0.343   3.243  0.4853  0.3447 -0.1588
 2161TIP3    H1 6416   6.724   0.377   3.260  0.3713  1.0522 -0.9094
 2161TIP3    H2 6417   6.582   0.380   3.313  1.1122 -1.5813  1.3887
 2162TIP3   OH2 6418   7.696   0.274   1.672  0.3559 -0.3567 -0.3501
 2162TIP3    H1 6419   7.650   0.298   1.753  0.3132 -1.5040 -0.0293
 2162TIP3    H2 6420   7.627   0.269   1.606  0.3779  0.4843 -0.4502
 2163TIP3   OH2 6421   4.643   0.084   0.023  0.5296  0.5927  0.5125
 2163TIP3    H1 6422   4.578   0.150  -0.002  2.4597  1.6046 -1.9736
 2163TIP3    H2 6423   4.727   0.129   0.017  1.7043 -1.4991  0.9022
 2164TIP3   OH2 6424   6.568   1.024   1.386  0.0227  0.1301  0.0122
 2164TIP3    H1 6425   6.488   1.021   1.333 -0.6420  0.3640  0.9739
 2164TIP3    H2 6426   6.552   0.963   1.458  1.4971 -1.2691 -0.8223
 2165TIP3   OH2 6427   4.966   3.216   4.797  0.4524  0.3441 -0.4891
 2165TIP3    H1 6428   4.987   3.156   4.726  0.9492  0.0349 -0.0849
 2165TIP3    H2 6429   5.029   3.195   4.866  0.5907  1.2888 -0.3220
 2166TIP3   OH2 6430   4.793   0.948   2.889 -0.3779 -0.6011  0.3153
 2166TIP3    H1 6431   4.816   1.012   2.823  2.2318  0.0181  1.7557
 2166TIP3    H2 6432   4.731   0.993   2.947 -1.2250 -0.5491 -0.6223
 2167TIP3   OH2 6433   4.179   1.151   2.371 -0.3247  0.1938 -0.3113
 2167TIP3    H1 6434   4.245   1.218   2.353  1.3861 -0.8388  1.8701
 2167TIP3    H2 6435   4.097   1.190   2.342  0.7235  3.0296  0.3707
 2168TIP3   OH2 6436   5.356   0.676   4.638 -0.5097 -0.5776  0.2655
 2168TIP3    H1 6437   5.387   0.766   4.647 -1.1969 -0.1141 -1.7050
 2168TIP3    H2 6438   5.267   0.677   4.672 -1.0463 -0.1476 -1.0977
 2169TIP3   OH2 6439   4.943   0.633   2.284  0.0344 -0.1912  0.0268
 2169TIP3    H1 6440   4.866   0.661   2.334  0.1987  3.3753 -1.5935
 2169TIP3    H2 6441   5.011   0.697   2.307  1.3549 -1.0157 -1.5263
 2170TIP3   OH2 6442   0.635   2.305   2.704  0.2710 -0.2861  0.2209
 2170TIP3    H1 6443   0.606   2.296   2.613  0.6824  0.6248 -0.0108
 2170TIP3    H2 6444   0.727   2.328   2.697 -0.0451  1.2092  0.8278
 2171TIP3   OH2 6445   5.733   2.423   2.954  0.3663 -0.7996  0.0044
 2171TIP3    H1 6446   5.818   2.457   2.982  0.4286 -0.4948 -0.5558
 2171TIP3    H2 6447   5.754   2.351   2.894  0.2369  0.5813 -1.7235
 2172TIP3   OH2 6448   6.081   7.913   5.076 -0.1936 -0.0423 -0.0341
 2172TIP3    H1 6449   6.037   7.850   5.019  0.6805  0.2601 -1.0590
 2172TIP3    H2 6450   6.160   7.938   5.028 -0.2642  1.4438  0.5952
 2173TIP3   OH2 6451   4.575   0.331   4.046  0.3495  0.0072 -0.1723
 2173TIP3    H1 6452   4.571   0.356   4.138 -1.6549 -1.7236  0.2463
 2173TIP3    H2 6453   4.622   0.247   4.046  0.9014  0.3101 -0.7978
 2174TIP3   OH2 6454   5.698   1.689   0.324 -0.0083 -0.5672 -0.4276
 2174TIP3    H1 6455   5.651   1.770   0.306  1.9259  1.1829  2.0127
 2174TIP3    H2 6456   5.783   1.701   0.283  0.4704 -1.1204  0.3764
 2175TIP3   OH2 6457   5.414   2.413   1.999  0.0444  0.4010 -0.1562
 2175TIP3    H1 6458   5.331   2.366   1.987 -0.5678  1.1946  0.8786
 2175TIP3    H2 6459   5.436   2.401   2.091  2.4634 -1.9911 -0.9839
 2176TIP3   OH2 6460   6.917   1.132   3.836 -0.0730  0.3361 -0.0973
 2176TIP3    H1 6461   6.975   1.114   3.762 -1.1493 -2.7445 -0.2432
 2176TIP3    H2 6462   6.829   1.117   3.802 -0.5752 -1.3676  1.8545
 2177TIP3   OH2 6463   2.659   5.971   6.908  0.6127  0.2981 -0.0580
 2177TIP3    H1 6464   2.641   5.993   6.816 -0.5078 -0.2549  0.0299
 2177TIP3    H2 6465   2.608   6.034   6.958  1.6190  0.9247  0.1982
 2178TIP3   OH2 6466   7.722   0.073   3.850 -0.0793 -0.1693  0.2139
 2178TIP3    H1 6467   7.687   0.037   3.931  1.0837  2.5040  1.9792
 2178TIP3    H2 6468   7.652   0.130   3.817 -0.3990 -0.9454 -0.4511
 2179TIP3   OH2 6469   5.118   0.996   3.695 -0.1151  0.0364  0.7608
 2179TIP3    H1 6470   5.180   0.950   3.753 -0.2322  2.2191  2.7015
 2179TIP3    H2 6471   5.052   0.930   3.674  1.0301 -1.3827  1.4588
 2180TIP3   OH2 6472   3.121   7.062   0.637  0.4351  0.3555  0.4610
 2180TIP3    H1 6473   3.198   7.102   0.678 -0.0126  1.6895  0.0348
 2180TIP3    H2 6474   3.153   6.979   0.602  1.5221  0.5842  0.8875
 2181TIP3   OH2 6475   6.163   7.130   2.452  0.1312  0.0229  0.2829
 2181TIP3    H1 6476   6.166   7.148   2.546  0.3427  1.0104  0.0946
 2181TIP3    H2 6477   6.238   7.074   2.435 -1.4892 -2.5316  1.1785
 2182TIP3   OH2 6478   7.871   1.273   2.235 -0.2911 -0.1649 -0.2806
 2182TIP3    H1 6479   7.864   1.349   2.293 -2.5921 -0.0920 -0.5867
 2182TIP3    H2 6480   7.912   1.307   2.156 -1.0321  0.7244 -0.2994
 2183TIP3   OH2 6481   4.663   1.308   4.439 -0.0320 -0.3363 -0.2778
 2183TIP3    H1 6482   4.599   1.349   4.382 -1.0137 -0.5309  0.6723
 2183TIP3    H2 6483   4.627   1.221   4.458  0.9177 -0.7710 -0.4244
 2184TIP3   OH2 6484   6.973   1.603   1.113  0.3003 -0.4723 -0.2000
 2184TIP3    H1 6485   7.045   1.663   1.130  1.0200 -1.0467 -1.2033
 2184TIP3    H2 6486   6.903   1.659   1.079  0.7960 -0.1290 -0.6641
 2185TIP3   OH2 6487   7.226   1.374   4.403  0.1498  0.1837 -0.2505
 2185TIP3    H1 6488   7.152   1.335   4.450  0.1458 -0.3198 -0.6666
 2185TIP3    H2 6489   7.298   1.369   4.466  0.1926 -0.6723 -0.3529
 2186TIP3   OH2 6490   7.832   3.076   4.132 -0.1388 -0.1460 -0.5938
 2186TIP3    H1 6491   7.740   3.053   4.149  0.0273  0.0054  0.5407
 2186TIP3    H2 6492   7.881   3.000   4.163  0.1511  0.0254 -0.6382
 2187TIP3   OH2 6493   3.209   7.593   0.448  0.4296  0.5806  0.5303
 2187TIP3    H1 6494   3.113   7.596   0.448  0.3958 -0.3427  0.1517
 2187TIP3    H2 6495   3.233   7.599   0.355  0.6518 -1.4036  0.4389
 2188TIP3   OH2 6496   8.240   0.775   1.146  0.5413 -0.6496  0.3599
 2188TIP3    H1 6497   8.267   0.860   1.112 -1.6662 -0.3518 -0.7720
 2188TIP3    H2 6498   8.252   0.781   1.241  0.9678  0.7087  0.2206
 2189TIP3   OH2 6499   5.476   0.789   2.409 -0.2430 -0.3693 -0.7989
 2189TIP3    H1 6500   5.521   0.786   2.325 -0.8083  0.1364 -1.1258
 2189TIP3    H2 6501   5.486   0.880   2.439  0.7167 -0.7628  0.1037
 2190TIP3   OH2 6502   6.966   0.482   2.627  0.4760 -0.6120  0.0302
 2190TIP3    H1 6503   6.900   0.458   2.692  1.1724 -1.2622  0.5117
 2190TIP3    H2 6504   6.990   0.572   2.649  0.7313 -0.8404  0.7008
 2191TIP3   OH2 6505   3.922   7.881   2.419  0.3777 -0.0346  0.4916
 2191TIP3    H1 6506   3.866   7.892   2.496 -1.8631  0.6744 -1.2081
 2191TIP3    H2 6507   3.945   7.970   2.392 -0.3316 -0.2175 -0.7275
 2192TIP3   OH2 6508   4.100   0.676   1.960  0.2960  0.0807  0.0005
 2192TIP3    H1 6509   4.194   0.679   1.946  0.5710 -0.8020  1.5817
 2192TIP3    H2 6510   4.076   0.585   1.939 -0.2341  0.3380 -0.5309
 2193TIP3   OH2 6511   4.181   0.886   2.442  0.3400 -0.3956 -0.1002
 2193TIP3    H1 6512   4.182   0.976   2.410 -0.3587 -0.2504  0.2639
 2193TIP3    H2 6513   4.141   0.892   2.529  0.1170 -1.0786 -0.1513
 2194TIP3   OH2 6514   7.241   1.166   2.584  0.6724 -0.1169  0.0239
 2194TIP3    H1 6515   7.267   1.150   2.674  0.9265  1.9473  0.3353
 2194TIP3    H2 6516   7.320   1.202   2.542  0.8666 -1.9664 -1.3012
 2195TIP3   OH2 6517   1.541   7.362   2.699 -0.5990  0.0265 -0.5561
 2195TIP3    H1 6518   1.493   7.367   2.617  0.7202 -0.7013 -1.3800
 2195TIP3    H2 6519   1.633   7.368   2.674 -0.1939  0.0410  0.8858
 2196TIP3   OH2 6520   6.262   1.690   2.902  0.9997 -0.1354 -0.2725
 2196TIP3    H1 6521   6.212   1.769   2.879  2.3656  0.4751 -1.1786
 2196TIP3    H2 6522   6.216   1.654   2.978 -2.0502 -0.7190 -2.2909
 2197TIP3   OH2 6523   6.447   0.533   3.857 -0.1990  1.2722  0.5185
 2197TIP3    H1 6524   6.449   0.538   3.952 -1.1078  0.0416  0.6153
 2197TIP3    H2 6525   6.395   0.455   3.838  3.4934 -1.0012 -0.8966
 2198TIP3   OH2 6526   4.749   2.167   2.745  0.4618  0.4666  0.1386
 2198TIP3    H1 6527   4.827   2.130   2.705  0.2777 -1.0100  1.0735
 2198TIP3    H2 6528   4.676   2.122   2.702  0.2013  0.4779  0.5591
 2199TIP3   OH2 6529   8.243   2.583   5.168  0.5142  0.1766 -0.3398
 2199TIP3    H1 6530   8.307   2.526   5.125  0.0319 -0.3060 -0.4261
 2199TIP3    H2 6531   8.162   2.532   5.170  0.1709  0.7183 -0.0843
 2200TIP3   OH2 6532   0.258   0.533   1.706 -0.4888  0.1457 -0.4349
 2200TIP3    H1 6533   0.330   0.595   1.718 -0.6228  0.0147  1.1846
 2200TIP3    H2 6534   0.188   0.585   1.666 -0.1427  0.7279 -0.2921
 2201TIP3   OH2 6535   4.533   2.309   3.725  0.1781 -0.1955  1.0047
 2201TIP3    H1 6536   4.469   2.253   3.768  0.3408 -0.8233  0.4456
 2201TIP3    H2 6537   4.616   2.288   3.766  0.3443 -0.8454  0.3502
 2202TIP3   OH2 6538   5.117   6.006   2.728  0.0801 -0.2950  0.6880
 2202TIP3    H1 6539   5.186   6.044   2.783  1.0250 -1.6921  0.4717
 2202TIP3    H2 6540   5.122   5.912   2.744  2.8423 -1.2168 -4.5477
 2203TIP3   OH2 6541   7.210   0.825   3.099  0.2440  0.0932 -0.2368
 2203TIP3    H1 6542   7.280   0.865   3.152 -0.2297 -0.1544  0.5805
 2203TIP3    H2 6543   7.129   0.852   3.143 -0.1827  0.4450 -1.2317
 2204TIP3   OH2 6544   1.247   7.950   2.065 -0.0315 -0.6563 -0.1087
 2204TIP3    H1 6545   1.309   8.000   2.012 -0.5629 -1.5708 -1.6216
 2204TIP3    H2 6546   1.260   7.983   2.154  3.6286 -1.7557 -0.1209
 2205TIP3   OH2 6547   2.761   7.219   3.562  0.2399 -0.3851  0.2131
 2205TIP3    H1 6548   2.856   7.227   3.551 -0.0044  0.0038 -1.7816
 2205TIP3    H2 6549   2.732   7.304   3.592  0.1099  0.6105 -2.5534
 2206TIP3   OH2 6550   5.777   0.055   3.219 -0.0386  0.3739 -0.5179
 2206TIP3    H1 6551   5.708  -0.008   3.236 -0.6148  1.4665  1.3390
 2206TIP3    H2 6552   5.855   0.017   3.260  0.0437  0.0298 -0.9856
 2207TIP3   OH2 6553   5.662   2.821   1.534 -0.0802 -0.5130  0.0944
 2207TIP3    H1 6554   5.574   2.783   1.534 -1.1689  1.9729 -0.8183
 2207TIP3    H2 6555   5.672   2.856   1.623  1.0167 -3.0300  1.0142
 2208TIP3   OH2 6556   3.796   6.398   6.669  0.0987  0.1668  0.6632
 2208TIP3    H1 6557   3.727   6.353   6.717  2.2714 -3.3724  0.6461
 2208TIP3    H2 6558   3.796   6.356   6.583  1.5332  0.8720  0.3054
 2209TIP3   OH2 6559   6.029   0.016   1.988  0.7494 -0.0344  0.3136
 2209TIP3    H1 6560   5.948   0.057   1.960  0.2229 -1.0190  0.3551
 2209TIP3    H2 6561   6.088   0.089   2.007  0.3043  0.6746 -0.9485
 2210TIP3   OH2 6562   2.820   7.383   1.890  0.4277 -0.0630  0.0131
 2210TIP3    H1 6563   2.747   7.322   1.899  0.7501 -0.4322  0.1519
 2210TIP3    H2 6564   2.892   7.330   1.854  0.6877  0.2445  0.0745
 2211TIP3   OH2 6565   0.135   0.231   4.929  0.4745 -0.1704  0.3244
 2211TIP3    H1 6566   0.117   0.171   4.856 -0.3048 -2.0114  1.9797
 2211TIP3    H2 6567   0.231   0.237   4.931  0.6068 -1.9989  0.5996
 2212TIP3   OH2 6568   4.083   7.803   2.783 -0.3591  0.2510 -0.3649
 2212TIP3    H1 6569   4.086   7.761   2.697 -1.2887  3.7667 -2.2340
 2212TIP3    H2 6570   4.169   7.844   2.793 -0.5663  0.6135 -0.0314
 2213TIP3   OH2 6571   4.614   1.288   3.969  0.2028 -0.4448  0.2112
 2213TIP3    H1 6572   4.702   1.296   3.934 -0.2976 -1.2574 -1.3090
 2213TIP3    H2 6573   4.558   1.331   3.903 -0.7856 -2.2456 -0.1594
 2214TIP3   OH2 6574   6.312   0.877   3.943 -0.0571  0.2114  0.2788
 2214TIP3    H1 6575   6.343   0.804   3.889 -0.8353 -0.0155  0.1304
 2214TIP3    H2 6576   6.224   0.897   3.908 -1.1339 -0.8246  2.3369
 2215TIP3   OH2 6577   4.490   7.997   2.125  0.0717 -0.2917  0.2789
 2215TIP3    H1 6578   4.557   8.038   2.070 -0.1604 -1.2072 -0.7067
 2215TIP3    H2 6579   4.533   7.920   2.162 -1.0181 -2.0828 -2.0407
 2216TIP3   OH2 6580   2.174   5.975   0.387  0.1374 -0.3185 -0.4871
 2216TIP3    H1 6581   2.112   5.917   0.431  0.6944  0.4670  1.3629
 2216TIP3    H2 6582   2.207   6.033   0.455  1.5069  0.5225 -1.8048
 2217TIP3   OH2 6583   4.514   0.229   2.807  0.0247 -0.1646  0.6741
 2217TIP3    H1 6584   4.507   0.134   2.810  1.5689 -0.2476  2.8696
 2217TIP3    H2 6585   4.468   0.260   2.885  1.1437  0.7574  0.9969
 2218TIP3   OH2 6586   0.934   8.024   1.421  0.5119  0.0468 -0.0667
 2218TIP3    H1 6587   1.024   8.010   1.391  0.6155  0.1986  0.1679
 2218TIP3    H2 6588   0.897   7.936   1.430  0.6706 -0.0193 -0.0633
 2219TIP3   OH2 6589   7.483   2.317   3.012 -0.0156  0.1340  0.1630
 2219TIP3    H1 6590   7.551   2.322   3.080  0.4516 -0.4160 -0.2609
 2219TIP3    H2 6591   7.486   2.401   2.968  0.6013 -0.0040 -0.0572
 2220TIP3   OH2 6592   4.565   1.161   2.254  0.3433 -0.3446  0.2063
 2220TIP3    H1 6593   4.542   1.246   2.217 -2.6573 -1.1619  0.0890
 2220TIP3    H2 6594   4.646   1.137   2.210  0.4643  1.8112 -0.7947
 2221TIP3   OH2 6595   6.649   1.181   4.443  0.4964  0.3029 -0.9450
 2221TIP3    H1 6596   6.742   1.169   4.429  0.4372  0.3306 -1.3759
 2221TIP3    H2 6597   6.608   1.104   4.404  0.5153 -1.1305  1.7720
 2222TIP3   OH2 6598   4.407   6.994   1.655 -0.3112 -0.1347 -0.2409
 2222TIP3    H1 6599   4.413   6.902   1.631 -2.0850 -0.1193 -0.8926
 2222TIP3    H2 6600   4.469   7.005   1.727  0.9155 -1.5122 -1.0619
 2223TIP3   OH2 6601   6.684   6.781   2.921 -0.2290 -0.0325 -0.0754
 2223TIP3    H1 6602   6.757   6.724   2.897 -0.7218 -1.2926  1.3322
 2223TIP3    H2 6603   6.629   6.727   2.977 -0.9815  1.6654  0.8613
 2224TIP3   OH2 6604   0.542   2.028   2.429  0.2741  0.4915 -0.3574
 2224TIP3    H1 6605   0.446   2.022   2.432  0.2000  0.3990 -2.2122
 2224TIP3    H2 6606   0.572   1.939   2.413  0.5841  0.7482 -1.2413
 2225TIP3   OH2 6607   7.147   1.534   3.255  0.2236  0.0734 -0.0105
 2225TIP3    H1 6608   7.156   1.573   3.168 -0.0425  0.4363  0.1208
 2225TIP3    H2 6609   7.052   1.528   3.269  0.2677 -1.0334 -0.2119
 2226TIP3   OH2 6610   6.983   1.262   4.060  0.3160 -0.1356  0.0154
 2226TIP3    H1 6611   6.957   1.202   3.990  0.2475 -0.3976  0.2610
 2226TIP3    H2 6612   6.904   1.314   4.077  0.0572 -0.6885  0.5159
 2227TIP3   OH2 6613   8.486   1.748   2.511  0.2663  0.4865 -0.2059
 2227TIP3    H1 6614   8.444   1.798   2.581  0.1012 -0.7265  0.5892
 2227TIP3    H2 6615   8.427   1.674   2.496  1.4297 -0.5055 -0.0075
 2228TIP3   OH2 6616   8.480   2.746   3.542  0.3249 -0.3099 -0.3496
 2228TIP3    H1 6617   8.445   2.659   3.562 -1.1573  0.6603  1.4670
 2228TIP3    H2 6618   8.489   2.788   3.627  2.8674  0.6644 -1.0646
 2229TIP3   OH2 6619   5.768   1.149   2.969  0.0604 -0.2885  0.0483
 2229TIP3    H1 6620   5.788   1.197   3.050  0.9775 -2.1871  0.9683
 2229TIP3    H2 6621   5.765   1.217   2.901  0.3045  1.1983  1.4923
 2230TIP3   OH2 6622   7.996   0.507   3.836  0.3484  0.0066  0.0429
 2230TIP3    H1 6623   8.018   0.582   3.891 -0.3908 -0.4794  1.0256
 2230TIP3    H2 6624   7.916   0.471   3.875  0.8113 -1.4168 -0.2746
 2231TIP3   OH2 6625   5.438   0.179   3.163 -0.1782 -0.0560  0.2800
 2231TIP3    H1 6626   5.364   0.127   3.133 -0.2674  0.4349 -0.3407
 2231TIP3    H2 6627   5.488   0.119   3.219 -0.5463 -0.6608 -0.0406
 2232TIP3   OH2 6628   3.072   7.674   1.051  0.0111 -0.0545 -0.5507
 2232TIP3    H1 6629   3.161   7.686   1.015  0.2688 -1.5797 -0.4363
 2232TIP3    H2 6630   3.054   7.581   1.039 -0.7306 -0.1743  1.3969
 2233TIP3   OH2 6631   6.709   1.002   2.358  0.1106  0.1172 -0.3625
 2233TIP3    H1 6632   6.799   1.019   2.330  0.9690 -2.4495  0.7253
 2233TIP3    H2 6633   6.712   1.006   2.453 -0.8683 -0.2387 -0.3123
 2234TIP3   OH2 6634   4.696   1.287   4.903 -0.0790 -0.4480  0.3866
 2234TIP3    H1 6635   4.725   1.339   4.828  1.1579  0.5330  1.5403
 2234TIP3    H2 6636   4.709   1.196   4.875 -1.8607 -0.1673 -1.4771
 2235TIP3   OH2 6637   6.472   1.285   4.656 -0.1320  0.3406  0.3257
 2235TIP3    H1 6638   6.509   1.284   4.569 -2.2098 -0.7397 -0.5882
 2235TIP3    H2 6639   6.484   1.196   4.689  1.2725  0.9216  1.4348
 2236TIP3   OH2 6640   0.485   3.253   3.297  0.3994 -0.2767  0.2112
 2236TIP3    H1 6641   0.413   3.302   3.256  0.5958 -0.2769 -0.1316
 2236TIP3    H2 6642   0.442   3.201   3.365  0.0357 -0.4830 -0.1703
 2237TIP3   OH2 6643   7.237   1.378   4.127 -0.1960 -0.3526 -0.9105
 2237TIP3    H1 6644   7.158   1.336   4.093  0.0407 -0.9941 -0.6586
 2237TIP3    H2 6645   7.232   1.367   4.222 -0.4205  0.6834 -0.7885
 2238TIP3   OH2 6646   4.085   2.048   3.380 -0.0980  0.3859 -0.0113
 2238TIP3    H1 6647   4.155   1.999   3.336  1.4780  1.2608  1.4510
 2238TIP3    H2 6648   4.004   2.012   3.344  1.0751 -1.6826 -0.6686
 2239TIP3   OH2 6649   4.695   1.009   2.514  0.5690  0.4559  0.2020
 2239TIP3    H1 6650   4.772   1.049   2.556  0.3852 -0.0710  1.0524
 2239TIP3    H2 6651   4.728   0.978   2.429  1.9042 -1.8221  1.4744
 2240TIP3   OH2 6652   7.091   3.144   0.790 -0.2588  0.5919  0.1712
 2240TIP3    H1 6653   7.096   3.155   0.695 -0.4677  1.7873  0.2907
 2240TIP3    H2 6654   7.029   3.211   0.819 -1.1478 -0.5933  1.0179
 2241TIP3   OH2 6655   7.440   0.560   3.797  0.0185  0.2027 -0.1802
 2241TIP3    H1 6656   7.379   0.601   3.859  1.5733 -0.0412  1.5749
 2241TIP3    H2 6657   7.497   0.632   3.770  0.8762 -0.1667  0.5998
 2242TIP3   OH2 6658   1.159   1.093   2.664  0.5719 -0.2185  0.1113
 2242TIP3    H1 6659   1.126   1.180   2.688 -3.8148 -1.8484  0.2782
 2242TIP3    H2 6660   1.197   1.106   2.577 -0.4641  1.7845 -0.0824
 2243TIP3   OH2 6661   4.831   2.163   3.277  0.0890 -0.1859  0.0123
 2243TIP3    H1 6662   4.767   2.223   3.316  1.2352  0.7704  0.4492
 2243TIP3    H2 6663   4.791   2.137   3.194 -0.4922  1.0872 -0.1266
 2244TIP3   OH2 6664   5.480   2.734   2.016  0.0985  0.1951 -0.1779
 2244TIP3    H1 6665   5.438   2.648   2.015  0.4147  0.0331  0.3749
 2244TIP3    H2 6666   5.573   2.716   2.000  0.1918  0.4163  0.1017
 2245TIP3   OH2 6667   5.026   2.144   1.788 -0.0456  0.5389  0.2083
 2245TIP3    H1 6668   4.972   2.221   1.803  1.0316  1.1927  0.8097
 2245TIP3    H2 6669   5.105   2.178   1.746  0.4609 -0.2275  0.5251
 2246TIP3   OH2 6670   1.464   1.465   1.524  0.2770  0.0235  0.0327
 2246TIP3    H1 6671   1.480   1.372   1.510 -0.4642 -0.1779  0.4688
 2246TIP3    H2 6672   1.460   1.474   1.619  1.1583  0.6442  0.0106
 2247TIP3   OH2 6673   6.621   1.719   1.085  0.3474 -0.1187 -0.2899
 2247TIP3    H1 6674   6.594   1.685   1.170 -0.2553  0.0785 -0.3979
 2247TIP3    H2 6675   6.583   1.807   1.081 -0.1095 -0.3441 -0.9920
 2248TIP3   OH2 6676   6.987   1.583   2.621  0.6528  0.7210  0.6286
 2248TIP3    H1 6677   7.011   1.494   2.596  1.5304  0.5504  2.0009
 2248TIP3    H2 6678   6.900   1.574   2.659 -0.6778  0.9820 -2.2611
 2249TIP3   OH2 6679   4.164   0.424   1.564 -0.2637 -0.2668 -0.0201
 2249TIP3    H1 6680   4.222   0.352   1.587  1.0000  1.2533  1.7544
 2249TIP3    H2 6681   4.093   0.419   1.628  0.5393  0.8358  0.9945
 2250TIP3   OH2 6682   0.261   1.699   2.536 -0.4895 -0.4598  0.0519
 2250TIP3    H1 6683   0.166   1.711   2.536 -0.3242  1.1682 -1.9343
 2250TIP3    H2 6684   0.296   1.782   2.568  0.3097 -0.3358 -1.0987
 2251TIP3   OH2 6685   1.104   1.357   3.886  0.6410  0.3137 -0.4038
 2251TIP3    H1 6686   1.174   1.319   3.833  0.2726 -1.2858  0.2402
 2251TIP3    H2 6687   1.025   1.341   3.836  0.5248  0.5413 -0.2919
 2252TIP3   OH2 6688   4.949   7.817   0.338  0.2774 -0.2749 -0.4983
 2252TIP3    H1 6689   4.867   7.773   0.313 -0.9784  2.3382 -1.2184
 2252TIP3    H2 6690   4.922   7.877   0.408  1.8211 -0.1802  0.0195
 2253TIP3   OH2 6691   7.379   0.565   3.027 -0.6155  0.2625  0.0012
 2253TIP3    H1 6692   7.445   0.632   3.008  0.4178 -0.7999 -0.2046
 2253TIP3    H2 6693   7.319   0.608   3.088 -0.0679  1.4345 -0.2672
 2254TIP3   OH2 6694   6.930   3.616   3.545 -0.6100  0.5715 -0.7321
 2254TIP3    H1 6695   6.904   3.691   3.599  0.3121  3.0313 -3.5498
 2254TIP3    H2 6696   7.023   3.605   3.564 -1.0303 -0.7289  0.6454
 2255TIP3   OH2 6697   8.077   2.848   3.901 -0.2029  0.2861  0.1729
 2255TIP3    H1 6698   8.013   2.793   3.948  1.0828 -0.3227  1.2460
 2255TIP3    H2 6699   8.040   2.936   3.905 -0.1645  0.2474  2.3394
 2256TIP3   OH2 6700   6.212   0.012   2.952 -0.4490  0.2411 -0.3720
 2256TIP3    H1 6701   6.288   0.070   2.959  0.1407 -0.5182 -0.3539
 2256TIP3    H2 6702   6.158   0.051   2.883  1.4852 -0.8885 -2.5805
 2257TIP3   OH2 6703   0.974   0.871   2.559 -0.4075 -0.3032 -0.1163
 2257TIP3    H1 6704   1.027   0.893   2.636  0.8063  1.4040 -1.3959
 2257TIP3    H2 6705   1.018   0.915   2.486 -0.8019 -2.9250 -2.0180
 2258TIP3   OH2 6706   7.624   3.491   2.881  0.0977  0.2214 -0.0343
 2258TIP3    H1 6707   7.587   3.568   2.838  0.1055  0.7668  0.9182
 2258TIP3    H2 6708   7.653   3.523   2.967  0.2279 -0.8088  0.3142
 2259TIP3   OH2 6709   0.710   0.397   2.261 -0.3518  0.0367  0.1089
 2259TIP3    H1 6710   0.790   0.444   2.241 -0.1445 -0.0909  0.6385
 2259TIP3    H2 6711   0.736   0.330   2.325 -1.1229  0.8339  1.2748
 2260TIP3   OH2 6712   7.311   1.225   1.643 -0.4937 -0.1481  0.1344
 2260TIP3    H1 6713   7.349   1.153   1.695 -1.1510  2.1944  4.0879
 2260TIP3    H2 6714   7.218   1.225   1.666 -0.3647  2.3997  0.8314
 2261TIP3   OH2 6715   8.404   2.999   1.243 -0.3081 -0.0019  0.8266
 2261TIP3    H1 6716   8.395   2.946   1.163 -0.8708  0.0458  0.8512
 2261TIP3    H2 6717   8.408   2.934   1.314 -0.4163 -0.0297  0.8080
 2262TIP3   OH2 6718   8.300   1.500   3.058 -0.0206  0.3951 -0.0878
 2262TIP3    H1 6719   8.210   1.527   3.076  0.5807  2.1933  0.3389
 2262TIP3    H2 6720   8.329   1.556   2.986  1.2429  0.9289  0.7926
 2263TIP3   OH2 6721   8.219   2.126   1.723 -0.3388 -0.5668  0.4876
 2263TIP3    H1 6722   8.290   2.063   1.720 -0.7729 -1.1645  2.0409
 2263TIP3    H2 6723   8.182   2.116   1.812 -0.4495  1.8118  0.7311
 2264TIP3   OH2 6724   2.519   1.350   3.250  0.0064 -0.0944  0.0563
 2264TIP3    H1 6725   2.560   1.287   3.309  1.0222  0.2299 -0.2809
 2264TIP3    H2 6726   2.439   1.377   3.295  0.8324  0.2582  1.3388
 2265TIP3   OH2 6727   1.197   1.036   4.526  0.4823 -0.0325 -0.2967
 2265TIP3    H1 6728   1.276   1.030   4.580  0.0555 -0.3906  0.3010
 2265TIP3    H2 6729   1.164   0.946   4.522 -0.6003  0.3042  0.5464
 2266TIP3   OH2 6730   0.344   1.128   1.171 -0.7351  0.4183 -0.2071
 2266TIP3    H1 6731   0.310   1.218   1.161 -2.5980 -0.2489 -0.1109
 2266TIP3    H2 6732   0.323   1.105   1.261  0.0363 -0.0084 -0.1356
 2267TIP3   OH2 6733   8.331   1.011   1.017 -0.7133 -0.1934  0.5351
 2267TIP3    H1 6734   8.395   1.069   1.058 -0.4903 -0.7440  0.9721
 2267TIP3    H2 6735   8.259   1.069   0.991 -1.1082  0.0761  2.2055
 2268TIP3   OH2 6736   2.376   2.388   3.313 -0.4307 -0.4251  0.1935
 2268TIP3    H1 6737   2.351   2.380   3.405  1.2517 -2.8418  0.4890
 2268TIP3    H2 6738   2.470   2.405   3.315 -0.3852 -0.4651 -1.0784
 2269TIP3   OH2 6739   0.476   3.478   2.387 -0.3586 -0.1346 -0.1892
 2269TIP3    H1 6740   0.460   3.550   2.326 -0.8577 -0.4206 -0.4046
 2269TIP3    H2 6741   0.389   3.439   2.400  0.2461 -2.0176 -1.7137
 2270TIP3   OH2 6742   6.424   7.259   4.953 -0.0156 -0.0699  0.1319
 2270TIP3    H1 6743   6.339   7.298   4.973  0.1908  0.4723 -0.0446
 2270TIP3    H2 6744   6.478   7.332   4.924  0.4378 -0.4531 -0.0004
 2271TIP3   OH2 6745   6.842   7.906   4.210 -0.2406  0.0425  0.1686
 2271TIP3    H1 6746   6.817   7.814   4.220  0.0317 -0.0750 -0.2180
 2271TIP3    H2 6747   6.778   7.942   4.149  0.6423 -0.3104 -0.9831
 2272TIP3   OH2 6748   0.545   2.107   2.078 -0.0632 -0.2490 -0.5661
 2272TIP3    H1 6749   0.481   2.039   2.057  0.6975 -1.2518  0.3903
 2272TIP3    H2 6750   0.618   2.061   2.118 -0.0848  1.2721  1.2678
 2273TIP3   OH2 6751   6.968   0.157   2.876  0.8926  0.2043  0.2779
 2273TIP3    H1 6752   7.049   0.118   2.909 -0.2648 -1.4577  1.2049
 2273TIP3    H2 6753   6.945   0.224   2.940  0.7019 -0.4028  0.8491
 2274TIP3   OH2 6754   0.209   2.821   1.557 -0.6163  0.2741  0.4298
 2274TIP3    H1 6755   0.276   2.803   1.624 -0.9413  0.5276  0.8256
 2274TIP3    H2 6756   0.224   2.755   1.490 -0.6198 -0.3153  1.0047
 2275TIP3   OH2 6757   0.284   0.473   2.361  1.0495  0.0709 -0.1476
 2275TIP3    H1 6758   0.231   0.544   2.398  0.7710 -0.2441  0.0691
 2275TIP3    H2 6759   0.271   0.400   2.422  0.8408 -0.3566 -0.6996
 2276TIP3   OH2 6760   7.605   0.958   1.639 -0.0927 -0.0533  0.3482
 2276TIP3    H1 6761   7.522   0.949   1.686  0.6479  0.5553  1.8270
 2276TIP3    H2 6762   7.671   0.934   1.703  0.9743  1.2501 -0.2346
 2277TIP3   OH2 6763   0.629   3.063   3.151 -0.1746 -0.1018 -0.4985
 2277TIP3    H1 6764   0.580   3.130   3.199  2.9626 -0.6268  3.7504
 2277TIP3    H2 6765   0.585   2.981   3.173 -2.0829  0.1610 -3.1287
 2278TIP3   OH2 6766   1.441   0.534   2.032  0.3781  0.3790 -0.3459
 2278TIP3    H1 6767   1.499   0.564   1.963  0.4860 -1.0742 -0.9125
 2278TIP3    H2 6768   1.500   0.493   2.096  0.0888 -0.0687 -0.3640
 2279TIP3   OH2 6769   1.923   2.885   6.046  0.9542  0.3687  0.3405
 2279TIP3    H1 6770   1.852   2.825   6.065 -0.4122  1.4388 -1.2043
 2279TIP3    H2 6771   1.907   2.961   6.102  1.3396  0.2645  0.5914
 2280TIP3   OH2 6772   1.373   1.901   3.997 -0.0269  0.1226 -0.5056
 2280TIP3    H1 6773   1.453   1.951   4.013  0.3855 -0.9607  1.0113
 2280TIP3    H2 6774   1.305   1.949   4.044 -0.1842  0.8391 -1.4761
 2281TIP3   OH2 6775   0.946   1.575   5.014  0.0743  0.0081  0.2106
 2281TIP3    H1 6776   1.015   1.511   4.995  1.2938  0.7198  2.1130
 2281TIP3    H2 6777   0.991   1.647   5.057 -1.6280  1.2069  0.0445
 2282TIP3   OH2 6778   1.291   1.931   4.612 -0.0491  0.1808  0.1555
 2282TIP3    H1 6779   1.346   1.879   4.671  0.0897  0.4639  0.2770
 2282TIP3    H2 6780   1.269   2.009   4.663 -0.2982  0.2172 -0.0094
 2283TIP3   OH2 6781  -0.015   3.923   4.957  0.3177 -0.2154  0.6749
 2283TIP3    H1 6782   0.072   3.890   4.978 -0.1882 -0.4785  2.3752
 2283TIP3    H2 6783  -0.044   3.868   4.884  1.5577 -0.1232  0.0861
 2284TIP3   OH2 6784   4.019   2.549   4.113 -0.1446 -0.1878  0.2409
 2284TIP3    H1 6785   4.110   2.579   4.109  0.1085 -1.2128 -2.7828
 2284TIP3    H2 6786   3.979   2.602   4.182  2.6474  0.4859  1.4133
 2285TIP3   OH2 6787   0.984   0.721   3.691 -0.2369 -0.4847 -0.1146
 2285TIP3    H1 6788   0.895   0.700   3.663 -0.5137 -0.9742  1.1234
 2285TIP3    H2 6789   1.022   0.638   3.716  0.5344 -0.2539 -0.5014
 2286TIP3   OH2 6790   5.860   6.517   5.345 -0.1004  0.6435 -0.7891
 2286TIP3    H1 6791   5.828   6.597   5.304 -1.4836  0.9442  0.8446
 2286TIP3    H2 6792   5.911   6.474   5.276 -0.7967  2.0646 -2.2201
 2287TIP3   OH2 6793   0.508   3.703   4.265  0.2155  0.5298 -0.8085
 2287TIP3    H1 6794   0.583   3.646   4.248  1.2759  1.8059 -0.5669
 2287TIP3    H2 6795   0.496   3.750   4.182 -2.0488 -1.5896 -1.7229
 2288TIP3   OH2 6796   1.711   2.425   4.940  0.0133  0.1668 -0.1461
 2288TIP3    H1 6797   1.670   2.510   4.924 -0.3666 -0.1807 -1.0245
 2288TIP3    H2 6798   1.647   2.377   4.993  0.3376  0.5157  0.5705
 2289TIP3   OH2 6799   0.975   2.046   4.544 -0.9207  0.9946  0.5933
 2289TIP3    H1 6800   0.880   2.050   4.538 -1.1138 -2.0186  0.8867
 2289TIP3    H2 6801   0.992   1.991   4.621  1.0283  0.3377 -0.2745
 2290TIP3   OH2 6802   0.208   2.214   2.661  0.4593  0.1320  0.1787
 2290TIP3    H1 6803   0.158   2.230   2.741 -0.9887  0.3558 -0.7460
 2290TIP3    H2 6804   0.210   2.298   2.617 -1.3956 -0.6649 -1.4810
 2291TIP3   OH2 6805   6.959   7.527   3.816  0.5261 -0.8313 -0.2536
 2291TIP3    H1 6806   6.919   7.549   3.732  0.4663  2.1638  0.5173
 2291TIP3    H2 6807   7.050   7.553   3.807  1.1021 -2.7162 -0.1689
 2292TIP3   OH2 6808   2.316   2.392   3.585  0.1777  0.2249  0.4714
 2292TIP3    H1 6809   2.280   2.319   3.638 -1.1149  0.5184  0.0269
 2292TIP3    H2 6810   2.336   2.460   3.649 -0.2834  0.1362  0.7152
 2293TIP3   OH2 6811   0.067   0.504   3.657  0.1427 -0.0321 -0.3641
 2293TIP3    H1 6812   0.054   0.552   3.575  0.6599 -2.5257 -1.9476
 2293TIP3    H2 6813  -0.008   0.445   3.662  0.9790 -1.0781  0.0719
 2294TIP3   OH2 6814   6.859   5.192   3.726 -0.3068  0.0086 -0.4123
 2294TIP3    H1 6815   6.909   5.131   3.780  0.3920 -0.4505 -1.5516
 2294TIP3    H2 6816   6.910   5.273   3.728  0.3284 -0.3599 -1.3080
 2295TIP3   OH2 6817   1.736   2.204   4.362  0.0685  0.2736 -0.3663
 2295TIP3    H1 6818   1.666   2.260   4.395 -0.6909 -2.0782  2.2300
 2295TIP3    H2 6819   1.780   2.257   4.296 -0.8411  3.7738  1.7167
 2296TIP3   OH2 6820   1.250   2.276   5.081 -0.5171  0.6153 -0.3056
 2296TIP3    H1 6821   1.203   2.238   5.006  0.4388 -0.3684 -0.4253
 2296TIP3    H2 6822   1.181   2.305   5.140 -1.2876  0.9132 -1.3226
 2297TIP3   OH2 6823   5.263   7.183   2.413 -0.1872  0.0653  0.6500
 2297TIP3    H1 6824   5.238   7.242   2.485  0.6622 -0.0343  1.0390
 2297TIP3    H2 6825   5.340   7.137   2.446  1.1803  1.1777 -0.9532
 2298TIP3   OH2 6826   1.435   3.118   1.535 -0.8842 -0.5157 -0.8044
 2298TIP3    H1 6827   1.427   3.203   1.577  0.1386 -0.2671 -1.1056
 2298TIP3    H2 6828   1.485   3.135   1.455  0.7805 -1.6598 -0.0354
 2299TIP3   OH2 6829   8.242   1.497   2.229 -0.2121 -0.3195 -0.0567
 2299TIP3    H1 6830   8.271   1.534   2.312 -0.8445  0.7320 -0.2948
 2299TIP3    H2 6831   8.169   1.553   2.201 -1.9647 -2.4408  0.1356
 2300TIP3   OH2 6832   1.530   0.615   4.275 -0.2446  0.4966  0.4910
 2300TIP3    H1 6833   1.480   0.678   4.223  0.8264  1.2777  0.3990
 2300TIP3    H2 6834   1.593   0.577   4.214 -1.4054 -1.2661  0.3513
 2301TIP3   OH2 6835   0.743   3.042   6.321  0.1310 -0.6548  0.4480
 2301TIP3    H1 6836   0.728   2.963   6.269  0.0475  0.3330 -1.0554
 2301TIP3    H2 6837   0.708   3.113   6.267 -1.4339  0.2167  2.5532
 2302TIP3   OH2 6838   5.939   4.053   4.557 -0.4084 -0.1285 -0.5083
 2302TIP3    H1 6839   5.854   4.045   4.601 -0.6147  1.7592 -0.4887
 2302TIP3    H2 6840   5.929   4.131   4.502  0.4725 -1.3722 -2.4575
 2303TIP3   OH2 6841   0.463   2.243   3.958  0.0377 -0.1110  0.5214
 2303TIP3    H1 6842   0.406   2.305   4.004 -0.4917  0.0786 -0.3793
 2303TIP3    H2 6843   0.475   2.171   4.021  0.5013  0.7962  1.4988
 2304TIP3   OH2 6844   7.843   2.756   3.456  0.1935 -0.5418  0.2788
 2304TIP3    H1 6845   7.854   2.661   3.464  1.5824 -0.4419 -0.2811
 2304TIP3    H2 6846   7.930   2.788   3.430 -0.7662  0.6614 -1.5271
 2305TIP3   OH2 6847   1.942   0.817   4.204  0.3769 -0.0487  0.6399
 2305TIP3    H1 6848   1.928   0.906   4.236  0.1711  0.0007  0.4166
 2305TIP3    H2 6849   1.860   0.794   4.161  0.5188 -0.2533  0.4759
 2306TIP3   OH2 6850   0.291   3.057   4.156 -0.0028 -0.9105 -0.3411
 2306TIP3    H1 6851   0.258   3.068   4.067 -1.9173  1.0509  0.5483
 2306TIP3    H2 6852   0.217   3.019   4.204 -0.2966  1.4454  1.1864
 2307TIP3   OH2 6853   0.024   1.963   3.404  0.5597  0.0640 -0.4042
 2307TIP3    H1 6854   0.024   2.037   3.344  0.7164 -0.5231 -1.1300
 2307TIP3    H2 6855   0.068   1.996   3.483 -0.0018  0.9505 -0.4558
 2308TIP3   OH2 6856   7.788   1.637   4.748 -0.0354 -0.1559  0.4853
 2308TIP3    H1 6857   7.870   1.590   4.731  0.3031  0.3655  0.6556
 2308TIP3    H2 6858   7.761   1.607   4.835 -0.2058 -0.5905  0.2793
 2309TIP3   OH2 6859   0.596   2.429   3.568 -0.2201 -0.2737 -0.3780
 2309TIP3    H1 6860   0.547   2.477   3.502  0.1604 -0.1140 -0.5501
 2309TIP3    H2 6861   0.620   2.346   3.526 -0.5709 -0.4615 -0.2045
 2310TIP3   OH2 6862   6.873   3.478   5.246 -0.5975  0.0393  0.4138
 2310TIP3    H1 6863   6.903   3.506   5.333  1.0150 -0.0076 -0.1134
 2310TIP3    H2 6864   6.857   3.384   5.255  0.9931 -0.2565  0.2867
 2311TIP3   OH2 6865   0.815   2.348   5.460 -0.0137 -0.5335 -0.2941
 2311TIP3    H1 6866   0.803   2.438   5.431  0.7035 -0.2091  0.3919
 2311TIP3    H2 6867   0.736   2.303   5.432 -1.7290  0.9733  1.9710
 2312TIP3   OH2 6868   8.399   1.330   3.621 -0.4525  0.2736  0.3616
 2312TIP3    H1 6869   8.315   1.344   3.577  0.2778 -0.1171 -1.1909
 2312TIP3    H2 6870   8.465   1.357   3.557  0.6051  1.2811  1.8379
 2313TIP3   OH2 6871   1.504   1.837   3.745  0.2365  0.1822  0.0293
 2313TIP3    H1 6872   1.482   1.889   3.668  0.4289  0.3859  0.1125
 2313TIP3    H2 6873   1.463   1.883   3.818  1.3798  0.8577  0.2576
 2314TIP3   OH2 6874   7.306   3.077   4.002 -0.3149  0.3651 -0.7707
 2314TIP3    H1 6875   7.249   3.001   3.991 -1.0173  0.6965  0.5719
 2314TIP3    H2 6876   7.249   3.146   4.034  0.4449  1.2945 -1.3919
 2315TIP3   OH2 6877   3.413   1.334   4.924 -0.1583 -0.5204 -0.1736
 2315TIP3    H1 6878   3.499   1.352   4.886 -0.1898 -0.0894 -0.0408
 2315TIP3    H2 6879   3.364   1.292   4.854 -0.5144  1.0637 -0.8958
 2316TIP3   OH2 6880   7.507   2.338   4.765 -0.1324  0.5615  0.3674
 2316TIP3    H1 6881   7.489   2.338   4.671  2.2560 -1.0210 -0.1147
 2316TIP3    H2 6882   7.530   2.429   4.785  2.0328  0.3852 -1.1461
 2317TIP3   OH2 6883   1.385   3.151   4.122 -0.3488  0.4323  0.0432
 2317TIP3    H1 6884   1.325   3.116   4.056  0.9130  0.3081 -1.0766
 2317TIP3    H2 6885   1.465   3.101   4.110  0.8178  2.3102 -0.2181
 2318TIP3   OH2 6886   0.096  -0.018   1.942  0.2125 -0.3010 -0.2722
 2318TIP3    H1 6887   0.172   0.030   1.976 -1.1333  2.5105 -1.0712
 2318TIP3    H2 6888   0.052   0.045   1.885 -1.7344 -2.4837 -1.2270
 2319TIP3   OH2 6889   1.364   3.059   2.508  0.0936  0.1779 -0.1872
 2319TIP3    H1 6890   1.312   3.132   2.475 -0.3434  0.1256  0.3818
 2319TIP3    H2 6891   1.375   3.078   2.601  0.8106  0.0175 -0.2366
 2320TIP3   OH2 6892   0.822   4.410   2.509  0.0375 -0.3410  0.2293
 2320TIP3    H1 6893   0.828   4.486   2.451  0.7512 -0.7550 -0.2515
 2320TIP3    H2 6894   0.910   4.372   2.508 -0.0141 -0.5032  1.3850
 2321TIP3   OH2 6895   5.966   4.070   5.558 -0.0692 -0.4305  0.2190
 2321TIP3    H1 6896   5.883   4.051   5.515  0.1986  0.3667 -0.6802
 2321TIP3    H2 6897   6.004   3.984   5.577 -0.3044 -0.7963 -0.9358
 2322TIP3   OH2 6898   0.322   1.458   4.198  0.3738 -0.4825 -0.7123
 2322TIP3    H1 6899   0.363   1.379   4.163 -0.4854 -1.0409 -0.4716
 2322TIP3    H2 6900   0.250   1.426   4.252  0.5375  0.4323  0.0749
 2323TIP3   OH2 6901   1.330   2.847   5.471  0.1861 -0.3026  0.5367
 2323TIP3    H1 6902   1.261   2.784   5.492  0.2368 -0.7087 -0.4612
 2323TIP3    H2 6903   1.367   2.872   5.555  0.9033 -2.4384  0.8735
 2324TIP3   OH2 6904   0.345   0.595   5.836 -0.0034 -0.0137  0.6187
 2324TIP3    H1 6905   0.328   0.650   5.760  0.0894  2.6683  2.4772
 2324TIP3    H2 6906   0.395   0.521   5.802  2.4671  2.5378 -1.4609
 2325TIP3   OH2 6907   7.717   1.616   3.737 -0.1210  0.2601 -0.1289
 2325TIP3    H1 6908   7.692   1.699   3.779 -0.7509  1.6907 -3.1683
 2325TIP3    H2 6909   7.639   1.589   3.689  1.3894  0.1771 -2.6180
 2326TIP3   OH2 6910   1.430   2.138   5.423 -0.6560 -0.2299 -0.5572
 2326TIP3    H1 6911   1.492   2.131   5.495 -0.4897  0.1592 -0.6640
 2326TIP3    H2 6912   1.360   2.194   5.456 -0.8731 -0.5326 -0.4953
 2327TIP3   OH2 6913   7.959   1.250   4.129  1.0457  0.4131 -0.0798
 2327TIP3    H1 6914   7.922   1.322   4.077  1.9146  0.6466 -0.3878
 2327TIP3    H2 6915   7.964   1.286   4.218 -2.7744 -0.8303  0.7294
 2328TIP3   OH2 6916   0.751   2.408   6.557 -0.9270 -0.5736 -0.0213
 2328TIP3    H1 6917   0.708   2.336   6.509 -1.9258 -0.7041  1.0363
 2328TIP3    H2 6918   0.790   2.462   6.489  0.0184 -2.2353 -0.8360
 2329TIP3   OH2 6919   0.557   2.425   3.244  0.2433  0.0370 -0.3932
 2329TIP3    H1 6920   0.637   2.478   3.247  0.3202 -0.1286  0.8322
 2329TIP3    H2 6921   0.567   2.369   3.167  1.0434  0.4279 -0.5745
 2330TIP3   OH2 6922   8.268   2.172   4.714 -0.2052  0.4211 -0.1310
 2330TIP3    H1 6923   8.206   2.142   4.780  0.5904  0.7124  0.7724
 2330TIP3    H2 6924   8.225   2.156   4.630 -0.9931 -0.4892  0.4420
 2331TIP3   OH2 6925   2.410   1.716   3.702 -0.3852  0.2710  0.0404
 2331TIP3    H1 6926   2.364   1.717   3.787 -1.0252  0.0238 -0.2971
 2331TIP3    H2 6927   2.395   1.803   3.665 -2.1415 -0.4009 -0.8837
 2332TIP3   OH2 6928   5.559   7.864   0.197  0.9401  0.0983 -0.1146
 2332TIP3    H1 6929   5.593   7.839   0.111  0.0051 -1.4727 -0.0465
 2332TIP3    H2 6930   5.476   7.817   0.205  0.6278  0.8640  1.3123
 2333TIP3   OH2 6931   0.823   0.528   3.455 -0.0374  0.0710 -0.4316
 2333TIP3    H1 6932   0.887   0.500   3.389 -0.6294 -1.7379 -0.2910
 2333TIP3    H2 6933   0.783   0.607   3.418  0.2667 -0.4113 -1.8354
 2334TIP3   OH2 6934   1.795   1.961   3.775  0.1789 -0.3177 -0.1492
 2334TIP3    H1 6935   1.708   1.922   3.783  1.0029 -2.2692 -0.4500
 2334TIP3    H2 6936   1.821   1.980   3.866 -0.5489  0.2597 -0.0591
 2335TIP3   OH2 6937   0.943   0.274   5.344 -0.1179  0.3563 -0.0924
 2335TIP3    H1 6938   1.028   0.313   5.366 -0.1650  1.1168 -1.1724
 2335TIP3    H2 6939   0.880   0.343   5.363 -0.6025 -0.5303  1.5871
 2336TIP3   OH2 6940   0.906   0.900   3.167  0.1767 -0.0427 -0.5637
 2336TIP3    H1 6941   0.878   0.981   3.126  1.0107 -0.0476 -1.1480
 2336TIP3    H2 6942   0.996   0.886   3.136 -0.3749 -1.8135 -1.4457
 2337TIP3   OH2 6943   5.860   6.996   3.310 -0.0724 -0.8396 -0.2891
 2337TIP3    H1 6944   5.941   7.035   3.342  0.2140 -1.7591  0.1113
 2337TIP3    H2 6945   5.887   6.942   3.235 -0.2569 -1.4490  0.0803
 2338TIP3   OH2 6946   1.986   4.075   6.444  0.1186 -0.0652 -0.8744
 2338TIP3    H1 6947   2.039   4.008   6.402  0.0782 -0.6850  0.0542
 2338TIP3    H2 6948   1.916   4.093   6.381  1.4194  0.7605 -2.0957
 2339TIP3   OH2 6949   1.509   2.468   4.193  0.4688  0.1214 -0.0637
 2339TIP3    H1 6950   1.438   2.404   4.191 -0.5305  1.1775  0.9488
 2339TIP3    H2 6951   1.497   2.518   4.112 -0.4022  0.7819  0.4678
 2340TIP3   OH2 6952   8.248   1.941   3.414  0.2078 -0.4010 -0.2994
 2340TIP3    H1 6953   8.341   1.957   3.430 -0.0440 -1.1516  2.0863
 2340TIP3    H2 6954   8.207   2.027   3.420  0.6214 -0.1949 -0.4243
 2341TIP3   OH2 6955   8.363   2.301   6.018 -0.4442 -0.0855  0.2593
 2341TIP3    H1 6956   8.322   2.280   6.102  0.1159 -0.3496  0.4746
 2341TIP3    H2 6957   8.363   2.396   6.014 -0.8627 -0.0798  0.3616
 2342TIP3   OH2 6958   1.663   0.658   5.591  0.3401  0.3609  0.2653
 2342TIP3    H1 6959   1.729   0.712   5.549  2.5666 -1.7330  0.9392
 2342TIP3    H2 6960   1.649   0.585   5.529  0.6108 -0.5803  1.2999
 2343TIP3   OH2 6961   6.330   7.900   3.248  0.1005 -0.0903 -0.1569
 2343TIP3    H1 6962   6.250   7.883   3.298 -0.9479  0.9484 -1.4521
 2343TIP3    H2 6963   6.342   7.821   3.195  0.3533 -0.5391  0.5444
 2344TIP3   OH2 6964   2.431   3.437   5.155  0.2609  0.1875 -0.1124
 2344TIP3    H1 6965   2.504   3.491   5.125  0.3346  0.2425  0.1678
 2344TIP3    H2 6966   2.391   3.404   5.074  0.3725  0.4519 -0.2756
 2345TIP3   OH2 6967   7.606   7.824   3.364 -0.7105 -0.0276 -0.3790
 2345TIP3    H1 6968   7.531   7.766   3.378  0.3417 -1.7114 -1.4976
 2345TIP3    H2 6969   7.649   7.788   3.286 -0.0779  2.3314 -1.1487
 2346TIP3   OH2 6970   3.297   1.659   3.344  0.5145 -0.0067  0.3609
 2346TIP3    H1 6971   3.316   1.714   3.420  0.0996  2.3444 -1.1855
 2346TIP3    H2 6972   3.278   1.721   3.274 -1.2230 -2.1434 -1.1391
 2347TIP3   OH2 6973   2.916   2.353   2.493 -0.0761 -0.1841  0.4954
 2347TIP3    H1 6974   2.833   2.390   2.462  0.6111  0.2883 -0.8206
 2347TIP3    H2 6975   2.982   2.392   2.437  1.0442 -0.6292  1.4772
 2348TIP3   OH2 6976   2.087   2.053   5.848  0.3570  0.1597 -0.1330
 2348TIP3    H1 6977   2.135   2.059   5.766 -0.4920 -1.3010 -0.7583
 2348TIP3    H2 6978   2.036   1.972   5.840 -0.2387  0.3467  1.5565
 2349TIP3   OH2 6979   8.511   0.830   2.455  0.2608 -0.1745 -0.1539
 2349TIP3    H1 6980   8.417   0.831   2.467  0.3338 -1.3814  0.6387
 2349TIP3    H2 6981   8.528   0.894   2.386 -1.1702 -0.2470 -0.5752
 2350TIP3   OH2 6982   0.549   1.969   4.462  0.3655  0.2121  0.0595
 2350TIP3    H1 6983   0.611   2.041   4.453  1.0797 -0.1787  1.6360
 2350TIP3    H2 6984   0.601   1.891   4.446 -0.2398  0.0043 -0.8945
 2351TIP3   OH2 6985   1.352   2.082   4.327 -0.6652  0.2689  0.0913
 2351TIP3    H1 6986   1.429   2.048   4.372 -0.3598 -0.2288 -0.8002
 2351TIP3    H2 6987   1.285   2.016   4.343 -0.8813  0.6356  0.7506
 2352TIP3   OH2 6988   1.160   2.459   2.235  0.1318 -0.2682  0.2214
 2352TIP3    H1 6989   1.155   2.535   2.293  0.0359 -0.9336  1.0937
 2352TIP3    H2 6990   1.215   2.488   2.163  0.9719  0.3021  1.0768
 2353TIP3   OH2 6991   0.555   4.174   3.885 -0.0791  0.5607 -0.2215
 2353TIP3    H1 6992   0.553   4.109   3.815  1.6208 -0.4341  0.6159
 2353TIP3    H2 6993   0.478   4.155   3.938  0.5102 -0.9140  0.1243
 2354TIP3   OH2 6994   4.567   5.991   6.839 -0.4328 -0.0042  0.6689
 2354TIP3    H1 6995   4.481   5.984   6.799 -0.3711  0.7038  0.4041
 2354TIP3    H2 6996   4.611   6.061   6.791  0.6051 -0.9375  0.2418
 2355TIP3   OH2 6997   0.996   2.697   4.187  0.4155 -0.0260  0.0941
 2355TIP3    H1 6998   0.938   2.730   4.256  1.0352  0.7282  0.2617
 2355TIP3    H2 6999   0.984   2.602   4.190 -0.2653  0.0692  0.6173
 2356TIP3   OH2 7000   7.934   3.296   2.906 -0.8904 -0.0304  0.5677
 2356TIP3    H1 7001   7.972   3.208   2.901 -2.8778 -0.8217 -1.5326
 2356TIP3    H2 7002   7.890   3.299   2.991 -0.1223 -0.7661  1.0012
 2357TIP3   OH2 7003   1.529   2.248   2.585  0.2316  0.1727 -0.0338
 2357TIP3    H1 7004   1.497   2.243   2.495  0.1980 -0.3271  0.0013
 2357TIP3    H2 7005   1.451   2.267   2.637  0.2524  0.4711 -0.1115
 2358TIP3   OH2 7006   8.427   1.861   1.522 -0.0734 -0.8059  0.1085
 2358TIP3    H1 7007   8.423   1.854   1.426 -1.8827 -0.3633  0.1291
 2358TIP3    H2 7008   8.421   1.955   1.539  2.6745 -0.6838  0.5939
 2359TIP3   OH2 7009   0.540   1.106   5.299  0.1897 -0.7392 -0.1648
 2359TIP3    H1 7010   0.504   1.170   5.238 -1.1369 -0.7765  0.5632
 2359TIP3    H2 7011   0.604   1.155   5.351  1.7655 -0.8451 -1.9504
 2360TIP3   OH2 7012   8.181   3.351   4.051 -0.1484 -0.1647  0.1155
 2360TIP3    H1 7013   8.110   3.295   4.080 -1.7504  1.3103 -0.8804
 2360TIP3    H2 7014   8.163   3.436   4.092  0.2674  0.5989 -1.2524
 2361TIP3   OH2 7015   1.593   2.650   4.839  0.6279 -0.2531  0.4365
 2361TIP3    H1 7016   1.546   2.726   4.806  0.4007 -1.5562 -2.3566
 2361TIP3    H2 7017   1.525   2.592   4.873  0.5141 -0.5749 -0.3310
 2362TIP3   OH2 7018   0.004   0.452   5.295  0.5249  0.5820 -0.2669
 2362TIP3    H1 7019   0.002   0.483   5.386  1.6631  0.3083 -0.1485
 2362TIP3    H2 7020   0.072   0.504   5.254  1.3935 -0.6987 -0.4564
 2363TIP3   OH2 7021   8.070   2.160   3.920  0.0849 -0.0789 -0.2261
 2363TIP3    H1 7022   8.148   2.107   3.936  0.9741  0.9783 -0.9931
 2363TIP3    H2 7023   8.068   2.171   3.825 -1.3458 -0.6104 -0.2617
 2364TIP3   OH2 7024   2.718   1.056   4.318 -0.4815  0.0378 -0.4246
 2364TIP3    H1 7025   2.640   1.100   4.354 -0.8514  0.2265 -1.4437
 2364TIP3    H2 7026   2.764   1.125   4.270  0.2108 -0.1260 -0.0031
 2365TIP3   OH2 7027   7.549   2.272   5.017  0.2170 -0.5675 -0.4316
 2365TIP3    H1 7028   7.554   2.177   5.021 -1.5887 -0.6980 -0.7632
 2365TIP3    H2 7029   7.532   2.291   4.924  0.1038  0.0539 -0.2856
 2366TIP3   OH2 7030   8.484   3.140   5.261  0.1327  0.2170 -0.1912
 2366TIP3    H1 7031   8.514   3.189   5.184  0.1842  0.8515  0.2277
 2366TIP3    H2 7032   8.487   3.203   5.332  1.7178 -0.8298  0.6914
 2367TIP3   OH2 7033   0.078   2.477   5.443  0.2215  0.6365 -0.0359
 2367TIP3    H1 7034   0.155   2.509   5.395 -0.0654  1.2922 -0.0656
 2367TIP3    H2 7035   0.006   2.530   5.410  0.4764  3.1678  3.1762
 2368TIP3   OH2 7036   1.084   2.781   3.944  0.1952 -0.1463 -0.6280
 2368TIP3    H1 7037   1.028   2.739   3.878  1.2862 -1.1465 -0.9202
 2368TIP3    H2 7038   1.043   2.759   4.028  1.7025 -3.2915 -0.6514
 2369TIP3   OH2 7039   6.704   4.644   2.646  0.3018  0.4513  0.7947
 2369TIP3    H1 7040   6.747   4.559   2.658  0.6890  0.2217 -1.9735
 2369TIP3    H2 7041   6.773   4.701   2.612 -0.5635  1.2420  0.3595
 2370TIP3   OH2 7042   0.140   3.057   4.823 -0.7087 -0.3004 -0.1690
 2370TIP3    H1 7043   0.101   3.093   4.903 -3.5690 -1.2907 -1.0677
 2370TIP3    H2 7044   0.120   2.963   4.826 -0.1993 -0.4717 -1.6718
 2371TIP3   OH2 7045   7.413   4.245   5.545  0.8287 -0.0996 -0.2208
 2371TIP3    H1 7046   7.427   4.326   5.496  1.9418 -0.7353 -0.9850
 2371TIP3    H2 7047   7.469   4.181   5.501 -0.9878 -1.5920 -0.3996
 2372TIP3   OH2 7048   0.284   0.500   3.825 -0.3527  0.0300  0.4117
 2372TIP3    H1 7049   0.220   0.512   3.756 -0.0641 -0.4567  0.0557
 2372TIP3    H2 7050   0.308   0.589   3.852 -0.8999  0.2119  0.2960
 2373TIP3   OH2 7051   7.727   5.630   4.126 -0.5023 -0.7400  0.0911
 2373TIP3    H1 7052   7.778   5.688   4.182 -1.4008 -1.4064  1.6462
 2373TIP3    H2 7053   7.792   5.584   4.073  0.3006  0.6172 -0.1231
 2374TIP3   OH2 7054   0.665   2.619   4.780 -0.2151 -0.4478  0.3962
 2374TIP3    H1 7055   0.590   2.676   4.797 -0.0477  0.3786 -1.4555
 2374TIP3    H2 7056   0.733   2.677   4.747  0.7191 -1.4127  0.5775
 2375TIP3   OH2 7057   0.771   1.770   5.245  0.1170 -0.1664 -0.0671
 2375TIP3    H1 7058   0.704   1.775   5.177  1.5958  1.3710 -1.4639
 2375TIP3    H2 7059   0.743   1.834   5.311 -0.7117 -0.8287  0.2365
 2376TIP3   OH2 7060   0.342   1.305   3.841 -0.3097  0.1289 -0.3996
 2376TIP3    H1 7061   0.368   1.272   3.927 -0.7340 -0.7782 -0.6220
 2376TIP3    H2 7062   0.247   1.296   3.839 -0.3079  0.2099 -0.9474
 2377TIP3   OH2 7063   2.365   1.453   3.020 -0.2911 -0.7107 -0.0596
 2377TIP3    H1 7064   2.423   1.438   3.094  0.4425  3.0231  0.2273
 2377TIP3    H2 7065   2.279   1.467   3.059 -0.3921 -1.2442 -0.0951
 2378TIP3   OH2 7066   1.578   4.448   6.543  0.0131 -0.5064  0.1459
 2378TIP3    H1 7067   1.542   4.394   6.473  1.3237 -0.2814 -0.7011
 2378TIP3    H2 7068   1.648   4.499   6.502 -0.3791  0.9388  1.2104
 2379TIP3   OH2 7069   1.298   1.306   4.209  0.0136 -0.3684 -0.0646
 2379TIP3    H1 7070   1.325   1.328   4.120 -1.3270 -1.1551 -0.6980
 2379TIP3    H2 7071   1.266   1.215   4.202  1.5562 -1.0560  1.5940
 2380TIP3   OH2 7072   8.163   0.894   4.785 -0.0444  0.8320 -0.0938
 2380TIP3    H1 7073   8.106   0.822   4.757 -0.4189  1.3685 -0.7178
 2380TIP3    H2 7074   8.252   0.862   4.767 -0.1361 -0.0136  0.8941
 2381TIP3   OH2 7075   0.281   0.898   3.216 -0.5615  0.5335 -0.2326
 2381TIP3    H1 7076   0.366   0.868   3.184 -0.8379  0.0847 -0.5512
 2381TIP3    H2 7077   0.300   0.940   3.300  0.2397  2.1162 -1.1749
 2382TIP3   OH2 7078   6.095   7.736   6.056  0.2460  0.0876 -0.5209
 2382TIP3    H1 7079   6.053   7.691   5.984 -0.5728 -1.6210  0.9824
 2382TIP3    H2 7080   6.054   7.699   6.135  0.1195  2.8825  0.7860
 2383TIP3   OH2 7081   1.330   2.880   5.012 -0.1856  0.7153  0.3726
 2383TIP3    H1 7082   1.346   2.833   4.930  0.4811  1.2825  0.1680
 2383TIP3    H2 7083   1.253   2.838   5.049  1.0156 -1.2554  0.7165
 2384TIP3   OH2 7084   1.637   1.745   4.647 -0.3354 -0.4558  0.5747
 2384TIP3    H1 7085   1.569   1.732   4.714 -1.8540 -0.3435 -0.9194
 2384TIP3    H2 7086   1.612   1.825   4.601  0.8438 -0.3833  0.0212
 2385TIP3   OH2 7087   8.313   1.241   5.196 -0.1490 -0.0528  0.2418
 2385TIP3    H1 7088   8.257   1.171   5.162 -0.1223 -0.3807  0.8799
 2385TIP3    H2 7089   8.252   1.308   5.226 -0.2979 -1.3916  3.1053
 2386TIP3   OH2 7090   7.682   2.893   4.522 -0.4723 -0.0212  1.1986
 2386TIP3    H1 7091   7.599   2.922   4.560 -0.5848  1.4817 -0.1384
 2386TIP3    H2 7092   7.747   2.956   4.555 -0.7598  2.0085 -1.9277
 2387TIP3   OH2 7093   2.712   1.931   2.880 -0.3031  0.4151 -0.0792
 2387TIP3    H1 7094   2.691   1.864   2.944 -1.2463  0.7889  0.0060
 2387TIP3    H2 7095   2.808   1.938   2.883 -0.1365 -1.4148 -0.6118
 2388TIP3   OH2 7096   1.645   1.577   5.093  0.0470  0.1155 -0.3950
 2388TIP3    H1 7097   1.566   1.629   5.079  1.6907  2.9951  0.4887
 2388TIP3    H2 7098   1.620   1.487   5.072 -3.5008  0.9373  0.0815
 2389TIP3   OH2 7099   0.699   3.537   4.145 -0.6520 -0.0992  0.3189
 2389TIP3    H1 7100   0.749   3.523   4.225  0.8485 -0.6033 -0.7040
 2389TIP3    H2 7101   0.749   3.494   4.076 -0.8983  2.0005 -1.2446
 2390TIP3   OH2 7102   0.701   1.731   3.338  0.1312 -0.4104 -0.0494
 2390TIP3    H1 7103   0.746   1.668   3.282  1.0130 -0.4609  0.6956
 2390TIP3    H2 7104   0.615   1.741   3.299  0.2225 -1.5719 -0.5573
 2391TIP3   OH2 7105   1.399   1.450   4.708 -1.0792  0.6394 -0.4618
 2391TIP3    H1 7106   1.371   1.390   4.639 -1.4473  0.7410 -0.4007
 2391TIP3    H2 7107   1.489   1.425   4.726 -1.5888 -0.6239  0.3478
 2392TIP3   OH2 7108   8.067   2.992   2.424  0.4574 -0.0427  0.2609
 2392TIP3    H1 7109   8.093   3.080   2.451  0.0096 -0.1885  1.1834
 2392TIP3    H2 7110   8.085   2.990   2.330 -0.7381  1.4768 -0.0311
 2393TIP3   OH2 7111   1.445   1.862   4.835 -0.7814  0.1925 -0.0906
 2393TIP3    H1 7112   1.377   1.927   4.856  0.5967  1.3382  0.9704
 2393TIP3    H2 7113   1.524   1.898   4.874 -0.1613 -2.6169  1.3487
 2394TIP3   OH2 7114   1.112   0.241   3.650 -0.1276 -0.1995 -0.5861
 2394TIP3    H1 7115   1.163   0.165   3.677 -0.1121 -0.4099 -1.1838
 2394TIP3    H2 7116   1.039   0.244   3.712  0.2179 -0.3202 -0.1683
 2395TIP3   OH2 7117   2.110   3.121   5.147  0.2290  0.3474 -0.0994
 2395TIP3    H1 7118   2.136   3.213   5.141  0.4937  0.3196  0.5440
 2395TIP3    H2 7119   2.093   3.108   5.240 -3.7062  0.7998 -0.6865
 2396TIP3   OH2 7120   0.272   1.258   4.730  0.4596  0.1690 -0.2490
 2396TIP3    H1 7121   0.314   1.195   4.672 -1.6145  0.5233 -2.2000
 2396TIP3    H2 7122   0.262   1.211   4.813 -1.2989 -2.2178 -1.7336
 2397TIP3   OH2 7123   4.936   6.174   0.150 -0.1997  0.3713  0.0649
 2397TIP3    H1 7124   4.994   6.145   0.221 -1.2549 -0.7264  0.5057
 2397TIP3    H2 7125   4.959   6.118   0.076 -0.9795 -0.3647  0.3699
 2398TIP3   OH2 7126   5.637   3.530   3.786  0.3922 -0.0298 -0.1780
 2398TIP3    H1 7127   5.712   3.471   3.793  0.2010 -0.2750 -0.2078
 2398TIP3    H2 7128   5.657   3.585   3.710 -0.1822 -1.1217 -1.1192
 2399TIP3   OH2 7129   1.768   1.402   2.609  0.7050 -0.5020  0.4308
 2399TIP3    H1 7130   1.838   1.382   2.547  0.3885 -2.4679  0.6502
 2399TIP3    H2 7131   1.705   1.330   2.598 -0.4579  0.3400  1.4063
 2400TIP3   OH2 7132   5.662   7.555   5.283 -0.4913 -0.1722  0.0332
 2400TIP3    H1 7133   5.609   7.476   5.295 -2.3348  1.0783  0.3161
 2400TIP3    H2 7134   5.603   7.627   5.303  1.3971  1.2684  0.5970
 2401TIP3   OH2 7135   7.416   1.781   5.536 -0.4459  0.2438 -0.1034
 2401TIP3    H1 7136   7.411   1.851   5.600 -0.7845 -0.0457  0.1907
 2401TIP3    H2 7137   7.397   1.823   5.452 -1.0952  0.4222  0.1301
 2402TIP3   OH2 7138   1.651   1.177   3.395  0.3523 -0.6467 -0.0491
 2402TIP3    H1 7139   1.602   1.227   3.460 -0.1168 -0.8521 -0.2461
 2402TIP3    H2 7140   1.731   1.229   3.381 -0.3215  0.2717 -0.5535
 2403TIP3   OH2 7141   1.661   2.867   5.306  0.2928  0.5129  0.0998
 2403TIP3    H1 7142   1.592   2.805   5.280 -0.0505  1.0654 -0.3147
 2403TIP3    H2 7143   1.646   2.881   5.399  0.0628  0.3485  0.0899
 2404TIP3   OH2 7144   2.399   0.863   6.854  0.4268 -0.1306  0.5060
 2404TIP3    H1 7145   2.413   0.788   6.796  1.7309  0.0129  0.6367
 2404TIP3    H2 7146   2.416   0.829   6.942  0.3123  0.1431  0.6346
 2405TIP3   OH2 7147   0.315   3.581   4.432  0.2821 -0.0142  0.0133
 2405TIP3    H1 7148   0.336   3.496   4.471  0.9584  0.4484  0.6666
 2405TIP3    H2 7149   0.399   3.615   4.403 -0.0128  0.3648 -0.3975
 2406TIP3   OH2 7150   1.378   2.830   4.754 -0.1201  0.3191  0.3561
 2406TIP3    H1 7151   1.289   2.821   4.718 -0.8499  3.0010  1.3192
 2406TIP3    H2 7152   1.415   2.904   4.705  1.0345  0.1782  1.0247
 2407TIP3   OH2 7153   7.555   2.160   3.804  0.3557 -0.2893  0.1970
 2407TIP3    H1 7154   7.508   2.155   3.721  0.4827  0.5536  0.0753
 2407TIP3    H2 7155   7.644   2.130   3.782  0.4802  0.2483 -0.0452
 2408TIP3   OH2 7156   2.096   3.595   5.273  0.2512  0.4061  0.1488
 2408TIP3    H1 7157   2.008   3.585   5.238  0.0638 -0.3794  0.8553
 2408TIP3    H2 7158   2.151   3.543   5.215  0.2283  0.7359 -0.1727
 2409TIP3   OH2 7159   8.212   3.357   2.816  0.8807 -0.3306 -0.0033
 2409TIP3    H1 7160   8.283   3.395   2.868  1.1768  0.6175 -1.0861
 2409TIP3    H2 7161   8.133   3.377   2.865  1.2533 -0.3658  0.6157
 2410TIP3   OH2 7162   1.596   3.507   4.785  0.2851 -0.0558  0.2518
 2410TIP3    H1 7163   1.519   3.451   4.788 -0.5487  1.0179 -1.2233
 2410TIP3    H2 7164   1.567   3.588   4.745  2.3068  0.1494 -0.8990
 2411TIP3   OH2 7165   6.979   0.517   6.009 -0.1385 -0.0596  0.2565
 2411TIP3    H1 7166   6.928   0.458   6.064 -0.0130 -1.0775 -0.7051
 2411TIP3    H2 7167   6.915   0.577   5.971 -0.3239  0.1396  0.8882
 2412TIP3   OH2 7168   7.494   3.812   4.980  0.1911  0.1268  0.3986
 2412TIP3    H1 7169   7.559   3.876   5.010  0.8144  0.8563 -2.2982
 2412TIP3    H2 7170   7.545   3.751   4.926 -1.1016 -0.1384 -0.5506
 2413TIP3   OH2 7171   2.073   2.638   4.825 -0.0069 -0.2133  0.2201
 2413TIP3    H1 7172   2.153   2.672   4.866 -0.7427  1.1257  0.5801
 2413TIP3    H2 7173   2.003   2.689   4.865 -0.8802 -0.0754 -1.4736
 2414TIP3   OH2 7174   1.091   3.945   4.642 -0.1171 -0.6787 -0.1184
 2414TIP3    H1 7175   1.061   4.033   4.619 -0.0174 -0.2278  1.4126
 2414TIP3    H2 7176   1.031   3.916   4.711  1.1728 -0.9224  0.9198
 2415TIP3   OH2 7177   3.008   3.281   3.565 -0.3537  0.1981  0.2010
 2415TIP3    H1 7178   2.931   3.333   3.592  0.4015  1.1606  0.5503
 2415TIP3    H2 7179   3.070   3.346   3.533  0.2430 -0.5996 -0.2764
 2416TIP3   OH2 7180   0.439   1.448   3.457 -0.3115 -0.2626 -0.4905
 2416TIP3    H1 7181   0.490   1.519   3.497 -1.8381  0.1884  0.7280
 2416TIP3    H2 7182   0.499   1.407   3.396  0.7243  1.8959 -0.9900
 2417TIP3   OH2 7183   7.735   1.324   4.608 -0.2909  0.6620 -0.5483
 2417TIP3    H1 7184   7.816   1.375   4.610 -0.8946  1.8267 -3.0251
 2417TIP3    H2 7185   7.697   1.344   4.522 -1.6895 -2.2409 -0.6596
 2418TIP3   OH2 7186   0.825   2.483   4.173 -0.3189 -0.1798  0.5907
 2418TIP3    H1 7187   0.736   2.473   4.140 -0.8462 -2.2801  2.5564
 2418TIP3    H2 7188   0.881   2.458   4.100 -1.4133 -1.6604  0.2395
 2419TIP3   OH2 7189   8.195   1.645   3.993 -0.1936  0.0031 -0.5282
 2419TIP3    H1 7190   8.231   1.643   3.905 -1.1866  0.0811 -0.9454
 2419TIP3    H2 7191   8.117   1.590   3.989 -0.3328  0.1298  0.2586
 2420TIP3   OH2 7192   2.779   0.923   5.921 -0.0564 -0.2843 -0.1965
 2420TIP3    H1 7193   2.786   0.855   5.988  0.6279  1.1982  1.2655
 2420TIP3    H2 7194   2.866   0.927   5.881  0.3580  0.7440  0.7610
 2421TIP3   OH2 7195   0.145   2.635   3.346 -0.1638  0.2289 -0.0742
 2421TIP3    H1 7196   0.145   2.731   3.350 -0.8292  0.1501  2.4844
 2421TIP3    H2 7197   0.066   2.609   3.393 -0.8283 -1.5573 -2.1240
 2422TIP3   OH2 7198   0.182   1.180   2.638 -0.1902 -0.1106 -0.0480
 2422TIP3    H1 7199   0.211   1.190   2.548  0.6959 -2.7904 -0.1071
 2422TIP3    H2 7200   0.237   1.241   2.688 -0.6818  1.3705 -1.2840
 2423TIP3   OH2 7201   0.281   2.343   1.809  0.0403  0.1524  0.2746
 2423TIP3    H1 7202   0.321   2.416   1.856 -0.3182  0.5037  0.0250
 2423TIP3    H2 7203   0.233   2.295   1.877 -0.6926  0.8076  0.2227
 2424TIP3   OH2 7204   1.181   1.137   3.523  0.0786 -0.2188  0.9175
 2424TIP3    H1 7205   1.205   1.163   3.612  3.0717  0.0181  0.1106
 2424TIP3    H2 7206   1.181   1.042   3.525 -0.1747 -0.2123  1.2457
 2425TIP3   OH2 7207   1.021   1.173   5.614 -0.1099  0.9264 -0.3376
 2425TIP3    H1 7208   1.021   1.176   5.518 -0.8573 -0.8959 -0.4086
 2425TIP3    H2 7209   0.936   1.211   5.638 -0.4350  0.2679 -0.4417
 2426TIP3   OH2 7210   1.063   1.306   6.624  0.1269  0.6171  0.1783
 2426TIP3    H1 7211   1.146   1.307   6.576  0.6684 -2.5376  0.9389
 2426TIP3    H2 7212   1.033   1.215   6.619 -2.1900  1.2365  1.8006
 2427TIP3   OH2 7213   2.516   1.671   4.148  0.0668 -0.2762 -0.2104
 2427TIP3    H1 7214   2.454   1.701   4.213  0.1785  0.1808 -0.3123
 2427TIP3    H2 7215   2.550   1.588   4.183  0.0871 -0.0610  0.2811
 2428TIP3   OH2 7216   1.438   1.971   2.453 -0.1552  0.0787 -0.5075
 2428TIP3    H1 7217   1.517   1.928   2.420  0.3290  1.0727 -0.6913
 2428TIP3    H2 7218   1.385   1.988   2.375 -0.8936 -1.2460 -0.3026
 2429TIP3   OH2 7219   2.035   0.148   2.468 -0.3305  0.1155  0.4027
 2429TIP3    H1 7220   2.101   0.082   2.450 -0.6135 -0.5547  1.7828
 2429TIP3    H2 7221   2.061   0.187   2.552 -1.9766 -0.5699  1.2603
 2430TIP3   OH2 7222   2.152   2.779   3.392  0.0347  0.7234 -0.2609
 2430TIP3    H1 7223   2.091   2.713   3.424  0.0284  1.5617  1.5391
 2430TIP3    H2 7224   2.097   2.839   3.341 -0.6061  1.1908  0.9298
 2431TIP3   OH2 7225   1.120   3.021   2.966  0.1053  0.4304 -0.2223
 2431TIP3    H1 7226   1.067   2.942   2.960  0.7055  0.0462 -0.5575
 2431TIP3    H2 7227   1.138   3.031   3.059 -0.6712  0.6443 -0.0909
 2432TIP3   OH2 7228   0.638   3.234   1.147 -0.3844 -0.1315 -0.3272
 2432TIP3    H1 7229   0.586   3.160   1.116  0.5063 -1.2024  0.6654
 2432TIP3    H2 7230   0.659   3.212   1.238  1.5725  0.3857 -0.6185
 2433TIP3   OH2 7231   2.785   1.598   3.652  0.0702 -0.2190 -0.0880
 2433TIP3    H1 7232   2.708   1.564   3.605  0.4582 -1.4441  0.1424
 2433TIP3    H2 7233   2.761   1.591   3.744  0.1296  0.2079 -0.0393
 2434TIP3   OH2 7234   0.855   2.601   5.046  0.5547  0.0788  0.2244
 2434TIP3    H1 7235   0.836   2.519   5.090  0.9886  0.2088  0.6635
 2434TIP3    H2 7236   0.786   2.611   4.981 -2.2054  1.6577  3.2540
 2435TIP3   OH2 7237   3.725   4.761   1.816  0.1760  0.0953  0.1160
 2435TIP3    H1 7238   3.686   4.838   1.857 -0.7519 -0.8867  1.0868
 2435TIP3    H2 7239   3.797   4.737   1.874  0.3422  0.0990 -0.0856
 2436TIP3   OH2 7240   0.695   8.020   5.064 -0.9828 -0.1264  0.0193
 2436TIP3    H1 7241   0.706   7.973   4.982 -2.3459  0.3227 -0.4271
 2436TIP3    H2 7242   0.751   7.972   5.126  0.3838 -0.2107 -1.2474
 2437TIP3   OH2 7243   3.031   0.498   2.968  0.5032 -0.7997  0.1557
 2437TIP3    H1 7244   3.099   0.565   2.960 -1.2164  0.9682 -0.3044
 2437TIP3    H2 7245   3.012   0.494   3.062 -1.0715  1.1918 -0.0225
 2438TIP3   OH2 7246   3.560   1.879   2.796  0.5037 -0.1899  0.5988
 2438TIP3    H1 7247   3.537   1.826   2.720 -1.3497  1.0970  0.2144
 2438TIP3    H2 7248   3.519   1.835   2.870 -0.0379  0.0436  0.4434
 2439TIP3   OH2 7249   3.460   2.178   2.117 -0.0583  0.0711 -0.0008
 2439TIP3    H1 7250   3.550   2.210   2.128  0.0225  0.2177 -0.9772
 2439TIP3    H2 7251   3.406   2.244   2.160  0.2294  0.6743 -0.5411
 2440TIP3   OH2 7252   0.102   2.070   3.663  0.1257 -0.4458  0.3918
 2440TIP3    H1 7253   0.114   2.161   3.691  0.8226  0.2966 -2.1639
 2440TIP3    H2 7254   0.141   2.018   3.733 -0.6545  1.2061  2.0869
 2441TIP3   OH2 7255   2.774   1.534   2.468 -0.2963  0.2390  0.3908
 2441TIP3    H1 7256   2.724   1.598   2.519 -0.6064  1.0477 -0.8972
 2441TIP3    H2 7257   2.754   1.450   2.509 -2.1653  0.6340  0.3182
 2442TIP3   OH2 7258   4.185   1.618   4.281  0.1193  0.2288  0.4253
 2442TIP3    H1 7259   4.245   1.612   4.356 -0.2395  2.0969  0.8875
 2442TIP3    H2 7260   4.104   1.653   4.318  0.2944  2.2088 -1.0090
 2443TIP3   OH2 7261   2.056   1.833   3.936  0.8615 -0.0118 -0.1634
 2443TIP3    H1 7262   2.141   1.789   3.942  1.0392  0.5260  1.7150
 2443TIP3    H2 7263   1.994   1.771   3.975  0.5495 -0.0350 -0.7043
 2444TIP3   OH2 7264   3.964   2.658   1.615  0.0345 -0.6784 -0.2330
 2444TIP3    H1 7265   3.895   2.714   1.579  0.4765 -1.7961 -2.8704
 2444TIP3    H2 7266   4.012   2.716   1.674 -1.3139  0.9267 -0.6467
 2445TIP3   OH2 7267   1.042   1.786   3.673  0.3064 -0.1466 -0.4983
 2445TIP3    H1 7268   1.078   1.707   3.714  1.9572  0.4188 -0.8119
 2445TIP3    H2 7269   1.023   1.844   3.746 -0.4939 -0.6632 -0.2929
 2446TIP3   OH2 7270   1.126   0.376   5.099  0.4945  0.5902 -0.0489
 2446TIP3    H1 7271   1.085   0.455   5.134  0.3026 -0.1748  1.5139
 2446TIP3    H2 7272   1.209   0.406   5.062  0.6123  1.4815  0.9069
 2447TIP3   OH2 7273   2.977   1.237   2.207  0.2173 -0.8556 -0.1855
 2447TIP3    H1 7274   2.950   1.216   2.296  2.2154  0.1013  0.6711
 2447TIP3    H2 7275   2.972   1.332   2.202  0.9928 -0.8389 -0.7884
 2448TIP3   OH2 7276   2.674   4.585   6.863 -0.7115 -0.1110 -0.2839
 2448TIP3    H1 7277   2.768   4.601   6.870 -1.0537  2.8205 -1.6799
 2448TIP3    H2 7278   2.662   4.497   6.898  2.3775 -0.0352  1.1219
 2449TIP3   OH2 7279   0.363   4.463   3.537  0.3505  0.3201  0.1007
 2449TIP3    H1 7280   0.316   4.483   3.456 -0.5202  0.5355  0.6532
 2449TIP3    H2 7281   0.330   4.526   3.601  0.8307 -0.0265  0.7018
 2450TIP3   OH2 7282   3.596   1.944   4.719  0.5953  0.0119 -0.0878
 2450TIP3    H1 7283   3.529   1.914   4.780  0.8800  1.2830  0.8767
 2450TIP3    H2 7284   3.588   2.040   4.720  1.2940  0.0898 -1.2514
 2451TIP3   OH2 7285   4.321   2.452   3.308  0.0386  0.3501 -0.1693
 2451TIP3    H1 7286   4.336   2.359   3.288  1.8232  0.1764  1.8198
 2451TIP3    H2 7287   4.231   2.468   3.279  1.2831 -0.6807 -5.0545
 2452TIP3   OH2 7288   2.235   0.191   3.595  0.4987  0.1621 -0.5898
 2452TIP3    H1 7289   2.218   0.279   3.630 -1.8893 -0.1215 -0.9859
 2452TIP3    H2 7290   2.233   0.203   3.500 -1.2316 -0.5533 -0.6583
 2453TIP3   OH2 7291   1.626   2.552   1.655 -0.1953 -0.6693 -0.4588
 2453TIP3    H1 7292   1.677   2.503   1.591 -1.0904 -2.4446  0.1368
 2453TIP3    H2 7293   1.613   2.490   1.727 -1.0078  0.5870  0.4990
 2454TIP3   OH2 7294   3.280   1.241   3.091  0.3692 -0.0574  0.0359
 2454TIP3    H1 7295   3.297   1.225   2.999  0.9646 -0.7059  0.2590
 2454TIP3    H2 7296   3.317   1.328   3.108  0.2853  0.0464 -0.3190
 2455TIP3   OH2 7297   3.749   2.681   3.906  0.2507  0.5431 -0.4740
 2455TIP3    H1 7298   3.674   2.741   3.906 -0.3676 -0.2141  0.5449
 2455TIP3    H2 7299   3.758   2.654   3.998 -0.1561 -1.7315 -1.0585
 2456TIP3   OH2 7300   1.511   1.997   3.510 -0.2305  0.3353 -0.2447
 2456TIP3    H1 7301   1.505   2.092   3.518 -1.7144  0.1594  1.0081
 2456TIP3    H2 7302   1.579   1.982   3.445  0.9236  2.2233  0.5139
 2457TIP3   OH2 7303   1.935   0.413   1.541  0.1273 -0.4553  0.8300
 2457TIP3    H1 7304   1.925   0.320   1.519 -0.3211 -0.1291 -0.3215
 2457TIP3    H2 7305   1.870   0.427   1.611  0.7159 -1.1792  1.5432
 2458TIP3   OH2 7306   4.266   3.416   4.739 -0.5087 -0.1601 -0.2383
 2458TIP3    H1 7307   4.309   3.332   4.734 -3.6361 -2.0080  1.8346
 2458TIP3    H2 7308   4.227   3.429   4.653  0.8160 -0.3568 -0.8661
 2459TIP3   OH2 7309   3.922   1.489   4.132 -0.0831  0.3544  0.2045
 2459TIP3    H1 7310   3.834   1.522   4.150 -1.0068 -1.6882 -0.5000
 2459TIP3    H2 7311   3.911   1.395   4.123  1.9796  0.2194 -1.1455
 2460TIP3   OH2 7312   3.663   3.174   4.931 -0.1473 -0.1012 -0.2343
 2460TIP3    H1 7313   3.668   3.082   4.906  0.6500 -0.6088  1.6977
 2460TIP3    H2 7314   3.569   3.195   4.929 -0.2963 -0.8512 -1.0307
 2461TIP3   OH2 7315   1.535   2.550   2.622 -0.5386  0.0822 -0.2370
 2461TIP3    H1 7316   1.569   2.461   2.612  0.9445  0.6439 -0.3638
 2461TIP3    H2 7317   1.483   2.565   2.543 -0.1464 -0.3924 -0.5881
 2462TIP3   OH2 7318   1.417   2.189   2.844  0.7155 -0.3879  0.6262
 2462TIP3    H1 7319   1.458   2.131   2.780  2.4313 -1.1183  2.3495
 2462TIP3    H2 7320   1.438   2.150   2.929 -4.6822 -1.5206  1.6101
 2463TIP3   OH2 7321   2.489   1.643   2.854 -0.2370  0.2749 -0.7948
 2463TIP3    H1 7322   2.438   1.572   2.892 -1.3643  0.6999 -1.4812
 2463TIP3    H2 7323   2.546   1.673   2.925 -0.9669 -0.1851 -0.0078
 2464TIP3   OH2 7324   3.807   3.691   3.962 -0.5793 -0.2200  0.2566
 2464TIP3    H1 7325   3.820   3.596   3.955  0.7494  0.0578 -1.4665
 2464TIP3    H2 7326   3.888   3.723   4.001 -1.0304  0.2049  0.8346
 2465TIP3   OH2 7327   2.068   1.215   5.277 -0.3675 -0.0143 -0.3952
 2465TIP3    H1 7328   2.037   1.248   5.361  2.7723 -0.7731  1.1402
 2465TIP3    H2 7329   2.078   1.121   5.290 -0.4623 -0.2266 -1.8106
 2466TIP3   OH2 7330   1.612   0.576   3.633 -0.8373  0.1022  0.1791
 2466TIP3    H1 7331   1.691   0.630   3.638 -0.3865 -0.7113  2.1241
 2466TIP3    H2 7332   1.612   0.542   3.543  1.3867 -0.4288  0.3515
 2467TIP3   OH2 7333   2.143   1.356   3.421  0.0629  0.6390 -0.7688
 2467TIP3    H1 7334   2.230   1.395   3.421  0.1161  0.6597  1.8432
 2467TIP3    H2 7335   2.149   1.284   3.483 -1.5730  0.1489 -1.1408
 2468TIP3   OH2 7336   3.282   1.805   1.190  0.4140 -0.1050  0.7416
 2468TIP3    H1 7337   3.309   1.728   1.238 -1.7809 -1.3032  0.1131
 2468TIP3    H2 7338   3.312   1.790   1.100  0.7688  0.1895  0.8082
 2469TIP3   OH2 7339   2.492   2.267   5.432  0.1572 -0.1140  0.6189
 2469TIP3    H1 7340   2.477   2.361   5.422 -1.1763 -0.3488  0.1999
 2469TIP3    H2 7341   2.587   2.257   5.438  0.2608  1.3471  1.6292
 2470TIP3   OH2 7342   2.429   1.369   2.012  0.2101 -0.1482  0.1791
 2470TIP3    H1 7343   2.349   1.361   1.959 -0.1358 -0.6719  0.7774
 2470TIP3    H2 7344   2.415   1.311   2.086  0.5577  0.8481  1.0382
 2471TIP3   OH2 7345   2.450   3.558   4.403 -0.2071 -0.0480 -0.4619
 2471TIP3    H1 7346   2.466   3.622   4.472 -1.0362 -1.4241  1.0269
 2471TIP3    H2 7347   2.355   3.546   4.403  0.0137 -1.8447 -0.2231
 2472TIP3   OH2 7348   2.862   2.646   3.612  0.6360 -0.6208 -0.1153
 2472TIP3    H1 7349   2.872   2.560   3.570  2.2925 -0.8810  0.7615
 2472TIP3    H2 7350   2.918   2.641   3.690  1.1377  1.4175 -0.3190
 2473TIP3   OH2 7351   1.116   0.759   4.476 -0.5629  0.0328  0.0853
 2473TIP3    H1 7352   1.173   0.730   4.547 -0.0741  0.5608 -0.0854
 2473TIP3    H2 7353   1.123   0.689   4.410 -1.8460 -0.9624  0.9955
 2474TIP3   OH2 7354   2.483   1.038   5.124  0.0860  0.1625  0.1483
 2474TIP3    H1 7355   2.439   1.080   5.050 -0.8853  0.1511  0.7143
 2474TIP3    H2 7356   2.568   1.082   5.129 -0.8821  2.0363  0.6872
 2475TIP3   OH2 7357   3.597   3.258   2.403  0.0255 -0.4057 -0.6147
 2475TIP3    H1 7358   3.602   3.337   2.457 -0.7515 -0.2981 -0.6996
 2475TIP3    H2 7359   3.597   3.185   2.465 -0.3687 -0.3004 -0.4953
 2476TIP3   OH2 7360   3.746   3.026   2.911  0.0502  0.4952  0.5563
 2476TIP3    H1 7361   3.710   2.956   2.857  1.4095 -0.9565  1.4633
 2476TIP3    H2 7362   3.766   3.096   2.849  0.1468 -0.5339 -0.6107
 2477TIP3   OH2 7363   1.731   2.347   0.243  0.4150 -0.0334  0.4094
 2477TIP3    H1 7364   1.696   2.259   0.259 -3.9291  1.6181  0.7326
 2477TIP3    H2 7365   1.677   2.381   0.172  3.2341  1.7591 -0.9441
 2478TIP3   OH2 7366   1.894   0.894   3.205  0.1180 -0.2960  0.4522
 2478TIP3    H1 7367   1.844   0.882   3.285 -2.0269 -0.9890 -0.9399
 2478TIP3    H2 7368   1.850   0.965   3.159  1.5248  0.3226  0.0188
 2479TIP3   OH2 7369   2.791   2.585   2.710  0.2905 -0.2776  0.2903
 2479TIP3    H1 7370   2.835   2.669   2.695  0.4704 -0.7748 -2.0966
 2479TIP3    H2 7371   2.840   2.546   2.782 -0.1165  1.8690  1.8075
 2480TIP3   OH2 7372   2.127   4.061   3.163 -0.0976 -0.3223  0.8794
 2480TIP3    H1 7373   2.210   4.091   3.199 -0.6960 -0.6314  2.5542
 2480TIP3    H2 7374   2.061   4.114   3.207 -0.8552 -0.8061  0.3371
 2481TIP3   OH2 7375   2.060   1.148   5.014  0.5784 -0.8471  0.3724
 2481TIP3    H1 7376   2.152   1.173   5.007  0.4606 -0.6318 -0.4742
 2481TIP3    H2 7377   2.044   1.143   5.108  0.7563  1.7279  0.5782
 2482TIP3   OH2 7378   2.336   2.483   2.207 -0.0138  0.5759 -0.3121
 2482TIP3    H1 7379   2.249   2.491   2.166  0.6393 -1.9613 -2.3109
 2482TIP3    H2 7380   2.361   2.573   2.226 -2.7767  1.4157 -0.3824
 2483TIP3   OH2 7381   3.793   1.129   2.302 -0.1725  0.6439 -0.1097
 2483TIP3    H1 7382   3.822   1.112   2.391  0.4183 -1.1277 -0.6301
 2483TIP3    H2 7383   3.697   1.135   2.309 -0.4108 -2.6324  0.1823
 2484TIP3   OH2 7384   2.779   0.847   5.070 -0.3708  0.3021  0.0727
 2484TIP3    H1 7385   2.780   0.811   5.159  1.7868 -1.0625 -0.4571
 2484TIP3    H2 7386   2.824   0.931   5.079  0.7760 -0.2924  0.1409
 2485TIP3   OH2 7387   4.562   1.690   4.259 -0.4019  0.8451 -0.0685
 2485TIP3    H1 7388   4.533   1.653   4.343 -0.4772  1.3971  0.1470
 2485TIP3    H2 7389   4.544   1.783   4.266 -2.0584  0.6525 -1.3934
 2486TIP3   OH2 7390   3.393   2.393   2.316  0.0456 -0.0614 -0.1689
 2486TIP3    H1 7391   3.368   2.398   2.408  2.0103 -1.8470  0.5104
 2486TIP3    H2 7392   3.479   2.352   2.317  0.0514 -0.2010 -2.8133
 2487TIP3   OH2 7393   4.854   1.061   1.125  0.2074 -0.1825 -0.0741
 2487TIP3    H1 7394   4.835   1.129   1.061  0.3205 -1.1846 -1.1931
 2487TIP3    H2 7395   4.938   1.087   1.163 -0.2931  0.8838  0.3054
 2488TIP3   OH2 7396   2.362   4.508   3.109  0.1263 -1.2889 -0.5534
 2488TIP3    H1 7397   2.445   4.462   3.111  0.9488  0.1601 -0.4943
 2488TIP3    H2 7398   2.381   4.593   3.150 -1.8242 -1.6636  1.2096
 2489TIP3   OH2 7399   3.142   1.745   4.666 -0.4131 -0.2295 -0.6298
 2489TIP3    H1 7400   3.138   1.759   4.761 -1.6464 -0.8124 -0.5927
 2489TIP3    H2 7401   3.060   1.781   4.633 -0.1246 -0.3183 -1.4438
 2490TIP3   OH2 7402   1.122   0.264   1.602 -0.3944  0.1317 -0.4938
 2490TIP3    H1 7403   1.121   0.171   1.627 -3.1910  0.4142  0.6683
 2490TIP3    H2 7404   1.115   0.310   1.686  1.5741  1.4234 -1.0275
 2491TIP3   OH2 7405   4.467   4.235   5.202  0.6452 -0.5352  0.6085
 2491TIP3    H1 7406   4.435   4.159   5.154 -1.1759  0.3993  0.2953
 2491TIP3    H2 7407   4.437   4.222   5.292 -0.3765  0.1781  0.3852
 2492TIP3   OH2 7408   0.161   3.407   0.869 -0.2394 -0.3968 -0.0261
 2492TIP3    H1 7409   0.077   3.398   0.823 -0.8300  0.5759  0.8420
 2492TIP3    H2 7410   0.139   3.454   0.949  1.0808 -0.5052  0.4033
 2493TIP3   OH2 7411   0.763   0.793   3.391 -0.1663  0.3952  0.4273
 2493TIP3    H1 7412   0.779   0.866   3.450  1.5712  0.3106  0.0826
 2493TIP3    H2 7413   0.808   0.817   3.310  0.9268 -1.2926  0.4987
 2494TIP3   OH2 7414   1.899   0.608   3.242  0.0118  0.2644  0.2673
 2494TIP3    H1 7415   1.953   0.545   3.195 -0.5468 -0.4759  0.6052
 2494TIP3    H2 7416   1.943   0.692   3.229  0.6488 -0.1602 -0.3579
 2495TIP3   OH2 7417   3.423   1.524   4.058  0.0741 -0.2200 -0.4702
 2495TIP3    H1 7418   3.518   1.518   4.064 -0.0125  0.7495  2.5628
 2495TIP3    H2 7419   3.407   1.616   4.034 -0.0961 -0.7023 -2.3117
 2496TIP3   OH2 7420   1.606   0.361   2.628  0.4174 -0.2287 -0.4730
 2496TIP3    H1 7421   1.521   0.319   2.644 -0.4893  0.7353 -2.5430
 2496TIP3    H2 7422   1.657   0.294   2.582 -0.1186  0.0177 -1.4493
 2497TIP3   OH2 7423   1.784   0.602   4.614  0.2002 -0.2294  0.0516
 2497TIP3    H1 7424   1.853   0.636   4.671 -0.4843 -0.8399  1.2622
 2497TIP3    H2 7425   1.735   0.541   4.669 -2.3717  1.4853 -0.2339
 2498TIP3   OH2 7426   1.801   1.658   1.314  0.1094  0.3709 -0.1565
 2498TIP3    H1 7427   1.887   1.659   1.272  0.0457 -0.6453 -0.3253
 2498TIP3    H2 7428   1.820   1.658   1.408  0.2838  0.5862 -0.1908
 2499TIP3   OH2 7429   2.842   1.256   4.133 -0.0828 -0.0964  0.6577
 2499TIP3    H1 7430   2.822   1.212   4.051  0.4316 -0.2208  0.5998
 2499TIP3    H2 7431   2.935   1.278   4.127 -0.5965  2.0880  0.1633
 2500TIP3   OH2 7432   3.125   0.947   4.922 -0.4238 -0.0614 -0.3255
 2500TIP3    H1 7433   3.218   0.925   4.927  0.0315  1.8532  0.2113
 2500TIP3    H2 7434   3.095   0.945   5.013 -0.0564  2.6097 -0.0868
 2501TIP3   OH2 7435   3.578   2.219   4.682  0.0762  0.2152  0.1383
 2501TIP3    H1 7436   3.570   2.214   4.778  0.7156 -1.2837  0.1278
 2501TIP3    H2 7437   3.608   2.308   4.665  1.2327  0.0996  1.4422
 2502TIP3   OH2 7438   2.443   3.241   4.902 -0.1356 -0.5025  0.1881
 2502TIP3    H1 7439   2.362   3.275   4.864  0.3166 -0.0460 -0.3843
 2502TIP3    H2 7440   2.512   3.286   4.854  0.4454  0.1214  1.6047
 2503TIP3   OH2 7441   3.074   0.138   4.502 -0.2762 -0.1589  0.6749
 2503TIP3    H1 7442   3.043   0.066   4.447 -2.3853  0.0426  1.5543
 2503TIP3    H2 7443   3.064   0.216   4.448  0.2332 -0.2825  0.3955
 2504TIP3   OH2 7444   3.026   2.119   2.214  0.3904 -0.5401 -0.1430
 2504TIP3    H1 7445   3.095   2.106   2.149  0.3654  0.6227 -0.4231
 2504TIP3    H2 7446   2.973   2.040   2.209  0.4592 -0.5143 -1.4581
 2505TIP3   OH2 7447   1.122   1.495   5.576 -0.0984  0.5535 -0.1750
 2505TIP3    H1 7448   1.049   1.524   5.631 -0.6566  0.2049 -0.7274
 2505TIP3    H2 7449   1.127   1.400   5.591  0.4605  0.6252  0.1186
 2506TIP3   OH2 7450   2.346   2.555   3.802  0.2432  0.0372  0.0507
 2506TIP3    H1 7451   2.373   2.493   3.870  0.2109 -0.3342 -0.2663
 2506TIP3    H2 7452   2.427   2.598   3.775 -0.0119  1.5068  1.5973
 2507TIP3   OH2 7453   3.480   1.345   4.530  0.1552 -0.1132  0.2351
 2507TIP3    H1 7454   3.471   1.260   4.571  1.2262 -0.0955  0.5239
 2507TIP3    H2 7455   3.397   1.389   4.547  0.1479 -0.5481  1.3522
 2508TIP3   OH2 7456   1.844   0.955   4.423 -0.3935  0.5248  0.4822
 2508TIP3    H1 7457   1.774   0.904   4.464  1.0140 -0.4671  1.7018
 2508TIP3    H2 7458   1.915   0.954   4.487  1.4323 -0.0623 -1.4928
 2509TIP3   OH2 7459   2.248   2.015   4.082  0.1365  0.7093  0.2214
 2509TIP3    H1 7460   2.228   2.018   3.988  0.3538  0.6324  0.1743
 2509TIP3    H2 7461   2.166   1.986   4.123  0.7673 -1.7139 -0.1630
 2510TIP3   OH2 7462   1.598   2.021   4.050  0.3977  0.1091 -0.0943
 2510TIP3    H1 7463   1.675   2.060   4.090 -0.1678  1.8076 -0.6232
 2510TIP3    H2 7464   1.588   2.067   3.966 -0.5262 -0.8750 -0.5417
 2511TIP3   OH2 7465   4.188   2.233   3.094  0.4392  0.0731 -0.0334
 2511TIP3    H1 7466   4.110   2.188   3.060  0.1809 -0.4494  1.2409
 2511TIP3    H2 7467   4.155   2.314   3.132  1.0301  1.9827 -3.3607
 2512TIP3   OH2 7468   0.481   2.580   3.014  0.3728  0.1535 -0.5784
 2512TIP3    H1 7469   0.431   2.521   2.957 -0.9557  1.0869 -0.4144
 2512TIP3    H2 7470   0.464   2.548   3.102  0.6043  0.0631 -0.5673
 2513TIP3   OH2 7471   1.360   1.732   3.251  0.0642 -0.1855 -0.0387
 2513TIP3    H1 7472   1.330   1.723   3.342  3.2804 -0.1109  1.0896
 2513TIP3    H2 7473   1.299   1.794   3.212 -1.0017  0.2682  2.2569
 2514TIP3   OH2 7474   0.578   1.713   4.760  0.2704  1.0436 -0.2627
 2514TIP3    H1 7475   0.483   1.724   4.755  0.1890  0.4171 -0.1235
 2514TIP3    H2 7476   0.608   1.723   4.669  0.0027  0.6285 -0.3985
 2515TIP3   OH2 7477   1.488   1.638   4.015 -0.2388  0.0533 -0.7180
 2515TIP3    H1 7478   1.483   1.703   3.945  1.4016  0.6696 -0.2753
 2515TIP3    H2 7479   1.510   1.688   4.093  1.1249 -1.0408 -0.3784
 2516TIP3   OH2 7480   3.140   2.644   2.976  0.2933  0.1983 -0.0528
 2516TIP3    H1 7481   3.173   2.590   3.047  0.4239  0.3745  0.0218
 2516TIP3    H2 7482   3.168   2.733   2.999 -0.1797  0.3410 -0.0167
 2517TIP3   OH2 7483   3.238   2.947   3.958 -0.1495  0.4414  0.0541
 2517TIP3    H1 7484   3.169   2.899   4.003  0.5517  0.4113  1.0932
 2517TIP3    H2 7485   3.222   2.929   3.865 -0.3831 -1.1306  0.3886
 2518TIP3   OH2 7486   3.633   0.694   4.457 -0.2239 -0.3194  0.0072
 2518TIP3    H1 7487   3.636   0.604   4.423  0.4238 -1.0028  1.7681
 2518TIP3    H2 7488   3.553   0.697   4.509  0.3464 -0.2583  0.8983
 2519TIP3   OH2 7489   1.901   1.552   3.054 -0.5385 -0.1820  0.2085
 2519TIP3    H1 7490   1.901   1.636   3.099 -1.9642 -0.6104  1.0208
 2519TIP3    H2 7491   1.822   1.507   3.085 -0.4861 -1.2918 -1.2046
 2520TIP3   OH2 7492   1.319   3.481   2.527 -0.3099 -0.3173  0.0388
 2520TIP3    H1 7493   1.288   3.441   2.445  0.7379  0.5445 -0.7898
 2520TIP3    H2 7494   1.377   3.415   2.566 -1.7380 -1.2200  0.7166
 2521TIP3   OH2 7495   4.007   3.137   4.278  0.0350  0.0965  0.2061
 2521TIP3    H1 7496   3.942   3.207   4.267 -0.2550 -0.0380  1.0565
 2521TIP3    H2 7497   4.042   3.150   4.366  0.2202 -0.6320  0.2413
 2522TIP3   OH2 7498   3.118   2.093   4.195  0.3106  0.5590  0.1457
 2522TIP3    H1 7499   3.046   2.032   4.179  1.2623 -0.5400  0.0058
 2522TIP3    H2 7500   3.110   2.158   4.125  0.6102 -0.6517 -1.0521
 2523TIP3   OH2 7501   3.949   3.550   2.739  0.4456  0.0004 -0.6322
 2523TIP3    H1 7502   3.974   3.499   2.661 -0.0313  0.5182 -1.1329
 2523TIP3    H2 7503   3.962   3.641   2.712  2.4724  0.1216  0.6649
 2524TIP3   OH2 7504   2.826   3.880   1.705 -0.4253 -0.5365  0.1175
 2524TIP3    H1 7505   2.815   3.934   1.626 -0.2800 -0.8698 -0.1281
 2524TIP3    H2 7506   2.848   3.944   1.774  0.1506 -0.3220 -0.2601
 2525TIP3   OH2 7507   2.116   1.982   4.746 -0.1467 -0.4319 -0.4115
 2525TIP3    H1 7508   2.157   2.027   4.820 -0.7612 -0.5180 -0.0188
 2525TIP3    H2 7509   2.049   2.043   4.715  0.2301 -0.3193 -1.0152
 2526TIP3   OH2 7510   1.654   3.026   5.033 -0.6126 -0.4724 -0.0579
 2526TIP3    H1 7511   1.597   3.030   5.110 -0.7005 -0.0495 -0.1443
 2526TIP3    H2 7512   1.731   2.977   5.063 -1.0092 -1.0254  0.0631
 2527TIP3   OH2 7513   1.586   1.494   1.107 -0.7684  0.2637  0.1518
 2527TIP3    H1 7514   1.595   1.402   1.083  0.1052  0.9805 -2.4433
 2527TIP3    H2 7515   1.669   1.516   1.150 -0.4657  0.1451 -0.3620
 2528TIP3   OH2 7516   1.849   2.129   3.978 -0.0880  0.4053  0.0011
 2528TIP3    H1 7517   1.916   2.136   3.910 -0.7841  1.1259 -0.6296
 2528TIP3    H2 7518   1.860   2.209   4.030 -0.0818  0.2413  0.2541
 2529TIP3   OH2 7519   4.059   1.919   1.832 -0.1661 -0.0227 -0.2294
 2529TIP3    H1 7520   4.128   1.902   1.768 -2.5801  0.2908 -3.0445
 2529TIP3    H2 7521   4.044   1.835   1.875  1.0181 -0.4113 -0.5767
 2530TIP3   OH2 7522   5.651   1.374   4.926 -0.5527  0.0793 -0.7531
 2530TIP3    H1 7523   5.621   1.307   4.988  0.0367 -2.1617 -2.8063
 2530TIP3    H2 7524   5.589   1.367   4.853 -1.3172  2.7845 -0.4126
 2531TIP3   OH2 7525   2.415   3.360   3.054 -0.1868  0.4411 -0.0095
 2531TIP3    H1 7526   2.482   3.296   3.077  0.2388  0.5499 -0.9337
 2531TIP3    H2 7527   2.332   3.313   3.064  0.0426  0.2106  0.8124
 2532TIP3   OH2 7528   1.833   2.251   1.750 -0.2417  0.7428  0.1249
 2532TIP3    H1 7529   1.821   2.331   1.802  0.3262  0.9681 -0.0879
 2532TIP3    H2 7530   1.792   2.271   1.666 -2.2998 -0.0768  0.9049
 2533TIP3   OH2 7531   2.869   3.464   3.030  0.1371 -0.5028  0.1209
 2533TIP3    H1 7532   2.819   3.401   2.978 -0.0589  0.6856 -1.1651
 2533TIP3    H2 7533   2.929   3.505   2.968 -0.4274  1.2883  0.7226
 2534TIP3   OH2 7534   2.033   1.628   1.763  0.2560 -0.0673  0.0678
 2534TIP3    H1 7535   1.940   1.618   1.782  0.7610 -1.5659  1.9270
 2534TIP3    H2 7536   2.077   1.576   1.830  2.3826 -0.4645 -1.5693
 2535TIP3   OH2 7537   2.549   1.407   4.830 -0.3328  0.0811 -0.1470
 2535TIP3    H1 7538   2.619   1.469   4.810  0.9113 -1.3197 -0.2214
 2535TIP3    H2 7539   2.536   1.359   4.749 -1.4537  0.3988 -0.1578
 2536TIP3   OH2 7540   1.438   1.467   2.077  0.0374  0.0227  0.4629
 2536TIP3    H1 7541   1.438   1.490   2.170  2.9556  0.9570  0.2768
 2536TIP3    H2 7542   1.391   1.384   2.073 -2.3398  1.2194  2.4194
 2537TIP3   OH2 7543   1.513   1.545   4.336 -0.4185 -0.6415 -0.0237
 2537TIP3    H1 7544   1.462   1.501   4.268 -1.9412 -0.4941  1.0048
 2537TIP3    H2 7545   1.555   1.618   4.290  0.1757 -1.7101 -1.2180
 2538TIP3   OH2 7546   2.595   2.256   1.784 -0.4321  0.1254 -0.2272
 2538TIP3    H1 7547   2.588   2.171   1.828 -2.2625  0.9395  1.0731
 2538TIP3    H2 7548   2.505   2.285   1.771  0.1669  1.7457 -0.9314
 2539TIP3   OH2 7549   4.653   1.557   4.938 -0.5130  0.1187 -0.2685
 2539TIP3    H1 7550   4.642   1.462   4.939 -0.6512  0.1427  1.0262
 2539TIP3    H2 7551   4.669   1.581   5.029 -0.9346  1.3873 -0.5098
 2540TIP3   OH2 7552   7.878   1.836   3.367  0.0361  0.2358 -0.3353
 2540TIP3    H1 7553   7.908   1.787   3.444  0.7717  2.1838  0.6438
 2540TIP3    H2 7554   7.787   1.859   3.387 -0.0591 -0.0389 -0.4500
 2541TIP3   OH2 7555   1.919   0.202   3.499 -0.5979 -0.1251  0.6230
 2541TIP3    H1 7556   1.994   0.252   3.466 -0.0965 -0.1593  1.6987
 2541TIP3    H2 7557   1.886   0.155   3.422 -0.1609  0.6943 -0.0799
 2542TIP3   OH2 7558   5.335   2.328   3.708  0.0874 -0.5313 -0.4359
 2542TIP3    H1 7559   5.377   2.314   3.793  2.9898  3.3516 -1.0504
 2542TIP3    H2 7560   5.388   2.278   3.647 -0.3461 -1.1264 -0.3280
 2543TIP3   OH2 7561   1.860   0.130   4.479  0.0069  0.5767 -0.8327
 2543TIP3    H1 7562   1.935   0.190   4.476  0.8130 -0.3948 -0.3179
 2543TIP3    H2 7563   1.828   0.137   4.568 -0.2858  0.7090 -0.9478
 2544TIP3   OH2 7564   1.185   3.100   3.631  0.1570 -0.1309  0.3403
 2544TIP3    H1 7565   1.201   3.167   3.565  1.5657 -1.7926 -1.0668
 2544TIP3    H2 7566   1.225   3.021   3.594 -3.2083 -2.2307  1.0271
 2545TIP3   OH2 7567   0.690   1.482   6.268 -0.1670 -0.7680 -0.1941
 2545TIP3    H1 7568   0.692   1.478   6.364  2.1152 -2.3139 -0.2683
 2545TIP3    H2 7569   0.651   1.567   6.249  0.6398  0.1762  2.1301
 2546TIP3   OH2 7570   2.501   1.137   3.798 -0.3090 -0.2601  0.0058
 2546TIP3    H1 7571   2.449   1.132   3.879  1.5429 -0.3932  1.2154
 2546TIP3    H2 7572   2.514   1.046   3.772 -1.6078 -0.1944 -0.9274
 2547TIP3   OH2 7573   7.995   1.364   1.993 -0.0895 -0.2298 -0.0442
 2547TIP3    H1 7574   8.037   1.451   1.992 -1.0605  0.2343 -0.8471
 2547TIP3    H2 7575   7.936   1.365   1.918 -0.6522 -1.3313  0.3809
 2548TIP3   OH2 7576   1.709   1.272   4.256  0.1072 -0.7452  0.1773
 2548TIP3    H1 7577   1.679   1.190   4.217 -0.3111 -1.8828  2.8032
 2548TIP3    H2 7578   1.801   1.279   4.229 -0.0780 -1.6568 -0.7194
 2549TIP3   OH2 7579   6.156   7.556   0.605  0.8352 -0.0508 -0.3677
 2549TIP3    H1 7580   6.107   7.478   0.580 -0.5807  0.8205 -0.3951
 2549TIP3    H2 7581   6.225   7.524   0.663 -1.2927 -1.0445  1.7139
 2550TIP3   OH2 7582   2.472   2.891   5.430 -0.1135  0.3818  0.1985
 2550TIP3    H1 7583   2.542   2.917   5.489 -0.5653 -1.0827  1.4061
 2550TIP3    H2 7584   2.496   2.803   5.400 -0.8200  0.3627 -0.3433
 2551TIP3   OH2 7585   1.541   1.622   0.642  0.0514 -0.3484  0.9575
 2551TIP3    H1 7586   1.487   1.548   0.671 -0.3827 -0.5126 -0.2651
 2551TIP3    H2 7587   1.493   1.700   0.670 -0.0788 -0.5056  1.1735
 2552TIP3   OH2 7588   3.266   0.939   5.378 -0.5247 -0.1063 -0.1922
 2552TIP3    H1 7589   3.348   0.967   5.420 -0.4927  0.0311 -0.3458
 2552TIP3    H2 7590   3.198   0.986   5.425 -0.3285  1.7838 -1.7661
 2553TIP3   OH2 7591   3.470   1.058   4.588 -0.0370 -0.0618 -0.8081
 2553TIP3    H1 7592   3.416   0.979   4.576 -0.5693  0.0758  0.5451
 2553TIP3    H2 7593   3.559   1.025   4.599 -0.1806 -0.4372 -0.7714
 2554TIP3   OH2 7594   0.539   0.873   1.605  0.2955 -0.2857 -0.6421
 2554TIP3    H1 7595   0.558   0.822   1.526 -1.9219  0.5757 -1.7537
 2554TIP3    H2 7596   0.512   0.958   1.572  2.0808  1.0276  1.1570
 2555TIP3   OH2 7597   0.313   2.626   3.976  0.5279 -0.9350  0.4921
 2555TIP3    H1 7598   0.274   2.611   3.890  0.2354  0.8930  0.2913
 2555TIP3    H2 7599   0.256   2.690   4.018  1.6186 -0.5207  1.3812
 2556TIP3   OH2 7600   3.064   2.923   5.711 -0.1255 -0.3118 -0.2887
 2556TIP3    H1 7601   2.988   2.877   5.675  0.6608 -1.6351 -0.3242
 2556TIP3    H2 7602   3.115   2.854   5.754  1.7968  0.2900 -1.5532
 2557TIP3   OH2 7603   1.514   3.941   0.552 -0.4350  0.0433  0.3204
 2557TIP3    H1 7604   1.592   3.903   0.593  0.0326 -0.4277 -0.9951
 2557TIP3    H2 7605   1.451   3.870   0.549  0.7890 -1.0158 -3.0760
 2558TIP3   OH2 7606   6.011   7.686   3.508 -0.0369 -0.1909 -0.5936
 2558TIP3    H1 7607   5.916   7.688   3.507 -0.0435  2.6298  0.4828
 2558TIP3    H2 7608   6.033   7.627   3.580 -1.0035  0.7976  0.5349
 2559TIP3   OH2 7609   3.278   2.493   3.188  0.1591  0.5567  0.0940
 2559TIP3    H1 7610   3.336   2.427   3.227 -2.4355 -2.1066 -0.3354
 2559TIP3    H2 7611   3.250   2.546   3.263 -1.7438 -2.1102  1.3923
 2560TIP3   OH2 7612   2.518   1.745   2.390  0.2333  0.2690  0.0159
 2560TIP3    H1 7613   2.578   1.781   2.456  0.0933 -0.7832  0.7386
 2560TIP3    H2 7614   2.433   1.740   2.435  0.4872 -2.0068  0.3392
 2561TIP3   OH2 7615   1.644   6.866   2.834 -0.1218  0.6092  0.3513
 2561TIP3    H1 7616   1.702   6.936   2.865 -0.4769  1.2683 -0.4606
 2561TIP3    H2 7617   1.560   6.910   2.820 -0.5118 -0.1112  0.4318
 2562TIP3   OH2 7618   7.937   7.254   3.731  0.2795  0.7355 -0.3020
 2562TIP3    H1 7619   7.845   7.228   3.739  0.7381 -0.8369  0.2175
 2562TIP3    H2 7620   7.954   7.304   3.810 -0.1304  1.0127 -0.3874
 2563TIP3   OH2 7621   2.653   1.214   1.959  0.6456 -0.2672  0.3587
 2563TIP3    H1 7622   2.740   1.247   1.936  0.4372 -1.2709 -2.0274
 2563TIP3    H2 7623   2.594   1.287   1.944  0.8262 -0.1808  0.0851
 2564TIP3   OH2 7624   1.700   7.598   2.996 -0.1950  0.1600  0.0394
 2564TIP3    H1 7625   1.606   7.614   3.009 -0.2050  0.4021 -0.3553
 2564TIP3    H2 7626   1.736   7.683   2.973  0.1401  0.0838  0.2721
 2565TIP3   OH2 7627   1.601   1.309   5.072 -0.0415 -0.0839 -0.0294
 2565TIP3    H1 7628   1.678   1.309   5.129 -0.5264  1.6576  0.6529
 2565TIP3    H2 7629   1.583   1.216   5.056  0.1787 -0.6201  2.5620
 2566TIP3   OH2 7630   2.479   0.969   3.092  0.0277 -0.1094  0.0761
 2566TIP3    H1 7631   2.469   0.954   3.186 -2.0492  1.7172  0.1908
 2566TIP3    H2 7632   2.566   1.009   3.082 -0.0233  0.3099  1.3090
 2567TIP3   OH2 7633   2.188   7.886   2.931  0.2592  0.0038 -0.6806
 2567TIP3    H1 7634   2.167   7.953   2.996 -0.1341  0.1128 -0.9203
 2567TIP3    H2 7635   2.276   7.908   2.900  0.1243  0.4111 -0.7672
 2568TIP3   OH2 7636   5.468   2.654   5.113 -0.1782  0.3128 -0.1483
 2568TIP3    H1 7637   5.411   2.578   5.124  0.1985  0.0902  0.2690
 2568TIP3    H2 7638   5.549   2.619   5.077 -0.2829  0.6224 -0.6906
 2569TIP3   OH2 7639   4.082   0.970   5.858  0.2465  0.3399 -0.0729
 2569TIP3    H1 7640   4.115   0.882   5.841 -1.4214 -0.4125  0.5652
 2569TIP3    H2 7641   4.095   1.017   5.775  2.0605 -0.1931 -0.1142
 2570TIP3   OH2 7642   2.294   1.081   4.245  0.6137 -0.1521  0.0978
 2570TIP3    H1 7643   2.235   1.114   4.178 -0.5523  0.0438  1.1961
 2570TIP3    H2 7644   2.321   0.995   4.214  0.4728  0.1358 -0.8383
 2571TIP3   OH2 7645   0.975   0.246   4.403 -0.2136 -0.1556 -0.2570
 2571TIP3    H1 7646   0.924   0.204   4.334  0.5749 -1.6465  0.0299
 2571TIP3    H2 7647   1.011   0.173   4.453  0.6919  0.8905  0.6479
 2572TIP3   OH2 7648   2.358   1.632   4.886 -0.8239  0.0906 -0.1749
 2572TIP3    H1 7649   2.431   1.572   4.904 -0.9551  0.0705  0.2926
 2572TIP3    H2 7650   2.309   1.635   4.968  0.4421  2.5870  0.5269
 2573TIP3   OH2 7651   3.047   1.511   4.432 -0.3818  0.0082 -0.4823
 2573TIP3    H1 7652   3.113   1.522   4.364 -0.9465  2.1066 -0.7426
 2573TIP3    H2 7653   3.095   1.481   4.508  0.7227  0.5694 -0.9468
 2574TIP3   OH2 7654   2.237   3.936   2.061  0.1384 -0.2409  0.7819
 2574TIP3    H1 7655   2.207   4.021   2.092 -1.4373 -0.6548  0.4967
 2574TIP3    H2 7656   2.191   3.924   1.977 -1.0997 -2.1203  1.6857
 2575TIP3   OH2 7657   6.623   6.494   3.381  0.1558  0.0743  0.2615
 2575TIP3    H1 7658   6.664   6.411   3.403  1.3891  0.2171 -1.4182
 2575TIP3    H2 7659   6.530   6.481   3.401  0.4168 -1.5257  0.4693
 2576TIP3   OH2 7660   2.041   7.219   3.781 -0.0991 -0.2930 -0.1830
 2576TIP3    H1 7661   1.998   7.305   3.780  1.0151  0.2808  0.5242
 2576TIP3    H2 7662   2.100   7.221   3.705  1.5627  0.4326  1.0896
 2577TIP3   OH2 7663   0.933   2.419   2.045  0.1067  0.4215  0.5031
 2577TIP3    H1 7664   0.904   2.328   2.041  0.7752  0.1493  1.7641
 2577TIP3    H2 7665   0.986   2.424   2.124 -0.2826  2.0144  0.6748
 2578TIP3   OH2 7666   7.605   0.883   2.253 -0.0182  0.4431  0.4215
 2578TIP3    H1 7667   7.614   0.802   2.302 -0.5910  0.1793  0.0906
 2578TIP3    H2 7668   7.695   0.914   2.240  0.2334 -0.4934 -0.0532
 2579TIP3   OH2 7669   7.341   2.456   3.497  0.4318 -0.3782 -0.4752
 2579TIP3    H1 7670   7.371   2.366   3.507  0.8373 -0.0544  1.4731
 2579TIP3    H2 7671   7.417   2.509   3.521 -0.3368  0.4693  0.1103
 2580TIP3   OH2 7672   0.252   2.624   4.612 -0.5446  0.4553  0.0080
 2580TIP3    H1 7673   0.213   2.567   4.679  0.2619  2.2616  2.0794
 2580TIP3    H2 7674   0.346   2.610   4.622 -0.4554 -0.6320 -2.0331
 2581TIP3   OH2 7675   3.579   4.046   2.608 -0.2082  0.4994 -0.4165
 2581TIP3    H1 7676   3.501   3.993   2.594 -0.2708  0.4370  0.1599
 2581TIP3    H2 7677   3.558   4.100   2.684  0.8920 -0.6558  0.7281
 2582TIP3   OH2 7678   3.779   2.115   4.016  0.1859 -0.3174  0.0134
 2582TIP3    H1 7679   3.716   2.183   4.040  2.2554  1.3244  1.0132
 2582TIP3    H2 7680   3.750   2.037   4.064 -1.1757  0.3525  0.3020
 2583TIP3   OH2 7681   4.032   2.623   5.533  0.6483 -0.6331  0.5809
 2583TIP3    H1 7682   4.053   2.627   5.440  1.2873  0.6910  0.7790
 2583TIP3    H2 7683   4.105   2.666   5.577 -0.9094  1.1690  1.5041
 2584TIP3   OH2 7684   2.299   7.716   1.685  0.3773 -0.2652  0.4179
 2584TIP3    H1 7685   2.287   7.697   1.778  2.2404 -1.3107  0.4809
 2584TIP3    H2 7686   2.394   7.710   1.672  0.0971 -0.5631 -1.6340
 2585TIP3   OH2 7687   4.257   2.557   3.918 -0.1062 -0.4893 -0.1293
 2585TIP3    H1 7688   4.350   2.540   3.900 -0.3021 -0.7753 -0.8920
 2585TIP3    H2 7689   4.248   2.652   3.907 -0.1688 -0.6255 -1.3535
 2586TIP3   OH2 7690   1.587   2.816   2.307  0.3428 -0.4876  0.3886
 2586TIP3    H1 7691   1.553   2.828   2.219 -0.0365 -2.9655  0.1766
 2586TIP3    H2 7692   1.509   2.806   2.362  0.5514  1.6565  1.1409
 2587TIP3   OH2 7693   2.992   1.753   3.585 -1.1090 -0.2294  0.6187
 2587TIP3    H1 7694   3.048   1.686   3.545  1.4195  0.9858  2.0499
 2587TIP3    H2 7695   2.917   1.704   3.619 -0.0770 -2.1362  0.2226
 2588TIP3   OH2 7696   2.215   2.632   1.481 -0.1444 -0.0077 -0.1151
 2588TIP3    H1 7697   2.190   2.548   1.519 -0.4043  0.1131 -0.0169
 2588TIP3    H2 7698   2.289   2.612   1.424  0.0645 -0.2361  0.2369
 2589TIP3   OH2 7699   3.488   2.603   2.839 -0.0931 -0.8459  0.3947
 2589TIP3    H1 7700   3.498   2.513   2.810 -0.0641 -0.5179 -0.6221
 2589TIP3    H2 7701   3.419   2.639   2.783 -0.8665 -0.5384  1.5038
 2590TIP3   OH2 7702   2.508   0.386   3.777 -0.2351  0.0638  0.3174
 2590TIP3    H1 7703   2.451   0.321   3.819  0.0234 -0.9605 -0.9041
 2590TIP3    H2 7704   2.564   0.335   3.719 -1.3056  1.5787 -2.0946
 2591TIP3   OH2 7705   2.234   2.149   3.719 -0.0235 -0.4214  0.0207
 2591TIP3    H1 7706   2.307   2.115   3.771  1.4290  1.2077 -0.8727
 2591TIP3    H2 7707   2.181   2.072   3.699  0.4405 -1.3584  2.2371
 2592TIP3   OH2 7708   0.056   7.646   1.693 -0.7601  0.0635 -0.3038
 2592TIP3    H1 7709   0.077   7.647   1.600  1.6420  0.7569  0.2137
 2592TIP3    H2 7710   0.140   7.640   1.737 -1.6861  2.2611  1.8926
 2593TIP3   OH2 7711   0.809   1.933   4.902 -0.0063 -0.3469 -0.5929
 2593TIP3    H1 7712   0.870   1.919   4.975 -1.5165 -0.7633  0.6124
 2593TIP3    H2 7713   0.843   1.877   4.832  1.5151  0.1241 -0.2519
 2594TIP3   OH2 7714   4.476   1.915   4.567  0.4802  0.6443 -0.1803
 2594TIP3    H1 7715   4.514   1.851   4.628  0.3044 -0.7039 -1.4549
 2594TIP3    H2 7716   4.383   1.893   4.566  0.1951  1.7919  0.3776
 2595TIP3   OH2 7717   2.321   0.299   3.964 -0.2268  0.4191  0.0152
 2595TIP3    H1 7718   2.237   0.253   3.953  0.5035 -1.3836  1.6445
 2595TIP3    H2 7719   2.299   0.375   4.018 -0.4879 -1.2739  2.3778
 2596TIP3   OH2 7720   2.670   2.166   6.079 -0.7259 -0.3274 -0.7368
 2596TIP3    H1 7721   2.645   2.224   6.007 -1.0675 -0.6482 -0.8766
 2596TIP3    H2 7722   2.764   2.182   6.091 -0.6265 -0.4053 -1.3764
 2597TIP3   OH2 7723   4.467   0.824   2.472  0.3168 -0.0810 -0.0683
 2597TIP3    H1 7724   4.384   0.872   2.472  0.4064  0.0707  0.0375
 2597TIP3    H2 7725   4.535   0.891   2.470  0.4427 -0.1996  0.2678
 2598TIP3   OH2 7726   3.402   1.483   2.767 -0.0965  0.3212 -0.3000
 2598TIP3    H1 7727   3.386   1.540   2.842 -1.3994 -0.7289  0.2289
 2598TIP3    H2 7728   3.364   1.399   2.791  1.5784 -0.7227 -1.1838
 2599TIP3   OH2 7729   0.909   1.525   2.283  0.5851  0.3761 -0.3631
 2599TIP3    H1 7730   0.981   1.588   2.293  0.4262  0.4740  0.1648
 2599TIP3    H2 7731   0.923   1.461   2.353 -1.7392  2.2318  1.8881
 2600TIP3   OH2 7732   2.048   0.164   3.986  0.1702  0.2626 -0.4208
 2600TIP3    H1 7733   1.969   0.111   3.988 -0.5790  1.3000 -1.4257
 2600TIP3    H2 7734   2.047   0.213   4.068  1.2321 -1.7625  0.8283
 2601TIP3   OH2 7735   3.620   0.712   5.148 -0.2488  0.1248  0.0992
 2601TIP3    H1 7736   3.540   0.728   5.097 -0.1046  1.1632  0.1884
 2601TIP3    H2 7737   3.643   0.798   5.184  0.2010 -0.4098  1.1114
 2602TIP3   OH2 7738   2.154   0.170   4.574 -0.6515 -0.0239  0.0423
 2602TIP3    H1 7739   2.124   0.117   4.648  0.8810 -0.7303  0.1784
 2602TIP3    H2 7740   2.165   0.258   4.611 -1.8715  0.0886  0.1509
 2603TIP3   OH2 7741   0.905   2.466   4.448  0.6628  0.6697 -0.0705
 2603TIP3    H1 7742   0.875   2.515   4.372 -1.1519 -3.4912 -2.2105
 2603TIP3    H2 7743   0.829   2.463   4.507 -0.0482 -1.4646 -1.0323
 2604TIP3   OH2 7744   2.396   3.080   2.616 -0.2995 -0.0249  0.1909
 2604TIP3    H1 7745   2.369   2.995   2.580 -0.6833  0.3086 -0.3119
 2604TIP3    H2 7746   2.315   3.123   2.640 -0.0672 -0.0500  1.0285
 2605TIP3   OH2 7747   6.987   7.815   4.505 -0.0046 -0.2091 -0.1165
 2605TIP3    H1 7748   7.054   7.869   4.464  0.3261 -0.8995 -0.5109
 2605TIP3    H2 7749   6.906   7.863   4.493 -0.0270 -0.7007 -2.2149
 2606TIP3   OH2 7750   1.397   3.984   4.254 -0.2038 -0.3445  0.4382
 2606TIP3    H1 7751   1.489   3.989   4.231 -0.0870  0.1331  0.9872
 2606TIP3    H2 7752   1.387   3.900   4.298 -0.0080 -0.3502  0.4714
 2607TIP3   OH2 7753   7.645   3.523   3.414 -0.5803 -0.2159  0.0144
 2607TIP3    H1 7754   7.584   3.532   3.488 -0.8788 -0.1499 -0.2360
 2607TIP3    H2 7755   7.687   3.438   3.429 -0.1954  0.0668  0.5816
 2608TIP3   OH2 7756   4.565   1.447   3.578 -0.2086 -0.1175 -0.0160
 2608TIP3    H1 7757   4.645   1.447   3.630  1.2802  0.1659 -2.2429
 2608TIP3    H2 7758   4.505   1.390   3.626  1.7874 -1.4310  0.9920
 2609TIP3   OH2 7759   3.608   3.811   3.800 -0.2716 -0.0345 -0.2786
 2609TIP3    H1 7760   3.679   3.781   3.855  0.9732 -2.4056 -3.0529
 2609TIP3    H2 7761   3.541   3.743   3.807 -0.9154  0.6000 -0.1779
 2610TIP3   OH2 7762   3.660   0.003   2.049 -0.2067 -0.2329  0.6227
 2610TIP3    H1 7763   3.565  -0.008   2.047 -0.2204 -0.2331  1.1711
 2610TIP3    H2 7764   3.682   0.034   1.961 -0.3206 -3.5701 -0.6699
 2611TIP3   OH2 7765   0.278   0.246   3.978 -0.2480  0.2314  0.2600
 2611TIP3    H1 7766   0.358   0.271   4.024  1.2818 -1.0264 -1.6153
 2611TIP3    H2 7767   0.266   0.314   3.911 -1.4797  1.1158  1.3716
 2612TIP3   OH2 7768   2.683   3.819   5.270  0.3133 -0.3560  0.2277
 2612TIP3    H1 7769   2.665   3.783   5.183  0.6999 -0.4857  0.2037
 2612TIP3    H2 7770   2.682   3.744   5.328  0.8093 -0.3710  0.2222
 2613TIP3   OH2 7771   3.090   2.331   3.043 -0.1861  0.2094 -0.2480
 2613TIP3    H1 7772   3.172   2.369   3.074  1.0724 -2.0076 -0.7238
 2613TIP3    H2 7773   3.105   2.314   2.950 -2.2069  2.3530 -1.0174
 2614TIP3   OH2 7774   3.282   0.814   3.322 -0.4800  0.2486  0.5822
 2614TIP3    H1 7775   3.320   0.758   3.390 -0.4222  0.4446  0.7120
 2614TIP3    H2 7776   3.351   0.876   3.301  0.3943 -1.3363 -1.4160
 2615TIP3   OH2 7777   3.236   2.071   3.729 -0.7961 -0.2675 -0.3643
 2615TIP3    H1 7778   3.230   2.166   3.715  0.4061 -0.2262 -0.6472
 2615TIP3    H2 7779   3.279   2.063   3.814  0.5435 -0.5648 -1.0661
 2616TIP3   OH2 7780   0.031   2.155   3.978  0.8780 -0.1406  0.2639
 2616TIP3    H1 7781   0.022   2.161   4.073  0.9875 -1.6273  0.3809
 2616TIP3    H2 7782   0.124   2.137   3.964  1.0279  0.9065 -0.1849
 2617TIP3   OH2 7783   3.087   0.993   2.103 -0.5679 -0.1194 -0.4485
 2617TIP3    H1 7784   3.020   0.933   2.069 -1.6550  0.3931  0.7363
 2617TIP3    H2 7785   3.042   1.077   2.111 -0.2723 -0.1606  1.9645
 2618TIP3   OH2 7786   3.010   2.557   3.825  0.1186 -0.1984  0.2379
 2618TIP3    H1 7787   3.102   2.534   3.835 -0.4017 -2.3681  0.2961
 2618TIP3    H2 7788   2.963   2.481   3.859 -1.7056  1.4834  1.5350
 2619TIP3   OH2 7789   0.448   0.059   3.459 -0.7548 -0.5083  0.1498
 2619TIP3    H1 7790   0.422  -0.006   3.394 -1.7975 -1.4227  1.4506
 2619TIP3    H2 7791   0.487   0.008   3.530 -2.0911  0.1952  1.4346
 2620TIP3   OH2 7792   3.085   1.974   3.120  0.5441  0.3601 -0.0718
 2620TIP3    H1 7793   3.062   2.067   3.124  0.0056  0.2333 -0.2720
 2620TIP3    H2 7794   3.072   1.942   3.210 -0.1908  0.2547 -0.2183
 2621TIP3   OH2 7795   8.312   7.287   3.737  0.1101  0.1312 -0.1585
 2621TIP3    H1 7796   8.299   7.341   3.659 -0.0529  2.1392  1.2160
 2621TIP3    H2 7797   8.241   7.312   3.796  0.1532 -1.4471  0.5975
 2622TIP3   OH2 7798   1.118   0.539   3.856 -0.2008 -0.2130 -0.1071
 2622TIP3    H1 7799   1.144   0.502   3.940  2.1306  0.2844 -0.5668
 2622TIP3    H2 7800   1.192   0.519   3.797 -1.0675  0.8696 -1.5960
 2623TIP3   OH2 7801   3.219   1.508   2.338 -0.1653  0.5675  0.5189
 2623TIP3    H1 7802   3.290   1.481   2.280 -1.0106  0.6545 -0.5778
 2623TIP3    H2 7803   3.234   1.602   2.352 -0.0910  0.5988  0.2411
 2624TIP3   OH2 7804   1.748   0.461   4.163  0.2375  0.4778  0.6042
 2624TIP3    H1 7805   1.839   0.472   4.190  0.0429  1.2779  0.9341
 2624TIP3    H2 7806   1.747   0.487   4.071  0.6498 -1.0431  0.1537
 2625TIP3   OH2 7807   5.241   2.662   4.677 -0.1323 -0.1027  0.0642
 2625TIP3    H1 7808   5.243   2.637   4.770  1.6187 -0.8918 -0.1652
 2625TIP3    H2 7809   5.189   2.593   4.636  0.2920 -0.5489  0.2561
 2626TIP3   OH2 7810   8.043   7.550   2.670  0.1586  0.3596  0.4134
 2626TIP3    H1 7811   8.057   7.465   2.628  1.5725  1.7098 -1.9076
 2626TIP3    H2 7812   8.121   7.563   2.724  1.2539  1.4202 -1.3986
 2627TIP3   OH2 7813   7.975   2.300   4.995 -0.9624 -0.4463  0.7937
 2627TIP3    H1 7814   7.935   2.222   4.957  1.6758 -0.9160 -1.1737
 2627TIP3    H2 7815   8.032   2.267   5.065 -0.2919 -0.2401  0.3491
 2628TIP3   OH2 7816   1.752   1.233   5.353  0.0660  0.2730  0.1596
 2628TIP3    H1 7817   1.702   1.313   5.370  1.1205  0.8416  0.6347
 2628TIP3    H2 7818   1.797   1.215   5.435 -0.1619 -0.8128  0.0533
 2629TIP3   OH2 7819   8.168   6.914   2.572  0.2377 -0.0213 -0.2749
 2629TIP3    H1 7820   8.145   6.995   2.617  2.0759 -0.3242  1.3024
 2629TIP3    H2 7821   8.131   6.923   2.484 -1.3718  1.6128  0.5348
 2630TIP3   OH2 7822   1.195   3.964   1.321 -0.0112 -0.4879 -0.4756
 2630TIP3    H1 7823   1.172   3.973   1.229 -1.2106 -0.1079 -0.1533
 2630TIP3    H2 7824   1.278   4.010   1.329  0.2793 -0.8392 -1.4408
 2631TIP3   OH2 7825   2.076   2.456   1.883  0.1386 -0.6713 -0.1518
 2631TIP3    H1 7826   2.104   2.365   1.888  0.2248 -0.6707 -0.6122
 2631TIP3    H2 7827   2.029   2.471   1.965  1.7062 -0.5915  0.7583
 2632TIP3   OH2 7828   2.523   1.272   2.852 -0.1222 -0.2453 -0.2394
 2632TIP3    H1 7829   2.582   1.234   2.917  0.8458  0.6018 -0.6041
 2632TIP3    H2 7830   2.462   1.325   2.903 -0.2033 -0.6646  0.0959
 2633TIP3   OH2 7831   8.080   6.814   3.660 -0.1692  0.4302 -0.5258
 2633TIP3    H1 7832   8.153   6.875   3.656 -0.3675  0.6701 -0.4637
 2633TIP3    H2 7833   8.051   6.816   3.751  1.2433 -1.4168  0.0018
 2634TIP3   OH2 7834   2.128   1.164   3.663  0.0782 -0.5105 -0.6450
 2634TIP3    H1 7835   2.209   1.211   3.642  0.2134 -0.7270 -0.6081
 2634TIP3    H2 7836   2.156   1.074   3.677 -0.3441 -0.8219 -1.8026
 2635TIP3   OH2 7837   4.928   6.953   0.237  0.0863 -0.5891 -0.7746
 2635TIP3    H1 7838   4.955   6.969   0.146  1.8210 -0.0619 -0.1732
 2635TIP3    H2 7839   4.900   7.039   0.269 -0.8327 -0.8327 -0.8803
 2636TIP3   OH2 7840   2.894   2.233   4.875 -0.2632  0.2479 -0.4939
 2636TIP3    H1 7841   2.816   2.287   4.865 -1.7842 -1.7329  0.3510
 2636TIP3    H2 7842   2.929   2.257   4.961 -0.8676 -0.0182 -0.1712
 2637TIP3   OH2 7843   0.222   8.032   4.025 -0.0244 -0.2200  0.6032
 2637TIP3    H1 7844   0.231   7.942   3.995 -0.4126  0.2000 -0.8189
 2637TIP3    H2 7845   0.207   8.025   4.119 -0.9287 -1.6788  0.3644
 2638TIP3   OH2 7846   2.535   1.370   1.557 -0.1190 -0.2323  0.1956
 2638TIP3    H1 7847   2.473   1.415   1.614  1.1798 -1.1365  2.3822
 2638TIP3    H2 7848   2.588   1.441   1.519 -0.6343  0.3413  0.5372
 2639TIP3   OH2 7849   5.634   1.809   3.188 -0.6543  0.4356  0.4603
 2639TIP3    H1 7850   5.679   1.793   3.106  0.2838  0.7394  0.9068
 2639TIP3    H2 7851   5.584   1.729   3.205  1.9123 -1.0072  1.3582
 2640TIP3   OH2 7852   4.583   3.009   2.672  0.4838  0.3925 -0.1798
 2640TIP3    H1 7853   4.604   3.074   2.739 -0.4441 -0.8163  1.3511
 2640TIP3    H2 7854   4.562   2.930   2.722  1.4152 -1.0321 -1.9817
 2641TIP3   OH2 7855   1.981   0.391   3.098 -0.3279  0.2658  0.1537
 2641TIP3    H1 7856   2.002   0.338   3.020  0.1653 -1.0596  1.1701
 2641TIP3    H2 7857   1.900   0.353   3.131 -0.8470  1.2088 -0.0430
 2642TIP3   OH2 7858   4.337   2.061   1.162  0.1395  0.7896  0.0025
 2642TIP3    H1 7859   4.326   1.991   1.097 -1.2713  0.2855  0.7644
 2642TIP3    H2 7860   4.425   2.047   1.197  0.4746  0.3720 -0.9696
 2643TIP3   OH2 7861   4.543   3.705   1.159 -0.3647  0.0309  0.1757
 2643TIP3    H1 7862   4.566   3.777   1.100 -0.2129 -0.6069 -0.5518
 2643TIP3    H2 7863   4.454   3.725   1.189 -0.3557  0.4714 -0.1003
 2644TIP3   OH2 7864   3.986   4.169   4.810  0.0320  0.6545  0.3168
 2644TIP3    H1 7865   3.956   4.200   4.725 -0.2901 -0.8532 -0.1488
 2644TIP3    H2 7866   4.066   4.217   4.827 -0.4116  1.6500 -0.4029
 2645TIP3   OH2 7867   3.634   2.402   1.972 -0.0876 -0.2214  0.0378
 2645TIP3    H1 7868   3.646   2.423   2.065 -1.9276  1.6001 -0.1000
 2645TIP3    H2 7869   3.687   2.467   1.926 -0.4494 -0.1165 -0.2305
 2646TIP3   OH2 7870   3.526   0.858   3.782  0.0888 -0.4489  0.2645
 2646TIP3    H1 7871   3.582   0.788   3.817  0.5823  0.0694  0.5343
 2646TIP3    H2 7872   3.473   0.886   3.857 -0.5093 -0.9115  0.0180
 2647TIP3   OH2 7873   2.733   1.603   4.764 -0.7975 -0.4570  0.1442
 2647TIP3    H1 7874   2.790   1.586   4.689 -1.6522 -0.7059 -0.4548
 2647TIP3    H2 7875   2.792   1.630   4.834  0.0609 -0.7896 -0.4525
 2648TIP3   OH2 7876   6.324   0.696   2.089  0.5296 -0.3847  0.2457
 2648TIP3    H1 7877   6.253   0.756   2.067 -0.6095 -2.3947 -1.8005
 2648TIP3    H2 7878   6.404   0.746   2.070 -0.2335  2.0793  3.0578
 2649TIP3   OH2 7879   8.188   6.563   3.575  0.7132 -0.6128  0.0986
 2649TIP3    H1 7880   8.199   6.534   3.666  0.5532 -0.0343  0.3023
 2649TIP3    H2 7881   8.165   6.655   3.582  0.8330 -0.5354 -0.5392
 2650TIP3   OH2 7882   2.801   0.397   2.874 -0.1680 -0.6105 -0.5102
 2650TIP3    H1 7883   2.845   0.358   2.797 -0.3568 -0.6053 -0.6209
 2650TIP3    H2 7884   2.858   0.468   2.901  0.2086 -0.9959 -0.2760
 2651TIP3   OH2 7885   5.048   3.931   2.988 -0.1986  0.2581  0.0883
 2651TIP3    H1 7886   5.024   3.869   3.056 -1.3185 -0.0790 -0.6008
 2651TIP3    H2 7887   5.090   3.878   2.921 -1.2628  0.2193 -0.5543
 2652TIP3   OH2 7888   3.323   2.291   1.659  0.1017 -0.7663  0.0360
 2652TIP3    H1 7889   3.231   2.272   1.640 -0.3448 -0.7252  2.0669
 2652TIP3    H2 7890   3.349   2.225   1.723  1.5692 -0.9564 -0.7404
 2653TIP3   OH2 7891   4.210   2.301   0.916  0.3118 -0.6536  0.9488
 2653TIP3    H1 7892   4.285   2.358   0.937 -1.2552  1.9118 -0.1722
 2653TIP3    H2 7893   4.165   2.289   1.000 -0.9148  2.1650  0.7512
 2654TIP3   OH2 7894   1.575   2.406   4.444 -0.2193 -0.0324 -0.3797
 2654TIP3    H1 7895   1.548   2.461   4.371 -2.2437 -0.3001  0.1433
 2654TIP3    H2 7896   1.614   2.466   4.507 -0.2757  0.4661 -0.8211
 2655TIP3   OH2 7897   4.429   0.885   1.613 -0.5460  0.0119 -0.4805
 2655TIP3    H1 7898   4.412   0.800   1.573 -1.0926 -0.5118  0.8477
 2655TIP3    H2 7899   4.416   0.948   1.542  0.5136 -1.0474 -1.6296
 2656TIP3   OH2 7900   4.647   1.078   3.710 -0.8445  0.1734 -0.2547
 2656TIP3    H1 7901   4.733   1.104   3.744 -1.3519 -0.0315  1.2128
 2656TIP3    H2 7902   4.594   1.063   3.788 -1.8319 -0.9966 -1.1302
 2657TIP3   OH2 7903   3.574   2.570   3.101 -0.4424  0.1545  0.0577
 2657TIP3    H1 7904   3.495   2.518   3.114  0.6754 -1.7634 -0.4779
 2657TIP3    H2 7905   3.556   2.623   3.023 -1.5967  0.5470  0.5916
 2658TIP3   OH2 7906   3.379   0.487   5.049 -0.2128  0.1992 -0.3277
 2658TIP3    H1 7907   3.409   0.409   5.002  0.1683 -0.0066  0.2513
 2658TIP3    H2 7908   3.359   0.456   5.137 -1.1757  0.5360 -0.4217
 2659TIP3   OH2 7909   2.757   3.700   3.164  0.2614  0.2053  0.0741
 2659TIP3    H1 7910   2.813   3.623   3.151 -1.1790 -1.2087  1.9645
 2659TIP3    H2 7911   2.677   3.679   3.115  0.6736  1.4466 -1.1554
 2660TIP3   OH2 7912   3.244   0.836   1.890 -0.9222 -0.1931 -0.3406
 2660TIP3    H1 7913   3.177   0.770   1.905 -0.7707  0.3946  3.1711
 2660TIP3    H2 7914   3.197   0.919   1.893 -0.3497  0.1161  0.1581
 2661TIP3   OH2 7915   4.578   2.797   2.373 -0.0019  0.2298  0.4594
 2661TIP3    H1 7916   4.491   2.765   2.395  0.3717  0.3360  2.1525
 2661TIP3    H2 7917   4.635   2.763   2.442  1.6923 -1.5818 -1.7476
 2662TIP3   OH2 7918   6.220   2.332   3.987  0.2663 -0.2841  0.0503
 2662TIP3    H1 7919   6.192   2.423   3.993 -1.2414 -0.6207 -1.4587
 2662TIP3    H2 7920   6.313   2.334   4.007  0.2953  1.6103 -0.1855
 2663TIP3   OH2 7921   3.701   1.368   3.328 -0.2894  0.1606  0.7043
 2663TIP3    H1 7922   3.760   1.303   3.290 -1.0083  1.4563 -2.7815
 2663TIP3    H2 7923   3.652   1.319   3.394  0.6104 -2.3486 -0.4028
 2664TIP3   OH2 7924   3.172   2.311   0.463 -0.6827 -0.2170  0.6058
 2664TIP3    H1 7925   3.113   2.335   0.534  0.2828  0.5012  1.1780
 2664TIP3    H2 7926   3.238   2.380   0.461  0.8580 -1.6430  0.8089
 2665TIP3   OH2 7927   3.867   2.491   1.400 -0.2738 -0.0367 -0.3801
 2665TIP3    H1 7928   3.922   2.519   1.473  0.4449 -0.0550 -0.9091
 2665TIP3    H2 7929   3.843   2.401   1.420  0.1825 -0.1426 -0.3256
 2666TIP3   OH2 7930   5.079   0.070   0.788 -0.2632 -0.4773  0.1503
 2666TIP3    H1 7931   5.050  -0.013   0.751  0.9321 -1.4622  1.3364
 2666TIP3    H2 7932   5.144   0.103   0.726  0.3200 -1.1582  0.3917
 2667TIP3   OH2 7933   5.016   0.728   3.662  0.5742 -0.0381 -0.2209
 2667TIP3    H1 7934   5.077   0.659   3.635  0.2438 -0.0660 -0.9285
 2667TIP3    H2 7935   4.992   0.705   3.752  2.2686  0.4684  0.3828
 2668TIP3   OH2 7936   3.157   0.760   2.472 -0.2214  0.1211 -0.0872
 2668TIP3    H1 7937   3.071   0.739   2.436 -0.2500 -0.1057  0.1091
 2668TIP3    H2 7938   3.175   0.849   2.443  1.2295 -1.2038 -3.5356
 2669TIP3   OH2 7939   2.972   0.134   2.155 -0.3520  0.0626  0.3429
 2669TIP3    H1 7940   2.919   0.123   2.233  0.1976  0.6492  0.8084
 2669TIP3    H2 7941   3.038   0.064   2.160 -0.8404 -0.4299 -0.0402
 2670TIP3   OH2 7942   1.006   2.885   1.283 -0.0062 -0.2217  0.5565
 2670TIP3    H1 7943   0.957   2.893   1.365 -0.5031  0.6772  0.1817
 2670TIP3    H2 7944   1.097   2.901   1.308 -0.4088  2.1476  0.6129
 2671TIP3   OH2 7945   6.012   1.133   3.939 -0.1221 -0.3222  0.0693
 2671TIP3    H1 7946   6.048   1.132   4.027  0.9745 -2.5926 -0.3956
 2671TIP3    H2 7947   6.021   1.044   3.907 -1.0341  0.3315 -2.1484
 2672TIP3   OH2 7948   3.752   2.459   4.617 -0.3141  0.0820  0.4238
 2672TIP3    H1 7949   3.703   2.535   4.584  1.0962  0.7718 -0.1214
 2672TIP3    H2 7950   3.747   2.395   4.547 -0.0844  0.3132  0.1944
 2673TIP3   OH2 7951   2.373   4.094   4.415 -0.1474 -0.7979  0.8610
 2673TIP3    H1 7952   2.322   4.175   4.412  0.1855 -0.6110  0.0269
 2673TIP3    H2 7953   2.393   4.082   4.508 -1.4967 -0.7464  1.1625
 2674TIP3   OH2 7954   1.830   1.212   1.387 -0.4306  0.4058 -0.4241
 2674TIP3    H1 7955   1.887   1.146   1.426 -0.5543  0.5693  0.0382
 2674TIP3    H2 7956   1.885   1.256   1.322  0.2428  1.1473  0.6278
 2675TIP3   OH2 7957   2.766   0.859   3.514 -0.3444  0.0708 -0.4623
 2675TIP3    H1 7958   2.726   0.772   3.515  0.0956 -0.1152  1.1149
 2675TIP3    H2 7959   2.859   0.843   3.528 -0.4863  0.9083  1.5479
 2676TIP3   OH2 7960   3.118   3.069   2.586  0.1771  0.1639 -0.1000
 2676TIP3    H1 7961   3.175   3.065   2.664 -0.3372 -2.5294  0.1625
 2676TIP3    H2 7962   3.029   3.067   2.622 -0.0639 -0.0144 -0.7147
 2677TIP3   OH2 7963   3.947   2.372   5.293 -0.1431 -0.0246 -0.0795
 2677TIP3    H1 7964   3.986   2.308   5.353  0.6919 -0.8615 -1.4688
 2677TIP3    H2 7965   4.023   2.415   5.253 -0.6982  1.1060  0.0779
 2678TIP3   OH2 7966   4.280   0.035   3.147  0.2528 -0.3955  0.1803
 2678TIP3    H1 7967   4.239   0.078   3.223 -1.1712 -1.7044  0.1893
 2678TIP3    H2 7968   4.290  -0.056   3.174  1.1878 -0.5473 -0.6513
 2679TIP3   OH2 7969   3.197   0.675   3.926 -0.1207 -0.3807  0.3133
 2679TIP3    H1 7970   3.260   0.626   3.979  1.0371 -1.4529 -1.9544
 2679TIP3    H2 7971   3.111   0.644   3.955  0.4437  0.1572  2.5743
 2680TIP3   OH2 7972   7.051   2.263   2.332  0.2686  0.1405  0.1080
 2680TIP3    H1 7973   7.142   2.283   2.351  0.0896  1.0059  0.0724
 2680TIP3    H2 7974   7.009   2.348   2.322 -0.3710 -0.2547 -0.6857
 2681TIP3   OH2 7975   5.939   2.551   4.141 -0.1599 -0.9160 -0.7967
 2681TIP3    H1 7976   6.028   2.550   4.176  0.0980  0.3723 -1.3491
 2681TIP3    H2 7977   5.951   2.553   4.046 -0.7180  1.6951 -0.8429
 2682TIP3   OH2 7978   4.196   3.958   2.141 -0.2624 -0.1350 -0.2871
 2682TIP3    H1 7979   4.250   4.000   2.208  0.2541  0.2138 -0.9121
 2682TIP3    H2 7980   4.107   3.964   2.174  0.1742 -1.5105  1.1709
 2683TIP3   OH2 7981   6.367   2.644   2.607 -0.1829  0.1723 -0.5340
 2683TIP3    H1 7982   6.433   2.690   2.556  1.1363  1.4980  2.2332
 2683TIP3    H2 7983   6.307   2.712   2.637 -0.7056 -0.5199  0.0249
 2684TIP3   OH2 7984   3.346   1.894   3.075  0.0668 -0.6329  0.4326
 2684TIP3    H1 7985   3.373   1.934   3.157 -0.2447 -0.1434  0.2978
 2684TIP3    H2 7986   3.251   1.903   3.074 -0.1434 -2.5763  1.0301
 2685TIP3   OH2 7987   3.028   2.826   3.469 -0.0947  0.4928 -0.2996
 2685TIP3    H1 7988   3.001   2.910   3.432 -3.1544 -0.2349  0.1315
 2685TIP3    H2 7989   2.958   2.802   3.529  1.1410 -1.9673  0.2503
 2686TIP3   OH2 7990   4.001   6.356   3.317 -0.0534 -0.2257  0.3627
 2686TIP3    H1 7991   4.024   6.265   3.334  0.9453  0.2739  1.7333
 2686TIP3    H2 7992   4.081   6.405   3.336 -0.4686  0.9059 -0.7254
 2687TIP3   OH2 7993   2.759   2.830   2.294 -0.7635 -0.2307 -0.1732
 2687TIP3    H1 7994   2.731   2.744   2.261 -0.0030  0.7478 -3.5018
 2687TIP3    H2 7995   2.831   2.810   2.354  0.4262 -1.8625 -2.0804
 2688TIP3   OH2 7996   3.545   0.672   2.209  0.1329  0.1786 -0.4458
 2688TIP3    H1 7997   3.496   0.744   2.248  1.2356  1.2613 -1.0109
 2688TIP3    H2 7998   3.619   0.659   2.269 -0.5750 -1.1508  0.1717
 2689TIP3   OH2 7999   4.430   1.573   3.379  0.1373  0.2381 -0.9726
 2689TIP3    H1 8000   4.502   1.596   3.321  0.3914  0.6143 -0.5078
 2689TIP3    H2 8001   4.471   1.522   3.449 -0.1815 -0.2959 -1.1729
 2690TIP3   OH2 8002   0.327   7.499   3.949 -0.2715 -0.0464  0.0257
 2690TIP3    H1 8003   0.239   7.469   3.974 -0.6830 -0.0797 -1.4268
 2690TIP3    H2 8004   0.367   7.423   3.907 -0.3111  0.5812 -1.1655
 2691TIP3   OH2 8005   1.189   6.610   4.388 -0.3177  0.0163  0.0513
 2691TIP3    H1 8006   1.259   6.634   4.449  1.0065 -2.1731 -0.5664
 2691TIP3    H2 8007   1.121   6.570   4.443  0.3733 -0.8988  0.2487
 2692TIP3   OH2 8008   4.704   1.064   4.193  0.5302  0.2020 -1.0145
 2692TIP3    H1 8009   4.612   1.054   4.169  0.7780 -1.4889 -1.3202
 2692TIP3    H2 8010   4.714   1.158   4.212 -1.1454  0.4682 -1.3774
 2693TIP3   OH2 8011   3.177   1.739   4.939 -0.0082  0.6066 -0.2251
 2693TIP3    H1 8012   3.123   1.773   5.011  0.0419 -0.5787  0.3724
 2693TIP3    H2 8013   3.145   1.650   4.925  0.7253  0.4517 -0.9420
 2694TIP3   OH2 8014   3.182   1.362   2.562  0.0936  0.1234  0.0047
 2694TIP3    H1 8015   3.251   1.395   2.618 -0.2017  0.1973  0.3251
 2694TIP3    H2 8016   3.190   1.413   2.481 -0.1731  0.7752  0.3871
 2695TIP3   OH2 8017   3.183   0.593   4.447 -0.2109 -0.0104  0.1831
 2695TIP3    H1 8018   3.087   0.591   4.441 -0.1598 -0.3330 -0.6564
 2695TIP3    H2 8019   3.207   0.510   4.487 -0.2914  0.1338  0.5298
 2696TIP3   OH2 8020   1.781   2.386   1.505  0.3940  0.7022 -0.2438
 2696TIP3    H1 8021   1.848   2.440   1.548  2.0352 -1.4347 -0.0612
 2696TIP3    H2 8022   1.816   2.371   1.417  0.3404 -0.7515 -0.0211
 2697TIP3   OH2 8023   3.447   0.669   3.477 -0.0758  0.5253  0.2481
 2697TIP3    H1 8024   3.425   0.668   3.570 -0.9186  0.4574  0.0505
 2697TIP3    H2 8025   3.449   0.577   3.452  1.6278  0.4550  0.5292
 2698TIP3   OH2 8026   4.038   1.992   3.688 -0.1584 -0.4829  0.0076
 2698TIP3    H1 8027   4.062   1.985   3.781  0.2455 -3.5213 -0.3024
 2698TIP3    H2 8028   4.122   1.998   3.642 -0.3159 -0.3925 -0.2712
 2699TIP3   OH2 8029   4.070   0.748   4.375 -0.3382  0.0573 -0.1384
 2699TIP3    H1 8030   4.134   0.799   4.424 -1.2236 -0.3362  1.4428
 2699TIP3    H2 8031   4.080   0.658   4.406 -2.5407  0.1973  1.1198
 2700TIP3   OH2 8032   6.531   3.159   2.659  0.1011  0.7409 -0.2121
 2700TIP3    H1 8033   6.610   3.171   2.606  0.9054 -0.0821  0.7975
 2700TIP3    H2 8034   6.549   3.083   2.714 -2.4042 -1.1386 -1.8499
 2701TIP3   OH2 8035   3.047   1.187   2.842  0.0438  0.3030  0.0785
 2701TIP3    H1 8036   3.082   1.186   2.931 -3.4752  0.4382  1.5507
 2701TIP3    H2 8037   2.980   1.255   2.843 -0.1946  0.1706 -2.6358
 2702TIP3   OH2 8038   4.093   1.045   3.760 -0.3147  0.9927  0.1538
 2702TIP3    H1 8039   4.174   1.015   3.718  0.1426  2.5853 -0.1388
 2702TIP3    H2 8040   4.119   1.070   3.848 -0.8264 -0.0930  0.6224
 2703TIP3   OH2 8041   1.406   0.900   4.268  0.4213  0.0476 -0.2099
 2703TIP3    H1 8042   1.355   0.932   4.194  1.6010 -0.3243 -1.1979
 2703TIP3    H2 8043   1.342   0.889   4.338 -0.5339  1.4237 -0.8421
 2704TIP3   OH2 8044   5.112   2.584   3.069 -0.4202 -0.1707  0.3847
 2704TIP3    H1 8045   5.125   2.562   2.976 -0.4703 -0.2547  0.3981
 2704TIP3    H2 8046   5.100   2.679   3.069 -1.6421 -0.3179  0.1743
 2705TIP3   OH2 8047   1.249   2.336   5.513 -0.2136 -0.5111  0.5510
 2705TIP3    H1 8048   1.292   2.421   5.516 -1.0369 -0.0928  0.5445
 2705TIP3    H2 8049   1.190   2.342   5.437 -0.5293 -0.9603  0.7583
 2706TIP3   OH2 8050   3.737   1.203   1.916 -0.0629  0.0331 -0.4851
 2706TIP3    H1 8051   3.681   1.164   1.983 -0.5733  0.3114 -0.7463
 2706TIP3    H2 8052   3.692   1.186   1.834 -0.8518  2.1019 -0.5144
 2707TIP3   OH2 8053   2.716   2.069   3.209 -0.3255  0.3727 -0.4367
 2707TIP3    H1 8054   2.747   2.158   3.225 -2.7616  0.9018  1.7196
 2707TIP3    H2 8055   2.753   2.017   3.280 -0.0933 -0.0492 -0.8607
 2708TIP3   OH2 8056   0.726   7.078   2.636 -0.1647  0.0434  0.4663
 2708TIP3    H1 8057   0.797   7.141   2.623  0.0969 -0.3473 -0.0253
 2708TIP3    H2 8058   0.761   7.015   2.699 -0.3570  0.2735  0.8093
 2709TIP3   OH2 8059   3.085   2.851   2.150 -0.1800 -0.1871  0.0688
 2709TIP3    H1 8060   3.053   2.794   2.081 -0.9079  0.4906 -0.1542
 2709TIP3    H2 8061   3.180   2.857   2.134 -0.0531 -1.5367  0.2533
 2710TIP3   OH2 8062   4.094   1.521   2.497 -0.5488 -0.5728 -0.0067
 2710TIP3    H1 8063   4.140   1.482   2.571  0.3649  1.9016  0.7836
 2710TIP3    H2 8064   4.006   1.539   2.531 -0.6920 -1.1115 -0.0915
 2711TIP3   OH2 8065   6.285   2.677   3.086 -0.0924 -0.5000 -0.2091
 2711TIP3    H1 8066   6.271   2.734   3.011  1.1778  2.6975  1.8603
 2711TIP3    H2 8067   6.380   2.669   3.093 -0.2586 -2.8121 -0.4082
 2712TIP3   OH2 8068   5.226   1.701   4.045 -0.3484  0.3535 -0.0633
 2712TIP3    H1 8069   5.219   1.675   4.137  3.5159  0.6559  0.3901
 2712TIP3    H2 8070   5.220   1.618   3.997  1.2281 -0.2497  0.7231
 2713TIP3   OH2 8071   1.209   7.130   1.766 -0.2497  0.8566  0.5231
 2713TIP3    H1 8072   1.227   7.038   1.788  1.8232  0.6801 -1.7201
 2713TIP3    H2 8073   1.174   7.167   1.847 -3.0771 -2.3888  0.9027
 2714TIP3   OH2 8074   4.537   1.230   2.604  0.6092  0.6401  0.5559
 2714TIP3    H1 8075   4.491   1.163   2.654  0.6680  0.7294  0.7328
 2714TIP3    H2 8076   4.570   1.185   2.527 -0.7642  0.8313 -0.1546
 2715TIP3   OH2 8077   2.762   1.220   3.844  0.4614 -0.0443  0.0208
 2715TIP3    H1 8078   2.742   1.312   3.857 -0.8425 -0.4113  0.6582
 2715TIP3    H2 8079   2.677   1.177   3.839  1.0585 -1.2455 -0.0526
 2716TIP3   OH2 8080   4.737   3.054   1.273 -0.2170 -0.4587  0.2343
 2716TIP3    H1 8081   4.779   3.112   1.337  0.6319 -1.0467  0.2175
 2716TIP3    H2 8082   4.648   3.044   1.304 -0.1925  0.3481  0.5880
 2717TIP3   OH2 8083   6.636   4.600   6.034  0.4184  0.3097 -0.4467
 2717TIP3    H1 8084   6.581   4.552   6.096 -0.2897  1.6073 -0.0598
 2717TIP3    H2 8085   6.596   4.584   5.949  0.6372 -0.3993 -0.4274
 2718TIP3   OH2 8086   4.459   4.734   4.603  0.2590  0.0394  0.5680
 2718TIP3    H1 8087   4.466   4.782   4.685 -1.3124  0.3661  0.5248
 2718TIP3    H2 8088   4.489   4.795   4.536 -0.7721  0.6217  0.6306
 2719TIP3   OH2 8089   1.809   3.507   2.827 -0.1748 -0.0242  0.3801
 2719TIP3    H1 8090   1.887   3.545   2.786 -1.1541  0.3151 -1.2191
 2719TIP3    H2 8091   1.817   3.413   2.810 -0.1210  0.0127  0.1955
 2720TIP3   OH2 8092   2.256   3.641   1.891  0.2969  0.0198 -0.1513
 2720TIP3    H1 8093   2.231   3.586   1.966 -2.7930 -0.6089 -1.5488
 2720TIP3    H2 8094   2.177   3.693   1.872  0.7288 -0.4100 -3.4186
 2721TIP3   OH2 8095   5.929   2.974   1.594 -0.3775 -0.0212  0.8120
 2721TIP3    H1 8096   5.908   3.015   1.678  0.0202  0.4004  0.7105
 2721TIP3    H2 8097   5.930   3.047   1.532  0.3820 -0.1762  0.6344
 2722TIP3   OH2 8098   4.613   2.938   4.366 -0.2391  0.2914  0.5036
 2722TIP3    H1 8099   4.664   2.886   4.304 -2.3103  1.4766 -2.2876
 2722TIP3    H2 8100   4.665   3.017   4.379 -0.1968  0.4015 -0.3658
 2723TIP3   OH2 8101   3.317   2.620   3.707 -0.7085 -0.1630 -0.2869
 2723TIP3    H1 8102   3.358   2.595   3.789 -1.0291 -0.9768 -0.3723
 2723TIP3    H2 8103   3.311   2.716   3.711  0.1088 -0.1365  0.2302
 2724TIP3   OH2 8104   4.519   3.498   3.521 -0.1279 -0.3888 -0.1493
 2724TIP3    H1 8105   4.536   3.588   3.494  2.3498 -0.5125  0.7836
 2724TIP3    H2 8106   4.576   3.485   3.597 -3.3245 -1.5427  2.1557
 2725TIP3   OH2 8107   1.622   7.016   1.355  0.3804 -0.4272 -0.4430
 2725TIP3    H1 8108   1.633   6.979   1.442  0.5364  1.4802  0.3632
 2725TIP3    H2 8109   1.699   6.985   1.306 -0.2287 -2.3453 -0.2472
 2726TIP3   OH2 8110   3.403   0.442   3.281  0.1239 -0.2908  0.0722
 2726TIP3    H1 8111   3.499   0.449   3.280  0.0970  0.1711  0.2955
 2726TIP3    H2 8112   3.383   0.405   3.367 -0.0279  1.9027  1.0113
 2727TIP3   OH2 8113   5.093   2.073   4.053  0.3676  0.0842  0.1313
 2727TIP3    H1 8114   5.173   2.038   4.014  0.1444 -1.7728  1.2925
 2727TIP3    H2 8115   5.124   2.122   4.130  0.4498  0.1757  0.0417
 2728TIP3   OH2 8116   5.183   0.107   3.517  0.1891 -0.0583 -0.2819
 2728TIP3    H1 8117   5.090   0.090   3.530  0.5891 -0.8250  1.7906
 2728TIP3    H2 8118   5.210   0.046   3.449 -0.9600  0.6518 -1.3926
 2729TIP3   OH2 8119   3.033   1.579   0.968 -0.4159 -0.0953 -0.1572
 2729TIP3    H1 8120   3.025   1.625   1.051  1.0024  1.2199 -0.7226
 2729TIP3    H2 8121   2.969   1.508   0.973  0.4760 -0.7804  2.5563
 2730TIP3   OH2 8122   1.901   2.198   2.475 -0.0720 -0.2480 -0.0597
 2730TIP3    H1 8123   1.860   2.181   2.390 -1.7940 -0.7810  0.8462
 2730TIP3    H2 8124   1.851   2.271   2.511  2.6093  2.0375 -0.7709
 2731TIP3   OH2 8125   3.724   2.282   4.379  0.5381  0.0204  0.3119
 2731TIP3    H1 8126   3.708   2.277   4.284  2.6748  2.9185 -0.2723
 2731TIP3    H2 8127   3.749   2.193   4.404 -0.2969 -0.8365 -1.7700
 2732TIP3   OH2 8128   4.589   4.125   1.322 -0.2628  0.7405 -0.4531
 2732TIP3    H1 8129   4.516   4.150   1.379  0.3268 -0.7288  1.0047
 2732TIP3    H2 8130   4.640   4.206   1.311 -1.0186  1.3084  0.1525
 2733TIP3   OH2 8131   5.216   0.923   3.455  0.0642  0.0198  0.1800
 2733TIP3    H1 8132   5.186   0.975   3.529  1.5900  0.0547  0.8046
 2733TIP3    H2 8133   5.279   0.862   3.493 -0.3185 -1.0342 -0.8411
 2734TIP3   OH2 8134   4.732   5.974   4.766 -0.0082  0.4574 -0.1352
 2734TIP3    H1 8135   4.786   5.945   4.839 -0.6467 -0.1978  0.0723
 2734TIP3    H2 8136   4.713   5.895   4.716 -3.1016  0.2034  1.3262
 2735TIP3   OH2 8137   4.093   2.837   1.788  0.0844  0.4230  0.1580
 2735TIP3    H1 8138   4.172   2.784   1.776 -0.6785 -0.8362  0.6746
 2735TIP3    H2 8139   4.125   2.917   1.830  1.1058 -0.0245  0.2542
 2736TIP3   OH2 8140   3.434   2.079   3.925 -0.1284  0.0209  0.2969
 2736TIP3    H1 8141   3.488   2.126   3.862 -0.5160 -0.7873 -0.6551
 2736TIP3    H2 8142   3.480   1.996   3.940  0.0526  0.2822  1.2185
 2737TIP3   OH2 8143   1.587   7.096   0.664  0.0201  0.0192 -0.0527
 2737TIP3    H1 8144   1.597   7.113   0.758  0.5160 -3.2286  0.5252
 2737TIP3    H2 8145   1.493   7.082   0.652  0.0704 -0.4295  0.0961
 2738TIP3   OH2 8146   4.030   1.336   2.859 -0.2526  0.0483  0.2534
 2738TIP3    H1 8147   3.961   1.402   2.847 -1.3502 -0.9595  0.8789
 2738TIP3    H2 8148   4.070   1.359   2.943  0.2775  0.7138 -0.1728
 2739TIP3   OH2 8149   1.265   1.211   0.482  0.3865 -0.3805  0.7688
 2739TIP3    H1 8150   1.217   1.290   0.509 -1.1139 -0.9439 -0.1720
 2739TIP3    H2 8151   1.353   1.243   0.460  0.1255  0.8513  1.4472
 2740TIP3   OH2 8152   5.516   5.577   6.061 -0.3598  0.1099 -0.2831
 2740TIP3    H1 8153   5.534   5.557   5.969 -0.1624 -0.0715 -0.2061
 2740TIP3    H2 8154   5.593   5.545   6.108 -1.1405 -1.2027  0.1194
 2741TIP3   OH2 8155   2.686   0.438   1.691  0.0488  0.0163  0.0653
 2741TIP3    H1 8156   2.751   0.503   1.667 -0.1850  0.6146  1.0295
 2741TIP3    H2 8157   2.650   0.407   1.608  1.6598 -0.4260 -0.4780
 2742TIP3   OH2 8158   3.451   0.766   4.057  0.2137 -0.3401  0.3303
 2742TIP3    H1 8159   3.501   0.800   4.132 -0.3007 -1.8697  1.3848
 2742TIP3    H2 8160   3.380   0.715   4.096 -0.8704 -0.0509 -1.1934
 2743TIP3   OH2 8161   3.480   0.396   3.926  0.4254  0.4961 -0.2092
 2743TIP3    H1 8162   3.480   0.475   3.871  1.1694  0.7749  0.1836
 2743TIP3    H2 8163   3.406   0.344   3.893 -0.1995  1.4427 -0.3451
 2744TIP3   OH2 8164   6.294   2.667   2.030  0.6675  0.1643  0.2397
 2744TIP3    H1 8165   6.347   2.737   1.992 -0.1055  0.6521  0.0236
 2744TIP3    H2 8166   6.247   2.709   2.102  0.2918 -0.1623  0.1886
 2745TIP3   OH2 8167   1.568   0.961   0.942  0.3387  0.1112 -0.0818
 2745TIP3    H1 8168   1.577   1.011   0.861  0.4993 -0.2210 -0.2691
 2745TIP3    H2 8169   1.605   0.876   0.921 -0.2906 -0.2136  0.1149
 2746TIP3   OH2 8170   5.057   2.358   3.251  0.1301 -0.2724  0.1565
 2746TIP3    H1 8171   5.149   2.338   3.271  0.6817  1.3057 -0.7228
 2746TIP3    H2 8172   5.011   2.276   3.268  1.4481 -0.6348  2.2065
 2747TIP3   OH2 8173   2.249   7.963   1.562  0.2131  0.1187 -0.5853
 2747TIP3    H1 8174   2.266   7.945   1.469  1.0930 -0.5366 -0.3057
 2747TIP3    H2 8175   2.233   7.877   1.600  1.4985  0.1956  0.1874
 2748TIP3   OH2 8176   5.019   2.030   2.674 -0.7464 -0.2456  0.2079
 2748TIP3    H1 8177   4.979   1.951   2.710  1.3380 -0.9845  1.0126
 2748TIP3    H2 8178   5.051   2.078   2.750 -0.8325  0.7161 -0.3520
 2749TIP3   OH2 8179   3.967   3.482   3.681  0.5137  0.0913 -0.3535
 2749TIP3    H1 8180   3.978   3.500   3.588  0.4927  1.1032 -0.1641
 2749TIP3    H2 8181   4.007   3.557   3.725  0.3284 -0.2746  0.4483
 2750TIP3   OH2 8182   5.971   2.137   3.691  0.3540  0.6934 -0.4182
 2750TIP3    H1 8183   6.053   2.169   3.653  0.6313 -0.3786 -0.7238
 2750TIP3    H2 8184   5.989   2.133   3.785  1.0649 -0.7045 -0.6009
 2751TIP3   OH2 8185   4.749   3.300   4.648 -0.0082  0.2231  0.4198
 2751TIP3    H1 8186   4.836   3.275   4.680  0.7113  1.0230 -0.8205
 2751TIP3    H2 8187   4.747   3.268   4.558 -0.9652  0.3009  0.4129
 2752TIP3   OH2 8188   5.018   4.402   3.398  0.2224 -0.1171  0.3543
 2752TIP3    H1 8189   4.996   4.447   3.316  0.6219  2.1146  1.4132
 2752TIP3    H2 8190   4.944   4.421   3.456  1.1102  0.5061  1.3068
 2753TIP3   OH2 8191   1.718   0.813   2.787  0.1916 -0.0309  0.1769
 2753TIP3    H1 8192   1.798   0.852   2.821  0.0113  0.8387 -0.3583
 2753TIP3    H2 8193   1.651   0.835   2.852 -0.3690  2.5493 -1.1979
 2754TIP3   OH2 8194   1.434   7.956   2.836 -0.1986 -0.6110 -0.2795
 2754TIP3    H1 8195   1.343   7.955   2.807 -0.3993 -0.8406  0.3590
 2754TIP3    H2 8196   1.430   7.944   2.931  0.4794 -0.3079 -0.2044
 2755TIP3   OH2 8197   3.936   4.114   3.797  0.7328 -0.3160  0.2636
 2755TIP3    H1 8198   3.936   4.074   3.710 -0.2588 -1.1946  0.6538
 2755TIP3    H2 8199   4.006   4.068   3.844  1.9107  0.8207 -0.3551
 2756TIP3   OH2 8200   3.437   1.658   2.985  0.2828 -0.2526  0.3291
 2756TIP3    H1 8201   3.481   1.588   3.032 -1.3606 -1.2122  0.4808
 2756TIP3    H2 8202   3.420   1.725   3.051  1.6408  0.1953  0.2316
 2757TIP3   OH2 8203   4.115   3.199   4.553  0.1891  0.0690  1.2425
 2757TIP3    H1 8204   4.104   3.172   4.645  0.5491 -0.2197  1.2001
 2757TIP3    H2 8205   4.209   3.192   4.537  0.0823 -0.2409  0.7385
 2758TIP3   OH2 8206   3.483   5.882   2.652 -0.1438  0.3737  0.1059
 2758TIP3    H1 8207   3.418   5.945   2.683 -0.3807  0.7071 -1.0412
 2758TIP3    H2 8208   3.515   5.839   2.731 -1.9627  0.0212  0.6693
 2759TIP3   OH2 8209   4.395   3.166   4.459  0.1624  0.4228  0.3518
 2759TIP3    H1 8210   4.445   3.175   4.540  0.7829  0.9115 -0.0861
 2759TIP3    H2 8211   4.436   3.228   4.399 -0.2325 -0.0185 -0.3670
 2760TIP3   OH2 8212   5.642   1.062   0.163 -0.2659  0.5306 -0.3328
 2760TIP3    H1 8213   5.732   1.036   0.181  0.8710  2.7029 -2.5186
 2760TIP3    H2 8214   5.646   1.158   0.159 -3.0781  0.7787  1.4700
 2761TIP3   OH2 8215   4.834   1.333   1.039 -0.3586 -0.1985  0.2610
 2761TIP3    H1 8216   4.866   1.423   1.031  0.5607 -0.7674 -3.1371
 2761TIP3    H2 8217   4.742   1.342   1.062 -0.7475  1.6588 -1.8701
 2762TIP3   OH2 8218   4.406   1.977   3.943 -0.4870  0.3501 -0.2780
 2762TIP3    H1 8219   4.339   1.988   4.010 -0.6004  1.0108 -0.5032
 2762TIP3    H2 8220   4.387   1.891   3.905  1.4874 -1.4929  2.6709
 2763TIP3   OH2 8221   4.642   2.540   1.752  0.4591  0.1059  0.3620
 2763TIP3    H1 8222   4.659   2.631   1.776 -0.6143  0.7081 -1.0731
 2763TIP3    H2 8223   4.565   2.516   1.804  0.1173  0.3543 -0.0261
 2764TIP3   OH2 8224   5.149   3.079   3.838 -0.7598  0.0168  0.2527
 2764TIP3    H1 8225   5.090   3.101   3.766 -2.2267 -1.8050  0.8651
 2764TIP3    H2 8226   5.149   2.983   3.841  2.3333 -0.0271  0.1966
 2765TIP3   OH2 8227   4.985   2.951   2.805  0.3462  0.5818 -0.0540
 2765TIP3    H1 8228   4.904   2.918   2.843 -0.6421  2.2856 -0.6194
 2765TIP3    H2 8229   4.999   3.035   2.848  0.3035  1.5875 -1.9730
 2766TIP3   OH2 8230   3.102   3.299   2.217  0.7012  0.7678  0.0115
 2766TIP3    H1 8231   3.188   3.263   2.238  1.8494  3.4072  0.0957
 2766TIP3    H2 8232   3.107   3.319   2.123 -0.6890 -1.2717 -0.5171
 2767TIP3   OH2 8233   3.002   2.417   2.155 -0.6266  0.0744  0.1636
 2767TIP3    H1 8234   3.009   2.336   2.205 -3.2841  0.9959  2.1589
 2767TIP3    H2 8235   3.047   2.482   2.209 -1.0273  0.5039 -0.0143
 2768TIP3   OH2 8236   4.280   2.048   4.242  0.2949  0.5292 -0.2069
 2768TIP3    H1 8237   4.234   2.096   4.312  0.8733 -1.0892  1.3168
 2768TIP3    H2 8238   4.216   1.984   4.211  0.4479  0.4332 -0.3230
 2769TIP3   OH2 8239   3.629   1.054   2.943  0.1768 -0.2088  0.0471
 2769TIP3    H1 8240   3.715   1.025   2.972  0.8926  0.7978 -1.0183
 2769TIP3    H2 8241   3.612   1.002   2.864 -0.8454 -1.4502  1.0633
 2770TIP3   OH2 8242   7.144   2.125   2.083 -0.5289 -0.1539  0.1707
 2770TIP3    H1 8243   7.117   2.163   2.167 -0.3300 -1.6386  0.9092
 2770TIP3    H2 8244   7.238   2.143   2.078 -0.5186 -0.1677  0.3174
 2771TIP3   OH2 8245   3.137   1.819   3.845  0.3286  0.6542 -0.1414
 2771TIP3    H1 8246   3.114   1.812   3.752  0.6855 -0.1415 -0.1685
 2771TIP3    H2 8247   3.203   1.889   3.848  0.5420  0.4678 -0.5229
 2772TIP3   OH2 8248   3.679   0.457   5.324 -0.4851 -0.3001  0.1688
 2772TIP3    H1 8249   3.663   0.532   5.267 -0.3731 -0.6401 -0.3098
 2772TIP3    H2 8250   3.751   0.409   5.282  2.7949  1.9000  2.9294
 2773TIP3   OH2 8251   3.672   0.682   3.935 -0.1589  0.3885 -0.2667
 2773TIP3    H1 8252   3.738   0.670   4.003  1.6299  1.7004 -1.7266
 2773TIP3    H2 8253   3.592   0.705   3.983  0.2116 -1.9955  1.5608
 2774TIP3   OH2 8254   1.711   7.764   2.623 -0.3006 -0.0660  0.1363
 2774TIP3    H1 8255   1.649   7.832   2.596  0.2195  1.5789  2.8122
 2774TIP3    H2 8256   1.658   7.704   2.675 -0.1269  0.0813  0.4861
 2775TIP3   OH2 8257   5.938   1.714   3.120  0.8687 -0.1181  0.0526
 2775TIP3    H1 8258   6.023   1.681   3.090  0.9434 -0.0524  0.1888
 2775TIP3    H2 8259   5.939   1.699   3.214  0.6583 -0.2739  0.0298
 2776TIP3   OH2 8260   1.823   1.783   3.182 -0.0558 -0.4654 -0.6493
 2776TIP3    H1 8261   1.881   1.832   3.240  0.5147 -0.6118 -1.0867
 2776TIP3    H2 8262   1.761   1.847   3.150 -0.5141 -0.4292  0.3019
 2777TIP3   OH2 8263   1.425   7.681   4.105 -0.6274 -0.5757 -0.1876
 2777TIP3    H1 8264   1.449   7.637   4.187  1.2936 -1.0201 -0.9464
 2777TIP3    H2 8265   1.417   7.609   4.042  1.1560  0.0052 -1.1179
 2778TIP3   OH2 8266   3.845   1.106   4.598 -0.3234 -0.0420 -0.3511
 2778TIP3    H1 8267   3.887   1.099   4.511  0.5454 -0.4208  0.0896
 2778TIP3    H2 8268   3.824   1.015   4.621 -1.2171  0.1328 -0.4839
 2779TIP3   OH2 8269   5.034   2.757   1.969  0.2700 -0.1667 -0.5090
 2779TIP3    H1 8270   5.016   2.687   2.031 -1.0129 -0.8050 -1.5845
 2779TIP3    H2 8271   4.954   2.809   1.967  0.2534 -0.2343 -1.7435
 2780TIP3   OH2 8272   0.641   7.928   2.265  0.6981  0.1811 -0.2375
 2780TIP3    H1 8273   0.648   8.023   2.266 -0.5261  0.2788  0.4603
 2780TIP3    H2 8274   0.643   7.903   2.357 -1.8422 -0.2197 -0.2623
 2781TIP3   OH2 8275   3.373   3.201   5.948 -0.3296 -0.7877 -0.5684
 2781TIP3    H1 8276   3.339   3.113   5.929 -2.9652  0.3247 -1.1332
 2781TIP3    H2 8277   3.373   3.246   5.864 -0.4015  0.2498 -0.0171
 2782TIP3   OH2 8278   2.885   1.812   4.576 -0.5387 -0.4846  0.1875
 2782TIP3    H1 8279   2.828   1.803   4.499 -0.6796  0.1547  0.2108
 2782TIP3    H2 8280   2.837   1.873   4.633  0.2627  0.2102  0.1241
 2783TIP3   OH2 8281   4.555   0.375   2.122 -0.8069  0.1996 -0.1813
 2783TIP3    H1 8282   4.497   0.434   2.171  0.7824  1.4653  0.1951
 2783TIP3    H2 8283   4.577   0.306   2.185 -1.3316  0.0813 -0.1182
 2784TIP3   OH2 8284   5.431   2.534   1.746  0.2813  0.3629  0.4488
 2784TIP3    H1 8285   5.408   2.486   1.825 -1.6328 -0.6316 -0.6665
 2784TIP3    H2 8286   5.363   2.601   1.737  0.1828  0.1443 -0.6066
 2785TIP3   OH2 8287   3.361   3.356   3.375  0.0668 -0.4605 -0.5379
 2785TIP3    H1 8288   3.432   3.292   3.373 -1.1885 -1.8593 -1.0152
 2785TIP3    H2 8289   3.327   3.351   3.464  1.7478  1.5784  0.2770
 2786TIP3   OH2 8290   2.428   3.930   4.076 -0.2084  0.5263 -0.0402
 2786TIP3    H1 8291   2.361   3.999   4.073 -0.9678 -0.1308  1.1608
 2786TIP3    H2 8292   2.474   3.946   4.159  0.5985  0.4917 -0.4822
 2787TIP3   OH2 8293   2.915   2.787   6.058  0.3023 -0.1979 -0.6926
 2787TIP3    H1 8294   2.867   2.870   6.059  1.6345  0.5845 -0.1194
 2787TIP3    H2 8295   2.859   2.726   6.106 -0.0521  0.7351  0.0871
 2788TIP3   OH2 8296   5.221   2.603   3.728  0.1295  0.4727 -1.0709
 2788TIP3    H1 8297   5.274   2.534   3.688  0.1644  0.3115 -0.7509
 2788TIP3    H2 8298   5.152   2.556   3.775  1.5894  0.5246  1.2418
 2789TIP3   OH2 8299   6.567   3.999   1.269  0.2494  0.2554  0.1257
 2789TIP3    H1 8300   6.565   4.064   1.339  0.0728 -0.5883  0.9210
 2789TIP3    H2 8301   6.569   4.050   1.188 -0.4428  1.2454  0.7242
 2790TIP3   OH2 8302   5.039   2.227   3.560 -0.1955  0.0152  0.0913
 2790TIP3    H1 8303   5.023   2.202   3.651 -0.2321  0.6524  0.2651
 2790TIP3    H2 8304   5.134   2.225   3.551 -0.1832  0.1200  0.1946
 2791TIP3   OH2 8305   1.991   0.869   2.822 -0.3032 -0.1665  0.0025
 2791TIP3    H1 8306   2.056   0.851   2.891 -0.3595 -1.1180 -0.1999
 2791TIP3    H2 8307   2.019   0.954   2.786 -0.0591  0.1665  0.9468
 2792TIP3   OH2 8308   2.512   7.119   2.215 -0.4555  0.4483  0.0914
 2792TIP3    H1 8309   2.460   7.155   2.287 -2.0358  2.3024 -1.8884
 2792TIP3    H2 8310   2.448   7.074   2.159  0.0575  2.2545 -2.0657
 2793TIP3   OH2 8311   5.176   2.702   1.720  0.0581  0.2986  0.3446
 2793TIP3    H1 8312   5.137   2.681   1.805  2.6640 -0.9464  1.2925
 2793TIP3    H2 8313   5.178   2.797   1.717  1.9887  0.3637  2.6836
 2794TIP3   OH2 8314   5.216   1.608   1.668 -0.0629  0.3364  0.6062
 2794TIP3    H1 8315   5.123   1.597   1.688 -0.6713  1.3142 -1.5746
 2794TIP3    H2 8316   5.239   1.530   1.619  0.1099  0.4176  0.5592
 2795TIP3   OH2 8317   3.355   1.127   3.396 -0.2649 -0.3121 -0.1517
 2795TIP3    H1 8318   3.289   1.161   3.335 -2.5221 -1.3592  1.6300
 2795TIP3    H2 8319   3.406   1.065   3.344 -1.3413 -0.2544 -1.3175
 2796TIP3   OH2 8320   4.557   1.363   2.037  0.2122 -0.2434  0.1148
 2796TIP3    H1 8321   4.508   1.426   1.985  0.5993  0.4335  0.5622
 2796TIP3    H2 8322   4.582   1.295   1.975 -1.2308 -0.5632 -0.1201
 2797TIP3   OH2 8323   4.966   1.623   3.485 -0.6821  0.3803  0.1345
 2797TIP3    H1 8324   4.960   1.714   3.455  0.2986  0.7756  1.1017
 2797TIP3    H2 8325   4.906   1.617   3.559 -1.4097 -0.0015 -0.4783
 2798TIP3   OH2 8326   2.334   3.490   2.824  0.7082  0.5120 -0.2645
 2798TIP3    H1 8327   2.380   3.480   2.741  1.0960 -0.7891  0.1025
 2798TIP3    H2 8328   2.378   3.430   2.884 -0.1414  0.7770  0.6495
 2799TIP3   OH2 8329   3.245   2.345   2.794 -0.1025  0.1556 -0.2988
 2799TIP3    H1 8330   3.153   2.335   2.769  0.3896  0.7805 -2.5490
 2799TIP3    H2 8331   3.272   2.258   2.823 -1.2393 -0.1663 -0.1737
 2800TIP3   OH2 8332   5.833   2.225   4.677 -0.7402  0.0978  0.6384
 2800TIP3    H1 8333   5.883   2.144   4.687  1.1119  0.9699 -1.1453
 2800TIP3    H2 8334   5.896   2.294   4.698 -2.0097  1.1175  1.1339
 2801TIP3   OH2 8335   5.571   0.619   1.856  0.1252  0.2422  0.0429
 2801TIP3    H1 8336   5.477   0.601   1.847  0.7931 -1.7576 -3.5548
 2801TIP3    H2 8337   5.590   0.597   1.947 -2.6783 -0.2666  0.5671
 2802TIP3   OH2 8338   6.212   1.634   0.958 -0.8937  0.2613  0.0380
 2802TIP3    H1 8339   6.142   1.692   0.928  0.9017  3.1829  1.2283
 2802TIP3    H2 8340   6.173   1.586   1.031 -3.0052 -1.5295 -2.1807
 2803TIP3   OH2 8341   5.191   1.519   3.160 -0.0553  0.0467 -0.4075
 2803TIP3    H1 8342   5.178   1.426   3.142 -0.6842  0.0820 -0.1451
 2803TIP3    H2 8343   5.105   1.558   3.148 -0.1285  0.3411  1.0183
 2804TIP3   OH2 8344   3.216   2.196   3.447  0.0281  0.0041  0.4373
 2804TIP3    H1 8345   3.279   2.202   3.375 -0.5323  0.0133 -0.0567
 2804TIP3    H2 8346   3.248   2.257   3.512  0.0684  0.6310 -0.1658
 2805TIP3   OH2 8347   3.956   1.211   2.114 -0.6535  0.4177 -0.1633
 2805TIP3    H1 8348   3.908   1.172   2.187  0.7867  0.1694  0.6769
 2805TIP3    H2 8349   3.907   1.184   2.036 -0.8633 -1.3469  0.5530
 2806TIP3   OH2 8350   6.506   2.603   3.642  0.6788 -0.2246 -0.1052
 2806TIP3    H1 8351   6.442   2.672   3.662  1.0422  0.0090  0.2484
 2806TIP3    H2 8352   6.549   2.633   3.562  0.3722 -0.3614 -0.3200
 2807TIP3   OH2 8353   4.025   1.573   1.676 -0.2368  0.3806  0.0911
 2807TIP3    H1 8354   4.055   1.559   1.586 -0.8665 -0.8052  0.0520
 2807TIP3    H2 8355   3.929   1.575   1.669 -0.3558 -1.3037  0.9293
 2808TIP3   OH2 8356   2.315   2.267   5.214  0.2529  0.5727 -0.2478
 2808TIP3    H1 8357   2.322   2.354   5.176  0.0944  0.0668 -1.4471
 2808TIP3    H2 8358   2.402   2.249   5.249  0.3198  1.1561 -0.1140
 2809TIP3   OH2 8359   3.627   0.866   4.243  0.3969 -0.0861  0.2465
 2809TIP3    H1 8360   3.661   0.803   4.306 -1.4881 -0.7622  0.6288
 2809TIP3    H2 8361   3.703   0.918   4.218  1.5915 -1.1953  1.4511
 2810TIP3   OH2 8362   4.568   0.769   3.692  0.0839  0.0912 -0.0078
 2810TIP3    H1 8363   4.635   0.700   3.697  0.6253  0.6179  0.1137
 2810TIP3    H2 8364   4.485   0.722   3.695  0.4521 -0.6116 -0.6961
 2811TIP3   OH2 8365   4.969   0.429   1.709  0.0889 -0.2765 -0.0838
 2811TIP3    H1 8366   4.949   0.380   1.789  1.9401  1.1396  1.2932
 2811TIP3    H2 8367   4.884   0.447   1.671 -0.8739 -0.4005  1.9248
 2812TIP3   OH2 8368   3.413   0.626   5.353  0.0569 -0.6455 -0.1570
 2812TIP3    H1 8369   3.441   0.709   5.316  0.8450 -0.6500  0.4420
 2812TIP3    H2 8370   3.462   0.560   5.303  2.5139 -0.5912  2.0662
 2813TIP3   OH2 8371   7.423   2.514   3.850  0.4854 -0.4569 -0.9195
 2813TIP3    H1 8372   7.474   2.557   3.781  0.3058 -2.1161 -2.1333
 2813TIP3    H2 8373   7.334   2.510   3.815  0.1011 -0.0587  0.0093
 2814TIP3   OH2 8374   3.475   0.988   3.203  0.0459  0.1133  0.3766
 2814TIP3    H1 8375   3.492   1.069   3.154 -0.6883  0.2881  0.4115
 2814TIP3    H2 8376   3.447   0.925   3.136  2.4307 -0.6770  0.0659
 2815TIP3   OH2 8377   5.127   3.649   3.633  0.1995  0.1237 -0.0193
 2815TIP3    H1 8378   5.177   3.576   3.668  0.2027  0.0445 -0.1915
 2815TIP3    H2 8379   5.193   3.706   3.592  0.0291 -0.4916 -1.1540
 2816TIP3   OH2 8380   3.524   1.802   1.828  0.4252 -0.1056 -0.2721
 2816TIP3    H1 8381   3.518   1.739   1.900 -0.2052 -1.1189 -1.1891
 2816TIP3    H2 8382   3.618   1.813   1.813  0.6202  1.4495  1.8255
 2817TIP3   OH2 8383   5.373   3.737   2.008 -0.1668 -0.5349 -0.6797
 2817TIP3    H1 8384   5.408   3.659   2.050 -0.0215 -0.4396 -0.6242
 2817TIP3    H2 8385   5.450   3.790   1.988 -0.3331  0.0267  0.1521
 2818TIP3   OH2 8386   6.398   2.417   1.698 -0.1421  0.1473  0.6831
 2818TIP3    H1 8387   6.417   2.370   1.779  0.3590 -1.2313 -0.2018
 2818TIP3    H2 8388   6.308   2.393   1.676  0.4988 -1.3998 -0.3875
 2819TIP3   OH2 8389   3.449   7.256   4.736 -0.6888 -0.3717 -0.3339
 2819TIP3    H1 8390   3.467   7.186   4.674 -0.3196 -0.6151  0.0424
 2819TIP3    H2 8391   3.530   7.265   4.786 -0.4519  0.8969 -0.9294
 2820TIP3   OH2 8392   4.067   1.915   4.285  0.2239 -0.3437  0.3305
 2820TIP3    H1 8393   4.003   1.981   4.310 -0.8043 -1.6787  1.3092
 2820TIP3    H2 8394   4.023   1.832   4.303  1.1396 -1.3137 -1.7052
 2821TIP3   OH2 8395   6.820   4.634   3.558 -0.5254  0.2231 -0.3998
 2821TIP3    H1 8396   6.907   4.614   3.593 -0.5840  0.8579  0.1152
 2821TIP3    H2 8397   6.798   4.559   3.503 -0.5487 -0.8984  1.1099
 2822TIP3   OH2 8398   4.545   3.334   4.307 -0.1565  0.5007 -0.1673
 2822TIP3    H1 8399   4.542   3.430   4.299  0.0164  0.6325  1.1478
 2822TIP3    H2 8400   4.493   3.302   4.234  0.8438  1.5685 -1.3728
 2823TIP3   OH2 8401   3.603   1.673   2.136  0.0804 -0.2241  0.5588
 2823TIP3    H1 8402   3.628   1.622   2.213  1.7345  0.4673  0.5030
 2823TIP3    H2 8403   3.622   1.764   2.160  0.0717  0.0576 -0.4501
 2824TIP3   OH2 8404   4.964   2.800   2.394  0.0005 -0.5369 -0.3005
 2824TIP3    H1 8405   4.995   2.888   2.415  0.6540 -0.2985 -2.2466
 2824TIP3    H2 8406   5.037   2.743   2.416  0.0411 -0.4751 -0.2717
 2825TIP3   OH2 8407   4.784   3.371   1.856  0.0838 -0.0869 -0.0531
 2825TIP3    H1 8408   4.865   3.333   1.890  1.9476  2.9775 -0.8324
 2825TIP3    H2 8409   4.763   3.442   1.917 -0.4337  0.9556 -1.4142
 2826TIP3   OH2 8410   5.752   3.636   1.022 -0.0984 -0.1563 -0.8383
 2826TIP3    H1 8411   5.814   3.632   0.949 -0.3306 -0.0537 -1.0406
 2826TIP3    H2 8412   5.692   3.707   0.999 -1.0362 -1.0742 -1.2317
 2827TIP3   OH2 8413   5.649   3.185   4.748 -0.2689  0.8111 -0.2314
 2827TIP3    H1 8414   5.652   3.247   4.675 -2.3955  0.2763 -0.8144
 2827TIP3    H2 8415   5.601   3.231   4.817 -0.7087  0.2925 -0.1900
 2828TIP3   OH2 8416   5.589   1.325   3.990 -0.5263  0.2283  0.0246
 2828TIP3    H1 8417   5.506   1.287   3.963 -0.3821  0.5875 -0.9420
 2828TIP3    H2 8418   5.579   1.419   3.974 -0.3251  0.4036  0.9250
 2829TIP3   OH2 8419   3.923   0.812   2.380  0.6723 -0.1552 -0.6206
 2829TIP3    H1 8420   3.878   0.863   2.448 -0.0080  0.6299 -1.6455
 2829TIP3    H2 8421   4.012   0.848   2.379 -0.1067  1.8308 -2.1157
 2830TIP3   OH2 8422   0.847   7.846   3.339  0.4522  0.1194  0.2037
 2830TIP3    H1 8423   0.882   7.919   3.389 -2.5456  1.8918 -0.1520
 2830TIP3    H2 8424   0.837   7.880   3.250 -2.0190 -0.3067  0.2706
 2831TIP3   OH2 8425   5.274   2.484   5.514 -0.0100 -0.4508  0.4498
 2831TIP3    H1 8426   5.250   2.552   5.577 -1.7160 -0.5771 -0.0644
 2831TIP3    H2 8427   5.328   2.530   5.449  0.6239 -0.0462  1.2443
 2832TIP3   OH2 8428   2.985   0.549   5.016  0.2052  0.4061 -0.6347
 2832TIP3    H1 8429   3.047   0.567   5.086  0.1867 -0.2859 -0.4363
 2832TIP3    H2 8430   2.952   0.635   4.990  0.8465  0.7334 -0.3795
 2833TIP3   OH2 8431   0.540   7.062   2.996 -0.3016 -0.5575  0.1809
 2833TIP3    H1 8432   0.604   7.043   2.927 -0.6741  1.4702 -0.7574
 2833TIP3    H2 8433   0.573   7.141   3.038 -1.8027  0.0690  0.1915
 2834TIP3   OH2 8434   4.855   0.269   3.914  0.1775 -0.2449 -0.0718
 2834TIP3    H1 8435   4.876   0.261   3.821 -1.0590 -1.4617 -0.2485
 2834TIP3    H2 8436   4.784   0.333   3.917 -0.0120 -0.4562 -0.0065
 2835TIP3   OH2 8437   5.311   2.641   0.992  0.5943  0.0276 -0.0534
 2835TIP3    H1 8438   5.312   2.694   0.913  0.2667  0.7121  0.3917
 2835TIP3    H2 8439   5.255   2.566   0.970 -1.8241  1.6264  0.3972
 2836TIP3   OH2 8440   3.020   2.022   1.886  0.0469 -0.1300 -0.2285
 2836TIP3    H1 8441   2.927   2.010   1.867 -0.3005 -0.5576  1.6496
 2836TIP3    H2 8442   3.026   2.110   1.924  0.2500 -0.5095  0.6224
 2837TIP3   OH2 8443   3.062   0.548   2.650 -0.1086 -0.3270  0.0132
 2837TIP3    H1 8444   2.978   0.581   2.683 -0.0285 -0.8150  0.7370
 2837TIP3    H2 8445   3.110   0.627   2.624 -1.2642 -0.1362 -1.5714
 2838TIP3   OH2 8446   5.367   3.444   2.336  0.2386 -0.4490  0.1594
 2838TIP3    H1 8447   5.347   3.483   2.421 -0.8687 -1.0813  0.1956
 2838TIP3    H2 8448   5.372   3.350   2.353  0.3145 -0.5501 -0.4186
 2839TIP3   OH2 8449   5.521   3.056   2.550  0.1303  0.3274 -0.0841
 2839TIP3    H1 8450   5.584   3.100   2.609 -1.3569  0.6388  1.3166
 2839TIP3    H2 8451   5.470   2.999   2.608  0.8580 -1.9487 -1.6239
 2840TIP3   OH2 8452   0.536   0.902   3.123 -0.9741 -0.3195  0.3219
 2840TIP3    H1 8453   0.565   0.815   3.152  0.9100  0.3758  0.5982
 2840TIP3    H2 8454   0.592   0.923   3.049 -0.5355  1.1881  1.0449
 2841TIP3   OH2 8455   1.842   7.324   3.305  0.0618 -0.1051  0.3908
 2841TIP3    H1 8456   1.899   7.397   3.330  0.7628 -0.8702  1.0320
 2841TIP3    H2 8457   1.765   7.367   3.267  0.8563  0.9422 -0.0617
 2842TIP3   OH2 8458   8.267   7.607   3.913 -0.1535 -0.1081 -0.1225
 2842TIP3    H1 8459   8.240   7.621   3.822  0.0356  4.3827  0.4211
 2842TIP3    H2 8460   8.362   7.599   3.909 -0.0684  0.8995 -0.2553
 2843TIP3   OH2 8461   3.776   5.002   0.565 -0.5173 -0.0139  0.0408
 2843TIP3    H1 8462   3.839   5.054   0.615 -0.0249  0.3375 -0.9328
 2843TIP3    H2 8463   3.691   5.038   0.589 -0.2259  0.7640 -0.0731
 2844TIP3   OH2 8464   5.858   1.306   3.216  0.9451  0.0820  0.0331
 2844TIP3    H1 8465   5.810   1.361   3.278 -1.0724 -0.7588 -0.7224
 2844TIP3    H2 8466   5.874   1.224   3.264 -0.1111 -0.3559 -0.3452
 2845TIP3   OH2 8467   5.349   1.086   3.269  0.3074  0.0151 -0.3468
 2845TIP3    H1 8468   5.275   1.139   3.239 -0.5691 -0.9299  0.1480
 2845TIP3    H2 8469   5.318   1.044   3.349  0.3305 -2.7440 -1.7197
 2846TIP3   OH2 8470   6.010   1.850   0.885 -0.0633 -0.2201 -0.0789
 2846TIP3    H1 8471   5.932   1.901   0.907 -0.2831 -0.5041 -0.2079
 2846TIP3    H2 8472   6.056   1.905   0.821 -1.4018 -1.1521 -1.8666
 2847TIP3   OH2 8473   5.058   1.004   3.101  0.6322  0.1094 -0.1126
 2847TIP3    H1 8474   5.023   0.955   3.026 -0.5590 -0.0451  0.5195
 2847TIP3    H2 8475   5.022   0.959   3.178 -0.8771  2.2161  0.4860
 2848TIP3   OH2 8476   4.235   4.950   3.619 -0.3651  0.1117  0.2344
 2848TIP3    H1 8477   4.271   4.993   3.696 -0.1420 -0.9930  0.7499
 2848TIP3    H2 8478   4.162   5.006   3.592  0.5537  1.3608  0.2884
 2849TIP3   OH2 8479   6.129   1.921   2.868  0.0579 -0.2239  0.0016
 2849TIP3    H1 8480   6.161   1.991   2.810 -0.4417  1.0051  1.1727
 2849TIP3    H2 8481   6.069   1.966   2.928  0.5785 -1.4679  1.4783
 2850TIP3   OH2 8482   7.297   2.240   3.207 -0.0186 -0.2466  0.6165
 2850TIP3    H1 8483   7.354   2.286   3.145 -1.6801 -0.8667 -1.4071
 2850TIP3    H2 8484   7.345   2.244   3.290  2.9698 -0.6907 -1.0051
 2851TIP3   OH2 8485   3.519   2.026   1.387 -0.3697  0.3401  0.7387
 2851TIP3    H1 8486   3.541   1.943   1.346  2.3464  0.7054  1.3359
 2851TIP3    H2 8487   3.431   2.013   1.423 -0.4589 -1.8535 -0.1953
 2852TIP3   OH2 8488   5.766   1.796   4.185 -0.5915 -0.2873  0.1521
 2852TIP3    H1 8489   5.790   1.889   4.189  1.8846 -0.7910 -1.7337
 2852TIP3    H2 8490   5.791   1.762   4.271  0.6649  0.3245  0.0536
 2853TIP3   OH2 8491   4.247   3.932   2.444 -0.3221 -0.2499 -0.5537
 2853TIP3    H1 8492   4.188   3.964   2.512  1.3460 -0.1678  0.8971
 2853TIP3    H2 8493   4.220   3.842   2.428  0.0437 -0.6775  1.1305
 2854TIP3   OH2 8494   5.260   1.472   2.564  0.0113  0.4970  0.2687
 2854TIP3    H1 8495   5.215   1.436   2.488  0.4375  0.0684  0.2154
 2854TIP3    H2 8496   5.353   1.463   2.543  0.1298  0.4313  0.8145
 2855TIP3   OH2 8497   8.342   0.919   1.706 -0.3653  0.8567  0.9745
 2855TIP3    H1 8498   8.327   0.979   1.633 -0.2066  0.6966  0.8088
 2855TIP3    H2 8499   8.258   0.917   1.752 -0.9240 -0.1687 -0.0486
 2856TIP3   OH2 8500   5.290   4.242   2.606  0.3244 -0.3441 -0.5547
 2856TIP3    H1 8501   5.249   4.230   2.692  1.1455 -0.8553 -0.2303
 2856TIP3    H2 8502   5.234   4.192   2.546 -0.5122  0.3932 -0.3995
 2857TIP3   OH2 8503   5.071   1.879   3.105  0.3097 -0.0787  0.0626
 2857TIP3    H1 8504   5.166   1.880   3.103  0.2927  0.2885 -0.5328
 2857TIP3    H2 8505   5.045   1.845   3.019 -0.0637 -1.9388  0.9029
 2858TIP3   OH2 8506   7.639   2.263   0.938 -0.4455  0.0905 -0.2337
 2858TIP3    H1 8507   7.660   2.293   0.849 -0.0677 -0.4254 -0.3154
 2858TIP3    H2 8508   7.709   2.300   0.992 -0.7883  0.5785 -0.1134
 2859TIP3   OH2 8509   5.041   3.259   1.915 -0.1568 -0.4945 -0.0832
 2859TIP3    H1 8510   5.094   3.227   1.988 -1.9292  2.3443  2.6136
 2859TIP3    H2 8511   5.089   3.335   1.882 -0.3717 -0.5438 -0.5050
 2860TIP3   OH2 8512   5.710   2.274   1.326 -0.3824 -0.2289 -0.1498
 2860TIP3    H1 8513   5.672   2.325   1.398  1.5219  1.0411 -0.0176
 2860TIP3    H2 8514   5.663   2.190   1.330 -3.7365  1.5518 -0.5502
 2861TIP3   OH2 8515   6.092   3.299   3.888  0.2091 -0.5709 -0.0664
 2861TIP3    H1 8516   6.089   3.280   3.795  2.4747 -1.0042 -0.0764
 2861TIP3    H2 8517   6.127   3.219   3.928 -0.8061 -0.4248  1.1641
 2862TIP3   OH2 8518   5.811   2.866   3.034 -0.0166 -0.7926 -0.8207
 2862TIP3    H1 8519   5.724   2.842   3.065 -0.0440  0.9412  0.4700
 2862TIP3    H2 8520   5.868   2.795   3.066 -0.6151 -0.8489  0.1282
 2863TIP3   OH2 8521   5.290   1.550   3.760  0.1830  0.4554 -0.6327
 2863TIP3    H1 8522   5.294   1.569   3.666  0.4693 -1.0228 -0.9424
 2863TIP3    H2 8523   5.380   1.564   3.790 -0.0203  1.4239 -0.4777
 2864TIP3   OH2 8524   4.863   2.446   2.707  0.2153 -0.2529  0.2976
 2864TIP3    H1 8525   4.833   2.355   2.712 -0.3545 -0.1048 -0.3526
 2864TIP3    H2 8526   4.948   2.441   2.664  0.6128 -0.5666  1.1089
 2865TIP3   OH2 8527   0.631   1.219   2.926 -0.2036 -0.7108 -0.1360
 2865TIP3    H1 8528   0.641   1.247   2.835 -0.6021  0.6035  0.2057
 2865TIP3    H2 8529   0.690   1.144   2.935  1.1274  0.1952 -1.0284
 2866TIP3   OH2 8530   6.587   1.067   1.955 -0.9176  0.2830 -0.5720
 2866TIP3    H1 8531   6.603   1.096   1.866  1.2841 -0.8955 -0.5932
 2866TIP3    H2 8532   6.643   1.124   2.009 -1.0771 -0.0070 -0.0976
 2867TIP3   OH2 8533   5.327   3.495   4.037  0.8340 -0.3551 -0.2148
 2867TIP3    H1 8534   5.419   3.493   4.065  1.1238  1.5050 -0.9313
 2867TIP3    H2 8535   5.286   3.558   4.097  0.1923 -0.6391 -0.3550
 2868TIP3   OH2 8536   3.985   1.591   1.377 -0.4209  0.3451 -0.1055
 2868TIP3    H1 8537   3.917   1.527   1.353  1.0405 -1.1203 -0.4458
 2868TIP3    H2 8538   4.000   1.642   1.298 -0.1800 -0.2144 -0.4191
 2869TIP3   OH2 8539   6.535   0.606   2.628 -0.2156 -0.1793 -0.4262
 2869TIP3    H1 8540   6.492   0.645   2.704 -1.1673  0.4474 -1.2764
 2869TIP3    H2 8541   6.626   0.635   2.634  0.4843 -2.6185  2.1397
 2870TIP3   OH2 8542   8.094   0.465   2.124 -0.4586  0.0903  0.1096
 2870TIP3    H1 8543   8.168   0.411   2.153 -0.9523 -0.5648  0.1526
 2870TIP3    H2 8544   8.031   0.403   2.089 -0.5104  0.7546 -0.9894
 2871TIP3   OH2 8545   5.382   2.631   2.454 -0.0042 -0.3066  0.0890
 2871TIP3    H1 8546   5.378   2.535   2.451 -0.0034 -0.2828 -1.0516
 2871TIP3    H2 8547   5.373   2.652   2.547  1.1327 -1.4531  0.4782
 2872TIP3   OH2 8548   5.398   4.991   3.630 -0.2525  0.1226  0.1540
 2872TIP3    H1 8549   5.443   4.909   3.651 -1.2476 -0.7862 -1.1939
 2872TIP3    H2 8550   5.386   4.989   3.535  1.3268  2.6861 -0.1579
 2873TIP3   OH2 8551   5.890   4.296   1.000  0.2412 -0.8856  0.5823
 2873TIP3    H1 8552   5.963   4.331   0.950  0.6262 -2.5599 -0.0893
 2873TIP3    H2 8553   5.817   4.294   0.937 -0.1530 -0.0077  1.0077
 2874TIP3   OH2 8554   6.589   1.478   3.936  0.1273 -0.3727 -0.4717
 2874TIP3    H1 8555   6.662   1.462   3.997 -0.4895  1.0647  0.6699
 2874TIP3    H2 8556   6.515   1.432   3.975 -0.2515  0.4847 -0.1904
 2875TIP3   OH2 8557   0.145   1.018   2.304 -0.2889  0.4366  0.5749
 2875TIP3    H1 8558   0.142   1.020   2.208 -0.9587  1.1537  0.6069
 2875TIP3    H2 8559   0.235   0.992   2.324 -0.4592 -0.8297 -0.2520
 2876TIP3   OH2 8560   7.167   1.975   3.400 -0.6763 -0.0092 -0.2882
 2876TIP3    H1 8561   7.232   2.044   3.405 -1.2621  0.4372  1.5383
 2876TIP3    H2 8562   7.215   1.895   3.422  0.0429 -0.2573 -2.5898
 2877TIP3   OH2 8563   6.012   3.225   0.742 -0.0644 -0.7728 -0.0605
 2877TIP3    H1 8564   5.918   3.233   0.732  0.0570 -1.0440 -1.6485
 2877TIP3    H2 8565   6.034   3.143   0.698  0.8905 -0.7838  0.4165
 2878TIP3   OH2 8566   6.688   2.842   1.189  0.3796  0.3472 -0.3565
 2878TIP3    H1 8567   6.666   2.786   1.263 -0.7942  1.6061  0.2677
 2878TIP3    H2 8568   6.713   2.925   1.228  2.0642  0.3112 -1.2745
 2879TIP3   OH2 8569   1.409   2.456   3.452  0.0124  0.1057  0.3975
 2879TIP3    H1 8570   1.467   2.434   3.525  1.3099  0.5164 -0.4940
 2879TIP3    H2 8571   1.363   2.535   3.481  1.4826  1.0202  0.2592
 2880TIP3   OH2 8572   8.377   0.399   1.386 -0.2304 -0.2122 -0.6396
 2880TIP3    H1 8573   8.302   0.347   1.357 -0.7545  1.3928 -2.2537
 2880TIP3    H2 8574   8.352   0.429   1.473 -0.2452 -2.0094 -0.0038
 2881TIP3   OH2 8575   8.066   0.576   2.654 -0.2839  0.3972  0.1787
 2881TIP3    H1 8576   8.068   0.670   2.634 -0.8404  0.6486  1.2531
 2881TIP3    H2 8577   8.051   0.573   2.748  0.9740 -0.7645  0.3414
 2882TIP3   OH2 8578   7.362   1.038   2.171 -0.1711 -0.7840  0.1682
 2882TIP3    H1 8579   7.331   0.961   2.123  2.5216 -2.6106  1.2115
 2882TIP3    H2 8580   7.434   1.005   2.226  1.4352  2.5836  0.2370
 2883TIP3   OH2 8581   6.653   3.267   1.833 -0.2334 -0.6180 -0.1301
 2883TIP3    H1 8582   6.602   3.210   1.891 -1.8931 -1.2828 -2.1895
 2883TIP3    H2 8583   6.590   3.332   1.802  1.6612  2.5333  2.2946
 2884TIP3   OH2 8584   7.112   2.849   2.654  0.2825  0.4194 -0.5793
 2884TIP3    H1 8585   7.104   2.778   2.718 -1.3477 -0.2570 -1.4966
 2884TIP3    H2 8586   7.076   2.925   2.699  0.2897  0.2361 -0.2588
 2885TIP3   OH2 8587   4.304   3.237   2.201  0.1772 -0.2820 -0.5192
 2885TIP3    H1 8588   4.345   3.264   2.284  1.5496 -1.9691 -0.6328
 2885TIP3    H2 8589   4.287   3.319   2.155 -0.1463  0.6465  1.2220
 2886TIP3   OH2 8590   3.470   0.238   2.254  0.1369  0.0088 -0.3920
 2886TIP3    H1 8591   3.388   0.239   2.205  0.7699 -0.1091 -1.4869
 2886TIP3    H2 8592   3.473   0.323   2.297 -0.8873 -0.2608  0.2188
 2887TIP3   OH2 8593   4.658   0.663   2.153  0.4799 -0.7840  0.1339
 2887TIP3    H1 8594   4.689   0.692   2.238 -0.5741  0.8476 -0.0310
 2887TIP3    H2 8595   4.640   0.569   2.165 -1.4768 -0.1757  2.2328
 2888TIP3   OH2 8596   1.477   2.276   1.309  0.0610  0.8362 -0.0083
 2888TIP3    H1 8597   1.461   2.270   1.403  1.7131 -3.7164  0.0608
 2888TIP3    H2 8598   1.391   2.265   1.269 -0.4404  1.3448  0.9191
 2889TIP3   OH2 8599   6.971   2.319   1.663  0.2479  0.4574  0.0688
 2889TIP3    H1 8600   6.879   2.332   1.688 -0.0399 -1.3300 -0.0308
 2889TIP3    H2 8601   7.003   2.252   1.724  2.0534  2.4473  1.3649
 2890TIP3   OH2 8602   7.021   0.383   1.518 -0.3593 -0.1213  0.2817
 2890TIP3    H1 8603   7.014   0.463   1.467  0.7601  0.7538  1.4704
 2890TIP3    H2 8604   7.007   0.411   1.609  1.9427 -0.9301  0.9206
 2891TIP3   OH2 8605   6.249   1.975   3.571 -1.0853  1.1071 -0.3285
 2891TIP3    H1 8606   6.305   2.042   3.531  1.2162 -0.4091  0.2369
 2891TIP3    H2 8607   6.285   1.964   3.659 -1.9569 -0.2615 -0.1298
 2892TIP3   OH2 8608   5.644   1.706   1.754 -0.0510 -0.1221 -0.4005
 2892TIP3    H1 8609   5.603   1.623   1.779 -1.0197  0.2656 -0.6675
 2892TIP3    H2 8610   5.729   1.681   1.718 -0.1186 -0.9570  0.0091
 2893TIP3   OH2 8611   2.124   3.262   1.280 -0.4516 -0.0482 -0.2808
 2893TIP3    H1 8612   2.079   3.277   1.363 -1.7249  0.3284 -1.0248
 2893TIP3    H2 8613   2.216   3.282   1.298 -1.1946  3.1964  0.2107
 2894TIP3   OH2 8614   7.076   3.895   3.312  0.2233  0.2140 -0.0365
 2894TIP3    H1 8615   6.984   3.918   3.321  0.1034 -0.1766 -0.2384
 2894TIP3    H2 8616   7.101   3.931   3.227  0.2812  0.4020  0.0604
 2895TIP3   OH2 8617   3.701   2.203   2.478  0.8861 -0.4032 -0.3703
 2895TIP3    H1 8618   3.726   2.113   2.457 -0.2019 -0.7766 -0.0994
 2895TIP3    H2 8619   3.680   2.201   2.571 -2.2160 -0.6017 -1.0140
 2896TIP3   OH2 8620   5.506   2.887   1.766  0.4034  0.0704 -0.0138
 2896TIP3    H1 8621   5.494   2.863   1.858  0.9337 -2.0550 -0.4556
 2896TIP3    H2 8622   5.418   2.904   1.734 -0.2943 -3.3422 -0.1363
 2897TIP3   OH2 8623   6.610   2.839   1.644 -0.4764  0.2656  0.2811
 2897TIP3    H1 8624   6.619   2.918   1.590 -2.6975  0.0934 -0.4110
 2897TIP3    H2 8625   6.643   2.864   1.730 -0.3778  1.6961 -0.1636
 2898TIP3   OH2 8626   3.927   1.594   1.093  0.0434 -0.1540 -0.2485
 2898TIP3    H1 8627   3.911   1.577   1.000  0.4792 -2.4996  0.0798
 2898TIP3    H2 8628   4.022   1.590   1.102 -0.0538 -1.1059  0.4789
 2899TIP3   OH2 8629   5.211   3.466   1.872 -0.2649  0.0908  0.3699
 2899TIP3    H1 8630   5.224   3.480   1.966  1.7195  0.8220  0.0177
 2899TIP3    H2 8631   5.298   3.444   1.839 -0.7224  0.9065 -1.4689
 2900TIP3   OH2 8632   5.451   3.741   3.853  0.0452 -0.2124  0.1261
 2900TIP3    H1 8633   5.448   3.645   3.847  0.8147 -0.2809  0.9144
 2900TIP3    H2 8634   5.543   3.762   3.862 -0.0003  0.6891 -1.2490
 2901TIP3   OH2 8635   4.765   2.019   2.990 -0.1475 -0.0583 -0.4476
 2901TIP3    H1 8636   4.816   1.943   2.963 -1.1483 -1.3637  1.2228
 2901TIP3    H2 8637   4.764   2.076   2.913  0.4588 -1.8207 -1.7936
 2902TIP3   OH2 8638   5.338   0.705   0.895 -0.0613  0.3177 -0.6411
 2902TIP3    H1 8639   5.360   0.690   0.804 -3.4757 -3.1390 -1.0344
 2902TIP3    H2 8640   5.258   0.758   0.892  0.2674  0.8918  0.3713
 2903TIP3   OH2 8641   6.251   3.090   4.331  0.7246 -1.3285 -0.8814
 2903TIP3    H1 8642   6.314   3.102   4.402 -1.4700  0.9413  0.7719
 2903TIP3    H2 8643   6.181   3.038   4.369  0.1541 -1.2393 -1.7893
 2904TIP3   OH2 8644   5.010   1.218   1.713  0.0110 -0.1750  0.0927
 2904TIP3    H1 8645   4.967   1.219   1.798 -0.2198  0.7770 -0.0249
 2904TIP3    H2 8646   4.992   1.305   1.677  0.2723 -0.5058 -0.8400
 2905TIP3   OH2 8647   0.391   6.570   6.910  0.3980 -0.0239  0.5665
 2905TIP3    H1 8648   0.374   6.487   6.954 -0.2729  0.0026  0.3683
 2905TIP3    H2 8649   0.457   6.549   6.844 -1.4955 -0.9128 -1.0738
 2906TIP3   OH2 8650   3.896   0.415   0.024  0.0572 -0.1046 -0.0507
 2906TIP3    H1 8651   3.902   0.326  -0.010 -1.2022 -0.2162 -0.0030
 2906TIP3    H2 8652   3.985   0.437   0.050  0.1599 -1.8009  1.0716
 2907TIP3   OH2 8653   5.352   0.885   3.820 -0.1752  0.2381 -0.0162
 2907TIP3    H1 8654   5.379   0.857   3.732  2.0938  0.7056  0.5022
 2907TIP3    H2 8655   5.342   0.803   3.869  1.4747  0.0687  0.0826
 2908TIP3   OH2 8656   6.657   1.785   0.747 -0.1102 -0.1938 -0.2674
 2908TIP3    H1 8657   6.738   1.760   0.792 -0.4160  1.0690  0.9964
 2908TIP3    H2 8658   6.590   1.784   0.815 -0.6874  1.2109 -0.7910
 2909TIP3   OH2 8659   0.130   3.307   2.727  0.6662  0.2343  0.2720
 2909TIP3    H1 8660   0.114   3.397   2.754  1.9127  0.5145  0.0983
 2909TIP3    H2 8661   0.179   3.268   2.799 -1.3587 -0.8350  1.1224
 2910TIP3   OH2 8662   6.518   1.408   2.856  0.0152  0.0439  0.0470
 2910TIP3    H1 8663   6.581   1.462   2.809 -1.2017  1.3847 -0.0940
 2910TIP3    H2 8664   6.433   1.446   2.834 -0.9794 -2.6757 -1.0034
 2911TIP3   OH2 8665   2.923   6.984   4.026 -0.1017 -0.3333  0.1464
 2911TIP3    H1 8666   2.866   6.926   3.977  1.0606 -0.9083 -0.5438
 2911TIP3    H2 8667   2.872   7.007   4.104 -1.4505 -0.4444 -0.6867
 2912TIP3   OH2 8668   2.864   3.597   1.692 -0.5025  0.7642 -0.2032
 2912TIP3    H1 8669   2.842   3.592   1.785  0.5865 -0.9214 -0.0321
 2912TIP3    H2 8670   2.884   3.690   1.677  0.3275  0.8547  1.4602
 2913TIP3   OH2 8671   5.584   1.153   1.956 -0.2335 -0.1312 -0.4666
 2913TIP3    H1 8672   5.579   1.240   1.997  1.6612 -0.0272 -0.4385
 2913TIP3    H2 8673   5.666   1.116   1.987 -0.8053 -1.7608 -0.8571
 2914TIP3   OH2 8674   4.357   0.578   3.593  0.3727  0.0375  0.6436
 2914TIP3    H1 8675   4.289   0.630   3.636  0.0161 -0.0698  0.2142
 2914TIP3    H2 8676   4.312   0.500   3.563  0.4639  0.4230 -0.5391
 2915TIP3   OH2 8677   2.990   1.378   1.327 -0.1248 -0.7711  0.5337
 2915TIP3    H1 8678   3.079   1.383   1.363  0.7412  1.4470 -1.7897
 2915TIP3    H2 8679   2.994   1.306   1.264  0.2378 -0.2013 -0.0999
 2916TIP3   OH2 8680   5.727   3.508   2.921  0.3649 -0.2221 -0.4016
 2916TIP3    H1 8681   5.762   3.547   2.841 -1.8900  3.0964  0.1577
 2916TIP3    H2 8682   5.657   3.450   2.890  0.2419  0.1912 -0.9102
 2917TIP3   OH2 8683   3.957   0.277   1.254  0.2907 -0.1813 -0.4167
 2917TIP3    H1 8684   3.986   0.187   1.246  2.4299  0.2517  1.9051
 2917TIP3    H2 8685   3.883   0.274   1.315  0.7719 -0.2943  0.1633
 2918TIP3   OH2 8686   6.126   1.192   1.885  0.5310  0.7544 -0.2422
 2918TIP3    H1 8687   6.164   1.200   1.797  1.1728 -0.1377 -0.0515
 2918TIP3    H2 8688   6.134   1.099   1.906 -2.9411  0.2408 -0.7432
 2919TIP3   OH2 8689   6.639   1.985   1.373 -0.1600 -0.1534 -0.9398
 2919TIP3    H1 8690   6.632   1.890   1.371  1.2824 -0.2718 -1.2357
 2919TIP3    H2 8691   6.670   2.005   1.461 -1.8331  0.1701 -0.3985
 2920TIP3   OH2 8692   3.584   7.651   1.428 -0.2513  0.0807  0.0235
 2920TIP3    H1 8693   3.658   7.656   1.368 -1.5999 -0.0223 -1.6987
 2920TIP3    H2 8694   3.575   7.558   1.447  0.4622  0.1582  0.7694
 2921TIP3   OH2 8695   5.226   0.427   1.623  0.2446  0.4528 -0.0785
 2921TIP3    H1 8696   5.136   0.445   1.649  0.2446  2.5028 -1.3444
 2921TIP3    H2 8697   5.228   0.333   1.609 -1.5994  0.3206  0.3307
 2922TIP3   OH2 8698   5.729   3.653   3.293  0.4019 -0.6826  0.0388
 2922TIP3    H1 8699   5.822   3.666   3.275  0.1542 -1.4239 -1.9981
 2922TIP3    H2 8700   5.685   3.686   3.214 -0.7469 -4.5007 -1.0628
 2923TIP3   OH2 8701   3.598   1.185   3.511  0.2642 -0.0080 -0.1692
 2923TIP3    H1 8702   3.623   1.094   3.500  0.8572 -0.1443  2.0591
 2923TIP3    H2 8703   3.504   1.181   3.531  0.2714 -0.1280 -0.1578
 2924TIP3   OH2 8704   7.506   1.406   0.940  0.2005 -0.5651  0.8620
 2924TIP3    H1 8705   7.598   1.413   0.968 -0.0396  1.4341  1.2535
 2924TIP3    H2 8706   7.509   1.351   0.862  1.8423  0.1340  0.4004
 2925TIP3   OH2 8707   4.920   0.312   3.637  0.4554  0.4652 -0.1249
 2925TIP3    H1 8708   4.874   0.305   3.553  1.7287  0.9507 -0.8677
 2925TIP3    H2 8709   5.002   0.355   3.616  1.5339 -0.9351  1.0992
 2926TIP3   OH2 8710   4.455   2.922   4.665  0.4332 -0.4128  0.0861
 2926TIP3    H1 8711   4.462   2.904   4.571 -0.2722 -0.1502 -0.0175
 2926TIP3    H2 8712   4.542   2.950   4.690  0.8715 -1.3719 -0.3041
 2927TIP3   OH2 8713   6.035   2.140   3.964  0.0797 -0.6867  0.0595
 2927TIP3    H1 8714   6.111   2.198   3.966 -0.5485  0.1735 -0.5381
 2927TIP3    H2 8715   6.071   2.052   3.976  1.4876 -0.6209 -3.2706
 2928TIP3   OH2 8716   7.365   2.476   0.120  0.4572  0.0421 -0.4515
 2928TIP3    H1 8717   7.443   2.421   0.114  0.2678 -0.3886  0.9052
 2928TIP3    H2 8718   7.297   2.418   0.153 -0.0153  0.8390 -0.0018
 2929TIP3   OH2 8719   6.365   2.140   1.444  0.0034 -0.6278  0.2471
 2929TIP3    H1 8720   6.286   2.189   1.420 -0.0612 -0.0127  1.6524
 2929TIP3    H2 8721   6.435   2.186   1.398 -0.5111 -1.5435 -1.4957
 2930TIP3   OH2 8722   7.912   2.674   2.325 -0.5260  0.1357 -0.0052
 2930TIP3    H1 8723   7.904   2.607   2.393  1.3420  0.4105  0.5001
 2930TIP3    H2 8724   7.847   2.740   2.350 -1.0081 -0.5501  0.5920
 2931TIP3   OH2 8725   4.662   7.017   2.358  0.9191  0.7104 -0.1547
 2931TIP3    H1 8726   4.629   7.106   2.346 -1.2988  0.0802  1.0211
 2931TIP3    H2 8727   4.743   7.027   2.409  0.4326  2.0259  0.3623
 2932TIP3   OH2 8728   5.624   4.289   3.117 -0.8214 -0.1622 -0.4844
 2932TIP3    H1 8729   5.535   4.257   3.131 -1.0576  0.2959 -0.9505
 2932TIP3    H2 8730   5.678   4.233   3.172 -1.3015 -0.9883 -0.8524
 2933TIP3   OH2 8731   4.698   2.844   1.767 -0.1194  0.2313  0.0287
 2933TIP3    H1 8732   4.712   2.864   1.860  1.5266  1.1008 -0.3867
 2933TIP3    H2 8733   4.614   2.885   1.746  0.7870  2.3589  0.4714
 2934TIP3   OH2 8734   4.180   3.430   2.893  0.2446  0.2076 -0.2723
 2934TIP3    H1 8735   4.110   3.374   2.928  2.0856 -1.6495  0.5012
 2934TIP3    H2 8736   4.134   3.493   2.837 -2.1053 -0.6336  0.6560
 2935TIP3   OH2 8737   5.032   4.517   3.145 -0.1238 -0.1576 -0.5646
 2935TIP3    H1 8738   5.097   4.476   3.088  0.4066  1.2677 -0.9906
 2935TIP3    H2 8739   4.948   4.492   3.106  0.1840 -0.9945 -0.7069
 2936TIP3   OH2 8740   6.616   3.684   2.894  0.6381  0.3739  0.0195
 2936TIP3    H1 8741   6.638   3.777   2.896  2.1949  0.0015  0.2763
 2936TIP3    H2 8742   6.547   3.675   2.960 -1.1045  1.7262 -1.5647
 2937TIP3   OH2 8743   0.588   0.597   2.114  0.1567 -0.1917  0.2314
 2937TIP3    H1 8744   0.538   0.595   2.033 -0.0685  1.4546  0.3211
 2937TIP3    H2 8745   0.590   0.505   2.143 -0.7753 -0.6101 -0.9997
 2938TIP3   OH2 8746   8.384   2.833   3.026  0.3655  0.3542 -0.4911
 2938TIP3    H1 8747   8.322   2.793   2.966  1.5771  2.6622 -3.4096
 2938TIP3    H2 8748   8.466   2.785   3.012  0.1532 -0.4181  0.8248
 2939TIP3   OH2 8749   1.939   5.111   6.219 -0.1891  0.7398  0.6177
 2939TIP3    H1 8750   2.022   5.154   6.197 -0.8413  2.1546  0.8327
 2939TIP3    H2 8751   1.961   5.019   6.227  1.4798  1.1773  1.2469
 2940TIP3   OH2 8752   8.135   2.979   0.649 -0.1311 -0.3137  0.1641
 2940TIP3    H1 8753   8.214   2.967   0.597  0.2306  0.7920  0.4512
 2940TIP3    H2 8754   8.124   3.074   0.655 -0.4677 -0.4383  1.6424
 2941TIP3   OH2 8755   4.948   2.516   0.848  0.3358  0.4472 -0.6985
 2941TIP3    H1 8756   4.916   2.606   0.850 -1.0635 -0.0646  0.3722
 2941TIP3    H2 8757   5.010   2.511   0.921  1.8547  1.0521 -1.9214
 2942TIP3   OH2 8758   4.409   2.196   3.297  0.1988 -0.4350 -0.4783
 2942TIP3    H1 8759   4.441   2.189   3.207  1.0602 -1.2200 -0.1099
 2942TIP3    H2 8760   4.354   2.119   3.309 -1.5006  0.6686 -0.9576
 2943TIP3   OH2 8761   5.897   2.110   2.252  0.4020 -0.6062 -0.6091
 2943TIP3    H1 8762   5.864   2.195   2.223 -0.8595  0.8133  4.5311
 2943TIP3    H2 8763   5.828   2.048   2.228 -0.7685  0.5368 -0.2313
 2944TIP3   OH2 8764   7.347   1.919   2.855  0.4026  0.3305 -0.2865
 2944TIP3    H1 8765   7.282   1.975   2.813 -0.2297  0.0393  0.2755
 2944TIP3    H2 8766   7.352   1.841   2.800 -0.9851 -0.3808  0.5687
 2945TIP3   OH2 8767   6.437   6.063   3.761  0.9131  0.1873 -0.7939
 2945TIP3    H1 8768   6.477   6.075   3.847  0.5008  0.7837 -0.6796
 2945TIP3    H2 8769   6.423   6.152   3.729 -0.8169 -0.0124 -0.6004
 2946TIP3   OH2 8770   8.178   1.066   0.209  0.2280 -0.2111 -0.0433
 2946TIP3    H1 8771   8.253   1.125   0.215  0.5206 -0.6371  0.5300
 2946TIP3    H2 8772   8.179   1.035   0.119  1.3917 -1.0698  0.2666
 2947TIP3   OH2 8773   6.920   4.278   2.290 -0.7067  0.1835  0.2683
 2947TIP3    H1 8774   6.951   4.340   2.357 -1.6722  0.7295  0.2055
 2947TIP3    H2 8775   6.943   4.192   2.326 -1.3057  0.4665  1.3648
 2948TIP3   OH2 8776   6.085   3.679   1.685 -0.1181  0.7640 -0.2929
 2948TIP3    H1 8777   6.000   3.718   1.662  0.2814  2.3052  0.7680
 2948TIP3    H2 8778   6.070   3.635   1.768 -1.0062 -2.9351 -2.3148
 2949TIP3   OH2 8779   5.120   2.553   4.065  0.0119  0.4790  0.7233
 2949TIP3    H1 8780   5.076   2.579   4.146 -1.6636 -0.7617  0.2115
 2949TIP3    H2 8781   5.187   2.490   4.093 -1.4901 -1.0137  0.9966
 2950TIP3   OH2 8782   5.932   1.131   2.327 -0.0491  0.0080  0.5387
 2950TIP3    H1 8783   5.984   1.056   2.357 -0.3190  0.2169  1.5418
 2950TIP3    H2 8784   5.995   1.186   2.280  0.1832 -0.7646 -0.0604
 2951TIP3   OH2 8785   5.296   4.144   2.227 -0.5836 -0.0696  0.0292
 2951TIP3    H1 8786   5.321   4.058   2.193 -1.9792 -0.1475 -0.8034
 2951TIP3    H2 8787   5.256   4.125   2.312  0.9571 -0.0579  0.7706
 2952TIP3   OH2 8788   6.651   2.138   2.501  0.9159  0.3430  0.1181
 2952TIP3    H1 8789   6.677   2.050   2.528  1.0881  0.2129 -0.4791
 2952TIP3    H2 8790   6.727   2.192   2.523  0.3257  0.5650  1.6668
 2953TIP3   OH2 8791   7.327   2.264   2.379  0.3354  0.7375  0.8431
 2953TIP3    H1 8792   7.417   2.253   2.348  0.6932  1.8355  1.4709
 2953TIP3    H2 8793   7.311   2.358   2.374 -1.4612  0.3634 -1.1136
 2954TIP3   OH2 8794   4.639   2.351   1.333 -0.7605 -0.5343 -0.6112
 2954TIP3    H1 8795   4.544   2.353   1.347 -0.7071 -0.8049 -0.1967
 2954TIP3    H2 8796   4.676   2.346   1.422 -0.3671 -0.7566 -0.7872
 2955TIP3   OH2 8797   7.613   1.613   2.919 -0.1878 -0.1512 -0.1321
 2955TIP3    H1 8798   7.636   1.691   2.868  1.3360  0.1314  0.9400
 2955TIP3    H2 8799   7.666   1.543   2.881  0.1788 -0.1561  0.3755
 2956TIP3   OH2 8800   5.643   1.350   2.313  0.0494  0.7425 -0.0945
 2956TIP3    H1 8801   5.712   1.354   2.247  1.2968  1.7590  1.2405
 2956TIP3    H2 8802   5.567   1.392   2.272  1.7094  4.1118  0.1503
 2957TIP3   OH2 8803   3.964   1.519   3.485 -0.0095  0.4775 -0.0223
 2957TIP3    H1 8804   3.959   1.582   3.413 -0.6329 -0.4971 -0.8371
 2957TIP3    H2 8805   4.033   1.458   3.459  0.1352  0.4357  0.4574
 2958TIP3   OH2 8806   4.967   1.923   3.371  0.2535 -0.6760 -0.3787
 2958TIP3    H1 8807   4.917   2.002   3.393  0.4046 -1.3732  2.5708
 2958TIP3    H2 8808   5.000   1.940   3.282 -0.0720  2.3825  0.0424
 2959TIP3   OH2 8809   6.841   2.534   2.866 -0.3648 -0.3147 -0.0488
 2959TIP3    H1 8810   6.913   2.471   2.872  0.6335  0.5721 -2.1120
 2959TIP3    H2 8811   6.774   2.490   2.815 -0.8169 -0.7061  0.8698
 2960TIP3   OH2 8812   5.895   1.186   1.544  0.4518  0.1185 -0.2150
 2960TIP3    H1 8813   5.888   1.092   1.559  2.5221  0.0800  0.5817
 2960TIP3    H2 8814   5.831   1.225   1.604 -0.6069 -0.7924 -0.7492
 2961TIP3   OH2 8815   4.619   2.287   3.443  0.0772  0.1944  0.3718
 2961TIP3    H1 8816   4.543   2.258   3.394  0.6548  1.7310 -1.4828
 2961TIP3    H2 8817   4.586   2.308   3.530 -2.3720  4.3327 -1.4036
 2962TIP3   OH2 8818   7.636   2.485   3.272 -0.3814 -0.0181  0.4607
 2962TIP3    H1 8819   7.698   2.506   3.341 -0.4088 -0.6842  0.6895
 2962TIP3    H2 8820   7.562   2.544   3.286 -0.3240 -0.0580  0.9116
 2963TIP3   OH2 8821   7.648   3.255   2.063  0.1878  0.0054  0.2613
 2963TIP3    H1 8822   7.619   3.346   2.074  0.7096  0.1907  0.1423
 2963TIP3    H2 8823   7.713   3.259   1.993  0.2575 -0.4510  0.2972
 2964TIP3   OH2 8824   4.683   0.128   0.974 -0.4408  0.3811 -0.1404
 2964TIP3    H1 8825   4.671   0.186   1.049 -1.1333  0.9385 -0.6730
 2964TIP3    H2 8826   4.698   0.187   0.900 -1.3331 -0.1005 -0.7216
 2965TIP3   OH2 8827   2.684   2.927   1.029  0.8600  0.0675  0.3516
 2965TIP3    H1 8828   2.706   2.866   1.100 -1.9111 -1.1930  0.1768
 2965TIP3    H2 8829   2.628   2.876   0.971  2.9063  1.1588 -2.6761
 2966TIP3   OH2 8830   6.375   3.121   2.984  0.2279 -0.2142  0.1655
 2966TIP3    H1 8831   6.313   3.161   2.923 -0.8833 -0.4233  1.1304
 2966TIP3    H2 8832   6.457   3.168   2.969 -0.8084  1.8153  0.6207
 2967TIP3   OH2 8833   4.122   1.315   1.707 -0.0209  0.1269 -0.1716
 2967TIP3    H1 8834   4.210   1.328   1.674 -0.1984  0.9415 -0.3228
 2967TIP3    H2 8835   4.094   1.401   1.738 -1.4490  0.2895 -1.8172
 2968TIP3   OH2 8836   5.310   1.751   2.592  0.7719  0.2406 -0.0964
 2968TIP3    H1 8837   5.274   1.663   2.603 -0.3687  0.5317 -1.2751
 2968TIP3    H2 8838   5.369   1.763   2.666  0.6448 -1.3732  0.2777
 2969TIP3   OH2 8839   5.869   1.548   1.876  0.3534  0.4730 -0.6422
 2969TIP3    H1 8840   5.935   1.539   1.807  2.8363  0.0556  1.7143
 2969TIP3    H2 8841   5.894   1.627   1.924 -1.6212  1.0284 -0.4664
 2970TIP3   OH2 8842   6.007   3.850   3.662  0.0963 -0.3537  0.1587
 2970TIP3    H1 8843   6.007   3.942   3.636 -0.9991 -0.1736  0.7417
 2970TIP3    H2 8844   5.929   3.813   3.620 -0.1260 -0.7249  0.8947
 2971TIP3   OH2 8845   5.058   1.778   2.216  0.7416 -0.2161  0.5062
 2971TIP3    H1 8846   5.111   1.698   2.221  0.9369 -0.0969  0.3560
 2971TIP3    H2 8847   5.078   1.824   2.297 -0.5611 -1.0506  1.3266
 2972TIP3   OH2 8848   6.659   1.447   3.400 -0.1015 -0.1391  0.3917
 2972TIP3    H1 8849   6.597   1.383   3.365  0.3784 -0.8033  0.7287
 2972TIP3    H2 8850   6.638   1.452   3.494 -0.2745  0.3512  0.3247
 2973TIP3   OH2 8851   6.924   3.131   0.502 -0.0014  0.1037  0.1565
 2973TIP3    H1 8852   6.904   3.076   0.577  1.7517  0.4474  0.9116
 2973TIP3    H2 8853   6.892   3.218   0.527  2.7369  0.7665  1.5741
 2974TIP3   OH2 8854   5.649   0.641   2.861  0.2530  0.1434 -0.3267
 2974TIP3    H1 8855   5.597   0.697   2.803  1.1173 -0.3122 -1.5656
 2974TIP3    H2 8856   5.602   0.558   2.864  0.0769  0.2493 -0.1840
 2975TIP3   OH2 8857   5.300   2.218   1.386  0.6700 -0.5920  0.2529
 2975TIP3    H1 8858   5.283   2.254   1.473  1.6963  1.8911 -0.5025
 2975TIP3    H2 8859   5.368   2.153   1.400  1.6354  0.5828  1.1882
 2976TIP3   OH2 8860   6.802   5.171   0.941  0.2573 -0.5024 -0.0568
 2976TIP3    H1 8861   6.728   5.111   0.944 -0.0895 -0.3626 -3.8950
 2976TIP3    H2 8862   6.872   5.121   0.900  1.6365  0.0847  1.5102
 2977TIP3   OH2 8863   6.978   2.143   1.864  0.0460  0.3929  0.3240
 2977TIP3    H1 8864   7.038   2.150   1.938 -0.0528  1.1424  0.3352
 2977TIP3    H2 8865   6.953   2.051   1.862  1.0259  0.1250  0.4547
 2978TIP3   OH2 8866   5.957   3.522   3.631  0.3274 -0.2247 -0.1155
 2978TIP3    H1 8867   5.990   3.575   3.703 -0.2892 -1.6087  1.2210
 2978TIP3    H2 8868   5.880   3.568   3.600  1.6131  1.3133 -1.0959
 2979TIP3   OH2 8869   5.085   3.164   2.984 -0.2280  0.1017 -0.1415
 2979TIP3    H1 8870   5.018   3.126   3.041 -1.8507  1.0873 -1.3271
 2979TIP3    H2 8871   5.153   3.196   3.044 -1.6519  0.6703  1.2266
 2980TIP3   OH2 8872   6.256   3.052   2.176  0.2931  0.6304 -0.6196
 2980TIP3    H1 8873   6.347   3.048   2.148  0.2612  0.9746 -0.7765
 2980TIP3    H2 8874   6.261   3.078   2.268  0.5152 -3.2013  0.5286
 2981TIP3   OH2 8875   6.789   2.781   3.067  0.7159  0.2985 -0.0667
 2981TIP3    H1 8876   6.745   2.857   3.029  2.0332 -0.0882 -2.5217
 2981TIP3    H2 8877   6.840   2.744   2.994  2.3900 -1.2252  1.7977
 2982TIP3   OH2 8878   6.830   0.681   0.839  0.4744  0.5650  0.4177
 2982TIP3    H1 8879   6.833   0.772   0.870  0.7355  0.8497 -0.4356
 2982TIP3    H2 8880   6.759   0.680   0.775 -0.5970 -0.2104  1.6000
 2983TIP3   OH2 8881   4.444   2.440   2.025  0.1594 -0.9771 -0.3224
 2983TIP3    H1 8882   4.352   2.443   2.052  0.7019 -1.4447  1.6259
 2983TIP3    H2 8883   4.486   2.511   2.072  0.7311 -0.5107 -1.5166
 2984TIP3   OH2 8884   1.675   5.828   6.327  0.3375 -1.0292 -0.0179
 2984TIP3    H1 8885   1.635   5.801   6.409 -2.3322  0.2569 -0.8202
 2984TIP3    H2 8886   1.766   5.849   6.350 -0.8432  1.1883  3.0400
 2985TIP3   OH2 8887   5.760   0.234   5.217  0.0874  0.3458  0.7882
 2985TIP3    H1 8888   5.751   0.216   5.311 -0.2103  1.3739  0.9601
 2985TIP3    H2 8889   5.854   0.235   5.202  0.1758  1.5949  1.3655
 2986TIP3   OH2 8890   4.793   1.376   3.715  0.2831 -0.2762  0.6105
 2986TIP3    H1 8891   4.825   1.337   3.633  0.2634  0.2977  0.3231
 2986TIP3    H2 8892   4.873   1.396   3.764  0.4742  2.1358 -0.5605
 2987TIP3   OH2 8893   5.483   2.708   3.699 -0.2555  0.1290  0.5999
 2987TIP3    H1 8894   5.404   2.656   3.711 -0.4281  0.6067  1.6245
 2987TIP3    H2 8895   5.548   2.646   3.666 -0.5318 -0.6908  1.5635
 2988TIP3   OH2 8896   6.915   2.005   3.218  0.9814  0.1906 -0.2453
 2988TIP3    H1 8897   6.999   1.979   3.255  1.6939  0.2498 -1.7694
 2988TIP3    H2 8898   6.937   2.074   3.155 -0.3281  0.9453  0.1100
 2989TIP3   OH2 8899   7.234   1.751   1.565  0.4096  0.1585 -0.5965
 2989TIP3    H1 8900   7.264   1.786   1.649  1.4356  1.5110 -1.4944
 2989TIP3    H2 8901   7.152   1.796   1.548 -0.1185 -0.5867 -0.0182
 2990TIP3   OH2 8902   6.082   2.526   3.602 -0.0684  0.5992  0.6162
 2990TIP3    H1 8903   6.056   2.454   3.545  2.1344  1.1302 -1.1283
 2990TIP3    H2 8904   6.058   2.605   3.553 -1.9336  1.0761  2.2577
 2991TIP3   OH2 8905   2.729   7.983   1.308  0.4149  0.1471  0.0004
 2991TIP3    H1 8906   2.796   7.915   1.302  3.0176  2.4600  1.2892
 2991TIP3    H2 8907   2.716   8.013   1.218  1.3718 -0.1078 -0.2288
 2992TIP3   OH2 8908   7.801   1.618   1.854 -0.1296 -0.5782 -0.3692
 2992TIP3    H1 8909   7.820   1.612   1.947  1.3626 -1.4420 -0.7211
 2992TIP3    H2 8910   7.762   1.533   1.832 -0.9259 -0.1990 -0.4331
 2993TIP3   OH2 8911   8.514   1.799   2.924  0.2560 -0.5419  0.8312
 2993TIP3    H1 8912   8.477   1.792   3.012 -2.4602 -0.0616 -0.2184
 2993TIP3    H2 8913   8.465   1.735   2.872 -0.2603  1.2975 -0.9872
 2994TIP3   OH2 8914   7.706   1.370   3.452  0.3720  0.6009  0.1738
 2994TIP3    H1 8915   7.773   1.352   3.518 -0.0912 -0.2307  0.4298
 2994TIP3    H2 8916   7.667   1.453   3.479  0.3795  0.4058  0.7909
 2995TIP3   OH2 8917   5.342   1.917   3.135  0.2929  0.1219  0.1276
 2995TIP3    H1 8918   5.398   1.842   3.112  2.1600  0.6159  2.8348
 2995TIP3    H2 8919   5.393   1.993   3.110 -1.3837  0.5552 -2.1200
 2996TIP3   OH2 8920   7.842   2.776   4.111  0.0180 -0.4955 -0.4555
 2996TIP3    H1 8921   7.752   2.805   4.125  0.3981 -0.2769  1.6985
 2996TIP3    H2 8922   7.834   2.682   4.091 -0.6456 -0.6401  0.4406
 2997TIP3   OH2 8923   4.611   2.068   2.279  0.7312  0.6213  0.0685
 2997TIP3    H1 8924   4.570   1.982   2.276  0.2803  0.8223  0.3064
 2997TIP3    H2 8925   4.693   2.055   2.325  1.6992 -0.1002 -1.8231
 2998TIP3   OH2 8926   5.856   1.118   1.980  0.3200  0.2864  0.0942
 2998TIP3    H1 8927   5.833   1.202   2.018  0.5250  0.6593 -0.6054
 2998TIP3    H2 8928   5.934   1.135   1.928  1.0407 -0.5702  0.8653
 2999TIP3   OH2 8929   3.537   1.407   3.094  0.7198  1.0565 -0.3213
 2999TIP3    H1 8930   3.580   1.384   3.177 -0.5872  0.4625  0.2027
 2999TIP3    H2 8931   3.600   1.381   3.027  0.3612 -1.6922  0.3583
 3000TIP3   OH2 8932   6.414   4.910   2.811 -0.0897 -1.0788 -0.0820
 3000TIP3    H1 8933   6.343   4.963   2.849  1.3040 -0.3154  1.5397
 3000TIP3    H2 8934   6.389   4.820   2.830 -0.8406 -0.8296  0.1342
 3001TIP3   OH2 8935   7.228   4.194   3.481 -0.0659  0.4794 -0.2515
 3001TIP3    H1 8936   7.135   4.175   3.492  0.3555 -1.6115  0.0127
 3001TIP3    H2 8937   7.240   4.202   3.387 -0.2296 -0.9404 -0.4103
 3002TIP3   OH2 8938   7.452   1.234   4.065 -0.4406 -0.1613  0.1243
 3002TIP3    H1 8939   7.458   1.240   3.969 -0.1839  1.1717  0.2095
 3002TIP3    H2 8940   7.372   1.283   4.086 -0.2978 -0.1473  0.6222
 3003TIP3   OH2 8941   5.831   3.624   2.698 -0.0635 -0.6412  0.8191
 3003TIP3    H1 8942   5.843   3.701   2.642 -0.7066 -1.4937 -0.5145
 3003TIP3    H2 8943   5.920   3.597   2.720  0.2264 -0.6405 -0.2932
 3004TIP3   OH2 8944   6.570   3.287   2.227  0.2898 -0.2624  0.4066
 3004TIP3    H1 8945   6.486   3.333   2.216 -0.1677 -1.3875 -0.9903
 3004TIP3    H2 8946   6.635   3.356   2.236 -0.7056  0.6297  0.8167
 3005TIP3   OH2 8947   6.285   1.824   3.333 -0.1739  0.5365  0.0855
 3005TIP3    H1 8948   6.345   1.751   3.350  0.2030  0.3739 -1.8173
 3005TIP3    H2 8949   6.287   1.876   3.413 -1.4751 -2.2224  1.9962
 3006TIP3   OH2 8950   7.349   2.666   1.494  0.0458  0.1361 -0.3445
 3006TIP3    H1 8951   7.295   2.622   1.559  0.8474  0.7358  0.7336
 3006TIP3    H2 8952   7.304   2.748   1.475  0.3842  0.4731  0.2911
 3007TIP3   OH2 8953   5.820   3.770   1.625  0.1246 -0.2295 -0.2660
 3007TIP3    H1 8954   5.737   3.750   1.669  0.0475  1.3146  0.3276
 3007TIP3    H2 8955   5.800   3.844   1.567  0.6116 -1.1889 -1.6776
 3008TIP3   OH2 8956   2.566   5.947   6.425  0.0358  0.3937  0.2421
 3008TIP3    H1 8957   2.616   5.915   6.350 -0.1984 -1.2284  0.7441
 3008TIP3    H2 8958   2.560   6.041   6.412 -0.4018  0.0772 -2.0055
 3009TIP3   OH2 8959   6.846   0.763   1.942  0.1621  0.2557  0.9530
 3009TIP3    H1 8960   6.882   0.779   2.029  0.5276  1.3330  0.6255
 3009TIP3    H2 8961   6.752   0.774   1.952  0.2449  0.8825  1.1236
 3010TIP3   OH2 8962   8.480   1.877   0.235  0.4534  0.0147  0.1921
 3010TIP3    H1 8963   8.408   1.836   0.187 -0.6400 -0.0376  1.8406
 3010TIP3    H2 8964   8.546   1.895   0.168 -0.7781 -0.6164 -1.2247
 3011TIP3   OH2 8965   5.362   2.916   2.183  0.5979  0.1573 -0.1954
 3011TIP3    H1 8966   5.415   2.859   2.128  1.3352 -0.0557  0.7154
 3011TIP3    H2 8967   5.362   2.873   2.269 -0.8537  0.2807 -0.1196
 3012TIP3   OH2 8968   4.857   1.969   2.067 -0.0795  0.0776  0.1057
 3012TIP3    H1 8969   4.823   2.043   2.018  1.0506  0.0209 -0.8079
 3012TIP3    H2 8970   4.780   1.924   2.101 -0.8333  0.7214 -0.7445
 3013TIP3   OH2 8971   6.254   0.188   2.069  0.2863 -0.8952  0.7035
 3013TIP3    H1 8972   6.226   0.272   2.106  1.7876 -0.6621  1.3369
 3013TIP3    H2 8973   6.309   0.149   2.137  1.5911 -1.2857 -0.5579
 3014TIP3   OH2 8974   5.706   0.724   0.940 -0.0916  0.5106  0.1223
 3014TIP3    H1 8975   5.659   0.803   0.913 -2.6584 -0.9652  0.1207
 3014TIP3    H2 8976   5.768   0.708   0.868  0.7633  2.7163  0.3201
 3015TIP3   OH2 8977   3.584   6.191   6.708 -0.0883 -0.2460  0.0373
 3015TIP3    H1 8978   3.637   6.118   6.675  0.0741  0.4961 -1.3969
 3015TIP3    H2 8979   3.552   6.234   6.629  1.9132  2.7809  0.8077
 3016TIP3   OH2 8980   8.262   4.036   3.176 -0.1638 -0.2593 -0.0418
 3016TIP3    H1 8981   8.253   4.130   3.166  0.4914 -0.3860 -2.0474
 3016TIP3    H2 8982   8.174   4.001   3.162  0.4131 -0.2885 -4.2315
 3017TIP3   OH2 8983   7.614   1.650   3.473  0.4109 -0.5022 -0.1655
 3017TIP3    H1 8984   7.582   1.739   3.480  1.0991 -0.3051  0.5991
 3017TIP3    H2 8985   7.644   1.641   3.383  0.6706  0.1491 -0.1421
 3018TIP3   OH2 8986   4.976   0.655   4.087 -0.4479  0.5075 -0.0704
 3018TIP3    H1 8987   5.037   0.604   4.034 -0.7628 -0.1422  0.1751
 3018TIP3    H2 8988   4.891   0.642   4.044 -0.7289 -0.1277  0.6472
 3019TIP3   OH2 8989   6.003   2.426   2.613  0.4735  0.0292  0.2948
 3019TIP3    H1 8990   6.032   2.336   2.629 -0.7055 -0.5515 -0.7604
 3019TIP3    H2 8991   6.061   2.459   2.545  1.2295  0.2526  1.0351
 3020TIP3   OH2 8992   8.375   2.397   1.628  0.2451  0.8101 -0.2531
 3020TIP3    H1 8993   8.334   2.439   1.703  0.1870 -1.0290  0.7562
 3020TIP3    H2 8994   8.465   2.430   1.628  0.0357  1.3726  0.1882
 3021TIP3   OH2 8995   5.409   0.844   1.372  0.7202 -0.0659  0.0898
 3021TIP3    H1 8996   5.341   0.780   1.393 -0.0124  0.7154  0.1382
 3021TIP3    H2 8997   5.417   0.840   1.277  0.3742  0.0691  0.0532
 3022TIP3   OH2 8998   6.933   1.207   2.301  0.1696 -0.1278  0.1446
 3022TIP3    H1 8999   6.863   1.231   2.241 -0.0204 -0.8407  0.0836
 3022TIP3    H2 9000   7.011   1.202   2.246 -0.2893 -2.3246 -0.3319
 3023TIP3   OH2 9001   6.042   0.200   1.268 -0.6199  0.3703  0.0433
 3023TIP3    H1 9002   5.962   0.173   1.224 -0.4346 -0.4042  0.1701
 3023TIP3    H2 9003   6.012   0.238   1.351 -0.8145 -0.7702  0.5081
 3024TIP3   OH2 9004   7.556   0.630   2.339 -0.2116 -0.4816 -0.2199
 3024TIP3    H1 9005   7.622   0.572   2.379  1.1635  0.0872 -1.6152
 3024TIP3    H2 9006   7.532   0.585   2.258  1.3607  1.1989 -1.6501
 3025TIP3   OH2 9007   2.857   2.106   5.211  0.0519  0.3812 -0.4000
 3025TIP3    H1 9008   2.910   2.167   5.161 -0.9505  1.5721 -0.0257
 3025TIP3    H2 9009   2.844   2.148   5.296  1.2843 -1.3766  0.7029
 3026TIP3   OH2 9010   6.926   3.547   1.234 -0.0479  0.0144 -0.2558
 3026TIP3    H1 9011   6.974   3.552   1.152  2.2798 -0.4052  1.0477
 3026TIP3    H2 9012   6.975   3.604   1.294 -1.1217 -0.4896  1.1325
 3027TIP3   OH2 9013   5.963   3.335   5.592 -0.3225  0.2928 -0.1341
 3027TIP3    H1 9014   6.038   3.328   5.651  1.4669 -0.8377 -2.4580
 3027TIP3    H2 9015   5.893   3.286   5.636  0.6118  0.4899  1.5859
 3028TIP3   OH2 9016   3.921   3.385   3.050 -0.1187 -0.3971  0.2239
 3028TIP3    H1 9017   3.933   3.325   2.976  0.2912  0.0441 -0.0706
 3028TIP3    H2 9018   3.991   3.362   3.110  0.4757  0.2634 -0.2107
 3029TIP3   OH2 9019   7.583   1.967   1.692  0.3651 -0.2617 -0.4662
 3029TIP3    H1 9020   7.530   1.945   1.616  0.0271  1.9336 -0.9079
 3029TIP3    H2 9021   7.580   1.889   1.747 -0.2329 -1.4947 -2.2199
 3030TIP3   OH2 9022   4.687   3.505   1.501  0.0131  0.3576 -0.0825
 3030TIP3    H1 9023   4.715   3.577   1.445 -0.2425  1.0753  0.6807
 3030TIP3    H2 9024   4.743   3.431   1.477  1.8296  1.4578  0.6847
 3031TIP3   OH2 9025   6.285   3.605   3.976  0.1308  0.5320  0.6709
 3031TIP3    H1 9026   6.303   3.643   4.062 -0.5376  1.7668  0.2824
 3031TIP3    H2 9027   6.296   3.511   3.989  0.2002  0.7149  2.0745
 3032TIP3   OH2 9028   8.304   1.579   3.749  0.4821  0.5542 -0.0781
 3032TIP3    H1 9029   8.291   1.484   3.755  0.7288  0.5833  1.2508
 3032TIP3    H2 9030   8.394   1.589   3.718  0.7372  0.3469  0.5879
 3033TIP3   OH2 9031   6.044   4.056   4.044 -0.7479 -0.2567 -0.3054
 3033TIP3    H1 9032   5.973   4.119   4.053 -1.0735 -0.2355 -2.5630
 3033TIP3    H2 9033   6.000   3.971   4.038 -0.4920 -0.3929 -0.2595
 3034TIP3   OH2 9034   5.288   2.206   3.314 -0.2127  0.4906 -0.4091
 3034TIP3    H1 9035   5.355   2.232   3.378  0.2381 -0.3488 -0.5221
 3034TIP3    H2 9036   5.332   2.140   3.260 -1.4770 -0.8852  0.2154
 3035TIP3   OH2 9037   5.155   1.537   2.178  0.5040 -0.0839  0.0728
 3035TIP3    H1 9038   5.138   1.517   2.086  2.9052  0.2721 -0.4842
 3035TIP3    H2 9039   5.153   1.452   2.222  0.5887 -0.3898 -0.5199
 3036TIP3   OH2 9040   7.791   4.669   3.470 -0.0247 -0.3079  0.1255
 3036TIP3    H1 9041   7.768   4.751   3.513 -0.8387 -0.6541  0.3646
 3036TIP3    H2 9042   7.732   4.605   3.509 -0.0231 -0.8293 -0.7319
 3037TIP3   OH2 9043   6.946   2.758   3.294  0.7863  0.4145 -0.2567
 3037TIP3    H1 9044   6.968   2.848   3.317  0.7858  0.1484  0.7893
 3037TIP3    H2 9045   6.894   2.767   3.213 -0.2987  1.4372  0.5303
 3038TIP3   OH2 9046   5.476   2.723   1.210 -0.5208 -0.0818 -0.2907
 3038TIP3    H1 9047   5.401   2.735   1.268  0.2049  2.5939  0.1746
 3038TIP3    H2 9048   5.438   2.698   1.126 -1.7499 -1.3568  0.6297
 3039TIP3   OH2 9049   5.892   1.745   2.099  0.2950 -0.0439  0.1849
 3039TIP3    H1 9050   5.808   1.725   2.139  1.3031 -0.9228  1.8989
 3039TIP3    H2 9051   5.957   1.715   2.162  1.9536 -2.0165 -2.3224
 3040TIP3   OH2 9052   7.315   1.518   2.818 -0.6382 -0.4161 -0.0949
 3040TIP3    H1 9053   7.239   1.535   2.761  1.4168  1.2828 -2.4493
 3040TIP3    H2 9054   7.318   1.594   2.877  1.0810  1.2209 -2.1887
 3041TIP3   OH2 9055   5.097   0.821   2.854  0.2064  0.0522 -0.2752
 3041TIP3    H1 9056   5.095   0.736   2.897 -1.1121  1.3477  2.3785
 3041TIP3    H2 9057   5.053   0.807   2.770  1.4740 -2.2242 -0.5815
 3042TIP3   OH2 9058   2.667   4.931   6.724  0.0177 -0.1213  0.7555
 3042TIP3    H1 9059   2.756   4.917   6.694 -0.8120 -0.6973 -1.4760
 3042TIP3    H2 9060   2.656   4.870   6.797  0.8069 -1.4017 -0.1946
 3043TIP3   OH2 9061   5.908   3.501   1.922 -0.0874 -0.0876 -0.1612
 3043TIP3    H1 9062   5.927   3.580   1.973 -0.7504 -0.0767  0.0780
 3043TIP3    H2 9063   5.990   3.452   1.922  0.1356  0.2798  0.2607
 3044TIP3   OH2 9064   1.613   5.454   6.712  0.4314 -0.3650 -0.3594
 3044TIP3    H1 9065   1.629   5.499   6.629 -2.8268  0.8735 -0.3681
 3044TIP3    H2 9066   1.583   5.523   6.771 -0.5193 -1.7982  0.8645
 3045TIP3   OH2 9067   0.605   7.799   1.233  0.2048 -0.4247 -0.3075
 3045TIP3    H1 9068   0.592   7.802   1.139 -1.3229  0.4447 -0.0847
 3045TIP3    H2 9069   0.518   7.777   1.269  0.5667  0.1364  0.9380
 3046TIP3   OH2 9070   1.659   7.799   4.145 -0.0543 -0.3225 -0.0197
 3046TIP3    H1 9071   1.694   7.808   4.057 -1.0399  1.2510 -0.2651
 3046TIP3    H2 9072   1.577   7.751   4.134 -0.1378 -0.1981  0.0664
 3047TIP3   OH2 9073   5.188   1.691   2.913 -0.4125  0.0103 -0.0998
 3047TIP3    H1 9074   5.122   1.698   2.844 -0.7312 -1.0582  0.0908
 3047TIP3    H2 9075   5.147   1.639   2.981  1.1460 -2.0195 -0.6442
 3048TIP3   OH2 9076   7.009   0.418   3.912  0.1663  0.1190 -0.4863
 3048TIP3    H1 9077   6.919   0.447   3.926  0.3511  0.8692 -0.8360
 3048TIP3    H2 9078   7.022   0.425   3.817  0.3860 -0.6021 -0.5104
 3049TIP3   OH2 9079   4.699   2.335   1.601  0.3270 -0.3830 -0.2118
 3049TIP3    H1 9080   4.648   2.256   1.617 -2.2940  0.7463 -2.4344
 3049TIP3    H2 9081   4.658   2.402   1.655  0.6131  0.1158 -0.6004
 3050TIP3   OH2 9082   5.745   1.831   1.323  0.0837  0.2762 -0.2290
 3050TIP3    H1 9083   5.775   1.845   1.413 -1.1644 -0.9560  0.3990
 3050TIP3    H2 9084   5.723   1.738   1.320  1.2958  0.0182 -2.1765
 3051TIP3   OH2 9085   5.853   3.878   1.899  0.2358 -0.3596 -0.1382
 3051TIP3    H1 9086   5.857   3.961   1.852  1.3477 -0.6504 -0.5758
 3051TIP3    H2 9087   5.824   3.815   1.834 -1.9615 -0.0839  0.5373
 3052TIP3   OH2 9088   5.756   3.868   0.040  0.1896 -0.1590  0.2198
 3052TIP3    H1 9089   5.817   3.901  -0.026 -1.5853  0.4821 -1.1603
 3052TIP3    H2 9090   5.772   3.921   0.117 -0.8171  2.2192 -1.1488
 3053TIP3   OH2 9091   5.783   3.991   1.079 -0.0604  0.3534 -0.2015
 3053TIP3    H1 9092   5.825   3.929   1.018  0.9718  1.9388 -1.1403
 3053TIP3    H2 9093   5.835   4.071   1.070 -1.5084  1.4189  0.8521
 3054TIP3   OH2 9094   3.154   0.181   2.599 -0.3403  0.6758 -0.1671
 3054TIP3    H1 9095   3.175   0.091   2.574 -3.8355 -0.1434 -0.4494
 3054TIP3    H2 9096   3.177   0.186   2.692  0.8612 -0.1465 -0.4048
 3055TIP3   OH2 9097   8.053   2.712   2.895 -0.6199 -0.2553  0.2078
 3055TIP3    H1 9098   8.085   2.795   2.860 -1.2115 -0.2852 -0.4138
 3055TIP3    H2 9099   7.963   2.706   2.864 -0.8441 -0.7374  0.9452
 3056TIP3   OH2 9100   3.992   2.001   2.575 -0.0645  0.6659  0.3504
 3056TIP3    H1 9101   3.930   1.943   2.620  1.2382 -0.7106  0.3917
 3056TIP3    H2 9102   3.954   2.013   2.488 -0.8601  0.5892  0.6758
 3057TIP3   OH2 9103   1.284   2.777   2.638 -0.0823 -0.6094 -0.4670
 3057TIP3    H1 9104   1.210   2.838   2.627 -1.0280 -1.0137  2.8966
 3057TIP3    H2 9105   1.360   2.827   2.609 -1.4148  0.5176 -2.1681
 3058TIP3   OH2 9106   0.595   4.054   4.370 -0.3098 -0.3787 -0.3060
 3058TIP3    H1 9107   0.520   4.079   4.424  0.5773 -0.0277  0.7758
 3058TIP3    H2 9108   0.658   4.124   4.383  0.5620 -1.1151 -0.5235
 3059TIP3   OH2 9109   1.016   2.010   1.240  0.0919 -0.3547  0.1397
 3059TIP3    H1 9110   0.934   1.984   1.281  0.2906 -1.6978 -0.2841
 3059TIP3    H2 9111   1.016   1.964   1.156  1.8476 -1.3700  0.6818
 3060TIP3   OH2 9112   1.149   1.698   2.294 -0.4430 -0.4587 -0.3721
 3060TIP3    H1 9113   1.234   1.664   2.265 -0.9644 -1.7575 -0.3734
 3060TIP3    H2 9114   1.167   1.736   2.380  0.2180 -0.3743 -0.5444
 3061TIP3   OH2 9115   6.906   3.417   3.197 -0.1090 -0.1058 -0.9286
 3061TIP3    H1 9116   6.900   3.466   3.115  2.5169  0.4379 -0.8173
 3061TIP3    H2 9117   6.989   3.444   3.235 -1.1753 -0.5612  1.8036
 3062TIP3   OH2 9118   8.150   2.500   1.226  0.0906 -0.6984  0.0573
 3062TIP3    H1 9119   8.064   2.536   1.204  0.2728 -0.8154 -0.8611
 3062TIP3    H2 9120   8.131   2.428   1.286 -0.3339  0.3640  1.2158
 3063TIP3   OH2 9121   0.318   2.710   0.945 -0.2232  0.3648 -0.2789
 3063TIP3    H1 9122   0.266   2.629   0.939  0.6957 -0.2401 -0.1899
 3063TIP3    H2 9123   0.393   2.694   0.888 -0.0727  1.1949 -0.3204
 3064TIP3   OH2 9124   3.232   7.178   6.411 -0.2248 -1.0115 -0.0805
 3064TIP3    H1 9125   3.281   7.124   6.349 -0.8518 -2.1173  0.3814
 3064TIP3    H2 9126   3.205   7.255   6.361  0.9717 -0.9594 -0.6461
 3065TIP3   OH2 9127   7.216   2.597   3.216 -0.3060  0.4484 -0.5713
 3065TIP3    H1 9128   7.130   2.633   3.237 -0.9220 -0.6213 -1.2379
 3065TIP3    H2 9129   7.209   2.503   3.236  0.3507  0.1476 -1.7004
 3066TIP3   OH2 9130   7.652   0.633   3.162  0.2552  0.2403 -0.3765
 3066TIP3    H1 9131   7.673   0.657   3.071  1.4285  0.8290  0.0410
 3066TIP3    H2 9132   7.643   0.717   3.207  0.3008 -0.0610  0.1919
 3067TIP3   OH2 9133   0.082   2.370   0.202  0.5420 -0.4517  0.1195
 3067TIP3    H1 9134   0.164   2.398   0.161  0.4630  1.6070  1.3114
 3067TIP3    H2 9135   0.026   2.447   0.199 -1.0514 -1.5926  0.1032
 3068TIP3   OH2 9136   2.309   4.417   1.785  0.0649 -0.1388  0.1163
 3068TIP3    H1 9137   2.256   4.423   1.706 -1.5931  0.7382  1.2575
 3068TIP3    H2 9138   2.374   4.350   1.766 -1.1152 -0.8411 -1.5211
 3069TIP3   OH2 9139   7.778   4.476   0.814 -0.3223  0.9468 -0.4178
 3069TIP3    H1 9140   7.849   4.537   0.793  0.1995  0.8351  0.9641
 3069TIP3    H2 9141   7.698   4.523   0.793  0.1279  1.4182 -1.1019
 3070TIP3   OH2 9142   7.949   0.498   1.457  0.0995 -0.0870  0.3277
 3070TIP3    H1 9143   7.958   0.403   1.459  0.5280 -0.0688 -0.4726
 3070TIP3    H2 9144   8.006   0.529   1.528  1.4551 -0.3308 -0.6295
 3071TIP3   OH2 9145   6.305   4.505   0.740 -0.2786 -0.2433  0.5145
 3071TIP3    H1 9146   6.339   4.593   0.724 -0.7542  0.4417  3.0694
 3071TIP3    H2 9147   6.354   4.473   0.816 -0.4184 -2.0228 -0.1016
 3072TIP3   OH2 9148   6.284   3.788   3.476  0.3178 -0.1148  0.1750
 3072TIP3    H1 9149   6.283   3.781   3.572 -0.0735 -0.2901  0.1583
 3072TIP3    H2 9150   6.281   3.698   3.445  0.8577 -0.0719 -0.0002
 3073TIP3   OH2 9151   8.182   2.781   1.827  0.3845 -0.2310 -0.0355
 3073TIP3    H1 9152   8.151   2.694   1.801  0.8311 -0.2243 -0.6061
 3073TIP3    H2 9153   8.247   2.764   1.896  1.0214 -0.3990 -0.6686
 3074TIP3   OH2 9154   3.924   6.805   6.891 -0.3770 -0.5965  0.0166
 3074TIP3    H1 9155   4.014   6.775   6.888 -0.0708  0.1689  1.1828
 3074TIP3    H2 9156   3.918   6.873   6.824  0.9118  1.9478  2.3911
 3075TIP3   OH2 9157   8.145   1.616   1.961  0.1015 -0.2350  0.3172
 3075TIP3    H1 9158   8.178   1.681   2.022  0.3555  0.3341 -0.4213
 3075TIP3    H2 9159   8.222   1.565   1.935  0.1930  0.2739 -0.4224
 3076TIP3   OH2 9160   7.846   1.980   1.573 -0.5314 -0.1657  0.4678
 3076TIP3    H1 9161   7.756   1.967   1.604  0.0030  0.6912  2.4966
 3076TIP3    H2 9162   7.899   1.924   1.629  0.4271  1.1332  0.9059
 3077TIP3   OH2 9163   6.040   1.484   2.184 -0.4607  0.0100 -0.4602
 3077TIP3    H1 9164   6.103   1.414   2.203  0.1596  0.1766 -1.8863
 3077TIP3    H2 9165   6.083   1.564   2.214  0.0136  0.1215 -1.4176
 3078TIP3   OH2 9166   6.986   2.686   1.125  0.4371 -0.1453 -0.8748
 3078TIP3    H1 9167   6.895   2.669   1.100  0.6691 -1.8509 -0.6363
 3078TIP3    H2 9168   6.980   2.754   1.192 -0.6661 -0.2746 -0.8342
 3079TIP3   OH2 9169   7.800   3.026   2.871  0.1916  0.2092 -0.1590
 3079TIP3    H1 9170   7.706   3.038   2.885  0.3041 -0.5219  1.3204
 3079TIP3    H2 9171   7.807   2.986   2.784 -0.6675  3.0659 -1.6154
 3080TIP3   OH2 9172   5.408   1.889   2.342 -0.0422  0.9227 -0.7259
 3080TIP3    H1 9173   5.327   1.915   2.385  0.9442  0.8725  1.2186
 3080TIP3    H2 9174   5.471   1.878   2.414  1.2622 -0.5614 -2.0516
 3081TIP3   OH2 9175   6.120   2.306   2.040 -0.0967 -0.0620  0.4483
 3081TIP3    H1 9176   6.037   2.319   1.994 -0.8394 -0.2352  1.7154
 3081TIP3    H2 9177   6.120   2.373   2.109  1.4302  0.8030 -0.3728
 3082TIP3   OH2 9178   5.130   1.888   2.441 -0.3886 -0.2146 -0.3902
 3082TIP3    H1 9179   5.116   1.961   2.501 -1.8957 -0.5411 -0.3464
 3082TIP3    H2 9180   5.199   1.837   2.482 -1.5671 -0.5639  1.1919
 3083TIP3   OH2 9181   0.128   4.805   1.951 -0.4015 -0.0372  0.4684
 3083TIP3    H1 9182   0.185   4.736   1.919 -0.4698 -0.1825  0.6577
 3083TIP3    H2 9183   0.077   4.832   1.875 -1.7289 -1.5096  0.8277
 3084TIP3   OH2 9184   8.107   5.678   0.765  0.2108  0.2878 -0.0980
 3084TIP3    H1 9185   8.062   5.612   0.711 -0.1913 -0.1106  0.7013
 3084TIP3    H2 9186   8.196   5.645   0.774 -0.3210 -0.8110  1.3393
 3085TIP3   OH2 9187   6.768   2.893   1.856  0.1280  0.7732  0.5904
 3085TIP3    H1 9188   6.726   2.816   1.895 -0.9160 -0.2965 -2.4919
 3085TIP3    H2 9189   6.753   2.963   1.920 -2.0594 -0.7393  1.8145
 3086TIP3   OH2 9190   0.129   4.773   0.890 -0.1989  0.2951 -0.3583
 3086TIP3    H1 9191   0.184   4.837   0.934 -0.1773 -0.0851  0.1752
 3086TIP3    H2 9192   0.191   4.718   0.840 -0.0728 -0.2476  0.3887
 3087TIP3   OH2 9193   0.720   3.423   2.962 -0.4894  0.4027 -0.7375
 3087TIP3    H1 9194   0.709   3.456   3.051  0.7294 -0.0628 -0.3942
 3087TIP3    H2 9195   0.636   3.439   2.919 -0.6118  1.9721  0.0570
 3088TIP3   OH2 9196   7.750   2.102   3.011 -0.2624  0.5872 -0.0065
 3088TIP3    H1 9197   7.779   2.188   3.040  2.7170  0.9019 -3.5414
 3088TIP3    H2 9198   7.675   2.120   2.954 -1.4228  0.5307  1.4444
 3089TIP3   OH2 9199   5.047   2.111   2.251  0.6258  0.1255 -0.7301
 3089TIP3    H1 9200   4.988   2.182   2.226 -1.3937 -0.9891  0.7806
 3089TIP3    H2 9201   4.993   2.051   2.303  2.9804 -1.1512  0.3205
 3090TIP3   OH2 9202   1.285   0.696   3.340  0.0454 -0.2104  0.4895
 3090TIP3    H1 9203   1.222   0.624   3.344 -0.1723 -0.0042  0.8328
 3090TIP3    H2 9204   1.255   0.757   3.407  1.3094 -0.6737  1.4946
 3091TIP3   OH2 9205   8.163   0.925   3.354 -0.4475  0.0166  0.2531
 3091TIP3    H1 9206   8.213   0.894   3.430 -0.6795 -0.3507  0.2529
 3091TIP3    H2 9207   8.088   0.867   3.349  1.4384 -2.3077 -2.4366
 3092TIP3   OH2 9208   8.151   2.091   1.143  0.6091 -0.1165  0.1937
 3092TIP3    H1 9209   8.092   2.150   1.190 -0.8268  1.4123 -3.3485
 3092TIP3    H2 9210   8.117   2.003   1.162 -2.9145  0.7228 -1.7940
 3093TIP3   OH2 9211   8.057   0.875   2.013 -0.5321  0.4073  0.3208
 3093TIP3    H1 9212   8.006   0.804   1.974 -1.8175  0.5428  1.7279
 3093TIP3    H2 9213   8.126   0.830   2.062 -0.1203  0.1955 -0.4358
 3094TIP3   OH2 9214   7.288   0.741   2.398 -0.4133  0.0981  0.2077
 3094TIP3    H1 9215   7.260   0.654   2.427  0.9750 -0.0587  1.1280
 3094TIP3    H2 9216   7.378   0.728   2.369  0.4621  1.5810  2.1495
 3095TIP3   OH2 9217   4.107   5.615   6.255  0.3838 -0.3297 -0.1915
 3095TIP3    H1 9218   4.055   5.694   6.239 -0.2788 -0.5985  0.6043
 3095TIP3    H2 9219   4.198   5.645   6.252  0.1845  0.2058 -1.2678
 3096TIP3   OH2 9220   0.152   1.678   0.370  0.1763 -0.2787 -0.0724
 3096TIP3    H1 9221   0.073   1.731   0.362  0.7869  0.5241 -0.8527
 3096TIP3    H2 9222   0.195   1.710   0.450 -0.0288 -0.3731  0.0758
 3097TIP3   OH2 9223   5.849   3.069   2.061  0.3787  0.2853 -0.0367
 3097TIP3    H1 9224   5.792   3.068   1.984 -2.3261  0.8934  1.8950
 3097TIP3    H2 9225   5.803   3.124   2.124  3.1016  0.7530  1.6311
 3098TIP3   OH2 9226   4.679   4.897   2.740 -0.0258 -0.0752 -0.1266
 3098TIP3    H1 9227   4.639   4.897   2.653 -0.7572 -0.0074  0.2093
 3098TIP3    H2 9228   4.656   4.983   2.777 -0.0161 -0.2440  0.2692
 3099TIP3   OH2 9229   0.161   0.688   3.067 -0.7902  0.1402 -0.0955
 3099TIP3    H1 9230   0.092   0.728   3.014 -1.2222  1.9987  1.7832
 3099TIP3    H2 9231   0.238   0.687   3.010 -1.2996  1.8972 -0.8330
 3100TIP3   OH2 9232   6.589   1.718   3.755 -0.1237 -0.3440  0.5739
 3100TIP3    H1 9233   6.681   1.731   3.729 -0.3973 -1.6691 -1.2134
 3100TIP3    H2 9234   6.539   1.755   3.683 -1.0032  0.2079  1.4633
 3101TIP3   OH2 9235   8.504   2.078   0.997 -0.2590 -0.2438 -0.2918
 3101TIP3    H1 9236   8.449   2.079   0.918  0.7571 -0.5986 -1.0136
 3101TIP3    H2 9237   8.475   2.154   1.048 -1.5868 -0.5675 -0.5456
 3102TIP3   OH2 9238   2.177   3.372   4.405  0.4113  0.4681 -0.5804
 3102TIP3    H1 9239   2.239   3.304   4.429  0.6688  0.4379 -1.3087
 3102TIP3    H2 9240   2.095   3.326   4.388 -0.3703  0.6985  2.2572
 3103TIP3   OH2 9241   7.469   1.587   0.206  0.1549  0.4804 -0.2871
 3103TIP3    H1 9242   7.413   1.636   0.266  0.1391  0.2784 -0.1357
 3103TIP3    H2 9243   7.529   1.653   0.171  0.3453  0.5525  0.1637
 3104TIP3   OH2 9244   6.625   0.290   1.444 -0.1541  0.0139 -0.0403
 3104TIP3    H1 9245   6.562   0.223   1.416  0.4833 -0.4721 -0.3222
 3104TIP3    H2 9246   6.680   0.245   1.509  0.0088  0.3874  0.0814
 3105TIP3   OH2 9247   8.179   2.342   1.431 -0.5812  0.3689  0.3781
 3105TIP3    H1 9248   8.238   2.330   1.505  0.6033 -1.0589 -0.7400
 3105TIP3    H2 9249   8.111   2.276   1.443  0.8121 -1.3737 -0.8943
 3106TIP3   OH2 9250   6.992   1.302   2.575  0.4835  0.3549  0.3710
 3106TIP3    H1 9251   7.084   1.284   2.592  0.5485 -0.3610 -0.7001
 3106TIP3    H2 9252   6.972   1.252   2.496 -0.9692  0.0722  0.9050
 3107TIP3   OH2 9253   8.479   3.481   0.637 -0.1032  0.4198  0.3300
 3107TIP3    H1 9254   8.452   3.511   0.724 -0.0394  0.0323  0.4842
 3107TIP3    H2 9255   8.532   3.553   0.603 -1.1340  1.0960  0.1188
 3108TIP3   OH2 9256   5.118   0.840   2.367 -0.6478 -0.0793  0.3951
 3108TIP3    H1 9257   5.191   0.897   2.394 -0.7213 -0.3486  1.1830
 3108TIP3    H2 9258   5.046   0.900   2.349 -0.1238  0.2139 -0.7398
 3109TIP3   OH2 9259   7.856   1.374   3.222  0.2770  0.3002  0.3830
 3109TIP3    H1 9260   7.792   1.329   3.167  0.0628  2.3778 -1.1130
 3109TIP3    H2 9261   7.809   1.390   3.304 -0.4686  0.0508  0.0115
 3110TIP3   OH2 9262   6.932   2.354   1.381 -0.1464  0.0644 -0.3395
 3110TIP3    H1 9263   6.947   2.347   1.475 -0.3154  1.2827 -0.2079
 3110TIP3    H2 9264   6.837   2.349   1.371 -0.1628  0.4572 -0.3918
 3111TIP3   OH2 9265   7.292   2.673   0.968  0.4319 -0.1623  0.8153
 3111TIP3    H1 9266   7.382   2.641   0.969 -0.1156 -1.8265 -0.9539
 3111TIP3    H2 9267   7.299   2.763   0.934  1.3554 -0.4880  0.1169
 3112TIP3   OH2 9268   7.746   2.521   1.928 -0.1267  0.2568 -0.2466
 3112TIP3    H1 9269   7.797   2.442   1.906 -1.6727 -0.4893 -1.2416
 3112TIP3    H2 9270   7.768   2.583   1.858  0.4748  0.4402  0.0975
 3113TIP3   OH2 9271   0.163   2.496   2.619  0.1178 -0.2348 -0.0973
 3113TIP3    H1 9272   0.089   2.503   2.679  0.6688 -0.2597  0.6019
 3113TIP3    H2 9273   0.185   2.586   2.597  0.6796 -0.1590  0.7160
 3114TIP3   OH2 9274   1.334   5.313   5.055  0.0219 -0.1940 -0.2664
 3114TIP3    H1 9275   1.251   5.273   5.078 -0.1493  0.4380  0.2066
 3114TIP3    H2 9276   1.332   5.399   5.096  1.9457 -1.1173  1.8268
 3115TIP3   OH2 9277   6.353   4.257   1.084  0.3933  0.3797  0.4928
 3115TIP3    H1 9278   6.307   4.177   1.110 -0.6288  0.3936 -1.1658
 3115TIP3    H2 9279   6.327   4.322   1.149 -2.0105  0.3937 -0.4265
 3116TIP3   OH2 9280   5.730   3.445   1.223 -0.1350  0.1532 -0.1671
 3116TIP3    H1 9281   5.756   3.515   1.163 -1.8824  0.3404 -0.7195
 3116TIP3    H2 9282   5.694   3.490   1.299  0.0799 -0.1270  0.1042
 3117TIP3   OH2 9283   8.272   2.455   0.080 -0.4695 -0.2951  0.2207
 3117TIP3    H1 9284   8.324   2.438   0.001 -0.3764  0.0382  0.2086
 3117TIP3    H2 9285   8.250   2.368   0.114  0.4546 -0.4410  0.4556
 3118TIP3   OH2 9286   6.287   3.604   2.504  0.4909 -0.2001 -0.8205
 3118TIP3    H1 9287   6.346   3.538   2.539  0.7365 -0.3618 -1.5157
 3118TIP3    H2 9288   6.219   3.615   2.570  0.6653 -0.8605 -0.5350
 3119TIP3   OH2 9289   0.445   0.977   3.784  0.1958 -0.0948 -0.4430
 3119TIP3    H1 9290   0.529   0.933   3.773  0.5856  0.7061 -0.7194
 3119TIP3    H2 9291   0.461   1.067   3.753 -0.7951  0.0187 -0.6265
 3120TIP3   OH2 9292   4.883   5.169   1.275 -0.1337 -0.4737 -0.5326
 3120TIP3    H1 9293   4.813   5.181   1.211  1.1009  0.5852 -1.7010
 3120TIP3    H2 9294   4.960   5.145   1.223  0.7748 -0.0474  0.5912
 3121TIP3   OH2 9295   8.166   0.207   1.714  0.5005 -0.0172  0.2353
 3121TIP3    H1 9296   8.218   0.139   1.672  0.0602 -0.9181  1.1372
 3121TIP3    H2 9297   8.077   0.190   1.685  0.2694 -0.3355  1.1218
 3122TIP3   OH2 9298   7.880   1.127   1.494  0.1861 -0.3767  1.1624
 3122TIP3    H1 9299   7.938   1.082   1.556  0.8052 -0.9183  0.1995
 3122TIP3    H2 9300   7.859   1.061   1.429 -0.0526  0.3389  0.5070
 3123TIP3   OH2 9301   7.543   1.800   1.887 -0.0951  0.0936 -0.3891
 3123TIP3    H1 9302   7.632   1.792   1.922  0.1301  2.0628 -0.4548
 3123TIP3    H2 9303   7.512   1.710   1.880  1.9844 -0.6306 -0.5995
 3124TIP3   OH2 9304   7.256   2.017   2.490  0.2315  0.7334 -0.8996
 3124TIP3    H1 9305   7.347   2.008   2.515  0.4924  0.0414 -2.0494
 3124TIP3    H2 9306   7.253   2.100   2.441  0.1725  0.9264 -0.5717
 3125TIP3   OH2 9307   7.668   2.874   2.081 -0.1533  0.0230 -0.1665
 3125TIP3    H1 9308   7.752   2.837   2.055  0.1162  1.4738 -1.3779
 3125TIP3    H2 9309   7.689   2.929   2.157  0.2448  1.5141 -1.3336
 3126TIP3   OH2 9310   7.868   1.200   2.697  0.2358  0.7312 -0.5635
 3126TIP3    H1 9311   7.897   1.165   2.613 -0.6096  0.8296 -0.8947
 3126TIP3    H2 9312   7.899   1.136   2.762  3.5755  2.1491 -0.6343
 3127TIP3   OH2 9313   6.523   1.571   5.020  0.1385 -0.5965 -0.3323
 3127TIP3    H1 9314   6.457   1.515   4.978 -1.5050 -0.8467  2.4330
 3127TIP3    H2 9315   6.504   1.659   4.986  0.0640 -1.0646 -1.5381
 3128TIP3   OH2 9316   7.918   1.453   0.933  0.0263 -0.1179 -0.2640
 3128TIP3    H1 9317   7.844   1.415   0.885 -0.3675 -0.1819  0.3915
 3128TIP3    H2 9318   7.901   1.431   1.024  1.3509 -0.9682 -0.2122
 3129TIP3   OH2 9319   7.754   4.080   3.960 -0.4138  0.1759 -0.0491
 3129TIP3    H1 9320   7.830   4.096   3.904  1.9647  1.7169  3.4445
 3129TIP3    H2 9321   7.717   3.998   3.926  3.6049 -1.3716 -1.0358
 3130TIP3   OH2 9322   6.596   4.150   1.029 -0.3960 -0.7372  0.2159
 3130TIP3    H1 9323   6.602   4.135   0.934  2.4698  3.4167 -0.3602
 3130TIP3    H2 9324   6.514   4.198   1.040  0.4408  0.8531 -0.4668
 3131TIP3   OH2 9325   7.850   2.520   1.190  0.0656  0.0805  0.0366
 3131TIP3    H1 9326   7.758   2.519   1.216 -0.2228 -1.3528 -0.9737
 3131TIP3    H2 9327   7.865   2.434   1.151  0.9380  1.4466 -2.8382
 3132TIP3   OH2 9328   8.124   3.303   0.626 -0.1193  0.3103 -0.1991
 3132TIP3    H1 9329   8.043   3.277   0.671 -0.0293  2.0088  1.0373
 3132TIP3    H2 9330   8.106   3.392   0.596  0.9422  0.3234 -0.7913
 3133TIP3   OH2 9331   7.514   1.276   5.017  0.1660  0.0501  0.2329
 3133TIP3    H1 9332   7.568   1.253   5.092  1.6661  2.0869 -0.1838
 3133TIP3    H2 9333   7.558   1.236   4.942  0.4152  0.6838  0.0419
 3134TIP3   OH2 9334   5.831   2.122   0.832  0.6855  0.0782  0.1801
 3134TIP3    H1 9335   5.802   2.116   0.923  1.7769  0.9050  0.5927
 3134TIP3    H2 9336   5.876   2.206   0.826  0.1279  0.2884 -1.2710
 3135TIP3   OH2 9337   6.133   2.164   2.713 -0.6739  0.0632 -0.2947
 3135TIP3    H1 9338   6.142   2.237   2.775 -0.6758 -1.1178  1.1427
 3135TIP3    H2 9339   6.220   2.154   2.676  0.2083 -1.3359  2.0202
 3136TIP3   OH2 9340   8.037   2.936   4.768  0.4370  0.0733 -0.7113
 3136TIP3    H1 9341   8.083   2.997   4.826 -0.6388  2.1521 -1.9533
 3136TIP3    H2 9342   8.026   2.857   4.820  0.3346  1.5390  1.5996
 3137TIP3   OH2 9343   1.149   2.262   2.724 -0.0638 -0.1841  0.9252
 3137TIP3    H1 9344   1.233   2.241   2.764  1.6281  1.6126 -1.5442
 3137TIP3    H2 9345   1.163   2.247   2.630 -2.4905  0.2149  0.4603
 3138TIP3   OH2 9346   7.344   4.233   3.739  0.3002  0.4717  0.4309
 3138TIP3    H1 9347   7.288   4.226   3.661  2.1434  0.2387 -0.8921
 3138TIP3    H2 9348   7.390   4.150   3.743  1.6794  1.2264  0.6177
 3139TIP3   OH2 9349   7.891   1.694   2.841  0.6907  0.5486  0.4276
 3139TIP3    H1 9350   7.903   1.708   2.935  1.5990 -1.8304  0.7017
 3139TIP3    H2 9351   7.858   1.605   2.835  1.4903  0.3777 -1.5792
 3140TIP3   OH2 9352   2.616   8.016   6.550  0.2416  0.0463  0.2910
 3140TIP3    H1 9353   2.597   7.966   6.629 -1.8171 -1.1993 -0.9598
 3140TIP3    H2 9354   2.619   7.951   6.480  2.3244  1.1025 -0.6494
 3141TIP3   OH2 9355   7.152   2.446   1.181  0.2384  0.2186  0.4821
 3141TIP3    H1 9356   7.090   2.440   1.253 -1.1160 -0.5906 -0.7258
 3141TIP3    H2 9357   7.234   2.414   1.217 -0.3129  0.2529  1.7943
 3142TIP3   OH2 9358   6.956   1.328   0.903 -0.5659 -0.3562  0.0553
 3142TIP3    H1 9359   6.863   1.304   0.908 -0.7077  0.0119 -0.7792
 3142TIP3    H2 9360   6.975   1.365   0.990 -1.0352 -1.0055  0.4439
 3143TIP3   OH2 9361   4.771   4.218   1.680 -0.2962 -0.1367 -0.1078
 3143TIP3    H1 9362   4.728   4.133   1.685 -0.3389 -0.0163  2.0896
 3143TIP3    H2 9363   4.862   4.200   1.701 -0.0426  0.1821 -0.9190
 3144TIP3   OH2 9364   0.511   1.002   2.749 -0.1691 -0.3527 -0.6544
 3144TIP3    H1 9365   0.524   1.078   2.693  1.2243  0.3682  0.6133
 3144TIP3    H2 9366   0.416   0.999   2.763 -0.1973  1.4484 -0.3050
 3145TIP3   OH2 9367   1.513   0.732   3.847  0.3097 -0.3634 -0.0459
 3145TIP3    H1 9368   1.553   0.761   3.765 -1.4228  1.3010 -0.3168
 3145TIP3    H2 9369   1.504   0.637   3.837 -0.2513 -0.1248 -1.9527
 3146TIP3   OH2 9370   1.108   0.273   1.238  0.1584  0.0834 -0.7762
 3146TIP3    H1 9371   1.180   0.234   1.188 -0.9021 -1.6803 -0.9479
 3146TIP3    H2 9372   1.042   0.204   1.244 -1.5827  1.7086 -0.7150
 3147TIP3   OH2 9373   0.321   1.178   4.126 -0.5172  0.6573 -0.3109
 3147TIP3    H1 9374   0.351   1.151   4.213 -1.0667 -1.7726 -0.8229
 3147TIP3    H2 9375   0.225   1.183   4.134 -0.4616  1.8435 -0.3979
 3148TIP3   OH2 9376   6.909   0.613   1.370  0.1244  0.2491 -0.0855
 3148TIP3    H1 9377   6.909   0.708   1.352 -1.0502 -0.3112 -3.4215
 3148TIP3    H2 9378   6.930   0.573   1.286  1.4379 -2.4610  1.4867
 3149TIP3   OH2 9379   0.687   0.804   0.970 -0.1004 -0.5045 -0.5599
 3149TIP3    H1 9380   0.620   0.862   1.006  0.8853  0.2150  0.1694
 3149TIP3    H2 9381   0.673   0.720   1.014 -0.9979 -0.5785 -0.9826
 3150TIP3   OH2 9382   6.011   1.517   1.139  0.5960  0.3036 -0.2376
 3150TIP3    H1 9383   6.012   1.475   1.225 -0.1759  0.7891  0.0058
 3150TIP3    H2 9384   5.919   1.518   1.113  0.7882  0.4617 -0.9183
 3151TIP3   OH2 9385   0.183   3.451   2.995  0.3753  0.5939 -0.1867
 3151TIP3    H1 9386   0.194   3.449   3.090  0.3306  0.4660 -0.1840
 3151TIP3    H2 9387   0.089   3.463   2.982  0.3920  0.6915 -0.2137
 3152TIP3   OH2 9388   6.542   3.679   0.454 -0.0814  0.6192 -0.3216
 3152TIP3    H1 9389   6.507   3.681   0.365  0.5759  3.1650 -0.5662
 3152TIP3    H2 9390   6.467   3.655   0.509 -1.0918  1.4507 -1.3122
 3153TIP3   OH2 9391   0.360   3.105   3.507  0.8923 -0.8605 -0.0012
 3153TIP3    H1 9392   0.392   3.016   3.492  2.0453 -0.0562 -2.6041
 3153TIP3    H2 9393   0.268   3.094   3.533  1.2155 -2.8256  0.3728
 3154TIP3   OH2 9394   6.345   5.328   3.592 -0.5393  0.0706  0.1997
 3154TIP3    H1 9395   6.414   5.305   3.530 -1.2583  0.4365 -0.7408
 3154TIP3    H2 9396   6.357   5.267   3.665  0.5623 -0.0907 -0.1074
 3155TIP3   OH2 9397   7.948   5.081   1.476  0.4683 -0.3179  0.0755
 3155TIP3    H1 9398   7.982   5.155   1.526  1.1563 -1.4193  1.2694
 3155TIP3    H2 9399   8.001   5.006   1.504  1.5811 -0.7937 -3.0699
 3156TIP3   OH2 9400   6.910   2.793   2.434  0.8962 -0.1816  0.5653
 3156TIP3    H1 9401   6.947   2.717   2.389  0.5783 -1.5739  2.6164
 3156TIP3    H2 9402   6.984   2.829   2.483  1.1283  1.0610 -0.6678
 3157TIP3   OH2 9403   0.522   2.400   0.568  0.4434  0.1668 -0.1462
 3157TIP3    H1 9404   0.612   2.401   0.602  0.0519 -1.3964  0.9988
 3157TIP3    H2 9405   0.532   2.389   0.474  1.4762  1.2263 -0.1694
 3158TIP3   OH2 9406   7.443   2.806   2.368 -0.1680 -0.1466  0.0913
 3158TIP3    H1 9407   7.410   2.754   2.441 -0.3159 -0.2873 -0.0754
 3158TIP3    H2 9408   7.405   2.765   2.290  0.2228 -0.1722 -0.0849
 3159TIP3   OH2 9409   6.218   3.676   2.970 -0.2975 -0.6844  0.0590
 3159TIP3    H1 9410   6.172   3.610   2.919 -2.0332 -0.1077  0.8328
 3159TIP3    H2 9411   6.237   3.633   3.054  1.3568 -1.1950 -0.5608
 3160TIP3   OH2 9412   1.781   0.932   2.146 -0.0051  0.2247  0.3533
 3160TIP3    H1 9413   1.727   1.009   2.128 -2.0370 -0.6112  2.6722
 3160TIP3    H2 9414   1.835   0.957   2.221  0.1480 -0.2414  0.4017
 3161TIP3   OH2 9415   7.369   1.965   1.115 -0.2978 -0.1368  0.1903
 3161TIP3    H1 9416   7.346   1.988   1.025 -2.2804  0.6485  0.8582
 3161TIP3    H2 9417   7.458   1.997   1.126  0.1316 -0.6598 -1.6334
 3162TIP3   OH2 9418   1.912   1.949   2.171  0.0881  0.0483  0.2345
 3162TIP3    H1 9419   1.960   1.997   2.239  0.1988  0.2566  0.0098
 3162TIP3    H2 9420   1.981   1.915   2.114  0.0155 -0.5141  0.4871
 3163TIP3   OH2 9421   5.912   4.567   1.184 -0.6049 -0.1682 -0.0441
 3163TIP3    H1 9422   5.935   4.477   1.161 -0.4035 -0.1575  0.1212
 3163TIP3    H2 9423   5.857   4.596   1.111 -0.5131 -0.3602 -0.1923
 3164TIP3   OH2 9424   0.209   1.464   0.704  0.2968  0.1134 -0.3311
 3164TIP3    H1 9425   0.280   1.454   0.768 -0.7192  0.2754  0.8577
 3164TIP3    H2 9426   0.207   1.558   0.685 -0.6313  0.3566  0.8822
 3165TIP3   OH2 9427   6.071   3.051   0.516  0.0219 -0.1298  0.0001
 3165TIP3    H1 9428   6.136   3.095   0.462 -0.1648  1.3297  0.9446
 3165TIP3    H2 9429   6.067   2.962   0.481  0.9376  0.3879 -1.4561
 3166TIP3   OH2 9430   7.785   2.371   3.072  0.2247 -0.6395 -0.3651
 3166TIP3    H1 9431   7.873   2.375   3.109 -0.0791  0.4761  0.2610
 3166TIP3    H2 9432   7.732   2.422   3.132 -0.8869 -1.4254 -0.6612
 3167TIP3   OH2 9433   6.674   1.841   4.263 -1.0130  0.0368 -0.1498
 3167TIP3    H1 9434   6.694   1.873   4.175  1.2630 -0.4790  0.1322
 3167TIP3    H2 9435   6.605   1.777   4.250 -0.8466  0.1114 -1.5434
 3168TIP3   OH2 9436   1.369   6.015   6.587  0.5093 -0.2710 -0.1873
 3168TIP3    H1 9437   1.442   6.072   6.613 -0.4976  0.6705  0.6123
 3168TIP3    H2 9438   1.291   6.061   6.616 -0.5138 -0.4616 -2.5818
 3169TIP3   OH2 9439   2.096   4.823   1.212 -0.0424 -0.2432  0.4790
 3169TIP3    H1 9440   2.079   4.915   1.190  0.3557 -0.4195 -0.5555
 3169TIP3    H2 9441   2.040   4.773   1.153  0.4900 -0.6991  0.3589
 3170TIP3   OH2 9442   2.826   2.268   3.775 -0.2293 -0.0040  0.0032
 3170TIP3    H1 9443   2.908   2.235   3.738  0.2916  0.6821  0.5310
 3170TIP3    H2 9444   2.781   2.308   3.700 -1.3354 -2.7600 -0.8551
 3171TIP3   OH2 9445   7.248   2.829   0.608 -0.4787 -0.3845 -0.0750
 3171TIP3    H1 9446   7.322   2.779   0.574  1.0708  2.3387 -0.9239
 3171TIP3    H2 9447   7.283   2.877   0.683 -2.1092 -1.1267  1.1824
 3172TIP3   OH2 9448   0.972   3.683   2.314  0.0379 -0.4590  0.2824
 3172TIP3    H1 9449   0.969   3.674   2.409 -2.3053 -0.4385  0.2454
 3172TIP3    H2 9450   0.999   3.597   2.282 -0.3841 -0.8293  0.9132
 3173TIP3   OH2 9451   7.179   2.064   0.047 -0.6692  0.3708 -0.6216
 3173TIP3    H1 9452   7.243   2.117   0.096  2.2583 -1.8933 -1.8188
 3173TIP3    H2 9453   7.143   2.124  -0.018  0.8315  1.5032 -0.4496
 3174TIP3   OH2 9454   0.280   1.053   3.454  0.4475 -0.5175  0.0438
 3174TIP3    H1 9455   0.204   1.003   3.483  1.3333 -1.2024  1.2260
 3174TIP3    H2 9456   0.270   1.139   3.495  0.0270 -0.4195 -0.2585
 3175TIP3   OH2 9457   2.155   5.679   1.839  0.2611  0.0670  0.1129
 3175TIP3    H1 9458   2.081   5.738   1.854  0.0253  0.0900 -1.0864
 3175TIP3    H2 9459   2.123   5.593   1.868  0.1681  0.2935  0.6829
 3176TIP3   OH2 9460   1.106   1.896   4.378  0.7915 -0.7770 -0.3086
 3176TIP3    H1 9461   1.182   1.854   4.421  0.6948 -0.8065 -0.1658
 3176TIP3    H2 9462   1.074   1.958   4.443  0.9621 -0.4497 -0.5406
 3177TIP3   OH2 9463   3.268   2.759   2.727 -0.0129 -0.2562  0.0196
 3177TIP3    H1 9464   3.193   2.741   2.783  0.5925 -1.2684  0.5172
 3177TIP3    H2 9465   3.283   2.853   2.736  0.6518 -0.5467  2.3051
 3178TIP3   OH2 9466   0.747   2.441   1.187 -0.5013  0.0940  0.1456
 3178TIP3    H1 9467   0.823   2.395   1.150  1.2171  1.6573  1.6051
 3178TIP3    H2 9468   0.785   2.505   1.247 -2.9102  2.2371 -0.5223
 3179TIP3   OH2 9469   1.918   3.296   2.530  0.2828  0.5043  0.3873
 3179TIP3    H1 9470   1.876   3.313   2.446  1.4141  0.7463 -0.1342
 3179TIP3    H2 9471   1.849   3.256   2.584 -0.1207 -0.7505 -1.0352
 3180TIP3   OH2 9472   1.668   2.317   3.620 -0.5815  0.0244  0.2208
 3180TIP3    H1 9473   1.721   2.239   3.636 -1.0910  0.2427  3.3598
 3180TIP3    H2 9474   1.732   2.388   3.616 -0.4375  0.0238  2.0195
 3181TIP3   OH2 9475   7.158   1.531   5.003 -0.0547  0.1758 -0.1238
 3181TIP3    H1 9476   7.107   1.470   5.056 -1.8540  0.9288 -0.9207
 3181TIP3    H2 9477   7.102   1.609   4.997  0.9334  0.7896 -1.5523
 3182TIP3   OH2 9478   0.838   4.433   0.911  0.2263  0.2412  0.0891
 3182TIP3    H1 9479   0.745   4.409   0.919  0.3701 -0.6585 -0.8523
 3182TIP3    H2 9480   0.860   4.470   0.997 -0.5466 -1.1355  0.9058
 3183TIP3   OH2 9481   3.476   3.928   4.783 -0.0263  0.1754  0.3141
 3183TIP3    H1 9482   3.505   3.876   4.858  2.9983  3.0577  1.2855
 3183TIP3    H2 9483   3.528   3.894   4.710  0.1140  0.1400  0.4279
 3184TIP3   OH2 9484   2.649   2.629   3.955  0.1045  0.2853  0.4624
 3184TIP3    H1 9485   2.665   2.694   4.024  0.8071  0.1008  0.4803
 3184TIP3    H2 9486   2.689   2.549   3.989 -1.1606 -0.2704  0.6366
 3185TIP3   OH2 9487   7.592   5.063   1.682 -0.0039  0.1653  0.1747
 3185TIP3    H1 9488   7.605   4.972   1.708 -2.4958 -0.2232  0.2420
 3185TIP3    H2 9489   7.629   5.068   1.594  1.2835 -0.5648  0.6557
 3186TIP3   OH2 9490   2.706   1.817   4.020 -0.0324  0.0672  0.4209
 3186TIP3    H1 9491   2.681   1.889   3.963 -1.7039  0.4269  1.5617
 3186TIP3    H2 9492   2.623   1.776   4.045  0.7374 -0.7399  1.7137
 3187TIP3   OH2 9493   8.489   3.669   3.485  0.2580  0.1132  0.0017
 3187TIP3    H1 9494   8.466   3.728   3.413  0.3820 -0.1775 -0.2723
 3187TIP3    H2 9495   8.460   3.583   3.456  1.2034 -0.1688 -0.1210
 3188TIP3   OH2 9496   0.889   0.814   4.769 -0.2516 -0.8695 -0.2267
 3188TIP3    H1 9497   0.939   0.740   4.736  0.6110 -0.3446 -0.0982
 3188TIP3    H2 9498   0.805   0.776   4.796 -0.5056 -1.4986 -1.8593
 3189TIP3   OH2 9499   7.408   3.541   3.566 -0.5138 -0.1392 -0.3023
 3189TIP3    H1 9500   7.325   3.498   3.589 -0.2871  0.0433  0.8962
 3189TIP3    H2 9501   7.455   3.547   3.649 -0.0492  1.3742 -0.6568
 3190TIP3   OH2 9502   7.398   5.068   5.293  0.4402 -0.5427  0.4245
 3190TIP3    H1 9503   7.482   5.100   5.327  0.2216  0.2777  0.2111
 3190TIP3    H2 9504   7.347   5.147   5.278 -0.2379 -1.0195  0.1904
 3191TIP3   OH2 9505   2.322   2.051   4.930 -0.6748 -0.3340  0.1521
 3191TIP3    H1 9506   2.359   2.098   5.004 -1.0508  1.0457 -0.5246
 3191TIP3    H2 9507   2.395   1.997   4.898 -0.0295  0.3304  0.4830
 3192TIP3   OH2 9508   7.525   1.547   4.038  0.4848  0.1723 -0.0319
 3192TIP3    H1 9509   7.610   1.590   4.028  0.5231 -0.0563 -0.6782
 3192TIP3    H2 9510   7.484   1.553   3.952 -1.1114  2.2614  0.8375
 3193TIP3   OH2 9511   0.959   5.089   3.253 -0.3205  0.7564  0.0146
 3193TIP3    H1 9512   0.934   5.180   3.239 -0.6468  0.4632 -1.3963
 3193TIP3    H2 9513   0.988   5.086   3.344 -0.2432  2.2788  0.0547
 3194TIP3   OH2 9514   0.585   4.614   6.185 -0.0036 -0.4015  0.0637
 3194TIP3    H1 9515   0.498   4.647   6.164 -0.4885 -1.9850 -0.5010
 3194TIP3    H2 9516   0.631   4.689   6.224 -1.0019  0.9550 -1.3326
 3195TIP3   OH2 9517   0.062   4.789   4.947 -0.0577  0.6550  0.1097
 3195TIP3    H1 9518   0.071   4.880   4.977  1.1858  0.6456 -0.1822
 3195TIP3    H2 9519   0.034   4.797   4.856 -0.4772  0.7345  0.2440
 3196TIP3   OH2 9520   7.580   1.905   0.059  0.3485 -0.0369 -0.1367
 3196TIP3    H1 9521   7.605   1.876   0.147  0.6887 -1.2650 -0.6278
 3196TIP3    H2 9522   7.635   1.980   0.042  1.1005 -0.4974  0.2490
 3197TIP3   OH2 9523   8.253   4.051   2.879 -0.7749 -0.1015 -0.7279
 3197TIP3    H1 9524   8.207   4.130   2.907 -0.1573 -0.7643  2.3371
 3197TIP3    H2 9525   8.193   3.980   2.900 -0.1628 -0.6579 -0.8573
 3198TIP3   OH2 9526   0.132   3.777   2.142  0.6356  0.0623  0.6407
 3198TIP3    H1 9527   0.105   3.776   2.050  0.2490 -1.2931  0.7606
 3198TIP3    H2 9528   0.123   3.686   2.171  0.1772  0.5794  2.1901
 3199TIP3   OH2 9529   8.330   2.726   2.665  0.8047 -0.1207  0.2335
 3199TIP3    H1 9530   8.296   2.726   2.575  1.0241  2.6069  0.1270
 3199TIP3    H2 9531   8.420   2.755   2.657  0.7233  0.4512  1.3855
 3200TIP3   OH2 9532   0.392   1.906   1.694 -0.0662  0.3993  0.3768
 3200TIP3    H1 9533   0.391   1.864   1.607 -0.2649  1.0249  0.0712
 3200TIP3    H2 9534   0.317   1.966   1.692  0.4231  1.0265  0.6738
 3201TIP3   OH2 9535   2.336   3.235   3.357  0.3817  0.1868  0.0947
 3201TIP3    H1 9536   2.359   3.217   3.448  1.6812 -4.0447 -0.9375
 3201TIP3    H2 9537   2.416   3.215   3.308 -0.7741  0.8444 -2.1167
 3202TIP3   OH2 9538   0.217   1.679   4.077 -0.1873  0.0872  0.1372
 3202TIP3    H1 9539   0.184   1.741   4.142 -0.1426  0.9895 -0.6943
 3202TIP3    H2 9540   0.246   1.603   4.128 -1.4698  0.2050  1.0509
 3203TIP3   OH2 9541   8.146   1.951   1.907 -0.2190  0.5672 -0.6962
 3203TIP3    H1 9542   8.103   1.886   1.852  0.7568  0.7835 -1.7221
 3203TIP3    H2 9543   8.174   1.902   1.985 -0.4986  0.0023 -0.9477
 3204TIP3   OH2 9544   1.597   4.240   4.426 -0.2543  0.1529  0.4801
 3204TIP3    H1 9545   1.643   4.188   4.360  0.5600  2.1515 -0.5854
 3204TIP3    H2 9546   1.606   4.330   4.396  0.3177  1.1543  3.4240
 3205TIP3   OH2 9547   0.905   5.016   3.700  0.3924  0.1613  0.0122
 3205TIP3    H1 9548   0.885   5.077   3.770  0.0252 -0.5514  0.5310
 3205TIP3    H2 9549   0.834   4.952   3.703  1.6865 -1.2564  0.5735
 3206TIP3   OH2 9550   8.310   3.279   0.438  0.5460  0.0884  0.6697
 3206TIP3    H1 9551   8.246   3.288   0.509 -0.6913 -1.8147 -0.1586
 3206TIP3    H2 9552   8.316   3.367   0.400  0.0379  0.7620  2.1219
 3207TIP3   OH2 9553   0.401   0.739   3.898  1.0003  0.3612  0.1044
 3207TIP3    H1 9554   0.334   0.784   3.949  1.6763 -0.6887  1.9640
 3207TIP3    H2 9555   0.445   0.809   3.850 -0.1413  1.2793  0.3590
 3208TIP3   OH2 9556   1.568   2.005   2.725 -0.2281  0.4067 -0.2905
 3208TIP3    H1 9557   1.658   1.973   2.717 -0.1293  0.7258 -0.4699
 3208TIP3    H2 9558   1.559   2.069   2.655 -1.0853 -0.7117 -1.2120
 3209TIP3   OH2 9559   0.219   3.048   2.410  0.2833  0.7411 -0.4888
 3209TIP3    H1 9560   0.212   3.016   2.320 -0.9209 -1.6422  0.3798
 3209TIP3    H2 9561   0.288   2.995   2.450  0.0493  1.0095  0.2943
 3210TIP3   OH2 9562   8.395   3.814   3.248  0.1081 -0.5152  0.2925
 3210TIP3    H1 9563   8.335   3.739   3.248 -0.7345  0.1505  0.7803
 3210TIP3    H2 9564   8.338   3.889   3.232  1.1332 -0.1156 -1.5644
 3211TIP3   OH2 9565   5.758   3.256   2.378 -0.2748 -0.1389  0.2897
 3211TIP3    H1 9566   5.695   3.263   2.306 -0.6045 -1.3374  0.4545
 3211TIP3    H2 9567   5.731   3.324   2.440  0.7054  1.6660 -1.2286
 3212TIP3   OH2 9568   0.558   2.455   1.731  0.6982 -1.1909  0.5237
 3212TIP3    H1 9569   0.629   2.483   1.789  0.1405  1.0005  0.1952
 3212TIP3    H2 9570   0.600   2.395   1.669  2.5413  0.9449 -0.3827
 3213TIP3   OH2 9571   1.051   3.001   5.211  0.0538 -0.5240  0.1590
 3213TIP3    H1 9572   1.061   3.065   5.282  1.2567 -2.2624  1.6116
 3213TIP3    H2 9573   1.116   2.934   5.230 -0.7933 -1.9083 -1.6540
 3214TIP3   OH2 9574   8.114   3.508   4.576  0.1950 -0.6589  0.1005
 3214TIP3    H1 9575   8.165   3.483   4.653  0.0267  2.0442  1.1484
 3214TIP3    H2 9576   8.178   3.525   4.508  0.5734  0.3760  0.7046
 3215TIP3   OH2 9577   8.138   4.201   2.457 -0.1462  0.7489  0.0617
 3215TIP3    H1 9578   8.162   4.121   2.502 -0.4195 -0.0167 -1.1407
 3215TIP3    H2 9579   8.169   4.189   2.367 -0.6513  1.7689 -0.2601
 3216TIP3   OH2 9580   2.843   3.094   1.414  0.1376  0.7371 -0.0595
 3216TIP3    H1 9581   2.918   3.123   1.363 -0.0296  1.0496 -0.1259
 3216TIP3    H2 9582   2.859   3.001   1.429 -0.3591  0.3656 -1.6532
 3217TIP3   OH2 9583   1.692   3.683   2.662 -0.9404  0.2659  0.4925
 3217TIP3    H1 9584   1.724   3.600   2.697 -1.7719  0.4282  1.6785
 3217TIP3    H2 9585   1.718   3.748   2.728 -0.3095  0.9515 -0.4166
 3218TIP3   OH2 9586   0.122   2.370   3.684 -0.3067  0.0768  0.0113
 3218TIP3    H1 9587   0.199   2.426   3.673  0.0157 -0.6118 -1.2693
 3218TIP3    H2 9588   0.071   2.413   3.754 -0.4272  2.3793 -1.4504
 3219TIP3   OH2 9589   1.189   2.757   5.210 -0.4679 -0.4343 -0.0897
 3219TIP3    H1 9590   1.150   2.727   5.291 -0.4690 -0.4830 -0.1083
 3219TIP3    H2 9591   1.157   2.696   5.143 -0.2000 -0.5968 -0.0710
 3220TIP3   OH2 9592   1.412   3.010   3.805  0.0062 -0.6208  0.0498
 3220TIP3    H1 9593   1.492   2.980   3.762  0.1741  2.0814 -1.6307
 3220TIP3    H2 9594   1.346   3.011   3.736  0.0655  2.9499 -0.0268
 3221TIP3   OH2 9595   0.479   1.742   3.979  0.1019 -0.1173  0.1373
 3221TIP3    H1 9596   0.521   1.782   4.055 -2.3009  1.8433  0.4674
 3221TIP3    H2 9597   0.387   1.732   4.003 -0.0188 -2.8525 -1.1888
 3222TIP3   OH2 9598   8.195   1.725   0.393  0.1466  0.3655 -0.5573
 3222TIP3    H1 9599   8.230   1.814   0.391  0.0518  0.4282  0.2694
 3222TIP3    H2 9600   8.151   1.718   0.478 -0.9224 -0.0649 -1.1408
 3223TIP3   OH2 9601   0.672   3.517   4.525  0.0469  0.1592 -0.0295
 3223TIP3    H1 9602   0.606   3.450   4.504  0.7013 -0.6647  0.5430
 3223TIP3    H2 9603   0.629   3.600   4.503 -1.9892 -0.2133  2.3079
 3224TIP3   OH2 9604   7.116   2.531   4.448  0.3955 -0.0705 -0.1029
 3224TIP3    H1 9605   7.122   2.617   4.491 -0.7023 -0.9793  1.9154
 3224TIP3    H2 9606   7.202   2.492   4.462  1.5409  1.3990 -2.6442
 3225TIP3   OH2 9607   0.636   3.740   1.611 -0.2263  0.3212 -0.5662
 3225TIP3    H1 9608   0.670   3.734   1.521 -1.6607  1.7965 -1.2273
 3225TIP3    H2 9609   0.578   3.664   1.619 -0.5416  0.5023 -1.0901
 3226TIP3   OH2 9610   8.309   2.735   2.078 -0.5245  0.2779 -0.1453
 3226TIP3    H1 9611   8.375   2.714   2.143 -1.4886  1.0682  1.1243
 3226TIP3    H2 9612   8.243   2.666   2.087 -0.8542  0.6083 -0.0004
 3227TIP3   OH2 9613   0.003   4.519   4.248 -0.1692 -0.5049  0.2281
 3227TIP3    H1 9614   0.077   4.577   4.234  0.2496 -0.7749  1.2646
 3227TIP3    H2 9615  -0.030   4.499   4.160 -1.1832  2.4048 -0.0883
 3228TIP3   OH2 9616   0.897   2.107   3.282 -0.1508  0.3731 -0.1260
 3228TIP3    H1 9617   0.886   2.024   3.329 -1.3386 -0.1827 -1.3438
 3228TIP3    H2 9618   0.916   2.171   3.350  2.5953 -1.1924  0.6784
 3229TIP3   OH2 9619   3.663   5.556   0.189 -0.3201 -0.2897  0.1033
 3229TIP3    H1 9620   3.619   5.631   0.229 -0.2788 -0.3738  0.3084
 3229TIP3    H2 9621   3.664   5.575   0.096 -1.2625 -0.5351  0.0414
 3230TIP3   OH2 9622   6.866   1.526   3.241 -0.3717 -0.3385  0.0582
 3230TIP3    H1 9623   6.834   1.609   3.204 -0.2770 -0.3927 -0.1458
 3230TIP3    H2 9624   6.800   1.502   3.305  0.0378  0.3415  0.7396
 3231TIP3   OH2 9625   2.141   4.490   1.561 -0.7949  0.4788 -0.2477
 3231TIP3    H1 9626   2.130   4.485   1.466 -0.2804 -0.5527 -0.2583
 3231TIP3    H2 9627   2.176   4.578   1.576 -0.8518  0.6406 -1.0118
 3232TIP3   OH2 9628   0.325   3.124   5.071  0.2604 -0.9939 -0.4770
 3232TIP3    H1 9629   0.264   3.113   5.145  0.5022  0.2121 -0.0887
 3232TIP3    H2 9630   0.349   3.217   5.073  0.2406 -0.9328 -2.1045
 3233TIP3   OH2 9631   7.531   1.587   5.726  0.2053 -0.0697  0.1509
 3233TIP3    H1 9632   7.513   1.608   5.634  1.5999  0.1033 -0.0989
 3233TIP3    H2 9633   7.447   1.559   5.761 -1.0069  2.7516 -0.3653
 3234TIP3   OH2 9634   8.068   3.147   3.335 -0.3256 -0.1972 -0.3327
 3234TIP3    H1 9635   8.039   3.168   3.424  0.7739  3.4285 -0.7358
 3234TIP3    H2 9636   8.089   3.053   3.338 -3.0589 -0.7945  2.3995
 3235TIP3   OH2 9637   0.146   1.398   4.430 -0.2552 -0.0286  0.0390
 3235TIP3    H1 9638   0.145   1.414   4.524 -0.0123  0.4526 -0.0391
 3235TIP3    H2 9639   0.079   1.457   4.395 -1.0080 -0.8870  0.0137
 3236TIP3   OH2 9640   7.313   3.240   0.479  0.0585 -0.1548  0.1352
 3236TIP3    H1 9641   7.381   3.177   0.504 -0.1750 -1.3580 -2.1250
 3236TIP3    H2 9642   7.360   3.323   0.468  1.4258 -1.1933 -2.4622
 3237TIP3   OH2 9643   2.096   5.363   2.517  0.1666 -0.3266  0.4004
 3237TIP3    H1 9644   2.102   5.342   2.424  1.3371 -0.6544  0.5372
 3237TIP3    H2 9645   2.003   5.379   2.532  0.2855  2.2620 -1.3629
 3238TIP3   OH2 9646   6.969   4.663   5.081  0.4593 -0.3891 -0.0554
 3238TIP3    H1 9647   7.008   4.688   4.997  0.4906  1.2190  0.4044
 3238TIP3    H2 9648   6.897   4.604   5.058  0.7175 -0.2786 -1.1801
 3239TIP3   OH2 9649   7.811   3.187   3.837  0.4232  0.2028  0.1230
 3239TIP3    H1 9650   7.835   3.190   3.930 -1.6038  1.2004  0.6485
 3239TIP3    H2 9651   7.743   3.254   3.828 -0.2139 -0.6721 -1.8397
 3240TIP3   OH2 9652   2.237   2.908   2.951  0.5755 -0.2711 -0.2246
 3240TIP3    H1 9653   2.328   2.917   2.921  0.1857  3.1747 -0.5958
 3240TIP3    H2 9654   2.237   2.943   3.040 -0.5908  0.8649 -0.6501
 3241TIP3   OH2 9655   0.591   2.316   4.284  0.1319  0.2930 -0.6133
 3241TIP3    H1 9656   0.522   2.371   4.247 -1.2478 -1.5993 -0.9627
 3241TIP3    H2 9657   0.573   2.229   4.249  2.4017 -0.3447 -0.2741
 3242TIP3   OH2 9658   8.131   2.904   2.713 -0.1152 -0.3284  0.1425
 3242TIP3    H1 9659   8.176   2.830   2.671 -1.4185 -1.0365 -0.0484
 3242TIP3    H2 9660   8.157   2.980   2.662 -0.3220 -0.9408 -0.9005
 3243TIP3   OH2 9661   0.218   4.500   2.960  0.0951  0.0439 -0.1742
 3243TIP3    H1 9662   0.279   4.535   2.896 -0.0887 -1.1694 -1.0327
 3243TIP3    H2 9663   0.162   4.573   2.983  1.8137  1.1612  0.5697
 3244TIP3   OH2 9664   7.390   2.001   4.596 -0.1865  0.2734 -0.6749
 3244TIP3    H1 9665   7.395   1.939   4.668 -0.5632 -1.2259 -1.9143
 3244TIP3    H2 9666   7.297   2.005   4.574 -0.0600  0.6188 -1.1514
 3245TIP3   OH2 9667   0.398   1.874   1.969  0.5273  0.4464  0.4177
 3245TIP3    H1 9668   0.393   1.884   1.874  2.0869  0.2091  0.3009
 3245TIP3    H2 9669   0.307   1.860   1.996  0.0599  0.5870 -1.0207
 3246TIP3   OH2 9670   1.015   3.412   2.222  0.4014  0.9549  0.3740
 3246TIP3    H1 9671   0.943   3.440   2.166 -0.6142  1.2408  1.7872
 3246TIP3    H2 9672   1.093   3.423   2.168 -0.5604  1.1577 -0.9957
 3247TIP3   OH2 9673   1.669   2.654   3.808  0.5176 -0.3284  0.2317
 3247TIP3    H1 9674   1.728   2.617   3.742  0.2329  1.1076 -0.8463
 3247TIP3    H2 9675   1.725   2.714   3.858  0.4963 -0.6666  0.6635
 3248TIP3   OH2 9676   1.716   4.522   1.915 -0.2557  0.2502 -0.3293
 3248TIP3    H1 9677   1.751   4.444   1.873  0.1537 -0.0225  0.5158
 3248TIP3    H2 9678   1.759   4.525   2.001 -1.1141  0.7826  0.0881
 3249TIP3   OH2 9679   8.030   4.552   4.847  0.5407  0.2009 -0.2027
 3249TIP3    H1 9680   8.098   4.500   4.889  0.7673  0.6450 -0.0179
 3249TIP3    H2 9681   8.028   4.634   4.896 -0.8847 -0.2342  0.4936
 3250TIP3   OH2 9682   7.857   3.090   4.622 -0.4905 -0.8448 -0.2731
 3250TIP3    H1 9683   7.935   3.035   4.633  0.2131 -0.2724 -2.2430
 3250TIP3    H2 9684   7.860   3.150   4.696  1.7436  0.1110 -1.0746
 3251TIP3   OH2 9685   1.136   2.244   2.431  0.3353  0.1322  0.4807
 3251TIP3    H1 9686   1.134   2.166   2.375 -1.5065  1.0191 -0.7256
 3251TIP3    H2 9687   1.169   2.313   2.375 -0.5393  0.7961  0.7695
 3252TIP3   OH2 9688   0.434   3.657   2.188 -0.3179  0.0197 -0.1438
 3252TIP3    H1 9689   0.463   3.617   2.106  0.0624  0.6622 -0.3299
 3252TIP3    H2 9690   0.395   3.741   2.161 -4.9920 -2.0162 -0.2025
 3253TIP3   OH2 9691   8.151   3.247   3.788 -0.0812  0.2982 -0.1704
 3253TIP3    H1 9692   8.177   3.267   3.878 -1.9881  1.4197  0.1673
 3253TIP3    H2 9693   8.167   3.329   3.741 -0.7634  0.2653 -0.4552
 3254TIP3   OH2 9694   0.605   5.290   3.261 -0.2270 -0.1144 -0.0406
 3254TIP3    H1 9695   0.567   5.203   3.246  0.5398 -0.4481 -0.0940
 3254TIP3    H2 9696   0.590   5.306   3.354 -0.4529 -0.2640 -0.0491
 3255TIP3   OH2 9697   1.105   3.160   2.636  0.3313  0.8297  0.2109
 3255TIP3    H1 9698   1.117   3.197   2.724 -0.4438  1.3244  0.1120
 3255TIP3    H2 9699   1.052   3.224   2.590 -0.1777  0.0594 -0.2839
 3256TIP3   OH2 9700   6.046   7.850   3.310 -0.6631  0.2109  0.8835
 3256TIP3    H1 9701   6.027   7.784   3.377  0.3140  0.4426  1.3864
 3256TIP3    H2 9702   5.965   7.900   3.302 -1.2966 -0.8125  0.7622
 3257TIP3   OH2 9703   7.549   2.540   0.412 -0.3646 -0.1330  0.1656
 3257TIP3    H1 9704   7.628   2.564   0.363 -0.3191 -0.2017  0.2037
 3257TIP3    H2 9705   7.486   2.514   0.346  0.5213 -2.6783  0.2490
 3258TIP3   OH2 9706   0.689   2.369   4.665  0.3571  0.2358 -0.2562
 3258TIP3    H1 9707   0.691   2.458   4.700 -2.0217  0.9202 -1.7789
 3258TIP3    H2 9708   0.602   2.336   4.688 -0.3039 -0.2053 -3.2652
 3259TIP3   OH2 9709   6.417   3.416   1.760 -0.8611  0.0000  0.4024
 3259TIP3    H1 9710   6.327   3.434   1.733 -0.4537 -1.2185 -1.8624
 3259TIP3    H2 9711   6.471   3.447   1.688  0.3794 -1.4773  0.6651
 3260TIP3   OH2 9712   0.139   1.482   4.685 -0.0199  0.2260  0.1621
 3260TIP3    H1 9713   0.165   1.397   4.720  0.8560 -0.0925 -1.2577
 3260TIP3    H2 9714   0.190   1.545   4.736  1.8988 -0.2862 -1.0846
 3261TIP3   OH2 9715   7.897   4.748   0.971 -0.4558 -0.1917 -0.4124
 3261TIP3    H1 9716   7.911   4.807   1.045  2.5641 -1.0146 -0.2664
 3261TIP3    H2 9717   7.859   4.669   1.009  0.1738 -0.2331  0.1337
 3262TIP3   OH2 9718   1.110   3.350   3.437 -0.1505  0.1310 -0.4110
 3262TIP3    H1 9719   1.017   3.340   3.414 -0.0619  1.1288 -1.2603
 3262TIP3    H2 9720   1.148   3.397   3.362  0.8279  0.6251  0.3820
 3263TIP3   OH2 9721   8.322   1.622   2.777 -0.1433 -0.2920 -0.3079
 3263TIP3    H1 9722   8.250   1.626   2.715 -0.3860  0.7289  0.0250
 3263TIP3    H2 9723   8.363   1.537   2.761 -1.4761 -0.9245 -0.4275
 3264TIP3   OH2 9724   7.985   2.454   4.765 -0.0592 -0.0008 -0.7199
 3264TIP3    H1 9725   7.991   2.537   4.813  1.3816  0.3434 -1.4637
 3264TIP3    H2 9726   8.014   2.388   4.828 -0.8156  0.1056 -0.2563
 3265TIP3   OH2 9727   7.816   0.962   1.817  0.1461 -0.3921  0.1365
 3265TIP3    H1 9728   7.763   0.906   1.874 -1.0220  1.3259  0.7952
 3265TIP3    H2 9729   7.844   1.034   1.874 -1.4507  1.6168 -1.5532
 3266TIP3   OH2 9730   6.917   3.298   1.965  0.5516  0.1483 -0.0270
 3266TIP3    H1 9731   6.920   3.389   1.996 -0.3886 -0.2580  1.3262
 3266TIP3    H2 9732   6.849   3.297   1.898 -0.1470  0.2555  0.6692
 3267TIP3   OH2 9733   7.321   2.332   1.712 -0.2349  0.0008 -0.1617
 3267TIP3    H1 9734   7.296   2.424   1.718 -1.4588 -0.3517  0.3336
 3267TIP3    H2 9735   7.415   2.334   1.695  0.0918  1.3048  1.6457
 3268TIP3   OH2 9736   7.917   1.472   3.942  0.4551  0.0353 -0.0778
 3268TIP3    H1 9737   7.938   1.431   3.858  0.1844  1.2130 -0.7383
 3268TIP3    H2 9738   7.830   1.509   3.930 -0.8749 -2.3889  1.7386
 3269TIP3   OH2 9739   2.907   2.595   3.289  0.0242 -0.6698  0.3828
 3269TIP3    H1 9740   2.984   2.546   3.319  0.4894 -0.8198 -1.0577
 3269TIP3    H2 9741   2.939   2.683   3.272 -0.2814 -0.5411  0.4605
 3270TIP3   OH2 9742   8.324   0.572   1.596 -0.0973 -0.0917 -0.3589
 3270TIP3    H1 9743   8.411   0.612   1.600 -0.1131 -0.1652  0.9787
 3270TIP3    H2 9744   8.295   0.569   1.688 -1.8034  0.5842 -0.8553
 3271TIP3   OH2 9745   7.801   3.581   0.967  0.1185 -0.4577 -0.1461
 3271TIP3    H1 9746   7.830   3.648   0.905 -1.0025  3.1528  3.0522
 3271TIP3    H2 9747   7.854   3.504   0.944  2.7442  1.9716 -2.8328
 3272TIP3   OH2 9748   7.213   3.125   3.751 -0.3908  0.1227  0.0641
 3272TIP3    H1 9749   7.177   3.042   3.720 -0.0162  0.0175 -0.1005
 3272TIP3    H2 9750   7.263   3.100   3.830 -1.5720  0.4270  0.9173
 3273TIP3   OH2 9751   0.673   2.093   2.860  0.7724 -0.4895 -0.3442
 3273TIP3    H1 9752   0.660   2.119   2.951  0.5175 -0.7122 -0.3161
 3273TIP3    H2 9753   0.644   2.168   2.808  2.2097  0.1722 -0.2150
 3274TIP3   OH2 9754   8.108   2.693   4.361  0.1490  0.2049 -0.3124
 3274TIP3    H1 9755   8.031   2.703   4.305  1.2155  1.4400 -1.5884
 3274TIP3    H2 9756   8.133   2.782   4.385  1.3780 -0.1653 -0.1794
 3275TIP3   OH2 9757   7.984   2.250   1.585  0.2003 -0.0087 -0.3344
 3275TIP3    H1 9758   7.926   2.174   1.590  3.1300 -2.3279 -0.2451
 3275TIP3    H2 9759   8.033   2.249   1.667  0.2842  2.0007 -0.3291
 3276TIP3   OH2 9760   0.990   1.394   4.535 -0.2216 -0.1744 -0.0296
 3276TIP3    H1 9761   0.962   1.352   4.616  0.2539  0.0186  0.2339
 3276TIP3    H2 9762   1.075   1.433   4.556 -0.7927  1.1736 -0.1778
 3277TIP3   OH2 9763   0.337   5.788   3.397 -0.5016  0.3509 -0.2261
 3277TIP3    H1 9764   0.381   5.815   3.316  1.4224 -2.8438 -0.3277
 3277TIP3    H2 9765   0.408   5.785   3.462 -1.4599 -0.1850  0.7988
 3278TIP3   OH2 9766   1.142   4.839   2.566 -0.0191  0.1376  0.0992
 3278TIP3    H1 9767   1.141   4.932   2.590 -1.7905 -0.0469  0.7949
 3278TIP3    H2 9768   1.206   4.834   2.494  2.7059  1.2815  2.3406
 3279TIP3   OH2 9769   7.034   2.218   0.859 -0.2391 -0.5390 -0.1875
 3279TIP3    H1 9770   7.121   2.234   0.823  0.1724  1.5562  1.6702
 3279TIP3    H2 9771   7.005   2.303   0.891 -2.0498 -1.6484  1.2265
 3280TIP3   OH2 9772   2.482   3.593   3.167 -0.0734  0.4296 -0.3851
 3280TIP3    H1 9773   2.464   3.509   3.124  0.0696  0.6279 -0.8348
 3280TIP3    H2 9774   2.487   3.571   3.260  0.2904 -0.1192 -0.5278
 3281TIP3   OH2 9775   0.262   3.184   2.960 -0.6811 -0.0344 -0.0121
 3281TIP3    H1 9776   0.320   3.257   2.980  0.8895 -1.1333 -0.5183
 3281TIP3    H2 9777   0.187   3.197   3.019  0.3483  1.0501  1.0991
 3282TIP3   OH2 9778   0.881   3.652   2.938 -0.6798 -0.0589 -0.3594
 3282TIP3    H1 9779   0.825   3.717   2.896 -0.2034 -0.5670 -1.8080
 3282TIP3    H2 9780   0.837   3.569   2.923 -1.3969 -0.0654  1.6718
 3283TIP3   OH2 9781   6.504   5.440   3.144  0.2092 -0.2908  0.3932
 3283TIP3    H1 9782   6.543   5.356   3.122 -0.3637  0.1304 -2.4202
 3283TIP3    H2 9783   6.569   5.483   3.200  0.5719 -2.5003  1.7206
 3284TIP3   OH2 9784   0.080   2.593   1.938  0.3379 -0.8782 -0.3161
 3284TIP3    H1 9785   0.007   2.652   1.955  0.6638 -0.5644 -0.0116
 3284TIP3    H2 9786   0.127   2.633   1.865  0.7169 -0.6161  0.0699
 3285TIP3   OH2 9787   1.260   4.020   1.744  0.5385  0.3079  0.5063
 3285TIP3    H1 9788   1.184   4.064   1.708  0.5143 -0.4153 -0.3293
 3285TIP3    H2 9789   1.333   4.080   1.729  0.5120  0.0508 -0.6596
 3286TIP3   OH2 9790   8.256   3.907   1.179  0.6118  0.6375  0.1109
 3286TIP3    H1 9791   8.231   3.853   1.104  1.2250 -2.4042  2.0061
 3286TIP3    H2 9792   8.175   3.952   1.203 -0.2921 -0.5418 -0.6304
 3287TIP3   OH2 9793   2.053   4.839   3.283 -0.0499 -0.2357  0.2582
 3287TIP3    H1 9794   1.970   4.813   3.322 -0.4876  0.6028 -0.0934
 3287TIP3    H2 9795   2.051   4.804   3.194 -0.1131 -0.0435  0.1838
 3288TIP3   OH2 9796   0.672   4.079   4.657 -0.3296  0.2929 -0.1235
 3288TIP3    H1 9797   0.661   4.020   4.731 -0.1946 -0.5402 -0.7484
 3288TIP3    H2 9798   0.618   4.155   4.678 -0.3727  0.0189  0.7745
 3289TIP3   OH2 9799   1.476   1.360   3.990 -0.5652 -0.3707 -0.3017
 3289TIP3    H1 9800   1.551   1.305   4.011 -0.9721 -0.5471  0.7473
 3289TIP3    H2 9801   1.507   1.450   4.002 -0.8607 -0.4676  1.4256
 3290TIP3   OH2 9802   8.104   4.811   3.806 -0.0735  0.2385  0.5467
 3290TIP3    H1 9803   8.015   4.824   3.837 -0.1441  0.4955  0.2325
 3290TIP3    H2 9804   8.146   4.897   3.817 -0.8053  1.0369 -2.4180
 3291TIP3   OH2 9805   7.839   3.243   2.641 -0.0872 -0.2500 -0.4920
 3291TIP3    H1 9806   7.871   3.274   2.726 -0.2995  1.4777 -1.0098
 3291TIP3    H2 9807   7.873   3.307   2.579  0.9037 -2.0544 -1.8488
 3292TIP3   OH2 9808   1.250   4.481   4.170 -0.2490  0.1715  0.6079
 3292TIP3    H1 9809   1.155   4.492   4.161 -0.2173  0.1132  0.1794
 3292TIP3    H2 9810   1.274   4.543   4.239 -0.7776 -0.7180  1.6080
 3293TIP3   OH2 9811   7.657   1.542   5.018  0.5353 -0.1919 -0.1630
 3293TIP3    H1 9812   7.632   1.452   4.998  0.3084  0.2674 -2.0891
 3293TIP3    H2 9813   7.574   1.589   5.025  0.6614 -0.0800  0.5625
 3294TIP3   OH2 9814   5.909   3.556   4.523 -0.2167  0.6648  0.4342
 3294TIP3    H1 9815   5.861   3.563   4.440 -0.9964 -1.7000  0.6485
 3294TIP3    H2 9816   5.960   3.637   4.528 -1.3095  1.5252 -1.6205
 3295TIP3   OH2 9817   0.268   2.611   5.266 -0.4513 -0.7663 -0.3185
 3295TIP3    H1 9818   0.197   2.666   5.233 -1.4000 -1.2058  0.9505
 3295TIP3    H2 9819   0.336   2.673   5.292 -1.2163 -0.2075  0.4014
 3296TIP3   OH2 9820   0.234   3.677   5.327 -0.5635  0.3509 -0.0599
 3296TIP3    H1 9821   0.162   3.653   5.268 -0.1629 -1.0855  0.0079
 3296TIP3    H2 9822   0.201   3.656   5.415  0.1161 -0.8168 -0.0699
 3297TIP3   OH2 9823   0.978   4.322   4.131 -1.3589 -0.0875 -0.0079
 3297TIP3    H1 9824   0.951   4.240   4.172  1.2887 -0.5850  0.8231
 3297TIP3    H2 9825   0.941   4.318   4.043 -0.6883 -2.5066 -0.2183
 3298TIP3   OH2 9826   7.653   5.872   1.960  0.1741 -0.2552  0.1280
 3298TIP3    H1 9827   7.599   5.801   1.996  2.3948 -1.2351  1.6100
 3298TIP3    H2 9828   7.743   5.849   1.984  1.2536  1.5229 -1.9997
 3299TIP3   OH2 9829   1.545   3.732   4.623  0.2863 -0.3672  0.2636
 3299TIP3    H1 9830   1.512   3.810   4.668  2.6133  0.1708  1.0946
 3299TIP3    H2 9831   1.490   3.725   4.545 -2.4121 -0.0584  2.0434
 3300TIP3   OH2 9832   0.708   3.382   4.782  0.0806  0.5810 -0.0523
 3300TIP3    H1 9833   0.709   3.458   4.724 -1.6483  0.6187 -0.0498
 3300TIP3    H2 9834   0.684   3.417   4.868 -0.4774  0.0565  0.0046
 3301TIP3   OH2 9835   0.208   3.728   3.649  0.2712  0.3949 -0.0098
 3301TIP3    H1 9836   0.217   3.809   3.699 -0.3758 -0.4980  1.5898
 3301TIP3    H2 9837   0.120   3.732   3.612  0.0523  0.2180  0.4792
 3302TIP3   OH2 9838   7.792   2.917   3.142 -0.2014  0.6706 -0.0071
 3302TIP3    H1 9839   7.795   2.824   3.120 -0.6253  0.7482 -0.4138
 3302TIP3    H2 9840   7.819   2.961   3.061 -1.2837  0.9441 -0.2248
 3303TIP3   OH2 9841   5.805   3.409   4.253 -0.1265  0.3889  0.4672
 3303TIP3    H1 9842   5.878   3.459   4.216 -1.2517  0.4631 -1.7084
 3303TIP3    H2 9843   5.820   3.319   4.226 -0.7874  0.3888  0.0787
 3304TIP3   OH2 9844   2.650   3.229   3.456 -0.0374  0.0687  0.7672
 3304TIP3    H1 9845   2.727   3.192   3.500  0.4236  2.3094  1.9354
 3304TIP3    H2 9846   2.589   3.247   3.528 -1.0844 -0.3270 -0.0095
 3305TIP3   OH2 9847   1.236   2.095   4.844  0.3683  0.1864  0.0076
 3305TIP3    H1 9848   1.293   2.170   4.833  0.7376  0.0183  0.7497
 3305TIP3    H2 9849   1.148   2.132   4.851  0.2483  0.3712 -2.2356
 3306TIP3   OH2 9850   7.037   3.956   4.086 -0.6539  0.3526 -0.0190
 3306TIP3    H1 9851   7.032   4.041   4.131  0.5150  0.2103  0.4158
 3306TIP3    H2 9852   7.092   3.903   4.144  0.1381 -0.1191 -1.2031
 3307TIP3   OH2 9853   1.040   1.731   5.214 -0.5030 -0.0391 -0.6174
 3307TIP3    H1 9854   0.948   1.738   5.240 -0.7330 -2.6237 -0.6030
 3307TIP3    H2 9855   1.087   1.717   5.297 -0.6594 -3.2283 -0.9957
 3308TIP3   OH2 9856   6.033   3.625   3.879  0.2444 -0.3998 -0.3236
 3308TIP3    H1 9857   5.999   3.571   3.950  2.3119  0.0270  1.0597
 3308TIP3    H2 9858   6.126   3.635   3.900  0.1697  2.6037 -1.2628
 3309TIP3   OH2 9859   1.402   6.276   6.871 -0.9953  0.1374  0.0727
 3309TIP3    H1 9860   1.314   6.306   6.850 -0.5759  0.8607 -0.7202
 3309TIP3    H2 9861   1.433   6.336   6.939 -1.6380 -1.0115  1.4067
 3310TIP3   OH2 9862   0.245   3.412   3.257 -0.1127  0.0115 -0.1994
 3310TIP3    H1 9863   0.198   3.368   3.328 -0.7641  0.1321 -0.5550
 3310TIP3    H2 9864   0.271   3.496   3.294  0.7560 -0.4894  0.3407
 3311TIP3   OH2 9865   2.865   3.811   2.514  0.1955 -0.1912 -0.5427
 3311TIP3    H1 9866   2.817   3.809   2.431 -0.2757  0.1883 -0.2792
 3311TIP3    H2 9867   2.884   3.903   2.529 -0.4802 -0.1649  0.2015
 3312TIP3   OH2 9868   0.307   5.109   4.813  0.3096 -0.5953  0.1031
 3312TIP3    H1 9869   0.367   5.183   4.814  0.5991 -0.8196 -0.6922
 3312TIP3    H2 9870   0.311   5.073   4.902  1.1740 -0.4718  0.1133
 3313TIP3   OH2 9871   1.213   2.852   3.515  0.3154 -0.4236 -0.3517
 3313TIP3    H1 9872   1.248   2.781   3.570  2.4899 -0.4239 -1.6816
 3313TIP3    H2 9873   1.125   2.823   3.492  0.2366 -1.5069  1.2044
 3314TIP3   OH2 9874   0.240   5.672   3.806  0.0278  0.0255  0.2751
 3314TIP3    H1 9875   0.296   5.595   3.798 -1.3859 -1.0489  0.4990
 3314TIP3    H2 9876   0.301   5.745   3.811  1.3706 -0.8964 -1.7914
 3315TIP3   OH2 9877   0.037   5.011   4.430 -0.8566 -0.2373  0.1331
 3315TIP3    H1 9878   0.112   4.960   4.460 -1.4825 -0.9220  0.5421
 3315TIP3    H2 9879   0.055   5.100   4.459 -0.8113 -0.6366  1.3662
 3316TIP3   OH2 9880   1.512   3.369   2.945  0.2396  0.2595 -0.3255
 3316TIP3    H1 9881   1.551   3.456   2.957  2.1034 -0.1522 -2.9914
 3316TIP3    H2 9882   1.419   3.383   2.958  0.6458  2.4390  0.4692
 3317TIP3   OH2 9883   0.661   1.782   2.388 -0.2980  0.3832 -0.0593
 3317TIP3    H1 9884   0.748   1.770   2.425  0.1009  1.0127 -0.7993
 3317TIP3    H2 9885   0.643   1.699   2.342  1.3123  1.4948 -2.7870
 3318TIP3   OH2 9886   0.494   4.661   2.254 -0.0218  0.5615 -1.0891
 3318TIP3    H1 9887   0.587   4.651   2.238 -0.0882  0.7854 -1.6191
 3318TIP3    H2 9888   0.475   4.601   2.326  0.4955  0.3951 -1.0933
 3319TIP3   OH2 9889   0.671   3.785   3.217  0.1127 -0.3222  0.1237
 3319TIP3    H1 9890   0.659   3.750   3.305 -0.1579  0.2357  0.3108
 3319TIP3    H2 9891   0.758   3.825   3.219  0.0867 -0.2678  0.1467
 3320TIP3   OH2 9892   8.096   2.865   3.417 -0.6128 -0.7563  0.0286
 3320TIP3    H1 9893   8.113   2.857   3.511 -1.4851 -1.5120  0.1280
 3320TIP3    H2 9894   8.182   2.859   3.376 -0.2100 -0.2012  0.8017
 3321TIP3   OH2 9895   3.408   2.464   3.921 -0.3462  0.0477 -0.4844
 3321TIP3    H1 9896   3.465   2.391   3.897 -1.1263 -0.7188 -0.0268
 3321TIP3    H2 9897   3.368   2.437   4.003 -1.8043  0.3265 -1.0848
 3322TIP3   OH2 9898   2.341   3.584   3.810  0.0561  0.4704  0.8759
 3322TIP3    H1 9899   2.251   3.571   3.839 -0.2663 -1.4225 -0.8977
 3322TIP3    H2 9900   2.336   3.656   3.747 -0.7605 -1.7330 -1.6461
 3323TIP3   OH2 9901   0.079   3.648   1.339 -0.7348 -0.3301  0.3342
 3323TIP3    H1 9902   0.075   3.573   1.281  1.3093 -1.0516  1.0646
 3323TIP3    H2 9903   0.128   3.617   1.415  0.0394  1.6797  0.6982
 3324TIP3   OH2 9904   2.205   3.211   1.884  0.1420 -0.1461  0.3954
 3324TIP3    H1 9905   2.122   3.252   1.859 -0.3500 -0.5737  1.2994
 3324TIP3    H2 9906   2.225   3.248   1.970 -0.3970 -1.9261  1.3068
 3325TIP3   OH2 9907   1.296   3.387   5.384 -0.5273  0.0226 -0.1175
 3325TIP3    H1 9908   1.226   3.353   5.329 -0.1875 -1.0943  0.1408
 3325TIP3    H2 9909   1.376   3.371   5.333 -0.1416 -1.6210  0.9695
 3326TIP3   OH2 9910   8.323   3.757   5.805  0.0420  0.1584  0.0558
 3326TIP3    H1 9911   8.243   3.711   5.831 -1.0136  1.0143 -1.5972
 3326TIP3    H2 9912   8.340   3.726   5.716  0.4664  1.4263 -0.3117
 3327TIP3   OH2 9913   0.409   2.891   3.248  0.2834  0.5691 -0.2408
 3327TIP3    H1 9914   0.425   2.880   3.341  1.7468  1.8360 -0.3404
 3327TIP3    H2 9915   0.439   2.809   3.208  2.2134  1.1037  0.0957
 3328TIP3   OH2 9916   2.681   3.750   2.323  0.5438 -0.2782  0.2862
 3328TIP3    H1 9917   2.658   3.657   2.318 -0.0049 -0.0575 -3.6651
 3328TIP3    H2 9918   2.620   3.792   2.261  0.0691  2.8941  2.7629
 3329TIP3   OH2 9919   7.876   2.459   3.527  0.3576 -0.0767  0.1009
 3329TIP3    H1 9920   7.846   2.374   3.494 -0.4231  0.5077 -0.7386
 3329TIP3    H2 9921   7.854   2.457   3.620 -1.4736 -0.0373 -0.3093
 3330TIP3   OH2 9922   1.849   2.371   4.152 -0.9356 -0.2487 -0.1342
 3330TIP3    H1 9923   1.833   2.451   4.102 -0.3136 -0.9296 -1.4594
 3330TIP3    H2 9924   1.900   2.400   4.228 -0.9898  0.6572 -0.4306
 3331TIP3   OH2 9925   2.964   2.164   3.551  0.1410 -1.0353 -0.0057
 3331TIP3    H1 9926   3.058   2.170   3.532  0.2831 -2.8882  0.0424
 3331TIP3    H2 9927   2.922   2.209   3.478  1.1302  1.4662  0.9346
 3332TIP3   OH2 9928   3.753   3.558   1.568  0.1171  0.1397 -0.5855
 3332TIP3    H1 9929   3.794   3.540   1.653 -0.3932  1.4859 -0.0504
 3332TIP3    H2 9930   3.673   3.505   1.568  0.7493 -0.8368 -0.7578
 3333TIP3   OH2 9931   6.923   1.427   5.104 -0.0225 -0.0561  0.1248
 3333TIP3    H1 9932   6.882   1.497   5.053  1.2169  1.3329  1.0015
 3333TIP3    H2 9933   6.879   1.347   5.075 -2.7657  1.2837  0.4699
 3334TIP3   OH2 9934   7.095   3.985   3.825  0.3953  0.1380 -0.3371
 3334TIP3    H1 9935   7.035   4.059   3.810  0.4874  0.6742  1.8425
 3334TIP3    H2 9936   7.056   3.937   3.898  1.1790 -1.0983 -0.7163
 3335TIP3   OH2 9937   8.385   4.365   3.746  0.3053  0.1044 -0.5638
 3335TIP3    H1 9938   8.446   4.293   3.760  0.5464  0.2239 -0.9902
 3335TIP3    H2 9939   8.332   4.338   3.670  0.2210  0.2584 -0.5613
 3336TIP3   OH2 9940   0.672   4.788   3.066  0.0567  0.1242 -0.3071
 3336TIP3    H1 9941   0.631   4.719   3.119 -1.6075 -1.8120 -3.9545
 3336TIP3    H2 9942   0.761   4.757   3.051  0.7362  0.9686  1.7423
 3337TIP3   OH2 9943   1.161   0.691   5.250 -0.2339  0.2471  0.2504
 3337TIP3    H1 9944   1.122   0.742   5.179 -0.9761  0.0468  0.5166
 3337TIP3    H2 9945   1.132   0.735   5.330  0.7739  0.5962  0.4345
 3338TIP3   OH2 9946   1.222   5.530   0.287 -0.5514  0.0715  0.1909
 3338TIP3    H1 9947   1.263   5.515   0.372 -1.2948 -1.1978  0.3409
 3338TIP3    H2 9948   1.177   5.448   0.267 -0.9916  0.6061 -1.0939
 3339TIP3   OH2 9949   0.448   3.122   0.623  0.3909 -0.3520 -0.2358
 3339TIP3    H1 9950   0.411   3.080   0.546 -0.1658 -0.3153  0.0091
 3339TIP3    H2 9951   0.378   3.119   0.688  0.9094 -0.5128  0.3133
 3340TIP3   OH2 9952   1.114   4.349   2.240  0.4020  0.1818 -0.1612
 3340TIP3    H1 9953   1.183   4.325   2.178 -0.3676 -0.1962 -0.8846
 3340TIP3    H2 9954   1.059   4.411   2.192 -0.7046 -0.7795 -0.1818
 3341TIP3   OH2 9955   1.335   4.429   1.958 -0.2690 -0.2437  0.1229
 3341TIP3    H1 9956   1.371   4.377   2.031 -0.6692 -2.0554 -0.9440
 3341TIP3    H2 9957   1.241   4.426   1.971 -0.3367 -0.5266 -0.4357
 3342TIP3   OH2 9958   1.133   2.707   2.389  0.3877 -0.6443 -0.1644
 3342TIP3    H1 9959   1.058   2.742   2.437  0.4168 -0.0049 -0.5804
 3342TIP3    H2 9960   1.204   2.707   2.453  0.1155 -0.9468  0.1394
 3343TIP3   OH2 9961   7.522   2.560   2.864 -0.3244 -0.1546  0.1073
 3343TIP3    H1 9962   7.453   2.624   2.881  0.3711  0.2694  1.3554
 3343TIP3    H2 9963   7.580   2.603   2.801 -1.3087 -0.5994 -1.1184
 3344TIP3   OH2 9964  -0.033   1.196   2.380  0.2387 -0.2752  1.2387
 3344TIP3    H1 9965   0.013   1.272   2.344  2.2941 -1.7532  0.6209
 3344TIP3    H2 9966   0.034   1.127   2.384 -1.7661 -2.3042  1.0191
 3345TIP3   OH2 9967   1.104   3.860   2.645 -0.0468 -0.4866 -0.5107
 3345TIP3    H1 9968   1.119   3.765   2.640 -0.2770 -0.5404 -0.2187
 3345TIP3    H2 9969   1.017   3.872   2.607  0.4134 -0.2632 -1.5168
 3346TIP3   OH2 9970   2.220   3.513   3.520  0.1048 -0.3477  0.0852
 3346TIP3    H1 9971   2.157   3.572   3.478 -1.2172 -3.1155 -2.0267
 3346TIP3    H2 9972   2.167   3.463   3.582  0.6172 -1.2463 -0.1953
 3347TIP3   OH2 9973   0.027   1.964   1.915  0.3666  0.1662  0.2671
 3347TIP3    H1 9974   0.003   1.872   1.921  0.2798  0.0621 -1.3659
 3347TIP3    H2 9975   0.067   1.972   1.828  1.4088  1.4288  0.8463
 3348TIP3   OH2 9976   8.203   3.144   2.625  0.3172 -0.6215  0.0378
 3348TIP3    H1 9977   8.292   3.145   2.589 -0.0831  1.1094 -0.9999
 3348TIP3    H2 9978   8.199   3.222   2.680 -0.8838 -0.0901 -0.7783
 3349TIP3   OH2 9979   2.032   3.117   3.601 -0.6109 -0.4995 -0.3451
 3349TIP3    H1 9980   2.039   3.195   3.656  1.7159 -2.0238  1.6396
 3349TIP3    H2 9981   1.951   3.074   3.630 -0.6357 -0.0656  0.2343
 3350TIP3   OH2 9982   6.630   2.725   2.430  0.3780 -0.6997  0.0973
 3350TIP3    H1 9983   6.593   2.810   2.408 -0.3992 -0.2243  3.1216
 3350TIP3    H2 9984   6.724   2.741   2.436  0.0357  0.5029  2.8995
 3351TIP3   OH2 9985   8.079   1.713   2.363 -0.0920  0.2567  0.3771
 3351TIP3    H1 9986   8.007   1.771   2.388 -0.8156  0.3944 -1.9222
 3351TIP3    H2 9987   8.106   1.672   2.445 -1.6505  1.4935  1.5429
 3352TIP3   OH2 9988   7.718   2.842   2.398  0.2641 -0.1697 -0.6184
 3352TIP3    H1 9989   7.624   2.829   2.384  0.2769 -1.4235  0.4079
 3352TIP3    H2 9990   7.739   2.921   2.348 -1.3611  0.1801 -0.7692
 3353TIP3   OH2 9991   0.630   4.856   3.655 -0.3167 -0.7002 -0.2582
 3353TIP3    H1 9992   0.553   4.825   3.704  0.6150  1.1403  2.5153
 3353TIP3    H2 9993   0.595   4.921   3.594 -1.1310 -0.8821  0.0051
 3354TIP3   OH2 9994   6.617   7.900   4.863  0.1248  0.0796 -0.3450
 3354TIP3    H1 9995   6.649   7.896   4.773 -0.6525  1.5943 -0.7137
 3354TIP3    H2 9996   6.694   7.920   4.915  0.2253  1.2661 -0.9343
 3355TIP3   OH2 9997   2.225   1.119   4.637  0.0826  0.5566  0.8491
 3355TIP3    H1 9998   2.227   1.213   4.656 -0.7002  0.9346 -0.8779
 3355TIP3    H2 9999   2.318   1.094   4.629  0.2331  1.6036 -0.6989
 3356TIP3   OH210000   0.086   3.399   4.586 -0.1226 -0.5461  0.2415
 3356TIP3    H110001   0.174   3.396   4.624 -0.6959  1.0330  1.7429
 3356TIP3    H210002   0.028   3.410   4.661 -1.5528 -0.8696 -0.8094
 3357TIP3   OH210003   7.073   3.990   4.477 -0.2491  0.2101 -0.3041
 3357TIP3    H110004   7.129   3.938   4.420  0.6299  0.3063  0.4494
 3357TIP3    H210005   7.041   3.928   4.543  1.2197  0.6915  0.9041
 3358TIP3   OH210006   3.300   3.181   2.373  0.1414 -0.6493  0.3250
 3358TIP3    H110007   3.240   3.141   2.436 -0.6717  0.7209  0.4521
 3358TIP3    H210008   3.377   3.206   2.424 -0.3606  0.1199  0.7180
 3359TIP3   OH210009   1.364   1.846   2.923  0.3264  0.4836  0.1040
 3359TIP3    H110010   1.411   1.844   2.840  0.4997  1.7999  0.1693
 3359TIP3    H210011   1.295   1.911   2.911 -1.0290 -0.8772  0.2703
 3360TIP3   OH210012   1.373   3.938   4.739  0.0391 -0.2181 -0.1838
 3360TIP3    H110013   1.300   3.978   4.691  0.0449 -0.3761 -0.3271
 3360TIP3    H210014   1.431   4.011   4.759  0.1705 -0.1892 -0.6614
 3361TIP3   OH210015   1.011   6.477   4.162 -0.3016 -0.1110  0.1862
 3361TIP3    H110016   0.966   6.404   4.205 -1.1430  0.1105 -0.3145
 3361TIP3    H210017   1.066   6.436   4.095  0.0863 -0.3667  0.6601
 3362TIP3   OH210018   7.995   4.808   2.376  0.2600 -0.2602  0.4905
 3362TIP3    H110019   7.962   4.752   2.306  0.7704 -1.0505  0.8701
 3362TIP3    H210020   8.085   4.779   2.389  0.9743  1.5622 -0.2259
 3363TIP3   OH210021   0.579   2.654   1.177  0.1121 -0.3258 -0.4632
 3363TIP3    H110022   0.612   2.565   1.165 -0.7048 -0.6777 -0.1213
 3363TIP3    H210023   0.610   2.680   1.264  0.1213 -0.3754 -0.4515
 3364TIP3   OH210024   1.908   3.042   3.014  0.3916 -0.4055 -0.2345
 3364TIP3    H110025   1.913   2.963   3.068  0.4010  0.0756  0.4732
 3364TIP3    H210026   1.828   3.086   3.044 -0.0851 -0.5836 -1.2348
 3365TIP3   OH210027   5.068   3.880   1.574  0.0328 -0.2911 -0.3148
 3365TIP3    H110028   5.159   3.850   1.578 -0.5373 -2.0774 -0.2903
 3365TIP3    H210029   5.024   3.832   1.644 -0.9129  0.6486 -0.2501
 3366TIP3   OH210030   1.554   4.789   2.779 -0.0508  0.0660  0.2874
 3366TIP3    H110031   1.475   4.737   2.760 -1.0304  0.8254  2.1889
 3366TIP3    H210032   1.612   4.728   2.824  0.1194 -0.2648 -0.3732
 3367TIP3   OH210033   1.976   3.201   1.045 -0.1902  0.5445  0.2384
 3367TIP3    H110034   1.929   3.120   1.066  2.5955 -0.9536  1.0267
 3367TIP3    H210035   2.037   3.212   1.117  3.2046  0.3886 -2.4907
 3368TIP3   OH210036   3.447   0.395   3.575  0.2724  0.0937  0.0126
 3368TIP3    H110037   3.525   0.341   3.592  0.9792  0.5580 -1.5896
 3368TIP3    H210038   3.443   0.456   3.648  1.9845  0.6847 -0.3561
 3369TIP3   OH210039   3.716   2.841   3.459  0.0600  0.8337 -0.4278
 3369TIP3    H110040   3.681   2.760   3.497 -0.9349  0.6842 -1.6114
 3369TIP3    H210041   3.730   2.819   3.367 -1.2311  2.3247 -1.0045
 3370TIP3   OH210042   1.606   0.207   3.307  0.1978  0.2704 -0.1608
 3370TIP3    H110043   1.660   0.212   3.227 -0.3140 -0.1408 -0.5315
 3370TIP3    H210044   1.518   0.228   3.277  0.2667  1.6784  0.5798
 3371TIP3   OH210045   0.707   2.701   2.446  0.4057  0.1070 -0.2912
 3371TIP3    H110046   0.664   2.689   2.531  3.4630  0.7257  1.4245
 3371TIP3    H210047   0.769   2.629   2.440  1.4166  1.0430 -1.2204
 3372TIP3   OH210048   0.456   3.021   2.596  0.2404 -0.3889 -0.5530
 3372TIP3    H110049   0.525   3.069   2.641 -0.5293  0.7508 -0.5530
 3372TIP3    H210050   0.400   2.987   2.666 -0.6779  0.9582 -0.6236
 3373TIP3   OH210051   2.925   3.370   4.513 -0.1374  0.1754 -0.9686
 3373TIP3    H110052   2.971   3.340   4.591 -2.7086  1.8634  1.2564
 3373TIP3    H210053   2.987   3.430   4.470  0.5943  0.7079  0.7923
 3374TIP3   OH210054   3.175   1.491   3.515 -0.8764  0.4145 -0.5948
 3374TIP3    H110055   3.090   1.477   3.475 -0.4939  0.5964 -1.4796
 3374TIP3    H210056   3.232   1.518   3.443 -0.1035  0.4264  0.0081
 3375TIP3   OH210057   5.279   2.963   1.675  0.1433 -0.5531  0.0590
 3375TIP3    H110058   5.317   2.979   1.588 -0.0793 -2.2244 -0.3719
 3375TIP3    H210059   5.187   2.988   1.665  0.3879  0.3860  0.1556
 3376TIP3   OH210060   0.872   3.226   3.381  0.0165  0.6041  0.6061
 3376TIP3    H110061   0.827   3.304   3.349 -2.2109 -1.1559 -0.6391
 3376TIP3    H210062   0.807   3.181   3.435  1.3802 -0.2729  1.5575
 3377TIP3   OH210063   4.507   1.783   3.176 -0.1262  0.0071  0.2347
 3377TIP3    H110064   4.602   1.787   3.183 -0.2193 -0.7139  2.1263
 3377TIP3    H210065   4.490   1.695   3.142 -0.1736 -0.2871  1.0204
 3378TIP3   OH210066   0.937   2.309   3.516 -0.4498 -0.2433 -0.8248
 3378TIP3    H110067   0.990   2.388   3.525 -1.7305  0.6642 -1.0474
 3378TIP3    H210068   0.872   2.315   3.586 -0.1520 -1.4419 -0.4262
 3379TIP3   OH210069   0.206   4.259   4.087 -0.1666  0.1930 -0.4829
 3379TIP3    H110070   0.174   4.287   4.173 -2.7873 -0.7359 -1.0855
 3379TIP3    H210071   0.267   4.188   4.106 -0.2311  0.4314  0.6498
 3380TIP3   OH210072   0.804   2.840   4.745 -0.1468  0.5754 -0.0926
 3380TIP3    H110073   0.876   2.857   4.684  0.9894  1.7733  1.5682
 3380TIP3    H210074   0.841   2.852   4.832 -2.0849  0.1577  0.8364
 3381TIP3   OH210075   1.876   3.790   1.026 -0.0004 -0.3262  0.1347
 3381TIP3    H110076   1.882   3.722   1.093 -0.2414 -1.8668 -1.3772
 3381TIP3    H210077   1.960   3.786   0.980  0.8786  1.9320  1.4272
 3382TIP3   OH210078   3.832   3.934   3.250  0.0493 -0.9988 -0.4104
 3382TIP3    H110079   3.845   3.972   3.337  1.0310 -1.1053 -0.5049
 3382TIP3    H210080   3.793   3.848   3.267  0.2501 -1.0246 -0.0726
 3383TIP3   OH210081   1.847   3.743   2.401 -0.0659 -0.5512 -0.6797
 3383TIP3    H110082   1.812   3.809   2.341  0.6342 -0.3203 -0.8455
 3383TIP3    H210083   1.781   3.734   2.469 -0.4245 -0.0969 -0.9673
 3384TIP3   OH210084   4.136   4.687   3.671  0.0185 -0.3949  0.2950
 3384TIP3    H110085   4.043   4.689   3.697  0.6175 -1.1488  2.7043
 3384TIP3    H210086   4.158   4.778   3.651 -1.1949 -0.1803 -0.0888
 3385TIP3   OH210087   1.573   3.596   1.450 -0.6304  0.5726 -0.0968
 3385TIP3    H110088   1.510   3.636   1.510 -0.7590  0.3163 -0.0566
 3385TIP3    H210089   1.524   3.523   1.410 -0.1487 -0.0471  0.4304
 3386TIP3   OH210090   1.300   3.895   3.991 -0.3521 -0.1135 -0.0410
 3386TIP3    H110091   1.211   3.929   3.991  0.1263  1.1696  0.1150
 3386TIP3    H210092   1.339   3.930   4.072  1.2993  2.0499 -1.7092
 3387TIP3   OH210093   4.259   5.503   3.340  0.4642 -0.0999  0.5069
 3387TIP3    H110094   4.222   5.426   3.297  0.4967  0.2022 -0.0533
 3387TIP3    H210095   4.184   5.552   3.373  0.4450 -0.3900  0.9114
 3388TIP3   OH210096   2.557   3.805   0.626 -0.2763  0.0096  0.6049
 3388TIP3    H110097   2.525   3.879   0.574  1.4668  0.0641 -0.4473
 3388TIP3    H210098   2.565   3.839   0.715  1.0962  1.3009  0.0152
 3389TIP3   OH210099   4.114   3.077   4.803  0.3717 -0.0477  0.3298
 3389TIP3    H110100   4.188   3.094   4.862  0.2068  1.0860  0.2294
 3389TIP3    H210101   4.037   3.095   4.856  0.2094  0.3375 -0.0290
 3390TIP3   OH210102   2.448   3.472   0.801  0.2507 -0.0296 -0.1233
 3390TIP3    H110103   2.455   3.489   0.894  2.1169  1.3578 -0.5006
 3390TIP3    H210104   2.356   3.490   0.780  0.4134  2.1885  0.9655
 3391TIP3   OH210105   1.281   5.114   3.579  0.4857  0.0984 -0.1402
 3391TIP3    H110106   1.348   5.150   3.521  2.5269 -0.1510  1.9837
 3391TIP3    H210107   1.263   5.183   3.642  1.3037 -1.0196  1.3706
 3392TIP3   OH210108   1.888   3.931   4.675  0.4984  0.2826 -0.3935
 3392TIP3    H110109   1.905   3.849   4.628 -0.7143  0.5949 -1.4340
 3392TIP3    H210110   1.973   3.974   4.680  1.3632 -1.5580  1.2054
 3393TIP3   OH210111   1.515   6.431   2.440  0.1030 -0.4839 -0.1622
 3393TIP3    H110112   1.595   6.382   2.424 -0.4854 -2.2019  1.9257
 3393TIP3    H210113   1.456   6.368   2.482 -0.4034  2.2079  3.3731
 3394TIP3   OH210114   0.690   5.023   3.185 -0.4021 -0.6607 -0.4270
 3394TIP3    H110115   0.703   4.931   3.163  1.5211 -0.5092 -0.0211
 3394TIP3    H210116   0.779   5.059   3.191 -1.1195  1.0952 -0.0826
 3395TIP3   OH210117   2.870   4.880   1.539 -0.9187  0.1152  0.1143
 3395TIP3    H110118   2.944   4.897   1.480 -0.6998 -1.2525 -0.0315
 3395TIP3    H210119   2.850   4.965   1.578  1.1092  0.4048  0.5818
 3396TIP3   OH210120   0.123   2.768   4.954 -0.2118  0.1279  0.3731
 3396TIP3    H110121   0.137   2.674   4.950  0.5758  0.2705 -0.4611
 3396TIP3    H210122   0.112   2.787   5.047 -1.0551 -0.8730  0.4913
 3397TIP3   OH210123   2.459   3.954   3.025 -0.3524  0.4621 -0.0342
 3397TIP3    H110124   2.397   3.882   3.014  1.0028 -1.1192  2.1235
 3397TIP3    H210125   2.419   4.011   3.091 -0.2406  0.2685  0.2043
 3398TIP3   OH210126   2.588   4.411   1.407  0.9360 -0.0375 -0.0015
 3398TIP3    H110127   2.624   4.358   1.336 -0.4412  0.3049 -0.9992
 3398TIP3    H210128   2.644   4.488   1.411  1.0299 -0.0674 -0.7308
 3399TIP3   OH210129   0.915   4.048   2.439  0.3392  0.2876  0.5687
 3399TIP3    H110130   0.889   3.992   2.366  3.0250  1.0766 -1.0552
 3399TIP3    H210131   0.844   4.039   2.502 -2.1288 -0.3316 -2.1709
 3400TIP3   OH210132   1.396   5.903   3.394  0.1638  0.5786  0.4644
 3400TIP3    H110133   1.432   5.873   3.310  3.2536  0.5691  1.7376
 3400TIP3    H210134   1.319   5.847   3.408 -0.7877  0.9923 -2.6203
 3401TIP3   OH210135   1.878   3.382   2.277 -0.3508  0.2448 -0.0067
 3401TIP3    H110136   1.950   3.441   2.299 -0.4978  0.7936 -0.9663
 3401TIP3    H210137   1.895   3.355   2.187 -0.1824 -1.3474  0.4864
 3402TIP3   OH210138   1.714   0.854   3.675  0.0753 -0.3866  0.1088
 3402TIP3    H110139   1.685   0.945   3.682  0.3807 -0.3210  0.5523
 3402TIP3    H210140   1.796   0.851   3.725 -0.5523 -1.1775  1.0975
 3403TIP3   OH210141   4.373   3.326   2.757 -0.1953  0.6850 -0.3076
 3403TIP3    H110142   4.329   3.388   2.816  0.9541  0.7822  0.4598
 3403TIP3    H210143   4.306   3.303   2.693 -1.3712  0.8357  0.8385
 3404TIP3   OH210144   0.974   3.567   4.765  0.0896  0.3035  0.0149
 3404TIP3    H110145   1.068   3.558   4.782  0.1533 -0.7596 -0.8142
 3404TIP3    H210146   0.957   3.507   4.692 -1.2636  0.3643  0.2591
 3405TIP3   OH210147   0.855   5.112   1.685  0.3770  0.3314 -0.4789
 3405TIP3    H110148   0.852   5.086   1.777  0.3438 -1.3632 -0.9487
 3405TIP3    H210149   0.887   5.035   1.639  1.4301  1.5165 -1.7736
 3406TIP3   OH210150   1.902   2.951   5.143  0.0620 -0.2381  0.2892
 3406TIP3    H110151   1.869   2.976   5.230 -2.3108  1.5756 -1.0986
 3406TIP3    H210152   1.990   2.990   5.139 -0.1258  0.3599  1.5499
 3407TIP3   OH210153   1.566   3.643   1.881  0.0645 -0.0180  0.2426
 3407TIP3    H110154   1.589   3.685   1.798 -1.6754 -1.2740 -0.9020
 3407TIP3    H210155   1.479   3.676   1.900 -0.2730 -1.1582  0.6404
 3408TIP3   OH210156   2.885   4.981   1.145 -0.4024 -0.2373 -0.1415
 3408TIP3    H110157   2.950   4.945   1.204  1.9103  0.4360 -2.1941
 3408TIP3    H210158   2.895   5.076   1.152  0.3892 -0.1512 -2.0816
 3409TIP3   OH210159   2.753   0.087   6.901  0.1647 -0.4000 -0.2367
 3409TIP3    H110160   2.792  -0.000   6.906 -1.1494 -1.0292 -0.8693
 3409TIP3    H210161   2.772   0.116   6.811  1.1624  0.2377  0.1722
 3410TIP3   OH210162   3.660   2.365   2.252 -0.3725 -0.5588  0.8131
 3410TIP3    H110163   3.698   2.318   2.326 -2.6673 -0.3338  2.1837
 3410TIP3    H210164   3.698   2.453   2.258 -2.8950  0.4268  3.6704
 3411TIP3   OH210165   2.696   5.050   2.167  0.8450 -0.1406  0.6852
 3411TIP3    H110166   2.688   5.121   2.231  2.0518 -0.3083  1.0536
 3411TIP3    H210167   2.745   4.982   2.214 -0.1755 -1.1494  0.2871
 3412TIP3   OH210168   3.099   3.564   4.409 -0.9427 -0.1908 -0.2763
 3412TIP3    H110169   3.105   3.597   4.320 -0.1709  0.2636 -0.0624
 3412TIP3    H210170   3.146   3.629   4.462 -1.1895 -0.5773  0.4251
 3413TIP3   OH210171   3.703   3.436   3.728  0.0607 -0.1415  0.1103
 3413TIP3    H110172   3.696   3.391   3.812 -0.1334  1.9690  1.2699
 3413TIP3    H210173   3.795   3.462   3.723 -0.1645  0.6619  0.1642
 3414TIP3   OH210174   0.573   1.378   2.018 -0.2756 -0.3637 -0.3616
 3414TIP3    H110175   0.599   1.433   1.944  2.8049 -1.7954 -0.3938
 3414TIP3    H210176   0.582   1.289   1.987  0.7001 -0.9815  1.5906
 3415TIP3   OH210177   2.814   2.092   2.476  0.0476  0.1688 -0.1948
 3415TIP3    H110178   2.770   2.101   2.392 -0.2186  0.3037 -0.0446
 3415TIP3    H210179   2.838   2.181   2.501  0.0716  0.1370 -0.1014
 3416TIP3   OH210180   2.589   4.372   3.217  0.4354 -0.4878 -0.3472
 3416TIP3    H110181   2.656   4.414   3.164  0.5525  0.2430  0.3724
 3416TIP3    H210182   2.637   4.328   3.287  0.0720  1.8847  1.4653
 3417TIP3   OH210183   1.562   1.762   0.975  0.4743  0.3317 -0.3580
 3417TIP3    H110184   1.572   1.677   1.018  0.3541 -0.6649 -2.2060
 3417TIP3    H210185   1.499   1.810   1.028 -0.3164 -1.1849  0.0914
 3418TIP3   OH210186   2.010   2.154   3.097  0.2571  0.3148 -0.5147
 3418TIP3    H110187   2.011   2.248   3.118 -0.6707 -0.0185  1.1660
 3418TIP3    H210188   1.924   2.139   3.059 -0.1552 -0.1233  0.5830
 3419TIP3   OH210189   2.079   2.260   3.449  0.4834 -0.1944 -0.0846
 3419TIP3    H110190   2.001   2.238   3.501  1.1333 -1.1278  0.5175
 3419TIP3    H210191   2.128   2.321   3.504 -1.3200  2.9013 -1.7585
 3420TIP3   OH210192   2.239   4.144   4.083 -0.1139  0.2563  0.1316
 3420TIP3    H110193   2.203   4.124   3.996 -1.7529 -0.7774  1.0121
 3420TIP3    H210194   2.190   4.221   4.112  0.5500  0.7028  0.0757
 3421TIP3   OH210195   1.290   3.832   3.632 -0.5459 -0.1981  0.2097
 3421TIP3    H110196   1.240   3.751   3.634 -0.4475 -0.2793 -0.5640
 3421TIP3    H210197   1.318   3.841   3.541  1.0226 -0.2718  0.6733
 3422TIP3   OH210198   2.680   1.488   6.070 -0.4667  0.2376 -0.3792
 3422TIP3    H110199   2.712   1.399   6.060  0.6938  0.6123 -0.0335
 3422TIP3    H210200   2.695   1.510   6.162 -1.7942  0.3887 -0.1956
 3423TIP3   OH210201   2.436   0.112   4.122 -0.1049  0.1930  0.0205
 3423TIP3    H110202   2.386   0.043   4.079  1.6887 -1.5120  0.6023
 3423TIP3    H210203   2.424   0.188   4.065 -2.3926 -0.4591 -0.4546
 3424TIP3   OH210204   2.309   3.713   2.977  0.0530 -0.1338 -0.2256
 3424TIP3    H110205   2.331   3.643   2.916 -0.5205 -0.9892  0.5501
 3424TIP3    H210206   2.362   3.695   3.055 -1.0752 -0.4517  0.4741
 3425TIP3   OH210207   3.874   4.078   2.760 -0.5806  0.8865 -0.0460
 3425TIP3    H110208   3.796   4.048   2.714  0.4941 -1.1425 -0.5993
 3425TIP3    H210209   3.882   4.020   2.836  1.8353 -0.6669 -1.4367
 3426TIP3   OH210210   8.036   1.457   5.913  0.7634 -0.2543 -0.2602
 3426TIP3    H110211   7.990   1.541   5.901  0.7081 -0.3519 -0.7569
 3426TIP3    H210212   8.127   1.477   5.894  0.8358 -0.1910  0.1460
 3427TIP3   OH210213   2.150   5.142   4.235 -0.4061 -0.6821 -0.7420
 3427TIP3    H110214   2.076   5.196   4.209 -1.0418 -1.5018 -0.6462
 3427TIP3    H210215   2.142   5.062   4.183  0.6262 -0.6127 -1.0116
 3428TIP3   OH210216   3.734   2.452   3.718  0.1538  0.5534 -0.6033
 3428TIP3    H110217   3.728   2.531   3.771  0.4236 -0.5344  1.1008
 3428TIP3    H210218   3.828   2.434   3.713  0.0623  0.0149 -0.4666
 3429TIP3   OH210219   6.267   2.324   2.863  0.2440  0.0488 -0.1982
 3429TIP3    H110220   6.276   2.303   2.956  2.5296 -0.1244 -0.4460
 3429TIP3    H210221   6.330   2.394   2.847  0.4327 -0.4568 -1.7910
 3430TIP3   OH210222   1.597   4.480   4.337 -0.2655 -0.4100  0.4587
 3430TIP3    H110223   1.623   4.571   4.351  2.4179 -1.3364  1.8386
 3430TIP3    H210224   1.506   4.485   4.309 -0.7425  2.5656  2.3716
 3431TIP3   OH210225   2.511   2.639   4.536  0.1583  0.4749  0.3213
 3431TIP3    H110226   2.444   2.648   4.604  1.2270  1.2409  1.3048
 3431TIP3    H210227   2.488   2.703   4.470 -2.0302 -1.6354 -1.0458
 3432TIP3   OH210228   0.469   3.499   3.969 -0.0292 -0.2319 -0.1935
 3432TIP3    H110229   0.399   3.507   4.034 -0.1412  0.3909 -0.3877
 3432TIP3    H210230   0.549   3.516   4.020 -0.1103  0.1704 -0.1953
 3433TIP3   OH210231   2.550   4.414   0.811  0.1537  0.3169 -0.6424
 3433TIP3    H110232   2.457   4.431   0.798 -0.5908 -2.1280  1.1817
 3433TIP3    H210233   2.553   4.333   0.862  3.2626  0.7504 -0.0376
 3434TIP3   OH210234   3.226   6.867   2.748  0.1961 -0.1203  0.2037
 3434TIP3    H110235   3.271   6.785   2.770 -2.4340 -1.5222  0.4953
 3434TIP3    H210236   3.246   6.926   2.822  0.4629 -1.1620  0.9772
 3435TIP3   OH210237   1.882   2.869   3.676 -0.1658 -0.1606 -1.0220
 3435TIP3    H110238   1.866   2.884   3.769  0.3385 -1.1855 -0.7663
 3435TIP3    H210239   1.964   2.821   3.673  1.4988  2.6508 -2.1944
 3436TIP3   OH210240   2.402   4.273   3.837 -0.6306 -0.4673 -0.3058
 3436TIP3    H110241   2.465   4.200   3.845  0.7961  0.7947  0.3264
 3436TIP3    H210242   2.317   4.233   3.852  0.1986 -1.9060  0.7277
 3437TIP3   OH210243   1.578   1.805   4.243  0.0974 -0.0339 -0.6724
 3437TIP3    H110244   1.580   1.879   4.183 -0.8138 -0.1420 -0.8472
 3437TIP3    H210245   1.548   1.841   4.326 -0.9245 -0.2907 -0.9111
 3438TIP3   OH210246   2.473   3.810   2.117  0.0787 -0.1830  0.0778
 3438TIP3    H110247   2.476   3.715   2.102 -1.6172 -0.0129 -1.6334
 3438TIP3    H210248   2.379   3.829   2.123  0.4644  1.1969  1.7363
 3439TIP3   OH210249   2.483   4.260   1.633  0.5109 -0.6205  0.1842
 3439TIP3    H110250   2.527   4.301   1.558  0.7073  0.0154  0.6432
 3439TIP3    H210251   2.534   4.180   1.649  1.4594  0.0669  0.6583
 3440TIP3   OH210252   2.291   1.689   3.967  0.0961 -0.3920 -0.3276
 3440TIP3    H110253   2.246   1.643   4.038 -0.7228 -1.0466 -1.2587
 3440TIP3    H210254   2.381   1.698   3.998 -0.6334  0.8538  1.5095
 3441TIP3   OH210255   2.609   5.809   2.632  0.0738  0.1379  0.0259
 3441TIP3    H110256   2.629   5.902   2.649  2.1254 -0.5859  1.7660
 3441TIP3    H210257   2.691   5.774   2.597 -0.8877 -0.9096 -1.2198
 3442TIP3   OH210258   2.105   1.909   3.673 -0.2975  0.1007 -0.7184
 3442TIP3    H110259   2.106   1.849   3.748  0.6718 -0.5783 -1.2681
 3442TIP3    H210260   2.014   1.939   3.668 -0.5593 -0.5040  0.2051
 3443TIP3   OH210261   2.471   2.465   0.567 -0.3007  0.6370  0.0986
 3443TIP3    H110262   2.403   2.493   0.628 -0.8801 -1.1798  0.3213
 3443TIP3    H210263   2.491   2.375   0.593  0.5520  0.3781 -1.4010
 3444TIP3   OH210264   1.000   1.341   3.399 -0.5648  0.2631  0.3510
 3444TIP3    H110265   1.050   1.283   3.456 -0.6062 -1.3460 -1.2351
 3444TIP3    H210266   0.927   1.288   3.368 -0.0870  0.8644 -1.8493
 3445TIP3   OH210267   1.694   4.427   2.347 -0.1903 -0.1856 -0.0385
 3445TIP3    H110268   1.606   4.405   2.379 -0.5244  0.1423 -0.7240
 3445TIP3    H210269   1.744   4.346   2.359 -0.4551 -0.2394  0.7875
 3446TIP3   OH210270   1.605   4.340   3.084 -0.3506  0.7433 -0.1534
 3446TIP3    H110271   1.582   4.432   3.099 -0.2369  0.8007 -0.3317
 3446TIP3    H210272   1.567   4.320   2.999 -2.3982 -0.0445  0.9033
 3447TIP3   OH210273   3.326   2.513   4.660 -0.4064  0.1519 -0.1141
 3447TIP3    H110274   3.345   2.449   4.590 -0.2742 -1.4141  1.3206
 3447TIP3    H210275   3.242   2.484   4.696 -1.3196  1.9684 -0.7266
 3448TIP3   OH210276   0.743   5.470   3.725  0.3395 -0.1303  0.0267
 3448TIP3    H110277   0.820   5.489   3.672 -0.0416 -0.7602 -0.7545
 3448TIP3    H210278   0.760   5.515   3.808  0.9644  0.8116 -0.5933
 3449TIP3   OH210279   2.108   4.630   4.927  0.1161  0.1108 -0.0165
 3449TIP3    H110280   2.066   4.671   4.851 -0.9493  1.0728  1.0635
 3449TIP3    H210281   2.057   4.661   5.002  2.1573  0.5225  1.2430
 3450TIP3   OH210282   3.630   2.262   3.037 -0.0897 -0.4827  0.5065
 3450TIP3    H110283   3.701   2.226   3.091  0.0534 -0.8633  0.0685
 3450TIP3    H210284   3.647   2.356   3.034  1.0956 -0.7115 -0.5880
 3451TIP3   OH210285   4.890   4.336   1.037 -0.3640  0.2221 -0.2888
 3451TIP3    H110286   4.856   4.259   0.992 -0.1511 -0.2156  0.2929
 3451TIP3    H210287   4.960   4.302   1.093 -0.8634  0.7079  0.6338
 3452TIP3   OH210288   1.910   4.084   3.558  0.0171 -0.2582  0.4084
 3452TIP3    H110289   1.824   4.119   3.584  0.7816  0.0961  2.5646
 3452TIP3    H210290   1.969   4.160   3.562  0.7002 -0.7776  0.2311
 3453TIP3   OH210291   2.464   3.278   4.378 -0.4549 -0.6304  0.0734
 3453TIP3    H110292   2.491   3.358   4.422  1.2107 -1.4591  0.6244
 3453TIP3    H210293   2.417   3.307   4.300 -2.4103  0.8576  1.7764
 3454TIP3   OH210294   0.221   3.317   1.390 -0.0677 -0.3221  0.0234
 3454TIP3    H110295   0.272   3.306   1.309 -1.2867  0.7184 -0.9126
 3454TIP3    H210296   0.210   3.228   1.423  1.5638 -0.6429 -0.2474
 3455TIP3   OH210297   0.735   5.814   3.100  0.2357  0.4099  0.7524
 3455TIP3    H110298   0.642   5.838   3.105 -0.2479 -1.1549 -0.0620
 3455TIP3    H210299   0.778   5.869   3.165 -1.2014  1.4866  0.8214
 3456TIP3   OH210300   3.895   3.543   4.246  0.6584 -0.2701  0.1609
 3456TIP3    H110301   3.957   3.602   4.203  0.0757  1.7295  1.9842
 3456TIP3    H210302   3.938   3.518   4.328 -0.7726  0.8610  1.2800
 3457TIP3   OH210303   1.639   4.358   1.492 -0.5020 -0.3334  0.0519
 3457TIP3    H110304   1.601   4.389   1.574  0.0890 -0.8206  0.5146
 3457TIP3    H210305   1.725   4.401   1.487  0.3728 -1.9507  0.7537
 3458TIP3   OH210306   3.846   0.891   2.999  0.5210 -0.3137 -0.1043
 3458TIP3    H110307   3.923   0.888   2.942  0.7148  0.1087  0.1379
 3458TIP3    H210308   3.869   0.834   3.073  0.2536 -0.8941 -0.4648
 3459TIP3   OH210309   1.481   2.941   3.147 -0.1737  0.4802 -0.6455
 3459TIP3    H110310   1.449   2.919   3.235  0.8248 -0.6695 -0.5569
 3459TIP3    H210311   1.441   2.875   3.090  1.1330 -0.3002 -0.6865
 3460TIP3   OH210312   0.352   4.442   4.925 -0.1449 -0.0812 -0.2551
 3460TIP3    H110313   0.297   4.375   4.966 -1.9288  1.3399 -0.2418
 3460TIP3    H210314   0.290   4.507   4.893  1.4401  0.5983 -2.0346
 3461TIP3   OH210315   2.402   4.183   3.238  0.4928 -0.4883 -0.2900
 3461TIP3    H110316   2.475   4.239   3.212 -0.9115  2.1435  1.1747
 3461TIP3    H210317   2.400   4.188   3.333 -1.3338 -0.8729 -0.2881
 3462TIP3   OH210318   1.750   2.335   3.280 -0.1895 -0.1438 -0.4018
 3462TIP3    H110319   1.671   2.388   3.294 -0.5053 -0.6824 -0.1532
 3462TIP3    H210320   1.819   2.400   3.265 -0.9213  0.3135 -1.9475
 3463TIP3   OH210321   2.753   3.252   2.926  0.0474  0.1229  0.3476
 3463TIP3    H110322   2.706   3.233   3.007 -0.9532  1.2260  0.0319
 3463TIP3    H210323   2.708   3.201   2.859  0.0844  0.2061  0.2590
 3464TIP3   OH210324   0.382   5.179   4.242  0.4264 -0.6376  0.1541
 3464TIP3    H110325   0.451   5.114   4.235 -0.1115 -1.1775 -0.1982
 3464TIP3    H210326   0.301   5.128   4.251  0.1096 -0.0100  0.8979
 3465TIP3   OH210327   8.403   0.916   6.765 -0.2396 -0.0240 -0.5405
 3465TIP3    H110328   8.372   0.828   6.744 -0.2555 -0.2700  0.5049
 3465TIP3    H210329   8.483   0.927   6.713  0.1123 -0.8842 -0.1720
 3466TIP3   OH210330   2.730   3.671   0.855 -0.8715 -0.5239 -0.3564
 3466TIP3    H110331   2.696   3.581   0.862  0.1649 -0.9155 -0.2717
 3466TIP3    H210332   2.656   3.722   0.822 -0.8883 -1.7794 -2.3354
 3467TIP3   OH210333   1.522   3.531   5.617  0.1827 -0.0643 -0.8384
 3467TIP3    H110334   1.484   3.579   5.543 -1.1377  0.6443  0.2894
 3467TIP3    H210335   1.591   3.478   5.577  0.0503  0.9318 -2.4686
 3468TIP3   OH210336   1.956   2.002   4.314 -0.0183  0.0395  0.1537
 3468TIP3    H110337   1.883   2.058   4.337  0.5047  1.0346 -0.5907
 3468TIP3    H210338   2.027   2.028   4.374 -0.1146 -0.5985  0.5575
 3469TIP3   OH210339   2.512   3.679   4.007  0.0013 -0.2629 -0.3621
 3469TIP3    H110340   2.453   3.648   3.939  0.4975 -0.2447 -0.8016
 3469TIP3    H210341   2.486   3.770   4.021  0.1127 -0.1725 -0.7517
 3470TIP3   OH210342   1.504   3.067   3.409 -0.0433 -0.0723 -0.3637
 3470TIP3    H110343   1.484   3.103   3.323 -1.4918 -1.2476 -0.5511
 3470TIP3    H210344   1.562   3.131   3.450 -0.2656  1.0422 -1.7787
 3471TIP3   OH210345   3.150   1.087   1.658  0.1338  0.3923  0.3166
 3471TIP3    H110346   3.054   1.089   1.658  0.1104 -0.4607  0.3914
 3471TIP3    H210347   3.176   1.173   1.688 -0.6258  0.2279  1.4545
 3472TIP3   OH210348   0.643   4.700   2.640  0.3045 -0.0371 -0.2260
 3472TIP3    H110349   0.603   4.614   2.659  0.4890 -0.3143 -1.0535
 3472TIP3    H210350   0.737   4.685   2.647  0.3172  0.2462  0.2176
 3473TIP3   OH210351   1.993   2.570   2.164 -0.0364  0.3847  0.2881
 3473TIP3    H110352   1.952   2.622   2.233  0.8224 -1.3394  2.1917
 3473TIP3    H210353   1.921   2.527   2.119 -0.5468  0.4473  1.0395
 3474TIP3   OH210354   0.145   3.768   4.524  0.3864  0.1251  0.1708
 3474TIP3    H110355   0.205   3.700   4.494  2.2431  1.5352  0.5718
 3474TIP3    H210356   0.075   3.721   4.569  1.8971 -1.4997  0.8579
 3475TIP3   OH210357   0.871   0.765   2.812  0.6605 -0.1527  0.3655
 3475TIP3    H110358   0.899   0.753   2.721  0.1714 -1.6310  0.3895
 3475TIP3    H210359   0.827   0.683   2.834 -1.5790  1.2066  1.1000
 3476TIP3   OH210360   3.163   4.053   3.040 -0.4299 -0.2909  0.1302
 3476TIP3    H110361   3.238   3.999   3.063 -1.6755 -2.0656  0.1295
 3476TIP3    H210362   3.089   4.014   3.088 -1.9677 -0.5880 -2.3870
 3477TIP3   OH210363   4.016   3.689   1.703  0.2026 -0.0400 -0.2938
 3477TIP3    H110364   4.016   3.609   1.756 -3.0366 -1.5943 -2.4028
 3477TIP3    H210365   3.968   3.752   1.756  2.6337  0.5149  1.3181
 3478TIP3   OH210366   0.414   4.879   2.924 -0.0245  0.1684 -0.0445
 3478TIP3    H110367   0.503   4.866   2.956 -0.1036 -0.5192 -0.0962
 3478TIP3    H210368   0.424   4.895   2.830  0.1221  1.0795  0.1279
 3479TIP3   OH210369   1.101   3.909   2.973  0.2913  0.5707  0.2396
 3479TIP3    H110370   1.130   3.825   2.938  1.6468  0.8926  0.5318
 3479TIP3    H210371   1.177   3.967   2.962 -0.1284  1.3636  1.3577
 3480TIP3   OH210372   2.032   1.263   4.376 -0.0050 -0.1857  0.1275
 3480TIP3    H110373   2.009   1.250   4.468 -0.6006 -0.8354 -0.1150
 3480TIP3    H210374   2.115   1.311   4.380 -0.9084  1.3663  1.0009
 3481TIP3   OH210375   2.669   2.339   2.733  0.4360  0.4864 -0.0042
 3481TIP3    H110376   2.578   2.357   2.756  0.3667 -0.6305  0.6121
 3481TIP3    H210377   2.702   2.423   2.701 -0.1834  1.4546  1.7969
 3482TIP3   OH210378   1.007   1.925   2.238 -0.0693 -0.4402 -0.3139
 3482TIP3    H110379   1.061   1.845   2.236  0.7893  0.1248 -0.1084
 3482TIP3    H210380   1.064   1.993   2.203 -1.0998 -0.0798 -1.3325
 3483TIP3   OH210381   1.775   4.029   4.916  0.0287  0.0154 -0.1370
 3483TIP3    H110382   1.768   3.990   4.829  0.0567 -0.0774 -0.0983
 3483TIP3    H210383   1.848   3.983   4.957  0.8585  0.9617 -0.5295
 3484TIP3   OH210384   3.192   5.014   3.594 -0.5467 -0.1878  0.6360
 3484TIP3    H110385   3.247   4.942   3.627  0.7019  0.4880  0.0332
 3484TIP3    H210386   3.234   5.093   3.627 -1.4895  0.3184  0.6434
 3485TIP3   OH210387   1.851   3.118   2.160 -0.3940 -0.3429 -0.1459
 3485TIP3    H110388   1.869   3.084   2.073  0.4331  0.0463 -0.1374
 3485TIP3    H210389   1.756   3.127   2.164 -0.4991 -1.2116 -0.6806
 3486TIP3   OH210390   1.943   1.575   3.362  0.6509 -0.1420 -0.7452
 3486TIP3    H110391   2.020   1.621   3.396 -1.3912  1.7147  1.5782
 3486TIP3    H210392   1.885   1.645   3.330 -0.4218 -1.4427 -1.7028
 3487TIP3   OH210393   3.308   3.585   2.066 -0.2982 -0.0983 -0.4022
 3487TIP3    H110394   3.233   3.570   2.008 -1.9297 -2.9180  2.2553
 3487TIP3    H210395   3.283   3.660   2.119 -0.0404  0.6730 -1.3572
 3488TIP3   OH210396   7.494   5.376   2.048  0.1727  0.4639  0.3256
 3488TIP3    H110397   7.477   5.365   2.141 -0.9210  0.0182  0.0840
 3488TIP3    H210398   7.415   5.344   2.005  0.2466  1.6208 -0.7196
 3489TIP3   OH210399   3.388   5.635   2.514 -0.7026 -0.1208 -0.5442
 3489TIP3    H110400   3.452   5.699   2.547 -0.7239  0.4323 -1.5698
 3489TIP3    H210401   3.310   5.688   2.494 -0.4539 -0.3453 -2.1356
 3490TIP3   OH210402   3.202   4.275   4.174 -0.0428  0.1543 -0.1778
 3490TIP3    H110403   3.246   4.216   4.235  0.6506  0.7042 -0.1323
 3490TIP3    H210404   3.201   4.360   4.219 -0.7094  0.2546 -0.3820
 3491TIP3   OH210405   0.486   2.816   3.495  0.0287  0.2590  0.3298
 3491TIP3    H110406   0.568   2.832   3.542 -0.1002  0.8585  0.3545
 3491TIP3    H210407   0.477   2.721   3.494 -0.2881  0.2414  2.0785
 3492TIP3   OH210408   3.066   4.342   3.189  0.8125  0.4859  0.2039
 3492TIP3    H110409   2.990   4.303   3.146  0.4258  1.2499  0.1854
 3492TIP3    H210410   3.086   4.282   3.261 -1.6905  1.8158  2.0895
 3493TIP3   OH210411   1.213   3.271   5.131  0.1075  0.4780  0.3929
 3493TIP3    H110412   1.279   3.202   5.145 -2.7357 -1.9232  2.7590
 3493TIP3    H210413   1.179   3.254   5.044  0.9577  0.2594  0.0989
 3494TIP3   OH210414   3.154   1.651   2.994  0.0567 -0.4281  0.7824
 3494TIP3    H110415   3.250   1.648   2.994  0.0903 -0.5466 -1.5544
 3494TIP3    H210416   3.129   1.596   2.919 -1.8006  0.5390  0.6798
 3495TIP3   OH210417   7.855   1.879   2.406 -0.8013  0.2930  0.3668
 3495TIP3    H110418   7.842   1.913   2.494 -0.1359  1.6116 -0.0355
 3495TIP3    H210419   7.767   1.874   2.369 -1.3376 -2.4441  1.8690
 3496TIP3   OH210420   0.503   2.471   2.278  0.0414 -0.4489  0.0766
 3496TIP3    H110421   0.465   2.546   2.324  0.3215 -0.8758  1.0202
 3496TIP3    H210422   0.428   2.425   2.241 -0.1944 -0.1647  0.1947
 3497TIP3   OH210423   2.913   5.818   2.731 -0.4284  0.0987  0.4499
 3497TIP3    H110424   2.837   5.877   2.728  0.0135  0.9214  3.5495
 3497TIP3    H210425   2.897   5.761   2.806  3.2614  2.1905  3.0301
 3498TIP3   OH210426   2.816   2.747   1.200  0.1238 -0.0167  0.0286
 3498TIP3    H110427   2.906   2.742   1.234  0.5544  0.0798 -1.0760
 3498TIP3    H210428   2.761   2.716   1.272  1.2331 -2.3785 -0.1163
 3499TIP3   OH210429   2.181   1.366   1.871  0.2139  0.6852 -0.2186
 3499TIP3    H110430   2.239   1.376   1.796 -0.3066  1.5541 -0.5157
 3499TIP3    H210431   2.099   1.333   1.833  0.8212 -1.5387  0.3253
 3500TIP3   OH210432   4.099   2.033   3.982  0.5779 -0.6267 -0.0347
 3500TIP3    H110433   4.048   2.103   4.023  1.1618 -0.4298  0.3488
 3500TIP3    H210434   4.053   1.953   4.009  0.3135 -0.4353  0.0961
 3501TIP3   OH210435   3.442   5.386   2.444 -0.1833  0.3453  0.8045
 3501TIP3    H110436   3.445   5.478   2.468 -1.0280  0.6153 -0.1018
 3501TIP3    H210437   3.355   5.357   2.473 -1.0970  0.5993 -1.6418
 3502TIP3   OH210438   1.812   2.558   6.413  0.8078 -0.1748 -0.2179
 3502TIP3    H110439   1.859   2.635   6.442 -1.1431  0.8254  0.4100
 3502TIP3    H210440   1.878   2.502   6.372  2.4884  1.1628  0.6445
 3503TIP3   OH210441   3.550   3.364   4.368  0.6234 -0.0751 -0.1876
 3503TIP3    H110442   3.470   3.339   4.322  1.2135 -1.4199 -0.5223
 3503TIP3    H210443   3.522   3.375   4.459 -0.1158  0.3666 -0.4649
 3504TIP3   OH210444   1.822   1.784   5.064 -0.2525 -0.0280 -0.4534
 3504TIP3    H110445   1.873   1.769   4.984  0.1716  1.5198 -0.5043
 3504TIP3    H210446   1.793   1.698   5.091  1.4759 -0.8299 -1.0532
 3505TIP3   OH210447   3.390   2.731   4.821  0.2539 -0.1168  0.2249
 3505TIP3    H110448   3.486   2.734   4.819  0.2020  1.1212 -1.5199
 3505TIP3    H210449   3.367   2.656   4.765  0.1934 -0.4754  0.7235
 3506TIP3   OH210450   3.011   2.266   3.986 -0.2274 -0.9017 -0.2430
 3506TIP3    H110451   2.956   2.270   3.907  0.7350  3.3930 -0.8185
 3506TIP3    H210452   2.953   2.293   4.057 -0.0549 -0.8604 -0.1184
 3507TIP3   OH210453   2.393   1.353   4.046  0.1251  0.2613  0.6495
 3507TIP3    H110454   2.344   1.296   3.987  0.4600 -0.3955  0.9996
 3507TIP3    H210455   2.347   1.346   4.130  1.8026 -1.7245  1.4466
 3508TIP3   OH210456   3.388   4.031   3.870 -0.5886  0.1785  0.1076
 3508TIP3    H110457   3.320   3.963   3.872  0.0456 -0.4654  0.0544
 3508TIP3    H210458   3.461   3.990   3.824  0.0123  0.6999  0.5882
 3509TIP3   OH210459   1.493   2.539   5.495  0.1584  0.2621  0.4615
 3509TIP3    H110460   1.566   2.565   5.551  0.0371  1.1111  0.2284
 3509TIP3    H210461   1.523   2.561   5.406  0.8202 -2.0984  0.0436
 3510TIP3   OH210462   2.734   2.396   3.530 -0.1343  0.0910 -0.3226
 3510TIP3    H110463   2.694   2.312   3.511  1.8364 -0.8936 -0.2929
 3510TIP3    H210464   2.693   2.457   3.470 -2.1856 -0.7177  0.2289
 3511TIP3   OH210465   2.151   1.635   5.396  0.5453 -0.1229  0.7033
 3511TIP3    H110466   2.061   1.611   5.416 -0.0724 -1.0149 -2.8004
 3511TIP3    H210467   2.148   1.730   5.384 -0.2372 -0.3041 -0.6798
 3512TIP3   OH210468   1.823   4.753   0.353 -0.4071 -0.2403  0.0117
 3512TIP3    H110469   1.840   4.741   0.260 -1.9832  1.2568 -0.4970
 3512TIP3    H210470   1.908   4.739   0.395  0.7673  1.0957 -1.8615
 3513TIP3   OH210471   2.103   2.440   2.560 -0.0500  0.6063 -0.0429
 3513TIP3    H110472   2.175   2.391   2.521  0.4274  0.6262  0.7932
 3513TIP3    H210473   2.027   2.420   2.505  0.1271 -1.1109  0.3102
 3514TIP3   OH210474   2.355   2.583   4.800 -0.1015 -0.0821 -0.0040
 3514TIP3    H110475   2.401   2.499   4.791  0.0895  0.0431 -0.1985
 3514TIP3    H210476   2.415   2.637   4.850 -0.1809 -0.0257  0.0307
 3515TIP3   OH210477   0.483   2.945   1.363  0.1954 -0.0578  0.0903
 3515TIP3    H110478   0.495   2.858   1.402 -0.8988 -0.2224  0.0688
 3515TIP3    H210479   0.497   2.932   1.270  0.9017 -0.0353  0.1884
 3516TIP3   OH210480   3.104   0.370   3.796 -0.1061 -0.5703  0.6310
 3516TIP3    H110481   3.039   0.300   3.792 -3.1893  2.0859  2.2359
 3516TIP3    H210482   3.089   0.422   3.718  0.8791 -0.5644  0.4357
 3517TIP3   OH210483   2.963   3.992   3.386  0.3576 -0.1157 -0.0003
 3517TIP3    H110484   2.968   3.948   3.301 -0.3587  0.3182 -0.2721
 3517TIP3    H210485   2.931   3.924   3.446  1.1295 -0.4991 -0.0202
 3518TIP3   OH210486   3.811   6.708   3.900 -0.2963  0.2768 -0.5279
 3518TIP3    H110487   3.897   6.734   3.933  0.3073 -2.0133 -0.2644
 3518TIP3    H210488   3.830   6.655   3.822 -1.4456 -0.6909 -0.1574
 3519TIP3   OH210489   3.399   3.471   1.274  0.5573  0.7137  0.1152
 3519TIP3    H110490   3.428   3.391   1.230  1.4849  1.3308 -0.4224
 3519TIP3    H210491   3.313   3.450   1.309  0.5182 -0.3066 -0.5858
 3520TIP3   OH210492   2.414   3.340   3.660 -0.2010 -0.2133  0.1465
 3520TIP3    H110493   2.441   3.363   3.749  0.8231 -1.5773  0.2088
 3520TIP3    H210494   2.359   3.413   3.632 -1.0292 -0.0466  2.1204
 3521TIP3   OH210495   3.067   4.647   3.140  0.4475 -0.6483  0.7234
 3521TIP3    H110496   3.087   4.558   3.170  2.7728 -0.9437 -1.5464
 3521TIP3    H210497   3.143   4.699   3.165  2.0868 -0.7254 -3.6269
 3522TIP3   OH210498   3.368   3.878   3.130 -0.3311  0.4840 -1.2481
 3522TIP3    H110499   3.450   3.855   3.087  0.1344 -0.7843  0.2743
 3522TIP3    H210500   3.312   3.802   3.117 -0.9079  0.9358 -1.4093
 3523TIP3   OH210501   3.125   4.228   1.737 -0.0489 -0.2098  0.1614
 3523TIP3    H110502   3.179   4.282   1.795 -0.1923  0.2524 -0.1333
 3523TIP3    H210503   3.090   4.290   1.673 -0.5674 -0.5837  0.0862
 3524TIP3   OH210504   3.343   4.976   0.183 -0.0669  0.0751  0.6796
 3524TIP3    H110505   3.429   4.962   0.222 -0.1999 -0.7683  0.6853
 3524TIP3    H210506   3.357   5.045   0.118  0.4446  0.4887  1.2255
 3525TIP3   OH210507   2.208   4.685   2.228 -0.7384 -0.0540 -0.0461
 3525TIP3    H110508   2.119   4.703   2.201 -0.7323 -0.4136 -0.2971
 3525TIP3    H210509   2.238   4.614   2.171  0.6712  1.9669 -1.8694
 3526TIP3   OH210510   8.385   3.716   4.764  0.6758 -0.6149 -0.1733
 3526TIP3    H110511   8.402   3.622   4.769 -0.4307 -0.8109  0.0907
 3526TIP3    H210512   8.295   3.726   4.796  1.8689  0.9165  2.9143
 3527TIP3   OH210513   2.357   3.307   4.123  0.7211 -0.7346 -0.2137
 3527TIP3    H110514   2.338   3.221   4.086  0.0596 -0.1061 -1.3525
 3527TIP3    H210515   2.289   3.364   4.088  2.0779  0.5933 -0.7450
 3528TIP3   OH210516   4.084   4.048   2.625 -0.2038  0.2128 -0.2066
 3528TIP3    H110517   4.136   4.064   2.704 -1.2102 -1.4640  0.8309
 3528TIP3    H210518   3.997   4.080   2.648 -0.1104  1.3012 -1.2852
 3529TIP3   OH210519   2.104   1.602   4.174 -0.9666  0.6690  0.3911
 3529TIP3    H110520   2.035   1.668   4.171 -4.2104 -2.4507  2.3320
 3529TIP3    H210521   2.147   1.616   4.259  1.5890  3.2381 -1.2273
 3530TIP3   OH210522   2.894   3.110   2.289 -0.0970  0.3813 -0.0980
 3530TIP3    H110523   2.858   3.095   2.202 -0.1864  2.5033 -0.4430
 3530TIP3    H210524   2.981   3.148   2.273 -0.3355  1.3063  0.7160
 3531TIP3   OH210525   1.200   0.869   3.571 -0.2355 -0.6281  0.0595
 3531TIP3    H110526   1.110   0.838   3.581 -0.4579 -0.3113 -0.8989
 3531TIP3    H210527   1.241   0.851   3.655 -1.3662 -0.2166  0.7082
 3532TIP3   OH210528   3.518   4.355   1.676  0.4193  0.4574 -0.2643
 3532TIP3    H110529   3.563   4.372   1.758 -1.2340  0.3141  0.6926
 3532TIP3    H210530   3.498   4.442   1.641 -1.1438  0.5209  0.7637
 3533TIP3   OH210531   0.313   1.948   2.626 -0.8350 -0.0702 -0.4529
 3533TIP3    H110532   0.365   1.922   2.701  0.9096  0.3902 -1.4842
 3533TIP3    H210533   0.294   2.040   2.640 -2.3160 -0.4914  0.4500
 3534TIP3   OH210534   4.939   3.272   3.256 -0.3163  0.0882  0.6634
 3534TIP3    H110535   4.978   3.308   3.176 -0.7955 -1.0793 -0.1151
 3534TIP3    H210536   4.905   3.348   3.303  0.5412  0.8425  0.0617
 3535TIP3   OH210537   0.745   1.947   2.167  0.7529  0.8035 -0.3728
 3535TIP3    H110538   0.836   1.930   2.191  0.5149  2.2623  1.6789
 3535TIP3    H210539   0.693   1.906   2.236 -0.1440  0.5150 -1.1967
 3536TIP3   OH210540   3.030   2.856   2.418  0.3089  0.2133 -0.3570
 3536TIP3    H110541   3.071   2.936   2.449 -0.3624  0.6653 -0.6083
 3536TIP3    H210542   3.037   2.860   2.323  0.9597 -0.4029 -0.3382
 3537TIP3   OH210543   1.714   2.647   4.143  0.6905 -0.0053  0.3211
 3537TIP3    H110544   1.736   2.702   4.219 -0.6767 -0.3486  0.9910
 3537TIP3    H210545   1.666   2.573   4.181 -0.7151  0.2402 -0.9650
 3538TIP3   OH210546   4.068   7.443   2.116 -0.3337  0.1607 -0.4771
 3538TIP3    H110547   4.126   7.504   2.162 -0.7184  0.0850  0.1105
 3538TIP3    H210548   4.127   7.389   2.064  0.2664 -0.8534  1.2010
 3539TIP3   OH210549   3.016   1.214   3.751 -0.3625 -0.2170  0.2029
 3539TIP3    H110550   3.073   1.251   3.819 -0.9892  1.2309 -0.0259
 3539TIP3    H210551   2.933   1.199   3.796 -0.8961  1.1007 -0.3033
 3540TIP3   OH210552   2.150   0.899   3.054  0.7758 -0.0908  0.0704
 3540TIP3    H110553   2.166   0.984   3.096  0.6385 -0.6862  1.3642
 3540TIP3    H210554   2.057   0.883   3.067  0.9218 -0.7148  0.3775
 3541TIP3   OH210555   2.279   3.058   4.010 -0.2099  0.2761  0.0402
 3541TIP3    H110556   2.330   3.021   3.937 -2.2601 -2.1037 -0.2472
 3541TIP3    H210557   2.296   2.999   4.083 -1.7489  0.0389  0.2151
 3542TIP3   OH210558   2.575   2.683   3.704 -0.5693  0.0661  0.4259
 3542TIP3    H110559   2.639   2.692   3.633 -0.8948 -0.9462 -0.0090
 3542TIP3    H210560   2.627   2.652   3.779 -0.4785 -0.3621  0.1885
 3543TIP3   OH210561   0.268   3.837   4.933  0.0565  0.0646 -0.1253
 3543TIP3    H110562   0.323   3.802   4.862 -0.9938 -0.2475 -0.8028
 3543TIP3    H210563   0.329   3.883   4.990  0.9976 -0.1140 -0.9677
 3544TIP3   OH210564   1.714   3.149   4.793  0.6332 -0.7389  0.0900
 3544TIP3    H110565   1.641   3.126   4.735 -1.4494  2.8776  1.1261
 3544TIP3    H210566   1.706   3.089   4.867 -2.5809  0.9030  1.1532
 3545TIP3   OH210567   1.084   3.464   3.916  0.1349  0.1277 -0.0704
 3545TIP3    H110568   0.988   3.462   3.920  0.0378 -1.8620 -2.1083
 3545TIP3    H210569   1.109   3.372   3.910  2.0334  0.7329 -2.0673
 3546TIP3   OH210570   4.078   3.792   1.077 -0.0568 -0.4162 -0.4709
 3546TIP3    H110571   4.037   3.711   1.107  1.8178 -0.6781  1.5507
 3546TIP3    H210572   4.167   3.787   1.111  0.4476  1.9283 -1.3827
 3547TIP3   OH210573   5.224   2.890   4.508 -0.2152 -0.3270 -0.1159
 3547TIP3    H110574   5.314   2.908   4.482 -0.6696 -0.7999 -2.0992
 3547TIP3    H210575   5.231   2.820   4.573  0.9208  0.4149  0.5646
 3548TIP3   OH210576   1.102   4.239   2.821  0.4799  0.2819 -0.2428
 3548TIP3    H110577   1.012   4.217   2.848  0.0366  1.0581 -1.0610
 3548TIP3    H210578   1.099   4.240   2.726  1.6715 -0.9040 -0.3131
 3549TIP3   OH210579   1.717   2.566   4.610  0.0702 -0.0617  0.3973
 3549TIP3    H110580   1.698   2.574   4.704  0.6536  0.3256  0.4836
 3549TIP3    H210581   1.734   2.655   4.581 -0.6171 -0.1165 -0.1930
 3550TIP3   OH210582   2.650   2.435   4.848  0.0570 -0.2445 -0.1565
 3550TIP3    H110583   2.684   2.424   4.759  2.1267 -0.8207  0.6834
 3550TIP3    H210584   2.560   2.400   4.843  0.2208 -0.4773 -1.9560
 3551TIP3   OH210585   4.285   4.309   2.634 -0.0337  0.3080  0.1618
 3551TIP3    H110586   4.248   4.230   2.672 -0.4160  0.9394  1.1224
 3551TIP3    H210587   4.236   4.381   2.674 -1.3422  0.9557 -2.4711
 3552TIP3   OH210588   0.392   5.229   3.630 -0.0774 -0.0166 -0.3484
 3552TIP3    H110589   0.339   5.299   3.593 -1.2257 -1.9946 -2.6438
 3552TIP3    H210590   0.339   5.150   3.618  1.7720 -1.4860  0.8524
 3553TIP3   OH210591   2.654   5.238   2.643  0.1620 -0.0814  0.2422
 3553TIP3    H110592   2.614   5.325   2.646  1.0219  0.2949  1.1247
 3553TIP3    H210593   2.593   5.185   2.592 -0.9288  0.7508  0.6653
 3554TIP3   OH210594   2.306   2.395   3.046  0.0768  0.3000  0.1270
 3554TIP3    H110595   2.376   2.379   2.983 -0.7152 -1.0215 -0.4490
 3554TIP3    H210596   2.351   2.410   3.130  1.1347  2.0252 -0.7115
 3555TIP3   OH210597   2.679   2.028   3.850 -0.3933  0.1125  0.4734
 3555TIP3    H110598   2.708   2.117   3.870  0.9179 -0.1929 -0.0026
 3555TIP3    H210599   2.708   2.012   3.760 -1.0241 -0.6319  0.3908
 3556TIP3   OH210600   1.655   1.995   4.955 -0.2799 -0.2489  0.0357
 3556TIP3    H110601   1.698   1.909   4.962 -0.4522 -0.1780  2.2059
 3556TIP3    H210602   1.683   2.042   5.033 -1.2134  1.2352 -0.5060
 3557TIP3   OH210603   4.796   1.926   2.453 -0.5244  0.0898  0.2998
 3557TIP3    H110604   4.720   1.948   2.508 -1.1625 -1.1018 -0.0953
 3557TIP3    H210605   4.872   1.945   2.509 -1.1506 -0.4736  1.3616
 3558TIP3   OH210606   4.423   2.468   2.577 -0.2481  0.6309  0.1292
 3558TIP3    H110607   4.493   2.533   2.582  0.8672 -0.6106  0.7771
 3558TIP3    H210608   4.457   2.400   2.520 -0.8702 -0.0732  0.5910
 3559TIP3   OH210609   1.688   2.069   3.315 -0.4084 -0.5189 -0.5686
 3559TIP3    H110610   1.721   2.158   3.301  0.9474 -0.7378  1.0746
 3559TIP3    H210611   1.651   2.043   3.230 -0.0956  1.3004 -1.2830
 3560TIP3   OH210612   3.183   3.665   3.013 -0.1201  0.0739 -0.4168
 3560TIP3    H110613   3.112   3.642   2.953  0.1681  0.0197 -0.7426
 3560TIP3    H210614   3.245   3.592   3.006 -0.0757  0.0765 -0.0671
 3561TIP3   OH210615   1.988   0.572   2.847  0.3533  0.3709 -0.2681
 3561TIP3    H110616   1.922   0.505   2.865 -0.6725  2.0160  2.4510
 3561TIP3    H210617   1.938   0.652   2.835  1.7473  1.3124  0.0906
 3562TIP3   OH210618   2.062   2.657   3.743 -0.2991  0.4982  0.2775
 3562TIP3    H110619   2.144   2.616   3.772 -1.1108 -0.2522  1.5765
 3562TIP3    H210620   2.007   2.658   3.822 -0.7203  3.0412 -0.0195
 3563TIP3   OH210621   0.933   1.328   2.550  0.0123  0.5991  0.0087
 3563TIP3    H110622   0.953   1.235   2.547 -3.2088 -0.1629 -0.5333
 3563TIP3    H210623   0.970   1.359   2.632  0.8150 -1.2503  0.3551
 3564TIP3   OH210624   3.418   4.799   1.900  0.0256 -0.4100  0.1612
 3564TIP3    H110625   3.340   4.832   1.856  0.1922 -0.9117 -0.5176
 3564TIP3    H210626   3.482   4.870   1.893  0.1233 -0.5724 -0.6015
 3565TIP3   OH210627   2.312   3.296   2.137 -1.0386  0.0954 -0.2731
 3565TIP3    H110628   2.277   3.246   2.211 -0.3780  1.0727  0.6967
 3565TIP3    H210629   2.403   3.269   2.130 -0.3668  1.9868  0.9627
 3566TIP3   OH210630   1.224   2.130   3.251  0.6426 -0.2061  0.2120
 3566TIP3    H110631   1.280   2.203   3.227  0.8573  0.1974  1.8743
 3566TIP3    H210632   1.254   2.105   3.338  0.6774 -2.3921 -0.4109
 3567TIP3   OH210633   3.656   4.232   2.433 -0.6546 -0.1229 -0.2005
 3567TIP3    H110634   3.665   4.156   2.490 -0.4900  0.4280  0.5114
 3567TIP3    H210635   3.577   4.277   2.464 -0.7025  0.0487 -0.5613
 3568TIP3   OH210636   7.620   2.234   5.691  0.1229 -0.0425 -0.5833
 3568TIP3    H110637   7.666   2.159   5.653  0.0076  0.4186 -1.6585
 3568TIP3    H210638   7.669   2.311   5.660  1.4667  0.2783  2.1640
 3569TIP3   OH210639   1.657   3.688   5.820  0.2276  0.9883  0.0496
 3569TIP3    H110640   1.614   3.629   5.759  1.9381 -0.0041 -0.2203
 3569TIP3    H210641   1.596   3.695   5.893 -0.7400  0.2342 -0.6699
 3570TIP3   OH210642   0.887   1.976   2.705  0.1445 -0.6449  0.4752
 3570TIP3    H110643   0.906   2.047   2.644 -1.9804  0.2702  0.8536
 3570TIP3    H210644   0.826   2.014   2.769  0.4197 -2.2740  1.7666
 3571TIP3   OH210645   1.695   2.365   2.848  0.2647  0.0416  0.0954
 3571TIP3    H110646   1.666   2.278   2.820 -2.6980  1.2658 -0.8162
 3571TIP3    H210647   1.729   2.405   2.768 -0.3507  0.4771  0.0490
 3572TIP3   OH210648   2.055   2.222   5.281 -0.7298  0.1307  0.1219
 3572TIP3    H110649   2.150   2.223   5.270 -0.8058 -1.8060 -0.8097
 3572TIP3    H210650   2.023   2.283   5.215 -0.2282 -0.4821 -0.7040
 3573TIP3   OH210651   2.422   5.876   5.274 -0.0892 -0.3160 -0.0228
 3573TIP3    H110652   2.335   5.909   5.250  0.3313 -0.2581 -1.5462
 3573TIP3    H210653   2.422   5.785   5.245  0.6804 -0.0435 -0.9224
 3574TIP3   OH210654   4.148   5.293   3.197 -0.2492 -0.0753 -0.2407
 3574TIP3    H110655   4.153   5.280   3.103  1.2871  0.8459 -0.2933
 3574TIP3    H210656   4.061   5.261   3.221 -0.1253 -1.5764 -1.7493
 3575TIP3   OH210657   0.971   4.553   3.412 -0.0360 -0.0745 -0.6387
 3575TIP3    H110658   1.048   4.497   3.400 -0.5467 -0.5985 -1.5731
 3575TIP3    H210659   0.946   4.578   3.322 -0.6308  0.5417 -0.3080
 3576TIP3   OH210660   3.528   4.669   1.667 -0.3966  0.0238 -0.3928
 3576TIP3    H110661   3.455   4.712   1.711 -1.2126  1.2772 -2.8918
 3576TIP3    H210662   3.603   4.685   1.724 -1.6913  0.3712  1.2416
 3577TIP3   OH210663   4.663   4.911   3.337  0.5200 -0.2478  0.2888
 3577TIP3    H110664   4.683   5.004   3.348 -1.6675  0.2788 -0.0119
 3577TIP3    H210665   4.591   4.894   3.397 -0.0961 -1.3826 -0.7333
 3578TIP3   OH210666   4.338   4.914   2.888 -0.2260  0.1596  0.3865
 3578TIP3    H110667   4.351   4.871   2.973 -2.0317  1.9582  1.6475
 3578TIP3    H210668   4.389   4.995   2.894 -0.1538  0.1674 -0.3387
 3579TIP3   OH210669   4.008   3.599   3.443 -0.0907 -0.3164  0.2240
 3579TIP3    H110670   4.077   3.636   3.387  1.6685 -1.9397  1.2272
 3579TIP3    H210671   3.926   3.633   3.407  1.1751  0.8585 -1.6311
 3580TIP3   OH210672   2.833   3.844   3.604  0.7523  0.3891 -0.8603
 3580TIP3    H110673   2.782   3.780   3.554  0.3043 -0.1759  0.3054
 3580TIP3    H210674   2.829   3.813   3.694  3.4102  0.1788 -0.7726
 3581TIP3   OH210675   0.872   0.913   6.132 -0.1168  0.3646  0.1021
 3581TIP3    H110676   0.789   0.893   6.174 -0.7216 -0.4100 -1.4087
 3581TIP3    H210677   0.937   0.901   6.201 -1.2146  0.6375  1.2088
 3582TIP3   OH210678   2.671   4.815   2.623  0.2578 -0.4650 -0.4064
 3582TIP3    H110679   2.619   4.761   2.683  0.4811  0.1471  0.3648
 3582TIP3    H210680   2.606   4.854   2.564  0.0779 -1.4024 -0.8385
 3583TIP3   OH210681   4.929   3.422   4.063 -0.2042 -0.5512  0.1009
 3583TIP3    H110682   5.003   3.457   4.014 -0.4687 -1.1991 -0.7840
 3583TIP3    H210683   4.870   3.388   3.996 -0.6534 -1.3074  0.8634
 3584TIP3   OH210684   3.307   4.453   2.209  0.3932  0.3442  0.0937
 3584TIP3    H110685   3.313   4.366   2.168 -0.2205  0.8006 -0.9803
 3584TIP3    H210686   3.229   4.492   2.171  1.5025  1.9599 -0.5895
 3585TIP3   OH210687   2.664   1.870   2.613 -0.4644 -0.0985 -0.0445
 3585TIP3    H110688   2.730   1.929   2.576 -1.6267  1.3364  0.1172
 3585TIP3    H210689   2.665   1.889   2.707 -2.7491  1.6761 -0.3267
 3586TIP3   OH210690   4.154   4.933   4.014 -0.4652  0.1735 -0.0920
 3586TIP3    H110691   4.206   4.949   4.093 -0.2381 -0.5656 -0.0861
 3586TIP3    H210692   4.211   4.960   3.942 -0.1769 -0.3538 -0.0685
 3587TIP3   OH210693   3.229   2.958   4.647  0.0715 -0.3570  0.0367
 3587TIP3    H110694   3.300   2.915   4.697  0.6996 -0.2860 -0.7784
 3587TIP3    H210695   3.271   2.986   4.566  0.5632  5.0462  1.9955
 3588TIP3   OH210696   3.959   3.803   2.615 -0.6452 -0.1247 -0.4860
 3588TIP3    H110697   3.984   3.887   2.652 -3.1896  0.1608  0.6847
 3588TIP3    H210698   3.988   3.807   2.524  0.3438  1.5131 -0.1143
 3589TIP3   OH210699   6.894   3.426   2.345  0.4370  0.1439 -0.4985
 3589TIP3    H110700   6.952   3.483   2.396 -2.6638  1.6772  1.4923
 3589TIP3    H210701   6.851   3.486   2.283 -0.6944 -0.5173 -0.3708
 3590TIP3   OH210702   4.177   2.040   2.055  0.4739  0.0911  0.1894
 3590TIP3    H110703   4.133   2.012   1.974 -0.6270 -0.4371  0.9524
 3590TIP3    H210704   4.270   2.030   2.036  0.1801 -2.8502 -0.0464
 3591TIP3   OH210705   4.357   5.087   3.817  0.5861  0.5055  0.3807
 3591TIP3    H110706   4.407   5.082   3.899  1.4056  1.1354 -0.0725
 3591TIP3    H210707   4.395   5.162   3.770 -1.0815  1.2859  0.2216
 3592TIP3   OH210708   4.502   3.222   4.719 -0.1207  0.0250  0.7901
 3592TIP3    H110709   4.495   3.146   4.776  0.3207  1.4822  2.8133
 3592TIP3    H210710   4.596   3.236   4.708 -0.1918 -0.6792 -0.9144
 3593TIP3   OH210711   3.482   5.742   2.208  0.2470 -0.0224  0.2050
 3593TIP3    H110712   3.552   5.681   2.182  0.0620 -0.6040  1.0157
 3593TIP3    H210713   3.406   5.686   2.223 -0.0458  0.4611  0.5354
 3594TIP3   OH210714   1.268   3.355   4.268 -0.0728 -0.9227  0.0016
 3594TIP3    H110715   1.254   3.426   4.205 -0.3469  0.3778  1.4850
 3594TIP3    H210716   1.314   3.288   4.218 -0.5907 -0.0691 -1.6717
 3595TIP3   OH210717   4.160   3.659   2.442  0.8447 -0.6609  0.6081
 3595TIP3    H110718   4.214   3.633   2.516  0.5850 -0.2349  0.9482
 3595TIP3    H210719   4.096   3.587   2.433 -0.1521  0.0567  1.8291
 3596TIP3   OH210720   3.329   3.062   1.859  0.4123  0.1693 -0.1283
 3596TIP3    H110721   3.294   3.018   1.781 -0.8770 -0.1338  0.6141
 3596TIP3    H210722   3.342   2.991   1.922  0.8716  0.4995  0.1508
 3597TIP3   OH210723   5.270   5.813   4.355 -0.0533  0.5126  0.0693
 3597TIP3    H110724   5.194   5.871   4.352  0.1222  0.7380 -0.1607
 3597TIP3    H210725   5.286   5.790   4.263  1.0337  1.6428 -0.0405
 3598TIP3   OH210726   3.764   2.080   3.702  0.1684  0.1748 -0.3144
 3598TIP3    H110727   3.771   2.069   3.797 -0.3707  1.3244 -0.1299
 3598TIP3    H210728   3.853   2.068   3.670  0.9588  3.0027  0.6888
 3599TIP3   OH210729   3.876   3.469   2.148 -0.1453  0.2178 -0.0963
 3599TIP3    H110730   3.878   3.468   2.244  1.9253  0.4693 -0.1345
 3599TIP3    H210731   3.857   3.560   2.125  0.0535  0.2996  0.0633
 3600TIP3   OH210732   5.356   4.010   1.667 -0.3745 -0.2641 -0.0416
 3600TIP3    H110733   5.356   3.915   1.667  1.1814 -0.2994 -1.4082
 3600TIP3    H210734   5.327   4.035   1.754 -0.2822 -1.9871  0.4950
 3601TIP3   OH210735   3.775   3.452   1.838 -0.2437 -0.1262 -0.7683
 3601TIP3    H110736   3.855   3.446   1.890 -1.2228  0.0458  0.7909
 3601TIP3    H210737   3.716   3.388   1.877 -0.4815 -1.0883 -2.6429
 3602TIP3   OH210738   4.341   6.076   3.438 -0.2915  0.6957 -1.1692
 3602TIP3    H110739   4.306   5.987   3.428  2.3551 -0.6246  0.6693
 3602TIP3    H210740   4.290   6.114   3.510 -0.0657 -0.0634 -0.6084
 3603TIP3   OH210741   2.791   4.573   3.040 -0.5198  0.4579  0.0711
 3603TIP3    H110742   2.756   4.653   3.078  1.2750  1.2818  0.0540
 3603TIP3    H210743   2.885   4.577   3.060 -0.2863 -1.2497 -0.6258
 3604TIP3   OH210744   4.824   3.766   2.392  0.5139 -0.7857 -0.2464
 3604TIP3    H110745   4.740   3.760   2.346  1.4311  0.7613 -2.2251
 3604TIP3    H210746   4.858   3.852   2.367  2.9945 -1.6766 -0.0296
 3605TIP3   OH210747   6.145   5.713   2.183  0.1568  0.4690  0.1849
 3605TIP3    H110748   6.197   5.662   2.244  0.8387  1.0414  0.0858
 3605TIP3    H210749   6.109   5.784   2.235 -1.4529 -0.5525  0.5000
 3606TIP3   OH210750   4.314   5.040   3.296 -0.8979 -0.0566 -0.8017
 3606TIP3    H110751   4.289   4.984   3.370  0.3348 -1.8631 -1.7195
 3606TIP3    H210752   4.310   5.129   3.331 -0.5777 -0.8652  1.3623
 3607TIP3   OH210753   4.222   4.253   3.078 -0.0057  0.1505  0.4973
 3607TIP3    H110754   4.310   4.285   3.102  0.5509 -0.8216 -0.1998
 3607TIP3    H210755   4.178   4.241   3.162  0.3738  1.0675  0.8376
 3608TIP3   OH210756   1.889   4.152   3.277 -0.3711 -0.1072  0.1762
 3608TIP3    H110757   1.870   4.122   3.366 -0.9967 -1.2166 -0.3207
 3608TIP3    H210758   1.913   4.244   3.287 -1.5491  0.0853  1.3627
 3609TIP3   OH210759   3.396   5.700   4.523 -0.0479  0.4451 -0.1665
 3609TIP3    H110760   3.313   5.733   4.488 -0.5773  1.6716  2.2072
 3609TIP3    H210761   3.388   5.709   4.618  1.7506 -1.9525  0.2596
 3610TIP3   OH210762   3.113   2.284   1.948  0.0447  0.0650 -0.2885
 3610TIP3    H110763   3.086   2.343   2.018 -0.1908 -0.4093  0.0239
 3610TIP3    H210764   3.120   2.340   1.871 -2.1383  0.1503 -0.4490
 3611TIP3   OH210765   4.840   3.821   2.885  0.8871  0.0657  0.5709
 3611TIP3    H110766   4.774   3.861   2.828  0.4759 -2.7091 -1.0083
 3611TIP3    H210767   4.885   3.895   2.925  0.7909  2.1272 -2.9410
 3612TIP3   OH210768   3.314   5.717   3.532  0.3868  0.1165 -0.2210
 3612TIP3    H110769   3.246   5.672   3.583  0.2815  0.5327  0.0085
 3612TIP3    H210770   3.266   5.766   3.466  0.3928  1.2660  0.6133
 3613TIP3   OH210771   5.619   3.706   1.785  0.5138 -0.1290 -0.4739
 3613TIP3    H110772   5.527   3.719   1.764  0.5794 -1.0459 -1.3549
 3613TIP3    H210773   5.619   3.633   1.847  0.6878 -0.4647 -0.8691
 3614TIP3   OH210774   5.193   4.816   4.234  0.2810  0.6217  0.1704
 3614TIP3    H110775   5.179   4.770   4.316  0.3792  0.2257 -0.0333
 3614TIP3    H210776   5.287   4.808   4.217  0.2957  0.8787  0.1257
 3615TIP3   OH210777   5.976   5.151   0.687  0.1495  0.6883  0.0202
 3615TIP3    H110778   6.011   5.144   0.598 -0.3953  0.2721 -0.1614
 3615TIP3    H210779   5.942   5.240   0.693  1.6400  1.2453  0.3429
 3616TIP3   OH210780   0.569   4.676   4.743  0.1176  0.7129  0.1817
 3616TIP3    H110781   0.606   4.762   4.722 -1.3450  1.6492  1.3173
 3616TIP3    H210782   0.479   4.695   4.769  0.8653 -0.6802  4.2050
 3617TIP3   OH210783   3.955   2.623   2.491 -0.3215  0.2053 -0.4949
 3617TIP3    H110784   3.942   2.710   2.454 -0.5997  0.1691 -0.4806
 3617TIP3    H210785   4.005   2.638   2.571 -0.2309  0.3364 -0.5757
 3618TIP3   OH210786   3.703   3.695   2.157  0.2685 -0.3456  0.1835
 3618TIP3    H110787   3.709   3.654   2.244  1.2420  1.1436  0.8296
 3618TIP3    H210788   3.620   3.744   2.161  0.5196  0.0610  0.4199
 3619TIP3   OH210789   4.888   3.606   3.473 -0.5226  0.1990  0.0301
 3619TIP3    H110790   4.865   3.548   3.546 -3.3722  3.2713  1.6906
 3619TIP3    H210791   4.983   3.598   3.465 -0.4927 -2.3580  2.1715
 3620TIP3   OH210792   3.280   3.422   3.614 -0.0360  0.0022  0.0993
 3620TIP3    H110793   3.296   3.414   3.708 -0.8845  1.6328  0.3898
 3620TIP3    H210794   3.301   3.513   3.593  1.8969 -0.7892 -1.6458
 3621TIP3   OH210795   2.496   4.590   3.952  0.4479 -0.4196  0.1890
 3621TIP3    H110796   2.582   4.630   3.963  0.5786 -0.9195  1.0776
 3621TIP3    H210797   2.514   4.501   3.922  0.2539 -0.5869  0.5631
 3622TIP3   OH210798   4.644   2.492   2.913  0.2186  0.5712  0.0221
 3622TIP3    H110799   4.586   2.424   2.947  0.4764  0.5243  0.3698
 3622TIP3    H210800   4.700   2.447   2.849  0.8135  0.3239  0.7146
 3623TIP3   OH210801   8.481   4.764   2.985  0.2091 -0.3794  0.0173
 3623TIP3    H110802   8.393   4.744   3.016 -0.6414  0.7926 -1.6138
 3623TIP3    H210803   8.515   4.827   3.049 -1.1202  1.1503 -0.7398
 3624TIP3   OH210804   4.381   3.977   1.682 -0.2952  0.5395 -0.1885
 3624TIP3    H110805   4.315   4.044   1.699 -0.8356  0.1876 -0.8469
 3624TIP3    H210806   4.367   3.911   1.751  0.0451  0.9626  0.2835
 3625TIP3   OH210807   3.132   5.725   2.553 -0.1591  0.4342  0.2285
 3625TIP3    H110808   3.088   5.788   2.610 -0.4552  0.4024  0.0383
 3625TIP3    H210809   3.092   5.641   2.575 -0.2318  0.4131  0.0166
 3626TIP3   OH210810   4.401   4.964   1.949 -0.2963  0.0552 -0.0982
 3626TIP3    H110811   4.418   4.888   2.005  0.1208  0.2250  0.0059
 3626TIP3    H210812   4.305   4.972   1.948 -0.2645  0.8402  1.6544
 3627TIP3   OH210813   3.893   4.157   1.682 -0.2605  0.3463 -0.0757
 3627TIP3    H110814   3.886   4.228   1.746  0.0903 -0.3531  0.7560
 3627TIP3    H210815   3.802   4.140   1.657 -0.5917 -0.6589  1.6957
 3628TIP3   OH210816   5.073   2.837   3.100  0.5424 -0.2968  0.0984
 3628TIP3    H110817   4.987   2.874   3.080 -0.7443 -2.4442  1.4840
 3628TIP3    H210818   5.119   2.837   3.016 -0.8995  0.6207 -0.7102
 3629TIP3   OH210819   2.117   3.501   2.117 -0.0147  0.1105  0.2973
 3629TIP3    H110820   2.159   3.415   2.117 -0.3400 -0.0576 -0.6197
 3629TIP3    H210821   2.115   3.527   2.209  0.7382 -0.5425  0.4988
 3630TIP3   OH210822   4.752   3.881   3.541  0.2895 -0.2446 -0.0017
 3630TIP3    H110823   4.826   3.835   3.582  1.3251  1.0836 -0.3349
 3630TIP3    H210824   4.729   3.950   3.604  0.4886  0.4520 -0.6889
 3631TIP3   OH210825   4.734   2.484   2.356  0.5873  0.2095 -0.1499
 3631TIP3    H110826   4.645   2.450   2.357 -0.1902  2.1630 -0.9351
 3631TIP3    H210827   4.751   2.513   2.446 -0.6130  2.3791 -0.5813
 3632TIP3   OH210828   4.129   3.372   3.213 -0.4323 -0.2448 -0.7775
 3632TIP3    H110829   4.081   3.430   3.272  0.1991 -0.8828  0.3808
 3632TIP3    H210830   4.221   3.400   3.222  0.0050 -2.0384  0.5283
 3633TIP3   OH210831   4.623   3.930   2.730 -0.1035  0.2632 -0.5631
 3633TIP3    H110832   4.592   4.021   2.727  0.1690  0.3837  0.3228
 3633TIP3    H210833   4.556   3.884   2.781  0.8710  0.4083  0.8628
 3634TIP3   OH210834   4.484   2.307   2.347 -0.7079  0.5314 -0.3068
 3634TIP3    H110835   4.392   2.290   2.326 -0.7268  0.9151 -0.5404
 3634TIP3    H210836   4.528   2.223   2.334 -0.7019  0.7734 -1.9760
 3635TIP3   OH210837   3.317   3.126   4.430  0.2443 -0.1595  0.6660
 3635TIP3    H110838   3.314   3.151   4.523  4.0249  0.6232  0.6749
 3635TIP3    H210839   3.319   3.210   4.383  2.2245 -0.4611  0.1385
 3636TIP3   OH210840   2.599   2.762   0.717 -0.2856  0.1990 -0.5840
 3636TIP3    H110841   2.580   2.849   0.681 -1.8293  0.0426 -0.1538
 3636TIP3    H210842   2.536   2.750   0.788 -0.6111 -1.5887 -1.1435
 3637TIP3   OH210843   4.205   3.569   0.431 -0.1063  0.3199  0.4434
 3637TIP3    H110844   4.111   3.551   0.431 -0.4176  1.8269 -0.0737
 3637TIP3    H210845   4.217   3.629   0.358  1.4527 -0.7505 -0.2000
 3638TIP3   OH210846   3.082   5.580   1.965  0.3979  0.0255  0.1776
 3638TIP3    H110847   3.166   5.539   1.989  0.4799  1.4205  2.4139
 3638TIP3    H210848   3.028   5.572   2.044 -0.9153  0.8388 -0.6162
 3639TIP3   OH210849   3.350   2.883   2.069 -0.2193  0.0175 -0.4819
 3639TIP3    H110850   3.409   2.949   2.107 -0.9518  0.3893  0.0346
 3639TIP3    H210851   3.396   2.800   2.080  0.1008  0.2734  0.1588
 3640TIP3   OH210852   2.773   5.010   2.834 -0.1712 -0.1019  0.0678
 3640TIP3    H110853   2.763   4.942   2.767  1.5557  1.4730 -1.8407
 3640TIP3    H210854   2.776   5.092   2.785 -1.5579  1.3183  2.2978
 3641TIP3   OH210855   4.836   3.007   3.266 -0.1669 -0.4137 -0.5100
 3641TIP3    H110856   4.849   2.964   3.351 -1.5784  2.8335  1.4741
 3641TIP3    H210857   4.886   3.089   3.273 -2.1527  0.9644 -1.9075
 3642TIP3   OH210858   4.367   2.001   0.731  0.2314 -0.4821 -0.0252
 3642TIP3    H110859   4.424   2.053   0.787  0.7330 -2.6430  1.5569
 3642TIP3    H210860   4.302   2.063   0.699  1.2717  1.2678  1.1562
 3643TIP3   OH210861   3.434   4.197   2.802 -0.2551 -0.2846  0.1936
 3643TIP3    H110862   3.347   4.237   2.805  0.0413  0.3091  0.8058
 3643TIP3    H210863   3.440   4.147   2.884  0.0680 -0.1555  0.2472
 3644TIP3   OH210864   2.363   2.299   2.770  0.0603 -0.0665  0.1202
 3644TIP3    H110865   2.297   2.357   2.732 -0.1742  0.0606  0.7280
 3644TIP3    H210866   2.393   2.246   2.696  0.2025  0.7555 -0.4074
 3645TIP3   OH210867   3.540   5.974   4.004  0.4096  0.2635 -0.3131
 3645TIP3    H110868   3.614   5.961   4.064  0.3710  0.6517 -0.1786
 3645TIP3    H210869   3.523   5.887   3.968 -0.7182 -0.3459  1.6095
 3646TIP3   OH210870   2.991   3.328   3.888 -0.2948 -0.9916  0.4616
 3646TIP3    H110871   2.986   3.237   3.859 -0.0735 -0.0928 -2.5114
 3646TIP3    H210872   2.904   3.364   3.868  1.1221  0.7151 -2.9408
 3647TIP3   OH210873   2.989   3.535   2.552  0.6019 -0.3474 -0.3414
 3647TIP3    H110874   2.984   3.630   2.555 -0.6504 -0.4148  0.1981
 3647TIP3    H210875   3.083   3.515   2.558  0.9338  0.8665 -1.4269
 3648TIP3   OH210876   3.499   3.080   2.585 -0.2920  0.0356  0.4831
 3648TIP3    H110877   3.451   3.075   2.667  0.1358  1.9701  0.8610
 3648TIP3    H210878   3.494   2.991   2.549 -3.3546 -0.0414  0.9582
 3649TIP3   OH210879   3.558   0.372   1.248  0.2944 -0.0132 -0.1761
 3649TIP3    H110880   3.571   0.464   1.224  0.5239  0.1720  0.6370
 3649TIP3    H210881   3.464   0.367   1.270  0.2194 -0.0417 -0.4980
 3650TIP3   OH210882   7.818   3.887   2.259  0.0287 -0.0426 -0.2483
 3650TIP3    H110883   7.860   3.934   2.187 -0.0414 -0.3862 -0.5173
 3650TIP3    H210884   7.855   3.925   2.338  0.8842 -0.3816 -0.4878
 3651TIP3   OH210885   4.831   4.226   3.611 -0.0493 -0.9793  0.5660
 3651TIP3    H110886   4.781   4.163   3.664 -0.0717 -0.0383  1.6713
 3651TIP3    H210887   4.808   4.204   3.520 -0.0801 -2.5439  0.9357
 3652TIP3   OH210888   3.491   3.392   2.014 -0.2108  0.2645  0.5623
 3652TIP3    H110889   3.517   3.362   2.102 -1.4926 -1.2224  0.4670
 3652TIP3    H210890   3.441   3.472   2.030  2.5490  1.9911  0.8941
 3653TIP3   OH210891   3.419   1.065   4.275 -0.1795 -0.7072  0.2114
 3653TIP3    H110892   3.465   0.981   4.274  2.0186  0.4335 -0.0284
 3653TIP3    H210893   3.380   1.070   4.362  0.0323 -1.8086  0.3762
 3654TIP3   OH210894   4.349   4.039   3.345 -0.4675 -1.1732 -0.1736
 3654TIP3    H110895   4.266   3.996   3.368 -1.0746  0.1723  0.1872
 3654TIP3    H210896   4.371   4.090   3.423  0.2036 -0.7707 -0.6265
 3655TIP3   OH210897   1.927   1.437   5.183 -0.4766 -0.0180 -0.0967
 3655TIP3    H110898   1.964   1.356   5.218 -2.8530 -1.4045 -0.6846
 3655TIP3    H210899   1.884   1.479   5.258 -0.7299 -0.1722 -0.1548
 3656TIP3   OH210900   5.532   7.716   2.408 -0.1842  0.3887  0.0968
 3656TIP3    H110901   5.622   7.744   2.394  0.5414 -2.4423 -1.1622
 3656TIP3    H210902   5.486   7.738   2.327 -0.3260  0.6161  0.2364
 3657TIP3   OH210903   4.744   3.528   2.092  0.0254 -0.1548  0.2442
 3657TIP3    H110904   4.771   3.444   2.130  0.3301  0.1618  0.7230
 3657TIP3    H210905   4.660   3.547   2.133  0.6139  0.4571  1.1730
 3658TIP3   OH210906   3.715   5.266   3.574 -0.0191 -0.4451  0.2660
 3658TIP3    H110907   3.642   5.327   3.562  1.7805  1.2434 -2.6642
 3658TIP3    H210908   3.686   5.186   3.531  0.1899  0.5303 -1.7461
 3659TIP3   OH210909   6.127   4.130   1.933 -0.1454  0.1701 -0.3595
 3659TIP3    H110910   6.098   4.208   1.979  1.9774  1.1331 -0.5887
 3659TIP3    H210911   6.049   4.097   1.888 -2.2630 -0.7936  3.8521
 3660TIP3   OH210912   4.507   3.713   1.980  0.0469  0.4203 -0.3152
 3660TIP3    H110913   4.499   3.676   2.068  1.0653  2.9430  0.8897
 3660TIP3    H210914   4.427   3.764   1.967  1.3119  2.6646  0.4701
 3661TIP3   OH210915   3.782   5.651   1.818  0.2661 -0.1551 -0.0686
 3661TIP3    H110916   3.836   5.613   1.749  1.0496  0.1661  0.3706
 3661TIP3    H210917   3.759   5.738   1.786 -0.3670 -0.4556 -0.4502
 3662TIP3   OH210918   4.290   2.269   3.867  0.2620 -0.1636  0.1107
 3662TIP3    H110919   4.250   2.353   3.888  0.9777  0.1498  0.2333
 3662TIP3    H210920   4.234   2.204   3.909  0.7330  0.3567  1.5650
 3663TIP3   OH210921   5.339   3.215   2.853 -0.0273  0.3844  0.2400
 3663TIP3    H110922   5.310   3.136   2.899 -0.8332 -1.0145 -2.5251
 3663TIP3    H210923   5.258   3.259   2.828  0.3741  0.6875 -0.5435
 3664TIP3   OH210924   3.896   5.125   3.260 -1.1347  0.5145  0.4788
 3664TIP3    H110925   3.904   5.071   3.181 -0.7306  3.2207 -1.3712
 3664TIP3    H210926   3.809   5.104   3.294 -1.6958 -0.0010 -1.2096
 3665TIP3   OH210927   3.277   2.533   2.571 -0.5486  0.1839 -0.1696
 3665TIP3    H110928   3.246   2.481   2.646  0.2038  0.9918  0.7068
 3665TIP3    H210929   3.274   2.623   2.602  0.1842  0.4810 -0.9660
 3666TIP3   OH210930   4.051   4.928   1.857  0.0818  0.2398  0.1002
 3666TIP3    H110931   4.071   4.840   1.828 -1.3857  0.4256 -1.6038
 3666TIP3    H210932   4.020   4.973   1.778 -0.6860  1.8042  1.2500
 3667TIP3   OH210933   4.163   4.824   2.260  0.5842 -0.0203 -0.1369
 3667TIP3    H110934   4.238   4.785   2.215 -1.7283 -4.2454 -0.5189
 3667TIP3    H210935   4.137   4.898   2.205  2.4362 -0.4853 -1.6787
 3668TIP3   OH210936   4.677   3.268   3.124 -0.3016  0.1158  0.3906
 3668TIP3    H110937   4.754   3.223   3.160 -1.4898 -2.1776  0.1807
 3668TIP3    H210938   4.669   3.348   3.175  1.6065 -0.1378  1.1100
 3669TIP3   OH210939   2.887   4.441   1.638 -0.5030  0.3408  0.1481
 3669TIP3    H110940   2.833   4.515   1.608  1.7469  1.3832 -1.5739
 3669TIP3    H210941   2.975   4.478   1.646  0.4757 -1.9247  0.2771
 3670TIP3   OH210942   2.785   4.521   0.161  0.2436  0.2267 -0.2912
 3670TIP3    H110943   2.792   4.433   0.196  0.7266  0.5301  0.3910
 3670TIP3    H210944   2.872   4.560   0.177 -0.3998  1.2945  0.7036
 3671TIP3   OH210945   3.249   5.015   1.955  0.3817 -0.0004  0.3532
 3671TIP3    H110946   3.179   5.032   1.892  1.0259 -1.9127 -0.9399
 3671TIP3    H210947   3.215   5.045   2.039 -1.0526  1.2743 -0.6712
 3672TIP3   OH210948   0.935   3.744   3.673  0.0013 -0.2685  0.0055
 3672TIP3    H110949   0.921   3.836   3.698  1.0938 -0.1614  0.2380
 3672TIP3    H210950   0.953   3.748   3.579  0.3367 -0.2129  0.0713
 3673TIP3   OH210951   1.840   3.316   1.308  0.3885 -0.8188 -0.2771
 3673TIP3    H110952   1.888   3.244   1.267 -0.0521 -1.7993  0.9010
 3673TIP3    H210953   1.852   3.303   1.402 -0.6756 -0.0368 -0.0197
 3674TIP3   OH210954   3.454   3.870   1.597  0.1222 -0.1434 -0.1448
 3674TIP3    H110955   3.496   3.806   1.540  2.1612 -0.1160  1.2383
 3674TIP3    H210956   3.485   3.847   1.685 -0.1835  1.9073  0.5354
 3675TIP3   OH210957   3.951   3.187   1.854  0.0654  0.2039  0.4241
 3675TIP3    H110958   4.000   3.269   1.867  0.6779  0.2978 -2.2786
 3675TIP3    H210959   4.005   3.120   1.897  1.4190  0.6574 -0.5428
 3676TIP3   OH210960   6.505   3.446   3.126  0.6913  0.1364  0.1699
 3676TIP3    H110961   6.413   3.463   3.143  0.8814  0.5348  0.7880
 3676TIP3    H210962   6.549   3.529   3.143  1.4569 -0.6272  2.0701
 3677TIP3   OH210963   6.202   5.789   1.552  0.4641  0.9203  0.2925
 3677TIP3    H110964   6.234   5.870   1.593 -1.3368  1.4169  0.7881
 3677TIP3    H210965   6.272   5.762   1.493  0.8493  3.1905 -0.3397
 3678TIP3   OH210966   4.491   2.337   4.061  0.2329 -0.5237  0.4809
 3678TIP3    H110967   4.414   2.318   4.006  0.4005 -2.1876  0.7893
 3678TIP3    H210968   4.516   2.427   4.038 -1.6811 -0.0335  0.2321
 3679TIP3   OH210969   3.479   3.077   2.218  0.4771 -0.2647 -0.2264
 3679TIP3    H110970   3.401   3.099   2.269  1.0622  1.7383 -0.1944
 3679TIP3    H210971   3.545   3.141   2.244  1.0475  0.2684 -2.8304
 3680TIP3   OH210972   1.374   4.590   2.554 -0.2276 -0.0029 -0.3484
 3680TIP3    H110973   1.433   4.525   2.516  0.0351  0.1874 -0.2726
 3680TIP3    H210974   1.354   4.650   2.482 -3.7100 -2.4089 -1.5084
 3681TIP3   OH210975   0.847   4.500   1.211  0.1201  0.5334 -0.0798
 3681TIP3    H110976   0.912   4.429   1.213 -0.3257  0.1191 -0.1799
 3681TIP3    H210977   0.764   4.456   1.227 -0.4778  0.6702 -2.5129
 3682TIP3   OH210978   4.042   5.103   0.678  0.0302  0.1303 -0.1236
 3682TIP3    H110979   4.049   5.059   0.593 -1.7459  0.7655 -0.6356
 3682TIP3    H210980   4.023   5.195   0.656 -2.3011 -0.0575  0.9353
 3683TIP3   OH210981   3.452   2.456   1.129  0.2788  0.4562 -0.7002
 3683TIP3    H110982   3.447   2.388   1.196 -0.5692 -0.4891 -1.7227
 3683TIP3    H210983   3.544   2.453   1.100  0.2853 -0.1344 -0.6291
 3684TIP3   OH210984   3.219   4.701   1.380  0.3899  0.3407 -0.2799
 3684TIP3    H110985   3.213   4.607   1.363  1.1524  0.4404 -1.1341
 3684TIP3    H210986   3.310   4.724   1.359  0.3694  1.1621  0.4828
 3685TIP3   OH210987   6.626   3.007   4.137  0.1456 -0.1870  0.0791
 3685TIP3    H110988   6.572   2.939   4.097 -0.8992  0.3075  0.6232
 3685TIP3    H210989   6.575   3.035   4.214  1.3852 -0.0368  0.8528
 3686TIP3   OH210990   3.850   3.768   1.904  0.4961 -0.4855  0.1785
 3686TIP3    H110991   3.830   3.746   1.995 -0.3761  1.1846  0.3905
 3686TIP3    H210992   3.827   3.860   1.895  3.7524  0.3087 -0.8065
 3687TIP3   OH210993   1.995   2.473   0.833  0.2638 -0.1808 -0.0899
 3687TIP3    H110994   2.002   2.382   0.804  1.3111  0.0009 -0.4528
 3687TIP3    H210995   1.963   2.520   0.756  1.8222  0.0967 -0.5912
 3688TIP3   OH210996   3.026   3.591   3.445  0.4796 -0.1119 -0.1098
 3688TIP3    H110997   3.062   3.539   3.373 -1.0289 -1.3610  0.0109
 3688TIP3    H210998   2.954   3.639   3.405 -0.3547 -0.8048  0.5480
 3689TIP3   OH210999   3.191   3.786   2.373 -0.0421 -0.0287  0.6006
 3689TIP3    H111000   3.143   3.704   2.362 -0.9740  0.3497  1.7328
 3689TIP3    H211001   3.159   3.842   2.302  1.8798 -1.2113 -1.2448
 3690TIP3   OH211002   1.364   5.868   0.080  0.8589  0.2496  0.3341
 3690TIP3    H111003   1.382   5.962   0.093 -0.9075  0.6163  0.2750
 3690TIP3    H211004   1.270   5.860   0.095  0.3788 -0.9429 -2.8408
 3691TIP3   OH211005   2.930   3.685   2.862 -0.2461  0.2011 -0.2465
 3691TIP3    H111006   2.844   3.710   2.828  0.2261 -0.3258 -1.8303
 3691TIP3    H211007   2.988   3.758   2.840  0.5497 -1.0818 -2.5888
 3692TIP3   OH211008   4.864   4.338   2.399  0.0762 -0.0471  0.4157
 3692TIP3    H111009   4.910   4.362   2.319 -1.1241 -0.9775 -0.5770
 3692TIP3    H211010   4.812   4.415   2.421 -1.4682 -0.6059 -1.0967
 3693TIP3   OH211011   3.867   3.332   1.396 -0.1652 -0.5421  0.7072
 3693TIP3    H111012   3.773   3.320   1.401 -0.3021  0.1749  0.0456
 3693TIP3    H211013   3.884   3.412   1.446  0.1019 -0.7290  0.9160
 3694TIP3   OH211014   4.797   4.306   1.422 -0.0853  0.1379  0.1080
 3694TIP3    H111015   4.793   4.266   1.508  0.6921  0.0526  0.1028
 3694TIP3    H211016   4.877   4.358   1.423 -0.0597  0.1179 -0.5714
 3695TIP3   OH211017   4.528   3.606   2.255 -0.1999  0.1458  0.2561
 3695TIP3    H111018   4.483   3.532   2.295 -0.1143 -0.4284 -0.7028
 3695TIP3    H211019   4.519   3.677   2.319 -0.7852 -0.5195  0.9193
 3696TIP3   OH211020   4.237   5.351   2.364  0.6524  0.0683  0.4401
 3696TIP3    H111021   4.219   5.388   2.278  2.5168  1.4852  0.6365
 3696TIP3    H211022   4.150   5.335   2.402 -0.1864  1.2603 -0.9190
 3697TIP3   OH211023   2.706   4.028   2.182 -0.8853  0.2942 -0.7013
 3697TIP3    H111024   2.667   4.039   2.095 -1.0614  0.9270 -0.5490
 3697TIP3    H211025   2.799   4.047   2.169 -0.2174 -3.1848 -1.4647
 3698TIP3   OH211026   3.001   3.848   3.156 -0.1394 -0.0465  0.0959
 3698TIP3    H111027   3.074   3.789   3.137  0.2746 -0.4684  2.7117
 3698TIP3    H211028   2.923   3.797   3.135  0.2856 -0.4405 -0.5284
 3699TIP3   OH211029   0.640   5.125   5.193 -0.1330 -0.3523 -0.1019
 3699TIP3    H111030   0.679   5.143   5.279 -0.1079 -0.7722 -0.0237
 3699TIP3    H211031   0.690   5.050   5.159  0.7208  0.6343 -1.0538
 3700TIP3   OH211032   4.316   6.417   2.001  0.3213 -0.4719 -0.0862
 3700TIP3    H111033   4.404   6.437   2.035 -0.4237  0.3691  1.3751
 3700TIP3    H211034   4.285   6.345   2.057  0.1819 -0.9631 -0.7847
 3701TIP3   OH211035   2.521   3.573   1.919 -0.2217  0.2809  1.0353
 3701TIP3    H111036   2.508   3.484   1.887 -0.2684  0.6399  0.0368
 3701TIP3    H211037   2.441   3.620   1.895  0.1093  0.7804  0.8926
 3702TIP3   OH211038   4.749   3.920   0.584  0.4740 -0.0311 -0.4486
 3702TIP3    H111039   4.807   3.976   0.636  0.6116 -0.6687  0.0905
 3702TIP3    H211040   4.802   3.842   0.566  0.5699  0.3551 -1.9039
 3703TIP3   OH211041   4.430   2.793   1.137 -0.2647  0.3684  0.0506
 3703TIP3    H111042   4.402   2.795   1.228  0.7198 -0.3319  0.3644
 3703TIP3    H211043   4.352   2.821   1.088 -1.4482 -1.2774  0.9443
 3704TIP3   OH211044   3.339   3.903   2.551  0.1444  0.5306 -0.3659
 3704TIP3    H111045   3.343   3.852   2.632  2.6281  0.6385 -0.3685
 3704TIP3    H211046   3.286   3.849   2.491  1.0950 -1.1385  0.2544
 3705TIP3   OH211047   3.448   7.017   1.874 -0.4022  0.1021  0.0871
 3705TIP3    H111048   3.473   7.015   1.966  1.2299 -0.3621 -0.3648
 3705TIP3    H211049   3.405   7.103   1.863  0.0685  0.4728  1.0897
 3706TIP3   OH211050   3.488   3.860   2.215 -0.4973  0.3623 -0.4726
 3706TIP3    H111051   3.420   3.801   2.247 -0.6210  0.3380 -0.7728
 3706TIP3    H211052   3.441   3.933   2.176 -0.3560  0.2696 -0.8220
 3707TIP3   OH211053   4.926   1.637   2.499  0.6563 -0.4597  0.1815
 3707TIP3    H111054   4.922   1.715   2.554 -0.4302  0.5370 -1.2598
 3707TIP3    H211055   4.949   1.670   2.412 -1.7079 -1.4522 -0.8826
 3708TIP3   OH211056   2.407   1.775   4.376 -0.2240  0.6524  0.3313
 3708TIP3    H111057   2.316   1.752   4.356 -0.6768  0.5759  2.3368
 3708TIP3    H211058   2.400   1.858   4.424  0.9684  1.9728 -1.7343
 3709TIP3   OH211059   3.744   2.647   2.262 -0.1675 -0.0682 -0.4696
 3709TIP3    H111060   3.786   2.658   2.347 -0.9826 -0.1737 -0.0508
 3709TIP3    H211061   3.782   2.717   2.208 -0.1327  0.4072  0.1658
 3710TIP3   OH211062   3.483   1.187   2.291  0.3152  0.1738  0.0567
 3710TIP3    H111063   3.484   1.277   2.260 -1.0342  0.3742  0.5585
 3710TIP3    H211064   3.512   1.193   2.382  0.3658  0.0778  0.0468
 3711TIP3   OH211065   4.392   4.476   2.238  0.2314 -0.1014 -0.0625
 3711TIP3    H111066   4.297   4.480   2.246  0.3203  2.1188  0.2280
 3711TIP3    H211067   4.423   4.459   2.327  0.0993 -1.3122 -0.2395
 3712TIP3   OH211068   4.413   3.394   2.449  0.3174  0.2565  0.1749
 3712TIP3    H111069   4.461   3.318   2.481  1.2180  0.7158 -0.0902
 3712TIP3    H211070   4.364   3.425   2.525  1.1165  0.3181  0.6659
 3713TIP3   OH211071   3.315   5.332   3.662  0.1296 -0.4771  0.0533
 3713TIP3    H111072   3.278   5.390   3.728  0.4214 -0.7930  0.4965
 3713TIP3    H211073   3.353   5.260   3.712 -1.3259 -1.6790 -0.5683
 3714TIP3   OH211074   5.782   2.982   0.967  0.2016 -0.0220  0.2201
 3714TIP3    H111075   5.790   3.062   1.019 -3.2334 -0.2916  1.2902
 3714TIP3    H211076   5.802   3.009   0.878 -3.5342  2.7387  0.0983
 3715TIP3   OH211077   4.135   4.470   1.098 -0.1171 -0.0945  0.2620
 3715TIP3    H111078   4.226   4.495   1.111 -0.4180  1.0897  0.1122
 3715TIP3    H211079   4.139   4.391   1.044  0.9427 -1.8424  2.7667
 3716TIP3   OH211080   3.198   1.370   3.960  0.4047  0.3107 -0.0876
 3716TIP3    H111081   3.267   1.407   4.015  0.2290  0.3546  0.1014
 3716TIP3    H211082   3.198   1.277   3.982  1.2528  0.0841 -0.9959
 3717TIP3   OH211083   3.843   0.543   3.480 -0.3098 -0.1540 -0.3289
 3717TIP3    H111084   3.879   0.559   3.567  2.5716  0.2280 -1.5461
 3717TIP3    H211085   3.890   0.467   3.448 -0.1688  0.6931 -2.1870
 3718TIP3   OH211086   3.240   5.648   2.904  0.4939  0.4192  0.2355
 3718TIP3    H111087   3.288   5.691   2.833 -0.9854 -0.4080 -1.2762
 3718TIP3    H211088   3.294   5.571   2.926  0.3965  0.0577 -0.7649
 3719TIP3   OH211089   4.314   4.331   1.664 -0.5563 -0.2112  0.4422
 3719TIP3    H111090   4.308   4.303   1.573 -2.3573  1.8772 -0.0983
 3719TIP3    H211091   4.274   4.259   1.714 -1.7990 -0.2820 -0.6319
 3720TIP3   OH211092   4.917   2.939   4.017  0.2560 -0.1969 -0.2203
 3720TIP3    H111093   4.984   2.885   3.975  0.1217 -0.2470 -0.3710
 3720TIP3    H211094   4.964   2.987   4.085  0.5305  0.1303 -0.6432
 3721TIP3   OH211095   3.467   3.247   2.930 -0.2568  0.2630  0.0437
 3721TIP3    H111096   3.546   3.203   2.962 -1.1090 -0.5046  1.1462
 3721TIP3    H211097   3.493   3.339   2.922  0.8716 -0.0462 -0.0387
 3722TIP3   OH211098   3.350   3.689   3.717 -0.6318 -0.5746  0.0605
 3722TIP3    H111099   3.297   3.651   3.787 -0.4751 -1.1170 -0.1091
 3722TIP3    H211100   3.296   3.759   3.681 -1.3173 -1.2532 -0.2424
 3723TIP3   OH211101   5.315   5.298   3.589 -0.3095 -0.0617  0.2690
 3723TIP3    H111102   5.382   5.313   3.523  0.1711 -0.8817  0.5669
 3723TIP3    H211103   5.238   5.269   3.540  0.2810 -1.4200  0.1268
 3724TIP3   OH211104   3.433   6.089   3.473  0.8198  0.3025 -0.4946
 3724TIP3    H111105   3.391   6.041   3.544  1.3599  0.4445 -0.0779
 3724TIP3    H211106   3.451   6.175   3.509 -0.8808  1.1091 -1.4994
 3725TIP3   OH211107   5.022   3.836   4.215  0.5814 -0.2557  0.0880
 3725TIP3    H111108   5.057   3.919   4.248  0.0397  0.0774 -0.1749
 3725TIP3    H211109   5.001   3.854   4.123  2.1494 -1.1932 -0.4797
 3726TIP3   OH211110   5.556   3.581   4.342  0.8446 -0.5477 -0.6312
 3726TIP3    H111111   5.649   3.560   4.344  1.2074  1.1359  0.9730
 3726TIP3    H211112   5.552   3.670   4.309  0.0176  0.3848  1.8860
 3727TIP3   OH211113   3.967   2.127   6.209  0.4675 -0.5130  0.1827
 3727TIP3    H111114   4.029   2.059   6.236  0.5080  0.8713  3.7719
 3727TIP3    H211115   4.010   2.209   6.233 -1.6249  0.5835  0.2812
 3728TIP3   OH211116   7.569   0.065   6.780  0.1873 -0.0264 -0.4204
 3728TIP3    H111117   7.520  -0.012   6.753  1.0073 -0.4269 -0.7927
 3728TIP3    H211118   7.600   0.046   6.868 -0.0630  0.0995 -0.3048
 3729TIP3   OH211119   2.589   1.830   0.466  0.1916 -0.0015 -0.2460
 3729TIP3    H111120   2.600   1.754   0.524  0.0326 -0.5268 -0.9068
 3729TIP3    H211121   2.523   1.803   0.403 -0.3603  0.9328 -0.0813
 3730TIP3   OH211122   3.512   5.657   1.613 -0.6531  0.1904  0.1758
 3730TIP3    H111123   3.520   5.663   1.518 -1.3037  1.9692  0.2156
 3730TIP3    H211124   3.560   5.733   1.646  0.3599 -0.9305  1.3164
 3731TIP3   OH211125   2.818   2.730   1.785 -0.1029 -1.0280  0.3314
 3731TIP3    H111126   2.871   2.702   1.859 -1.4584 -1.2080  1.2398
 3731TIP3    H211127   2.796   2.649   1.739  0.2071 -0.9707  0.0744
 3732TIP3   OH211128   4.781   6.677   2.071  0.3181  0.3896  0.2356
 3732TIP3    H111129   4.850   6.726   2.117  1.2987 -1.4325  0.7397
 3732TIP3    H211130   4.799   6.692   1.978  0.7523  0.8042  0.3833
 3733TIP3   OH211131   4.791   4.555   3.012 -0.1617 -0.3214 -0.1731
 3733TIP3    H111132   4.721   4.490   3.013  0.6311 -1.2482  2.9610
 3733TIP3    H211133   4.798   4.583   2.921 -2.8213 -2.1212 -0.9689
 3734TIP3   OH211134   3.003   3.170   2.868  0.0736  0.4141 -0.3745
 3734TIP3    H111135   2.927   3.184   2.925  1.4313 -0.0313  1.6401
 3734TIP3    H211136   3.037   3.257   2.850 -0.2400  0.5479 -0.3160
 3735TIP3   OH211137   4.686   4.415   1.179 -0.0354  0.1859  0.0294
 3735TIP3    H111138   4.739   4.399   1.257 -1.8037  0.0629  1.2454
 3735TIP3    H211139   4.748   4.414   1.107  1.5982  0.0025  1.4075
 3736TIP3   OH211140   5.911   2.628   0.790  0.4344 -0.3342  0.0245
 3736TIP3    H111141   5.933   2.678   0.868  0.7092  0.9781 -0.8621
 3736TIP3    H211142   5.983   2.566   0.779  1.7978  1.3395 -0.7113
 3737TIP3   OH211143   4.907   2.835   1.570 -0.4444 -0.1685  0.1408
 3737TIP3    H111144   4.964   2.807   1.642  1.4721 -0.4276 -1.4357
 3737TIP3    H211145   4.822   2.851   1.612  0.1214 -2.1389  2.1252
 3738TIP3   OH211146   5.136   4.841   2.242 -0.1789 -0.1318  0.6167
 3738TIP3    H111147   5.205   4.813   2.302 -0.3117  1.0267  1.3350
 3738TIP3    H211148   5.177   4.908   2.188 -0.2536 -0.6892 -0.1433
 3739TIP3   OH211149   6.043   2.283   0.074  0.0641 -0.1580 -0.0520
 3739TIP3    H111150   6.134   2.310   0.083 -0.1097  0.3352  0.1850
 3739TIP3    H211151   6.048   2.191   0.047  0.6440  0.1978 -1.1576
 3740TIP3   OH211152   3.667   2.065   1.616 -0.0627 -0.0108 -0.1029
 3740TIP3    H111153   3.723   1.990   1.637  0.2542  0.3742  0.4479
 3740TIP3    H211154   3.622   2.039   1.535 -0.7446 -1.2084  0.6533
 3741TIP3   OH211155   2.784   3.427   3.647 -0.1586 -0.2139  0.1765
 3741TIP3    H111156   2.770   3.480   3.569 -0.7745  0.0374  0.4511
 3741TIP3    H211157   2.717   3.457   3.709  1.4559  0.8218  1.4400
 3742TIP3   OH211158   4.141   4.257   2.026 -0.2540  0.9711  0.1972
 3742TIP3    H111159   4.213   4.227   2.081  0.3903 -1.3892 -1.8445
 3742TIP3    H211160   4.070   4.277   2.087  0.8787 -0.3006  1.9629
 3743TIP3   OH211161   4.130   4.552   3.378  0.3785 -0.1224  0.2068
 3743TIP3    H111162   4.104   4.513   3.461  0.1414 -1.2086 -0.3759
 3743TIP3    H211163   4.057   4.611   3.355  0.5792  0.4046  0.9067
 3744TIP3   OH211164   3.940   2.893   4.148  0.1570 -0.5321  0.1066
 3744TIP3    H111165   3.850   2.900   4.115 -1.0240 -1.9684  2.8973
 3744TIP3    H211166   3.953   2.973   4.199 -0.8093 -1.9577  2.6260
 3745TIP3   OH211167   6.190   4.026   2.181  0.4835 -0.5716 -0.3407
 3745TIP3    H111168   6.255   3.956   2.185 -0.5421 -1.4895  0.3678
 3745TIP3    H211169   6.176   4.041   2.088  1.7003 -0.3753 -0.4975
 3746TIP3   OH211170   4.290   2.532   0.335 -0.3424  0.2413 -0.3259
 3746TIP3    H111171   4.335   2.528   0.420 -1.7145 -1.2913  0.3681
 3746TIP3    H211172   4.328   2.607   0.291  2.1359 -0.3863  0.6633
 3747TIP3   OH211173   4.561   2.628   3.231 -0.2198  0.0872  0.3463
 3747TIP3    H111174   4.500   2.554   3.237 -0.2450  0.0652 -0.1050
 3747TIP3    H211175   4.505   2.705   3.227 -0.2743 -0.0029 -1.2037
 3748TIP3   OH211176   4.401   3.147   3.300  0.1896 -0.4705  0.2971
 3748TIP3    H111177   4.339   3.077   3.322  2.1146 -2.0486  0.8535
 3748TIP3    H211178   4.482   3.102   3.281  1.3804  1.6141  0.2854
 3749TIP3   OH211179   3.521   1.541   5.095 -0.3740  0.1917 -0.2147
 3749TIP3    H111180   3.486   1.475   5.035 -0.6091 -0.9193  1.1249
 3749TIP3    H211181   3.615   1.525   5.098 -0.2672  0.6713 -0.7746
 3750TIP3   OH211182   4.158   3.738   3.241  0.1027  0.1292 -0.1214
 3750TIP3    H111183   4.168   3.826   3.277  0.6532  0.1834 -0.4115
 3750TIP3    H211184   4.235   3.725   3.186  1.1971 -1.3730  1.6810
 3751TIP3   OH211185   4.864   5.800   4.323 -0.0853 -0.3294  0.0142
 3751TIP3    H111186   4.951   5.834   4.342  0.3914 -0.3968 -1.9421
 3751TIP3    H211187   4.806   5.877   4.329  0.5324  0.2612 -1.3843
 3752TIP3   OH211188   3.887   0.777   3.242 -0.2134 -0.4206 -0.4574
 3752TIP3    H111189   3.855   0.843   3.303 -0.0197  0.0019 -0.8123
 3752TIP3    H211190   3.891   0.697   3.294  1.9576  0.3831  0.6632
 3753TIP3   OH211191   3.498   2.652   2.185 -0.1271  0.0962  0.2824
 3753TIP3    H111192   3.445   2.577   2.214  1.4250 -1.3644 -0.5210
 3753TIP3    H211193   3.573   2.653   2.245  0.7675 -0.1205 -0.8119
 3754TIP3   OH211194   5.794   3.709   5.184 -0.2115  0.4630 -0.0905
 3754TIP3    H111195   5.843   3.660   5.251  1.8004  0.9094 -1.1835
 3754TIP3    H211196   5.745   3.642   5.137  0.2488 -0.1460  0.2826
 3755TIP3   OH211197   3.273   4.755   0.317  0.1468 -0.2163  0.9897
 3755TIP3    H111198   3.286   4.837   0.269 -1.2959  1.0877  2.7826
 3755TIP3    H211199   3.240   4.781   0.403  2.9807 -2.4813  2.8901
 3756TIP3   OH211200   2.135   3.578   0.917 -0.0811  0.5728 -0.0555
 3756TIP3    H111201   2.089   3.557   0.998 -1.8875  0.6855 -1.0401
 3756TIP3    H211202   2.178   3.496   0.892 -3.9848 -1.0488 -1.8525
 3757TIP3   OH211203   4.982   6.335   1.986  0.2780  0.1317  0.1798
 3757TIP3    H111204   4.922   6.323   2.060 -0.6554  1.3307 -0.3777
 3757TIP3    H211205   5.049   6.394   2.020 -1.0530  2.0207 -0.4241
 3758TIP3   OH211206   3.573   3.626   3.541  0.0186 -0.2690  0.0651
 3758TIP3    H111207   3.607   3.564   3.607  1.2396  1.4394  1.0966
 3758TIP3    H211208   3.504   3.673   3.586 -0.8131 -0.7675 -0.6768
 3759TIP3   OH211209   4.014   6.159   2.809  0.2077 -0.1578  0.0144
 3759TIP3    H111210   4.101   6.120   2.819 -0.1358 -0.2146  3.7575
 3759TIP3    H211211   3.958   6.087   2.781  0.8938 -0.7088  0.0519
 3760TIP3   OH211212   2.765   4.204   2.829  0.6264 -0.1432 -0.3514
 3760TIP3    H111213   2.745   4.297   2.837  1.5945  0.0100  0.4041
 3760TIP3    H211214   2.826   4.198   2.756  1.5226 -0.0252  0.3748
 3761TIP3   OH211215   3.343   6.634   2.863 -0.3562 -0.0813 -0.3341
 3761TIP3    H111216   3.365   6.563   2.801 -2.0091 -1.7479  0.9051
 3761TIP3    H211217   3.391   6.612   2.942 -1.5906 -0.3405  0.3534
 3762TIP3   OH211218   4.464   4.847   3.522  0.3659 -0.4593 -0.0476
 3762TIP3    H111219   4.468   4.757   3.552  1.6648 -0.7298 -0.9978
 3762TIP3    H211220   4.389   4.885   3.568  0.3635 -1.7652  1.0291
 3763TIP3   OH211221   5.435   1.621   3.150  0.2037  0.5996  0.2356
 3763TIP3    H111222   5.473   1.557   3.210 -0.2425  0.5807  0.4999
 3763TIP3    H211223   5.349   1.585   3.127 -0.3535  1.4519  0.9507
 3764TIP3   OH211224   1.371   4.254   1.062 -0.3361  0.3817 -0.1670
 3764TIP3    H111225   1.462   4.229   1.077 -0.8065 -1.7738 -0.7321
 3764TIP3    H211226   1.342   4.289   1.147  0.3979 -0.9052  0.6360
 3765TIP3   OH211227   2.084   3.349   3.257  0.1427 -0.2023 -0.1934
 3765TIP3    H111228   2.154   3.303   3.301 -0.8316 -1.4927  0.0257
 3765TIP3    H211229   2.096   3.328   3.164 -0.5007 -1.1946 -0.0600
 3766TIP3   OH211230   2.348   4.228   2.438  0.2243 -0.3716  0.2105
 3766TIP3    H111231   2.321   4.141   2.408  1.7547 -0.6731 -0.3235
 3766TIP3    H211232   2.442   4.231   2.423  0.2569  1.2391  0.5961
 3767TIP3   OH211233   3.324   4.457   1.289  0.0751 -0.6103 -0.1328
 3767TIP3    H111234   3.348   4.480   1.199 -1.5011 -2.3537 -1.0284
 3767TIP3    H211235   3.407   4.438   1.332  0.8396  0.0956 -1.2534
 3768TIP3   OH211236   5.194   4.807   2.673 -0.2714 -0.6360  0.3542
 3768TIP3    H111237   5.171   4.725   2.717  1.0464 -2.4202 -2.0805
 3768TIP3    H211238   5.118   4.829   2.620 -0.1912 -0.9461  0.1085
 3769TIP3   OH211239   5.982   2.959   4.335  0.0478  0.1454  0.4013
 3769TIP3    H111240   5.943   2.994   4.415  0.6818 -1.2186  1.3421
 3769TIP3    H211241   5.910   2.958   4.272 -0.6872  0.4137  1.2231
 3770TIP3   OH211242   4.048   6.589  -0.009  0.0973 -0.1547  0.9467
 3770TIP3    H111243   4.141   6.567  -0.011  0.6321  2.0699 -0.3156
 3770TIP3    H211244   4.039   6.653   0.061  0.1653  2.1957 -1.1103
 3771TIP3   OH211245   3.630   4.285   1.132  0.3814 -0.2220 -0.2953
 3771TIP3    H111246   3.587   4.201   1.123 -3.3930  1.3795  1.5483
 3771TIP3    H211247   3.674   4.280   1.217 -1.2774  0.2143  0.6127
 3772TIP3   OH211248   5.990   4.830   4.120 -0.3760  0.5950  0.1650
 3772TIP3    H111249   5.995   4.738   4.094  0.5088  1.3344 -2.5118
 3772TIP3    H211250   6.038   4.835   4.202 -0.0477 -1.2483  0.1091
 3773TIP3   OH211251   5.587   3.137   3.162  0.8473  0.0928 -0.4988
 3773TIP3    H111252   5.657   3.190   3.125  1.4324  0.1759  0.6913
 3773TIP3    H211253   5.609   3.130   3.255 -1.4002  1.2098  0.1519
 3774TIP3   OH211254   4.316   2.845   3.229  0.6044  0.5477  0.3350
 3774TIP3    H111255   4.302   2.821   3.321 -0.2711 -0.8094 -0.1321
 3774TIP3    H211256   4.230   2.836   3.189  1.5301 -1.7649 -1.2558
 3775TIP3   OH211257   3.757   1.889   3.470 -0.1253  0.0084  0.1305
 3775TIP3    H111258   3.814   1.912   3.396 -0.4552  1.2905  0.2616
 3775TIP3    H211259   3.815   1.892   3.546  0.1038 -0.8220 -0.0059
 3776TIP3   OH211260   2.003   3.849   1.582 -0.0597  0.4859 -0.0638
 3776TIP3    H111261   2.006   3.882   1.492  1.7735 -1.0391 -0.6089
 3776TIP3    H211262   1.933   3.784   1.582  0.7659 -0.4109 -0.7269
 3777TIP3   OH211263   2.490   2.127   1.408 -0.3933  0.4304  0.4702
 3777TIP3    H111264   2.531   2.116   1.494  0.2625 -1.7709 -0.1048
 3777TIP3    H211265   2.450   2.043   1.389  0.4491  0.5238 -1.8976
 3778TIP3   OH211266   4.393   5.549   2.490 -0.2588 -0.2478  0.1835
 3778TIP3    H111267   4.451   5.580   2.421 -2.3015  0.2307 -1.3840
 3778TIP3    H211268   4.341   5.480   2.449 -0.5416 -0.9246  1.6481
 3779TIP3   OH211269   3.240   4.136   2.489 -0.7019 -0.5334 -0.1192
 3779TIP3    H111270   3.247   4.112   2.397 -2.4674  1.5711 -0.8591
 3779TIP3    H211271   3.289   4.069   2.536  1.6643 -0.6966 -2.7270
 3780TIP3   OH211272   2.250   0.760   3.512 -0.4541 -0.6791 -0.2902
 3780TIP3    H111273   2.273   0.668   3.507 -1.9128 -1.1300  1.0637
 3780TIP3    H211274   2.155   0.762   3.498 -0.4779  0.5917 -0.0466
 3781TIP3   OH211275   4.008   2.281   4.059  0.1430  0.4308  0.1405
 3781TIP3    H111276   4.006   2.375   4.078 -0.0969  0.8708 -1.9801
 3781TIP3    H211277   3.919   2.261   4.029  0.3137 -0.3879  0.1828
 3782TIP3   OH211278   6.250   2.042   3.165  0.5877 -0.1276  0.5033
 3782TIP3    H111279   6.171   2.027   3.112  0.0108 -0.0732  1.3454
 3782TIP3    H211280   6.260   1.963   3.217 -0.8692  1.2019  2.8914
 3783TIP3   OH211281   2.899   3.480   1.448 -0.6109  0.3476 -0.3953
 3783TIP3    H111282   2.948   3.552   1.408 -1.2620  1.3086  0.4924
 3783TIP3    H211283   2.878   3.512   1.536 -1.9313 -0.4519 -0.4034
 3784TIP3   OH211284   3.288   3.388   0.917  0.0402  0.2916 -0.2365
 3784TIP3    H111285   3.348   3.328   0.873 -1.2259  1.0713 -3.1185
 3784TIP3    H211286   3.303   3.473   0.874 -1.3728  1.0356  0.7066
 3785TIP3   OH211287   4.252   4.196   3.556 -0.0837  0.2726 -0.1516
 3785TIP3    H111288   4.298   4.243   3.626  2.2629  0.2320 -1.5979
 3785TIP3    H211289   4.167   4.240   3.549  0.1780  1.1598  1.7725
 3786TIP3   OH211290   3.006   4.170   2.155  0.6098  0.9040 -0.9052
 3786TIP3    H111291   2.976   4.244   2.208  1.1800 -0.1394  0.9166
 3786TIP3    H211292   3.101   4.182   2.149  0.6829  0.4106 -0.7376
 3787TIP3   OH211293   3.209   6.029   1.597 -0.7273  0.0152 -0.0185
 3787TIP3    H111294   3.196   6.072   1.681  2.4061  1.1960 -0.0779
 3787TIP3    H211295   3.181   5.938   1.612 -2.6378  0.8232  1.5182
 3788TIP3   OH211296   3.070   6.087   3.730  0.1021 -0.3088 -0.2940
 3788TIP3    H111297   3.030   6.049   3.809 -0.0288  1.7858  0.6691
 3788TIP3    H211298   2.998   6.133   3.687  0.7071  0.6030 -0.3449
 3789TIP3   OH211299   6.473   3.516   5.307  0.0027 -0.1581  0.4745
 3789TIP3    H111300   6.398   3.572   5.286  0.9097  0.4429 -1.2506
 3789TIP3    H211301   6.540   3.576   5.338  0.2586 -0.5453  0.6787
 3790TIP3   OH211302   5.972   4.437   2.551  0.3888 -0.1954  0.4926
 3790TIP3    H111303   6.042   4.474   2.497 -0.7069 -0.2076 -0.9740
 3790TIP3    H211304   6.017   4.382   2.614  1.6643 -0.8617 -0.9572
 3791TIP3   OH211305   5.231   5.361   3.835  0.0350  0.1289 -0.5694
 3791TIP3    H111306   5.260   5.329   3.750  0.2071  0.1929 -0.5353
 3791TIP3    H211307   5.298   5.424   3.861  0.6048 -0.7894  0.1723
 3792TIP3   OH211308   5.719   3.157   2.727  0.1912  0.4666 -0.3105
 3792TIP3    H111309   5.802   3.198   2.700  0.5863 -0.7620 -0.9959
 3792TIP3    H211310   5.745   3.091   2.792 -0.3363  0.5931  0.0344
 3793TIP3   OH211311   6.093   4.395   0.354  0.6811  1.1365 -0.0970
 3793TIP3    H111312   6.049   4.422   0.435 -0.0203  0.0396 -0.0937
 3793TIP3    H211313   6.185   4.390   0.377  0.3292 -0.4765  1.0106
 3794TIP3   OH211314   5.785   5.908   3.198 -0.8080  0.4133  0.0073
 3794TIP3    H111315   5.716   5.861   3.151 -0.3608 -0.0137 -0.2175
 3794TIP3    H211316   5.846   5.841   3.227 -0.3578  0.8137 -0.0014
 3795TIP3   OH211317   3.617   4.191   2.163 -0.0533 -0.3425  0.6771
 3795TIP3    H111318   3.522   4.174   2.166 -0.0449 -0.6682 -0.7422
 3795TIP3    H211319   3.643   4.195   2.255 -1.2588 -1.2837  1.0722
 3796TIP3   OH211320   3.722   3.893   2.419 -0.1357  0.2554  0.5020
 3796TIP3    H111321   3.693   3.947   2.492 -0.0166  1.5824 -0.4167
 3796TIP3    H211322   3.646   3.840   2.396 -0.6718  1.0028  0.5435
 3797TIP3   OH211323   4.526   5.155   2.106 -0.3319  0.0842 -1.1444
 3797TIP3    H111324   4.499   5.079   2.054  0.3431 -0.3516 -0.8649
 3797TIP3    H211325   4.487   5.230   2.060  0.2823 -0.2908 -2.3038
 3798TIP3   OH211326   7.391   4.278   4.025  0.1301  0.0121 -0.2312
 3798TIP3    H111327   7.416   4.369   4.010 -1.0246  0.5486  0.9795
 3798TIP3    H211328   7.345   4.253   3.944  2.8254 -0.3872 -1.6737
 3799TIP3   OH211329   7.340   4.519   1.850  0.4539 -0.6841 -0.3430
 3799TIP3    H111330   7.311   4.602   1.812  0.0439 -1.6979 -2.3482
 3799TIP3    H211331   7.436   4.523   1.845  0.4326 -0.3653 -0.5108
 3800TIP3   OH211332   4.856   6.124   0.622 -0.1294 -0.1614  0.6163
 3800TIP3    H111333   4.782   6.063   0.619  0.0589 -0.3230 -1.0314
 3800TIP3    H211334   4.830   6.197   0.566  1.5293 -0.8939 -1.1322
 3801TIP3   OH211335   5.498   2.858   0.229  0.1741 -0.0116 -0.1064
 3801TIP3    H111336   5.577   2.911   0.246  1.5480 -1.4198 -1.8677
 3801TIP3    H211337   5.503   2.787   0.293  0.2639 -0.0413 -0.1467
 3802TIP3   OH211338   5.595   5.988   1.986 -0.7377  0.2139  0.1066
 3802TIP3    H111339   5.608   5.989   1.891 -2.0007  1.0996 -0.0717
 3802TIP3    H211340   5.666   5.933   2.020  0.0958  0.4066 -1.2944
 3803TIP3   OH211341   5.382   2.028   2.746 -0.0479  0.2709 -0.0477
 3803TIP3    H111342   5.380   1.937   2.775 -0.4262  0.2510 -0.1248
 3803TIP3    H211343   5.310   2.070   2.794  0.7249  0.7476  0.6990
 3804TIP3   OH211344   4.751   4.336   3.221  0.2942 -0.2775 -0.1442
 3804TIP3    H111345   4.758   4.424   3.258 -0.2087 -0.2230 -0.1698
 3804TIP3    H211346   4.661   4.330   3.189 -0.1270 -1.2928  1.1481
 3805TIP3   OH211347   6.778   3.644   3.333 -0.1574  0.2301 -0.0076
 3805TIP3    H111348   6.795   3.629   3.426  0.0412  0.2609 -0.0377
 3805TIP3    H211349   6.834   3.580   3.288  2.4394  2.5320 -0.2003
 3806TIP3   OH211350   4.863   4.200   2.656 -0.1012  0.4697  0.4225
 3806TIP3    H111351   4.769   4.180   2.661 -0.3650  1.3651 -0.7724
 3806TIP3    H211352   4.874   4.242   2.570  1.6881 -1.2290 -0.2080
 3807TIP3   OH211353   6.729   3.267   1.561 -0.3268 -0.1933  0.4204
 3807TIP3    H111354   6.727   3.354   1.522 -1.3427 -1.1745 -1.7720
 3807TIP3    H211355   6.699   3.280   1.651 -0.4387  1.7199  0.1142
 3808TIP3   OH211356   7.009   2.674   2.171 -0.0642  0.1297 -0.0272
 3808TIP3    H111357   7.012   2.748   2.111  2.8396 -0.0828 -0.2254
 3808TIP3    H211358   7.026   2.597   2.116 -1.8439 -0.5581  0.3655
 3809TIP3   OH211359   4.113   4.571   2.709  0.7491  1.0659 -0.2121
 3809TIP3    H111360   4.115   4.504   2.777  2.3330  1.9854  0.6619
 3809TIP3    H211361   4.058   4.533   2.640  1.1346 -0.8691  0.5226
 3810TIP3   OH211362   5.640   3.497   2.518 -0.4721 -0.3230 -0.3953
 3810TIP3    H111363   5.557   3.474   2.560  0.5719  0.2186  2.0063
 3810TIP3    H211364   5.694   3.531   2.588  1.6073 -0.1114 -2.0552
 3811TIP3   OH211365   5.107   4.517   3.795 -0.0144 -0.0084  0.3498
 3811TIP3    H111366   5.082   4.583   3.859 -1.2464 -0.5228  0.4004
 3811TIP3    H211367   5.181   4.472   3.835 -0.4928 -0.0346  1.2198
 3812TIP3   OH211368   2.591   2.926   6.641  0.4145  0.2562  0.3897
 3812TIP3    H111369   2.686   2.913   6.645  0.3920 -0.4642 -1.3399
 3812TIP3    H211370   2.555   2.857   6.698  0.8148 -0.9567 -0.8118
 3813TIP3   OH211371   6.960   5.599   0.476 -0.2712 -0.1020 -0.0433
 3813TIP3    H111372   6.897   5.540   0.518  0.8797 -2.4354 -1.5070
 3813TIP3    H211373   6.907   5.674   0.447 -2.1646 -1.4595 -0.1842
 3814TIP3   OH211374   7.169   3.097   1.071 -0.0034  0.2730 -0.4083
 3814TIP3    H111375   7.209   3.011   1.085  0.5785  0.5318 -0.4381
 3814TIP3    H211376   7.078   3.079   1.050  0.6631 -0.4878 -2.7817
 3815TIP3   OH211377   5.774   2.607   2.713 -0.5471 -0.7249  0.5419
 3815TIP3    H111378   5.738   2.592   2.625  0.0240 -1.1605  0.3824
 3815TIP3    H211379   5.850   2.550   2.718 -1.3295 -1.6815  1.8017
 3816TIP3   OH211380   8.200   6.305   3.097  0.4682  0.0143 -0.1855
 3816TIP3    H111381   8.208   6.361   3.175 -0.9927 -1.1400  0.8269
 3816TIP3    H211382   8.106   6.291   3.087  0.7867 -1.9857 -0.6136
 3817TIP3   OH211383   8.002   2.901   1.175 -0.0213  0.4258  0.7333
 3817TIP3    H111384   7.965   2.975   1.127 -0.2994  0.5573  1.1505
 3817TIP3    H211385   7.937   2.881   1.242 -0.4263 -0.8539 -0.0150
 3818TIP3   OH211386   5.890   3.855   2.528 -0.7774  0.6390  0.4934
 3818TIP3    H111387   5.972   3.871   2.576  0.6623 -1.4539 -1.2256
 3818TIP3    H211388   5.908   3.886   2.440 -1.3148 -1.2699 -0.2938
 3819TIP3   OH211389   3.064   5.004   0.924 -0.0565  0.1593 -0.0414
 3819TIP3    H111390   2.978   4.978   0.958  0.6716 -1.4980  0.5847
 3819TIP3    H211391   3.052   5.094   0.894 -1.6154  0.4672  1.4498
 3820TIP3   OH211392   6.923   2.889   1.606 -0.0971  0.7375  0.1846
 3820TIP3    H111393   6.872   2.897   1.687  0.2067  0.0847  0.4476
 3820TIP3    H211394   6.968   2.973   1.597  1.2410  0.2199  1.6403
 3821TIP3   OH211395   8.134   4.087   0.513 -0.5574 -0.4623  0.3454
 3821TIP3    H111396   8.138   4.113   0.421  1.9481 -0.6950  0.3708
 3821TIP3    H211397   8.066   4.144   0.550 -1.3205 -0.0928 -1.5314
 3822TIP3   OH211398   5.030   2.912   1.357 -0.0452  0.1560  0.4427
 3822TIP3    H111399   4.978   2.860   1.297  0.1392 -1.4172  1.6308
 3822TIP3    H211400   4.989   2.900   1.442  0.9004  0.7489  0.9944
 3823TIP3   OH211401   7.067   5.037   3.127 -0.1037 -1.1303  0.1064
 3823TIP3    H111402   7.009   5.071   3.059 -0.7539 -1.1158  0.6658
 3823TIP3    H211403   7.019   5.050   3.208  0.9860 -0.4324  0.6521
 3824TIP3   OH211404   5.692   5.981   2.854  0.2600 -0.1409 -0.1147
 3824TIP3    H111405   5.773   6.017   2.890  0.7265  0.0873 -1.3476
 3824TIP3    H211406   5.698   5.887   2.869  1.1341 -0.2169 -0.9397
 3825TIP3   OH211407   7.182   3.109   1.934  0.4654 -0.0492  0.1364
 3825TIP3    H111408   7.273   3.094   1.961  0.8808  0.0383 -1.1340
 3825TIP3    H211409   7.144   3.160   2.005  1.1981 -0.7158  1.0272
 3826TIP3   OH211410   5.609   5.593   4.462 -0.1166 -0.4204  0.0657
 3826TIP3    H111411   5.524   5.628   4.490  0.4013 -0.7351  2.0750
 3826TIP3    H211412   5.587   5.512   4.416 -1.0289  0.4200 -0.9946
 3827TIP3   OH211413   6.743   4.162   3.272  0.5173  0.4289  0.5096
 3827TIP3    H111414   6.816   4.224   3.283  0.7190  0.2490  0.1977
 3827TIP3    H211415   6.777   4.079   3.303  0.9150  0.0376 -0.9434
 3828TIP3   OH211416   5.742   5.461   2.613 -0.7718  0.1557  0.3303
 3828TIP3    H111417   5.824   5.505   2.637 -0.0684 -0.5146 -0.7538
 3828TIP3    H211418   5.754   5.371   2.643 -0.0538 -0.5860 -2.0177
 3829TIP3   OH211419   4.787   3.630   1.272 -0.0810  0.6000 -0.1559
 3829TIP3    H111420   4.816   3.721   1.284 -0.2081  0.4087  1.6909
 3829TIP3    H211421   4.715   3.636   1.209  1.2996  1.5245 -1.6934
 3830TIP3   OH211422   5.155   4.717   3.318 -0.1730  0.2081  0.2200
 3830TIP3    H111423   5.092   4.663   3.271  0.4420 -1.1349  0.9082
 3830TIP3    H211424   5.188   4.660   3.388  0.7938  1.3377  0.7001
 3831TIP3   OH211425   7.379   2.262   1.227 -0.1568  0.7694  0.3912
 3831TIP3    H111426   7.405   2.253   1.318 -1.5060  0.2562  0.7336
 3831TIP3    H211427   7.376   2.172   1.193 -2.1810  0.7347  0.5755
 3832TIP3   OH211428   5.562   5.059   2.488 -0.1441 -0.2719  0.5888
 3832TIP3    H111429   5.550   4.964   2.489 -1.2516 -0.1491 -0.3642
 3832TIP3    H211430   5.647   5.071   2.446 -0.9995 -0.7711 -1.3709
 3833TIP3   OH211431   5.261   2.311   2.276 -0.6140 -0.3820  0.4003
 3833TIP3    H111432   5.196   2.323   2.208 -1.0456  0.2216  0.9135
 3833TIP3    H211433   5.235   2.229   2.319 -2.3986  0.9969  2.0685
 3834TIP3   OH211434   4.489   4.916   2.476  0.5564  0.0745  0.3150
 3834TIP3    H111435   4.422   4.849   2.492 -0.3377  0.6743 -0.7659
 3834TIP3    H211436   4.443   4.999   2.492  1.3730  0.4587  0.6809
 3835TIP3   OH211437   4.903   0.239   5.826 -0.1424  0.0171  0.5786
 3835TIP3    H111438   4.861   0.226   5.741  0.7729 -1.4115  0.3216
 3835TIP3    H211439   4.996   0.251   5.805 -0.1220  1.1675  1.2780
 3836TIP3   OH211440   4.576   4.139   2.397 -0.6856  0.0608 -0.3961
 3836TIP3    H111441   4.595   4.078   2.325 -1.2306 -0.1388 -0.3701
 3836TIP3    H211442   4.647   4.203   2.393  0.6347 -1.2851  0.3600
 3837TIP3   OH211443   5.321   5.389   2.084 -0.4781 -0.4671 -0.0830
 3837TIP3    H111444   5.267   5.434   2.019 -0.9298 -0.8919 -0.0045
 3837TIP3    H211445   5.291   5.424   2.168 -0.9647 -1.0545 -0.0101
 3838TIP3   OH211446   7.356   4.714   2.428  0.3920  0.5790  0.0729
 3838TIP3    H111447   7.339   4.636   2.374 -1.8454  1.0820  0.0118
 3838TIP3    H211448   7.450   4.709   2.448  0.3464 -1.9652 -0.1781
 3839TIP3   OH211449   5.045   4.188   3.786 -0.2030  0.1773  0.3922
 3839TIP3    H111450   4.994   4.228   3.715  1.3230  0.3022 -0.6593
 3839TIP3    H211451   5.095   4.119   3.744  1.8997  1.2652  1.0272
 3840TIP3   OH211452   5.221   4.338   1.611 -0.3358 -0.3752 -0.0264
 3840TIP3    H111453   5.199   4.250   1.642 -1.4954 -0.3495 -0.7315
 3840TIP3    H211454   5.271   4.377   1.683  0.6159 -1.7714  0.0884
 3841TIP3   OH211455   7.097   5.339   1.467  0.9303 -0.3702  0.0554
 3841TIP3    H111456   7.141   5.367   1.547  1.1798  0.8878 -0.5110
 3841TIP3    H211457   7.094   5.417   1.412 -1.1068 -0.6650 -0.3240
 3842TIP3   OH211458   5.006   4.985   0.982  0.0073 -0.3357  0.2053
 3842TIP3    H111459   5.053   5.015   1.060  1.6919 -3.3737  0.4522
 3842TIP3    H211460   5.073   4.938   0.932 -1.5963 -0.3079 -2.0062
 3843TIP3   OH211461   7.372   4.765   0.482 -0.8894  0.4611 -0.1418
 3843TIP3    H111462   7.421   4.788   0.560  0.2118  0.4105 -0.8137
 3843TIP3    H211463   7.283   4.798   0.499 -0.7506  0.1331  1.2654
 3844TIP3   OH211464   6.605   2.702   1.951 -0.2538 -0.3692  0.4150
 3844TIP3    H111465   6.547   2.637   1.990 -1.7557  2.3832  2.9921
 3844TIP3    H211466   6.547   2.753   1.893  0.5792 -0.3920 -0.4505
 3845TIP3   OH211467   5.450   4.327   2.089  0.1998 -0.4180 -0.0249
 3845TIP3    H111468   5.428   4.416   2.115 -0.2896 -0.2767 -0.8827
 3845TIP3    H211469   5.384   4.272   2.131 -0.5760 -0.1946 -0.9172
 3846TIP3   OH211470   6.698   3.938   2.844 -0.0381 -0.4165 -0.0219
 3846TIP3    H111471   6.651   3.938   2.761 -1.0754 -0.4060  0.5549
 3846TIP3    H211472   6.646   3.995   2.901  0.1997 -1.0949  0.8860
 3847TIP3   OH211473   5.702   2.157   2.004 -0.3203 -0.1052  0.3208
 3847TIP3    H111474   5.664   2.095   1.942  1.0472 -1.8848  1.1863
 3847TIP3    H211475   5.650   2.146   2.083  0.3042 -0.6261  0.6690
 3848TIP3   OH211476   5.815   3.333   3.842 -0.3613  0.0046 -0.0256
 3848TIP3    H111477   5.903   3.309   3.870  0.5208  1.3675 -1.5780
 3848TIP3    H211478   5.778   3.251   3.808  1.3980  0.0507 -2.1460
 3849TIP3   OH211479   0.450   5.624   2.238  0.1221 -0.5572 -0.2896
 3849TIP3    H111480   0.385   5.628   2.167  0.5591 -1.1154 -0.7238
 3849TIP3    H211481   0.400   5.595   2.314 -0.3179 -0.1199 -0.4109
 3850TIP3   OH211482   6.159   1.582   0.356  0.3083 -0.0508  0.4564
 3850TIP3    H111483   6.083   1.636   0.336  0.5055  0.6116  1.4391
 3850TIP3    H211484   6.133   1.532   0.434 -0.0593 -1.7715 -0.7417
 3851TIP3   OH211485   3.931   4.918   3.082 -0.1181  0.1960 -0.5170
 3851TIP3    H111486   4.015   4.920   3.036  0.3198  1.1826  0.3096
 3851TIP3    H211487   3.877   4.857   3.032  1.0314 -0.2914 -1.1626
 3852TIP3   OH211488   4.454   3.367   1.584  0.3234  0.1104 -0.1955
 3852TIP3    H111489   4.530   3.424   1.595  1.1954 -1.0557 -0.1726
 3852TIP3    H211490   4.429   3.378   1.492  1.7112 -0.9730 -0.7230
 3853TIP3   OH211491   7.472   1.721   2.670  0.3400 -0.0412 -0.2085
 3853TIP3    H111492   7.402   1.729   2.606 -1.5278  1.2545  1.8996
 3853TIP3    H211493   7.450   1.643   2.721  1.8505 -1.1119 -1.1471
 3854TIP3   OH211494   5.808   4.204   4.052  0.3766 -0.4397  0.9747
 3854TIP3    H111495   5.714   4.191   4.040  0.2055  0.0060  1.8262
 3854TIP3    H211496   5.825   4.292   4.020  0.3707 -0.2295  1.5499
 3855TIP3   OH211497   7.695   3.691   1.447  0.2287  0.5647 -0.5474
 3855TIP3    H111498   7.697   3.741   1.366 -3.0343 -1.0718 -1.7515
 3855TIP3    H211499   7.617   3.723   1.493 -0.0719 -1.1196  0.1579
 3856TIP3   OH211500   4.561   5.281   3.685 -0.4505 -0.5043 -0.5096
 3856TIP3    H111501   4.617   5.357   3.699  1.0409 -1.3843 -1.6094
 3856TIP3    H211502   4.621   5.206   3.683 -1.8585 -1.6907  0.2278
 3857TIP3   OH211503   4.798   2.682   1.352  0.3122 -0.2674  0.6826
 3857TIP3    H111504   4.854   2.714   1.423 -0.2582 -0.4065  1.2011
 3857TIP3    H211505   4.717   2.656   1.396 -0.7712  1.4186 -0.2511
 3858TIP3   OH211506   4.890   0.688   0.831 -0.2801  0.0030  0.2133
 3858TIP3    H111507   4.838   0.754   0.786 -1.0754 -0.4404  0.4650
 3858TIP3    H211508   4.967   0.735   0.863  0.5479  0.2276 -2.0040
 3859TIP3   OH211509   3.778   1.358   1.410 -0.4418  0.6542  0.6599
 3859TIP3    H111510   3.740   1.369   1.323 -0.3412  0.3191  0.5735
 3859TIP3    H211511   3.720   1.296   1.454  0.5076 -0.5523  0.2192
 3860TIP3   OH211512   6.120   3.345   1.915 -0.1768 -0.1959 -0.6018
 3860TIP3    H111513   6.194   3.379   1.967  0.5815 -1.6144 -0.7303
 3860TIP3    H211514   6.115   3.252   1.939 -1.4545 -0.2775 -1.1634
 3861TIP3   OH211515   4.831   2.433   4.149  0.1983 -0.4013  0.6420
 3861TIP3    H111516   4.857   2.498   4.214 -0.8715  0.5932  0.0892
 3861TIP3    H211517   4.847   2.349   4.192  0.7022  0.2294  1.7173
 3862TIP3   OH211518   4.881   4.820   3.033  0.0922 -0.0438 -0.1045
 3862TIP3    H111519   4.822   4.868   2.976 -0.5232  0.2805  0.7973
 3862TIP3    H211520   4.848   4.730   3.033 -1.3298  0.4490  1.5930
 3863TIP3   OH211521   7.339   5.207   1.662  0.0682  0.7369  0.3404
 3863TIP3    H111522   7.308   5.146   1.729 -0.6722  1.3446  0.5615
 3863TIP3    H211523   7.425   5.174   1.637 -0.9837 -1.2953 -0.6727
 3864TIP3   OH211524   7.218   4.694   0.738 -0.0209 -0.5905 -0.2812
 3864TIP3    H111525   7.238   4.600   0.735 -0.4383 -0.8079  2.2790
 3864TIP3    H211526   7.123   4.697   0.747 -0.2319  0.1734 -2.4520
 3865TIP3   OH211527   4.518   1.478   2.466 -0.0782  0.3100  0.3367
 3865TIP3    H111528   4.527   1.402   2.525  0.4063 -1.6780 -2.2083
 3865TIP3    H211529   4.598   1.476   2.413 -0.6348  1.9156 -0.5750
 3866TIP3   OH211530   7.255   3.492   1.508 -0.1094  0.2125 -0.2953
 3866TIP3    H111531   7.222   3.447   1.587 -1.4871  0.6772 -0.5914
 3866TIP3    H211532   7.182   3.547   1.480  1.1333  1.7053 -0.6595
 3867TIP3   OH211533   4.701   2.860   2.032 -0.7057 -0.0479  0.0103
 3867TIP3    H111534   4.738   2.809   2.104  0.4358 -1.1053 -1.2757
 3867TIP3    H211535   4.650   2.929   2.074  1.4900  0.5092  1.8613
 3868TIP3   OH211536   5.485   5.522   2.419  0.2709  0.0309  0.3396
 3868TIP3    H111537   5.561   5.556   2.466  0.1361  0.9101 -0.0783
 3868TIP3    H211538   5.450   5.597   2.371 -0.0799 -0.6697 -0.5187
 3869TIP3   OH211539   3.283   4.120   1.278 -0.2670  0.1704  0.4755
 3869TIP3    H111540   3.280   4.122   1.373  0.3219  1.2619  0.4728
 3869TIP3    H211541   3.222   4.188   1.250  1.2588  1.4236  0.1134
 3870TIP3   OH211542   4.318   4.155   2.307 -0.1302 -0.1087  0.0639
 3870TIP3    H111543   4.410   4.129   2.313 -0.1100  0.1396  0.8074
 3870TIP3    H211544   4.277   4.116   2.384 -0.2060  1.6104  0.9301
 3871TIP3   OH211545   6.171   4.556   1.551 -0.0533 -0.1324 -0.4102
 3871TIP3    H111546   6.188   4.508   1.632  0.5039 -0.0566 -0.4814
 3871TIP3    H211547   6.195   4.647   1.572 -1.1796  0.1366 -0.2486
 3872TIP3   OH211548   8.386   3.572   0.269  0.4235  0.2433 -0.4830
 3872TIP3    H111549   8.473   3.611   0.277  0.3862  0.4923 -1.2706
 3872TIP3    H211550   8.330   3.644   0.240 -0.0900  0.1314  0.2161
 3873TIP3   OH211551   6.765   4.489   0.830 -0.0059 -0.7036 -0.1709
 3873TIP3    H111552   6.790   4.400   0.807 -0.9421 -0.8048 -0.7892
 3873TIP3    H211553   6.686   4.480   0.884 -1.4156 -0.1479 -2.1005
 3874TIP3   OH211554   4.373   3.727   3.611  0.1054  0.3062 -0.1831
 3874TIP3    H111555   4.395   3.731   3.518  1.9493 -0.1769  0.2049
 3874TIP3    H211556   4.306   3.794   3.623 -1.5759 -0.9494 -2.2300
 3875TIP3   OH211557   6.582   2.454   0.976 -0.6876  0.3051 -0.2050
 3875TIP3    H111558   6.634   2.533   0.959 -0.3925  0.0135 -0.6830
 3875TIP3    H211559   6.641   2.398   1.027 -0.2327 -0.3567 -1.4318
 3876TIP3   OH211560   6.383   5.275   5.153 -0.0605  0.0593  0.1998
 3876TIP3    H111561   6.338   5.343   5.205 -2.4811 -0.5466 -1.0220
 3876TIP3    H211562   6.322   5.255   5.083  1.2874 -2.3249 -0.3325
 3877TIP3   OH211563   5.404   4.944   1.024  0.1689 -0.5482  0.1177
 3877TIP3    H111564   5.390   4.857   0.986 -1.1989  0.3290 -1.4295
 3877TIP3    H211565   5.382   5.005   0.954 -1.4194  1.0813  1.9822
 3878TIP3   OH211566   5.216   3.852   2.732 -0.1930 -0.0408 -0.2058
 3878TIP3    H111567   5.286   3.912   2.705 -0.3157  0.4016  0.4359
 3878TIP3    H211568   5.157   3.848   2.657 -0.3955  0.9713 -0.1080
 3879TIP3   OH211569   6.550   5.284   2.688 -0.1720  0.0803 -0.3182
 3879TIP3    H111570   6.574   5.211   2.630  0.7734 -0.0843  0.2584
 3879TIP3    H211571   6.456   5.277   2.699 -0.6000  1.0430 -3.1022
 3880TIP3   OH211572   6.995   4.275   3.261 -0.1132  0.3417  0.0219
 3880TIP3    H111573   7.019   4.236   3.345 -1.7743  3.7422  2.1881
 3880TIP3    H211574   7.077   4.278   3.212  0.8647 -1.8325  1.4467
 3881TIP3   OH211575   7.312   2.401   2.633  0.6168 -0.5316 -0.1655
 3881TIP3    H111576   7.336   2.335   2.567  0.6659  0.0591 -0.7406
 3881TIP3    H211577   7.246   2.357   2.687  0.4520 -0.9689 -0.7090
 3882TIP3   OH211578   6.028   4.117   1.497  0.2900 -0.4204 -0.3277
 3882TIP3    H111579   5.991   4.120   1.409 -1.4389  1.9724  0.4481
 3882TIP3    H211580   6.123   4.121   1.483 -0.0164  1.4660 -2.0277
 3883TIP3   OH211581   0.379   2.705   1.749 -0.0414 -0.0743  0.2064
 3883TIP3    H111582   0.439   2.633   1.729  0.2947  0.0252  0.8607
 3883TIP3    H211583   0.388   2.718   1.844 -0.5951  0.3858  0.1954
 3884TIP3   OH211584   5.366   3.153   0.795 -0.2348 -0.0150  0.1370
 3884TIP3    H111585   5.444   3.105   0.824 -0.0695 -0.1888 -0.5705
 3884TIP3    H211586   5.386   3.244   0.816  0.4862  0.0350 -0.6967
 3885TIP3   OH211587   5.153   6.232   2.230  0.3180  0.5216  0.2488
 3885TIP3    H111588   5.061   6.256   2.230  0.4626  1.4258 -2.8963
 3885TIP3    H211589   5.160   6.159   2.291 -2.6949 -0.2857 -0.2881
 3886TIP3   OH211590   3.174   3.852   0.732  0.1884 -0.4435 -0.4564
 3886TIP3    H111591   3.231   3.920   0.696 -0.2181 -0.9359 -2.0917
 3886TIP3    H211592   3.130   3.814   0.655 -3.2752  0.7557  0.8077
 3887TIP3   OH211593   3.625   4.569   3.667  0.1586  0.3616 -0.3843
 3887TIP3    H111594   3.586   4.485   3.690  1.6694  0.2939  2.1692
 3887TIP3    H211595   3.678   4.551   3.590 -1.3485 -0.4942 -1.2379
 3888TIP3   OH211596   6.130   4.219   3.250  0.0360 -0.0207 -0.5203
 3888TIP3    H111597   6.140   4.124   3.251 -0.3478 -0.0623 -0.2661
 3888TIP3    H211598   6.108   4.242   3.341  0.7672  0.3854 -0.4467
 3889TIP3   OH211599   5.465   4.805   2.592  0.1394  0.3038  0.2558
 3889TIP3    H111600   5.376   4.820   2.624  0.0763  0.9274 -0.2103
 3889TIP3    H211601   5.509   4.757   2.663 -0.6649 -0.3007  0.3480
 3890TIP3   OH211602   7.637   2.734   2.699 -0.1267  0.2989  0.1160
 3890TIP3    H111603   7.721   2.778   2.712  0.2840  0.5608 -3.0162
 3890TIP3    H211604   7.590   2.790   2.638 -2.1320 -0.4610  0.9355
 3891TIP3   OH211605   5.372   5.258   1.110  0.3221 -0.1212 -0.3094
 3891TIP3    H111606   5.413   5.321   1.050  0.8215  0.3281  0.5039
 3891TIP3    H211607   5.424   5.178   1.100  0.4873 -0.0058 -0.3730
 3892TIP3   OH211608   5.553   3.853   4.254 -0.0499 -0.3208  0.0708
 3892TIP3    H111609   5.566   3.835   4.161 -1.1914  0.5050 -0.2673
 3892TIP3    H211610   5.508   3.938   4.256  0.8291  0.1289  1.4174
 3893TIP3   OH211611   6.629   3.135   1.008  0.4288  0.0561 -0.3386
 3893TIP3    H111612   6.545   3.176   0.990 -0.0028 -1.1685 -1.2224
 3893TIP3    H211613   6.679   3.202   1.055 -0.9408  0.8802 -0.0118
 3894TIP3   OH211614   7.434   4.134   1.850 -0.0912 -0.1370  0.8175
 3894TIP3    H111615   7.514   4.083   1.847  0.5515  0.8925 -2.0310
 3894TIP3    H211616   7.441   4.188   1.929  2.4486  0.5656  0.1461
 3895TIP3   OH211617   8.056   3.037   2.936  0.3064  0.1268 -0.0560
 3895TIP3    H111618   7.964   3.041   2.910  0.3721  1.0523 -0.1422
 3895TIP3    H211619   8.098   2.987   2.866 -0.0814 -0.0862 -0.1395
 3896TIP3   OH211620   7.584   5.547   6.857  0.0140  0.9048 -0.1712
 3896TIP3    H111621   7.536   5.612   6.909  1.4769  1.2992  0.7045
 3896TIP3    H211622   7.536   5.465   6.871 -0.9353  1.4672 -0.0484
 3897TIP3   OH211623   4.385   4.621   1.769  0.0239  0.1118 -0.2832
 3897TIP3    H111624   4.349   4.568   1.698 -0.7615 -0.6900  0.6990
 3897TIP3    H211625   4.461   4.571   1.800 -0.8521 -0.5855  0.7951
 3898TIP3   OH211626   6.189   3.466   1.124 -0.1323  0.0461 -0.3021
 3898TIP3    H111627   6.143   3.401   1.072 -0.1659 -0.3441  0.2118
 3898TIP3    H211628   6.282   3.448   1.108 -0.1307  1.5497 -2.2316
 3899TIP3   OH211629   4.771   2.944   3.002 -0.3616 -0.8249 -0.1884
 3899TIP3    H111630   4.783   2.986   3.088 -0.0607 -1.9358  0.3174
 3899TIP3    H211631   4.678   2.924   2.998 -0.2585 -1.3944  0.1762
 3900TIP3   OH211632   5.732   4.598   0.940 -0.0359  0.5749 -0.6043
 3900TIP3    H111633   5.785   4.624   0.864  0.0071 -2.5356 -1.6941
 3900TIP3    H211634   5.682   4.522   0.909 -0.7269 -0.1409  2.1975
 3901TIP3   OH211635   5.820   2.882   2.744  0.3229  0.2914  0.1781
 3901TIP3    H111636   5.818   2.873   2.839 -0.9817 -0.5644  0.0912
 3901TIP3    H211637   5.840   2.794   2.712 -0.0879  0.3846 -0.3471
 3902TIP3   OH211638   4.310   3.643   2.670  0.0201 -0.3358  0.2067
 3902TIP3    H111639   4.395   3.630   2.710  0.1734 -1.9935 -0.6151
 3902TIP3    H211640   4.277   3.724   2.708  1.9140  0.2534  0.5983
 3903TIP3   OH211641   3.889   2.722   2.922  0.5404 -0.0203 -0.1059
 3903TIP3    H111642   3.861   2.643   2.968  0.6032  0.0920  0.1250
 3903TIP3    H211643   3.811   2.752   2.876  0.6805 -0.5836 -0.7232
 3904TIP3   OH211644   4.254   4.083   2.840 -0.3094  0.5481  0.3214
 3904TIP3    H111645   4.258   4.136   2.919 -0.4269  0.4650  0.3825
 3904TIP3    H211646   4.307   4.005   2.860 -1.6195 -0.2055  0.8729
 3905TIP3   OH211647   6.382   2.873   1.850  0.1390 -0.3126  0.0463
 3905TIP3    H111648   6.413   2.944   1.906 -0.1656 -0.1423 -0.0013
 3905TIP3    H211649   6.324   2.916   1.787  0.7960 -0.4390 -0.6541
 3906TIP3   OH211650   6.080   4.899   0.666  0.8627  0.2082  0.2136
 3906TIP3    H111651   6.026   4.972   0.696 -1.0937 -1.2852  0.4400
 3906TIP3    H211652   6.062   4.892   0.572  3.8851  2.3043 -0.6113
 3907TIP3   OH211653   3.180   3.351   0.593  0.3191  0.2948 -0.2983
 3907TIP3    H111654   3.090   3.378   0.611  0.4093  0.5172 -0.1776
 3907TIP3    H211655   3.177   3.256   0.593  0.1451  0.2993  0.0168
 3908TIP3   OH211656   4.719   1.245   0.186 -0.0984 -0.2475 -0.0592
 3908TIP3    H111657   4.714   1.153   0.210  1.1251 -0.0568  1.0220
 3908TIP3    H211658   4.654   1.256   0.117  0.1230 -2.0344 -0.5768
 3909TIP3   OH211659   7.133   3.371   1.772 -0.3177  0.3098  0.4992
 3909TIP3    H111660   7.159   3.281   1.792  1.3481  0.8973  1.1069
 3909TIP3    H211661   7.052   3.384   1.820 -0.9135 -1.0565 -0.0909
 3910TIP3   OH211662   5.005   3.051   2.538 -0.1689 -0.5663 -0.0732
 3910TIP3    H111663   4.992   2.987   2.608  0.6339 -0.7180 -0.0637
 3910TIP3    H211664   4.967   3.132   2.572 -2.2871 -1.3134 -0.5498
 3911TIP3   OH211665   5.606   3.609   0.485  0.0045  0.0783  0.1404
 3911TIP3    H111666   5.663   3.616   0.409 -0.0746 -2.2998 -0.1711
 3911TIP3    H211667   5.598   3.515   0.501 -2.4247  0.4283  1.2479
 3912TIP3   OH211668   7.178   4.417   0.721  0.0097 -0.1411 -0.8388
 3912TIP3    H111669   7.249   4.353   0.725  0.1609 -0.1003 -2.4594
 3912TIP3    H211670   7.118   4.382   0.655 -0.4237  0.8530 -0.9847
 3913TIP3   OH211671   3.369   3.749   2.813 -0.3664  0.1992 -0.2918
 3913TIP3    H111672   3.438   3.752   2.879  0.1020  0.3114 -0.7809
 3913TIP3    H211673   3.307   3.816   2.841  1.1387  2.0935 -1.3843
 3914TIP3   OH211674   5.106   5.959   1.810 -0.2170  0.1766 -0.1407
 3914TIP3    H111675   5.167   5.995   1.746 -0.5939  0.5052 -0.3126
 3914TIP3    H211676   5.154   5.962   1.893 -0.6537  2.1397  0.0652
 3915TIP3   OH211677   5.732   4.362   1.799 -0.0380  1.0913 -0.7229
 3915TIP3    H111678   5.718   4.276   1.759  1.5502  1.4313 -2.0420
 3915TIP3    H211679   5.748   4.343   1.891 -1.7820  0.1459 -0.5920
 3916TIP3   OH211680   3.555   5.091   4.333 -0.3020 -0.1319 -0.4928
 3916TIP3    H111681   3.587   5.176   4.301  0.4008  0.1093  0.8151
 3916TIP3    H211682   3.633   5.036   4.333 -0.5499 -0.4803 -0.3592
 3917TIP3   OH211683   5.044   5.292   1.812 -0.2592 -0.6258 -0.4473
 3917TIP3    H111684   5.077   5.374   1.847 -2.6509  0.3650 -0.3688
 3917TIP3    H211685   5.020   5.240   1.889 -1.4875 -0.1831 -0.5127
 3918TIP3   OH211686   5.951   3.092   3.025 -0.6690 -0.1854  0.1958
 3918TIP3    H111687   5.883   3.028   3.045 -1.3918  0.7301  0.6978
 3918TIP3    H211688   6.008   3.091   3.102 -0.2297 -0.7968 -0.1340
 3919TIP3   OH211689   6.019   3.329   2.557  0.1047  0.0330 -0.2468
 3919TIP3    H111690   5.955   3.314   2.488 -0.8231 -0.9778  0.8159
 3919TIP3    H211691   6.054   3.242   2.577  1.1209  0.4543 -0.1664
 3920TIP3   OH211692   4.803   4.734   4.256 -0.0721  0.8633 -0.4255
 3920TIP3    H111693   4.803   4.644   4.226  2.3698  0.8149 -0.3269
 3920TIP3    H211694   4.797   4.727   4.352  2.5348  0.7158 -0.2530
 3921TIP3   OH211695   3.948   4.065   1.048  0.0514  0.3037  0.0601
 3921TIP3    H111696   3.878   4.053   1.112 -0.7961 -0.3699 -0.9758
 3921TIP3    H211697   3.986   3.978   1.037  0.8663  0.6100  0.3900
 3922TIP3   OH211698   4.689   5.754   1.910  0.1392 -0.6393 -0.3777
 3922TIP3    H111699   4.621   5.803   1.863 -0.4921 -1.0381  0.1054
 3922TIP3    H211700   4.764   5.755   1.851 -0.6006 -1.0274 -1.3438
 3923TIP3   OH211701   7.101   3.289   0.148  0.7652 -0.1354 -0.3878
 3923TIP3    H111702   7.096   3.323   0.059  0.6481  0.0301 -0.3190
 3923TIP3    H211703   7.174   3.227   0.146  0.8722 -0.0050 -0.5572
 3924TIP3   OH211704   7.954   4.412   2.261  0.6809  0.4086  0.3050
 3924TIP3    H111705   8.043   4.387   2.239  0.7730  1.3489 -0.4004
 3924TIP3    H211706   7.934   4.362   2.340  1.8642  0.2748  0.5304
 3925TIP3   OH211707   2.592   6.001   0.095  0.1375  0.1655  0.0826
 3925TIP3    H111708   2.601   6.011  -0.000  0.2921 -1.4486 -0.0727
 3925TIP3    H211709   2.499   5.982   0.108 -0.0152  1.0412  0.3238
 3926TIP3   OH211710   6.313   4.812   4.011  0.4268  0.0329  0.1512
 3926TIP3    H111711   6.264   4.894   4.017  0.3025 -0.2149  3.9346
 3926TIP3    H211712   6.401   4.834   4.041  0.7616 -0.9484 -0.0887
 3927TIP3   OH211713   4.228   5.774   1.023  0.0464 -0.3768 -0.5319
 3927TIP3    H111714   4.136   5.794   1.039 -0.0921 -1.1692 -0.3232
 3927TIP3    H211715   4.245   5.807   0.934 -0.4503 -0.2692 -0.5847
 3928TIP3   OH211716   5.300   4.338   3.731 -0.0469  0.3280 -0.1563
 3928TIP3    H111717   5.351   4.354   3.810  0.1344  0.0268 -0.2117
 3928TIP3    H211718   5.224   4.288   3.761  0.1943 -0.0776 -0.2242
 3929TIP3   OH211719   7.204   4.545   3.110 -0.0186 -0.3785  0.5792
 3929TIP3    H111720   7.188   4.633   3.073 -0.4019 -0.2507  1.0497
 3929TIP3    H211721   7.192   4.556   3.204 -1.4926 -1.2503  0.5044
 3930TIP3   OH211722   7.433   0.713   1.389  0.2697 -0.4111 -0.4044
 3930TIP3    H111723   7.384   0.673   1.461  0.9944 -0.2749  0.1727
 3930TIP3    H211724   7.370   0.771   1.346  0.1005  0.2956  0.7650
 3931TIP3   OH211725   5.459   2.959   4.346 -0.7667 -0.3771 -0.0579
 3931TIP3    H111726   5.439   2.923   4.260 -1.4701  0.2319 -0.1494
 3931TIP3    H211727   5.473   3.053   4.331  0.7658 -0.5459  0.2255
 3932TIP3   OH211728   6.236   4.164   3.891  0.0597  0.0379  0.3964
 3932TIP3    H111729   6.298   4.200   3.955  1.1457 -2.6246  0.9053
 3932TIP3    H211730   6.173   4.115   3.944 -1.2162  0.8845 -0.3035
 3933TIP3   OH211731   5.984   4.851   2.876  0.3076  0.2673 -0.1692
 3933TIP3    H111732   5.992   4.756   2.885 -0.0564 -0.0147 -2.5717
 3933TIP3    H211733   5.978   4.883   2.966  1.8216 -1.8466  0.7313
 3934TIP3   OH211734   7.420   3.514   2.490 -0.5192  0.9580 -0.1432
 3934TIP3    H111735   7.432   3.419   2.492 -0.4169  0.9662 -0.3795
 3934TIP3    H211736   7.384   3.536   2.576 -0.4414  0.7191 -0.0512
 3935TIP3   OH211737   0.285   2.934   2.859  0.3293 -0.9423  0.2676
 3935TIP3    H111738   0.369   2.915   2.900  1.2137  1.0079 -0.5847
 3935TIP3    H211739   0.272   3.028   2.874 -0.6169 -0.7564 -1.5742
 3936TIP3   OH211740   3.040   3.995   4.161  0.1201 -0.2062  0.4277
 3936TIP3    H111741   2.963   3.977   4.107 -0.4495 -0.6386  1.3782
 3936TIP3    H211742   3.063   4.085   4.138 -1.0358  0.1428  0.5715
 3937TIP3   OH211743   5.906   3.989   2.269  0.1888 -0.2196 -0.1828
 3937TIP3    H111744   5.882   4.080   2.287 -1.8406 -0.8249  0.1929
 3937TIP3    H211745   5.987   3.996   2.219  0.1767  1.7895  0.0291
 3938TIP3   OH211746   4.085   3.075   3.246 -0.1556 -0.1033 -0.7165
 3938TIP3    H111747   4.090   3.077   3.341 -0.5564 -0.1160 -0.6943
 3938TIP3    H211748   4.102   3.165   3.219 -0.4901 -0.0055 -0.6082
 3939TIP3   OH211749   5.886   4.846   1.857 -0.2118  0.0125 -0.3088
 3939TIP3    H111750   5.904   4.913   1.792  1.8307 -2.6778 -2.6152
 3939TIP3    H211751   5.899   4.764   1.811 -1.9700 -1.9916  2.6436
 3940TIP3   OH211752   5.402   4.469   3.458  0.3104  0.3619 -0.3318
 3940TIP3    H111753   5.356   4.406   3.515  2.9575 -0.1199  1.3953
 3940TIP3    H211754   5.362   4.458   3.372 -1.8889 -0.9360  0.8173
 3941TIP3   OH211755   4.749   2.301   3.930  0.2536 -0.2887  0.0389
 3941TIP3    H111756   4.706   2.224   3.969 -2.6135  0.6924 -1.0810
 3941TIP3    H211757   4.753   2.365   4.002  1.0647 -0.8354  0.4950
 3942TIP3   OH211758   6.012   1.397   2.996 -0.1080  0.8428  0.5092
 3942TIP3    H111759   5.961   1.378   3.075  0.3654  1.9475  1.1001
 3942TIP3    H211760   6.095   1.432   3.029  1.4478 -1.8680 -0.4204
 3943TIP3   OH211761   7.385   6.114   0.905  0.1656  0.4096 -0.3229
 3943TIP3    H111762   7.297   6.081   0.884  0.6230 -0.0687 -1.5362
 3943TIP3    H211763   7.370   6.182   0.970 -1.5118  3.3374 -3.6342
 3944TIP3   OH211764   0.088   2.016   6.613  0.3277  0.4337 -0.7006
 3944TIP3    H111765   0.011   2.043   6.562  0.7193  0.2526 -1.3959
 3944TIP3    H211766   0.086   2.072   6.691 -1.1631 -0.3803 -0.1474
 3945TIP3   OH211767   5.204   3.296   3.451  0.1847 -0.0249 -0.2334
 3945TIP3    H111768   5.269   3.253   3.396 -1.9778 -0.9626 -2.1628
 3945TIP3    H211769   5.198   3.385   3.416 -0.5982 -0.3794 -1.0418
 3946TIP3   OH211770   5.721   3.302   0.748 -0.4291  0.4874 -0.3421
 3946TIP3    H111771   5.638   3.321   0.704 -0.7522  1.9527  0.8596
 3946TIP3    H211772   5.778   3.374   0.725  0.7931 -0.8929 -1.7636
 3947TIP3   OH211773   3.764   6.970   1.924  0.2240 -0.2593  0.2624
 3947TIP3    H111774   3.795   6.906   1.988 -0.3430 -1.5398 -0.7308
 3947TIP3    H211775   3.669   6.954   1.918 -0.3391  2.2725  1.7776
 3948TIP3   OH211776   8.252   6.739   1.344  0.3662 -0.1229 -0.0206
 3948TIP3    H111777   8.252   6.830   1.313 -0.5289  0.0355  0.4308
 3948TIP3    H211778   8.260   6.747   1.439  1.2911 -0.5541 -0.0556
 3949TIP3   OH211779   6.947   4.891   0.593 -0.4689 -0.4405 -0.3855
 3949TIP3    H111780   6.852   4.888   0.582 -0.6645  4.8522 -1.2704
 3949TIP3    H211781   6.960   4.894   0.688 -1.2430  0.3162 -0.3059
 3950TIP3   OH211782   8.160   4.635   4.039  0.0061  0.3812  0.2560
 3950TIP3    H111783   8.163   4.685   4.120 -0.1012 -0.7777  0.9817
 3950TIP3    H211784   8.168   4.701   3.970  0.9869  1.2825  1.2184
 3951TIP3   OH211785   4.082   3.098   0.322  0.5680  0.3786 -0.2265
 3951TIP3    H111786   4.118   3.185   0.301 -0.8443  0.5095 -2.2282
 3951TIP3    H211787   4.028   3.113   0.399 -0.0842  1.3833 -0.8731
 3952TIP3   OH211788   7.209   4.477   0.236 -0.5872  0.0669  0.0052
 3952TIP3    H111789   7.204   4.480   0.331 -1.0025  0.3814 -0.0276
 3952TIP3    H211790   7.133   4.526   0.206 -0.6806 -0.3758 -0.4923
 3953TIP3   OH211791   6.375   3.380   2.654 -0.2631  0.0260  0.1390
 3953TIP3    H111792   6.454   3.328   2.665 -1.3721 -1.9862 -0.9669
 3953TIP3    H211793   6.311   3.340   2.713 -0.9060  0.6015 -0.1555
 3954TIP3   OH211794   6.609   5.067   0.384  0.6221 -0.3880  0.4615
 3954TIP3    H111795   6.589   5.029   0.299  0.0258 -0.1466  0.4919
 3954TIP3    H211796   6.548   5.139   0.393  1.8539  0.6885  0.3392
 3955TIP3   OH211797   5.088   2.365   0.638 -0.9511 -0.1303 -0.2935
 3955TIP3    H111798   5.041   2.401   0.714 -2.2903 -1.0229 -0.6909
 3955TIP3    H211799   5.098   2.439   0.579  0.5358  0.6938  0.9467
 3956TIP3   OH211800   1.447   6.814   6.280  0.3567 -0.0259  0.6116
 3956TIP3    H111801   1.478   6.897   6.315  1.0049 -0.5221  1.2156
 3956TIP3    H211802   1.414   6.766   6.355  1.4479 -0.9566  0.5146
 3957TIP3   OH211803   6.421   3.199   1.303 -0.1920  0.1181  0.4947
 3957TIP3    H111804   6.331   3.174   1.282  0.1374 -0.7123  0.0598
 3957TIP3    H211805   6.462   3.213   1.218  0.1458  0.3007  0.6910
 3958TIP3   OH211806   3.570   5.064   3.478 -0.3417 -0.0906  0.5337
 3958TIP3    H111807   3.503   5.050   3.411 -1.4438 -1.1096  1.8057
 3958TIP3    H211808   3.598   4.975   3.503  0.4485  0.2888  1.0344
 3959TIP3   OH211809   6.290   1.542   1.706 -0.1124 -0.0045 -0.5689
 3959TIP3    H111810   6.266   1.488   1.781 -0.1884 -0.8253 -1.1789
 3959TIP3    H211811   6.373   1.506   1.675 -0.3964 -0.0672 -1.2623
 3960TIP3   OH211812   5.621   5.434   3.131 -0.0544  0.7007  0.0002
 3960TIP3    H111813   5.656   5.442   3.042 -0.5509  0.5846 -0.2114
 3960TIP3    H211814   5.582   5.346   3.132  0.5456  0.4381  0.5491
 3961TIP3   OH211815   7.810   4.021   1.124  0.3433  0.0963 -0.4563
 3961TIP3    H111816   7.791   4.088   1.059 -2.1589 -0.5410 -0.4193
 3961TIP3    H211817   7.735   4.023   1.183  1.5224 -0.8920  1.1079
 3962TIP3   OH211818   7.084   3.569   1.031  0.0627  0.1170  0.0914
 3962TIP3    H111819   7.085   3.512   0.953 -2.2645  1.0309 -0.6398
 3962TIP3    H211820   7.157   3.629   1.017  0.5391 -0.6327 -0.6990
 3963TIP3   OH211821   6.272   3.967   0.181 -0.0399  0.5424  0.4566
 3963TIP3    H111822   6.245   3.994   0.093  0.7328  1.8801  0.6089
 3963TIP3    H211823   6.197   3.988   0.237  0.0996  1.2645  0.3774
 3964TIP3   OH211824   6.452   5.186   2.339  0.4371 -0.3522 -0.0794
 3964TIP3    H111825   6.449   5.141   2.255 -1.5905 -1.4614  0.5534
 3964TIP3    H211826   6.456   5.116   2.404 -1.0363  0.3776  0.8400
 3965TIP3   OH211827   6.809   3.904   3.366  0.2249 -0.2342  0.0978
 3965TIP3    H111828   6.785   3.819   3.329  0.7731 -0.6366  0.6694
 3965TIP3    H211829   6.803   3.892   3.460  0.0962  0.4268  0.1766
 3966TIP3   OH211830   5.689   5.170   2.768 -0.1496 -0.1837  0.0851
 3966TIP3    H111831   5.640   5.123   2.700 -0.4900  1.7453 -1.0464
 3966TIP3    H211832   5.780   5.164   2.740 -0.0253 -1.3977  0.7186
 3967TIP3   OH211833   6.490   2.518   2.805  0.3623 -0.3891 -0.7601
 3967TIP3    H111834   6.546   2.464   2.749 -0.2554 -1.3198 -0.4926
 3967TIP3    H211835   6.432   2.564   2.744 -0.3839 -1.4842 -0.8905
 3968TIP3   OH211836   5.061   4.474   1.431 -0.3098  0.2675  0.1403
 3968TIP3    H111837   5.112   4.415   1.487  0.2995  0.2525 -0.4266
 3968TIP3    H211838   5.070   4.560   1.473 -0.5866  0.0928  0.5580
 3969TIP3   OH211839   4.930   2.645   3.594  0.8040 -0.1726  0.1867
 3969TIP3    H111840   4.984   2.613   3.666 -0.4610  0.5027  1.4607
 3969TIP3    H211841   4.886   2.568   3.561  0.4045 -0.2996  0.9928
 3970TIP3   OH211842   6.451   4.532   4.114  0.1791  0.7874  0.4788
 3970TIP3    H111843   6.404   4.542   4.196 -0.4088 -0.6837  0.3306
 3970TIP3    H211844   6.530   4.585   4.125 -0.2680  1.2138  1.6890
 3971TIP3   OH211845   2.461   0.615   6.778  0.0874 -0.8978  0.0611
 3971TIP3    H111846   2.445   0.521   6.786 -0.3986 -0.7862  0.3887
 3971TIP3    H211847   2.551   0.626   6.809 -0.7895 -0.8682  2.7508
 3972TIP3   OH211848   4.537   3.008   2.199 -0.1079  0.4975 -0.1135
 3972TIP3    H111849   4.566   3.066   2.269 -1.4672 -0.1580  1.0217
 3972TIP3    H211850   4.513   2.926   2.243 -2.5386  0.6317 -1.1086
 3973TIP3   OH211851   6.150   5.643   0.962 -0.0525 -0.4969  0.5999
 3973TIP3    H111852   6.241   5.667   0.944 -0.0389 -0.5086  0.6537
 3973TIP3    H211853   6.147   5.629   1.057 -0.3472  0.4903  0.7423
 3974TIP3   OH211854   5.483   2.783   3.444  0.1581  0.2719 -0.5199
 3974TIP3    H111855   5.487   2.772   3.539 -0.9494 -0.5953 -0.5491
 3974TIP3    H211856   5.536   2.712   3.410 -1.4027 -0.9055 -0.5760
 3975TIP3   OH211857   4.557   5.669   3.932 -0.1911  0.0617 -0.0708
 3975TIP3    H111858   4.562   5.746   3.988  2.4345  0.8007 -1.2533
 3975TIP3    H211859   4.500   5.695   3.859 -0.8730  0.2199  0.5149
 3976TIP3   OH211860   5.019   5.539   1.566 -0.1882 -0.1120 -0.1611
 3976TIP3    H111861   4.972   5.459   1.591 -1.0304 -0.2150 -1.9577
 3976TIP3    H211862   4.953   5.608   1.572  0.0365  0.1285 -0.4640
 3977TIP3   OH211863   5.216   6.804   1.949  0.2543  0.6122 -0.3983
 3977TIP3    H111864   5.282   6.857   1.993 -0.0548  0.7083 -0.0394
 3977TIP3    H211865   5.258   6.773   1.869 -0.1953  3.0223 -1.6073
 3978TIP3   OH211866   6.523   5.310   1.332 -0.0070  0.0564  0.1200
 3978TIP3    H111867   6.566   5.226   1.324 -2.5151 -1.4377  1.6671
 3978TIP3    H211868   6.434   5.295   1.298 -0.0081  2.5044 -1.1093
 3979TIP3   OH211869   6.426   4.796   3.152 -0.2956  0.3155 -0.6809
 3979TIP3    H111870   6.382   4.757   3.228 -0.9020 -1.8109 -2.0705
 3979TIP3    H211871   6.517   4.770   3.160 -0.7495 -1.6991 -1.7480
 3980TIP3   OH211872   6.810   4.548   1.882 -0.3306 -0.6999  0.5314
 3980TIP3    H111873   6.720   4.528   1.858  0.3506  0.3743 -3.2461
 3980TIP3    H211874   6.854   4.464   1.885 -0.6202 -0.9571 -1.5061
 3981TIP3   OH211875   4.994   4.667   2.093 -0.2974 -0.4122  0.4765
 3981TIP3    H111876   4.993   4.740   2.031 -2.6165 -0.6255  0.2186
 3981TIP3    H211877   5.021   4.706   2.176  1.9859  0.0437 -0.4229
 3982TIP3   OH211878   7.570   5.707   1.694 -0.1676 -0.0324  0.1589
 3982TIP3    H111879   7.625   5.638   1.731 -0.3795 -0.3505 -0.1205
 3982TIP3    H211880   7.555   5.768   1.767  0.5112  0.0298  0.2532
 3983TIP3   OH211881   8.227   5.076   3.855 -0.3226 -0.3416 -0.0663
 3983TIP3    H111882   8.223   5.137   3.781 -1.7595  0.1785  0.4393
 3983TIP3    H211883   8.263   5.128   3.927 -1.8466 -0.0062  0.4524
 3984TIP3   OH211884   6.459   4.160   2.227  0.4821  0.5063 -0.2746
 3984TIP3    H111885   6.435   4.250   2.251  2.0567  0.7879  0.3023
 3984TIP3    H211886   6.453   4.111   2.308  0.1261  0.1994 -0.4866
 3985TIP3   OH211887   5.706   6.691   1.913  0.4918 -0.0598  0.5795
 3985TIP3    H111888   5.775   6.650   1.966  1.0777 -1.9333 -1.5825
 3985TIP3    H211889   5.732   6.675   1.823 -2.1002  0.3729 -0.2891
 3986TIP3   OH211890   5.570   4.127   1.324 -0.4839  0.1673 -0.2696
 3986TIP3    H111891   5.619   4.051   1.355 -0.5049 -0.0835 -0.8323
 3986TIP3    H211892   5.621   4.202   1.355 -0.2835 -0.0789  0.0065
 3987TIP3   OH211893   7.624   3.094   2.587 -0.3759  0.3786 -0.3147
 3987TIP3    H111894   7.587   3.097   2.675  0.5993 -1.1234  0.1618
 3987TIP3    H211895   7.712   3.131   2.595  0.9212 -2.6555  0.0063
 3988TIP3   OH211896   5.274   2.581   1.471 -0.1860 -0.6888  0.4583
 3988TIP3    H111897   5.195   2.536   1.443 -0.6458  0.0379  0.5806
 3988TIP3    H211898   5.246   2.635   1.544  0.4743 -0.6150  0.6560
 3989TIP3   OH211899   7.509   2.043   2.553  0.7788 -0.5907  0.1604
 3989TIP3    H111900   7.601   2.018   2.546  1.0236 -0.1767  1.6666
 3989TIP3    H211901   7.503   2.092   2.635 -0.2165  1.9784 -1.3553
 3990TIP3   OH211902   5.887   4.090   1.719 -0.5476  0.5706 -0.0536
 3990TIP3    H111903   5.805   4.125   1.685 -0.9672 -1.6823 -1.4631
 3990TIP3    H211904   5.950   4.101   1.648 -0.4056 -0.4750 -0.0997
 3991TIP3   OH211905   3.459   2.371   3.356 -0.1254 -0.1618  0.0298
 3991TIP3    H111906   3.505   2.450   3.381  1.7891 -0.8175 -1.3754
 3991TIP3    H211907   3.514   2.299   3.388 -0.3493 -0.9566 -1.3157
 3992TIP3   OH211908   5.076   3.128   0.850  0.3471  0.0389 -0.3791
 3992TIP3    H111909   5.160   3.159   0.817  0.7024 -1.0945 -0.5596
 3992TIP3    H211910   5.043   3.071   0.781 -0.5530  0.4413 -0.2852
 3993TIP3   OH211911   4.741   3.589   2.994  0.0532 -0.1473  0.1479
 3993TIP3    H111912   4.662   3.570   2.943  0.9864 -1.1700 -0.9390
 3993TIP3    H211913   4.772   3.673   2.959 -1.0546  0.7174  1.2143
 3994TIP3   OH211914   4.559   2.578   3.920  0.3075 -0.4923 -0.0121
 3994TIP3    H111915   4.631   2.625   3.961 -0.4722  0.8271 -0.1386
 3994TIP3    H211916   4.599   2.532   3.846  1.2529 -0.8648  0.7214
 3995TIP3   OH211917   7.952   2.701   0.984 -0.3151  0.4912 -0.3375
 3995TIP3    H111918   7.934   2.630   1.046 -0.8012 -0.0323 -1.0578
 3995TIP3    H211919   7.959   2.780   1.038  1.3461 -0.2663  0.5927
 3996TIP3   OH211920   4.365   4.290   0.480  0.5089 -0.0464 -0.7833
 3996TIP3    H111921   4.415   4.209   0.486  0.1031 -0.3240 -1.1439
 3996TIP3    H211922   4.291   4.276   0.539  0.7251  0.2772 -0.4269
 3997TIP3   OH211923   6.728   4.294   3.601 -0.2386  0.5665  0.0217
 3997TIP3    H111924   6.801   4.341   3.643 -0.4769 -0.0742  1.1722
 3997TIP3    H211925   6.658   4.295   3.666 -0.2100 -1.4759  0.1269
 3998TIP3   OH211926   4.771   2.413   0.086 -0.9874 -0.1146  0.5878
 3998TIP3    H111927   4.700   2.466   0.122  0.5249  3.9564 -2.0540
 3998TIP3    H211928   4.843   2.424   0.147 -1.2903 -0.8215  1.0822
 3999TIP3   OH211929   5.096   5.098   2.095  0.4531 -0.5233  0.2245
 3999TIP3    H111930   5.069   5.098   2.187  1.9264  0.5407  0.6626
 3999TIP3    H211931   5.187   5.126   2.096  0.7045 -1.2203 -1.5094
 4000TIP3   OH211932   6.055   2.112   3.403 -0.4931 -0.5059  0.2282
 4000TIP3    H111933   6.107   2.130   3.325 -1.2739 -3.4844 -1.0820
 4000TIP3    H211934   6.118   2.075   3.465 -0.2480 -0.0687  0.2392
 4001TIP3   OH211935   4.504   2.914   4.075 -0.4175 -0.3428 -0.1675
 4001TIP3    H111936   4.548   2.850   4.019  0.6040  0.0634  0.1524
 4001TIP3    H211937   4.422   2.871   4.100  0.5651 -1.8251  0.6108
 4002TIP3   OH211938   3.824   1.658   2.956  0.2278 -0.3433  0.6931
 4002TIP3    H111939   3.891   1.672   2.889 -1.0081  1.2311 -0.2365
 4002TIP3    H211940   3.758   1.603   2.913 -0.0134 -0.2877  0.9885
 4003TIP3   OH211941   4.237   4.646   0.197 -0.5636 -0.1057 -0.0696
 4003TIP3    H111942   4.314   4.618   0.246 -1.4710 -0.2537  1.2939
 4003TIP3    H211943   4.190   4.565   0.179 -1.5518  0.1935  1.0914
 4004TIP3   OH211944   6.448   4.267   4.048 -0.2156 -0.2162  0.1566
 4004TIP3    H111945   6.521   4.214   4.079  0.1237  0.1438 -0.0347
 4004TIP3    H211946   6.463   4.354   4.085  0.6655  0.4625 -1.6911
 4005TIP3   OH211947   7.048   5.476   6.381 -0.4318  0.5003  0.0845
 4005TIP3    H111948   7.021   5.448   6.293 -0.3625 -0.5605  0.3965
 4005TIP3    H211949   7.143   5.490   6.373  0.1231 -2.4379  0.6840
 4006TIP3   OH211950   6.373   6.266   1.447  0.1139 -0.5549  0.2378
 4006TIP3    H111951   6.412   6.292   1.364 -0.1741 -1.8716 -0.3091
 4006TIP3    H211952   6.415   6.323   1.512  1.4031 -0.5286 -0.6131
 4007TIP3   OH211953   2.701   7.245   4.625  0.5545  0.4942 -0.1010
 4007TIP3    H111954   2.770   7.310   4.613  0.3393  0.5228 -1.2511
 4007TIP3    H211955   2.635   7.289   4.679  1.1778  0.6410  0.5572
 4008TIP3   OH211956   6.711   4.744   3.237 -0.3583  0.2274 -0.2356
 4008TIP3    H111957   6.768   4.779   3.169 -0.2939  0.3736 -0.1074
 4008TIP3    H211958   6.738   4.653   3.247  1.5529  0.9503  1.5777
 4009TIP3   OH211959   6.485   4.458   0.930 -0.6586  0.1309 -0.1576
 4009TIP3    H111960   6.491   4.536   0.984 -0.2134  0.6385 -0.9388
 4009TIP3    H211961   6.454   4.389   0.990  1.1641  0.3538  1.0502
 4010TIP3   OH211962   5.779   3.373   3.141  0.2464  0.1419  0.1065
 4010TIP3    H111963   5.727   3.405   3.215 -0.4795  1.8010 -1.0901
 4010TIP3    H211964   5.765   3.437   3.072  0.6096 -1.5862 -1.6212
 4011TIP3   OH211965   7.161   3.301   2.225 -0.0370  0.7950  0.0907
 4011TIP3    H111966   7.088   3.342   2.270 -0.1017  1.2337 -0.4097
 4011TIP3    H211967   7.160   3.210   2.256 -1.3587  0.5603 -0.5946
 4012TIP3   OH211968   6.663   3.469   2.702 -0.2937 -0.3831  0.8542
 4012TIP3    H111969   6.738   3.512   2.662  0.4958 -0.1868  2.5054
 4012TIP3    H211970   6.617   3.539   2.749 -0.7084 -0.7738  1.0399
 4013TIP3   OH211971   5.513   4.101   3.836  0.5823 -0.2224  0.1032
 4013TIP3    H111972   5.503   4.086   3.742  0.8945 -0.2380  0.0715
 4013TIP3    H211973   5.542   4.191   3.844 -0.7622  0.1998  0.2669
 4014TIP3   OH211974   5.594   2.857   2.365 -0.1512  0.2783  0.1721
 4014TIP3    H111975   5.579   2.791   2.433 -0.6377 -0.8519 -1.0030
 4014TIP3    H211976   5.568   2.939   2.405  0.9940 -0.1607  1.8591
 4015TIP3   OH211977   6.341   4.371   0.454 -0.5390 -0.1941  0.3288
 4015TIP3    H111978   6.418   4.345   0.403 -0.8533  0.2702 -0.3885
 4015TIP3    H211979   6.353   4.327   0.538 -0.9001 -2.4289 -0.7505
 4016TIP3   OH211980   1.157   7.144   6.505  0.0069 -0.1702 -0.2447
 4016TIP3    H111981   1.217   7.098   6.564  0.5073  1.3026  0.4177
 4016TIP3    H211982   1.093   7.184   6.563 -0.0165  0.5443 -0.7648
 4017TIP3   OH211983   7.916   2.267   1.892 -0.1184 -0.4694 -0.8831
 4017TIP3    H111984   7.962   2.233   1.970  2.0365 -0.2354 -2.0235
 4017TIP3    H211985   7.831   2.222   1.894 -0.7938  0.7686  2.5063
 4018TIP3   OH211986   6.309   3.189   3.539  0.2182  0.0760  0.2413
 4018TIP3    H111987   6.359   3.239   3.475 -0.4634  1.5584  0.8452
 4018TIP3    H211988   6.373   3.163   3.605  0.9644 -1.6658 -1.1595
 4019TIP3   OH211989   6.026   6.126   2.644  0.1472 -1.0342 -0.3399
 4019TIP3    H111990   5.978   6.160   2.719  1.4109  0.1358 -0.0210
 4019TIP3    H211991   6.002   6.034   2.639  1.9070 -1.7413  3.0203
 4020TIP3   OH211992   0.201   4.049   0.925  0.1062  0.7979  0.0226
 4020TIP3    H111993   0.148   4.120   0.961 -0.2949  0.8108 -0.5669
 4020TIP3    H211994   0.196   4.062   0.830  0.4599  0.2920 -0.0670
 4021TIP3   OH211995   5.469   4.761   3.234  0.4496  0.3582 -0.4788
 4021TIP3    H111996   5.534   4.694   3.212  0.8040  1.1715 -1.9872
 4021TIP3    H211997   5.393   4.740   3.182 -0.3278 -0.2734  0.8820
 4022TIP3   OH211998   6.676   3.978   2.219 -0.1760 -0.2380  0.1372
 4022TIP3    H111999   6.598   4.034   2.217  0.0374  0.0352 -0.4918
 4022TIP3    H212000   6.682   3.949   2.310 -0.5856  0.3518  0.3547
 4023TIP3   OH212001   6.169   4.132   2.486 -0.4135  0.0678 -0.6905
 4023TIP3    H112002   6.169   4.037   2.490 -0.9177  0.0842 -0.3486
 4023TIP3    H212003   6.126   4.160   2.566 -1.7067  0.5501 -1.5414
 4024TIP3   OH212004   7.189   3.802   4.280 -0.0850  0.2619 -0.0816
 4024TIP3    H112005   7.274   3.784   4.240 -0.2778 -0.3134 -0.2480
 4024TIP3    H212006   7.145   3.717   4.280  0.3173  0.0109  2.3616
 4025TIP3   OH212007   1.623   6.184   5.777 -0.2294  0.0967  0.3397
 4025TIP3    H112008   1.616   6.181   5.872  0.7673  1.0639  0.4469
 4025TIP3    H212009   1.714   6.159   5.759 -0.4048 -0.0509 -0.3565
 4026TIP3   OH212010   2.509   1.080   6.725  0.3928  0.6246  0.2148
 4026TIP3    H112011   2.578   1.096   6.789  0.5904 -0.3781  0.2669
 4026TIP3    H212012   2.453   1.014   6.766 -0.2214  0.9438 -0.1061
 4027TIP3   OH212013   6.320   1.298   3.063 -0.4051 -0.2403  0.0347
 4027TIP3    H112014   6.315   1.202   3.070 -0.6458 -0.2087  0.2684
 4027TIP3    H212015   6.385   1.313   2.994 -0.6711 -0.5762 -0.2866
 4028TIP3   OH212016   5.927   4.642   2.030 -0.1234 -0.6810  0.0219
 4028TIP3    H112017   5.950   4.734   2.019  0.3069 -1.0405 -2.2323
 4028TIP3    H212018   5.869   4.622   1.957 -1.3738 -1.8509  1.2916
 4029TIP3   OH212019   6.406   1.490   6.535 -0.3626  0.3936  0.4104
 4029TIP3    H112020   6.386   1.535   6.617  2.0932 -1.7158  2.2624
 4029TIP3    H212021   6.464   1.550   6.489 -0.9521  1.1704  0.6725
 4030TIP3   OH212022   7.832   5.644   0.552 -0.3267 -0.1313 -0.3768
 4030TIP3    H112023   7.843   5.575   0.616 -0.8692 -0.3004 -0.4619
 4030TIP3    H212024   7.850   5.602   0.468 -0.6875 -0.1812 -0.4313
 4031TIP3   OH212025   5.717   2.346   2.500  0.4520 -0.0997 -0.6866
 4031TIP3    H112026   5.761   2.264   2.522  0.3163 -0.3211 -1.2505
 4031TIP3    H212027   5.757   2.373   2.417  1.6789  1.2460  0.3138
 4032TIP3   OH212028   0.019   4.678   0.646  0.7375  0.0092 -0.0719
 4032TIP3    H112029   0.015   4.755   0.702 -1.9843  1.0803 -1.6631
 4032TIP3    H212030   0.106   4.682   0.606  1.3115  1.2312  1.2606
 4033TIP3   OH212031   7.954   3.830   1.490 -0.0596  0.6243 -0.2855
 4033TIP3    H112032   8.026   3.767   1.499 -0.9562 -0.1804  1.4774
 4033TIP3    H212033   7.876   3.775   1.478 -0.7634  1.3984  0.6343
 4034TIP3   OH212034   5.665   4.178   0.407  0.2715  0.4987 -0.6669
 4034TIP3    H112035   5.619   4.133   0.336  0.8392 -1.3502  0.1003
 4034TIP3    H212036   5.752   4.196   0.371 -0.0548  1.2975 -1.0817
 4035TIP3   OH212037   7.322   3.121   0.206 -0.2147  0.3902  0.2919
 4035TIP3    H112038   7.289   3.132   0.295 -0.0520  0.2287  0.3715
 4035TIP3    H212039   7.410   3.160   0.208  0.0536 -0.2111  0.3724
 4036TIP3   OH212040   0.539   4.770   1.185  0.0311  0.0184  0.4938
 4036TIP3    H112041   0.593   4.843   1.156 -0.2275  0.4750  1.1696
 4036TIP3    H212042   0.537   4.711   1.109  1.9489 -0.2924  0.6570
 4037TIP3   OH212043   7.313   2.846   2.113 -0.4458  0.1627  0.3467
 4037TIP3    H112044   7.371   2.920   2.129  0.1390 -0.1584 -0.2563
 4037TIP3    H212045   7.356   2.796   2.044 -0.5847 -1.0258  1.1048
 4038TIP3   OH212046   7.588   4.120   1.313  0.2238  0.1326 -0.3345
 4038TIP3    H112047   7.624   4.122   1.402  1.0278  1.4243 -0.6826
 4038TIP3    H212048   7.499   4.155   1.323 -0.1579 -0.9089  0.1418
 4039TIP3   OH212049   6.939   4.381   3.727 -0.0927 -0.5664  0.0300
 4039TIP3    H112050   6.981   4.464   3.705  0.7645 -0.6847  1.1512
 4039TIP3    H212051   7.000   4.339   3.788 -1.6566 -0.9087  1.3969
 4040TIP3   OH212052   7.074   4.478   0.980 -0.6808  0.4783  0.5184
 4040TIP3    H112053   7.123   4.428   1.046 -0.3526  0.4641  0.2630
 4040TIP3    H212054   7.094   4.434   0.897 -0.7436  0.7649  0.3528
 4041TIP3   OH212055   8.047   2.292   3.137 -0.3285 -0.3453 -0.4850
 4041TIP3    H112056   8.101   2.234   3.083  0.2938 -1.3518  1.1814
 4041TIP3    H212057   8.105   2.363   3.162 -0.7736  0.4167 -1.5880
 4042TIP3   OH212058   7.470   5.620   0.934 -0.3688 -0.4008 -0.5800
 4042TIP3    H112059   7.506   5.532   0.941 -0.3859 -0.4301 -0.8624
 4042TIP3    H212060   7.527   5.664   0.871 -0.0175 -0.0353 -0.0119
 4043TIP3   OH212061   6.831   5.187   2.687 -0.4443 -0.5966 -0.2144
 4043TIP3    H112062   6.773   5.261   2.708 -0.2313 -0.6980  0.7537
 4043TIP3    H212063   6.829   5.181   2.591  1.0780  1.9002 -0.4299
 4044TIP3   OH212064   3.520   0.381   6.926 -0.5291  0.1507 -0.1859
 4044TIP3    H112065   3.604   0.426   6.917 -1.5797  1.8528 -2.0381
 4044TIP3    H212066   3.542   0.295   6.962  2.1102  0.2426 -1.4470
 4045TIP3   OH212067   5.744   3.515   1.495 -0.2417  0.4068 -0.4975
 4045TIP3    H112068   5.792   3.591   1.528 -0.5176  0.7832 -0.9371
 4045TIP3    H212069   5.734   3.458   1.570 -0.2524  0.9281 -0.0988
 4046TIP3   OH212070   6.688   4.630   0.602 -0.1809  0.6954 -0.2350
 4046TIP3    H112071   6.710   4.595   0.689  0.5903  1.8146  0.0293
 4046TIP3    H212072   6.598   4.602   0.587 -0.4922  0.9153  1.1515
 4047TIP3   OH212073   6.872   5.486   2.890  0.3462 -0.0081 -0.0492
 4047TIP3    H112074   6.780   5.494   2.913  0.6988  0.1340  1.3421
 4047TIP3    H212075   6.884   5.549   2.818 -0.5988  0.0781 -0.1405
 4048TIP3   OH212076   5.751   4.061   0.626  0.3171  0.2498 -0.2165
 4048TIP3    H112077   5.713   4.099   0.546  0.8559  0.4957 -0.3620
 4048TIP3    H212078   5.689   3.993   0.652 -0.5819  1.1207 -0.0532
 4049TIP3   OH212079   5.423   5.744   2.595  0.4602  0.2848 -0.2938
 4049TIP3    H112080   5.358   5.742   2.524  0.0349 -1.4539  0.1305
 4049TIP3    H212081   5.382   5.694   2.666  3.5110 -3.4831 -1.0836
 4050TIP3   OH212082   1.931   6.582   0.687 -0.3599  0.0839 -0.0243
 4050TIP3    H112083   1.970   6.496   0.670 -0.1760  0.4014 -1.2804
 4050TIP3    H212084   2.002   6.644   0.672 -0.7847  0.5215 -0.2300
 4051TIP3   OH212085   6.758   4.467   3.015 -0.6615 -0.1732  0.0460
 4051TIP3    H112086   6.685   4.458   2.953  0.1349 -1.6607 -0.7040
 4051TIP3    H212087   6.812   4.389   3.000  1.7730  1.5269 -0.2965
 4052TIP3   OH212088   6.154   3.892   2.624 -0.0698 -0.2767  0.2064
 4052TIP3    H112089   6.247   3.872   2.630 -0.2090 -0.9238  0.3325
 4052TIP3    H212090   6.124   3.896   2.715  0.2696  2.1008  0.2275
 4053TIP3   OH212091   5.675   2.004   3.383  0.1643 -0.4071  0.0575
 4053TIP3    H112092   5.658   1.946   3.308 -1.4405 -0.2887  0.3250
 4053TIP3    H212093   5.605   1.985   3.445  2.2019 -1.4482  2.1352
 4054TIP3   OH212094   7.993   2.345   2.332  0.4806 -0.1898  0.3572
 4054TIP3    H112095   7.986   2.251   2.314  1.4101 -0.4831  1.4783
 4054TIP3    H212096   7.906   2.380   2.314  0.2932 -1.1651 -0.6507
 4055TIP3   OH212097   5.071   2.140   0.786 -0.0697  0.6113 -0.3118
 4055TIP3    H112098   5.163   2.114   0.795 -0.0715  0.5509 -0.4621
 4055TIP3    H212099   5.074   2.217   0.728 -0.1413  0.4288 -0.5567
 4056TIP3   OH212100   0.843   7.740   6.872 -0.0965 -0.5629 -0.1074
 4056TIP3    H112101   0.824   7.820   6.921  1.5783 -1.3165  1.8542
 4056TIP3    H212102   0.821   7.761   6.781  0.1828  2.0749  0.4018
 4057TIP3   OH212103   2.430   7.160   6.044 -0.5732  0.6780  1.0790
 4057TIP3    H112104   2.420   7.075   6.086 -0.0852  0.4797  0.7917
 4057TIP3    H212105   2.369   7.159   5.971  1.5621 -0.5762 -0.7457
 4058TIP3   OH212106   2.280   3.002   3.223 -0.2752 -0.2897  0.0153
 4058TIP3    H112107   2.194   2.982   3.259 -0.0077 -1.0486  0.2383
 4058TIP3    H212108   2.296   3.092   3.249 -1.6307  0.3512 -1.2799
 4059TIP3   OH212109   8.186   3.135   0.052 -0.2779 -0.3132  0.0149
 4059TIP3    H112110   8.196   3.044   0.080 -0.4369 -1.3492 -3.0464
 4059TIP3    H212111   8.092   3.146   0.040 -0.2515  0.2302  0.3169
 4060TIP3   OH212112   8.057   4.128   1.190  0.7855 -0.0052 -0.6434
 4060TIP3    H112113   7.968   4.108   1.162 -0.0887  2.9310 -0.1029
 4060TIP3    H212114   8.084   4.201   1.134  1.4720  1.5343  1.6237
 4061TIP3   OH212115   1.752   1.603   1.764  0.0121  0.0331  0.0220
 4061TIP3    H112116   1.751   1.557   1.680 -0.7309 -0.1821  0.1456
 4061TIP3    H212117   1.671   1.576   1.807  0.8361 -0.5463  1.1946
 4062TIP3   OH212118   0.588   4.139   1.670 -0.2684 -0.1164 -0.0893
 4062TIP3    H112119   0.605   4.224   1.710  0.1479 -0.6220  0.8324
 4062TIP3    H212120   0.558   4.159   1.581  1.4364  0.9163 -0.4507
 4063TIP3   OH212121   6.169   2.587   1.313  0.4827 -0.5761 -0.3944
 4063TIP3    H112122   6.087   2.578   1.266  0.3828 -1.5536 -0.0384
 4063TIP3    H212123   6.226   2.520   1.275  1.0935  0.0459 -0.5874
 4064TIP3   OH212124   5.947   1.992   3.124 -0.2080 -0.7894  0.2262
 4064TIP3    H112125   5.931   1.901   3.149  0.3724 -0.1876  2.8469
 4064TIP3    H212126   5.914   2.044   3.198 -0.4135  1.1410 -1.1750
 4065TIP3   OH212127   1.620   1.938   0.773 -0.3625 -0.0914 -0.1731
 4065TIP3    H112128   1.633   1.894   0.856  1.6642 -0.6462 -0.7524
 4065TIP3    H212129   1.525   1.936   0.759 -0.6403 -0.7459  1.6925
 4066TIP3   OH212130   0.298   2.180   0.539  0.8791  0.0425  0.1434
 4066TIP3    H112131   0.226   2.152   0.482 -1.2360  2.4503  1.5274
 4066TIP3    H212132   0.336   2.256   0.495  1.2584  0.0181  0.4230
 4067TIP3   OH212133   7.682   0.952   1.374  0.3177  0.2289  0.6475
 4067TIP3    H112134   7.647   0.967   1.462 -1.5336 -0.1523  0.0064
 4067TIP3    H212135   7.707   0.859   1.374  1.4962  0.5401  1.1567
 4068TIP3   OH212136   0.866   6.001   5.773 -0.5583  0.4033  0.3051
 4068TIP3    H112137   0.854   5.907   5.761 -1.2058  0.2690  1.9551
 4068TIP3    H212138   0.879   6.034   5.684  0.9051 -1.3964 -0.2023
 4069TIP3   OH212139   1.071   1.461   3.146  0.4364 -0.0240  0.2856
 4069TIP3    H112140   1.013   1.535   3.127  1.2304  0.8637  1.2423
 4069TIP3    H212141   1.059   1.444   3.239  1.5433  0.0330  0.4516
 4070TIP3   OH212142   6.421   1.928   1.621 -0.6389 -0.3928 -0.2208
 4070TIP3    H112143   6.414   2.006   1.565 -0.8781  0.1893  0.6113
 4070TIP3    H212144   6.415   1.855   1.560 -1.3552  0.2331 -0.9243
 4071TIP3   OH212145   8.092   3.560   1.981  0.0864 -0.1035  0.2803
 4071TIP3    H112146   8.148   3.599   1.913  0.4810  0.5324  0.9620
 4071TIP3    H212147   8.147   3.492   2.021  0.7854  1.2446  1.6775
 4072TIP3   OH212148   7.675   3.220   1.164  0.1658  0.5306  0.2071
 4072TIP3    H112149   7.692   3.314   1.168 -1.5535  0.8492  0.8063
 4072TIP3    H212150   7.582   3.212   1.186  0.5388 -1.4052  1.2154
 4073TIP3   OH212151   3.083   6.676   5.996 -0.1380  0.0444  0.0820
 4073TIP3    H112152   3.058   6.768   5.992  1.7372  0.5698  0.1614
 4073TIP3    H212153   3.177   6.675   5.981 -0.4136 -2.0523 -1.8297
 4074TIP3   OH212154   6.769   2.709   1.437 -0.5472 -0.0103 -0.6123
 4074TIP3    H112155   6.732   2.746   1.518 -2.0453 -0.6272 -0.9867
 4074TIP3    H212156   6.857   2.745   1.432 -1.1508  1.6552  0.2355
 4075TIP3   OH212157   2.984   6.277   1.345 -0.1447 -0.4224  0.1509
 4075TIP3    H112158   2.926   6.266   1.420  0.3306  1.8966  0.9138
 4075TIP3    H212159   2.974   6.369   1.320  2.2107 -0.3124 -0.5314
 4076TIP3   OH212160   1.995   6.970   6.901 -0.2694 -0.6652  0.2560
 4076TIP3    H112161   1.903   6.953   6.922 -0.4450  0.6656  0.5843
 4076TIP3    H212162   2.022   7.036   6.965  0.5329 -0.0530 -0.7107
 4077TIP3   OH212163   1.930   5.883   6.432  0.3446  0.2447  0.0839
 4077TIP3    H112164   1.949   5.960   6.486 -0.5525  0.3598  0.2385
 4077TIP3    H212165   1.997   5.886   6.363  0.6717  0.8405  0.4164
 4078TIP3   OH212166   5.968   1.817   0.332 -0.1628  0.2055  0.0138
 4078TIP3    H112167   5.912   1.888   0.302  0.6181  1.2756  1.0160
 4078TIP3    H212168   6.057   1.849   0.319  0.1917 -0.0281  1.7085
 4079TIP3   OH212169   1.111   1.885   3.218 -0.4308  0.2163  0.2443
 4079TIP3    H112170   1.145   1.975   3.216  0.0351  0.0319 -0.2487
 4079TIP3    H212171   1.064   1.879   3.302 -1.8464  1.4200 -0.4317
 4080TIP3   OH212172   7.901   3.846   0.844 -0.0311  0.7284  0.5018
 4080TIP3    H112173   7.929   3.883   0.760 -1.7700 -0.1910 -0.5119
 4080TIP3    H212174   7.828   3.901   0.871  0.1848  0.6927  1.1716
 4081TIP3   OH212175   0.587   5.139   1.136  0.2242 -0.1891 -0.2705
 4081TIP3    H112176   0.653   5.073   1.115  2.0419  2.0386 -1.7110
 4081TIP3    H212177   0.579   5.190   1.056 -0.8482  1.6305  0.9740
 4082TIP3   OH212178   4.075   6.697   0.240 -0.1672 -0.0943 -0.2139
 4082TIP3    H112179   4.036   6.779   0.270 -0.4969  0.1660 -1.2964
 4082TIP3    H212180   4.052   6.633   0.307 -2.2277  0.1202 -0.6860
 4083TIP3   OH212181   1.837   7.110   5.942 -0.0778 -0.1817  0.3866
 4083TIP3    H112182   1.896   7.049   5.987 -0.2039  0.1998  1.0671
 4083TIP3    H212183   1.895   7.172   5.898  0.0517 -0.7573 -0.2689
 4084TIP3   OH212184   5.358   3.153   2.338  0.2184  0.6802  0.2347
 4084TIP3    H112185   5.404   3.102   2.271 -1.2457 -0.3896  0.0241
 4084TIP3    H212186   5.393   3.121   2.421 -1.3812 -1.3983  0.1483
 4085TIP3   OH212187   2.024   7.201   5.471 -0.2180  0.2706  0.2749
 4085TIP3    H112188   2.031   7.152   5.389  0.0020 -0.6514  0.8337
 4085TIP3    H212189   1.998   7.135   5.535 -2.5716  1.3961  0.5278
 4086TIP3   OH212190   2.138   7.602   6.516 -0.4684 -0.0228  0.1163
 4086TIP3    H112191   2.058   7.646   6.546 -0.4972  0.9491 -1.3589
 4086TIP3    H212192   2.204   7.624   6.582 -1.2055 -0.1791  0.9215
 4087TIP3   OH212193   5.259   2.968   1.053  0.1966  0.7341  0.6728
 4087TIP3    H112194   5.210   2.942   0.974 -0.2325  0.2121  1.0987
 4087TIP3    H212195   5.335   3.016   1.020 -0.3864  1.1943 -0.0247
 4088TIP3   OH212196   7.729   4.081   0.848 -0.2077 -0.6659  0.2359
 4088TIP3    H112197   7.730   4.175   0.829 -0.9851 -0.3248  1.8654
 4088TIP3    H212198   7.664   4.046   0.787 -0.9617  0.0600  0.6099
 4089TIP3   OH212199   5.598   0.641   5.346  0.0048  0.3750  0.2190
 4089TIP3    H112200   5.613   0.616   5.438 -2.4493 -0.9662  0.2937
 4089TIP3    H212201   5.547   0.569   5.310  0.9081  0.9126 -2.2282
 4090TIP3   OH212202   8.519   4.065   1.760  0.1172  0.3269 -0.9941
 4090TIP3    H112203   8.531   4.160   1.748 -0.2422  0.7121  1.5067
 4090TIP3    H212204   8.433   4.048   1.722  0.0629  1.0407 -1.2104
 4091TIP3   OH212205   7.896   4.594   0.183  0.7183 -0.9514 -0.3974
 4091TIP3    H112206   7.890   4.631   0.095 -0.2012  1.3377  0.5630
 4091TIP3    H212207   7.984   4.617   0.213  0.9202 -1.4586 -0.5923
 4092TIP3   OH212208   0.678   3.131   1.697 -0.8490 -0.3285 -0.1623
 4092TIP3    H112209   0.678   3.052   1.750  1.4009  0.2045  0.7001
 4092TIP3    H212210   0.690   3.202   1.760  0.4345  0.4260 -1.2248
 4093TIP3   OH212211   8.401   4.555   2.150 -0.4171 -0.1844 -0.3037
 4093TIP3    H112212   8.420   4.530   2.060  0.0140 -0.1834 -0.2153
 4093TIP3    H212213   8.464   4.505   2.202 -0.4753  0.0330 -0.0246
 4094TIP3   OH212214   6.505   3.889   1.831 -0.1918  0.3757  0.4050
 4094TIP3    H112215   6.477   3.960   1.889 -0.7619  0.1327  0.4282
 4094TIP3    H212216   6.446   3.894   1.756 -2.1297 -1.8822  1.7199
 4095TIP3   OH212217   4.452   0.240   6.758 -0.0619 -0.4405  0.0416
 4095TIP3    H112218   4.421   0.222   6.670 -0.1001 -2.0070  0.3573
 4095TIP3    H212219   4.516   0.311   6.747 -0.5327 -0.1927 -1.1463
 4096TIP3   OH212220   8.344   3.537   3.162 -0.7678  0.0193  0.2425
 4096TIP3    H112221   8.393   3.492   3.230  0.5118 -0.7387 -1.1369
 4096TIP3    H212222   8.261   3.490   3.156 -0.1744 -1.0248  0.0766
 4097TIP3   OH212223   6.273   3.712   2.181  0.3346  0.0686  0.1683
 4097TIP3    H112224   6.184   3.700   2.148  0.5421 -0.4350 -0.2112
 4097TIP3    H212225   6.267   3.690   2.274  0.1444 -0.3371  0.0595
 4098TIP3   OH212226   8.345   3.145   1.566 -0.5411  0.4315  0.1972
 4098TIP3    H112227   8.299   3.136   1.650 -1.0880 -0.0124 -0.1483
 4098TIP3    H212228   8.366   3.055   1.541  0.0769  0.5987  0.1089
 4099TIP3   OH212229   5.912   4.569   1.483  0.0603 -0.0080 -0.4584
 4099TIP3    H112230   6.004   4.574   1.509  0.0066 -1.7321  0.1333
 4099TIP3    H212231   5.914   4.558   1.388  0.3791  2.1888 -0.7345
 4100TIP3   OH212232   8.046   2.156   3.404  0.9334 -0.2132 -0.4248
 4100TIP3    H112233   7.973   2.097   3.421  0.8378  0.0912  0.2497
 4100TIP3    H212234   8.031   2.189   3.315 -1.2630  1.9527  0.6858
 4101TIP3   OH212235   0.087   3.445   1.147  0.5044  0.5046  0.6355
 4101TIP3    H112236   0.163   3.388   1.160  0.5017  0.8008  2.0021
 4101TIP3    H212237   0.019   3.405   1.201  0.7382  2.2499  2.2661
 4102TIP3   OH212238   6.558   7.164   0.100 -0.1119  0.1840  0.1809
 4102TIP3    H112239   6.626   7.191   0.162 -0.8020  3.1195 -0.2886
 4102TIP3    H212240   6.601   7.163   0.015  0.4637 -2.4424  0.4556
 4103TIP3   OH212241   8.129   2.263   2.058 -0.4131 -0.0042  0.2767
 4103TIP3    H112242   8.101   2.218   2.137  1.4666 -1.0301  0.3795
 4103TIP3    H212243   8.207   2.216   2.029 -1.4698 -0.1296 -2.6192
 4104TIP3   OH212244   7.299   3.488   1.180  0.1212 -0.4708 -0.2403
 4104TIP3    H112245   7.234   3.492   1.110  0.4908 -1.2233 -0.6239
 4104TIP3    H212246   7.375   3.533   1.145  0.3361 -0.9225 -0.3513
 4105TIP3   OH212247   1.647   1.664   0.386 -0.0130  0.2115  0.5958
 4105TIP3    H112248   1.629   1.663   0.479 -0.8510  0.1344  0.4342
 4105TIP3    H212249   1.582   1.605   0.347  1.7311 -1.4858  0.1992
 4106TIP3   OH212250   0.987   5.324   0.073  0.4362 -0.0320 -0.3028
 4106TIP3    H112251   1.051   5.262   0.107  1.1014  0.8585  0.1009
 4106TIP3    H212252   1.024   5.353  -0.010  1.0428  1.1846  0.3653
 4107TIP3   OH212253   3.441   6.477   5.590 -0.9751 -0.2159 -0.1233
 4107TIP3    H112254   3.449   6.471   5.495 -1.5062  0.7830 -0.2397
 4107TIP3    H212255   3.527   6.453   5.623 -0.1053  1.6313 -0.9645
 4108TIP3   OH212256   0.016   4.312   0.052 -0.1782  0.2518 -0.3723
 4108TIP3    H112257   0.047   4.397   0.021 -0.4840  0.5326  0.0788
 4108TIP3    H212258  -0.060   4.333   0.107  0.1191 -0.2638  0.2381
 4109TIP3   OH212259   4.606   0.461   6.708 -0.7670 -0.0867  0.1721
 4109TIP3    H112260   4.583   0.508   6.788 -0.0957  0.6870 -0.0833
 4109TIP3    H212261   4.631   0.530   6.646  0.3833 -0.7838 -0.1609
 4110TIP3   OH212262   6.304   4.101   1.500  0.1571  0.1307 -0.4892
 4110TIP3    H112263   6.365   4.162   1.542 -0.3275  1.1693 -1.2571
 4110TIP3    H212264   6.298   4.027   1.560 -0.6731  1.6577  1.3519
 4111TIP3   OH212265   0.605   7.555   6.839  0.1262  0.1986 -0.1650
 4111TIP3    H112266   0.651   7.625   6.793 -0.4717  0.3043 -0.6067
 4111TIP3    H212267   0.589   7.489   6.772  0.2201 -0.1290  0.1350
 4112TIP3   OH212268   6.043   2.653   1.892  0.1539  0.2946 -0.1253
 4112TIP3    H112269   6.025   2.559   1.893  1.3624  0.0593  0.3746
 4112TIP3    H212270   6.129   2.661   1.934 -0.2874  1.6946  0.5056
 4113TIP3   OH212271   6.350   5.240   0.998  0.5565  0.3333  0.6011
 4113TIP3    H112272   6.423   5.181   0.982  0.0790 -0.2507  0.5592
 4113TIP3    H212273   6.371   5.319   0.948  0.7486 -0.1573 -0.1074
 4114TIP3   OH212274   0.519   6.477   0.168 -0.1614 -0.2283  0.3400
 4114TIP3    H112275   0.459   6.413   0.130  0.0350 -1.1084  1.4893
 4114TIP3    H212276   0.552   6.435   0.247 -0.1805  1.3640  1.2160
 4115TIP3   OH212277   0.696   3.421   3.270  0.3757  0.6646  0.1576
 4115TIP3    H112278   0.654   3.479   3.334  1.5020  1.2232  0.4103
 4115TIP3    H212279   0.638   3.345   3.264 -0.7712  1.5231  0.3283
 4116TIP3   OH212280   1.215   3.257   2.330  0.5148  0.2550  0.2434
 4116TIP3    H112281   1.125   3.280   2.307 -0.3191 -2.1638  0.9692
 4116TIP3    H212282   1.235   3.182   2.274  2.1602  0.8994 -0.0493
 4117TIP3   OH212283   8.183   5.266   3.666 -0.3840 -0.5787  0.5503
 4117TIP3    H112284   8.094   5.300   3.663  0.2739  1.1686  0.2174
 4117TIP3    H212285   8.191   5.214   3.586 -1.0934 -0.7157  0.5646
 4118TIP3   OH212286   0.650   7.533   6.481 -0.0594 -0.4660  0.5621
 4118TIP3    H112287   0.743   7.522   6.459 -0.0767  0.1485  0.1973
 4118TIP3    H212288   0.608   7.453   6.449  0.4322 -1.0028  1.2335
 4119TIP3   OH212289   5.528   5.212   2.985  0.5293  0.2465 -0.3595
 4119TIP3    H112290   5.581   5.206   2.905 -0.1485 -0.4231 -0.7688
 4119TIP3    H212291   5.532   5.124   3.022 -0.0110  0.2835 -0.2102
 4120TIP3   OH212292   2.173   6.021   5.225 -0.1240 -0.0154 -1.1110
 4120TIP3    H112293   2.115   6.043   5.298  0.6515 -1.9638  0.1219
 4120TIP3    H212294   2.149   6.083   5.157 -2.6172  0.2225 -0.0968
 4121TIP3   OH212295   5.084   1.978   5.189  0.5358  0.3090 -0.1693
 4121TIP3    H112296   5.178   1.965   5.201  0.4486  0.1790  0.4060
 4121TIP3    H212297   5.068   1.961   5.097  1.1951  1.0387 -0.4222
 4122TIP3   OH212298   6.367   6.285   3.150 -0.1015 -0.5061 -0.2173
 4122TIP3    H112299   6.337   6.344   3.081  1.0213  1.2377  0.7364
 4122TIP3    H212300   6.420   6.220   3.105 -0.1119  0.0954 -1.1016
 4123TIP3   OH212301   3.091   7.664   5.715 -0.3965 -0.0467  0.5241
 4123TIP3    H112302   3.147   7.622   5.650 -0.2058 -0.2025  0.7859
 4123TIP3    H212303   3.002   7.640   5.689 -0.3261 -0.0198  0.2605
 4124TIP3   OH212304   6.480   4.337   2.628  0.0299  0.0650 -0.6454
 4124TIP3    H112305   6.435   4.350   2.544 -0.5269 -1.9615 -0.6878
 4124TIP3    H212306   6.542   4.266   2.611 -1.5898 -1.8466  1.1998
 4125TIP3   OH212307   1.027   5.929   6.546 -0.2821  0.2637  0.2448
 4125TIP3    H112308   0.950   5.875   6.565 -0.4558 -0.4409 -2.1953
 4125TIP3    H212309   1.093   5.866   6.515  0.5469  1.1193  0.2463
 4126TIP3   OH212310   0.280   5.656   1.610 -0.2495  0.0375  0.0200
 4126TIP3    H112311   0.262   5.744   1.576 -0.8320 -0.3059 -0.5833
 4126TIP3    H212312   0.373   5.657   1.632 -0.0066  0.4859 -0.9769
 4127TIP3   OH212313   4.230   3.466   5.125  0.2653 -0.4531 -0.8024
 4127TIP3    H112314   4.159   3.402   5.130  0.6948 -1.0683 -2.3348
 4127TIP3    H212315   4.257   3.465   5.033  0.2771  1.9475 -0.8455
 4128TIP3   OH212316   8.409   2.475   3.122 -0.2438 -0.2053  0.3242
 4128TIP3    H112317   8.392   2.464   3.216  1.1405 -1.4253  0.4538
 4128TIP3    H212318   8.323   2.483   3.083 -0.8364  0.4262  1.7230
 4129TIP3   OH212319   8.320   3.977   2.492 -0.7083  0.1215  0.7957
 4129TIP3    H112320   8.408   3.973   2.454 -1.6512 -2.2913 -1.2870
 4129TIP3    H212321   8.334   3.991   2.585  1.9374 -1.8727  0.7230
 4130TIP3   OH212322   8.157   1.750   3.251  0.4665  0.1395 -0.3692
 4130TIP3    H112323   8.176   1.823   3.309  1.4322 -0.0160 -0.4925
 4130TIP3    H212324   8.098   1.786   3.184  0.7127  0.7225 -0.2661
 4131TIP3   OH212325   6.961   4.314   1.923 -0.0306  0.9463  0.2759
 4131TIP3    H112326   6.943   4.297   1.830 -0.1143  1.2679  0.2309
 4131TIP3    H212327   6.945   4.230   1.967 -0.8303  1.0175  0.1189
 4132TIP3   OH212328   8.301   3.091   3.062 -0.2790 -0.3909  0.2215
 4132TIP3    H112329   8.219   3.079   3.016 -0.1958 -0.0292 -0.0239
 4132TIP3    H212330   8.335   3.003   3.076 -1.3991 -0.6208  1.5823
 4133TIP3   OH212331   0.799   2.976   2.690 -0.0986  0.4377  0.2054
 4133TIP3    H112332   0.761   3.060   2.714 -2.0850 -0.4597  0.2809
 4133TIP3    H212333   0.833   2.940   2.772  0.8828  1.2147  0.1471
 4134TIP3   OH212334   7.185   4.735   3.401 -0.4920  0.2747 -0.5013
 4134TIP3    H112335   7.238   4.733   3.321 -0.5600  0.9490 -0.5675
 4134TIP3    H212336   7.214   4.814   3.447  1.4382 -1.5108  1.4469
 4135TIP3   OH212337   7.968   2.154   2.738 -0.4028 -0.5846  0.0119
 4135TIP3    H112338   7.978   2.238   2.784  0.9115  0.3532 -1.9327
 4135TIP3    H212339   8.045   2.148   2.681 -1.1822 -2.4690 -0.8898
 4136TIP3   OH212340   6.863   3.826   1.884 -0.4257 -0.1438  0.0842
 4136TIP3    H112341   6.788   3.825   1.825 -0.5620  1.1780  0.2070
 4136TIP3    H212342   6.877   3.735   1.908 -2.2203 -0.3719  0.3279
 4137TIP3   OH212343   4.157   2.477   1.531 -0.1342 -0.0190 -0.3654
 4137TIP3    H112344   4.133   2.401   1.583  0.2058 -0.8736 -1.4400
 4137TIP3    H212345   4.098   2.547   1.561 -0.3301 -0.6592  0.7343
 4138TIP3   OH212346   6.718   5.440   1.449 -0.0246 -0.6860  0.2626
 4138TIP3    H112347   6.652   5.386   1.407 -0.4156  0.3898 -0.5273
 4138TIP3    H212348   6.679   5.528   1.453  0.7512 -0.3633  1.1565
 4139TIP3   OH212349   5.329   2.501   3.452  0.3426 -0.4652 -0.2567
 4139TIP3    H112350   5.267   2.449   3.504  1.6303 -0.6987  1.0895
 4139TIP3    H212351   5.274   2.564   3.406 -0.8943 -0.5556  1.0460
 4140TIP3   OH212352   6.564   4.849   0.844 -0.5626  0.3740 -0.7250
 4140TIP3    H112353   6.470   4.843   0.826 -0.2247 -0.2011 -2.4326
 4140TIP3    H212354   6.603   4.870   0.759  0.9576 -0.3651 -0.2242
 4141TIP3   OH212355   0.693   7.773   6.647 -0.0710  0.7922  0.0258
 4141TIP3    H112356   0.688   7.854   6.596  2.0726  0.7806 -0.2633
 4141TIP3    H212357   0.698   7.703   6.582 -0.1216  0.5736  0.2556
 4142TIP3   OH212358   7.243   4.034   0.465  0.2574 -0.3153  0.1474
 4142TIP3    H112359   7.205   3.961   0.514  0.7479 -0.8575 -0.2588
 4142TIP3    H212360   7.327   4.000   0.434  0.2498  0.2465 -0.5015
 4143TIP3   OH212361   6.821   3.066   1.295  0.1254  0.6139 -0.3902
 4143TIP3    H112362   6.793   3.076   1.386  0.8559 -0.1525 -0.0676
 4143TIP3    H212363   6.890   3.132   1.283  0.6516  0.1192 -0.1144
 4144TIP3   OH212364   6.918   2.950   0.718 -0.0899  0.8239 -0.0023
 4144TIP3    H112365   6.916   2.855   0.728 -0.1150  0.6289 -1.6712
 4144TIP3    H212366   6.989   2.978   0.776  1.5430 -0.4828 -1.3041
 4145TIP3   OH212367   0.097   5.459   3.283  0.0361  0.5533  0.5421
 4145TIP3    H112368   0.091   5.473   3.189  0.9122  2.0005  0.6820
 4145TIP3    H212369   0.183   5.419   3.297  0.9655  2.6421  0.9545
 4146TIP3   OH212370   7.118   4.732   2.164 -0.0243 -0.3098 -0.3251
 4146TIP3    H112371   7.065   4.810   2.151 -0.6382 -0.5635  0.5801
 4146TIP3    H212372   7.057   4.659   2.152 -0.3060 -0.5837  2.3064
 4147TIP3   OH212373   0.858   7.446   6.825 -0.6644 -0.4686  0.0088
 4147TIP3    H112374   0.844   7.537   6.851  2.7652  0.0392  0.3221
 4147TIP3    H212375   0.867   7.398   6.907 -2.6145 -1.1537 -0.1536
 4148TIP3   OH212376   4.894   5.493   1.083 -0.0379  0.1515  0.0255
 4148TIP3    H112377   4.867   5.584   1.085 -0.8343 -0.0920  0.4633
 4148TIP3    H212378   4.964   5.487   1.148  0.4388  0.5814 -0.4468
 4149TIP3   OH212379   7.183   4.777   3.799 -0.2130  0.3070  0.0140
 4149TIP3    H112380   7.270   4.768   3.760 -0.8746  0.6052 -1.5628
 4149TIP3    H212381   7.131   4.823   3.732 -2.1193 -1.6314  0.1162
 4150TIP3   OH212382   6.567   4.099   0.761  0.0946 -0.0681  0.0104
 4150TIP3    H112383   6.485   4.144   0.741 -0.3114 -0.1869  1.3303
 4150TIP3    H212384   6.575   4.033   0.692 -1.4985 -0.7887  0.4824
 4151TIP3   OH212385   4.581   0.884   6.877  0.4117  0.1180 -0.0583
 4151TIP3    H112386   4.554   0.943   6.948 -0.6865  1.2475 -1.3966
 4151TIP3    H212387   4.535   0.916   6.800  0.1398 -2.2409 -0.9161
 4152TIP3   OH212388   1.966   7.824   6.563 -0.3848 -0.6718 -0.5762
 4152TIP3    H112389   1.916   7.888   6.511 -2.0551 -1.1974  0.3244
 4152TIP3    H212390   2.006   7.876   6.633  0.7941 -0.1604 -1.6170
 4153TIP3   OH212391   1.176   4.727   0.727 -0.1128  0.5120  0.3934
 4153TIP3    H112392   1.139   4.677   0.800 -0.1768  0.4886  0.3447
 4153TIP3    H212393   1.238   4.787   0.769 -0.0719  0.4262  0.4564
 4154TIP3   OH212394   7.015   3.124   1.526 -0.1543 -0.8282  0.5450
 4154TIP3    H112395   6.960   3.171   1.588 -0.3697 -1.5594  0.9127
 4154TIP3    H212396   7.028   3.186   1.454 -1.2692 -0.5681  0.5611
 4155TIP3   OH212397   6.364   3.781   1.193  0.0515  0.1929  0.3189
 4155TIP3    H112398   6.410   3.865   1.197  1.0046 -0.3675  1.3650
 4155TIP3    H212399   6.313   3.786   1.112 -0.6875  2.1817  0.8546
 4156TIP3   OH212400   8.362   3.709   2.306  0.0941 -0.1433  0.7343
 4156TIP3    H112401   8.271   3.728   2.326 -0.2181 -0.9542  0.0801
 4156TIP3    H212402   8.411   3.751   2.377 -0.7355  0.8568  0.7278
 4157TIP3   OH212403   0.128   2.914   3.307 -0.0521 -0.4880 -0.0865
 4157TIP3    H112404   0.196   2.898   3.241  0.3264 -0.3252  0.2585
 4157TIP3    H212405   0.166   2.981   3.365 -1.5408  1.5182 -1.3910
 4158TIP3   OH212406   5.809   5.736   2.962 -0.0160 -0.3435 -0.0898
 4158TIP3    H112407   5.831   5.666   2.901  1.4548  0.1474 -0.1364
 4158TIP3    H212408   5.860   5.716   3.040 -0.4862  0.0444  0.3215
 4159TIP3   OH212409   4.301   5.518   1.094 -0.5268 -0.4160 -0.2434
 4159TIP3    H112410   4.236   5.464   1.140 -0.9344 -0.5070 -0.9269
 4159TIP3    H212411   4.265   5.606   1.098  0.2700 -0.1274  1.1122
 4160TIP3   OH212412   7.203   5.108   1.238 -0.0234  0.1523 -0.1779
 4160TIP3    H112413   7.263   5.161   1.292  1.5330 -0.3970 -1.3394
 4160TIP3    H212414   7.127   5.164   1.225 -0.1869  0.5270  2.0852
 4161TIP3   OH212415   5.548   4.292   2.663 -0.1841 -0.4121 -0.1424
 4161TIP3    H112416   5.591   4.369   2.626  0.7704 -1.7077 -1.7472
 4161TIP3    H212417   5.470   4.281   2.609 -0.7961 -0.0615  0.6545
 4162TIP3   OH212418   6.255   4.825   1.958 -0.0365 -0.1114  0.0694
 4162TIP3    H112419   6.193   4.779   2.014  1.1990  0.0521  1.6134
 4162TIP3    H212420   6.233   4.918   1.968 -0.0047 -0.1034  0.0662
 4163TIP3   OH212421   4.586   5.609   2.299  0.1915 -0.8952  0.3042
 4163TIP3    H112422   4.645   5.683   2.288 -0.2009 -0.4904  0.8847
 4163TIP3    H212423   4.609   5.549   2.229 -0.3714  0.3500 -0.9732
 4164TIP3   OH212424   7.232   3.775   0.947  0.1160 -0.0055 -0.0070
 4164TIP3    H112425   7.290   3.846   0.976 -0.8145  0.6966  0.1414
 4164TIP3    H212426   7.274   3.741   0.867  1.7374 -0.7701  1.1496
 4165TIP3   OH212427   7.719   4.474   2.040 -0.5309  0.0285  0.7884
 4165TIP3    H112428   7.805   4.440   2.017 -0.5668 -0.3703  1.2523
 4165TIP3    H212429   7.676   4.489   1.955  0.0622  0.4173  0.5540
 4166TIP3   OH212430   0.093   4.319   0.465  0.0211  0.5142 -0.1268
 4166TIP3    H112431   0.143   4.265   0.404 -0.6588 -0.2052 -0.0690
 4166TIP3    H212432   0.155   4.384   0.497  0.6392  0.2868 -0.8392
 4167TIP3   OH212433   6.522   3.550   1.150  0.1990  0.4534  0.7184
 4167TIP3    H112434   6.484   3.638   1.145  0.4264  0.5785  1.1284
 4167TIP3    H212435   6.480   3.501   1.080  0.1366  0.9171  0.4343
 4168TIP3   OH212436   5.478   5.214   1.736  0.3227 -0.1702  0.1704
 4168TIP3    H112437   5.447   5.149   1.799  0.2954  0.2096  0.5443
 4168TIP3    H212438   5.433   5.190   1.654 -1.5554  0.8300  0.8858
 4169TIP3   OH212439   2.964   3.301   1.744  0.1226  1.2071 -0.2303
 4169TIP3    H112440   2.873   3.295   1.771 -0.0155  1.8221 -0.5508
 4169TIP3    H212441   2.962   3.355   1.666  0.6136  0.1508 -0.9929
 4170TIP3   OH212442   5.919   2.446   1.642  0.4504 -0.0081 -0.3696
 4170TIP3    H112443   5.897   2.507   1.571  2.1387  0.2212 -0.7127
 4170TIP3    H212444   5.856   2.467   1.711 -0.7830  0.2219 -1.5300
 4171TIP3   OH212445   7.580   1.867   2.332  0.1869  0.0084 -0.0887
 4171TIP3    H112446   7.546   1.828   2.413 -1.0260 -0.0448 -0.6163
 4171TIP3    H212447   7.577   1.962   2.349 -1.6839  0.0796 -0.6815
 4172TIP3   OH212448   7.618   5.803   0.769  0.1218  0.1372 -0.1739
 4172TIP3    H112449   7.599   5.807   0.676  0.8734 -0.8521 -0.3836
 4172TIP3    H212450   7.706   5.765   0.774  0.1296  0.2692  0.9283
 4173TIP3   OH212451   1.173   6.226   6.575  0.0949  0.5543 -0.5734
 4173TIP3    H112452   1.214   6.289   6.516  0.0471  1.3823  0.2737
 4173TIP3    H212453   1.094   6.198   6.530  0.2103  0.9611 -1.0247
 4174TIP3   OH212454   4.239   0.050   6.080 -0.5552 -0.4254  0.6739
 4174TIP3    H112455   4.296   0.128   6.075 -1.3954  0.1662  0.1059
 4174TIP3    H212456   4.157   0.083   6.117 -0.8295 -1.0953  0.6635
 4175TIP3   OH212457   5.415   3.985   2.625  0.6087  0.9035  0.5846
 4175TIP3    H112458   5.405   4.074   2.592 -0.7077  0.5022 -0.1324
 4175TIP3    H212459   5.481   3.945   2.567 -1.8390  0.1396 -1.7470
 4176TIP3   OH212460   0.391   2.466   2.778  0.4069  0.4624 -0.2550
 4176TIP3    H112461   0.431   2.383   2.753 -1.0302 -0.4234  0.3278
 4176TIP3    H212462   0.311   2.471   2.725 -1.0149  0.0794  1.7926
 4177TIP3   OH212463   5.297   4.786   0.157 -0.3988 -0.1253 -0.5779
 4177TIP3    H112464   5.362   4.792   0.227  0.8086 -1.8418 -1.5386
 4177TIP3    H212465   5.239   4.716   0.184  0.6788 -1.5062 -1.7599
 4178TIP3   OH212466   0.415   4.859   1.816 -0.2857 -0.1448 -0.1005
 4178TIP3    H112467   0.344   4.906   1.772 -0.0089  1.8055  1.4640
 4178TIP3    H212468   0.422   4.901   1.902  1.8485 -1.2101  0.2811
 4179TIP3   OH212469   1.027   4.625   3.953  0.1810  0.2586 -0.1794
 4179TIP3    H112470   1.043   4.547   3.901 -0.4448 -0.5220  0.7586
 4179TIP3    H212471   0.969   4.679   3.899  0.6160  0.0723 -0.8333
 4180TIP3   OH212472   0.651   5.019   4.668  0.2552 -0.2636 -0.0675
 4180TIP3    H112473   0.684   5.109   4.664  1.4042 -0.6582  0.2560
 4180TIP3    H212474   0.654   4.997   4.761  1.2123 -1.0717 -0.2795
 4181TIP3   OH212475   0.977   6.541   2.728  0.8423  0.5087 -0.8472
 4181TIP3    H112476   0.942   6.519   2.642 -2.3936  5.0553 -0.8764
 4181TIP3    H212477   1.031   6.618   2.713 -0.4002  1.8407  1.2519
 4182TIP3   OH212478   3.219   6.383   2.408  0.4427  0.5332  0.7843
 4182TIP3    H112479   3.248   6.371   2.318  0.8466  0.4678  0.9193
 4182TIP3    H212480   3.141   6.437   2.401 -0.6711 -1.1214  0.2722
 4183TIP3   OH212481   8.122   2.965   2.135  0.3855  0.0155  0.8638
 4183TIP3    H112482   8.050   2.917   2.093  0.8346  2.1951 -2.6014
 4183TIP3    H212483   8.201   2.921   2.104  0.6412 -0.5728  2.3364
 4184TIP3   OH212484   2.067   4.866   2.699 -0.2197  0.2332 -0.0926
 4184TIP3    H112485   2.090   4.774   2.703  0.8416  0.4911 -0.1820
 4184TIP3    H212486   2.076   4.890   2.607 -1.6713  0.1359 -0.2739
 4185TIP3   OH212487   7.588   5.935   4.648  0.4643  0.2979 -0.1820
 4185TIP3    H112488   7.613   5.843   4.641 -0.0188  0.1475  0.0873
 4185TIP3    H212489   7.494   5.934   4.665  0.0731  0.8903 -2.1905
 4186TIP3   OH212490   0.390   7.382   3.135 -0.3356 -0.2638  0.0050
 4186TIP3    H112491   0.298   7.393   3.158  0.2114  1.2941  1.5916
 4186TIP3    H212492   0.434   7.367   3.219  0.7177 -2.1260 -0.8509
 4187TIP3   OH212493   8.220   3.732   2.622 -0.0685 -0.3019  0.2088
 4187TIP3    H112494   8.226   3.797   2.551 -1.4718  0.0611  0.4025
 4187TIP3    H212495   8.157   3.667   2.589 -0.1082 -0.5599  0.7967
 4188TIP3   OH212496   7.206   4.516   4.022 -0.1723  0.1496 -0.2124
 4188TIP3    H112497   7.184   4.424   4.009 -1.0445  0.4006 -0.5047
 4188TIP3    H212498   7.291   4.527   3.979 -1.8345  0.3866 -3.5309
 4189TIP3   OH212499   7.906   3.338   4.144 -0.1213 -0.4686 -0.0828
 4189TIP3    H112500   7.902   3.363   4.236  1.0497 -1.1847  0.1763
 4189TIP3    H212501   7.879   3.246   4.143  0.1451 -0.5436 -0.4178
 4190TIP3   OH212502   0.398   4.150   2.346  0.1876  0.5799  0.4389
 4190TIP3    H112503   0.437   4.082   2.400  0.1313  0.3414  0.1778
 4190TIP3    H212504   0.348   4.103   2.279 -2.2860  0.8761  2.0250
 4191TIP3   OH212505   8.250   4.373   4.673  0.8259 -0.2054  0.1311
 4191TIP3    H112506   8.339   4.401   4.695  0.5614  1.7636 -1.1677
 4191TIP3    H212507   8.250   4.279   4.688  3.5628 -0.4726 -1.3014
 4192TIP3   OH212508   1.555   2.278   0.569  0.6923 -0.2892 -0.5214
 4192TIP3    H112509   1.550   2.186   0.543  1.4525 -0.5097  0.1035
 4192TIP3    H212510   1.483   2.289   0.631  1.1524 -0.6914  0.0870
 4193TIP3   OH212511   1.985   4.639   3.653 -0.7352  0.3939 -0.1790
 4193TIP3    H112512   2.068   4.593   3.663 -0.5455  0.7023 -0.3246
 4193TIP3    H212513   1.946   4.637   3.740 -0.4398  0.5028 -0.0412
 4194TIP3   OH212514   8.152   4.598   0.899 -0.3762  0.4749 -0.3153
 4194TIP3    H112515   8.120   4.593   0.809 -1.2941 -1.2016  0.0837
 4194TIP3    H212516   8.095   4.662   0.942 -0.3335  0.8138 -0.7695
 4195TIP3   OH212517   0.496   5.564   4.044 -0.1636  0.2121 -0.0588
 4195TIP3    H112518   0.414   5.532   4.082  0.6435 -2.2532 -0.2364
 4195TIP3    H212519   0.479   5.569   3.950 -0.5928  1.2838  0.0720
 4196TIP3   OH212520   7.262   4.734   1.688  0.4027  0.4592  0.0028
 4196TIP3    H112521   7.304   4.778   1.614  1.7300 -0.0920  0.4141
 4196TIP3    H212522   7.171   4.720   1.659  1.5505 -2.1966 -2.6714
 4197TIP3   OH212523   0.317   4.042   1.766 -0.2261  0.1875  0.1836
 4197TIP3    H112524   0.399   4.039   1.717 -1.0960  0.6956 -1.3260
 4197TIP3    H212525   0.250   4.019   1.702 -1.2977  0.0117  1.3500
 4198TIP3   OH212526   0.374   4.431   1.065  0.0664 -0.1652 -0.2806
 4198TIP3    H112527   0.352   4.439   1.158 -1.6628  0.3955 -0.7105
 4198TIP3    H212528   0.291   4.407   1.023  0.5855  0.6396 -1.8123
 4199TIP3   OH212529   8.225   6.128   2.784 -0.2056  0.0343  0.1609
 4199TIP3    H112530   8.204   6.198   2.847  0.0916  3.0491 -2.9490
 4199TIP3    H212531   8.306   6.090   2.817 -0.8840  0.4913  2.4429
 4200TIP3   OH212532   0.309   4.984   3.546  0.5224  0.0666  0.2611
 4200TIP3    H112533   0.362   4.953   3.472  1.7674  1.9711  0.3322
 4200TIP3    H212534   0.318   4.915   3.611 -1.4430 -2.1538 -1.7020
 4201TIP3   OH212535   8.085   7.935   3.438  0.8785  0.5318  0.2172
 4201TIP3    H112536   8.053   8.016   3.478 -0.5085  1.2209 -2.1490
 4201TIP3    H212537   8.041   7.866   3.487  0.2401  1.3019  0.7599
 4202TIP3   OH212538   0.917   4.762   1.242 -0.2253 -0.0880 -0.0774
 4202TIP3    H112539   0.987   4.721   1.292 -1.3176 -1.2179  0.5437
 4202TIP3    H212540   0.854   4.692   1.226 -2.2778  1.3764  1.2569
 4203TIP3   OH212541   1.420   3.002   4.379 -0.1238  0.3390 -0.2595
 4203TIP3    H112542   1.352   2.942   4.349 -1.0345  1.3572 -0.2561
 4203TIP3    H212543   1.407   3.082   4.328  0.8583  0.6582 -0.0249
 4204TIP3   OH212544   6.065   1.785   6.073  0.1895 -0.3881 -0.3201
 4204TIP3    H112545   5.987   1.827   6.037 -0.1502 -0.2044  0.6194
 4204TIP3    H212546   6.040   1.693   6.084 -0.7605  0.1340  2.3234
 4205TIP3   OH212547   1.099   5.524   3.206  0.1676  0.0771 -0.5724
 4205TIP3    H112548   1.034   5.459   3.233  0.0312  0.5419  0.2362
 4205TIP3    H212549   1.176   5.472   3.182  0.0416 -0.3880  0.0115
 4206TIP3   OH212550   6.567   4.387   3.260  0.1099 -0.4382  0.0837
 4206TIP3    H112551   6.653   4.429   3.253  1.0559 -2.6131 -1.8480
 4206TIP3    H212552   6.586   4.299   3.292 -1.4737 -0.6527  0.4434
 4207TIP3   OH212553   1.846   5.341   2.243 -0.0531 -0.0937 -0.5396
 4207TIP3    H112554   1.939   5.320   2.237 -0.2616 -1.0866 -0.5048
 4207TIP3    H212555   1.831   5.408   2.177  0.8409  0.6457 -0.0083
 4208TIP3   OH212556   0.716   6.605   3.305 -0.4944  0.1721  0.0113
 4208TIP3    H112557   0.665   6.642   3.377 -2.7165  0.4853 -1.6841
 4208TIP3    H212558   0.790   6.665   3.295 -1.8855  1.9122 -0.0396
 4209TIP3   OH212559   0.699   2.980   2.420 -0.0679  0.2897 -0.4054
 4209TIP3    H112560   0.714   3.003   2.512 -1.1052  0.3713 -0.2506
 4209TIP3    H212561   0.716   2.885   2.416 -1.0126  0.0969  0.0865
 4210TIP3   OH212562   2.004   3.001   3.347 -0.0997  0.0866 -0.2859
 4210TIP3    H112563   1.919   3.034   3.319 -0.2595 -0.3852 -0.3506
 4210TIP3    H212564   2.023   3.048   3.428 -0.8131 -0.4491  0.1884
 4211TIP3   OH212565   7.337   3.002   2.579 -0.6925  0.1500 -0.0155
 4211TIP3    H112566   7.411   2.965   2.531 -0.6773  0.4913 -0.2503
 4211TIP3    H212567   7.270   2.933   2.576 -0.7269  0.2112 -0.5997
 4212TIP3   OH212568   6.310   5.397   2.443  0.4666  0.3100 -0.1863
 4212TIP3    H112569   6.369   5.322   2.429  0.8224  0.5165  0.1902
 4212TIP3    H212570   6.299   5.435   2.356  1.4889  0.7100 -0.1457
 4213TIP3   OH212571   7.330   2.758   3.000  0.2298 -0.7033 -0.4132
 4213TIP3    H112572   7.373   2.837   3.032 -0.3811 -0.2599 -0.6764
 4213TIP3    H212573   7.286   2.721   3.076  0.7102 -0.9181 -0.2392
 4214TIP3   OH212574   2.323   6.418   4.739  0.0007 -0.1732  0.6922
 4214TIP3    H112575   2.411   6.454   4.744 -0.6836  1.5824  0.5503
 4214TIP3    H212576   2.317   6.359   4.813  1.7298 -1.3092 -0.0404
 4215TIP3   OH212577   0.891   5.908   2.885  0.0952 -0.1853  0.2551
 4215TIP3    H112578   0.970   5.912   2.939 -0.0652 -0.3798  0.5092
 4215TIP3    H212579   0.836   5.841   2.928 -0.4385  0.3379  0.4040
 4216TIP3   OH212580   0.082   7.069   2.848 -0.3903 -0.1043  0.0593
 4216TIP3    H112581  -0.013   7.062   2.846 -0.5165  0.8077  1.6758
 4216TIP3    H212582   0.113   6.979   2.844 -1.4097 -0.5835  2.4151
 4217TIP3   OH212583   8.159   4.991   2.824  0.1470 -0.6206 -0.4190
 4217TIP3    H112584   8.134   5.052   2.754  0.2664 -0.7673 -0.5910
 4217TIP3    H212585   8.214   4.925   2.780  2.3445  0.6899  0.3038
 4218TIP3   OH212586   0.358   6.021   2.812 -0.2058  0.0490  0.3235
 4218TIP3    H112587   0.303   5.990   2.885 -1.7186 -0.2059 -0.9020
 4218TIP3    H212588   0.335   6.113   2.803 -0.3948 -0.0419 -0.1443
 4219TIP3   OH212589   8.030   4.357   3.948  0.5434  0.0564 -0.3291
 4219TIP3    H112590   8.003   4.271   3.914  0.0211  0.1902 -0.2559
 4219TIP3    H212591   8.049   4.340   4.040  0.1308  0.0809 -0.2365
 4220TIP3   OH212592   5.238   5.547   3.356 -0.2621 -0.0892  0.0890
 4220TIP3    H112593   5.198   5.460   3.351 -1.1289  0.2326  1.1409
 4220TIP3    H212594   5.257   5.570   3.266  0.3889 -1.5637 -0.1645
 4221TIP3   OH212595   0.016   6.016   3.826  0.3929 -0.0277 -0.2291
 4221TIP3    H112596   0.108   6.014   3.853  0.6338 -0.0660 -1.0623
 4221TIP3    H212597  -0.005   5.925   3.806  0.1220 -0.0458  0.1316
 4222TIP3   OH212598   8.455   6.356   2.960 -0.0457  0.1365  0.6355
 4222TIP3    H112599   8.363   6.370   2.982  0.3356  1.6047  1.3513
 4222TIP3    H212600   8.465   6.261   2.956 -1.3684 -0.0432  1.5464
 4223TIP3   OH212601   0.914   5.620   2.056  0.0653  0.9014 -0.2770
 4223TIP3    H112602   0.912   5.526   2.073 -1.0333  1.0767  0.5632
 4223TIP3    H212603   1.004   5.636   2.025  0.7417 -0.1619  1.0578
 4224TIP3   OH212604   1.164   5.659   1.956  0.1387 -0.5610  0.1278
 4224TIP3    H112605   1.222   5.616   2.019  0.1390  0.5216  0.8693
 4224TIP3    H212606   1.206   5.645   1.871  0.2870 -1.7844  0.3929
 4225TIP3   OH212607   1.023   4.074   3.498  0.4391  0.6079  0.4672
 4225TIP3    H112608   1.081   4.070   3.422 -0.2024  0.9645 -0.0423
 4225TIP3    H212609   1.083   4.077   3.573  1.0767  0.6183 -0.0325
 4226TIP3   OH212610   7.810   4.858   2.613  0.1481 -0.4680 -0.0218
 4226TIP3    H112611   7.883   4.888   2.559 -1.8903  1.0044 -2.0739
 4226TIP3    H212612   7.798   4.766   2.590  1.3676 -0.7378  0.3852
 4227TIP3   OH212613   1.185   6.207   5.661  0.3398  0.1938 -0.4902
 4227TIP3    H112614   1.128   6.230   5.734  0.1087 -1.5761 -0.0996
 4227TIP3    H212615   1.263   6.169   5.702  0.3022 -0.6074 -1.1426
 4228TIP3   OH212616   1.874   4.989   3.939  0.4471  0.4396 -0.1650
 4228TIP3    H112617   1.791   5.029   3.914 -0.3563 -0.6935  0.6320
 4228TIP3    H212618   1.928   4.993   3.860  0.0022  2.0942 -0.3973
 4229TIP3   OH212619   1.882   4.772   1.874 -0.0469 -0.5866 -0.2120
 4229TIP3    H112620   1.898   4.678   1.867 -1.3249 -0.7912 -0.6091
 4229TIP3    H212621   1.816   4.780   1.943 -1.1975 -0.1400 -1.3321
 4230TIP3   OH212622   5.499   1.190   6.852 -0.4113 -0.4008 -0.2032
 4230TIP3    H112623   5.547   1.270   6.835 -1.5996  1.0533  2.8284
 4230TIP3    H212624   5.421   1.196   6.798 -0.6221  0.6345  0.2089
 4231TIP3   OH212625   7.958   4.733   2.945 -0.2440  0.0622 -0.0965
 4231TIP3    H112626   7.952   4.677   3.023 -1.9886  0.2121 -0.1085
 4231TIP3    H212627   8.021   4.801   2.969 -1.7762  0.8825  1.6833
 4232TIP3   OH212628   1.116   4.634   1.358 -0.2008  0.1885 -0.2900
 4232TIP3    H112629   1.193   4.650   1.304  0.6923  0.3906  1.0343
 4232TIP3    H212630   1.134   4.552   1.403 -0.2413  0.8505  0.9360
 4233TIP3   OH212631  -0.014   6.293   1.016  0.0455  0.2843  0.5727
 4233TIP3    H112632  -0.032   6.241   0.938 -0.7009  1.6429 -0.1832
 4233TIP3    H212633   0.077   6.320   1.006  0.1275 -0.0369  0.4571
 4234TIP3   OH212634   6.931   0.126   6.885 -0.1913 -0.3990  0.1962
 4234TIP3    H112635   7.013   0.112   6.838 -1.0676  2.0480 -2.2064
 4234TIP3    H212636   6.936   0.216   6.916 -2.0451 -0.1889 -0.0801
 4235TIP3   OH212637   0.675   5.418   2.243 -0.7045  0.6310  0.6566
 4235TIP3    H112638   0.695   5.423   2.336  0.4503  1.4903  0.3778
 4235TIP3    H212639   0.640   5.505   2.221  0.1827  0.8478  0.0443
 4236TIP3   OH212640   1.124   5.445   1.710 -0.0892 -0.4506 -0.4417
 4236TIP3    H112641   1.153   5.534   1.728 -2.1699  0.0067  0.7173
 4236TIP3    H212642   1.038   5.455   1.670 -0.9428 -1.9715  0.9478
 4237TIP3   OH212643   1.349   5.400   3.139 -0.2041 -0.0527 -0.2426
 4237TIP3    H112644   1.386   5.438   3.060 -0.6109  0.8336 -0.0223
 4237TIP3    H212645   1.334   5.308   3.118 -3.3396  0.8664 -2.3067
 4238TIP3   OH212646   7.020   6.356   1.484  0.6450  0.5279  0.6778
 4238TIP3    H112647   6.996   6.442   1.520 -1.1312  0.4127 -0.1803
 4238TIP3    H212648   7.053   6.307   1.559  1.0611  1.7458  1.3018
 4239TIP3   OH212649   7.871   3.750   1.919  0.4089 -0.1608 -0.1664
 4239TIP3    H112650   7.942   3.692   1.947 -0.4560 -0.0762  2.3178
 4239TIP3    H212651   7.796   3.691   1.907  0.0367  0.1718  0.4810
 4240TIP3   OH212652   0.057   2.836   3.812 -0.1219  0.8070 -0.0086
 4240TIP3    H112653  -0.007   2.789   3.865  0.5869  0.7836  0.8201
 4240TIP3    H212654   0.110   2.885   3.875 -0.1886  1.9149 -0.7830
 4241TIP3   OH212655   7.861   5.421   1.088 -0.0824  0.2244  0.3049
 4241TIP3    H112656   7.933   5.442   1.148  2.2296  2.5921 -3.1289
 4241TIP3    H212657   7.790   5.479   1.114  1.5611  2.6083 -0.3929
 4242TIP3   OH212658   1.563   3.764   2.421 -0.3850 -0.1676  0.0774
 4242TIP3    H112659   1.590   3.693   2.363  2.6101  0.8429  0.1363
 4242TIP3    H212660   1.594   3.738   2.508 -1.3476  0.1450  0.5245
 4243TIP3   OH212661   0.167   3.812   0.265  1.0459 -0.6335  0.4285
 4243TIP3    H112662   0.181   3.831   0.172  0.2332 -1.2707  0.1695
 4243TIP3    H212663   0.194   3.891   0.310  1.3857 -0.2962 -0.3603
 4244TIP3   OH212664   0.267   5.544   0.818 -0.3070  0.3435  0.2306
 4244TIP3    H112665   0.346   5.598   0.822 -1.0470  1.4861 -0.3158
 4244TIP3    H212666   0.218   5.569   0.896  0.5605 -1.4879  1.4036
 4245TIP3   OH212667   1.960   5.526   3.074 -0.0036  0.0052 -0.4191
 4245TIP3    H112668   1.873   5.513   3.113  0.1494 -0.8934 -0.3560
 4245TIP3    H212669   1.989   5.437   3.052  0.4646  0.3958 -1.3827
 4246TIP3   OH212670   7.068   4.912   1.090  0.0083 -0.4168 -0.2016
 4246TIP3    H112671   7.112   4.961   1.159 -0.8218 -0.2590  0.2171
 4246TIP3    H212672   6.994   4.870   1.133  0.2465 -1.3929 -0.7287
 4247TIP3   OH212673   1.461   4.454   1.280  0.2551 -0.3171 -0.2791
 4247TIP3    H112674   1.494   4.370   1.311  2.4732  0.2366 -1.0618
 4247TIP3    H212675   1.475   4.514   1.354 -2.1883 -0.8057  0.6206
 4248TIP3   OH212676   2.165   5.673   2.469  0.5603  0.0921 -0.4198
 4248TIP3    H112677   2.089   5.635   2.425  1.0496 -1.4454  0.0320
 4248TIP3    H212678   2.143   5.669   2.562  0.7805  0.5674 -0.3477
 4249TIP3   OH212679   0.632   4.831   4.234  0.0406  0.1374 -0.2579
 4249TIP3    H112680   0.640   4.908   4.178 -0.1346 -1.6830 -2.9264
 4249TIP3    H212681   0.714   4.783   4.220  0.4315  0.1608  1.8777
 4250TIP3   OH212682   8.089   6.271   1.072 -0.2107 -0.6480  0.0834
 4250TIP3    H112683   8.058   6.301   1.158 -1.0591  0.7980 -0.7028
 4250TIP3    H212684   8.044   6.188   1.057  0.4785 -1.2654  1.3320
 4251TIP3   OH212685   7.891   3.318   2.339  0.1930 -0.0338 -0.2604
 4251TIP3    H112686   7.835   3.388   2.305 -0.6979 -1.7709 -2.4658
 4251TIP3    H212687   7.958   3.306   2.272  0.6942 -0.8841  0.3872
 4252TIP3   OH212688   7.053   4.700   4.551 -0.2578 -0.0562  0.5830
 4252TIP3    H112689   7.012   4.783   4.526 -1.0704 -1.0770 -1.6271
 4252TIP3    H212690   7.013   4.678   4.635 -1.3381  0.9400  0.3498
 4253TIP3   OH212691   8.374   5.424   4.580  0.4065 -0.2323 -0.3575
 4253TIP3    H112692   8.366   5.400   4.672 -0.2309  1.2557 -0.0139
 4253TIP3    H212693   8.428   5.355   4.542  1.7878 -0.1664  1.4148
 4254TIP3   OH212694   8.334   5.692   5.153  0.6436  0.1941  0.0110
 4254TIP3    H112695   8.392   5.667   5.081  1.1733  1.5654 -0.0580
 4254TIP3    H212696   8.264   5.626   5.153 -0.1525  1.0007 -2.6814
 4255TIP3   OH212697   7.987   3.706   5.325  0.3651 -0.5906 -0.2963
 4255TIP3    H112698   8.011   3.769   5.393  0.6356 -0.9163 -0.0853
 4255TIP3    H212699   7.982   3.622   5.371  4.4974 -1.5627 -1.3539
 4256TIP3   OH212700   8.363   4.613   5.411 -0.3044  0.5282 -0.3938
 4256TIP3    H112701   8.355   4.518   5.418  1.9595  0.3064 -0.1699
 4256TIP3    H212702   8.332   4.647   5.494  0.1582 -0.1249  0.0489
 4257TIP3   OH212703   1.343   4.286   2.462  0.2491  0.6579  0.3836
 4257TIP3    H112704   1.330   4.192   2.478  0.0163  0.6423  0.1142
 4257TIP3    H212705   1.258   4.325   2.482 -0.0664  0.6337 -0.8479
 4258TIP3   OH212706   0.021   5.273   4.804 -0.0072  0.6010 -0.4827
 4258TIP3    H112707  -0.010   5.247   4.890 -0.9641  1.1436 -0.6592
 4258TIP3    H212708   0.108   5.234   4.797 -1.2365 -2.2517 -0.5795
 4259TIP3   OH212709   7.591   5.090   3.437 -0.7322  0.2086 -0.3932
 4259TIP3    H112710   7.500   5.120   3.439 -0.6609  0.5564 -1.8701
 4259TIP3    H212711   7.641   5.166   3.407  0.2841  0.5527  2.0442
 4260TIP3   OH212712   1.430   6.189   4.483 -0.1631  0.4506  0.1256
 4260TIP3    H112713   1.452   6.243   4.559 -2.1696  1.1190  0.2673
 4260TIP3    H212714   1.360   6.237   4.439  0.1004 -0.5683 -1.4325
 4261TIP3   OH212715   8.344   5.730   2.074 -0.0203  0.1748 -0.4207
 4261TIP3    H112716   8.350   5.817   2.113 -0.9021  0.2998 -0.5519
 4261TIP3    H212717   8.433   5.695   2.078 -0.1796  0.0205  2.0805
 4262TIP3   OH212718   1.119   5.902   3.729  0.1348 -0.4162 -0.6188
 4262TIP3    H112719   1.139   5.809   3.720 -1.8180 -1.1286  1.8572
 4262TIP3    H212720   1.197   5.940   3.770 -0.7399 -1.8198  2.4476
 4263TIP3   OH212721   7.157   7.486   4.836 -0.2390 -0.2797 -0.3129
 4263TIP3    H112722   7.145   7.559   4.775  0.0716  1.2337  1.3858
 4263TIP3    H212723   7.249   7.488   4.859 -0.5515 -0.1962  0.9750
 4264TIP3   OH212724   7.392   3.395   4.103 -0.2488 -0.0737  0.3295
 4264TIP3    H112725   7.313   3.343   4.092 -0.3667 -0.3580  2.3345
 4264TIP3    H212726   7.453   3.361   4.038 -0.4542 -2.4565  1.3386
 4265TIP3   OH212727   1.478   4.179   2.895  0.6938 -0.0326  0.0891
 4265TIP3    H112728   1.399   4.232   2.882  0.6036 -0.3046 -0.4625
 4265TIP3    H212729   1.451   4.090   2.875  1.1757 -0.1045 -0.2522
 4266TIP3   OH212730   2.729   6.053   2.671  0.0077  0.4285  0.3562
 4266TIP3    H112731   2.670   6.127   2.657 -1.0743 -0.9367 -2.6969
 4266TIP3    H212732   2.813   6.082   2.635 -0.2583  0.4102 -0.2920
 4267TIP3   OH212733   0.851   5.821   4.252 -0.2700  0.2532 -0.6889
 4267TIP3    H112734   0.881   5.821   4.161 -0.5112 -0.5121 -0.7781
 4267TIP3    H212735   0.760   5.852   4.246 -0.3163  0.1115 -0.7190
 4268TIP3   OH212736   1.095   4.391   3.058 -0.3561  0.2098 -0.4191
 4268TIP3    H112737   1.179   4.434   3.077 -0.9088  0.5935  1.1743
 4268TIP3    H212738   1.113   4.340   2.979  1.5867 -0.2348  0.2666
 4269TIP3   OH212739   7.861   3.337   3.472  0.3168  0.1261 -0.1782
 4269TIP3    H112740   7.898   3.266   3.525  0.3985 -1.0020 -1.7330
 4269TIP3    H212741   7.859   3.412   3.532 -0.0864 -1.2528  1.5883
 4270TIP3   OH212742   2.276   5.480   6.040 -0.1041  0.2827 -0.2397
 4270TIP3    H112743   2.304   5.496   6.131 -1.1676  0.7606  0.0049
 4270TIP3    H212744   2.255   5.566   6.006 -0.3641  0.0242 -0.7272
 4271TIP3   OH212745   1.918   3.224   2.819  0.4748 -0.1550 -0.1096
 4271TIP3    H112746   1.855   3.200   2.752 -0.6601  0.2029  0.8183
 4271TIP3    H212747   1.905   3.159   2.888  1.9146 -0.7720 -0.3928
 4272TIP3   OH212748   1.370   3.236   3.237 -0.5106  0.1446  0.1916
 4272TIP3    H112749   1.455   3.281   3.246 -0.1765 -0.1118 -1.5482
 4272TIP3    H212750   1.311   3.303   3.203 -0.4077 -0.3050 -0.8867
 4273TIP3   OH212751   0.726   5.822   0.752 -0.4450  0.2391 -0.2042
 4273TIP3    H112752   0.812   5.790   0.777 -0.4022  0.5124  0.0016
 4273TIP3    H212753   0.737   5.857   0.664 -0.5660 -0.6095 -0.5566
 4274TIP3   OH212754   0.597   5.157   2.547  0.2877  0.0404  0.6847
 4274TIP3    H112755   0.602   5.192   2.636  0.7857  0.3251  0.5503
 4274TIP3    H212756   0.548   5.075   2.556  0.3258  0.0731  1.2172
 4275TIP3   OH212757   2.660   5.257   2.343  0.1876 -0.4742  0.5545
 4275TIP3    H112758   2.722   5.328   2.326  0.7422 -1.1805 -0.3807
 4275TIP3    H212759   2.678   5.231   2.433  1.9031 -1.2951  0.0027
 4276TIP3   OH212760   1.845   2.578   3.596 -0.4341  0.0201 -0.8402
 4276TIP3    H112761   1.850   2.616   3.509 -1.2222  2.4138  0.1195
 4276TIP3    H212762   1.915   2.620   3.645 -1.3245  0.2549  0.2504
 4277TIP3   OH212763   2.022   4.425   3.198  0.7262 -0.4800 -0.2326
 4277TIP3    H112764   2.086   4.455   3.262  0.2434  1.0508 -0.4504
 4277TIP3    H212765   1.956   4.494   3.195 -0.1182 -1.3067 -1.1651
 4278TIP3   OH212766   0.404   2.764   2.431  0.4731 -0.4267 -0.3177
 4278TIP3    H112767   0.419   2.768   2.525 -0.0051  0.6199 -0.2787
 4278TIP3    H212768   0.491   2.779   2.392  0.0197  3.1889 -0.0655
 4279TIP3   OH212769   8.378   5.708   4.517 -0.6864  0.8634 -0.5300
 4279TIP3    H112770   8.416   5.620   4.522  0.5668  1.4343  0.1241
 4279TIP3    H212771   8.442   5.759   4.467 -1.2981  1.4717 -0.7015
 4280TIP3   OH212772   2.374   5.273   2.329  0.8423  0.0912  0.1901
 4280TIP3    H112773   2.371   5.263   2.424 -0.4009 -1.2502  0.0326
 4280TIP3    H212774   2.468   5.277   2.308  1.0983  1.8812  1.5952
 4281TIP3   OH212775   1.331   5.623   2.908  0.8185 -0.2163  0.1516
 4281TIP3    H112776   1.389   5.586   2.842  0.0047 -0.7846 -0.2658
 4281TIP3    H212777   1.271   5.679   2.859  1.9258  1.5246  0.7674
 4282TIP3   OH212778   8.127   3.799   4.878 -0.3152  0.3503 -0.1085
 4282TIP3    H112779   8.067   3.813   4.952  0.4014  1.1565  0.3301
 4282TIP3    H212780   8.078   3.829   4.802 -1.2951 -1.0573 -0.0584
 4283TIP3   OH212781   2.602   5.010   1.328 -0.4664 -0.0384 -0.1752
 4283TIP3    H112782   2.536   5.056   1.277 -0.0007 -0.1441 -0.8770
 4283TIP3    H212783   2.613   4.927   1.283 -1.4026 -0.9159  1.1597
 4284TIP3   OH212784   2.567   5.567   2.405 -0.1314  0.3317  0.5844
 4284TIP3    H112785   2.545   5.525   2.488  0.2267 -0.4172  0.3036
 4284TIP3    H212786   2.640   5.626   2.426 -0.0290  0.1284  0.7970
 4285TIP3   OH212787   0.991   4.789   0.986 -0.1160  0.5940  0.4478
 4285TIP3    H112788   1.068   4.735   0.968  0.5838  1.2549  1.4129
 4285TIP3    H212789   0.965   4.765   1.075 -1.4302 -0.0929 -0.1076
 4286TIP3   OH212790   8.484   4.683   1.184  0.6420  0.0735  0.2424
 4286TIP3    H112791   8.487   4.670   1.089  3.0615  0.3332  0.2580
 4286TIP3    H212792   8.499   4.777   1.195 -0.0564  0.1120  0.8697
 4287TIP3   OH212793   2.388   6.362   0.395  0.2549  0.1954 -0.1978
 4287TIP3    H112794   2.455   6.306   0.355  1.6795 -0.1071  2.5317
 4287TIP3    H212795   2.437   6.433   0.436 -0.9493 -0.7953  3.0618
 4288TIP3   OH212796   0.448   4.363   1.932  0.1061 -0.4833 -0.2084
 4288TIP3    H112797   0.364   4.319   1.941  0.2219 -1.0442 -1.6151
 4288TIP3    H212798   0.429   4.456   1.947 -1.1603 -0.3368 -2.3802
 4289TIP3   OH212799   0.772   3.919   2.892 -0.0224  0.4759 -0.2275
 4289TIP3    H112800   0.865   3.928   2.912  0.0666  0.5015 -0.6592
 4289TIP3    H212801   0.730   3.988   2.943  0.0528 -0.3716  1.0011
 4290TIP3   OH212802   1.549   3.340   2.108  0.1194 -0.3801 -0.3840
 4290TIP3    H112803   1.472   3.335   2.051 -0.4156 -0.9085  0.3831
 4290TIP3    H212804   1.570   3.249   2.129  0.2269 -0.1787  0.3877
 4291TIP3   OH212805   1.846   4.524   2.154  0.2323  0.4253  0.1562
 4291TIP3    H112806   1.875   4.602   2.201 -1.0718  0.2553  1.2668
 4291TIP3    H212807   1.784   4.482   2.213  1.8273 -2.1221  0.0928
 4292TIP3   OH212808   7.982   3.516   3.326 -0.1656  0.0699 -0.3821
 4292TIP3    H112809   7.939   3.442   3.369 -2.0932  0.6834 -1.1936
 4292TIP3    H212810   8.060   3.477   3.285  0.1828 -1.0237  1.2858
 4293TIP3   OH212811   0.810   6.312   1.671  0.2010 -0.1513 -0.3781
 4293TIP3    H112812   0.833   6.344   1.584  0.0053 -0.9251 -0.7225
 4293TIP3    H212813   0.798   6.218   1.659 -2.8175  0.1659 -0.1579
 4294TIP3   OH212814   0.240   4.491   3.944 -0.6266  0.1948 -0.2582
 4294TIP3    H112815   0.203   4.543   4.015 -0.5379  0.1413 -0.1717
 4294TIP3    H212816   0.236   4.401   3.976  2.9288  0.5165  1.2747
 4295TIP3   OH212817   0.491   4.881   4.479 -0.3227 -0.1159  0.5173
 4295TIP3    H112818   0.539   4.830   4.413 -0.8422 -0.5351  0.4576
 4295TIP3    H212819   0.559   4.918   4.535  0.1073 -0.0573 -0.0364
 4296TIP3   OH212820   2.737   6.994   2.131  0.0091 -0.2492 -0.5650
 4296TIP3    H112821   2.653   7.033   2.154  0.9432  0.0045  2.5965
 4296TIP3    H212822   2.785   6.988   2.213  2.7891 -1.1657 -2.1615
 4297TIP3   OH212823   2.653   6.427   1.522  0.2465  0.5539 -0.1024
 4297TIP3    H112824   2.691   6.343   1.549 -2.0310 -0.8343 -0.9957
 4297TIP3    H212825   2.699   6.492   1.574  1.4926 -1.3260  1.2330
 4298TIP3   OH212826   1.571   5.251   2.256  0.1926  0.2755 -0.1041
 4298TIP3    H112827   1.656   5.277   2.288 -0.0763  2.3141 -1.0082
 4298TIP3    H212828   1.508   5.288   2.318 -0.0571 -1.3895  0.6786
 4299TIP3   OH212829   6.586   0.516   2.261 -0.2242 -0.0618  0.5683
 4299TIP3    H112830   6.604   0.609   2.265 -0.1623 -0.0115 -0.6762
 4299TIP3    H212831   6.556   0.501   2.171 -1.5671 -1.0015  1.1553
 4300TIP3   OH212832   3.480   5.375   2.174  0.5234  0.1611  0.2018
 4300TIP3    H112833   3.490   5.402   2.265 -1.5408  1.1588  0.1640
 4300TIP3    H212834   3.386   5.362   2.163  0.7266  0.2280 -1.8321
 4301TIP3   OH212835   2.381   6.541   3.589  0.0773  0.1405  0.3503
 4301TIP3    H112836   2.476   6.540   3.601  0.0862 -1.7207  0.2706
 4301TIP3    H212837   2.368   6.534   3.494 -0.1337  1.2673  0.2927
 4302TIP3   OH212838   8.362   5.319   3.274 -0.2668 -0.0970 -0.2809
 4302TIP3    H112839   8.321   5.335   3.189  0.1833  2.0865 -0.1208
 4302TIP3    H212840   8.456   5.335   3.259 -0.0477 -0.6924  0.4036
 4303TIP3   OH212841   0.558   4.445   0.702 -0.3224 -0.0843  0.7021
 4303TIP3    H112842   0.609   4.367   0.680  1.4408  0.8325  1.3772
 4303TIP3    H212843   0.532   4.481   0.617  2.4919  0.8948  0.1968
 4304TIP3   OH212844   2.191   6.301   3.098  0.5380  0.5494  0.7247
 4304TIP3    H112845   2.135   6.344   3.163 -1.0743  0.2515 -0.4433
 4304TIP3    H212846   2.163   6.210   3.098  2.2667 -0.0028  1.4127
 4305TIP3   OH212847   1.809   4.576   3.227 -0.5354 -1.1062 -0.1231
 4305TIP3    H112848   1.799   4.637   3.300  1.5297 -0.2808 -0.5101
 4305TIP3    H212849   1.723   4.573   3.186 -0.5904  1.7436 -0.2572
 4306TIP3   OH212850   0.881   2.561   2.980 -0.2341 -0.0199  0.0709
 4306TIP3    H112851   0.973   2.565   3.005 -0.0096 -0.3481 -0.6893
 4306TIP3    H212852   0.875   2.485   2.922 -0.9691  0.0537  0.0418
 4307TIP3   OH212853   3.261   5.575   1.011 -0.1012  0.1874 -0.6835
 4307TIP3    H112854   3.273   5.643   0.945 -1.0184  1.2374  0.2155
 4307TIP3    H212855   3.331   5.592   1.075 -0.3358  0.2869 -0.4553
 4308TIP3   OH212856   8.433   6.230   2.210  0.4032 -0.3063  0.1307
 4308TIP3    H112857   8.477   6.300   2.259  0.8067  0.5805 -1.4475
 4308TIP3    H212858   8.341   6.237   2.236  0.5277  0.4799  0.3787
 4309TIP3   OH212859   1.403   6.878   1.766 -0.8939 -0.2602  0.4935
 4309TIP3    H112860   1.371   6.792   1.740  2.5381 -2.0087  1.8366
 4309TIP3    H212861   1.471   6.899   1.702 -0.0143  0.3269  1.5944
 4310TIP3   OH212862   2.468   5.708   3.499 -0.2692 -0.9802 -0.1073
 4310TIP3    H112863   2.474   5.638   3.434  3.3379 -1.8028  0.9791
 4310TIP3    H212864   2.434   5.665   3.578 -0.1900 -1.0402 -0.1053
 4311TIP3   OH212865   0.757   3.708   1.289  0.0946  0.0446 -0.2232
 4311TIP3    H112866   0.713   3.625   1.304  0.5248 -0.1847 -0.2273
 4311TIP3    H212867   0.828   3.687   1.229  2.0802 -0.1737  2.1145
 4312TIP3   OH212868   1.797   6.271   0.843 -0.4629  0.3401  0.3087
 4312TIP3    H112869   1.770   6.182   0.868 -1.1098  0.4193 -0.0761
 4312TIP3    H212870   1.742   6.328   0.896  0.9324  0.5222  1.5764
 4313TIP3   OH212871   3.580   6.883   2.157  0.2236  0.0735 -0.1273
 4313TIP3    H112872   3.549   6.970   2.181  0.8977  0.8254 -1.8783
 4313TIP3    H212873   3.675   6.889   2.163  0.2642 -0.6013 -0.0564
 4314TIP3   OH212874   0.868   4.597   1.763 -0.0203  0.4001 -0.0110
 4314TIP3    H112875   0.880   4.690   1.779  0.1139  0.4455 -0.3644
 4314TIP3    H212876   0.828   4.593   1.676 -0.7972  0.1685  0.3438
 4315TIP3   OH212877   2.353   6.472   2.076  0.2338  0.1227 -0.1033
 4315TIP3    H112878   2.267   6.512   2.071  0.0843 -0.1242  0.5846
 4315TIP3    H212879   2.346   6.393   2.023 -0.8590 -1.5417  2.4774
 4316TIP3   OH212880   1.564   7.487   2.197 -0.1874 -0.3029 -0.4743
 4316TIP3    H112881   1.569   7.437   2.278 -0.9416  0.1060 -0.1745
 4316TIP3    H212882   1.528   7.571   2.222  0.5264  0.1958 -1.0732
 4317TIP3   OH212883   5.250   7.795   6.213  0.4311  0.4900  0.3453
 4317TIP3    H112884   5.158   7.803   6.237  0.1567 -0.5252 -0.3170
 4317TIP3    H212885   5.254   7.833   6.125  0.8040  1.2437  0.6826
 4318TIP3   OH212886   4.848   5.798   3.118 -0.0222  0.0866  0.0589
 4318TIP3    H112887   4.851   5.704   3.100  0.2488 -0.1663  1.3323
 4318TIP3    H212888   4.934   5.819   3.153  0.3140  1.0631 -1.3491
 4319TIP3   OH212889   2.233   3.339   4.741 -0.0691 -0.0594 -0.0400
 4319TIP3    H112890   2.142   3.352   4.712 -0.1975  0.5704  0.6474
 4319TIP3    H212891   2.279   3.417   4.709  0.2067 -0.3197 -0.2790
 4320TIP3   OH212892   2.664   5.792   0.950  0.2035  0.0709 -0.1281
 4320TIP3    H112893   2.627   5.877   0.973  0.7061  1.2968 -3.4166
 4320TIP3    H212894   2.600   5.753   0.890 -0.3375 -2.2107  1.8796
 4321TIP3   OH212895   3.280   6.488   0.471 -0.7737  0.2069 -0.2940
 4321TIP3    H112896   3.266   6.567   0.524 -0.2168  2.0194 -2.7713
 4321TIP3    H212897   3.197   6.440   0.478 -1.7965  1.9271 -0.2290
 4322TIP3   OH212898   6.293   1.287   0.577 -0.1126 -0.0009 -0.2149
 4322TIP3    H112899   6.331   1.226   0.640  0.3295  1.7039  1.1884
 4322TIP3    H212900   6.217   1.323   0.622 -1.4963 -0.9008 -1.7572
 4323TIP3   OH212901   4.787   0.244   0.742 -0.1589 -0.5261 -0.6112
 4323TIP3    H112902   4.742   0.315   0.697 -1.3813 -0.7435  0.2483
 4323TIP3    H212903   4.870   0.283   0.770 -0.5074  0.3585 -0.7869
 4324TIP3   OH212904   1.957   6.823   5.064  0.4110  0.1965  0.1411
 4324TIP3    H112905   1.979   6.895   5.005 -1.6724  1.4810  0.9160
 4324TIP3    H212906   1.890   6.773   5.017 -0.4108  0.5575  0.9212
 4325TIP3   OH212907   3.740   7.364   1.802 -0.2336 -0.0173  0.3921
 4325TIP3    H112908   3.662   7.348   1.855  0.1013 -0.1476  0.8491
 4325TIP3    H212909   3.812   7.327   1.853  0.2148  0.6992  0.2952
 4326TIP3   OH212910   1.678   6.196   1.813  0.0730 -0.2939 -0.7347
 4326TIP3    H112911   1.767   6.207   1.780  0.0859  0.8730 -0.3310
 4326TIP3    H212912   1.642   6.124   1.761  0.5486  0.6068 -2.3392
 4327TIP3   OH212913   2.148   3.225   3.030  0.2038 -0.4917  0.0462
 4327TIP3    H112914   2.062   3.235   2.988  0.0649 -1.5064  0.0685
 4327TIP3    H212915   2.163   3.130   3.031  0.9598 -0.3698  0.7767
 4328TIP3   OH212916   1.948   3.228   1.536  0.1765  0.2984 -0.3973
 4328TIP3    H112917   1.933   3.134   1.547  0.1266  0.3565  0.0421
 4328TIP3    H212918   1.969   3.260   1.624 -1.6188  1.0181 -0.1908
 4329TIP3   OH212919   1.222   5.807   2.735  0.5061  0.3419 -0.1252
 4329TIP3    H112920   1.289   5.844   2.678 -0.4396  1.1896 -0.6882
 4329TIP3    H212921   1.179   5.740   2.682  1.0334 -0.3352  0.2993
 4330TIP3   OH212922   2.644   3.243   1.094  0.1424 -0.2891  0.0168
 4330TIP3    H112923   2.715   3.181   1.112  0.1532 -0.8745 -1.9655
 4330TIP3    H212924   2.566   3.189   1.088  0.1083 -0.0885 -1.4513
 4331TIP3   OH212925   1.993   4.025   2.594 -0.1757 -0.0029 -0.0721
 4331TIP3    H112926   1.970   3.999   2.505 -2.7629 -0.2749  0.6196
 4331TIP3    H212927   2.017   3.943   2.637  0.0345 -0.0249 -0.2308
 4332TIP3   OH212928   1.526   3.860   1.694 -0.0833 -0.2684  0.3410
 4332TIP3    H112929   1.491   3.856   1.605  3.0171  1.7438 -1.0780
 4332TIP3    H212930   1.449   3.867   1.751 -2.1214 -1.7520 -2.1399
 4333TIP3   OH212931   1.242   6.662   1.658 -0.4525  0.4904  0.0466
 4333TIP3    H112932   1.274   6.589   1.606 -1.9632 -0.4803  0.4551
 4333TIP3    H212933   1.155   6.681   1.624 -0.9273  0.7167  1.3217
 4334TIP3   OH212934   0.875   5.341   3.175  0.1209  0.1774  0.5371
 4334TIP3    H112935   0.781   5.337   3.192  0.2538  0.2231  1.2971
 4334TIP3    H212936   0.881   5.369   3.084 -0.6338 -2.1176 -0.2649
 4335TIP3   OH212937   1.259   7.716   0.423  0.6152 -0.3671 -0.3799
 4335TIP3    H112938   1.304   7.646   0.376 -0.6687 -0.3457 -1.6882
 4335TIP3    H212939   1.255   7.789   0.360 -1.7789 -0.5955 -0.5507
 4336TIP3   OH212940   2.654   5.285   3.413 -0.2812  0.1824 -0.7523
 4336TIP3    H112941   2.653   5.269   3.508  1.1954  1.6921 -0.4612
 4336TIP3    H212942   2.585   5.350   3.399 -0.7001 -0.2611 -0.7593
 4337TIP3   OH212943   2.296   4.054   1.793  0.1480  0.2110  0.5228
 4337TIP3    H112944   2.316   4.047   1.886 -0.6411 -1.4737  0.5868
 4337TIP3    H212945   2.377   4.029   1.748 -0.2119 -1.4427  0.7704
 4338TIP3   OH212946   7.928   5.763   3.928  0.4026  0.5564 -0.3842
 4338TIP3    H112947   7.915   5.808   4.012  0.0759 -1.7082  0.8085
 4338TIP3    H212948   8.014   5.722   3.936  0.4997  0.5797 -1.2797
 4339TIP3   OH212949   3.437   5.832   0.140 -0.5686  0.1641 -0.1186
 4339TIP3    H112950   3.431   5.825   0.045 -1.3410  1.0106 -0.1301
 4339TIP3    H212951   3.527   5.860   0.156 -0.6924  0.8641 -0.6434
 4340TIP3   OH212952   1.139   6.083   2.799  0.4714 -0.1678 -0.1739
 4340TIP3    H112953   1.206   6.019   2.826  0.9032  0.5568  0.4939
 4340TIP3    H212954   1.077   6.031   2.748  1.3572 -0.9272 -0.5163
 4341TIP3   OH212955   0.929   3.538   3.195 -0.2913  0.2295  0.3318
 4341TIP3    H112956   0.915   3.561   3.104 -0.2022 -0.6859  0.0765
 4341TIP3    H212957   0.841   3.524   3.231 -0.2854 -0.5190  0.0767
 4342TIP3   OH212958   3.322   6.151   0.234  0.3806  0.5153 -0.1727
 4342TIP3    H112959   3.247   6.132   0.290 -0.5160  0.0956 -1.5033
 4342TIP3    H212960   3.362   6.065   0.218  0.4969  0.6098 -0.3836
 4343TIP3   OH212961   3.255   7.769   3.029 -0.4245  0.2168  0.0014
 4343TIP3    H112962   3.297   7.851   3.001  0.7171  0.0773  1.2409
 4343TIP3    H212963   3.327   7.715   3.060 -1.4798 -0.1193  1.9737
 4344TIP3   OH212964   2.632   4.608   2.198  0.2899  0.3749 -0.2186
 4344TIP3    H112965   2.579   4.590   2.121 -0.2072  0.0551  0.2000
 4344TIP3    H212966   2.667   4.523   2.224  0.3030  0.4539  0.0224
 4345TIP3   OH212967   2.262   7.210   2.078 -0.5771 -0.3825 -0.7708
 4345TIP3    H112968   2.170   7.231   2.090 -0.9337 -1.9903 -0.6468
 4345TIP3    H212969   2.265   7.114   2.073  1.1153 -0.3708 -0.4148
 4346TIP3   OH212970   5.755   0.579   1.274 -0.0468  0.0842  0.6585
 4346TIP3    H112971   5.727   0.495   1.309 -1.1759  0.9452  1.8886
 4346TIP3    H212972   5.678   0.612   1.227  0.5683  0.1951 -0.2846
 4347TIP3   OH212973   3.144   5.809   4.478 -0.3445 -0.4746 -0.0299
 4347TIP3    H112974   3.166   5.857   4.558  3.0139 -0.3447 -0.9636
 4347TIP3    H212975   3.143   5.875   4.409 -1.5821 -0.8567 -0.4080
 4348TIP3   OH212976   2.102   3.506   3.935 -0.0033 -0.2410  0.1464
 4348TIP3    H112977   2.079   3.571   4.002  2.2874  0.4480  0.2958
 4348TIP3    H212978   2.073   3.423   3.972  1.1008  0.1459  1.9660
 4349TIP3   OH212979   8.159   4.000   1.863 -0.6398  0.4016 -0.4624
 4349TIP3    H112980   8.182   4.078   1.915 -2.4501  0.4498  0.2807
 4349TIP3    H212981   8.210   3.929   1.903 -0.3324  0.8637 -0.0261
 4350TIP3   OH212982   1.334   5.334   2.117 -0.5755 -0.1390 -0.2636
 4350TIP3    H112983   1.310   5.422   2.146 -1.2529  0.2074 -1.7746
 4350TIP3    H212984   1.419   5.317   2.157 -1.0925  0.6340  1.1904
 4351TIP3   OH212985   4.484   7.055   4.628 -0.7780  0.1002 -0.0519
 4351TIP3    H112986   4.450   7.130   4.676 -1.0052 -0.5010  0.7503
 4351TIP3    H212987   4.528   7.002   4.694  1.0611  0.4698 -0.9507
 4352TIP3   OH212988   2.907   5.571   3.182  0.2435  0.1451  0.0965
 4352TIP3    H112989   2.994   5.591   3.216  0.2074  0.1474  0.1878
 4352TIP3    H212990   2.891   5.480   3.208 -0.1323  0.4171  0.8181
 4353TIP3   OH212991   5.030   1.224   6.063 -0.1514 -0.0362 -0.8798
 4353TIP3    H112992   5.050   1.131   6.074  1.1058  0.3795  0.7105
 4353TIP3    H212993   4.944   1.235   6.102  1.2623  0.0933  2.3681
 4354TIP3   OH212994   1.060   6.424   0.920 -0.0360 -0.2290 -0.0407
 4354TIP3    H112995   1.097   6.384   0.842 -1.7597 -1.2731 -0.3307
 4354TIP3    H212996   1.039   6.514   0.893  0.1544 -0.3258 -0.5180
 4355TIP3   OH212997   7.795   4.551   0.433  0.1074  0.1503 -0.1890
 4355TIP3    H112998   7.702   4.534   0.417 -0.1908 -1.2563  2.7328
 4355TIP3    H212999   7.832   4.567   0.346 -2.7341  0.0768 -1.4544
 4356TIP3   OH213000   1.322   5.208   1.288  0.0475 -0.0478  0.1092
 4356TIP3    H113001   1.398   5.154   1.310 -0.3361 -0.6979 -0.1445
 4356TIP3    H213002   1.279   5.224   1.371 -1.3945 -2.4844 -0.1176
 4357TIP3   OH213003   4.023   6.461   2.079  0.1020  0.1925 -0.2592
 4357TIP3    H113004   4.012   6.460   2.174 -1.6793  3.1091 -0.3876
 4357TIP3    H213005   4.118   6.464   2.065  0.3724 -0.3939  1.4017
 4358TIP3   OH213006   2.465   5.025   2.862 -0.1331 -0.7922 -0.1398
 4358TIP3    H113007   2.555   5.021   2.894  1.0448 -1.8214 -3.3131
 4358TIP3    H213008   2.424   4.945   2.895  0.1488 -0.4140  1.1581
 4359TIP3   OH213009   2.982   5.917   2.415 -0.4274 -0.3085  0.2215
 4359TIP3    H113010   3.076   5.908   2.429 -0.3711  0.9065  0.7501
 4359TIP3    H213011   2.963   6.007   2.443 -1.5146 -0.1019 -1.1262
 4360TIP3   OH213012   6.426   0.200   6.925 -0.1911  0.0550 -0.0841
 4360TIP3    H113013   6.512   0.158   6.931 -0.4182 -0.1978  1.8716
 4360TIP3    H213014   6.365   0.131   6.950 -0.9306  0.3690 -1.0081
 4361TIP3   OH213015   1.428   5.178   3.367 -0.0436  0.0082  0.5118
 4361TIP3    H113016   1.504   5.122   3.352 -1.2644 -1.5617 -0.0075
 4361TIP3    H213017   1.384   5.182   3.282 -1.5849 -0.7146  1.2464
 4362TIP3   OH213018   1.881   4.614   4.706  0.7306  0.8274  0.3022
 4362TIP3    H113019   1.828   4.540   4.736  0.5766  1.1629  0.8606
 4362TIP3    H213020   1.911   4.588   4.619 -1.0968  1.0259 -0.4009
 4363TIP3   OH213021   1.067   4.044   5.106 -1.1278  0.7180 -0.2185
 4363TIP3    H113022   1.134   4.112   5.115 -2.6744  2.1172  1.2427
 4363TIP3    H213023   0.989   4.092   5.077 -2.7037 -0.1055  2.4585
 4364TIP3   OH213024   2.397   5.181   1.525  0.3739  0.0948 -0.5019
 4364TIP3    H113025   2.453   5.191   1.602  0.8358 -0.2893 -0.7888
 4364TIP3    H213026   2.420   5.255   1.469  0.8355 -0.2524 -0.7708
 4365TIP3   OH213027   0.467   5.219   1.462 -0.4093  0.6567  0.0854
 4365TIP3    H113028   0.375   5.201   1.444 -0.5586  1.0100  0.4665
 4365TIP3    H213029   0.505   5.134   1.484 -0.9432  0.6925  1.1905
 4366TIP3   OH213030   1.657   7.083   3.252  0.4491 -0.0981  0.5931
 4366TIP3    H113031   1.713   7.149   3.293 -1.0681 -0.3453  3.1978
 4366TIP3    H213032   1.592   7.134   3.202 -1.0603  0.4897  3.0432
 4367TIP3   OH213033   2.066   4.215   1.733 -0.4884  0.0723  0.2555
 4367TIP3    H113034   2.081   4.286   1.795 -1.8452  1.6396 -1.1931
 4367TIP3    H213035   2.123   4.144   1.765  0.4191  1.5606  2.0616
 4368TIP3   OH213036   1.289   4.006   2.501  0.4126 -0.4973 -0.1135
 4368TIP3    H113037   1.295   3.969   2.412  1.4391 -1.4268  0.3310
 4368TIP3    H213038   1.219   3.956   2.543 -0.4620  0.3247 -0.5652
 4369TIP3   OH213039   8.090   5.793   1.336 -0.5167 -0.2583 -0.3266
 4369TIP3    H113040   8.104   5.877   1.379  0.5190  0.4856 -2.0684
 4369TIP3    H213041   8.097   5.812   1.242 -0.7855 -2.1941 -0.7706
 4370TIP3   OH213042   2.313   5.604   2.244  0.3909  0.3238  0.5083
 4370TIP3    H113043   2.256   5.632   2.315  1.3811  1.6590  0.7976
 4370TIP3    H213044   2.395   5.579   2.287 -0.1385 -2.1706  0.1606
 4371TIP3   OH213045   1.839   5.838   2.885 -0.0111  0.3745  0.4034
 4371TIP3    H113046   1.927   5.857   2.917  0.1772 -0.3640  0.3419
 4371TIP3    H213047   1.805   5.923   2.857 -0.2046  1.0641  2.6004
 4372TIP3   OH213048   2.272   7.440   1.401  0.2612  0.5173 -0.5323
 4372TIP3    H113049   2.273   7.347   1.423  0.1753  0.4891 -0.6460
 4372TIP3    H213050   2.342   7.478   1.454 -0.5067  0.5957  0.4397
 4373TIP3   OH213051   1.285   4.503   2.820  0.1482  0.1941 -0.1677
 4373TIP3    H113052   1.306   4.557   2.744 -0.6967  0.2578 -0.3631
 4373TIP3    H213053   1.249   4.422   2.783 -0.8479  0.4757  0.1711
 4374TIP3   OH213054   7.956   6.411   2.300  0.2539 -0.5190 -0.6109
 4374TIP3    H113055   7.867   6.421   2.267  0.8952 -1.8112 -2.8689
 4374TIP3    H213056   7.974   6.493   2.346 -2.5444 -0.7648  1.0206
 4375TIP3   OH213057   2.355   6.624   1.635  0.1161  0.2885  0.2329
 4375TIP3    H113058   2.291   6.614   1.705  0.6989 -1.1976  0.5855
 4375TIP3    H213059   2.439   6.631   1.680  0.4782 -0.5620 -0.2942
 4376TIP3   OH213060   3.904   5.827   3.046 -0.2012  0.4991  0.0558
 4376TIP3    H113061   3.811   5.806   3.044 -0.5411  2.0237 -2.1670
 4376TIP3    H213062   3.946   5.760   2.992 -0.2227  0.6550 -0.1583
 4377TIP3   OH213063   1.610   4.943   2.515 -0.1207  0.6932  0.6292
 4377TIP3    H113064   1.593   5.035   2.536 -2.1132  0.2028  1.2626
 4377TIP3    H213065   1.577   4.894   2.590  0.3576 -0.5909  0.0284
 4378TIP3   OH213066   2.864   5.819   3.651 -0.4576  0.1741 -0.5642
 4378TIP3    H113067   2.923   5.785   3.718 -0.2957  0.2082 -0.6871
 4378TIP3    H213068   2.825   5.741   3.612 -0.2800  0.1362 -0.6716
 4379TIP3   OH213069   1.789   3.661   1.623 -0.0774  0.1987 -0.3489
 4379TIP3    H113070   1.809   3.585   1.677  2.8485  0.0531 -1.5113
 4379TIP3    H213071   1.702   3.643   1.587 -0.6914 -1.1700  1.7471
 4380TIP3   OH213072   8.381   5.373   2.874 -0.6612  0.1350  0.1537
 4380TIP3    H113073   8.362   5.454   2.827 -1.4033 -0.8285 -1.2484
 4380TIP3    H213074   8.432   5.401   2.950 -1.1099  1.9370 -0.1750
 4381TIP3   OH213075   0.163   4.693   1.602 -0.0686 -0.5111  0.5543
 4381TIP3    H113076   0.100   4.623   1.583 -1.1556  0.3616  0.9299
 4381TIP3    H213077   0.248   4.655   1.579 -0.9050 -1.0034 -1.8636
 4382TIP3   OH213078   7.892   4.850   5.126 -0.0504  0.9452 -1.3887
 4382TIP3    H113079   7.971   4.800   5.105  1.3242  2.9975 -1.2391
 4382TIP3    H213080   7.875   4.831   5.219  1.0539  1.5201 -1.0587
 4383TIP3   OH213081   2.612   6.123   5.589  0.7757  0.7460 -0.5862
 4383TIP3    H113082   2.607   6.192   5.655  0.4038 -0.1387  0.3142
 4383TIP3    H213083   2.521   6.108   5.563  0.9065  0.9727 -1.1785
 4384TIP3   OH213084   1.922   5.468   3.703 -0.2614 -0.4612  0.6518
 4384TIP3    H113085   1.871   5.415   3.642 -1.4190 -0.7378  1.8284
 4384TIP3    H213086   1.880   5.554   3.702 -0.1111 -0.3842  0.8373
 4385TIP3   OH213087   1.250   5.142   2.677  0.2131  0.1725  0.6906
 4385TIP3    H113088   1.344   5.154   2.669  0.3454 -1.7165 -0.9315
 4385TIP3    H213089   1.216   5.230   2.695  2.1034  1.1257 -0.2890
 4386TIP3   OH213090   2.822   4.857   3.506 -0.1930 -0.1296  0.1698
 4386TIP3    H113091   2.822   4.918   3.580  0.2297  1.6802 -1.2983
 4386TIP3    H213092   2.810   4.771   3.547  0.6642  0.7608  2.3901
 4387TIP3   OH213093   2.356   6.477   0.108  0.0268  0.0320  0.3372
 4387TIP3    H113094   2.317   6.399   0.070  0.1877 -0.3349  0.9112
 4387TIP3    H213095   2.389   6.448   0.194  0.2011  0.6948  0.4994
 4388TIP3   OH213096   2.058   7.116   1.439 -0.5402 -0.4368 -0.3794
 4388TIP3    H113097   2.011   7.179   1.385  0.7533  1.0074  0.1393
 4388TIP3    H213098   2.151   7.134   1.421 -0.1280 -1.0404  1.0511
 4389TIP3   OH213099   3.205   5.341   2.205 -0.1382  0.3375 -0.1735
 4389TIP3    H113100   3.173   5.264   2.251  1.6502 -0.0743  0.3965
 4389TIP3    H213101   3.190   5.322   2.112 -0.3111 -0.3975  0.0077
 4390TIP3   OH213102   7.612   4.275   1.608  0.0867 -1.0018 -0.5044
 4390TIP3    H113103   7.701   4.298   1.581  0.9531 -0.1768  2.8808
 4390TIP3    H213104   7.624   4.210   1.677 -1.9649 -1.1787 -0.2953
 4391TIP3   OH213105   7.873   4.547   2.580  0.2652 -0.5166 -0.0080
 4391TIP3    H113106   7.865   4.463   2.535  0.7020  0.0616 -1.1956
 4391TIP3    H213107   7.963   4.550   2.612 -0.0886 -0.9917  1.0517
 4392TIP3   OH213108   1.648   5.619   3.472 -0.3276  0.1191  0.0749
 4392TIP3    H113109   1.675   5.710   3.484  0.7693  0.4067 -3.7883
 4392TIP3    H213110   1.563   5.624   3.429  0.3689 -0.6035 -1.4531
 4393TIP3   OH213111   6.167   2.174   6.929  0.2743  0.0552 -0.3156
 4393TIP3    H113112   6.107   2.185   7.002  0.5228 -1.6762  0.1874
 4393TIP3    H213113   6.111   2.161   6.852 -0.0007 -0.7115  0.0101
 4394TIP3   OH213114   0.641   4.357   3.469 -0.1110  0.5148  0.6567
 4394TIP3    H113115   0.551   4.386   3.482 -0.6735 -0.9250  0.0983
 4394TIP3    H213116   0.694   4.418   3.520 -1.1510  3.0407 -1.1618
 4395TIP3   OH213117   0.856   7.774   1.415  0.1709 -0.3740 -0.5781
 4395TIP3    H113118   0.772   7.730   1.418 -0.4594  0.8946  1.1821
 4395TIP3    H213119   0.921   7.704   1.426 -0.8380 -0.8029  3.2697
 4396TIP3   OH213120   2.538   6.553   3.124 -0.3225 -0.7658 -0.3562
 4396TIP3    H113121   2.625   6.583   3.098 -1.5438  2.4143 -1.0512
 4396TIP3    H213122   2.529   6.582   3.215 -1.6225  1.3992 -1.1217
 4397TIP3   OH213123   6.350   0.050   1.577  0.1789 -0.0346 -0.1371
 4397TIP3    H113124   6.277  -0.009   1.560 -1.7208  2.0147  0.7590
 4397TIP3    H213125   6.349   0.064   1.671  0.4278  1.6650 -0.3760
 4398TIP3   OH213126   1.009   4.604   5.843  0.5692  0.2646  0.0967
 4398TIP3    H113127   0.925   4.560   5.832  0.5690  0.3438 -0.2213
 4398TIP3    H213128   0.994   4.692   5.809  1.6278 -0.6240 -2.8798
 4399TIP3   OH213129   2.879   5.375   0.144  0.2173  0.0361  0.0064
 4399TIP3    H113130   2.966   5.377   0.184  0.5075 -0.8522 -0.5639
 4399TIP3    H213131   2.896   5.362   0.051 -0.3920  3.8595 -0.6884
 4400TIP3   OH213132   2.715   4.216   3.399 -0.3188  0.8985  0.1577
 4400TIP3    H113133   2.744   4.136   3.357 -0.1858  0.8798  0.2837
 4400TIP3    H213134   2.795   4.268   3.410 -0.4606  1.2095 -0.2676
 4401TIP3   OH213135   0.716   4.349   1.790 -0.0602  0.0782 -0.0743
 4401TIP3    H113136   0.653   4.380   1.855  1.2937  0.9665  0.8228
 4401TIP3    H213137   0.777   4.422   1.779  0.9293 -0.8484 -0.8033
 4402TIP3   OH213138   3.158   5.855   2.081 -0.3720  0.1745 -0.4339
 4402TIP3    H113139   3.191   5.774   2.119 -2.0613  0.5360  1.8948
 4402TIP3    H213140   3.093   5.827   2.016  0.2600 -0.3765 -0.8229
 4403TIP3   OH213141   7.970   5.158   0.998  0.1330 -0.0063  0.0770
 4403TIP3    H113142   7.940   5.092   1.061 -0.8866 -0.3803 -0.7729
 4403TIP3    H213143   7.955   5.242   1.041  0.6977 -0.2965  0.8556
 4404TIP3   OH213144   1.207   4.214   4.291 -0.1892  0.0866 -0.3965
 4404TIP3    H113145   1.198   4.279   4.222  0.0179  0.1687 -0.3463
 4404TIP3    H213146   1.286   4.164   4.266 -0.8624 -0.7305 -0.9246
 4405TIP3   OH213147   0.738   5.911   0.213 -0.5352 -0.4077 -0.0970
 4405TIP3    H113148   0.730   6.001   0.181 -2.7082 -0.8383 -0.8603
 4405TIP3    H213149   0.799   5.870   0.152  0.3923  0.5140  0.1899
 4406TIP3   OH213150   1.196   4.617   0.212 -0.0223 -0.4235 -0.4762
 4406TIP3    H113151   1.272   4.558   0.218  1.9821  2.2085  0.8942
 4406TIP3    H213152   1.166   4.627   0.302 -0.6417  0.3114 -0.7632
 4407TIP3   OH213153   3.743   5.084   0.928  0.1989 -0.4206  0.6391
 4407TIP3    H113154   3.805   5.156   0.931 -1.3036  0.8904  1.4178
 4407TIP3    H213155   3.796   5.007   0.907  1.6983  1.0307 -1.0308
 4408TIP3   OH213156   0.359   5.265   2.137  0.4207 -0.2612 -0.1059
 4408TIP3    H113157   0.268   5.285   2.159  0.7702  0.1200  0.9936
 4408TIP3    H213158   0.366   5.170   2.148 -0.1336 -0.4630 -1.3073
 4409TIP3   OH213159   5.494   7.749   6.514  0.2466  0.2649  0.0408
 4409TIP3    H113160   5.426   7.814   6.531  1.2073  1.1438  0.6359
 4409TIP3    H213161   5.534   7.734   6.600  1.5348  0.5993 -0.4914
 4410TIP3   OH213162   1.703   6.736   1.898  0.5198 -0.0577 -0.9356
 4410TIP3    H113163   1.616   6.714   1.929  0.0127  1.3846 -1.3041
 4410TIP3    H213164   1.747   6.652   1.889 -0.3484 -0.6997  0.6397
 4411TIP3   OH213165   6.951   0.986   6.486 -0.5427 -0.3016  0.2593
 4411TIP3    H113166   6.933   1.028   6.402 -1.1566 -1.7174 -0.3392
 4411TIP3    H213167   7.005   1.049   6.533  0.4715  0.1772 -1.5054
 4412TIP3   OH213168   3.652   5.570   2.083  0.3445  0.0970  0.3828
 4412TIP3    H113169   3.605   5.487   2.090 -1.0124  0.8465  0.2764
 4412TIP3    H213170   3.662   5.584   1.989  0.5006  0.0941  0.3998
 4413TIP3   OH213171   8.266   0.934   6.442 -0.3724  0.6854  0.2385
 4413TIP3    H113172   8.351   0.900   6.471 -0.9722  1.6982  3.4208
 4413TIP3    H213173   8.280   1.028   6.431 -0.3098  0.4001 -2.3831
 4414TIP3   OH213174   5.568   1.257   0.687  0.1482 -0.0589 -0.3640
 4414TIP3    H113175   5.651   1.297   0.662  0.9006 -0.3432  1.5712
 4414TIP3    H213176   5.541   1.206   0.610  2.9794 -1.9216 -0.1798
 4415TIP3   OH213177   2.683   3.642   1.237  0.5282  0.4266  1.0281
 4415TIP3    H113178   2.707   3.571   1.297 -0.0219  0.5878  1.4467
 4415TIP3    H213179   2.728   3.718   1.272  0.7630  0.3785  0.8337
 4416TIP3   OH213180   2.270   5.410   1.202 -0.4962  0.5527 -0.2230
 4416TIP3    H113181   2.180   5.377   1.201 -0.8656  1.5418 -0.3610
 4416TIP3    H213182   2.271   5.477   1.133  0.5501  0.0179 -0.7394
 4417TIP3   OH213183   1.542   4.920   3.472 -0.2588 -0.0497  0.0826
 4417TIP3    H113184   1.595   4.887   3.545 -0.7521 -0.3378  0.3145
 4417TIP3    H213185   1.459   4.873   3.480 -0.1640 -0.3928 -0.9188
 4418TIP3   OH213186   0.878   5.404   1.601  0.0175 -0.5679  0.0487
 4418TIP3    H113187   0.794   5.445   1.619  0.7451 -0.0289  2.3525
 4418TIP3    H213188   0.869   5.314   1.635 -0.0592 -0.9311 -0.9096
 4419TIP3   OH213189   2.150   4.856   5.709 -0.6473  0.0322  0.2745
 4419TIP3    H113190   2.114   4.810   5.633 -2.7393 -1.7677  2.3045
 4419TIP3    H213191   2.094   4.933   5.719 -0.9551 -0.2198  0.5226
 4420TIP3   OH213192   0.820   6.559   3.982  0.2561  0.3816 -0.2689
 4420TIP3    H113193   0.761   6.499   4.027  0.3550 -0.7497 -1.5835
 4420TIP3    H213194   0.898   6.563   4.037 -0.2894  0.3686  0.5052
 4421TIP3   OH213195   1.187   5.016   1.774 -0.2500  0.0330 -0.2181
 4421TIP3    H113196   1.167   4.926   1.799 -0.4989 -0.0193 -0.6097
 4421TIP3    H213197   1.160   5.069   1.849  0.5407 -0.2869  0.2955
 4422TIP3   OH213198   2.049   6.703   2.475  0.2352  0.3440  0.0305
 4422TIP3    H113199   2.131   6.674   2.436 -1.5802 -1.5615 -2.5047
 4422TIP3    H213200   2.026   6.634   2.538 -0.4074 -0.1043 -0.6929
 4423TIP3   OH213201   1.467   4.937   1.383 -0.0847 -0.2394  0.0799
 4423TIP3    H113202   1.444   4.955   1.474  1.6649  0.3740  0.4182
 4423TIP3    H213203   1.562   4.943   1.380  0.0370 -2.2081 -1.3866
 4424TIP3   OH213204   8.220   5.410   4.866 -0.2967 -0.4161  0.0662
 4424TIP3    H113205   8.173   5.494   4.864  3.7711  2.0531  0.9975
 4424TIP3    H213206   8.222   5.386   4.958 -0.4721 -0.9173 -0.0622
 4425TIP3   OH213207   3.208   5.623   2.247  0.5890  0.7037  0.4938
 4425TIP3    H113208   3.216   5.528   2.242  0.6769  0.6661  1.2426
 4425TIP3    H213209   3.178   5.640   2.336  1.1391  1.4090  0.5517
 4426TIP3   OH213210   2.093   2.366   2.866 -0.3175  0.5802  0.3467
 4426TIP3    H113211   2.078   2.457   2.839  0.7187  0.7595  0.3576
 4426TIP3    H213212   2.173   2.370   2.918 -1.3288 -0.0453  1.9873
 4427TIP3   OH213213   1.443   4.838   2.110  0.2127  0.1736 -0.8687
 4427TIP3    H113214   1.430   4.780   2.035  0.7373  0.4657 -1.1834
 4427TIP3    H213215   1.375   4.904   2.102 -1.2819 -1.1651  0.2443
 4428TIP3   OH213216   1.457   5.585   3.297 -0.2025 -0.1695  0.4046
 4428TIP3    H113217   1.401   5.519   3.255 -1.7060 -0.0572  2.1633
 4428TIP3    H213218   1.440   5.665   3.248 -1.2991 -0.2342  0.6531
 4429TIP3   OH213219   1.286   6.052   2.323 -0.3472 -0.4606  0.2778
 4429TIP3    H113220   1.211   6.011   2.281 -0.0006 -0.5153 -0.2899
 4429TIP3    H213221   1.354   6.054   2.255  0.1068 -0.2574  0.7346
 4430TIP3   OH213222   7.974   6.273   1.875 -0.3029  0.1014 -0.4222
 4430TIP3    H113223   7.905   6.215   1.840 -2.3654  1.6004  1.0171
 4430TIP3    H213224   7.987   6.243   1.965  0.8703 -0.0887 -0.6486
 4431TIP3   OH213225   2.224   3.881   1.247 -0.9652  0.1792  0.1558
 4431TIP3    H113226   2.137   3.921   1.240 -0.5175  1.1152 -0.0885
 4431TIP3    H213227   2.278   3.949   1.288 -0.2059 -0.1927 -0.2318
 4432TIP3   OH213228   3.885   6.788   6.474  0.6946  0.0645  0.3794
 4432TIP3    H113229   3.956   6.842   6.439  1.3864  0.6630  2.6282
 4432TIP3    H213230   3.930   6.718   6.521 -0.2062 -0.2259  0.8147
 4433TIP3   OH213231   0.673   6.702   3.779 -0.5934  0.4888 -0.2931
 4433TIP3    H113232   0.725   6.647   3.838  1.5673  1.6171 -1.0623
 4433TIP3    H213233   0.642   6.774   3.834  1.0950  1.3366 -0.4256
 4434TIP3   OH213234   1.913   6.253   0.426  0.1258  0.3979 -0.2487
 4434TIP3    H113235   1.951   6.282   0.343  0.0369 -0.9986 -0.7827
 4434TIP3    H213236   1.979   6.276   0.492  1.4196 -1.0092 -1.0389
 4435TIP3   OH213237   1.205   3.759   1.490  0.6614  0.2202 -0.0452
 4435TIP3    H113238   1.193   3.813   1.411  1.1443  0.7918  0.2646
 4435TIP3    H213239   1.133   3.785   1.547 -1.4635 -2.3364 -1.4457
 4436TIP3   OH213240   3.273   3.611   3.987  0.1942  0.1471  0.0087
 4436TIP3    H113241   3.321   3.540   3.946  1.0606  1.5688 -1.4814
 4436TIP3    H213242   3.339   3.662   4.034 -0.1207  1.0333 -0.4858
 4437TIP3   OH213243   2.790   4.170   1.576  0.5037 -0.2288 -0.1976
 4437TIP3    H113244   2.828   4.254   1.600 -0.5526  1.0023 -2.5735
 4437TIP3    H213245   2.820   4.156   1.486 -0.2076 -1.8674 -0.1880
 4438TIP3   OH213246   0.222   4.826   4.457  0.4903  0.5697 -0.0672
 4438TIP3    H113247   0.317   4.832   4.464  0.4883  2.7202 -1.5794
 4438TIP3    H213248   0.206   4.767   4.383  0.5881 -1.5555  1.5370
 4439TIP3   OH213249   3.589   6.004   1.983 -0.0144  0.5540 -0.5133
 4439TIP3    H113250   3.599   5.931   2.045  1.2640  0.1745 -1.1471
 4439TIP3    H213251   3.495   6.018   1.977 -0.3011 -1.3411 -0.7072
 4440TIP3   OH213252   1.616   4.990   2.953  0.4249  0.3495  0.3024
 4440TIP3    H113253   1.703   5.023   2.928  1.0656 -0.7769  0.9978
 4440TIP3    H213254   1.590   4.934   2.881 -0.6547  2.2928 -0.8699
 4441TIP3   OH213255   7.011   3.561   4.798  0.0245  0.0317 -0.1513
 4441TIP3    H113256   7.100   3.528   4.800  0.5313  1.3517 -0.8406
 4441TIP3    H213257   6.969   3.515   4.725  0.1527 -0.5269  0.1243
 4442TIP3   OH213258   0.606   5.353   5.061  0.6667  0.1935 -0.4696
 4442TIP3    H113259   0.632   5.272   5.106 -1.0405 -1.2568 -1.9891
 4442TIP3    H213260   0.674   5.366   4.995  1.3185  0.3854  0.2369
 4443TIP3   OH213261   1.658   4.814   4.376  0.3422 -0.3168 -0.8863
 4443TIP3    H113262   1.608   4.820   4.457  1.8326  0.4876 -0.0230
 4443TIP3    H213263   1.635   4.893   4.327  1.4362  0.5099 -0.0911
 4444TIP3   OH213264   2.672   3.801   2.740 -0.9250 -0.4801 -0.0029
 4444TIP3    H113265   2.741   3.798   2.674 -1.5242  0.2778 -0.6647
 4444TIP3    H213266   2.644   3.893   2.742  0.0502 -0.1870  2.2999
 4445TIP3   OH213267   0.995   5.488   5.454  0.0143 -0.0719 -0.5076
 4445TIP3    H113268   1.036   5.410   5.491 -2.5060 -1.2647 -0.1606
 4445TIP3    H213269   0.986   5.469   5.361  0.2344  0.1958 -0.5859
 4446TIP3   OH213270   0.971   5.451   3.545  0.1990  0.1246 -0.0840
 4446TIP3    H113271   1.031   5.484   3.479 -0.0601  0.7114 -0.0330
 4446TIP3    H213272   0.981   5.356   3.543 -1.1847 -0.0062 -2.3177
 4447TIP3   OH213273   1.524   4.007   3.804 -0.3629  0.5130  0.2454
 4447TIP3    H113274   1.571   3.929   3.774 -1.1848  0.1538 -0.1281
 4447TIP3    H213275   1.450   3.972   3.854  0.9106  1.0927  2.6196
 4448TIP3   OH213276   1.624   5.501   1.273  0.1222  0.0131 -0.1663
 4448TIP3    H113277   1.664   5.527   1.356  0.3319 -2.2476  0.4651
 4448TIP3    H213278   1.533   5.531   1.279  0.2109  0.0858  0.7717
 4449TIP3   OH213279   1.322   4.786   1.228  0.0530  0.3370  0.7042
 4449TIP3    H113280   1.259   4.854   1.203 -1.5283 -0.6552  1.9320
 4449TIP3    H213281   1.379   4.830   1.291 -0.0693  0.9231  0.4186
 4450TIP3   OH213282   0.354   7.061   1.418  0.0128  0.1403  0.0548
 4450TIP3    H113283   0.356   6.966   1.404  0.3459  0.2565 -0.7099
 4450TIP3    H213284   0.261   7.081   1.430 -0.2224 -0.0866 -1.2397
 4451TIP3   OH213285   2.255   0.717   1.026  0.7665 -0.2653  0.6952
 4451TIP3    H113286   2.255   0.626   1.059  0.2764  0.2081  2.0517
 4451TIP3    H213287   2.204   0.765   1.091 -2.2760  0.2858 -1.9925
 4452TIP3   OH213288   3.260   7.926   1.612 -0.1781 -0.0200  0.5914
 4452TIP3    H113289   3.166   7.942   1.618 -0.0750  0.7218  0.2520
 4452TIP3    H213290   3.280   7.871   1.689 -1.1687 -1.5802 -0.2360
 4453TIP3   OH213291   2.514   6.941   1.904 -0.4455  0.1583  0.1856
 4453TIP3    H113292   2.448   6.905   1.963  0.1467  0.5234  1.0745
 4453TIP3    H213293   2.535   6.868   1.845 -0.2115 -0.5484  1.1468
 4454TIP3   OH213294   3.078   5.016   3.166  0.0212 -0.4024 -0.0657
 4454TIP3    H113295   3.048   5.082   3.104  1.2451  0.3136  0.0969
 4454TIP3    H213296   3.089   4.937   3.112  2.8831  0.6867 -1.1848
 4455TIP3   OH213297   4.521   5.614   0.974  0.1039  0.1707 -0.4006
 4455TIP3    H113298   4.588   5.619   1.041  0.5684  0.0235 -0.8514
 4455TIP3    H213299   4.447   5.570   1.016  1.0740 -1.6200 -0.5544
 4456TIP3   OH213300   0.532   2.584   6.876  0.4988  0.3354 -0.3605
 4456TIP3    H113301   0.539   2.591   6.971 -0.2200  0.7382 -0.3330
 4456TIP3    H213302   0.616   2.615   6.843  0.7668  0.1564  0.1436
 4457TIP3   OH213303   3.443   5.907   1.292 -0.3171 -0.1039  0.3256
 4457TIP3    H113304   3.374   5.929   1.230 -0.8668 -1.1177  0.5752
 4457TIP3    H213305   3.436   5.813   1.304  0.3974 -0.0546  1.1990
 4458TIP3   OH213306   3.987   7.213   2.359 -0.7129 -0.0374  0.3718
 4458TIP3    H113307   3.934   7.244   2.285  0.4387  0.5081 -0.2460
 4458TIP3    H213308   4.035   7.290   2.388  0.5648 -0.7535  0.2086
 4459TIP3   OH213309   7.057   2.571   6.673 -0.4463  0.3636 -0.2403
 4459TIP3    H113310   7.019   2.557   6.760  0.4785  0.2592  0.1561
 4459TIP3    H213311   7.099   2.487   6.652 -0.3235  0.5175 -0.6122
 4460TIP3   OH213312   1.884   7.632   0.862  0.2290 -0.2567 -0.0593
 4460TIP3    H113313   1.839   7.707   0.899 -2.0320 -0.3992 -2.3384
 4460TIP3    H213314   1.908   7.659   0.773  1.8981 -1.2613  0.0629
 4461TIP3   OH213315   1.875   6.923   1.493 -1.1001  0.2853  0.0307
 4461TIP3    H113316   1.949   6.982   1.482 -1.1347  0.5824  1.4182
 4461TIP3    H213317   1.910   6.836   1.470 -0.2082  0.3577  1.0970
 4462TIP3   OH213318   1.741   5.638   2.276 -0.1478  0.0565 -0.3551
 4462TIP3    H113319   1.685   5.701   2.319 -0.4552  0.6143 -1.5614
 4462TIP3    H213320   1.682   5.585   2.223  0.1810 -0.8669  0.1844
 4463TIP3   OH213321   1.127   6.563   2.168  0.0101  0.0478 -0.1029
 4463TIP3    H113322   1.208   6.552   2.117 -0.3045 -1.2922 -0.3385
 4463TIP3    H213323   1.110   6.476   2.204 -0.0769  0.8588  1.8603
 4464TIP3   OH213324   2.690   4.455   2.812  0.8886  0.4091  0.2680
 4464TIP3    H113325   2.622   4.520   2.794 -0.0414 -0.5049  0.4121
 4464TIP3    H213326   2.731   4.484   2.894  0.5646  0.8802  0.2613
 4465TIP3   OH213327   2.625   5.103   0.608 -0.4583 -0.0746 -0.2142
 4465TIP3    H113328   2.661   5.116   0.520  1.2819 -0.0009  0.4893
 4465TIP3    H213329   2.599   5.011   0.610 -1.2962  0.1273 -1.0670
 4466TIP3   OH213330   0.895   1.984   6.562  0.0353 -0.1164  0.5408
 4466TIP3    H113331   0.979   1.939   6.570 -0.0304 -0.0590  1.6177
 4466TIP3    H213332   0.862   1.989   6.652 -0.9673  0.1475  0.1616
 4467TIP3   OH213333   2.958   5.999   3.958  0.6501  0.4487  0.0590
 4467TIP3    H113334   2.972   6.064   4.027 -0.5000  1.4878 -0.6746
 4467TIP3    H213335   2.867   5.973   3.967  0.7933 -0.2136 -0.3800
 4468TIP3   OH213336   2.762   7.319   2.232  0.5484  0.3783 -0.0055
 4468TIP3    H113337   2.674   7.283   2.220  0.2240  0.4695  1.9034
 4468TIP3    H213338   2.821   7.247   2.212  0.1811  1.1045 -4.1667
 4469TIP3   OH213339   2.708   2.885   3.252  0.4245  0.1088 -0.7790
 4469TIP3    H113340   2.687   2.816   3.188 -0.7681  0.8817 -1.2447
 4469TIP3    H213341   2.652   2.866   3.327 -0.0211  0.6567 -0.9697
 4470TIP3   OH213342   3.667   6.626   1.131  0.2900  0.5046 -0.0513
 4470TIP3    H113343   3.707   6.544   1.161 -1.5048 -0.1548  0.6122
 4470TIP3    H213344   3.673   6.685   1.206 -1.2174 -0.0699  0.5594
 4471TIP3   OH213345   7.533   1.699   6.386  0.3482  0.1204  0.1004
 4471TIP3    H113346   7.584   1.669   6.461  0.8687 -0.1588 -0.3665
 4471TIP3    H213347   7.593   1.692   6.312 -0.8888 -1.7705 -0.7326
 4472TIP3   OH213348   0.128   5.094   2.503  0.3000 -0.1346 -0.1761
 4472TIP3    H113349   0.170   5.117   2.586  1.8201  1.3696 -1.3056
 4472TIP3    H213350   0.202   5.074   2.444 -0.6643  0.3633 -1.5853
 4473TIP3   OH213351   2.928   5.387   0.937  0.0326 -0.1726  0.2587
 4473TIP3    H113352   2.848   5.342   0.911  0.1361  0.7938 -1.8435
 4473TIP3    H213353   2.913   5.478   0.912  1.3338  0.2286  0.9051
 4474TIP3   OH213354   1.081   5.845   3.063 -0.8904  0.1229  0.3141
 4474TIP3    H113355   1.094   5.903   3.139  0.5904  0.9823 -0.5767
 4474TIP3    H213356   1.128   5.765   3.086  1.8016  1.3314 -0.7325
 4475TIP3   OH213357   1.578   2.009   0.243 -0.2842 -0.2939  0.6178
 4475TIP3    H113358   1.656   2.006   0.188 -1.5941 -2.4774 -1.2433
 4475TIP3    H213359   1.606   1.968   0.326  0.9673  0.4677  0.5823
 4476TIP3   OH213360   1.284   3.769   3.342  0.2080  0.4468  0.5209
 4476TIP3    H113361   1.253   3.688   3.301 -0.2222 -0.7023  3.0106
 4476TIP3    H213362   1.379   3.758   3.348 -0.0252 -0.7683  2.5860
 4477TIP3   OH213363   1.272   6.885   4.060  0.4563  0.1749 -0.0118
 4477TIP3    H113364   1.259   6.790   4.062  1.4757  0.0218 -0.7457
 4477TIP3    H213365   1.212   6.918   4.127 -2.2044 -0.7030 -1.8781
 4478TIP3   OH213366   0.463   4.135   0.114  0.4958  0.5047 -0.0719
 4478TIP3    H113367   0.513   4.054   0.104  1.2722  0.9442  0.1796
 4478TIP3    H213368   0.442   4.162   0.025  0.7584  0.3430 -0.1841
 4479TIP3   OH213369   1.623   4.141   1.993 -0.2672 -0.6885  0.6060
 4479TIP3    H113370   1.634   4.140   1.898  0.6191 -0.1711  0.7004
 4479TIP3    H213371   1.712   4.137   2.028 -0.6187 -1.8193  1.4327
 4480TIP3   OH213372   1.974   6.491   3.460  0.3270 -0.8005 -0.1433
 4480TIP3    H113373   1.971   6.553   3.387  3.8659 -0.6714 -0.2325
 4480TIP3    H213374   1.950   6.542   3.537  1.2043  0.1728 -0.5163
 4481TIP3   OH213375   2.664   6.054   3.555  0.2469 -0.0750 -0.4847
 4481TIP3    H113376   2.670   5.967   3.596  0.9860  0.2176  0.0476
 4481TIP3    H213377   2.694   6.114   3.623 -0.5820  0.6345 -0.7436
 4482TIP3   OH213378   1.971   5.767   6.710  0.1266  0.2285  0.3821
 4482TIP3    H113379   1.986   5.825   6.636  0.0849 -0.9495 -0.5694
 4482TIP3    H213380   1.898   5.807   6.757 -2.2042 -0.7844 -2.1651
 4483TIP3   OH213381   4.331   6.299   1.332  0.8641  0.2881 -0.2704
 4483TIP3    H113382   4.295   6.332   1.415  1.2952 -0.5159  0.2391
 4483TIP3    H213383   4.347   6.378   1.280 -2.5773  0.6599 -0.9191
 4484TIP3   OH213384   1.076   5.381   4.191  0.0233  0.0945 -0.1014
 4484TIP3    H113385   1.131   5.451   4.226  2.7232 -2.2180  0.4817
 4484TIP3    H213386   1.109   5.367   4.102 -1.7309  0.7994 -0.8698
 4485TIP3   OH213387   0.982   4.833   1.538  0.5960  0.0419 -0.5530
 4485TIP3    H113388   0.916   4.763   1.538  1.2369 -0.5808  1.0819
 4485TIP3    H213389   1.025   4.825   1.452  0.4979 -1.4119 -0.4770
 4486TIP3   OH213390   2.548   6.260   3.376 -0.2042 -0.3280 -0.5207
 4486TIP3    H113391   2.634   6.302   3.373 -1.0029  1.6810  2.3306
 4486TIP3    H213392   2.487   6.329   3.353 -1.2035 -1.3110 -0.8528
 4487TIP3   OH213393   2.902   6.913   2.348 -0.3858  0.2317  0.5666
 4487TIP3    H113394   2.952   6.874   2.420  1.8785 -0.2432 -1.2003
 4487TIP3    H213395   2.886   6.840   2.288  0.9170  1.2795 -1.1199
 4488TIP3   OH213396   0.855   6.970   3.088  0.4753  0.1765  0.5876
 4488TIP3    H113397   0.845   6.890   3.140  0.9424 -0.0864  0.2768
 4488TIP3    H213398   0.834   7.041   3.149 -1.2271 -0.2412  0.5098
 4489TIP3   OH213399   1.993   5.648   2.702 -0.3524 -0.3225 -0.6099
 4489TIP3    H113400   2.029   5.584   2.764  2.2127  0.4816 -1.2108
 4489TIP3    H213401   1.944   5.709   2.757 -0.5785 -1.2840  0.2739
 4490TIP3   OH213402   2.217   6.624   3.260 -0.4150 -0.0174  0.2795
 4490TIP3    H113403   2.254   6.541   3.289 -0.5156 -0.5691 -1.0966
 4490TIP3    H213404   2.254   6.638   3.173 -1.2725  0.8124  0.0273
 4491TIP3   OH213405   3.167   5.263   4.329  0.0648 -0.2334  0.0257
 4491TIP3    H113406   3.080   5.251   4.367  0.4047 -2.0133  0.2921
 4491TIP3    H213407   3.219   5.190   4.365  1.4522  0.3682 -0.7286
 4492TIP3   OH213408   2.177   4.390   2.940 -0.4458 -0.0465  0.2725
 4492TIP3    H113409   2.198   4.306   2.899  0.5577  0.3070  0.0375
 4492TIP3    H213410   2.242   4.399   3.010 -0.5745  0.5062  0.3222
 4493TIP3   OH213411   3.411   6.590   0.747  0.4985  0.4719 -0.5058
 4493TIP3    H113412   3.482   6.628   0.799  0.2078  1.2388 -0.6692
 4493TIP3    H213413   3.374   6.522   0.804  0.7128  0.7560 -0.0248
 4494TIP3   OH213414   8.227   0.693   6.640 -0.3086  0.0546  0.1096
 4494TIP3    H113415   8.224   0.755   6.567 -3.6725  1.5566  1.4400
 4494TIP3    H213416   8.173   0.619   6.612 -1.7700  0.7205  1.1137
 4495TIP3   OH213417   0.047   4.318   2.839 -0.0387 -0.7124  0.1884
 4495TIP3    H113418   0.067   4.395   2.786 -2.4477 -0.0248  0.2258
 4495TIP3    H213419   0.096   4.330   2.920 -0.8737  1.0904  0.4415
 4496TIP3   OH213420   1.175   5.746   1.095 -0.6322  0.3614  0.3927
 4496TIP3    H113421   1.199   5.671   1.150 -1.0673 -0.7346 -0.8523
 4496TIP3    H213422   1.105   5.790   1.143  0.6035  0.7948  1.7999
 4497TIP3   OH213423   4.557   6.122   1.210  0.3706  0.3115  0.1225
 4497TIP3    H113424   4.507   6.196   1.244  0.6148  0.0977  0.9485
 4497TIP3    H213425   4.491   6.065   1.171 -0.1240 -0.2782  1.7743
 4498TIP3   OH213426   2.578   5.578   2.963 -0.1041 -0.2299 -0.3615
 4498TIP3    H113427   2.670   5.561   2.985 -0.6259 -1.3304  1.0693
 4498TIP3    H213428   2.569   5.673   2.971  0.9468 -0.0936 -0.6548
 4499TIP3   OH213429   3.388   6.067   0.750 -0.1472  0.3948  0.4848
 4499TIP3    H113430   3.310   6.044   0.800  0.5952 -0.6026  1.2063
 4499TIP3    H213431   3.460   6.054   0.812  0.8803 -1.9234 -1.1544
 4500TIP3   OH213432   5.113   5.450   2.723 -0.2586  0.0966  0.1711
 4500TIP3    H113433   5.149   5.365   2.696 -1.8977 -0.5499 -0.0597
 4500TIP3    H213434   5.060   5.478   2.648  0.4277  1.4080  0.1844
 4501TIP3   OH213435   1.634   5.607   0.436  0.5177  0.2438 -0.2102
 4501TIP3    H113436   1.608   5.524   0.396 -1.5559  0.5217  0.5004
 4501TIP3    H213437   1.610   5.674   0.372 -0.6594  0.5183  0.5101
 4502TIP3   OH213438   1.638   1.758   5.907  0.4693 -0.0961  0.2604
 4502TIP3    H113439   1.623   1.663   5.905  0.6666 -0.1193 -0.4475
 4502TIP3    H213440   1.570   1.794   5.850 -1.5555  0.4794  2.9460
 4503TIP3   OH213441   3.307   6.153   5.277 -0.5611 -0.4346 -0.2597
 4503TIP3    H113442   3.240   6.198   5.226 -0.8932 -0.7564 -0.1038
 4503TIP3    H213443   3.305   6.195   5.363 -2.0113 -1.8533  0.4142
 4504TIP3   OH213444   2.517   5.530   4.900  0.2496  0.0555  0.2014
 4504TIP3    H113445   2.611   5.511   4.891  0.3852  1.4781 -1.8801
 4504TIP3    H213446   2.475   5.444   4.900  1.2897 -0.5173 -2.6830
 4505TIP3   OH213447   2.997   5.830   0.588  0.2977 -0.5807  0.5567
 4505TIP3    H113448   2.950   5.906   0.624 -1.0505 -2.2820  2.5173
 4505TIP3    H213449   2.944   5.802   0.513 -0.1538 -0.6145  0.8835
 4506TIP3   OH213450   4.942   4.885   2.530  0.6325 -0.4675 -0.2691
 4506TIP3    H113451   4.984   4.842   2.455 -2.0675 -0.5591 -1.7688
 4506TIP3    H213452   4.851   4.856   2.526 -0.8643  4.0204 -0.2784
 4507TIP3   OH213453   2.759   6.998   2.964  0.1369 -0.0541  0.0705
 4507TIP3    H113454   2.756   7.089   2.936 -0.5331 -0.4750 -1.2837
 4507TIP3    H213455   2.837   6.962   2.920 -1.2349 -0.8613 -1.7776
 4508TIP3   OH213456   3.889   4.605   3.762  0.3650 -0.0939  0.1790
 4508TIP3    H113457   3.796   4.614   3.741  0.4083  1.1426  0.4786
 4508TIP3    H213458   3.923   4.545   3.695 -0.9256 -1.6935  0.9168
 4509TIP3   OH213459   3.521   6.581   3.392 -0.5514 -0.6083  0.2306
 4509TIP3    H113460   3.606   6.559   3.428 -1.2573  0.3039  2.5064
 4509TIP3    H213461   3.540   6.650   3.328  0.3428  0.1096  1.2482
 4510TIP3   OH213462   2.130   4.191   0.650 -0.4890  0.0365 -0.2883
 4510TIP3    H113463   2.166   4.163   0.735 -0.9503  1.0009  0.2294
 4510TIP3    H213464   2.036   4.197   0.665 -0.5569  0.3571 -0.8292
 4511TIP3   OH213465   2.869   7.765   2.685 -0.2045 -0.0554  0.1287
 4511TIP3    H113466   2.964   7.766   2.671  0.0563  0.7948  1.7485
 4511TIP3    H213467   2.857   7.709   2.762 -0.6820  2.3081  1.8398
 4512TIP3   OH213468   3.703   5.269   2.413  0.0998 -0.1624 -0.4950
 4512TIP3    H113469   3.748   5.293   2.494  0.7353 -0.7827 -0.6671
 4512TIP3    H213470   3.613   5.301   2.426  0.0304 -0.8120  0.7105
 4513TIP3   OH213471   3.370   5.458   1.285  0.4999  0.3133  0.0567
 4513TIP3    H113472   3.294   5.419   1.241 -0.2851  2.1346 -0.2656
 4513TIP3    H213473   3.426   5.384   1.306 -0.1345 -0.8157 -2.0685
 4514TIP3   OH213474   3.730   4.481   2.240  0.4587  0.0085 -0.8195
 4514TIP3    H113475   3.768   4.566   2.262 -0.8217 -0.1797  2.4963
 4514TIP3    H213476   3.639   4.502   2.219  0.2737 -0.4567 -0.4833
 4515TIP3   OH213477   2.274   5.578   0.991 -0.5518  0.0395  0.0649
 4515TIP3    H113478   2.184   5.568   0.962 -0.2107  0.6179 -1.2232
 4515TIP3    H213479   2.275   5.664   1.035 -0.8907 -0.5020  1.1649
 4516TIP3   OH213480   2.833   6.340   0.262 -0.2975  0.5245  0.3177
 4516TIP3    H113481   2.738   6.335   0.275 -0.2530  0.1552  0.4843
 4516TIP3    H213482   2.845   6.417   0.206 -1.0793 -2.0283 -3.5718
 4517TIP3   OH213483   4.627   5.032   0.242  0.0785 -0.0022 -0.0648
 4517TIP3    H113484   4.614   5.023   0.336  2.6221  1.4013  0.4656
 4517TIP3    H213485   4.703   4.977   0.222 -0.3717 -0.2011 -1.2621
 4518TIP3   OH213486   5.649   3.011   3.402  0.2762 -0.2512 -0.5752
 4518TIP3    H113487   5.642   3.033   3.495  1.6727  1.5464 -0.8716
 4518TIP3    H213488   5.576   2.952   3.385  0.5249 -1.3072  1.8671
 4519TIP3   OH213489   2.595   4.357   1.887  0.4341  0.2047 -0.4629
 4519TIP3    H113490   2.594   4.325   1.797  0.8444  2.7773 -1.4030
 4519TIP3    H213491   2.614   4.279   1.940 -0.0777 -1.3721 -2.5591
 4520TIP3   OH213492   4.035   6.666   1.259  0.4897 -0.5430  0.1045
 4520TIP3    H113493   3.993   6.599   1.314 -0.3493 -0.2237 -0.1405
 4520TIP3    H213494   4.065   6.733   1.321 -1.1306  0.1821  0.1190
 4521TIP3   OH213495   1.763   5.938   0.874 -0.1171 -0.0360 -0.9344
 4521TIP3    H113496   1.826   5.921   0.945 -0.7036 -1.1592 -0.6664
 4521TIP3    H213497   1.818   5.964   0.800  0.5707  0.2408 -0.3449
 4522TIP3   OH213498   2.121   4.559   1.297 -0.3286 -0.6768 -0.1869
 4522TIP3    H113499   2.199   4.506   1.281 -1.0793 -2.6104  2.1182
 4522TIP3    H213500   2.142   4.645   1.262  1.9583 -1.7956 -1.6430
 4523TIP3   OH213501   5.077   5.134   1.606 -0.2609  0.2283 -0.6962
 4523TIP3    H113502   5.066   5.185   1.686 -2.6031  0.3175 -1.0421
 4523TIP3    H213503   4.990   5.100   1.586  0.7288 -1.6668 -1.9775
 4524TIP3   OH213504   2.794   3.578   1.973  0.1412 -0.1205 -0.2204
 4524TIP3    H113505   2.832   3.660   2.005 -0.8984  0.2922 -0.0057
 4524TIP3    H213506   2.700   3.597   1.966 -0.0113 -1.0823 -0.8353
 4525TIP3   OH213507   2.422   6.673   1.284 -0.2989  0.3590  0.7364
 4525TIP3    H113508   2.333   6.708   1.289 -1.1150 -1.2329 -1.5358
 4525TIP3    H213509   2.413   6.581   1.312  1.0802  0.8194  2.7750
 4526TIP3   OH213510   4.476   7.503   1.423  0.2057  0.0834  0.6705
 4526TIP3    H113511   4.398   7.449   1.429  0.5485 -0.5113 -0.1747
 4526TIP3    H213512   4.541   7.447   1.381  0.2696  1.4797 -1.1510
 4527TIP3   OH213513   5.733   4.733   0.510 -0.3868 -0.8698  0.5226
 4527TIP3    H113514   5.723   4.824   0.537 -2.0910 -0.6539 -0.7667
 4527TIP3    H213515   5.823   4.728   0.477 -0.7469  0.7339 -0.7744
 4528TIP3   OH213516   1.811   5.451   1.783  0.2946 -0.2680 -0.0311
 4528TIP3    H113517   1.886   5.391   1.788 -0.3747 -1.2716 -1.7275
 4528TIP3    H213518   1.847   5.536   1.806  1.6383 -1.0053  0.6751
 4529TIP3   OH213519   4.310   5.778   2.640  0.3990 -0.6928 -0.0736
 4529TIP3    H113520   4.378   5.824   2.590 -0.7699 -0.7908 -1.8370
 4529TIP3    H213521   4.329   5.685   2.628  1.2207 -0.6962  1.2628
 4530TIP3   OH213522   8.142   2.206   5.168  0.0457  0.5434  0.1020
 4530TIP3    H113523   8.097   2.148   5.230 -0.2594 -0.8768 -1.4145
 4530TIP3    H213524   8.232   2.211   5.203 -0.1643 -0.0918  0.7638
 4531TIP3   OH213525   2.577   5.704   0.169 -0.0623 -0.5547 -0.2201
 4531TIP3    H113526   2.621   5.779   0.129  0.9487 -1.6605 -1.2160
 4531TIP3    H213527   2.534   5.740   0.247  1.3703  0.8333 -0.0546
 4532TIP3   OH213528   5.608   4.010   2.230  0.8767 -0.1565  0.3059
 4532TIP3    H113529   5.592   4.032   2.138  0.7869 -2.1812 -0.1717
 4532TIP3    H213530   5.644   3.921   2.228  1.8882  0.1838  2.1571
 4533TIP3   OH213531   2.810   3.150   0.692 -0.5333  0.6390 -0.2911
 4533TIP3    H113532   2.879   3.174   0.754  0.2846  2.6064 -1.9288
 4533TIP3    H213533   2.742   3.216   0.705 -1.2423 -0.0905 -0.1570
 4534TIP3   OH213534   2.654   2.072   6.457  0.5691 -0.2224  0.1934
 4534TIP3    H113535   2.607   2.126   6.394 -0.7775 -1.2338  0.3182
 4534TIP3    H213536   2.587   2.016   6.496  1.5369 -0.3017  1.8147
 4535TIP3   OH213537   3.400   6.597   1.138  0.5785  0.5406  0.6245
 4535TIP3    H113538   3.394   6.688   1.166 -0.3934  1.5292 -2.6004
 4535TIP3    H213539   3.494   6.577   1.142  0.9791  2.1907 -0.1815
 4536TIP3   OH213540   4.780   7.836   3.005  0.0167 -0.5038 -0.4610
 4536TIP3    H113541   4.694   7.798   2.987 -0.0891 -0.2281 -0.5492
 4536TIP3    H213542   4.765   7.931   3.006  0.4392 -0.4282 -1.1116
 4537TIP3   OH213543   4.315   7.051   1.246 -0.0111  0.3219  0.2051
 4537TIP3    H113544   4.359   7.044   1.331 -0.6614 -1.7284  0.3977
 4537TIP3    H213545   4.223   7.065   1.267 -0.0011  0.9571 -0.1708
 4538TIP3   OH213546   2.677   3.300   1.412  0.3359 -0.6760 -0.4986
 4538TIP3    H113547   2.739   3.357   1.458  1.8387 -2.5590 -0.1173
 4538TIP3    H213548   2.710   3.211   1.428 -1.4266 -1.6014 -1.8467
 4539TIP3   OH213549   4.719   5.244   1.071  0.1108 -0.0032  0.1591
 4539TIP3    H113550   4.776   5.321   1.070 -0.4352  0.4119  0.9312
 4539TIP3    H213551   4.667   5.252   0.991  0.2346  0.3025  0.1077
 4540TIP3   OH213552   2.506   5.381   1.332  0.1460  0.0619  0.3814
 4540TIP3    H113553   2.574   5.410   1.271  0.2673  1.1125  1.0050
 4540TIP3    H213554   2.424   5.395   1.285  0.3066 -0.3294 -0.0199
 4541TIP3   OH213555   3.777   3.932   0.647 -0.3420  0.2395 -0.0089
 4541TIP3    H113556   3.869   3.948   0.666 -0.0678 -1.1532 -0.1378
 4541TIP3    H213557   3.732   4.010   0.680  0.6849  0.1442  1.6673
 4542TIP3   OH213558   4.882   5.957   3.650  0.4730  0.6604  0.1117
 4542TIP3    H113559   4.935   5.943   3.572  0.8522 -0.9651  0.6410
 4542TIP3    H213560   4.804   5.903   3.635  0.1574  1.0078  0.4899
 4543TIP3   OH213561   5.034   6.844   0.004  0.1022  0.0046  0.3083
 4543TIP3    H113562   5.123   6.879   0.006  0.0618  0.0596  2.0590
 4543TIP3    H213563   5.037   6.768   0.062 -1.3532  0.9316  1.6233
 4544TIP3   OH213564   4.019   4.473   1.658 -0.0750  0.3631 -0.0876
 4544TIP3    H113565   4.047   4.385   1.634  0.5952  0.4284  0.4445
 4544TIP3    H213566   3.930   4.461   1.692 -0.4371  0.0599 -1.1121
 4545TIP3   OH213567   4.447   6.344   1.734 -0.4910 -0.1030 -0.0949
 4545TIP3    H113568   4.417   6.381   1.651 -1.1109 -1.0807 -0.3148
 4545TIP3    H213569   4.395   6.388   1.800 -0.1017  0.5727 -0.2356
 4546TIP3   OH213570   5.054   5.882   1.275 -0.2374 -0.2572 -0.2636
 4546TIP3    H113571   5.019   5.939   1.342 -2.8090  0.2748 -1.9784
 4546TIP3    H213572   5.142   5.858   1.306 -1.0237  0.6602  2.7988
 4547TIP3   OH213573   4.625   6.311   3.470  0.2640  0.3673  0.9040
 4547TIP3    H113574   4.679   6.359   3.406 -1.6290  3.6220  1.6394
 4547TIP3    H213575   4.553   6.276   3.418 -0.2322  1.3599  0.9039
 4548TIP3   OH213576   2.264   4.488   2.041  0.5367 -0.2273  0.9156
 4548TIP3    H113577   2.294   4.445   1.962  0.9115  1.2041  0.2684
 4548TIP3    H213578   2.204   4.425   2.082  0.1512 -0.8707 -0.6315
 4549TIP3   OH213579   1.260   6.019   0.923  0.5408 -0.7744  0.4231
 4549TIP3    H113580   1.266   6.047   1.014 -0.7119 -1.5334  0.7530
 4549TIP3    H213581   1.319   5.945   0.916  1.6009  0.0629  0.2873
 4550TIP3   OH213582   3.380   6.165   3.209 -1.1169 -0.1316 -0.5051
 4550TIP3    H113583   3.296   6.194   3.173 -0.6517  0.5522 -1.0442
 4550TIP3    H213584   3.363   6.155   3.303 -1.8877 -0.3123 -0.6615
 4551TIP3   OH213585   5.427   6.997   2.571  0.1870 -0.4569  0.6592
 4551TIP3    H113586   5.467   6.991   2.658  0.7461 -4.2335  0.2194
 4551TIP3    H213587   5.376   6.917   2.563 -1.5661  0.8495 -1.7083
 4552TIP3   OH213588   4.312   7.692   1.928 -0.4174  0.1456  0.2968
 4552TIP3    H113589   4.265   7.692   1.844 -0.4948 -0.1583  0.3392
 4552TIP3    H213590   4.360   7.609   1.928 -0.7369 -0.0396  0.7311
 4553TIP3   OH213591   4.709   5.913   1.341  0.2409 -0.4296 -0.0849
 4553TIP3    H113592   4.704   5.978   1.271 -1.3019 -0.2160  0.1904
 4553TIP3    H213593   4.619   5.905   1.372  0.4519 -2.5265  0.0628
 4554TIP3   OH213594   1.292   2.970   6.845  0.0931 -0.1623 -0.2652
 4554TIP3    H113595   1.382   2.960   6.875 -0.0869  0.2786  0.4435
 4554TIP3    H213596   1.278   3.065   6.841 -0.3802 -0.2276 -0.2343
 4555TIP3   OH213597   2.427   2.790   0.912  0.2897  0.2473 -0.3392
 4555TIP3    H113598   2.385   2.832   0.988  0.4410  1.3221 -0.8405
 4555TIP3    H213599   2.373   2.713   0.895 -0.3843  0.5864  0.1951
 4556TIP3   OH213600   4.470   7.092   3.164 -0.8868  0.4285  0.6195
 4556TIP3    H113601   4.524   7.166   3.192 -3.0780  2.3401 -0.0786
 4556TIP3    H213602   4.520   7.050   3.094  0.4151  1.1804  1.0825
 4557TIP3   OH213603   3.774   6.072   4.732  0.3178 -0.2704  0.1549
 4557TIP3    H113604   3.825   6.140   4.776 -0.1019  0.2154 -0.1052
 4557TIP3    H213605   3.740   6.018   4.803 -1.0845  1.0204  0.4989
 4558TIP3   OH213606   1.599   7.291   1.423  0.3514  0.2232  0.6044
 4558TIP3    H113607   1.529   7.275   1.486  0.1657  0.5759  0.4869
 4558TIP3    H213608   1.622   7.204   1.390 -0.8282  0.2253 -0.2282
 4559TIP3   OH213609   3.432   4.387   2.455 -0.2583  0.2356 -0.0689
 4559TIP3    H113610   3.393   4.388   2.368  0.7733 -1.7565 -0.5697
 4559TIP3    H213611   3.376   4.329   2.507  0.6012 -0.6365 -0.1115
 4560TIP3   OH213612   3.683   6.371   0.912  0.0894 -0.5268  0.0571
 4560TIP3    H113613   3.603   6.319   0.910 -0.0114 -0.4058  0.6053
 4560TIP3    H213614   3.708   6.371   1.005  1.2881 -1.4167 -0.2604
 4561TIP3   OH213615   4.209   5.537   0.792  0.2701 -0.0489 -0.1219
 4561TIP3    H113616   4.236   5.529   0.884 -0.8879  2.1154  0.4328
 4561TIP3    H213617   4.119   5.568   0.796 -0.1403 -0.9249 -2.0040
 4562TIP3   OH213618   3.549   3.102   0.551 -0.0675  0.0298  0.2636
 4562TIP3    H113619   3.582   3.186   0.584 -0.0433  0.0239  0.2544
 4562TIP3    H213620   3.607   3.036   0.590 -0.2212  0.0029  0.4471
 4563TIP3   OH213621   5.048   6.152   1.514  0.2564 -0.3507  0.0740
 4563TIP3    H113622   4.977   6.155   1.578  0.0434  1.4417 -0.2208
 4563TIP3    H213623   5.128   6.163   1.565  0.2596 -1.3412  0.2912
 4564TIP3   OH213624   1.753   4.448   3.794  0.0592 -0.4723  0.3560
 4564TIP3    H113625   1.780   4.533   3.829 -1.8818  0.1642  0.4037
 4564TIP3    H213626   1.658   4.457   3.780  0.3150 -1.5944 -2.5672
 4565TIP3   OH213627   1.622   5.244   1.151 -0.7628  0.0027  0.3109
 4565TIP3    H113628   1.663   5.181   1.210  1.3415 -0.7988 -1.9289
 4565TIP3    H213629   1.634   5.329   1.194  2.0060 -0.3992  0.3882
 4566TIP3   OH213630   2.664   5.003   3.101  0.2830 -0.2734  0.6743
 4566TIP3    H113631   2.719   4.987   3.024  0.1593  1.4590  0.2082
 4566TIP3    H213632   2.704   4.951   3.171  0.6736 -1.4905 -0.4248
 4567TIP3   OH213633   4.804   7.245   3.356  0.0134 -0.3021 -0.1347
 4567TIP3    H113634   4.771   7.166   3.400  2.0446 -1.4635 -0.6388
 4567TIP3    H213635   4.774   7.317   3.412  1.7090 -1.6870  2.7342
 4568TIP3   OH213636   3.764   5.214   1.543  0.3776  0.1861  0.3291
 4568TIP3    H113637   3.857   5.194   1.544  0.3423  0.0064  1.6588
 4568TIP3    H213638   3.722   5.132   1.518  0.5530  0.1508  0.1465
 4569TIP3   OH213639   4.744   4.549   3.385  0.0801  0.3136 -0.1881
 4569TIP3    H113640   4.765   4.624   3.330  0.8076  0.4654  0.2892
 4569TIP3    H213641   4.668   4.576   3.435 -0.2774  0.3607 -0.7474
 4570TIP3   OH213642   4.321   3.371   0.240 -0.0551 -0.3960  0.5345
 4570TIP3    H113643   4.330   3.313   0.316 -2.2065 -1.6590 -0.1125
 4570TIP3    H213644   4.307   3.457   0.278  0.4865 -0.7481  1.5602
 4571TIP3   OH213645   5.574   3.696   1.288  0.3907  0.3454  0.1684
 4571TIP3    H113646   5.552   3.695   1.195 -0.9855 -0.0024  0.4884
 4571TIP3    H213647   5.603   3.786   1.305  1.8304  0.0936 -0.8504
 4572TIP3   OH213648   3.276   4.083   1.540 -0.1294  0.4602  1.0300
 4572TIP3    H113649   3.356   4.057   1.585 -0.7235 -0.5585  1.5189
 4572TIP3    H213650   3.228   4.137   1.604 -0.3091  0.2145  1.1027
 4573TIP3   OH213651   1.138   0.441   5.694 -0.7460 -0.6635  0.4009
 4573TIP3    H113652   1.058   0.388   5.695 -1.4865  0.4124  0.2074
 4573TIP3    H213653   1.152   0.460   5.601  0.2152 -1.5393  0.3595
 4574TIP3   OH213654   3.277   7.103   2.386  0.2273  0.3048  0.4905
 4574TIP3    H113655   3.308   7.014   2.399 -0.6183  0.1500  1.5133
 4574TIP3    H213656   3.337   7.140   2.321  0.6073 -0.9846  0.0897
 4575TIP3   OH213657   7.455   0.059   1.912 -0.9382 -0.1846 -0.0673
 4575TIP3    H113658   7.488   0.148   1.896  1.0001 -1.0573 -1.0799
 4575TIP3    H213659   7.416   0.032   1.829 -0.7200 -0.6149 -0.0294
 4576TIP3   OH213660   3.268   6.804   2.297  0.1050 -0.3047 -0.0876
 4576TIP3    H113661   3.356   6.769   2.309  0.4623  0.4900 -0.3495
 4576TIP3    H213662   3.231   6.753   2.225  1.6627  1.7384 -2.4226
 4577TIP3   OH213663   4.265   7.305   1.988 -0.2015 -0.0750  0.4833
 4577TIP3    H113664   4.310   7.249   2.051 -2.1680 -0.1040  1.8905
 4577TIP3    H213665   4.233   7.245   1.921 -1.2519 -0.5222  1.3616
 4578TIP3   OH213666   4.206   6.219   0.661 -0.1300  0.7798  1.0809
 4578TIP3    H113667   4.273   6.183   0.720 -0.7991  0.2430  1.5200
 4578TIP3    H213668   4.123   6.194   0.702 -0.5961  1.4601  0.5439
 4579TIP3   OH213669   3.241   3.856   0.098 -0.5077  0.5396 -0.4627
 4579TIP3    H113670   3.228   3.798   0.173 -0.2916  0.1230 -0.7428
 4579TIP3    H213671   3.212   3.804   0.023  0.0712  0.6480 -0.7628
 4580TIP3   OH213672   0.509   5.379   0.572  0.4952  0.3683  0.6357
 4580TIP3    H113673   0.471   5.419   0.493  0.7264 -0.8956 -0.1247
 4580TIP3    H213674   0.519   5.452   0.633  0.2464  1.3581 -0.4835
 4581TIP3   OH213675   5.987   4.366   1.984 -0.2566 -0.1858  0.3578
 4581TIP3    H113676   5.900   4.357   2.024 -1.2079  0.8440 -1.4134
 4581TIP3    H213677   6.005   4.460   1.986  0.9441 -0.4249  0.9695
 4582TIP3   OH213678   3.916   2.482   0.873 -0.0737 -0.1330 -0.4284
 4582TIP3    H113679   3.981   2.465   0.941  0.3108 -0.6121 -0.9137
 4582TIP3    H213680   3.967   2.504   0.795 -0.5333  1.3397 -0.3270
 4583TIP3   OH213681   2.375   3.455   1.545  0.2076 -0.6039 -0.0949
 4583TIP3    H113682   2.320   3.532   1.552  1.2180  0.0161  1.2587
 4583TIP3    H213683   2.392   3.446   1.451 -1.1551 -0.0810 -0.4031
 4584TIP3   OH213684   4.133   6.757   3.127  0.6481 -0.6555 -0.3918
 4584TIP3    H113685   4.106   6.840   3.167 -0.1750 -1.1012 -0.0240
 4584TIP3    H213686   4.060   6.698   3.142  0.8202 -1.1670 -1.5399
 4585TIP3   OH213687   1.637   5.132   3.203  0.1160  0.3074  0.2623
 4585TIP3    H113688   1.632   5.101   3.113 -2.6485  0.9027  0.1514
 4585TIP3    H213689   1.662   5.224   3.195 -0.3366  0.4167  0.0798
 4586TIP3   OH213690   2.040   6.263   2.034  0.1668  0.0723  0.4400
 4586TIP3    H113691   1.965   6.301   2.079 -1.2454 -0.8836 -1.0250
 4586TIP3    H213692   2.028   6.289   1.942  0.8518 -1.2545 -0.0403
 4587TIP3   OH213693   1.600   3.195   0.837 -0.0795 -0.2116  0.1211
 4587TIP3    H113694   1.571   3.222   0.750 -0.6272  0.7917  0.6118
 4587TIP3    H213695   1.533   3.228   0.896  0.2487 -0.9624  0.9211
 4588TIP3   OH213696   2.303   5.154   0.550 -0.3645 -0.3168 -0.1135
 4588TIP3    H113697   2.388   5.168   0.592 -1.2229  0.0790  1.5197
 4588TIP3    H213698   2.323   5.099   0.473  1.1959 -1.2141  0.9056
 4589TIP3   OH213699   5.038   4.136   1.678  0.2678 -0.2670 -0.1070
 4589TIP3    H113700   5.048   4.053   1.631  1.0119 -0.6550  0.7176
 4589TIP3    H213701   5.028   4.110   1.770 -1.1127  0.4805 -0.0280
 4590TIP3   OH213702   4.098   6.184   1.590  0.6960 -0.3802  0.2383
 4590TIP3    H113703   4.092   6.090   1.605 -0.2542 -0.4221 -0.3540
 4590TIP3    H213704   4.053   6.223   1.665  0.6672 -0.4120  0.2373
 4591TIP3   OH213705   4.936   4.665   0.344 -0.3240 -0.3743 -0.0800
 4591TIP3    H113706   4.889   4.585   0.321  0.4936  0.0948 -3.6633
 4591TIP3    H213707   5.007   4.635   0.401 -1.3613 -1.8925  0.4500
 4592TIP3   OH213708   3.061   4.753   5.023  0.6511 -0.5010 -0.5982
 4592TIP3    H113709   3.066   4.747   5.118  0.1443 -2.3949 -0.6594
 4592TIP3    H213710   2.995   4.688   4.998  1.5778 -0.8241 -2.3196
 4593TIP3   OH213711   6.512   0.355   2.489  0.3333 -0.0321  0.2775
 4593TIP3    H113712   6.534   0.353   2.396  2.2470 -0.6834  0.7206
 4593TIP3    H213713   6.531   0.445   2.517  1.5054 -0.3149  0.4242
 4594TIP3   OH213714   2.190   4.745   1.636  0.2793 -0.3903 -0.2861
 4594TIP3    H113715   2.229   4.801   1.703 -0.0902 -0.8459  0.3260
 4594TIP3    H213716   2.200   4.793   1.554 -1.5209  1.3263  0.4540
 4595TIP3   OH213717   2.299   3.855   0.265 -0.1438 -0.0872 -0.1777
 4595TIP3    H113718   2.238   3.786   0.290 -1.8175  1.4063 -0.0797
 4595TIP3    H213719   2.257   3.936   0.294 -0.2935  1.3861 -4.1967
 4596TIP3   OH213720   3.562   5.659   1.326  0.4770  0.2743 -0.3612
 4596TIP3    H113721   3.648   5.619   1.341  0.5806  0.8585  0.6947
 4596TIP3    H213722   3.505   5.585   1.306  0.8376 -0.3320  0.7848
 4597TIP3   OH213723   4.202   6.401   2.824  0.1016  0.1755  0.0413
 4597TIP3    H113724   4.149   6.470   2.783  0.9990  1.3348  0.8139
 4597TIP3    H213725   4.148   6.322   2.817 -1.0723  1.0178 -0.5588
 4598TIP3   OH213726   4.708   4.556   2.510 -0.1279  0.5878  0.0947
 4598TIP3    H113727   4.620   4.538   2.543 -0.9416  1.9662 -1.2790
 4598TIP3    H213728   4.695   4.621   2.442  1.6971 -1.0554 -1.8807
 4599TIP3   OH213729   6.310   6.219   2.100  0.2309 -0.0353 -0.0078
 4599TIP3    H113730   6.216   6.224   2.116  0.0363 -0.2383 -1.0425
 4599TIP3    H213731   6.349   6.214   2.187 -0.7703 -0.8619  0.4028
 4600TIP3   OH213732   4.441   7.184   3.899  0.1502  0.3095  0.2611
 4600TIP3    H113733   4.506   7.115   3.913  0.0637  0.0048 -0.7969
 4600TIP3    H213734   4.442   7.234   3.980 -0.4401 -1.4702  1.4056
 4601TIP3   OH213735   6.394   0.093   2.568  0.2432 -0.0091  0.5719
 4601TIP3    H113736   6.308   0.094   2.609  1.4096  0.4384  3.1068
 4601TIP3    H213737   6.409   0.183   2.540 -0.8838 -0.4733 -1.6288
 4602TIP3   OH213738   3.242   5.712   0.556 -0.0605 -0.1769 -0.4251
 4602TIP3    H113739   3.162   5.760   0.576 -0.1132  0.2703 -1.6483
 4602TIP3    H213740   3.227   5.677   0.468  1.5280  0.9032 -1.1554
 4603TIP3   OH213741   4.661   5.824   3.322  0.3669  0.6790 -0.1486
 4603TIP3    H113742   4.718   5.817   3.246  2.1318 -0.8483  1.2755
 4603TIP3    H213743   4.578   5.784   3.293  0.2936  2.0508 -1.9189
 4604TIP3   OH213744   8.201   0.620   6.292  0.3763 -0.1781 -0.1501
 4604TIP3    H113745   8.167   0.702   6.256 -2.3184 -1.0393  0.2765
 4604TIP3    H213746   8.266   0.590   6.229 -0.5450  0.9298 -1.6445
 4605TIP3   OH213747   3.355   4.545   3.018  0.2039  0.3759 -0.2451
 4605TIP3    H113748   3.375   4.499   3.099  0.2678  0.7330 -0.0580
 4605TIP3    H213749   3.260   4.538   3.009  0.4695 -2.1563 -1.6317
 4606TIP3   OH213750   1.651   4.546   2.804  0.5015 -0.0745 -0.1931
 4606TIP3    H113751   1.745   4.537   2.789  0.3854 -2.0407  0.0371
 4606TIP3    H213752   1.611   4.486   2.741 -0.6072  0.7957 -0.3370
 4607TIP3   OH213753   2.674   5.622   0.466  0.1705  0.0791  0.3285
 4607TIP3    H113754   2.578   5.617   0.461  0.2540  0.4276 -2.4269
 4607TIP3    H213755   2.702   5.532   0.478 -0.5420  0.0985  2.2592
 4608TIP3   OH213756   3.667   4.718   0.543 -0.1907 -0.5183 -0.0071
 4608TIP3    H113757   3.578   4.716   0.578  0.3823 -0.6908  1.4832
 4608TIP3    H213758   3.714   4.780   0.599  0.6799 -0.6029 -0.6272
 4609TIP3   OH213759   5.161   4.778   0.852 -0.3872 -0.5886  0.3415
 4609TIP3    H113760   5.253   4.754   0.863 -0.3479 -0.4959  0.2076
 4609TIP3    H213761   5.113   4.707   0.896 -0.2565 -0.6848  0.3315
 4610TIP3   OH213762   4.160   7.281   0.998 -0.2601  0.1939 -0.1938
 4610TIP3    H113763   4.204   7.366   1.000  1.1879 -0.4782 -1.8702
 4610TIP3    H213764   4.227   7.218   1.025 -0.8437 -0.5947 -0.5577
 4611TIP3   OH213765   1.922   3.379   5.777 -0.2645 -0.6139  0.2544
 4611TIP3    H113766   1.830   3.363   5.798 -0.4705  0.3325  0.0843
 4611TIP3    H213767   1.962   3.292   5.779 -0.9498 -0.9243  1.3466
 4612TIP3   OH213768   1.737   1.893   5.296  0.1424  0.1307  0.3532
 4612TIP3    H113769   1.729   1.984   5.270 -0.1972  0.3791  1.2958
 4612TIP3    H213770   1.777   1.849   5.221 -0.3832  0.9060 -0.3795
 4613TIP3   OH213771   5.040   5.259   0.808 -0.4330 -0.1633 -0.0288
 4613TIP3    H113772   5.031   5.195   0.738  0.7258 -0.4709  0.0796
 4613TIP3    H213773   5.034   5.207   0.888 -0.7130  0.0362  0.0785
 4614TIP3   OH213774   6.052   0.781   2.245  0.3764 -0.1883 -0.8983
 4614TIP3    H113775   6.008   0.746   2.323 -0.8776  1.7554 -0.6968
 4614TIP3    H213776   5.988   0.770   2.175  0.9079 -0.5004 -1.3382
 4615TIP3   OH213777   5.022   7.831   6.803  0.3341  0.1854 -0.4073
 4615TIP3    H113778   5.043   7.920   6.830  0.4046  0.0061  0.1480
 4615TIP3    H213779   4.947   7.807   6.857  0.2568 -0.0583 -0.6216
 4616TIP3   OH213780   1.730   1.977   6.577 -0.2030 -0.3526 -0.0787
 4616TIP3    H113781   1.705   2.012   6.491  1.3239  0.8987 -0.0194
 4616TIP3    H213782   1.651   1.986   6.630 -1.0522 -0.8000 -1.2451
 4617TIP3   OH213783   3.367   7.470   1.128  0.2637  0.7764 -1.0375
 4617TIP3    H113784   3.274   7.471   1.152  0.3779 -2.4817 -0.2021
 4617TIP3    H213785   3.367   7.469   1.032 -0.4820  3.0072 -1.0771
 4618TIP3   OH213786   5.819   2.685   3.270 -0.6484  0.3001  0.1866
 4618TIP3    H113787   5.892   2.657   3.325  0.1716  0.5101 -0.7725
 4618TIP3    H213788   5.750   2.620   3.287  0.0424 -0.3556  0.5233
 4619TIP3   OH213789   4.862   5.450   0.811  0.0831 -0.3339 -0.0417
 4619TIP3    H113790   4.859   5.478   0.902  1.8226  2.7822 -0.8604
 4619TIP3    H213791   4.937   5.390   0.806  0.7691  0.4759  0.3630
 4620TIP3   OH213792   2.330   7.312   1.037 -0.4039  0.1285  0.3812
 4620TIP3    H113793   2.315   7.226   0.997 -0.2052 -0.1654  0.9316
 4620TIP3    H213794   2.276   7.311   1.115 -2.3616  1.4791 -0.9143
 4621TIP3   OH213795   3.615   3.327   1.369  0.2677 -0.1329 -0.0981
 4621TIP3    H113796   3.587   3.302   1.281  0.1769  0.3423 -0.2058
 4621TIP3    H213797   3.556   3.398   1.394  0.2211 -0.3417  0.3904
 4622TIP3   OH213798   3.509   4.821   0.924  0.3321 -0.5141  0.0087
 4622TIP3    H113799   3.501   4.908   0.965 -0.1558 -0.1794 -0.7882
 4622TIP3    H213800   3.604   4.807   0.917  0.4303  0.5919 -1.1746
 4623TIP3   OH213801   2.295   4.283   1.019  0.5925  1.0104 -0.0593
 4623TIP3    H113802   2.241   4.353   0.984 -2.3109 -0.3985  1.4000
 4623TIP3    H213803   2.286   4.211   0.957  1.7008  1.1296 -0.3720
 4624TIP3   OH213804   3.590   7.363   2.584  0.1403  0.0083 -0.1683
 4624TIP3    H113805   3.502   7.397   2.601  1.2075  1.6223  2.5232
 4624TIP3    H213806   3.628   7.424   2.521 -0.5303 -0.5110 -1.0869
 4625TIP3   OH213807   4.896   4.107   3.328  0.1701  0.4779 -0.0581
 4625TIP3    H113808   4.984   4.144   3.331  0.0658  0.6525  1.1870
 4625TIP3    H213809   4.840   4.181   3.305  0.4164  0.2084 -1.6086
 4626TIP3   OH213810   3.727   3.608   2.434  0.2680 -0.6076  0.3623
 4626TIP3    H113811   3.801   3.550   2.454  0.1357 -0.8143  0.2591
 4626TIP3    H213812   3.749   3.691   2.477  0.5766 -0.6561  0.3004
 4627TIP3   OH213813   3.422   4.981   1.274 -0.3316  0.2684 -0.1730
 4627TIP3    H113814   3.438   5.055   1.333 -0.6991 -0.9266  1.4577
 4627TIP3    H213815   3.452   5.011   1.188 -0.9836  2.5057  0.3565
 4628TIP3   OH213816   2.279   5.432   0.470  0.1831 -0.4635 -0.1666
 4628TIP3    H113817   2.297   5.351   0.517  0.3102 -0.9882 -1.1236
 4628TIP3    H213818   2.305   5.415   0.380 -1.5314  0.0201 -0.7756
 4629TIP3   OH213819   3.431   4.570   1.074 -0.7907  0.0349  0.0435
 4629TIP3    H113820   3.525   4.583   1.082 -0.6428 -0.3325 -1.0018
 4629TIP3    H213821   3.397   4.656   1.048 -0.6191 -0.0685 -0.5299
 4630TIP3   OH213822   3.390   7.082   1.461  0.0651 -0.8899 -0.1113
 4630TIP3    H113823   3.482   7.104   1.443 -0.2662  0.7693  0.1595
 4630TIP3    H213824   3.361   7.034   1.382  0.5590  0.4128 -1.0999
 4631TIP3   OH213825   3.626   6.500   0.588  0.6084 -0.1136  0.3260
 4631TIP3    H113826   3.578   6.452   0.520  0.9127 -0.5518  0.4188
 4631TIP3    H213827   3.558   6.546   0.637  0.3631 -0.0206 -0.1007
 4632TIP3   OH213828   0.573   6.327   1.298  0.5789 -0.3093 -0.2616
 4632TIP3    H113829   0.602   6.244   1.336 -0.7430 -0.4365  0.5271
 4632TIP3    H213830   0.498   6.352   1.352  0.4360  0.9646 -1.0391
 4633TIP3   OH213831   3.675   7.000   1.021 -0.4600  0.2038  0.4742
 4633TIP3    H113832   3.649   6.943   1.094 -0.2069 -0.3800  0.1120
 4633TIP3    H213833   3.766   7.023   1.040  0.0692 -1.1031 -0.3752
 4634TIP3   OH213834   2.902   6.778   1.389  0.1917 -0.5625  0.0144
 4634TIP3    H113835   2.814   6.812   1.374  0.8641  1.2192  0.0110
 4634TIP3    H213836   2.909   6.772   1.484 -0.9704 -3.5544 -0.0489
 4635TIP3   OH213837   4.102   6.812   0.820 -0.5337  0.3343  0.3526
 4635TIP3    H113838   4.153   6.760   0.758 -2.8175 -1.1713 -0.3350
 4635TIP3    H213839   4.065   6.748   0.881 -0.2332  1.5615  1.8815
 4636TIP3   OH213840   2.646   6.532   3.587 -0.1548 -0.4066  0.2636
 4636TIP3    H113841   2.659   6.437   3.590  1.2285 -0.2165  0.5996
 4636TIP3    H213842   2.726   6.568   3.625  0.5012  0.9817 -2.3446
 4637TIP3   OH213843   2.825   5.662   2.501 -0.2779 -0.3177 -0.8479
 4637TIP3    H113844   2.872   5.591   2.547 -1.0508 -1.5265 -1.8863
 4637TIP3    H213845   2.895   5.719   2.468  0.3139  0.1957  1.1920
 4638TIP3   OH213846   4.116   0.545   2.266 -0.6490 -0.4095 -0.0076
 4638TIP3    H113847   4.079   0.594   2.192  0.3513 -1.3924 -1.1875
 4638TIP3    H213848   4.208   0.533   2.242  0.3953  1.6388  2.6745
 4639TIP3   OH213849   3.962   6.974   1.717 -0.1394  0.0533 -0.1254
 4639TIP3    H113850   4.031   6.907   1.719 -1.1270 -0.9795 -0.4125
 4639TIP3    H213851   3.905   6.952   1.790 -1.5879 -0.6472 -1.4228
 4640TIP3   OH213852   1.617   6.845   3.402 -0.8435  0.5789 -0.4861
 4640TIP3    H113853   1.674   6.776   3.367  0.0481  0.8031  0.5065
 4640TIP3    H213854   1.618   6.913   3.335  0.0220  0.5615 -0.4933
 4641TIP3   OH213855   1.067   0.702   6.602 -0.4748  0.3295 -0.5272
 4641TIP3    H113856   1.005   0.630   6.593  0.7375 -0.8313  0.2086
 4641TIP3    H213857   1.075   0.739   6.514  0.8184 -2.0567 -1.4608
 4642TIP3   OH213858   7.082   2.366   6.866 -0.1571 -0.3800 -0.6800
 4642TIP3    H113859   7.098   2.332   6.954  0.2330  0.6809 -0.3383
 4642TIP3    H213860   6.997   2.330   6.841  0.6039 -2.2419 -0.6376
 4643TIP3   OH213861   4.868   6.184   2.766  0.6619  0.2294  0.1839
 4643TIP3    H113862   4.949   6.137   2.748  0.5085 -0.5989  1.5998
 4643TIP3    H213863   4.876   6.213   2.857 -1.7803 -2.2968  1.2900
 4644TIP3   OH213864   1.963   5.808   1.009 -0.0651  0.1821  0.6236
 4644TIP3    H113865   1.906   5.731   1.011  1.7363 -1.1690  1.4727
 4644TIP3    H213866   2.016   5.797   0.930  0.6898  0.1872  1.1244
 4645TIP3   OH213867   3.863   6.406   2.903  0.1419 -0.8741  0.0758
 4645TIP3    H113868   3.767   6.397   2.905 -0.1755  2.2190  0.3111
 4645TIP3    H213869   3.895   6.316   2.898 -2.8099 -1.9176 -1.0347
 4646TIP3   OH213870   2.268   4.953   1.454 -0.8355 -0.4621 -0.5077
 4646TIP3    H113871   2.296   5.041   1.477 -0.6843 -0.7519  0.4475
 4646TIP3    H213872   2.248   4.957   1.360  0.7491  0.1650 -0.8244
 4647TIP3   OH213873   1.649   5.499   2.011  0.0693 -0.4808 -0.0648
 4647TIP3    H113874   1.560   5.481   1.980 -0.7200  2.6995  0.1100
 4647TIP3    H213875   1.701   5.508   1.932 -0.9091  2.7731 -0.4057
 4648TIP3   OH213876   4.466   5.421   0.736  0.0789 -0.4086 -0.7353
 4648TIP3    H113877   4.503   5.497   0.781  0.7638 -0.4675 -1.1947
 4648TIP3    H213878   4.376   5.446   0.717  0.0627 -0.0219 -0.1719
 4649TIP3   OH213879   6.402   4.825   1.382 -0.4933 -0.0879  0.0770
 4649TIP3    H113880   6.361   4.812   1.468  1.1522 -0.7313  0.7835
 4649TIP3    H213881   6.329   4.825   1.321 -1.8874  2.4514  1.6846
 4650TIP3   OH213882   1.570   5.306   4.345 -0.1451  0.0502  0.1200
 4650TIP3    H113883   1.621   5.238   4.389 -0.0666  0.4572  0.6666
 4650TIP3    H213884   1.479   5.283   4.360 -0.1179  0.2035  0.5200
 4651TIP3   OH213885   4.774   5.440   3.487  0.3369 -0.2811  0.0083
 4651TIP3    H113886   4.799   5.379   3.557  1.5310  0.5137  0.2815
 4651TIP3    H213887   4.837   5.423   3.418  0.9522  0.9625  0.2613
 4652TIP3   OH213888   0.749   6.176   3.022 -0.2589  0.5380 -0.0263
 4652TIP3    H113889   0.772   6.087   3.052  0.9745  1.0833  0.7008
 4652TIP3    H213890   0.833   6.216   3.001 -0.8963  1.1770 -1.4202
 4653TIP3   OH213891   5.794   6.907   2.186  0.0859 -0.0606  0.2048
 4653TIP3    H113892   5.869   6.958   2.217 -0.4158  1.0206 -0.3463
 4653TIP3    H213893   5.792   6.921   2.091  0.1678 -1.4081 -0.0062
 4654TIP3   OH213894   5.137   4.785   0.566  0.4958 -0.0170  0.5251
 4654TIP3    H113895   5.092   4.767   0.648  0.7250 -2.6726  0.1091
 4654TIP3    H213896   5.227   4.757   0.581  1.0600  1.4774  0.0365
 4655TIP3   OH213897   3.188   4.837   1.673 -0.7199 -0.8277 -0.4191
 4655TIP3    H113898   3.193   4.873   1.584 -0.7955  0.5597  0.1376
 4655TIP3    H213899   3.118   4.887   1.715  0.5372 -0.2374  0.9918
 4656TIP3   OH213900   6.487   6.161   2.323 -0.2214 -0.5461 -0.1655
 4656TIP3    H113901   6.495   6.089   2.384 -1.6681 -0.4359  0.1681
 4656TIP3    H213902   6.536   6.132   2.245  1.6590 -0.6561  1.0283
 4657TIP3   OH213903   5.147   5.576   1.923  0.4771 -0.0952 -0.0071
 4657TIP3    H113904   5.227   5.614   1.886  0.6214 -0.2117  0.1785
 4657TIP3    H213905   5.077   5.607   1.867  0.5741  0.6010  0.2603
 4658TIP3   OH213906   4.026   5.099   1.602 -0.4258 -0.3269 -0.1301
 4658TIP3    H113907   4.071   5.174   1.640 -0.1300 -1.0034  0.8811
 4658TIP3    H213908   4.061   5.093   1.513  0.4825 -0.0334  0.1997
 4659TIP3   OH213909   4.567   5.186   0.861  0.2136 -0.0929 -0.7315
 4659TIP3    H113910   4.551   5.269   0.816  0.0011  0.6277  0.6404
 4659TIP3    H213911   4.494   5.130   0.833 -0.7301  0.8209 -0.1545
 4660TIP3   OH213912   4.633   7.899   1.188 -0.0097  0.3396 -0.0198
 4660TIP3    H113913   4.681   7.909   1.105 -1.0042 -0.1751 -0.6733
 4660TIP3    H213914   4.541   7.902   1.162 -0.3235 -0.5666  0.9792
 4661TIP3   OH213915   4.478   5.060   1.455 -0.5631  0.0794 -0.1352
 4661TIP3    H113916   4.470   5.077   1.548 -0.1319  0.4706 -0.1625
 4661TIP3    H213917   4.512   4.971   1.449  2.3172  1.0839  0.1830
 4662TIP3   OH213918   6.647   5.680   0.553 -0.0650 -0.2628 -0.3059
 4662TIP3    H113919   6.712   5.610   0.563 -1.5247 -1.3718  1.6142
 4662TIP3    H213920   6.651   5.730   0.634 -0.8764  0.2926 -0.5946
 4663TIP3   OH213921   3.927   7.242   0.878  0.2932  0.2024  0.2311
 4663TIP3    H113922   4.012   7.246   0.923  0.5730  0.4566 -0.3055
 4663TIP3    H213923   3.917   7.329   0.839 -0.5704  0.4237  0.9238
 4664TIP3   OH213924   4.302   6.689   1.945  0.4739 -0.2226  0.2686
 4664TIP3    H113925   4.333   6.617   2.000 -0.8968 -2.1334 -1.3796
 4664TIP3    H213926   4.367   6.695   1.874 -0.1983 -0.8691 -0.4164
 4665TIP3   OH213927   1.719   6.771   1.153  0.5459 -0.0363  0.0710
 4665TIP3    H113928   1.755   6.682   1.155  1.5304  0.3240 -0.7760
 4665TIP3    H213929   1.796   6.828   1.148 -0.0624  0.8895  0.9400
 4666TIP3   OH213930   5.499   5.938   3.326 -0.5666  0.3272  0.1366
 4666TIP3    H113931   5.519   6.019   3.279 -0.7776  0.4159  0.2029
 4666TIP3    H213932   5.494   5.871   3.257  0.7845  0.1457  0.1927
 4667TIP3   OH213933   2.744   2.478   6.820  0.1510  0.3068 -0.2682
 4667TIP3    H113934   2.748   2.538   6.895 -0.9018 -0.0836  0.1130
 4667TIP3    H213935   2.830   2.485   6.779  1.0414 -0.1078  1.4690
 4668TIP3   OH213936   4.267   5.788   2.913  0.3070  0.0984 -0.0809
 4668TIP3    H113937   4.256   5.878   2.943 -0.1153 -0.0756  0.2985
 4668TIP3    H213938   4.280   5.795   2.819  0.2084  0.5520 -0.0609
 4669TIP3   OH213939   5.620   6.623   0.446  0.2091  0.0037 -0.0935
 4669TIP3    H113940   5.539   6.674   0.456  0.0350 -0.1375 -0.7533
 4669TIP3    H213941   5.675   6.677   0.390  0.1882 -0.3524 -0.4525
 4670TIP3   OH213942   3.488   5.191   1.437 -0.4987 -0.0851  0.4308
 4670TIP3    H113943   3.565   5.232   1.475 -0.3964 -0.4649  0.6350
 4670TIP3    H213944   3.419   5.203   1.503 -0.8292  0.9539 -0.0850
 4671TIP3   OH213945   3.947   6.241   0.802  0.2391 -0.4416 -1.4380
 4671TIP3    H113946   3.858   6.241   0.767  0.0721 -0.4685 -1.0215
 4671TIP3    H213947   3.944   6.180   0.876 -0.2845  2.0986  0.7422
 4672TIP3   OH213948   3.367   7.229   2.883 -0.2725  0.3263 -0.0280
 4672TIP3    H113949   3.400   7.299   2.940 -0.9619  0.4478  0.2276
 4672TIP3    H213950   3.401   7.149   2.922  2.2388  0.6424 -1.4943
 4673TIP3   OH213951   4.117   5.127   1.328  0.3020 -0.3586 -0.4653
 4673TIP3    H113952   4.186   5.065   1.304 -0.1316 -0.5628 -1.2011
 4673TIP3    H213953   4.047   5.112   1.264  0.3382  1.1549 -0.8889
 4674TIP3   OH213954   5.070   4.892   3.563  0.2518 -0.0119  0.1355
 4674TIP3    H113955   5.140   4.826   3.562  0.4866  0.2258 -1.6559
 4674TIP3    H213956   5.005   4.857   3.624  0.3715 -1.9237 -0.7872
 4675TIP3   OH213957   3.478   4.071   1.095  0.8562 -0.2169  0.0224
 4675TIP3    H113958   3.522   3.992   1.128 -1.4647 -1.7508 -0.4607
 4675TIP3    H213959   3.415   4.093   1.163  1.7816  1.5088  0.3498
 4676TIP3   OH213960   2.619   5.435   1.084 -0.2827 -0.3232  0.5950
 4676TIP3    H113961   2.600   5.441   0.991 -0.8074 -1.2876  0.6347
 4676TIP3    H213962   2.668   5.515   1.104  1.9372 -1.2274 -1.0151
 4677TIP3   OH213963   4.243   7.956   1.994  0.0416  0.0783  0.1031
 4677TIP3    H113964   4.159   7.913   1.977  0.5122 -0.7068 -0.2767
 4677TIP3    H213965   4.309   7.892   1.965  0.8026  0.1793  1.5565
 4678TIP3   OH213966   4.164   2.076   6.434  0.3685 -0.1422 -0.1224
 4678TIP3    H113967   4.124   2.149   6.483  0.8298 -0.1209  0.2319
 4678TIP3    H213968   4.115   1.999   6.461  1.2990 -0.3008  1.2175
 4679TIP3   OH213969   0.275   0.513   6.117  0.1395  0.2574  0.5366
 4679TIP3    H113970   0.195   0.520   6.170 -0.4083  0.9288 -0.3578
 4679TIP3    H213971   0.336   0.463   6.171 -0.7950 -0.0191  1.3456
 4680TIP3   OH213972   3.157   2.900   6.733  0.3477 -0.0211  0.8478
 4680TIP3    H113973   3.124   2.857   6.654  1.6702 -1.0024  0.8172
 4680TIP3    H213974   3.116   2.986   6.732  0.9155  0.2572 -1.3151
 4681TIP3   OH213975   5.189   2.577   0.409  0.3238 -0.6507  0.1590
 4681TIP3    H113976   5.275   2.536   0.394  0.1626 -1.1909  0.7065
 4681TIP3    H213977   5.199   2.666   0.375  1.3492 -0.4641  0.9354
 4682TIP3   OH213978   4.650   6.284   1.879  0.3345  0.5394 -0.2486
 4682TIP3    H113979   4.583   6.299   1.812 -0.5676  0.1816  0.5467
 4682TIP3    H213980   4.722   6.241   1.834  0.3704  1.6638 -1.2897
 4683TIP3   OH213981   0.273   3.873   2.875 -0.1110 -0.4178 -0.0703
 4683TIP3    H113982   0.218   3.891   2.951  0.3471  0.1813  0.1188
 4683TIP3    H213983   0.353   3.834   2.912 -0.6521 -1.8943 -0.3898
 4684TIP3   OH213984   5.838   4.872   4.599  0.4670  0.2304  0.4334
 4684TIP3    H113985   5.932   4.892   4.594  0.5217 -0.3891 -1.0941
 4684TIP3    H213986   5.795   4.951   4.569  0.5500 -0.0432 -0.4191
 4685TIP3   OH213987   4.613   3.226   2.851  0.1905 -0.2833  0.8842
 4685TIP3    H113988   4.619   3.261   2.940 -0.6337  2.9861 -0.2709
 4685TIP3    H213989   4.528   3.256   2.819  1.0869 -0.1341 -1.4937
 4686TIP3   OH213990   1.412   2.542   0.415 -0.0203 -0.4071 -0.0233
 4686TIP3    H113991   1.433   2.449   0.427 -1.7065 -0.6068  1.7323
 4686TIP3    H213992   1.319   2.543   0.393 -0.0511  0.8743  0.1191
 4687TIP3   OH213993   1.787   3.879   2.827  0.5347 -0.4222 -0.1789
 4687TIP3    H113994   1.806   3.851   2.916 -0.9986 -0.0732  0.2822
 4687TIP3    H213995   1.860   3.936   2.803  0.1191  0.8781  1.5019
 4688TIP3   OH213996   3.783   5.580   3.353  0.8684 -0.2749 -0.2898
 4688TIP3    H113997   3.742   5.523   3.419  0.3553 -1.0143 -1.2255
 4688TIP3    H213998   3.711   5.633   3.319  1.0188 -0.3320 -0.6975
 4689TIP3   OH213999   4.964   2.930   0.697 -0.2685 -0.0493  0.2964
 4689TIP3    H114000   4.904   2.947   0.624  0.2482 -1.1464 -0.3943
 4689TIP3    H214001   4.920   2.863   0.749 -0.3027  0.2041  0.5949
 4690TIP3   OH214002   1.793   6.996   0.952 -0.3700  0.0874 -0.2636
 4690TIP3    H114003   1.846   7.013   1.030 -1.0914 -0.5553  0.3853
 4690TIP3    H214004   1.805   6.903   0.935 -0.3655  0.1881 -0.8115
 4691TIP3   OH214005   6.057   6.639   2.580 -0.0074 -0.0230  0.1105
 4691TIP3    H114006   5.993   6.627   2.510 -0.1392 -0.0672  0.2399
 4691TIP3    H214007   6.139   6.659   2.533  0.0554 -0.7095 -0.0840
 4692TIP3   OH214008   3.138   5.244   1.353  1.0101  0.1044  0.2934
 4692TIP3    H114009   3.162   5.234   1.261  0.3675 -0.0622  0.1436
 4692TIP3    H214010   3.045   5.262   1.352  1.6889  4.0608  0.7050
 4693TIP3   OH214011   3.023   7.109   2.570 -0.1692  0.5264  1.2214
 4693TIP3    H114012   3.047   7.141   2.657 -0.3467  0.4970  1.2820
 4693TIP3    H214013   3.106   7.094   2.526 -0.0744  0.1454  1.5309
 4694TIP3   OH214014   2.519   6.668   0.891  0.0878 -0.0546 -0.5669
 4694TIP3    H114015   2.560   6.699   0.810 -0.4194  0.2428 -0.7148
 4694TIP3    H214016   2.429   6.647   0.865  0.1708 -0.7674 -0.2635
 4695TIP3   OH214017   3.335   4.709   2.381 -0.3729 -0.0397 -0.0493
 4695TIP3    H114018   3.361   4.619   2.365 -0.4008  0.2198 -1.6308
 4695TIP3    H214019   3.264   4.725   2.319  0.6646  1.5509 -0.8408
 4696TIP3   OH214020   4.260   7.628   2.213 -0.0924  0.0927  0.1781
 4696TIP3    H114021   4.297   7.655   2.129 -1.0308  1.9732  0.3440
 4696TIP3    H214022   4.330   7.644   2.276  1.0246 -2.4126 -0.3688
 4697TIP3   OH214023   4.600   5.238   3.255  0.1105 -0.1285 -0.0681
 4697TIP3    H114024   4.687   5.236   3.296 -0.8340 -0.0551  1.9935
 4697TIP3    H214025   4.574   5.146   3.250 -0.8113  0.0167  1.7945
 4698TIP3   OH214026   5.102   0.850   0.174  0.1198 -0.1626 -0.6199
 4698TIP3    H114027   5.179   0.851   0.231  1.1776  0.1619 -2.0318
 4698TIP3    H214028   5.127   0.793   0.101 -1.0451 -0.2161 -0.9792
 4699TIP3   OH214029   1.207   7.239   2.433  0.4232 -0.0212 -0.1617
 4699TIP3    H114030   1.178   7.326   2.407  1.5498  0.5262  0.3806
 4699TIP3    H214031   1.221   7.192   2.351 -0.4657  0.2111 -0.4516
 4700TIP3   OH214032   3.995   5.285   2.472  0.2553  0.0411 -0.1673
 4700TIP3    H114033   4.006   5.221   2.541 -0.5859  0.9943  0.8764
 4700TIP3    H214034   3.913   5.261   2.429 -1.9668  2.4672  2.5301
 4701TIP3   OH214035   2.487   4.728   3.215 -0.1004 -0.0828  0.8136
 4701TIP3    H114036   2.581   4.745   3.217 -0.0090 -0.1320 -1.9734
 4701TIP3    H214037   2.463   4.720   3.307  2.1672  2.2946  1.6832
 4702TIP3   OH214038   1.092   5.038   6.692 -0.6806 -0.2475 -0.3198
 4702TIP3    H114039   1.135   5.028   6.607  0.2886 -0.6070  0.2050
 4702TIP3    H214040   1.164   5.057   6.752 -1.6910  3.5675 -0.1760
 4703TIP3   OH214041   4.164   4.131   1.783 -0.0916 -0.1964 -0.6481
 4703TIP3    H114042   4.174   4.148   1.877  2.5056 -2.5316 -0.4034
 4703TIP3    H214043   4.070   4.123   1.770 -0.4664 -0.6732  1.9312
 4704TIP3   OH214044   4.224   6.718   2.647  0.3714 -0.0297 -0.1395
 4704TIP3    H114045   4.148   6.679   2.689  0.9602 -1.1645 -0.0865
 4704TIP3    H214046   4.221   6.686   2.557  1.0866 -0.5456  0.0117
 4705TIP3   OH214047   4.280   5.512   3.978  0.4552  0.3599 -0.1896
 4705TIP3    H114048   4.271   5.603   4.007 -0.9664  0.8242 -2.0018
 4705TIP3    H214049   4.286   5.517   3.883  1.0704 -1.4078 -0.2682
 4706TIP3   OH214050   1.920   5.013   2.899  0.1190  0.3933  0.1900
 4706TIP3    H114051   1.944   4.969   2.818 -1.9449  0.9036 -0.7437
 4706TIP3    H214052   1.976   4.973   2.966 -2.0086 -4.0764 -0.5146
 4707TIP3   OH214053   3.776   5.528   2.891  0.3208 -0.7530  0.1810
 4707TIP3    H114054   3.862   5.556   2.924  0.2880 -0.4085 -0.0212
 4707TIP3    H214055   3.730   5.495   2.968  0.2312  0.0777  0.4891
 4708TIP3   OH214056   5.123   5.837   3.182  0.3666  0.0720 -0.0993
 4708TIP3    H114057   5.195   5.779   3.159  0.8456  1.2277 -1.5613
 4708TIP3    H214058   5.144   5.920   3.140 -1.3901  0.6805  0.1790
 4709TIP3   OH214059   4.205   3.394   1.663 -0.0321  0.1272  0.0795
 4709TIP3    H114060   4.299   3.379   1.651 -0.2913 -1.5424  0.0446
 4709TIP3    H214061   4.164   3.315   1.629 -1.4185  0.4998  0.8730
 4710TIP3   OH214062   2.644   6.559   1.129  0.7436  0.5620  0.3010
 4710TIP3    H114063   2.579   6.612   1.174  0.9534  2.0484 -1.1016
 4710TIP3    H214064   2.631   6.579   1.036  1.2144 -1.4062 -0.2162
 4711TIP3   OH214065   1.212   2.405   1.017 -0.7148 -0.1987  0.2851
 4711TIP3    H114066   1.197   2.446   0.931 -0.4241 -1.0748 -0.1833
 4711TIP3    H214067   1.273   2.464   1.061 -1.2964  0.5451  0.1052
 4712TIP3   OH214068   4.195   3.491   2.147 -0.1235  0.7646 -0.6088
 4712TIP3    H114069   4.197   3.584   2.170 -0.1273  0.6782 -0.2566
 4712TIP3    H214070   4.151   3.449   2.221 -1.3750  0.6623 -1.3916
 4713TIP3   OH214071   3.651   3.397   3.106 -0.7104 -0.2633 -0.3265
 4713TIP3    H114072   3.632   3.320   3.160 -1.9142  0.9875  1.0524
 4713TIP3    H214073   3.747   3.403   3.107 -0.7467  0.7881  3.2089
 4714TIP3   OH214074   6.875   0.582   3.256 -0.0666  0.1921  0.2955
 4714TIP3    H114075   6.831   0.665   3.269  0.0292  0.2755  0.0941
 4714TIP3    H214076   6.948   0.583   3.318 -0.9555 -0.3854  1.3493
 4715TIP3   OH214077   5.315   3.737   1.700  0.1436 -0.3478 -0.4131
 4715TIP3    H114078   5.260   3.692   1.765 -0.9056 -0.9274 -1.6743
 4715TIP3    H214079   5.297   3.691   1.618 -0.7629  2.1806 -1.6880
 4716TIP3   OH214080   4.131   4.118   1.280 -0.0629  0.1065  0.1473
 4716TIP3    H114081   4.138   4.041   1.338  1.0501  0.2412  0.2072
 4716TIP3    H214082   4.037   4.134   1.273 -0.2177  0.5415  2.5351
 4717TIP3   OH214083   5.651   5.171   0.433 -0.4750  0.6111 -0.0678
 4717TIP3    H114084   5.668   5.094   0.487  3.3192  0.6431 -1.0749
 4717TIP3    H214085   5.712   5.237   0.465 -1.9734  2.4289 -0.8475
 4718TIP3   OH214086   4.176   7.945   0.870 -0.5242  0.0707 -0.6424
 4718TIP3    H114087   4.122   8.014   0.906 -0.4398 -0.2628  0.1271
 4718TIP3    H214088   4.134   7.864   0.898  1.4098 -0.2142  1.6031
 4719TIP3   OH214089   2.189   5.048   3.140  0.4663  0.1123 -0.2610
 4719TIP3    H114090   2.148   5.012   3.218 -0.6741 -0.5344 -1.1529
 4719TIP3    H214091   2.282   5.030   3.152  0.3763  0.5378  1.2114
 4720TIP3   OH214092   4.606   6.886   2.104 -0.1867  0.1593 -0.4465
 4720TIP3    H114093   4.651   6.802   2.106  0.8469  0.6913 -0.7761
 4720TIP3    H214094   4.632   6.929   2.186  0.2098  0.6259 -0.8164
 4721TIP3   OH214095   6.363   0.633   1.435  0.5478 -0.0437  0.3892
 4721TIP3    H114096   6.430   0.632   1.367 -0.4241  1.6850 -0.6469
 4721TIP3    H214097   6.297   0.571   1.405 -0.9800  2.3854 -1.4646
 4722TIP3   OH214098   4.948   6.820   1.072 -0.2678  0.6596 -0.1280
 4722TIP3    H114099   4.860   6.846   1.102  0.2742  1.6982  0.6056
 4722TIP3    H214100   4.996   6.802   1.153  0.4570  0.9574 -0.4862
 4723TIP3   OH214101   3.575   4.834   2.566 -0.2232 -0.6106 -0.2901
 4723TIP3    H114102   3.597   4.886   2.489 -2.7276 -0.1860 -0.7541
 4723TIP3    H214103   3.548   4.749   2.531 -0.5073 -0.7151  0.1719
 4724TIP3   OH214104   3.930   6.989   0.689  0.0406 -0.2126  0.0846
 4724TIP3    H114105   3.998   6.923   0.685 -0.4024 -0.5450 -2.7895
 4724TIP3    H214106   3.977   7.072   0.702  0.6757 -0.8734  2.2045
 4725TIP3   OH214107   6.203   4.410   1.312  0.6776  0.0429 -0.3383
 4725TIP3    H114108   6.201   4.410   1.408 -0.1975  0.2122 -0.3555
 4725TIP3    H214109   6.202   4.502   1.288  0.8019 -0.0008 -0.5143
 4726TIP3   OH214110   5.035   6.319   0.907  0.0577 -0.9911  0.3944
 4726TIP3    H114111   5.015   6.407   0.940  1.9269 -0.2721 -0.3035
 4726TIP3    H214112   5.065   6.334   0.818  1.1985 -2.2595  0.5630
 4727TIP3   OH214113   7.731   6.093   1.815  0.1692 -0.3132  0.2836
 4727TIP3    H114114   7.692   6.018   1.859  0.2431 -0.5158  0.0020
 4727TIP3    H214115   7.661   6.128   1.761  0.5654 -1.0714 -0.7262
 4728TIP3   OH214116   5.517   7.155   2.196  0.6362  0.1425  0.0086
 4728TIP3    H114117   5.578   7.219   2.160 -0.1840  0.7527 -0.2919
 4728TIP3    H214118   5.546   7.142   2.286 -0.7185  2.8200  0.8716
 4729TIP3   OH214119   6.414   4.132   1.957 -0.2971 -0.4290  0.2396
 4729TIP3    H114120   6.322   4.149   1.940 -0.8790 -0.4824  3.1718
 4729TIP3    H214121   6.427   4.154   2.049  2.3933 -1.3373  0.1412
 4730TIP3   OH214122   3.597   7.306   0.538  0.1090 -0.0486 -0.3905
 4730TIP3    H114123   3.637   7.225   0.505  1.6099 -0.1674  1.6038
 4730TIP3    H214124   3.514   7.312   0.492 -0.7623 -3.5900  0.5561
 4731TIP3   OH214125   5.747   7.819   0.924  0.0483  0.2983  0.8085
 4731TIP3    H114126   5.780   7.837   1.012  1.0718 -0.5871  0.6051
 4731TIP3    H214127   5.824   7.793   0.874 -0.7455 -0.5183 -0.0038
 4732TIP3   OH214128   4.447   2.542   6.317 -0.1736  0.5872  0.1618
 4732TIP3    H114129   4.412   2.575   6.234 -1.9235  1.3308  1.1678
 4732TIP3    H214130   4.422   2.608   6.382 -0.6295 -0.9632  1.6189
 4733TIP3   OH214131   4.469   5.880   1.103  0.0302 -0.0675  0.1179
 4733TIP3    H114132   4.514   5.805   1.063  0.3027 -0.8246  1.7964
 4733TIP3    H214133   4.383   5.845   1.128 -1.8365  1.5316 -3.6499
 4734TIP3   OH214134   7.582   0.091   2.963 -0.1152  0.2214 -0.0387
 4734TIP3    H114135   7.534   0.160   2.918 -0.3778  0.5558  0.7299
 4734TIP3    H214136   7.635   0.138   3.028 -1.9447 -0.4255  1.9984
 4735TIP3   OH214137   0.929   2.533   5.857  0.1748  0.3860 -0.0410
 4735TIP3    H114138   0.955   2.491   5.939  2.6046  1.3531 -0.2757
 4735TIP3    H214139   0.963   2.475   5.789  0.4178  0.9029 -0.3616
 4736TIP3   OH214140   6.934   4.065   2.029 -0.4861 -0.2838 -0.3279
 4736TIP3    H114141   6.884   4.068   2.110  1.0250 -1.7194  0.6886
 4736TIP3    H214142   6.899   3.989   1.982  0.1711 -0.8073  0.0196
 4737TIP3   OH214143   5.316   5.394   2.972 -0.0039 -0.0741  0.3039
 4737TIP3    H114144   5.379   5.322   2.981  0.8217  0.3818 -1.5997
 4737TIP3    H214145   5.232   5.350   2.962  0.3220 -0.7489  0.4682
 4738TIP3   OH214146   1.268   2.765   6.661  0.3562  0.5302 -0.1390
 4738TIP3    H114147   1.303   2.706   6.729 -0.2121  0.2006 -0.1295
 4738TIP3    H214148   1.298   2.726   6.579 -0.9461 -0.4112 -0.1909
 4739TIP3   OH214149   6.315   5.502   2.173 -1.0156 -0.2437  0.1387
 4739TIP3    H114150   6.269   5.448   2.108  0.0467  0.4669 -1.2213
 4739TIP3    H214151   6.369   5.562   2.121  0.2951 -0.0481  1.6942
 4740TIP3   OH214152   4.661   6.031   2.999 -0.2934 -0.4599  0.3515
 4740TIP3    H114153   4.671   6.023   2.905  0.5777  1.7266  0.2227
 4740TIP3    H214154   4.721   5.965   3.035 -1.1593 -1.7835 -0.6006
 4741TIP3   OH214155   5.770   6.160   3.344  0.1845 -0.1076 -0.0062
 4741TIP3    H114156   5.750   6.075   3.305  0.7294  0.0744 -0.6984
 4741TIP3    H214157   5.719   6.162   3.425 -0.1501 -0.9222 -0.1904
 4742TIP3   OH214158   2.952   7.396   1.100  0.5317  0.2159 -0.6600
 4742TIP3    H114159   2.860   7.407   1.124  0.3875  0.8705 -1.4560
 4742TIP3    H214160   3.000   7.407   1.182  0.0109  1.7265 -0.5320
 4743TIP3   OH214161   4.953   6.964   1.863  0.0712 -0.3403  0.5344
 4743TIP3    H114162   5.044   6.949   1.887 -0.1882 -0.5362  1.4042
 4743TIP3    H214163   4.938   7.057   1.884  0.5639  0.1686 -1.2482
 4744TIP3   OH214164   5.917   5.430   0.977  0.4818  0.4088 -0.2092
 4744TIP3    H114165   5.970   5.359   0.940 -0.0399 -0.5440  0.8559
 4744TIP3    H214166   5.976   5.473   1.040  0.3665  0.1043  0.1031
 4745TIP3   OH214167   7.872   0.892   2.225 -0.1380  0.2056 -0.4857
 4745TIP3    H114168   7.871   0.798   2.242  0.6783  0.4427  1.0449
 4745TIP3    H214169   7.939   0.904   2.158  1.3453 -0.1084  0.8798
 4746TIP3   OH214170   3.730   5.460   1.426 -0.0593  0.5630 -0.2737
 4746TIP3    H114171   3.748   5.369   1.450 -2.1216  0.5589  1.3752
 4746TIP3    H214172   3.783   5.511   1.488 -2.6103  0.5028  2.0478
 4747TIP3   OH214173   5.571   5.909   1.250 -0.5083  0.0390  0.1799
 4747TIP3    H114174   5.604   5.832   1.202 -0.0459 -0.5295  1.3830
 4747TIP3    H214175   5.631   5.918   1.324  0.1447  2.2815 -0.5832
 4748TIP3   OH214176   5.826   5.096   2.413  0.3073 -0.0614 -0.3793
 4748TIP3    H114177   5.886   5.088   2.487 -0.8379  2.1548  0.7980
 4748TIP3    H214178   5.848   5.180   2.373 -0.9512  0.0252 -0.8991
 4749TIP3   OH214179   4.598   6.827   2.763  0.0587  0.3988  1.0099
 4749TIP3    H114180   4.528   6.838   2.699 -0.8962 -0.2381  1.9161
 4749TIP3    H214181   4.604   6.911   2.807  0.4541  0.7189  0.3513
 4750TIP3   OH214182   3.849   7.477   0.723  0.1107 -0.3839  0.4020
 4750TIP3    H114183   3.899   7.468   0.642  1.3070  1.0384  0.9532
 4750TIP3    H214184   3.810   7.564   0.718 -0.8803 -0.7976  0.7675
 4751TIP3   OH214185   6.316   7.364   0.307  0.1338 -0.0655  0.8346
 4751TIP3    H114186   6.282   7.395   0.224 -2.1259 -0.9726  1.3955
 4751TIP3    H214187   6.371   7.436   0.339 -1.4165  1.5262 -0.0084
 4752TIP3   OH214188   6.876   4.874   2.599  0.1143  0.2863  0.7326
 4752TIP3    H114189   6.835   4.935   2.537  0.2184  0.1169  0.4979
 4752TIP3    H214190   6.904   4.930   2.671 -1.3689  0.2682  1.3232
 4753TIP3   OH214191   5.096   5.717   3.665 -0.5766 -0.0176  0.1794
 4753TIP3    H114192   5.137   5.788   3.714  0.1404  0.1303 -0.6412
 4753TIP3    H214193   5.051   5.665   3.732  1.3087 -0.4498  1.1497
 4754TIP3   OH214194   6.430   7.101   2.075 -0.1312  0.2422 -0.6646
 4754TIP3    H114195   6.357   7.044   2.096  0.6050 -0.0378  1.2371
 4754TIP3    H214196   6.498   7.042   2.042  0.1402  0.1935 -0.0146
 4755TIP3   OH214197   5.607   6.099   2.282  0.2134  0.3337 -0.7556
 4755TIP3    H114198   5.592   6.184   2.323 -0.2305  0.6648 -1.5992
 4755TIP3    H214199   5.527   6.049   2.300  0.1611  0.3574 -0.9301
 4756TIP3   OH214200   5.338   6.115   2.856 -0.1755 -0.1780 -0.2692
 4756TIP3    H114201   5.398   6.168   2.909 -0.1868  0.9900 -1.3973
 4756TIP3    H214202   5.386   6.100   2.775 -1.1802  0.2706 -0.9513
 4757TIP3   OH214203   7.825   5.513   1.421  0.2544 -0.3235  0.1044
 4757TIP3    H114204   7.839   5.554   1.506  0.2891  0.0998 -0.1073
 4757TIP3    H214205   7.911   5.480   1.396  0.7403  1.5843 -0.8316
 4758TIP3   OH214206   4.158   4.676   0.505  0.0201 -0.0764 -0.2404
 4758TIP3    H114207   4.239   4.674   0.557 -0.7790 -2.4188  0.9660
 4758TIP3    H214208   4.187   4.660   0.415  1.0135  0.2335  0.0135
 4759TIP3   OH214209   4.275   6.529   1.193  0.1805 -0.0007  0.3154
 4759TIP3    H114210   4.195   6.504   1.147  0.5944 -0.7706  0.0050
 4759TIP3    H214211   4.255   6.615   1.231 -0.4610  0.2390 -0.5513
 4760TIP3   OH214212   4.132   5.401   2.104  0.6874 -0.5415  0.3791
 4760TIP3    H114213   4.112   5.494   2.094 -0.3071 -1.0239 -2.3741
 4760TIP3    H214214   4.047   5.358   2.095  1.4111 -1.8496 -0.2315
 4761TIP3   OH214215   5.989   5.571   2.791 -0.5416 -0.0353 -0.0382
 4761TIP3    H114216   6.013   5.508   2.722 -0.4723  1.4277 -1.3791
 4761TIP3    H214217   6.073   5.602   2.825 -0.5710 -0.0599  0.0563
 4762TIP3   OH214218   7.506   4.921   3.012  0.2470  0.2273 -0.1856
 4762TIP3    H114219   7.494   4.860   2.939 -0.9430  1.0384 -0.7023
 4762TIP3    H214220   7.534   5.003   2.970  0.6216  0.3831  0.3708
 4763TIP3   OH214221   6.781   5.127   2.096 -0.0038  0.5836  0.1915
 4763TIP3    H114222   6.728   5.105   2.020 -0.7357 -1.6353  1.2909
 4763TIP3    H214223   6.801   5.220   2.086 -0.2190  0.3579 -2.5904
 4764TIP3   OH214224   4.692   7.770   2.149 -0.1438 -0.0054  0.2981
 4764TIP3    H114225   4.731   7.771   2.062 -0.6612  1.5107  0.0759
 4764TIP3    H214226   4.724   7.849   2.191 -3.1551  1.4608  0.0038
 4765TIP3   OH214227   3.582   6.781   0.176  0.1912  0.1735 -0.6131
 4765TIP3    H114228   3.526   6.705   0.158 -0.4170  0.5587 -0.3539
 4765TIP3    H214229   3.662   6.743   0.212  0.9497 -0.5274 -2.9507
 4766TIP3   OH214230   6.061   6.093   1.025  0.2551 -0.3329 -0.1912
 4766TIP3    H114231   5.994   6.152   1.058  1.5185  0.8131  0.3587
 4766TIP3    H214232   6.075   6.120   0.935 -1.2782 -1.7262 -0.8631
 4767TIP3   OH214233   5.323   1.916   6.504  0.5347  0.3806  0.0398
 4767TIP3    H114234   5.363   1.843   6.550  1.6383  0.9318 -0.0282
 4767TIP3    H214235   5.254   1.947   6.562  1.6919  0.8571  1.1674
 4768TIP3   OH214236   5.881   4.845   1.412 -0.1887 -0.5453  0.4601
 4768TIP3    H114237   5.816   4.865   1.344 -0.8203 -0.2948  1.1328
 4768TIP3    H214238   5.874   4.750   1.424  0.2559 -0.6607 -0.1538
 4769TIP3   OH214239   5.230   4.889   1.704  0.2311  0.1777  0.5562
 4769TIP3    H114240   5.206   4.981   1.692  0.0864  0.1193  0.4014
 4769TIP3    H214241   5.297   4.891   1.773  0.4866  0.4332  0.3017
 4770TIP3   OH214242   5.575   6.481   0.690  0.1056 -0.4521  1.2407
 4770TIP3    H114243   5.634   6.406   0.688 -2.1227 -2.2194  0.4129
 4770TIP3    H214244   5.603   6.536   0.616  0.0790 -1.7689  0.2403
 4771TIP3   OH214245   7.018   6.684   3.072  0.8587  0.0527 -0.1852
 4771TIP3    H114246   6.996   6.661   2.982  1.2883  0.9738 -0.5309
 4771TIP3    H214247   6.946   6.649   3.124 -1.1215  2.4599 -1.2117
 4772TIP3   OH214248   6.052   6.671   3.618 -0.1889 -0.2064  1.3947
 4772TIP3    H114249   5.977   6.620   3.588  1.4454 -2.1033  0.4309
 4772TIP3    H214250   6.103   6.687   3.539 -0.0690  1.9808  1.8677
 4773TIP3   OH214251   6.043   0.451   3.370 -0.1261  0.0684  0.3143
 4773TIP3    H114252   6.026   0.397   3.292  0.4214 -0.0680  0.2864
 4773TIP3    H214253   6.025   0.393   3.444 -0.3695  0.1113  0.2900
 4774TIP3   OH214254   2.834   6.246   2.267 -0.3541 -0.2588 -0.1934
 4774TIP3    H114255   2.883   6.178   2.220 -0.2563  1.4733 -2.7310
 4774TIP3    H214256   2.750   6.251   2.221 -0.4757  1.1245  0.1532
 4775TIP3   OH214257   0.537   0.716   2.772 -0.3182 -0.0840  0.6311
 4775TIP3    H114258   0.453   0.677   2.799 -1.1947  1.6337  0.4841
 4775TIP3    H214259   0.525   0.810   2.788  0.8731  0.4079 -1.2289
 4776TIP3   OH214260   2.343   2.062   6.595 -0.2216 -0.2817  0.1777
 4776TIP3    H114261   2.392   1.980   6.593  1.0288  0.4395  0.7921
 4776TIP3    H214262   2.359   2.097   6.682 -1.9917 -0.1179  0.4631
 4777TIP3   OH214263   7.730   5.223   1.853 -0.0782  0.1941  0.1163
 4777TIP3    H114264   7.666   5.164   1.812 -0.6844  0.2099  1.0007
 4777TIP3    H214265   7.718   5.207   1.947 -0.5014  1.9997  0.3764
 4778TIP3   OH214266   4.550   5.311   1.350  0.4677  0.3080 -0.4031
 4778TIP3    H114267   4.537   5.223   1.387  1.1353  1.1942  2.0294
 4778TIP3    H214268   4.618   5.299   1.284  0.5570 -1.0062 -0.0917
 4779TIP3   OH214269   5.022   6.552   2.277  0.0312  0.6269 -0.2695
 4779TIP3    H114270   5.003   6.639   2.241  0.3990  1.3674  1.3130
 4779TIP3    H214271   5.117   6.551   2.287 -0.0938  0.5256  0.9255
 4780TIP3   OH214272   7.840   4.272   2.497 -0.5767 -0.2789  0.1088
 4780TIP3    H114273   7.813   4.222   2.574 -0.3707 -0.9292 -0.2385
 4780TIP3    H214274   7.926   4.237   2.474 -0.1920  0.6061  0.1826
 4781TIP3   OH214275   6.099   3.381   3.089 -0.8284 -0.4652  0.7210
 4781TIP3    H114276   6.008   3.389   3.118 -1.2410 -0.8001 -0.4839
 4781TIP3    H214277   6.130   3.300   3.129 -1.2878 -0.7421  0.5150
 4782TIP3   OH214278   5.948   6.312   0.034  0.0940 -0.2973 -0.2614
 4782TIP3    H114279   5.908   6.256  -0.032  0.3530 -1.9376  0.9323
 4782TIP3    H214280   6.042   6.298   0.022  0.2088  0.8535 -0.7648
 4783TIP3   OH214281   5.943   5.171   2.676 -0.1579 -0.1549  0.1068
 4783TIP3    H114282   5.969   5.258   2.645  1.6101 -0.2987  1.1376
 4783TIP3    H214283   6.021   5.136   2.718 -0.8292 -2.2890 -0.3433
 4784TIP3   OH214284   5.137   5.055   0.633  0.0702 -0.1770  0.1595
 4784TIP3    H114285   5.217   5.047   0.685 -0.0835  0.2712  0.4649
 4784TIP3    H214286   5.135   4.976   0.580 -1.1383 -1.9157  2.7097
 4785TIP3   OH214287   4.584   6.095   4.563 -0.2968  0.5189  0.1408
 4785TIP3    H114288   4.533   6.025   4.521 -0.9682  0.8973  0.3131
 4785TIP3    H214289   4.644   6.049   4.622 -0.5018  0.0677 -0.0008
 4786TIP3   OH214290   4.989   6.524   3.073 -0.3461  0.0662  0.3064
 4786TIP3    H114291   5.005   6.440   3.031 -0.7998  0.6139 -1.0243
 4786TIP3    H214292   4.953   6.579   3.003 -0.5181  1.2148  1.2687
 4787TIP3   OH214293   5.401   7.294   4.135 -0.3314  0.3419  0.9861
 4787TIP3    H114294   5.349   7.336   4.204  0.3311  0.6436  1.2992
 4787TIP3    H214295   5.366   7.332   4.054  0.0177  1.2375  1.2510
 4788TIP3   OH214296   6.108   4.549   2.305 -0.5795  0.0840  0.3489
 4788TIP3    H114297   6.060   4.550   2.222 -1.2644  0.0177  0.7451
 4788TIP3    H214298   6.112   4.642   2.331  1.0814  0.2943 -0.5859
 4789TIP3   OH214299   3.817   4.855   2.700 -0.7283 -0.1541 -0.1389
 4789TIP3    H114300   3.808   4.763   2.725 -0.9088 -0.3228 -0.7950
 4789TIP3    H214301   3.740   4.872   2.645 -0.2393  0.1373 -0.7418
 4790TIP3   OH214302   7.947   6.113   1.416  0.2993  0.0492 -0.5550
 4790TIP3    H114303   7.948   6.057   1.493  1.2911 -0.2771 -0.8049
 4790TIP3    H214304   8.017   6.176   1.431 -0.5307  0.9655 -0.4708
 4791TIP3   OH214305   7.013   4.790   0.044  0.2529 -0.3164  0.4427
 4791TIP3    H114306   7.087   4.837   0.007  2.3103 -3.0567  0.8521
 4791TIP3    H214307   7.034   4.781   0.137 -1.6553  0.7536  1.0023
 4792TIP3   OH214308   4.810   7.090   0.812  0.4894 -0.0570 -0.2305
 4792TIP3    H114309   4.823   7.141   0.892  0.7079  0.9823 -0.9235
 4792TIP3    H214310   4.749   7.142   0.760 -1.2488 -1.7086  0.1204
 4793TIP3   OH214311   5.063   4.667   1.613  0.2011 -0.1890 -0.1544
 4793TIP3    H114312   5.118   4.741   1.636 -0.7667  0.6806 -0.5822
 4793TIP3    H214313   5.064   4.611   1.691  1.4024 -0.0241 -0.0465
 4794TIP3   OH214314   3.488   0.803   6.719  0.1104  0.9108 -0.7452
 4794TIP3    H114315   3.493   0.712   6.691 -0.8948  0.7723 -0.5225
 4794TIP3    H214316   3.546   0.851   6.660 -0.6210  0.3680 -1.9130
 4795TIP3   OH214317   6.086   5.406   2.599 -0.2204 -0.1029  0.1393
 4795TIP3    H114318   6.174   5.386   2.567 -0.2270 -1.3565  0.8727
 4795TIP3    H214319   6.041   5.445   2.523  0.5504 -0.6914 -0.6237
 4796TIP3   OH214320   1.496   2.553   6.799  0.1470 -0.0286 -0.4199
 4796TIP3    H114321   1.491   2.470   6.846 -0.2350  0.0713 -0.2881
 4796TIP3    H214322   1.536   2.530   6.715  1.6887 -0.0628  0.2959
 4797TIP3   OH214323   6.598   5.972   1.534  0.1515  0.1044  0.5238
 4797TIP3    H114324   6.526   5.992   1.593  0.0502  1.1739  0.0283
 4797TIP3    H214325   6.651   6.051   1.532  0.7054 -0.2727 -0.0380
 4798TIP3   OH214326   4.768   5.553   2.074  0.4362 -0.1114 -0.2755
 4798TIP3    H114327   4.783   5.624   2.012  0.3669 -1.0192 -1.3527
 4798TIP3    H214328   4.787   5.473   2.024  1.7243 -0.7913  1.2909
 4799TIP3   OH214329   0.806   1.371   3.904  0.1299  0.0192 -0.0610
 4799TIP3    H114330   0.808   1.405   3.814 -0.8872  0.4955  0.0842
 4799TIP3    H214331   0.779   1.447   3.956  1.5435 -0.0284  0.7611
 4800TIP3   OH214332   5.448   2.246   6.641  0.4400  0.5107 -0.8112
 4800TIP3    H114333   5.386   2.202   6.698  1.3679  0.5854  0.2745
 4800TIP3    H214334   5.394   2.300   6.583 -0.5160  0.3264 -0.0918
 4801TIP3   OH214335   6.893   6.329   2.296  0.0114  0.4967 -0.5406
 4801TIP3    H114336   6.943   6.255   2.261  0.4211  1.1226 -1.2990
 4801TIP3    H214337   6.882   6.309   2.389  1.0717  0.0092 -0.5144
 4802TIP3   OH214338   2.896   7.150   0.513 -0.0238  0.1455 -0.0562
 4802TIP3    H114339   2.968   7.096   0.548 -0.3115  1.0567  2.0332
 4802TIP3    H214340   2.932   7.239   0.512  0.0056  0.1164 -2.2272
 4803TIP3   OH214341   5.482   2.970   2.968 -0.1396 -0.0234  0.1645
 4803TIP3    H114342   5.442   2.921   3.039  0.2537  0.4915  0.7407
 4803TIP3    H214343   5.508   3.053   3.007 -1.6160  1.0227 -1.0150
 4804TIP3   OH214344   1.657   1.509   6.566  0.0948  0.3154  0.4230
 4804TIP3    H114345   1.700   1.453   6.500 -0.2676  0.2373  0.2524
 4804TIP3    H214346   1.669   1.461   6.648  1.9574  1.1792  0.6955
 4805TIP3   OH214347   6.758   5.648   1.032 -0.2354 -0.2169  0.7769
 4805TIP3    H114348   6.666   5.646   1.059 -0.0430 -2.5226  1.3584
 4805TIP3    H214349   6.807   5.624   1.111  0.9647  2.0469  0.7608
 4806TIP3   OH214350   5.707   4.886   1.201  0.6555 -0.5665  0.2739
 4806TIP3    H114351   5.636   4.937   1.240  1.5405  0.4209  0.6243
 4806TIP3    H214352   5.669   4.799   1.186 -0.8423  0.1484 -0.2132
 4807TIP3   OH214353   5.641   5.349   0.929 -0.2567  0.0117  0.4705
 4807TIP3    H114354   5.713   5.354   0.992 -1.1575  1.0775  1.4340
 4807TIP3    H214355   5.594   5.432   0.938 -2.2186 -1.0603  0.6010
 4808TIP3   OH214356   5.560   4.004   1.923  0.7845  0.5043  0.2342
 4808TIP3    H114357   5.647   3.963   1.919 -0.1859 -1.5430 -0.2329
 4808TIP3    H214358   5.563   4.072   1.855  1.6386 -0.3061 -0.5595
 4809TIP3   OH214359   5.834   7.906   2.281 -0.6350 -0.3349 -0.4259
 4809TIP3    H114360   5.906   7.901   2.219 -0.4530  2.0174 -0.4713
 4809TIP3    H214361   5.844   7.829   2.337  0.7919 -1.0178 -1.5999
 4810TIP3   OH214362   3.773   4.420   0.576  0.0121  0.6009 -0.1196
 4810TIP3    H114363   3.832   4.420   0.651  0.5285 -1.3969 -0.4780
 4810TIP3    H214364   3.688   4.446   0.613  0.5373  0.8814  0.9168
 4811TIP3   OH214365   2.832   6.077   1.794  0.0209  0.1851 -0.2239
 4811TIP3    H114366   2.871   5.991   1.800 -0.3549  0.0351  0.1235
 4811TIP3    H214367   2.744   6.066   1.831  0.6458  1.1418  1.6193
 4812TIP3   OH214368   5.784   6.252   3.770 -0.3279  0.4331 -0.1977
 4812TIP3    H114369   5.715   6.199   3.810  0.6562 -0.0969  0.8235
 4812TIP3    H214370   5.855   6.251   3.834  0.2813  1.7491 -0.8246
 4813TIP3   OH214371   5.389   5.252   2.449 -0.1324 -0.4275  0.3221
 4813TIP3    H114372   5.470   5.203   2.462  0.6518  0.9604  0.7826
 4813TIP3    H214373   5.417   5.343   2.438 -1.6293  0.0942  0.6397
 4814TIP3   OH214374   5.882   5.192   1.142 -0.1880  0.5510  0.5429
 4814TIP3    H114375   5.959   5.212   1.089 -0.9273 -0.3891 -0.9185
 4814TIP3    H214376   5.906   5.220   1.230  0.6902  3.0932 -0.4494
 4815TIP3   OH214377   6.768   5.583   1.861  0.8730 -0.2238  0.4613
 4815TIP3    H114378   6.809   5.534   1.932  0.0489  0.4340  1.4107
 4815TIP3    H214379   6.814   5.667   1.860  0.8840 -0.2312  0.2190
 4816TIP3   OH214380   6.046   6.139   2.155 -0.7122  0.5625  0.6119
 4816TIP3    H114381   6.022   6.097   2.072  1.8153 -0.0793  0.1523
 4816TIP3    H214382   6.059   6.066   2.216 -1.2214  0.9581  1.1959
 4817TIP3   OH214383   5.851   6.520   3.136 -0.2773  0.2027 -0.4015
 4817TIP3    H114384   5.758   6.533   3.153 -0.1837  1.8209 -1.0229
 4817TIP3    H214385   5.889   6.608   3.140  1.2641 -0.4547  0.0522
 4818TIP3   OH214386   6.681   6.106   1.852  0.3470  0.4799 -0.2961
 4818TIP3    H114387   6.743   6.176   1.874  0.1931  0.9175 -1.2603
 4818TIP3    H214388   6.737   6.030   1.834  0.5281  0.4352  0.4538
 4819TIP3   OH214389   1.998   4.215   1.447 -0.3622  0.1620 -0.0052
 4819TIP3    H114390   1.957   4.301   1.456  0.4406  0.7057 -1.4043
 4819TIP3    H214391   2.032   4.195   1.534 -0.2901  1.3823  0.2526
 4820TIP3   OH214392   2.764   6.188   1.548  0.2376 -0.2761 -0.4517
 4820TIP3    H114393   2.816   6.155   1.621  2.2287 -0.1317 -1.7672
 4820TIP3    H214394   2.675   6.157   1.566  1.2709 -2.8019  0.4891
 4821TIP3   OH214395   6.205   5.677   2.906  0.0521 -0.0410  0.1982
 4821TIP3    H114396   6.212   5.645   2.996 -1.2633  0.0480  0.3437
 4821TIP3    H214397   6.226   5.771   2.913  2.4305 -0.5257  0.0010
 4822TIP3   OH214398   5.177   7.302   2.663 -0.2868  0.1970 -0.1289
 4822TIP3    H114399   5.239   7.373   2.681 -1.1662  1.0913 -0.5894
 4822TIP3    H214400   5.092   7.345   2.655 -0.8267 -0.9022 -0.4561
 4823TIP3   OH214401   4.385   6.094   1.848 -0.7848 -0.4562 -0.3219
 4823TIP3    H114402   4.408   6.164   1.788  1.2458  0.0166  0.9550
 4823TIP3    H214403   4.312   6.129   1.900 -0.7706  0.1349 -0.7058
 4824TIP3   OH214404   5.381   7.029   0.821  0.7917 -0.4728  0.1218
 4824TIP3    H114405   5.468   7.005   0.851  1.6205 -0.6470 -2.2681
 4824TIP3    H214406   5.371   7.121   0.847  0.7447 -1.1001  2.4139
 4825TIP3   OH214407   6.222   7.862   2.102 -0.0640 -0.7386  0.7401
 4825TIP3    H114408   6.268   7.934   2.147  2.0239 -0.6993 -1.3566
 4825TIP3    H214409   6.238   7.786   2.157  1.1702 -0.3905  0.8849
 4826TIP3   OH214410   5.198   5.431   2.320 -0.4770  0.2578 -0.4553
 4826TIP3    H114411   5.231   5.371   2.387 -0.1529 -0.1609 -0.9905
 4826TIP3    H214412   5.103   5.423   2.326 -0.4425 -0.0293 -0.2735
 4827TIP3   OH214413   4.141   5.341   1.681  0.4007  0.0377  0.2707
 4827TIP3    H114414   4.192   5.414   1.646 -0.1982  0.9356  1.2372
 4827TIP3    H214415   4.176   5.326   1.768  2.4497 -2.7474 -0.9742
 4828TIP3   OH214416   5.774   7.244   2.614  0.4276 -0.4821  0.0403
 4828TIP3    H114417   5.713   7.171   2.603  0.9121 -1.0395  0.9698
 4828TIP3    H214418   5.812   7.257   2.527 -1.7724  0.5572 -0.8002
 4829TIP3   OH214419   1.888   2.302   6.928  0.6771  0.4827  0.2075
 4829TIP3    H114420   1.830   2.378   6.934 -0.0486 -0.0290 -0.2176
 4829TIP3    H214421   1.920   2.303   6.837  0.3065  0.0213  0.0713
 4830TIP3   OH214422   3.065   3.468   6.678 -0.1503 -0.3295 -0.5255
 4830TIP3    H114423   3.120   3.474   6.600  0.4431 -0.5413 -0.1272
 4830TIP3    H214424   3.104   3.397   6.729 -1.9024 -1.7504 -1.0996
 4831TIP3   OH214425   0.842   1.488   6.613  0.0253  0.2308  0.0569
 4831TIP3    H114426   0.914   1.440   6.654  0.0552 -0.8011 -1.1548
 4831TIP3    H214427   0.884   1.537   6.541 -0.3132  0.4919  0.0360
 4832TIP3   OH214428   6.208   5.279   2.046  0.2374  0.3495 -0.5191
 4832TIP3    H114429   6.277   5.236   2.095  0.3046  1.0414  0.0012
 4832TIP3    H214430   6.177   5.213   1.985  0.0418 -0.5774  0.5691
 4833TIP3   OH214431   7.007   5.081   1.520 -0.0189  0.5141 -0.1916
 4833TIP3    H114432   7.022   5.164   1.474  0.6900  0.8748  0.6852
 4833TIP3    H214433   7.089   5.064   1.567 -0.4573 -0.2565  0.3038
 4834TIP3   OH214434   6.622   0.585   1.345  0.0060 -0.6034 -0.2501
 4834TIP3    H114435   6.589   0.497   1.367 -0.6864  0.0191  1.2281
 4834TIP3    H214436   6.717   0.578   1.354 -0.0768 -1.0767  0.2951
 4835TIP3   OH214437   5.546   5.510   0.606  0.5236 -0.0136  0.5290
 4835TIP3    H114438   5.502   5.585   0.568 -0.3193 -1.3755 -1.2283
 4835TIP3    H214439   5.492   5.486   0.682  1.4833  1.8761  1.8697
 4836TIP3   OH214440   1.107   6.818   2.345  0.5869 -0.1944 -0.1950
 4836TIP3    H114441   1.039   6.813   2.413  1.1001  0.6237  0.3888
 4836TIP3    H214442   1.087   6.745   2.286 -0.1628 -0.6155  0.5606
 4837TIP3   OH214443   4.896   5.418   2.301 -0.4323 -0.6204  0.0809
 4837TIP3    H114444   4.872   5.433   2.210  3.5051  1.0775 -0.7753
 4837TIP3    H214445   4.935   5.330   2.302 -1.5184 -1.1067  0.3784
 4838TIP3   OH214446   7.622   5.988   0.987  0.7601  0.3650  0.1280
 4838TIP3    H114447   7.541   6.005   0.940 -1.6181 -1.9526  3.1955
 4838TIP3    H214448   7.652   5.903   0.953 -1.1698 -1.5037  2.9072
 4839TIP3   OH214449   5.426   5.806   2.103 -0.1859 -0.1957 -0.2549
 4839TIP3    H114450   5.482   5.884   2.106  1.5194 -1.4302  1.0280
 4839TIP3    H214451   5.483   5.736   2.073 -1.8702 -0.8491 -2.0231
 4840TIP3   OH214452   5.703   5.169   3.268 -0.1813  0.1791  0.0343
 4840TIP3    H114453   5.699   5.094   3.209 -1.9919  0.7860 -0.6678
 4840TIP3    H214454   5.757   5.140   3.341  0.4668 -1.2488 -1.0029
 4841TIP3   OH214455   5.057   7.228   1.916  0.6591 -0.2335  0.0137
 4841TIP3    H114456   4.983   7.257   1.969  0.3374  1.0001 -1.0901
 4841TIP3    H214457   5.131   7.224   1.977  0.6311  2.5226  0.2995
 4842TIP3   OH214458   3.074   3.606   5.520  0.0778 -0.3785  0.4771
 4842TIP3    H114459   3.126   3.620   5.600 -0.0777  0.1273  0.4868
 4842TIP3    H214460   3.136   3.565   5.459  0.3790 -0.1505  0.6275
 4843TIP3   OH214461   3.837   4.815   0.883 -0.2786  0.4368  0.2801
 4843TIP3    H114462   3.870   4.763   0.810 -0.5788  0.4111  0.1629
 4843TIP3    H214463   3.854   4.762   0.961 -1.8764 -0.4648  0.0315
 4844TIP3   OH214464   5.403   5.006   1.904  0.0506  0.6911 -0.1650
 4844TIP3    H114465   5.406   5.061   1.982  1.0364 -1.0178  1.0410
 4844TIP3    H214466   5.472   4.941   1.918 -0.3093 -0.1378 -2.0844
 4845TIP3   OH214467   5.860   5.376   0.414  0.3642  0.4267  0.6375
 4845TIP3    H114468   5.928   5.308   0.406  0.7363  0.8010  0.5672
 4845TIP3    H214469   5.847   5.386   0.508  1.6897  1.5968  0.7227
 4846TIP3   OH214470   0.374   2.139   6.303 -0.0939 -1.2441  0.1672
 4846TIP3    H114471   0.430   2.103   6.235 -0.3885 -1.6757  0.1529
 4846TIP3    H214472   0.301   2.179   6.255 -0.3569 -1.6431  0.2306
 4847TIP3   OH214473   3.630   7.160   1.350  0.0943 -0.9067 -0.6432
 4847TIP3    H114474   3.724   7.148   1.363 -0.1721 -2.1430  0.2389
 4847TIP3    H214475   3.622   7.187   1.258  1.1687 -2.7186 -1.3036
 4848TIP3   OH214476   5.691   5.425   1.733  0.7479 -0.5625  0.9396
 4848TIP3    H114477   5.630   5.352   1.727  1.3687 -1.0367  0.2552
 4848TIP3    H214478   5.776   5.384   1.749  0.8794  0.0949  1.9557
 4849TIP3   OH214479   6.689   0.495   1.830 -0.2677 -0.0166 -0.2685
 4849TIP3    H114480   6.638   0.416   1.813 -1.4506  0.6207  0.2273
 4849TIP3    H214481   6.645   0.536   1.904  1.1177  0.4365  0.3183
 4850TIP3   OH214482   6.935   5.907   0.836 -0.2500  0.2244  0.1314
 4850TIP3    H114483   6.935   5.836   0.900  2.2889  0.7717  0.8165
 4850TIP3    H214484   6.992   5.973   0.875  0.7407  0.8968 -2.3812
 4851TIP3   OH214485   6.372   5.793   3.556  0.0544 -0.0483 -0.1402
 4851TIP3    H114486   6.395   5.878   3.592 -1.1579  0.2459 -0.0297
 4851TIP3    H214487   6.299   5.762   3.610  0.3730 -1.0800 -0.2782
 4852TIP3   OH214488   5.368   6.639   0.045  0.0833 -0.1876  0.3595
 4852TIP3    H114489   5.461   6.637   0.021 -0.0145  0.6688 -0.1309
 4852TIP3    H214490   5.345   6.732   0.041 -1.2613 -0.5699 -1.3304
 4853TIP3   OH214491   5.272   6.523   1.060  0.1373  0.3196  0.7940
 4853TIP3    H114492   5.322   6.464   1.116 -1.1706 -0.8507  0.7723
 4853TIP3    H214493   5.321   6.528   0.978  0.3638 -0.5811  0.8760
 4854TIP3   OH214494   5.472   4.168   0.624 -0.0662  0.4422 -0.1446
 4854TIP3    H114495   5.548   4.201   0.575  0.7243  1.4462  1.6930
 4854TIP3    H214496   5.431   4.106   0.565  1.4091  0.9060 -1.7150
 4855TIP3   OH214497   7.382   6.014   2.294  0.4753  0.2422  0.2160
 4855TIP3    H114498   7.401   5.928   2.330 -0.1970  0.4541  1.0840
 4855TIP3    H214499   7.287   6.014   2.280  0.2501  1.4177  1.7135
 4856TIP3   OH214500   6.181   7.105   3.271  0.1939  0.0648 -0.2128
 4856TIP3    H114501   6.165   7.096   3.365  0.0273  1.5412 -0.0850
 4856TIP3    H214502   6.151   7.193   3.250 -0.8918 -0.6645 -1.8900
 4857TIP3   OH214503   4.861   5.537   2.850  0.2190 -0.4699  0.1147
 4857TIP3    H114504   4.946   5.502   2.821 -0.0033 -0.3424 -0.6972
 4857TIP3    H214505   4.820   5.570   2.770 -0.4413 -0.1935  0.5649
 4858TIP3   OH214506   6.085   6.548   0.584 -0.3416 -0.6952  0.0211
 4858TIP3    H114507   6.066   6.457   0.609 -0.3428 -0.9675 -0.9462
 4858TIP3    H214508   6.016   6.599   0.628 -0.8300 -1.2469 -0.0970
 4859TIP3   OH214509   4.315   5.740   0.615  0.7095 -0.0213 -0.2916
 4859TIP3    H114510   4.280   5.666   0.664  0.2375 -0.3565 -1.1348
 4859TIP3    H214511   4.391   5.768   0.666  0.5160 -0.6817  0.3682
 4860TIP3   OH214512   7.231   5.239   2.604  0.0182  0.4122  0.1495
 4860TIP3    H114513   7.236   5.162   2.547  1.0642  1.5445 -1.3349
 4860TIP3    H214514   7.138   5.261   2.606  0.0457  0.8014 -1.7708
 4861TIP3   OH214515   5.267   6.113   1.359  0.5131 -0.6194 -0.0860
 4861TIP3    H114516   5.192   6.150   1.406  1.3044  0.2246  0.5374
 4861TIP3    H214517   5.241   6.114   1.267  1.3587  3.6370 -0.3874
 4862TIP3   OH214518   5.250   5.719   2.320  0.2133 -0.3019  1.2098
 4862TIP3    H114519   5.241   5.630   2.286 -0.6213 -0.5917  2.1436
 4862TIP3    H214520   5.303   5.765   2.256  0.6523 -1.4857  0.7233
 4863TIP3   OH214521   5.151   4.080   2.450 -0.2156  0.0093  0.3133
 4863TIP3    H114522   5.164   3.987   2.467  0.9065 -0.0753 -0.9623
 4863TIP3    H214523   5.059   4.087   2.425  0.0944 -1.0215 -1.2012
 4864TIP3   OH214524   7.244   7.131   2.301  0.1680  1.2148 -0.4152
 4864TIP3    H114525   7.192   7.051   2.302 -0.4922  1.6394  2.5170
 4864TIP3    H214526   7.194   7.192   2.247 -0.1259  0.2070 -1.3052
 4865TIP3   OH214527   6.467   5.087   2.054 -0.0079 -1.1852  0.0574
 4865TIP3    H114528   6.483   5.113   1.963  0.4670 -0.3485  0.3840
 4865TIP3    H214529   6.517   5.006   2.064 -0.3569 -1.4812 -0.5352
 4866TIP3   OH214530   4.573   6.499   2.059 -0.0404  0.5871 -0.0714
 4866TIP3    H114531   4.635   6.559   2.100  0.2266 -0.4586  1.0881
 4866TIP3    H214532   4.624   6.452   1.993 -0.5435  2.4890 -1.8486
 4867TIP3   OH214533   8.233   5.714   0.432 -0.7634 -0.1949  0.8997
 4867TIP3    H114534   8.312   5.736   0.483  1.0533 -0.4939 -1.6638
 4867TIP3    H214535   8.194   5.640   0.479 -0.5881  1.1698  3.2643
 4868TIP3   OH214536   4.815   6.203   2.502 -0.8449  0.8503 -0.3284
 4868TIP3    H114537   4.823   6.176   2.593  3.2740  2.5718 -0.0826
 4868TIP3    H214538   4.865   6.138   2.453  0.7547  2.4115 -0.8096
 4869TIP3   OH214539   4.944   6.225   3.040 -0.2175 -0.3965  0.6535
 4869TIP3    H114540   5.015   6.162   3.052  0.6483  0.7226  1.6354
 4869TIP3    H214541   4.868   6.183   3.079  0.2894 -0.9474  1.0683
 4870TIP3   OH214542   6.620   4.990   2.979  0.6466 -0.3631 -0.5261
 4870TIP3    H114543   6.562   4.948   2.916 -0.9217 -3.1424  2.6312
 4870TIP3    H214544   6.691   4.927   2.993  0.0328 -0.5920  1.7720
 4871TIP3   OH214545   6.239   5.693   2.637  0.2310 -0.4577 -0.0144
 4871TIP3    H114546   6.321   5.650   2.614  1.4292  0.0849  2.9179
 4871TIP3    H214547   6.227   5.671   2.730 -2.6540 -0.0535 -0.2635
 4872TIP3   OH214548   4.203   4.942   2.520 -0.7438  0.2026  0.1546
 4872TIP3    H114549   4.253   5.021   2.499 -0.2808 -0.1130  0.0498
 4872TIP3    H214550   4.177   4.907   2.435  2.3178 -1.8349 -0.0249
 4873TIP3   OH214551   6.537   5.846   3.154 -0.0409  0.9189  0.3713
 4873TIP3    H114552   6.568   5.871   3.241 -1.7715 -0.7247  1.5082
 4873TIP3    H214553   6.501   5.758   3.165 -1.4337  1.1703 -1.7343
 4874TIP3   OH214554   5.781   3.929   1.361 -0.0060  0.1015  0.0195
 4874TIP3    H114555   5.779   3.923   1.266 -0.1190  0.8416 -0.0318
 4874TIP3    H214556   5.872   3.950   1.382 -0.0776  0.3924  0.0416
 4875TIP3   OH214557   0.556   0.736   6.922 -0.2484  0.0898 -0.5316
 4875TIP3    H114558   0.493   0.801   6.953  0.2274  0.0684  0.4919
 4875TIP3    H214559   0.633   0.787   6.898  0.2890 -0.1225  0.6954
 4876TIP3   OH214560   5.096   7.390   0.267 -0.4428  0.3230 -0.0544
 4876TIP3    H114561   5.072   7.457   0.330  0.1091  1.9231 -1.4898
 4876TIP3    H214562   5.184   7.415   0.237 -0.3031 -0.9283 -0.7378
 4877TIP3   OH214563   4.041   7.097   1.255 -0.1900  0.2130  0.2160
 4877TIP3    H114564   4.023   7.045   1.177 -0.8547 -0.4410  0.8044
 4877TIP3    H214565   4.001   7.182   1.237  1.5334  0.7958 -1.0514
 4878TIP3   OH214566   4.664   7.857   0.914  0.1724  0.7269  0.0957
 4878TIP3    H114567   4.600   7.915   0.875  1.3454 -0.4813 -3.8221
 4878TIP3    H214568   4.747   7.905   0.909  0.0290  1.4153  3.1611
 4879TIP3   OH214569   0.680   0.227   2.505  0.0129  0.0658 -0.1412
 4879TIP3    H114570   0.688   0.155   2.568 -1.6782 -0.1738 -0.1809
 4879TIP3    H214571   0.670   0.305   2.559  2.4087  0.3784 -0.0893
 4880TIP3   OH214572   7.050   6.323   2.769 -0.2667  0.5893 -0.0651
 4880TIP3    H114573   7.029   6.296   2.859 -0.0334  3.1507  0.7922
 4880TIP3    H214574   7.145   6.308   2.762 -0.3980 -0.2298 -0.1009
 4881TIP3   OH214575   2.207   0.475   1.139 -0.2388 -0.2496  0.2474
 4881TIP3    H114576   2.190   0.396   1.088  0.8171 -0.3222 -0.0001
 4881TIP3    H214577   2.185   0.451   1.229 -0.1684 -0.7474  0.1297
 4882TIP3   OH214578   6.771   5.442   0.600  0.1614  0.3601  0.1059
 4882TIP3    H114579   6.754   5.455   0.693 -1.4147 -2.0001  0.1983
 4882TIP3    H214580   6.769   5.347   0.588  1.4615  0.5556 -2.1543
 4883TIP3   OH214581   4.801   6.883   1.530 -0.3362 -0.0585 -0.0876
 4883TIP3    H114582   4.747   6.946   1.483  0.6127  0.3075 -0.7163
 4883TIP3    H214583   4.888   6.923   1.531 -0.3389 -0.0629  1.9952
 4884TIP3   OH214584   7.661   7.397   3.345  0.3974 -0.6413  0.2532
 4884TIP3    H114585   7.581   7.435   3.308 -1.6598 -2.6362  2.3981
 4884TIP3    H214586   7.665   7.309   3.307  0.8438 -1.0234  1.1785
 4885TIP3   OH214587   6.029   7.040   2.215 -0.7658 -0.0087  0.3353
 4885TIP3    H114588   6.040   7.075   2.304  2.6868 -0.5645  0.1853
 4885TIP3    H214589   6.064   7.109   2.158 -1.2306 -0.4427 -0.4742
 4886TIP3   OH214590   5.494   6.339   1.965  0.1328  0.6917 -0.1621
 4886TIP3    H114591   5.505   6.424   2.009  0.6548  1.7075 -2.2055
 4886TIP3    H214592   5.572   6.289   1.990  0.4417  1.2758  0.0398
 4887TIP3   OH214593   6.420   5.603   1.395 -0.6310 -0.7577 -0.2337
 4887TIP3    H114594   6.444   5.511   1.410 -1.5565 -0.8606  0.6844
 4887TIP3    H214595   6.500   5.644   1.363 -0.5750 -2.1924 -2.0310
 4888TIP3   OH214596   5.915   6.537   2.066 -0.1706 -0.3518  0.0924
 4888TIP3    H114597   6.008   6.557   2.075 -0.4766  0.8444  0.6798
 4888TIP3    H214598   5.912   6.462   2.007  1.2227 -1.0057  0.8348
 4889TIP3   OH214599   5.097   5.994   0.577 -0.0318 -0.8049 -0.3449
 4889TIP3    H114600   5.039   6.067   0.600  0.3671 -0.4757 -0.3761
 4889TIP3    H214601   5.178   6.012   0.624  0.4842 -0.5864 -1.3111
 4890TIP3   OH214602   8.389   6.853   0.162 -0.4430  0.0381 -0.0143
 4890TIP3    H114603   8.296   6.867   0.178  0.0295  0.9716  2.1031
 4890TIP3    H214604   8.416   6.788   0.227  0.2676 -0.6735 -0.9958
 4891TIP3   OH214605   0.646   7.083   2.375 -0.2504  0.6938 -0.1848
 4891TIP3    H114606   0.720   7.038   2.336 -0.7169 -0.0236 -0.2403
 4891TIP3    H214607   0.668   7.088   2.468 -0.4324 -0.0888 -0.1034
 4892TIP3   OH214608   2.369   1.434   6.544  0.4364  0.3451 -0.0578
 4892TIP3    H114609   2.414   1.464   6.465  1.1537  0.8131  0.5232
 4892TIP3    H214610   2.300   1.500   6.558  0.6035  0.5167 -0.0339
 4893TIP3   OH214611   5.675   6.308   1.261 -0.1315  0.4401  0.2562
 4893TIP3    H114612   5.614   6.351   1.321 -1.6586 -0.4079 -0.6352
 4893TIP3    H214613   5.618   6.253   1.206  1.3882  0.1206 -1.0077
 4894TIP3   OH214614   7.540   5.869   1.477  0.4095  0.1957  0.5536
 4894TIP3    H114615   7.548   5.798   1.542 -0.2626  0.2628  0.7118
 4894TIP3    H214616   7.628   5.878   1.441  0.5952 -0.4340  0.8394
 4895TIP3   OH214617   4.615   7.010   1.851 -0.0252  0.1909  0.1241
 4895TIP3    H114618   4.611   6.959   1.932 -0.0037 -1.3595 -0.8364
 4895TIP3    H214619   4.682   7.076   1.867  0.0472 -0.1672  1.3340
 4896TIP3   OH214620   5.030   5.344   3.227 -0.0002 -0.1796  0.0494
 4896TIP3    H114621   5.071   5.292   3.157  0.0431  0.0960 -0.1324
 4896TIP3    H214622   5.005   5.280   3.293  0.3438 -0.3970 -0.0285
 4897TIP3   OH214623   8.052   6.703   0.678  0.2702  0.1468  0.3247
 4897TIP3    H114624   8.039   6.608   0.679 -0.4344  0.2332  1.2161
 4897TIP3    H214625   8.011   6.733   0.760 -0.3642  1.3226 -0.4091
 4898TIP3   OH214626   5.951   4.545   2.924 -0.4400  0.3318  0.2166
 4898TIP3    H114627   5.868   4.507   2.898 -0.0804  0.3155 -0.9366
 4898TIP3    H214628   6.012   4.519   2.856  0.9640 -1.2636  2.0308
 4899TIP3   OH214629   4.725   4.785   2.347 -0.2771  0.8475  0.0683
 4899TIP3    H114630   4.706   4.765   2.255  0.2919  2.8502 -0.5111
 4899TIP3    H214631   4.643   4.821   2.381 -0.8102 -0.8690  0.6647
 4900TIP3   OH214632   4.866   4.514   3.670  0.3210 -1.0042 -0.0844
 4900TIP3    H114633   4.841   4.421   3.676 -0.2526 -0.9548 -1.7078
 4900TIP3    H214634   4.956   4.516   3.704  0.7136 -2.3172 -1.0139
 4901TIP3   OH214635   5.573   1.872   5.388 -0.0691 -0.0840 -0.2009
 4901TIP3    H114636   5.637   1.801   5.384  0.6023  0.4263  1.2374
 4901TIP3    H214637   5.496   1.833   5.429 -0.4866 -0.5490 -1.4120
 4902TIP3   OH214638   2.201   7.075   4.772  0.8998  0.0610  0.3187
 4902TIP3    H114639   2.291   7.051   4.791  1.3852  1.2927 -0.3441
 4902TIP3    H214640   2.200   7.170   4.778 -0.3747  0.0480  0.4073
 4903TIP3   OH214641   3.016   0.851   6.577 -0.5190 -0.1229 -0.4371
 4903TIP3    H114642   2.963   0.846   6.657 -1.4613 -0.7330 -1.0870
 4903TIP3    H214643   2.965   0.906   6.518  0.0991  0.1917 -0.6839
 4904TIP3   OH214644   4.243   2.842   5.354  0.3123 -0.2295 -0.4516
 4904TIP3    H114645   4.245   2.859   5.448  0.0470 -1.1238 -0.2817
 4904TIP3    H214646   4.274   2.924   5.314  1.0307 -0.0678  0.4282
 4905TIP3   OH214647   7.476   7.200   2.106 -0.1350  0.3590 -0.3046
 4905TIP3    H114648   7.447   7.184   2.016  0.0305 -1.4707 -0.0497
 4905TIP3    H214649   7.411   7.156   2.161  1.6840 -1.6043  0.3580
 4906TIP3   OH214650   4.364   5.244   3.472 -0.0571  0.1381 -0.0364
 4906TIP3    H114651   4.373   5.325   3.422 -0.4287  0.6764  0.7683
 4906TIP3    H214652   4.450   5.231   3.511 -0.7737  1.6677  2.1347
 4907TIP3   OH214653   6.435   6.481   2.018  0.0702 -0.3664 -0.1026
 4907TIP3    H114654   6.404   6.392   2.036 -0.1741 -0.1069  0.8061
 4907TIP3    H214655   6.355   6.534   2.014  0.3413  0.2435  1.9017
 4908TIP3   OH214656   5.730   7.204   1.365  0.2879 -0.2209 -0.9331
 4908TIP3    H114657   5.807   7.240   1.409  0.2645 -0.5273 -0.6427
 4908TIP3    H214658   5.719   7.260   1.288  0.1605  0.4888 -0.4087
 4909TIP3   OH214659   5.420   4.102   3.344  0.4261 -0.2661 -0.0190
 4909TIP3    H114660   5.366   4.156   3.288  0.4099 -0.4033 -0.1358
 4909TIP3    H214661   5.377   4.017   3.344 -0.1448  0.0146  1.0201
 4910TIP3   OH214662   6.657   5.732   1.371  0.4061  0.2783 -0.2220
 4910TIP3    H114663   6.631   5.811   1.418 -1.1636  0.6580 -1.7050
 4910TIP3    H214664   6.732   5.760   1.318  2.9419 -0.4232  2.7901
 4911TIP3   OH214665   4.656   7.334   1.793  0.5592 -0.2538 -0.7798
 4911TIP3    H114666   4.738   7.329   1.841  0.1979  0.6171 -0.0536
 4911TIP3    H214667   4.667   7.274   1.719  2.5718  1.2774 -1.7699
 4912TIP3   OH214668   5.875   6.458   3.599 -0.1022  0.1459 -0.3984
 4912TIP3    H114669   5.844   6.400   3.669  2.0142  0.4946  0.8816
 4912TIP3    H214670   5.960   6.422   3.573  1.5133  2.8424  0.7801
 4913TIP3   OH214671   2.262   0.355   0.649 -0.3903  0.9908 -0.5375
 4913TIP3    H114672   2.275   0.383   0.740  0.4711  1.7173 -0.8768
 4913TIP3    H214673   2.200   0.419   0.614 -2.7078 -0.7595  0.2418
 4914TIP3   OH214674   4.683   5.205   2.554  0.2892  0.2130  0.3219
 4914TIP3    H114675   4.690   5.179   2.462 -0.9830  0.6929  0.0776
 4914TIP3    H214676   4.749   5.153   2.599 -0.2757 -1.3119 -0.5920
 4915TIP3   OH214677   3.765   7.973   1.853  0.2505 -0.3056 -0.3343
 4915TIP3    H114678   3.713   7.907   1.809 -0.3026  0.5544 -0.9888
 4915TIP3    H214679   3.701   8.031   1.894  0.7349 -0.4625  0.6848
 4916TIP3   OH214680   2.011   3.582   6.576  0.0152 -0.0285 -0.4027
 4916TIP3    H114681   2.091   3.555   6.531  1.3553  3.0867 -0.0074
 4916TIP3    H214682   1.969   3.644   6.516  0.0353  1.4909  1.1135
 4917TIP3   OH214683   5.862   7.347   0.594  0.6447 -0.2393  0.0535
 4917TIP3    H114684   5.789   7.298   0.557 -0.4318  0.9133  0.6160
 4917TIP3    H214685   5.940   7.305   0.557 -0.3500  0.0959 -2.5796
 4918TIP3   OH214686   4.189   7.805   3.720  0.1810  0.1287  0.0203
 4918TIP3    H114687   4.201   7.787   3.813 -0.7786  0.6035  0.2421
 4918TIP3    H214688   4.113   7.863   3.716 -1.9482 -2.5826 -1.3017
 4919TIP3   OH214689   6.525   4.417   2.882 -0.0463  0.1250 -0.1165
 4919TIP3    H114690   6.481   4.356   2.940  1.8819  0.0366  1.3284
 4919TIP3    H214691   6.492   4.397   2.795 -3.3755  0.6025  0.9874
 4920TIP3   OH214692   7.066   5.311   0.481  0.3676  0.1587  0.1656
 4920TIP3    H114693   7.032   5.398   0.459  1.1249  0.1195 -1.2433
 4920TIP3    H214694   6.989   5.262   0.512 -0.7780  0.2633 -2.3745
 4921TIP3   OH214695   0.239   4.758   2.545  0.4550 -0.0978  0.3760
 4921TIP3    H114696   0.189   4.814   2.604  1.1157 -0.5750  1.4125
 4921TIP3    H214697   0.182   4.683   2.528  1.2770 -1.2772  2.5983
 4922TIP3   OH214698   5.221   5.631   0.749 -0.4194  0.5006 -0.6626
 4922TIP3    H114699   5.249   5.635   0.840  0.0491 -0.5064 -0.7576
 4922TIP3    H214700   5.142   5.684   0.746 -1.1788 -0.5390  0.6124
 4923TIP3   OH214701   4.666   6.108   5.093 -0.0388  0.0470 -0.0744
 4923TIP3    H114702   4.609   6.181   5.117 -1.5531 -0.6125 -1.5338
 4923TIP3    H214703   4.740   6.150   5.048 -0.0308  0.8024  0.6258
 4924TIP3   OH214704   4.756   5.851   0.659  0.2839 -0.5196 -0.0508
 4924TIP3    H114705   4.848   5.831   0.675  0.3498 -0.4749 -0.3647
 4924TIP3    H214706   4.743   5.829   0.567  0.0922 -0.1112 -0.1200
 4925TIP3   OH214707   5.387   5.134   2.155  0.0802  0.4405  0.2398
 4925TIP3    H114708   5.370   5.226   2.135 -0.4343  0.6524  1.6226
 4925TIP3    H214709   5.390   5.130   2.251 -1.5676 -1.2586  0.2593
 4926TIP3   OH214710   5.851   4.591   1.764 -0.2058 -0.9600  0.0533
 4926TIP3    H114711   5.854   4.603   1.669 -0.0824  0.3352  0.2140
 4926TIP3    H214712   5.785   4.524   1.778 -1.0556 -0.3337 -0.8800
 4927TIP3   OH214713   4.602   4.786   2.111  0.2488 -0.2585  0.3793
 4927TIP3    H114714   4.659   4.809   2.037  1.5167  1.7914  1.9429
 4927TIP3    H214715   4.558   4.706   2.083  1.9977 -0.4767 -1.9010
 4928TIP3   OH214716   4.966   5.818   1.036 -0.0738 -0.0593  0.1469
 4928TIP3    H114717   4.947   5.907   1.008  1.1096 -0.0602 -0.7311
 4928TIP3    H214718   4.998   5.827   1.126  1.3465  0.5604 -0.4094
 4929TIP3   OH214719   5.304   6.469   2.274 -0.6327 -0.2851  0.1825
 4929TIP3    H114720   5.361   6.515   2.213 -1.4516  0.3426 -0.1166
 4929TIP3    H214721   5.263   6.400   2.223 -0.0039 -0.8473  0.4401
 4930TIP3   OH214722   6.239   0.137   3.492  0.0478 -0.9384 -0.2961
 4930TIP3    H114723   6.294   0.131   3.570  0.3126  3.0000 -0.0800
 4930TIP3    H214724   6.296   0.109   3.421  1.5312  0.4787  0.2860
 4931TIP3   OH214725   2.723   4.672   6.539 -0.1270 -0.2495  0.6696
 4931TIP3    H114726   2.762   4.692   6.625 -0.3105 -1.3340  1.0027
 4931TIP3    H214727   2.790   4.620   6.494  0.2760  0.9399 -0.1406
 4932TIP3   OH214728   6.806   5.364   1.705 -0.2541  0.1133 -0.1176
 4932TIP3    H114729   6.795   5.452   1.742  0.3116  0.2815 -0.3420
 4932TIP3    H214730   6.805   5.377   1.610  0.0552 -0.0943 -0.1506
 4933TIP3   OH214731   5.824   7.020   1.911 -0.6922  0.3860 -0.0950
 4933TIP3    H114732   5.883   7.054   1.843 -0.8083  2.7784  0.9357
 4933TIP3    H214733   5.744   6.998   1.864 -0.6168  1.6087 -0.8355
 4934TIP3   OH214734   5.973   0.473   0.894 -0.0150  0.3018  0.1460
 4934TIP3    H114735   5.934   0.387   0.909  0.1549  0.2472  0.2880
 4934TIP3    H214736   6.001   0.501   0.981 -1.0651  0.9868  0.2648
 4935TIP3   OH214737   7.292   4.033   2.798 -0.0350 -0.6214  0.2711
 4935TIP3    H114738   7.250   4.099   2.743 -0.0315 -0.6686  0.2115
 4935TIP3    H214739   7.368   4.005   2.747 -0.4755 -1.2423 -0.0510
 4936TIP3   OH214740   7.074   6.478   4.747  0.0844 -0.7033  0.0971
 4936TIP3    H114741   7.105   6.444   4.831 -0.8252 -3.6768 -0.7040
 4936TIP3    H214742   7.153   6.504   4.701  0.5404  1.7471  2.1458
 4937TIP3   OH214743   4.305   1.551   6.325 -0.1699 -0.2410 -0.0732
 4937TIP3    H114744   4.360   1.520   6.252  0.2532 -1.7431  0.8579
 4937TIP3    H214745   4.222   1.575   6.283  0.5406  0.2469 -1.2390
 4938TIP3   OH214746   7.715   7.487   2.383  0.5257 -0.1193  0.3570
 4938TIP3    H114747   7.777   7.425   2.345 -0.0285 -1.4529  1.5776
 4938TIP3    H214748   7.629   7.446   2.372  0.1175  0.5809  0.8659
 4939TIP3   OH214749   5.913   6.507   0.798 -0.5040 -0.3327 -0.2539
 4939TIP3    H114750   5.853   6.433   0.791  0.2718 -1.0341  0.2796
 4939TIP3    H214751   5.974   6.481   0.868  0.5853  0.2226 -0.9728
 4940TIP3   OH214752   5.980   5.666   0.656 -0.1614 -0.1541 -0.5564
 4940TIP3    H114753   6.014   5.593   0.707 -1.6824  0.4069  1.3436
 4940TIP3    H214754   6.043   5.678   0.585  1.0228 -2.1600  0.1161
 4941TIP3   OH214755   6.045   5.041   1.982  0.4779  0.5008 -0.0155
 4941TIP3    H114756   6.054   5.025   2.076  0.9530  0.7955 -0.0082
 4941TIP3    H214757   5.962   5.001   1.958  0.2866  0.5565  0.5601
 4942TIP3   OH214758   0.767   5.961   0.529  0.4206  0.2442 -0.7418
 4942TIP3    H114759   0.835   5.960   0.462 -0.4267  2.0137 -1.6571
 4942TIP3    H214760   0.686   5.950   0.480 -0.3388  3.2224 -0.2234
 4943TIP3   OH214761   7.820   7.317   1.286 -0.2442 -0.0648 -0.4997
 4943TIP3    H114762   7.796   7.316   1.379  0.3723  0.4812 -0.3333
 4943TIP3    H214763   7.812   7.226   1.259 -0.4346 -0.2260  0.0894
 4944TIP3   OH214764   6.018   0.253   6.686 -0.5853 -0.1061 -0.0645
 4944TIP3    H114765   6.092   0.194   6.668 -0.5804  0.1309 -0.8426
 4944TIP3    H214766   5.943   0.209   6.647 -1.6763 -2.4207  4.3449
 4945TIP3   OH214767   6.827   4.738   1.693 -0.1568  0.1297  0.0619
 4945TIP3    H114768   6.910   4.702   1.660  0.8344  2.8979 -0.5921
 4945TIP3    H214769   6.826   4.715   1.786  0.7002 -1.0561 -0.2049
 4946TIP3   OH214770   1.497   5.455   1.707  0.2668  0.1146  0.0481
 4946TIP3    H114771   1.428   5.396   1.736 -1.6572  2.1286 -0.2921
 4946TIP3    H214772   1.575   5.400   1.700 -0.9869 -1.9216  1.7219
 4947TIP3   OH214773   6.677   6.449   0.264  0.2969  0.4807  0.2469
 4947TIP3    H114774   6.761   6.496   0.269  0.5324  0.1812 -0.6639
 4947TIP3    H214775   6.695   6.364   0.305 -0.1039  1.1361  1.8104
 4948TIP3   OH214776   7.228   7.457   0.653  0.3538  0.3548  0.3706
 4948TIP3    H114777   7.283   7.428   0.580 -1.1813 -0.7324 -0.3828
 4948TIP3    H214778   7.232   7.386   0.717  0.0095  0.3591  0.4027
 4949TIP3   OH214779   5.900   5.817   0.850 -0.2759 -0.7531  0.0282
 4949TIP3    H114780   5.938   5.771   0.775 -0.7193  1.2084 -1.4204
 4949TIP3    H214781   5.975   5.833   0.908  0.2319 -1.4675 -0.4184
 4950TIP3   OH214782   7.969   4.467   3.097  0.3886  0.1518 -0.7112
 4950TIP3    H114783   7.995   4.424   3.179 -1.6140  0.0542 -0.0930
 4950TIP3    H214784   7.919   4.544   3.125 -2.5255 -1.2606 -1.7929
 4951TIP3   OH214785   6.985   5.171   1.822  0.0910 -0.2196  0.1614
 4951TIP3    H114786   6.893   5.150   1.837 -0.1271  0.9860  0.5629
 4951TIP3    H214787   6.984   5.257   1.781  1.0227 -0.3753 -0.2055
 4952TIP3   OH214788   5.917   4.633   3.182  0.1380  0.3730 -0.1332
 4952TIP3    H114789   5.956   4.590   3.105  1.1109 -0.5502  0.8677
 4952TIP3    H214790   5.953   4.721   3.181  0.4667  0.2380 -0.5027
 4953TIP3   OH214791   5.583   5.948   1.706 -0.2281 -0.3689 -0.2865
 4953TIP3    H114792   5.659   5.998   1.677 -0.7719  1.2045  0.9318
 4953TIP3    H214793   5.614   5.858   1.712  1.9094  0.4198  1.3793
 4954TIP3   OH214794   0.437   4.593   1.678  0.8920 -0.3729 -0.0389
 4954TIP3    H114795   0.496   4.616   1.607 -0.4119 -0.0071 -1.0209
 4954TIP3    H214796   0.443   4.667   1.739  0.6742  0.1239 -0.6230
 4955TIP3   OH214797   8.271   3.896   0.759  0.7069  0.3752 -0.0470
 4955TIP3    H114798   8.295   3.988   0.750 -2.4993  1.1212 -1.4700
 4955TIP3    H214799   8.241   3.870   0.672  0.1937 -1.6089  0.7022
 4956TIP3   OH214800   0.657   7.058   0.826 -0.5796 -0.2221  0.0195
 4956TIP3    H114801   0.714   6.989   0.859 -0.8451 -0.6302 -0.3723
 4956TIP3    H214802   0.662   7.050   0.731 -0.8421  0.1057 -0.0212
 4957TIP3   OH214803   6.104   6.311   4.670 -0.2876  0.0350 -0.3022
 4957TIP3    H114804   6.138   6.273   4.751 -0.2053  0.3986 -0.1619
 4957TIP3    H214805   6.143   6.258   4.600  2.1292  1.6246 -0.2122
 4958TIP3   OH214806   7.940   5.475   0.330 -0.3137  0.6519 -0.4535
 4958TIP3    H114807   7.959   5.388   0.294  1.0516  0.2116  1.2414
 4958TIP3    H214808   7.934   5.532   0.253  1.0595 -0.5286 -1.4653
 4959TIP3   OH214809   5.531   7.374   1.474 -0.2770  0.0832  0.1641
 4959TIP3    H114810   5.604   7.436   1.477  0.8758 -1.1866 -1.3890
 4959TIP3    H214811   5.570   7.289   1.494 -1.5422 -0.4434  0.4752
 4960TIP3   OH214812   5.237   6.776   2.587  0.4735  0.3327  0.5892
 4960TIP3    H114813   5.249   6.685   2.559 -0.3381  0.2560  0.4825
 4960TIP3    H214814   5.236   6.771   2.683 -0.8146  0.0563  0.5742
 4961TIP3   OH214815   6.783   7.561   0.419  0.1864  0.4004  0.4390
 4961TIP3    H114816   6.860   7.523   0.460  0.7047  1.2833  0.3093
 4961TIP3    H214817   6.816   7.641   0.377 -0.9468  1.1802  1.0296
 4962TIP3   OH214818   7.696   7.848   2.672  0.6192  0.0112  0.3413
 4962TIP3    H114819   7.718   7.828   2.581  2.5155  0.7454  0.6309
 4962TIP3    H214820   7.657   7.767   2.706 -2.3479  0.4569 -1.7821
 4963TIP3   OH214821   7.358   6.335   1.071  0.6101 -0.2465 -0.2784
 4963TIP3    H114822   7.303   6.388   1.129  1.8879 -0.0583  0.7967
 4963TIP3    H214823   7.361   6.383   0.989 -1.6890 -0.7913 -0.7199
 4964TIP3   OH214824   4.211   3.385   6.661 -0.2507 -0.0659 -0.0117
 4964TIP3    H114825   4.268   3.418   6.731  0.9329  0.3274 -1.1397
 4964TIP3    H214826   4.123   3.414   6.686  0.6492  3.3974 -0.6205
 4965TIP3   OH214827   0.704   0.955   2.926 -0.2393  0.5821  0.4402
 4965TIP3    H114828   0.640   0.966   2.856  0.2524  1.8049  0.1758
 4965TIP3    H214829   0.770   0.895   2.889  0.1419  1.4078 -0.2239
 4966TIP3   OH214830   6.784   6.843   1.276 -0.3246  0.2984  0.1491
 4966TIP3    H114831   6.843   6.843   1.201 -0.7599  2.2067 -0.2143
 4966TIP3    H214832   6.832   6.888   1.345 -1.4951  2.2145 -0.2753
 4967TIP3   OH214833   6.497   6.672   0.936 -0.0471  0.2038  0.9476
 4967TIP3    H114834   6.559   6.745   0.937 -1.4377  1.4564 -0.3573
 4967TIP3    H214835   6.539   6.603   0.987  1.4122  1.8346  1.9874
 4968TIP3   OH214836   7.637   6.734   0.571  0.3010 -0.1736 -0.1397
 4968TIP3    H114837   7.595   6.747   0.486 -0.6274 -0.2007  0.3028
 4968TIP3    H214838   7.650   6.640   0.577  0.6179 -0.1445 -0.3694
 4969TIP3   OH214839   1.987   0.615   1.919  0.0838  0.4260 -0.6302
 4969TIP3    H114840   2.079   0.635   1.938  0.2918 -0.5947 -0.5463
 4969TIP3    H214841   1.959   0.686   1.861  0.4478  1.6670  0.6620
 4970TIP3   OH214842   5.332   4.068   2.921 -0.3480 -0.7567  0.6780
 4970TIP3    H114843   5.239   4.043   2.913 -0.5104 -0.1449  0.6753
 4970TIP3    H214844   5.374   4.026   2.846 -0.9103  0.3442 -0.2529
 4971TIP3   OH214845   5.920   5.676   3.257 -0.0317  0.2621 -0.6944
 4971TIP3    H114846   5.889   5.586   3.242 -1.4929  0.5590  0.4068
 4971TIP3    H214847   6.005   5.666   3.299 -1.5608 -0.6660  2.2864
 4972TIP3   OH214848   7.465   7.047   0.420 -0.3007 -0.2997  0.8923
 4972TIP3    H114849   7.443   7.081   0.334  1.5337 -1.0019  0.1357
 4972TIP3    H214850   7.460   6.952   0.411 -0.6021 -0.3649  1.6973
 4973TIP3   OH214851   7.186   4.115   1.108 -0.3572  0.1290  0.3760
 4973TIP3    H114852   7.263   4.058   1.113 -0.6390 -0.3147 -0.1761
 4973TIP3    H214853   7.147   4.112   1.195 -0.1455 -0.2161  0.4589
 4974TIP3   OH214854   6.083   6.155   0.766  0.2256  0.5524  0.4580
 4974TIP3    H114855   6.133   6.196   0.696 -1.3631  0.7036 -0.6213
 4974TIP3    H214856   6.016   6.104   0.721  0.7025 -1.3450  1.8232
 4975TIP3   OH214857   8.033   4.512   0.662  0.0651  0.0431 -0.5999
 4975TIP3    H114858   7.976   4.439   0.641 -0.6768  1.2260 -2.8606
 4975TIP3    H214859   8.114   4.495   0.614  0.4034  0.0114 -0.0232
 4976TIP3   OH214860   6.731   4.164   2.551  0.1439  0.2118  0.2590
 4976TIP3    H114861   6.818   4.147   2.515  0.0168  0.1453 -0.0286
 4976TIP3    H214862   6.678   4.091   2.517 -0.1881  0.6540 -0.1778
 4977TIP3   OH214863   5.927   7.320   1.505  0.2454 -0.1404 -0.3228
 4977TIP3    H114864   6.014   7.354   1.485  0.8087 -0.6240  1.2645
 4977TIP3    H214865   5.871   7.398   1.509  0.9196  0.3192  0.2630
 4978TIP3   OH214866   7.572   7.107   0.822 -0.7157  0.6346 -0.1848
 4978TIP3    H114867   7.649   7.113   0.765 -0.5701 -0.3447 -0.1091
 4978TIP3    H214868   7.544   7.015   0.815 -1.1664  0.6965  0.7027
 4979TIP3   OH214869   4.045   0.625   6.664 -0.4286 -0.5891 -0.1312
 4979TIP3    H114870   4.081   0.686   6.599 -1.5576  0.2148 -0.0095
 4979TIP3    H214871   4.122   0.593   6.711  0.0858  1.6316  0.6060
 4980TIP3   OH214872   7.882   6.083   2.188 -0.4148 -0.0277  0.0998
 4980TIP3    H114873   7.891   6.106   2.280  0.9653  2.0245 -0.5178
 4980TIP3    H214874   7.789   6.097   2.169 -0.6396 -0.1320  1.0669
 4981TIP3   OH214875   5.163   4.284   0.846 -0.1674 -0.0994  0.2088
 4981TIP3    H114876   5.174   4.267   0.940 -0.6817 -1.6523  0.0077
 4981TIP3    H214877   5.132   4.201   0.811 -1.8558  1.0220 -1.0204
 4982TIP3   OH214878   4.304   1.290   6.469 -0.1438 -0.1268  0.4258
 4982TIP3    H114879   4.307   1.361   6.405 -0.1707 -1.1340 -0.7150
 4982TIP3    H214880   4.396   1.276   6.493 -0.0952 -0.0346  0.2912
 4983TIP3   OH214881   6.500   4.287   1.702 -0.5827  0.4151  0.6472
 4983TIP3    H114882   6.520   4.376   1.730  2.6448 -0.3907  1.0415
 4983TIP3    H214883   6.477   4.241   1.783 -4.0486  1.2755  0.2262
 4984TIP3   OH214884   0.222   4.295   2.530 -0.1694 -0.5530  0.0599
 4984TIP3    H114885   0.263   4.248   2.457 -1.1100 -0.3134 -0.6324
 4984TIP3    H214886   0.215   4.229   2.599  0.8855 -0.7334  0.0102
 4985TIP3   OH214887   7.378   6.707   2.074 -0.1280  0.0243 -0.3802
 4985TIP3    H114888   7.344   6.766   2.007 -1.0144 -0.0170  0.0291
 4985TIP3    H214889   7.371   6.620   2.035 -0.6972 -0.0052 -0.2013
 4986TIP3   OH214890   0.170   2.253   1.384 -0.4296  0.9512 -0.6060
 4986TIP3    H114891   0.179   2.168   1.340 -3.1765  0.4162 -0.2294
 4986TIP3    H214892   0.150   2.314   1.313 -3.8968  0.2595 -0.3199
 4987TIP3   OH214893   4.455   4.438   0.881  0.3650 -0.0511  0.0304
 4987TIP3    H114894   4.469   4.350   0.847 -2.2247 -0.5534  0.1270
 4987TIP3    H214895   4.537   4.484   0.864  1.0614 -1.8981 -1.8213
 4988TIP3   OH214896   5.804   1.853   5.969 -0.3065  0.2660 -0.0250
 4988TIP3    H114897   5.764   1.835   5.884 -0.3110  0.9073 -0.1612
 4988TIP3    H214898   5.761   1.793   6.030 -1.3062  0.7879 -0.2131
 4989TIP3   OH214899   6.015   2.551   5.079 -0.4145  0.1451  0.1125
 4989TIP3    H114900   6.026   2.562   4.985 -0.2095 -1.2562 -0.0272
 4989TIP3    H214901   6.085   2.604   5.118  0.4130 -0.4556 -0.5561
 4990TIP3   OH214902   7.684   5.157   1.224  0.2404  0.0583  0.0789
 4990TIP3    H114903   7.658   5.205   1.145 -0.4955  0.2738  0.4513
 4990TIP3    H214904   7.720   5.225   1.282  0.6507 -0.0799 -0.0098
 4991TIP3   OH214905   3.753   3.460   6.547  0.3280  0.7871 -0.1636
 4991TIP3    H114906   3.734   3.371   6.515  0.7010  0.8361 -0.5323
 4991TIP3    H214907   3.791   3.446   6.634  0.5607  0.5716 -0.2978
 4992TIP3   OH214908   8.243   6.453   1.545 -0.2941  0.0210 -0.3181
 4992TIP3    H114909   8.232   6.461   1.451 -0.8612  0.5019 -0.2121
 4992TIP3    H214910   8.247   6.543   1.577  0.5156 -0.1340  0.0516
 4993TIP3   OH214911   2.320   0.291   1.446 -0.1316 -0.4364 -0.0173
 4993TIP3    H114912   2.351   0.234   1.517  3.4166 -1.0745 -1.9724
 4993TIP3    H214913   2.300   0.231   1.375  0.2206  0.4918 -0.9051
 4994TIP3   OH214914   0.533   0.213   0.655 -0.0132  0.0777 -0.0091
 4994TIP3    H114915   0.603   0.257   0.607 -1.9861  1.7701 -1.4089
 4994TIP3    H214916   0.462   0.204   0.591 -1.3333 -0.9431  1.5727
 4995TIP3   OH214917   4.757   1.433   6.313 -0.2765 -0.7769  0.3433
 4995TIP3    H114918   4.708   1.425   6.395  1.2219  0.2889  1.3806
 4995TIP3    H214919   4.817   1.359   6.314  1.2695  0.4586  1.3069
 4996TIP3   OH214920   5.768   4.760   0.078 -0.3660  0.0276 -0.2354
 4996TIP3    H114921   5.729   4.834   0.125 -2.1180 -0.2481 -1.2068
 4996TIP3    H214922   5.861   4.782   0.072 -0.8565  2.1380 -0.5069
 4997TIP3   OH214923   7.166   5.685   0.633  0.5601 -0.2377  0.2018
 4997TIP3    H114924   7.189   5.602   0.675  0.5768 -0.5708 -0.4676
 4997TIP3    H214925   7.098   5.663   0.570 -0.1138  0.4115  0.6920
 4998TIP3   OH214926   7.223   5.837   0.114  0.2980  0.4067  1.0270
 4998TIP3    H114927   7.182   5.751   0.125 -2.7176  1.3407 -2.1917
 4998TIP3    H214928   7.183   5.891   0.182 -0.7265  0.2471  0.5595
 4999TIP3   OH214929   0.694   1.524   0.478  0.3093 -0.0788 -0.0137
 4999TIP3    H114930   0.642   1.556   0.552 -0.5582  1.4584 -1.2605
 4999TIP3    H214931   0.629   1.490   0.417  0.9982 -0.9725 -0.2494
 5000TIP3   OH214932   7.385   6.549   4.030 -0.5205  0.1692 -0.5608
 5000TIP3    H114933   7.329   6.561   4.106  1.2493  1.3958  0.5755
 5000TIP3    H214934   7.335   6.490   3.973 -2.5319  0.4699  0.8322
 5001TIP3   OH214935   6.051   4.447   0.812  0.1170 -0.5877 -0.0438
 5001TIP3    H114936   6.138   4.460   0.774 -1.0682  1.9467 -2.0310
 5001TIP3    H214937   6.022   4.535   0.835 -2.1402 -1.3648  0.1319
 5002TIP3   OH214938   0.886   0.037   3.759 -0.1772  0.2473 -0.1852
 5002TIP3    H114939   0.876   0.131   3.767 -1.6204  0.0444  0.4085
 5002TIP3    H214940   0.886   0.021   3.664 -0.8895  0.7435 -0.2718
 5003TIP3   OH214941   4.487   1.808   6.530 -0.4264 -0.3431 -0.2889
 5003TIP3    H114942   4.568   1.844   6.492  0.3375 -0.9849  0.6934
 5003TIP3    H214943   4.443   1.884   6.569  0.3386 -0.1888  0.2893
 5004TIP3   OH214944   8.404   5.165   2.022 -0.1825  0.1709  0.3289
 5004TIP3    H114945   8.403   5.183   1.928  0.8047  1.3979  0.5289
 5004TIP3    H214946   8.385   5.072   2.030 -2.1590  0.4437 -0.9827
 5005TIP3   OH214947   7.681   4.250   0.398  0.5689  0.2627 -0.7841
 5005TIP3    H114948   7.681   4.278   0.307  1.4073  1.9702 -0.2724
 5005TIP3    H214949   7.630   4.316   0.444  1.4596  0.2561  0.2339
 5006TIP3   OH214950   8.258   4.877   0.678  0.2237  0.6696 -0.1017
 5006TIP3    H114951   8.210   4.817   0.621  0.3800 -0.1445  0.6175
 5006TIP3    H214952   8.191   4.915   0.735  0.3606 -0.1510  0.6203
 5007TIP3   OH214953   7.903   4.900   1.243  0.1184 -0.8842 -0.8780
 5007TIP3    H114954   7.874   4.953   1.318  0.0506 -1.4132 -0.5338
 5007TIP3    H214955   7.998   4.907   1.243  0.1541 -1.3839 -0.3798
 5008TIP3   OH214956   5.757   6.784   2.422  0.3001 -0.3929  0.1773
 5008TIP3    H114957   5.821   6.713   2.412  1.7073  1.0639 -1.5299
 5008TIP3    H214958   5.746   6.818   2.333 -0.7539  1.1978  0.9090
 5009TIP3   OH214959   1.279   4.911   0.538  0.3301 -0.2215  0.6023
 5009TIP3    H114960   1.196   4.865   0.526 -0.4074  0.8434  1.5673
 5009TIP3    H214961   1.320   4.908   0.452 -1.0978  0.0111 -0.0980
 5010TIP3   OH214962   0.076   7.032   1.136  0.2194  0.6094  0.2449
 5010TIP3    H114963   0.069   7.111   1.190 -2.1270  0.6674 -0.0605
 5010TIP3    H214964   0.002   7.038   1.075  1.6830 -0.4305 -1.6707
 5011TIP3   OH214965   5.634   4.862   1.943 -0.0579  0.1683 -0.1157
 5011TIP3    H114966   5.636   4.782   1.996  0.3168  1.0128  1.1608
 5011TIP3    H214967   5.724   4.870   1.909  0.0235  0.3034  0.1338
 5012TIP3   OH214968   7.054   5.762   1.083 -0.1849  0.5122 -0.2018
 5012TIP3    H114969   7.052   5.689   1.021  0.1263  0.0431  0.3272
 5012TIP3    H214970   7.143   5.761   1.118 -0.5651  0.3033  0.7918
 5013TIP3   OH214971   6.937   6.615   1.334  0.4931  0.5807 -0.2897
 5013TIP3    H114972   6.909   6.624   1.425  2.1573 -0.9931  0.4167
 5013TIP3    H214973   6.870   6.660   1.283 -0.3389  1.6803  1.7310
 5014TIP3   OH214974   5.634   7.449   3.185  0.0433  0.2932 -0.2540
 5014TIP3    H114975   5.623   7.529   3.236  0.0032 -0.3234  0.7060
 5014TIP3    H214976   5.680   7.389   3.243 -0.8264 -0.7332 -0.6110
 5015TIP3   OH214977   6.817   7.177   2.734  0.4151 -0.5868 -0.2045
 5015TIP3    H114978   6.742   7.178   2.794  1.4230  1.3245  1.0782
 5015TIP3    H214979   6.834   7.085   2.718 -2.5648 -1.0382 -0.9603
 5016TIP3   OH214980   7.122   7.185   2.838 -0.1556 -0.0335  0.0692
 5016TIP3    H114981   7.098   7.099   2.873  1.2754  0.3200  2.0143
 5016TIP3    H214982   7.183   7.166   2.767  1.1454 -0.5896  1.3189
 5017TIP3   OH214983   5.339   6.392   1.301 -0.3848  0.8649  0.5041
 5017TIP3    H114984   5.287   6.333   1.356 -0.4350  3.2642  3.1045
 5017TIP3    H214985   5.419   6.408   1.352  1.5930 -0.3305 -2.1021
 5018TIP3   OH214986   7.523   5.466   1.521 -0.0716  0.2580 -0.0366
 5018TIP3    H114987   7.589   5.485   1.587  1.2257  0.4844 -1.3700
 5018TIP3    H214988   7.459   5.537   1.530 -0.0953  0.0963  1.1925
 5019TIP3   OH214989   7.301   6.242   1.469  0.3481 -0.0165  0.4107
 5019TIP3    H114990   7.368   6.284   1.524  0.7979  0.4203 -0.4404
 5019TIP3    H214991   7.246   6.315   1.439  0.9197 -0.0661 -0.7921
 5020TIP3   OH214992   7.414   3.738   2.337 -0.4639 -0.1021 -0.3180
 5020TIP3    H114993   7.467   3.767   2.263  1.0114  2.5355  1.6541
 5020TIP3    H214994   7.438   3.645   2.348  2.9229  0.6924 -0.2477
 5021TIP3   OH214995   0.373   6.376   2.538  0.2404 -0.0891  0.4976
 5021TIP3    H114996   0.390   6.437   2.466 -0.3108 -0.6608 -0.1273
 5021TIP3    H214997   0.409   6.293   2.508  0.9759 -0.0815  1.3411
 5022TIP3   OH214998   1.732   0.393   1.929 -0.3994  0.5170 -0.0428
 5022TIP3    H114999   1.647   0.348   1.928 -0.3645  0.2627  2.8560
 5022TIP3    H215000   1.792   0.332   1.886 -1.4385  0.1955 -1.0650
 5023TIP3   OH215001   3.500   0.561   6.082 -0.2613 -0.2416 -0.0327
 5023TIP3    H115002   3.478   0.512   6.162  1.4498 -0.5225  0.2742
 5023TIP3    H215003   3.571   0.619   6.108 -0.8089  0.8641 -0.9568
 5024TIP3   OH215004   5.577   7.119   3.366 -0.1320  0.3650 -0.1537
 5024TIP3    H115005   5.569   7.196   3.422  1.2927  0.8802 -0.6335
 5024TIP3    H215006   5.670   7.094   3.373  0.3038  1.0508 -3.0531
 5025TIP3   OH215007   7.955   1.345   3.631 -0.5240 -0.1581  0.0598
 5025TIP3    H115008   8.010   1.270   3.609 -0.3105  0.0465 -0.1072
 5025TIP3    H215009   7.986   1.415   3.574 -0.0127  0.3597  0.9713
 5026TIP3   OH215010   8.009   5.195   0.196 -0.1236 -0.5372 -0.3058
 5026TIP3    H115011   7.966   5.177   0.113 -0.8305 -0.1817 -0.0203
 5026TIP3    H215012   8.023   5.108   0.235 -2.1623 -0.5759  0.3908
 5027TIP3   OH215013   8.090   3.714   2.223  0.1890  0.1546  0.1234
 5027TIP3    H115014   8.074   3.665   2.142 -0.6473 -0.7749  0.8371
 5027TIP3    H215015   8.101   3.805   2.194  2.3215 -0.5170 -1.2659
 5028TIP3   OH215016   1.069   5.220   1.926  0.4223 -0.0069  0.1155
 5028TIP3    H115017   1.106   5.288   1.870  1.0157  0.7769  1.4293
 5028TIP3    H215018   1.033   5.268   2.001 -0.6192 -1.0132  0.2733
 5029TIP3   OH215019   1.669   7.158   1.805 -0.0100 -0.1656  0.1779
 5029TIP3    H115020   1.658   7.240   1.756  1.7081  1.1631  1.9344
 5029TIP3    H215021   1.630   7.176   1.890 -2.8663 -2.4195 -0.5701
 5030TIP3   OH215022   7.477   6.530   0.834  0.1761  0.1917 -0.3237
 5030TIP3    H115023   7.419   6.591   0.789 -0.4141 -0.8695 -1.0365
 5030TIP3    H215024   7.552   6.521   0.776 -1.2098 -2.2602 -1.8626
 5031TIP3   OH215025   7.193   5.292   1.957  0.1182  0.3152  0.1381
 5031TIP3    H115026   7.138   5.322   2.030 -0.4516  2.5651 -1.1773
 5031TIP3    H215027   7.143   5.220   1.918 -0.4249  0.2991  0.8436
 5032TIP3   OH215028   0.163   7.278   1.572 -0.1431  0.7361  0.0446
 5032TIP3    H115029   0.093   7.327   1.613 -0.7880  0.5013 -0.7527
 5032TIP3    H215030   0.168   7.196   1.622 -3.2728 -1.0696 -2.4148
 5033TIP3   OH215031   7.423   4.663   3.663 -0.6848  0.0553  0.0120
 5033TIP3    H115032   7.474   4.583   3.660  0.5297  0.6819  2.7367
 5033TIP3    H215033   7.483   4.731   3.632 -0.3768  0.5371  1.6460
 5034TIP3   OH215034   7.101   6.647   2.096 -0.5028  0.3109 -0.7561
 5034TIP3    H115035   7.156   6.591   2.150 -2.3365 -0.3079  0.5026
 5034TIP3    H215036   7.094   6.729   2.146  0.0665  0.7590 -1.3898
 5035TIP3   OH215037   5.903   2.958   3.323 -0.6967  0.4483  0.1908
 5035TIP3    H115038   5.819   2.998   3.347 -0.3653  1.1564  0.1805
 5035TIP3    H215039   5.879   2.872   3.288 -1.3565  0.3062  0.9645
 5036TIP3   OH215040   8.249   6.113   0.253 -0.2581  0.6758  0.1411
 5036TIP3    H115041   8.158   6.081   0.252 -0.1261  0.2473 -2.1482
 5036TIP3    H215042   8.284   6.082   0.336 -1.6569 -0.8024  0.2156
 5037TIP3   OH215043   3.558   3.444   6.115 -0.3597  0.1191  0.0051
 5037TIP3    H115044   3.604   3.444   6.030  1.1274 -2.0863  0.7590
 5037TIP3    H215045   3.618   3.487   6.175 -0.3194 -0.5874  0.4772
 5038TIP3   OH215046   4.714   7.124   1.393  0.6144  0.4460  0.7480
 5038TIP3    H115047   4.620   7.144   1.388  0.5863 -0.2330 -2.6609
 5038TIP3    H215048   4.757   7.209   1.401 -0.2172  0.9045  0.4168
 5039TIP3   OH215049   7.532   1.427   6.912  0.3815  0.4098 -0.0089
 5039TIP3    H115050   7.584   1.423   6.992  2.3330  0.2753 -1.2616
 5039TIP3    H215051   7.556   1.348   6.864 -0.5575  0.6419 -0.8685
 5040TIP3   OH215052   1.851   5.019   2.357 -0.5893 -0.2089  0.1658
 5040TIP3    H115053   1.824   5.100   2.313  0.4105 -0.3270 -0.6842
 5040TIP3    H215054   1.773   4.991   2.405 -1.6498  0.0554 -1.3458
 5041TIP3   OH215055   1.313   0.948   3.847 -0.5322 -0.1875 -0.5394
 5041TIP3    H115056   1.394   0.896   3.848  0.1894  0.9411  2.2284
 5041TIP3    H215057   1.259   0.909   3.915 -0.9299  1.2559 -0.0377
 5042TIP3   OH215058   7.943   5.989   1.651 -0.1553  0.5592 -0.1249
 5042TIP3    H115059   7.862   6.027   1.684  0.2813  2.2063 -0.9128
 5042TIP3    H215060   8.000   5.984   1.727 -0.9311 -0.4452  0.3971
 5043TIP3   OH215061   5.291   5.369   0.728  0.3490  0.3023  0.3954
 5043TIP3    H115062   5.274   5.463   0.735 -1.3291  0.1038 -0.7448
 5043TIP3    H215063   5.205   5.328   0.732  0.9953 -1.1459  0.0329
 5044TIP3   OH215064   4.784   5.928   2.447 -0.0658 -0.3218  0.2450
 5044TIP3    H115065   4.867   5.881   2.441  0.4908  0.4431  1.6192
 5044TIP3    H215066   4.748   5.926   2.358  1.2926 -0.9068 -0.2986
 5045TIP3   OH215067   6.023   5.625   1.944 -0.0555 -0.1361 -0.1460
 5045TIP3    H115068   6.110   5.644   1.911  0.4696 -0.2860  1.1256
 5045TIP3    H215069   6.032   5.628   2.040 -1.1323 -1.5025  0.0179
 5046TIP3   OH215070   6.060   6.920   1.527 -0.4185 -0.4290 -0.3878
 5046TIP3    H115071   6.109   6.976   1.466 -0.8637  0.3474 -0.0473
 5046TIP3    H215072   6.000   6.871   1.471 -0.3880 -0.1799 -0.6433
 5047TIP3   OH215073   6.201   6.984   2.847  0.3767 -0.1329 -0.0633
 5047TIP3    H115074   6.230   6.933   2.922 -0.1337  1.0320  0.9416
 5047TIP3    H215075   6.119   6.942   2.819 -0.1912  0.2901  0.9392
 5048TIP3   OH215076   7.075   6.848   2.275  0.4942 -0.3617  0.4460
 5048TIP3    H115077   7.002   6.814   2.327  0.4033 -1.1715 -0.1802
 5048TIP3    H215078   7.154   6.819   2.321  0.4140 -0.5455  0.4690
 5049TIP3   OH215079   5.055   2.327   6.621 -0.3759  0.2212  0.1782
 5049TIP3    H115080   4.990   2.284   6.676 -3.7811  2.3014 -1.9832
 5049TIP3    H215081   5.080   2.261   6.556 -0.1781 -0.6667  1.1518
 5050TIP3   OH215082   5.074   7.997   0.141  0.5738  0.1025 -0.5466
 5050TIP3    H115083   5.032   7.946   0.210  0.8373  1.5379  0.6873
 5050TIP3    H215084   5.019   8.075   0.131 -0.3051 -0.7952 -3.0103
 5051TIP3   OH215085   8.327   2.218   2.865 -0.1278  0.5784 -0.1140
 5051TIP3    H115086   8.422   2.220   2.879 -0.3586  1.3677  1.5584
 5051TIP3    H215087   8.304   2.308   2.841 -0.6501  0.8106  1.1689
 5052TIP3   OH215088   7.707   5.992   1.290  0.1988  0.1283  0.1844
 5052TIP3    H115089   7.728   5.929   1.222  0.5250 -0.0014  0.4038
 5052TIP3    H215090   7.792   6.027   1.318  0.0800  0.0393  0.6585
 5053TIP3   OH215091   6.352   7.577   2.245  0.0035 -0.2274  0.0340
 5053TIP3    H115092   6.422   7.562   2.309 -1.8599 -2.1593  1.7226
 5053TIP3    H215093   6.338   7.491   2.205 -1.2028  0.1959 -0.4719
 5054TIP3   OH215094   5.348   5.631   3.606 -0.5682  0.5266 -0.4905
 5054TIP3    H115095   5.355   5.625   3.510 -0.4591  1.5381 -0.5490
 5054TIP3    H215096   5.260   5.666   3.621  0.0450  2.0171 -0.2901
 5055TIP3   OH215097   8.097   7.470   0.914 -0.2998  0.1755  0.2649
 5055TIP3    H115098   8.010   7.505   0.893  0.2706  2.0522  0.9592
 5055TIP3    H215099   8.126   7.521   0.989  1.2429 -0.7309  0.3003
 5056TIP3   OH215100   8.298   5.004   1.450 -0.3111 -0.4089  0.0743
 5056TIP3    H115101   8.293   4.966   1.537  1.8333  0.9123  0.7900
 5056TIP3    H215102   8.281   5.097   1.463 -1.2056 -0.3913 -1.0965
 5057TIP3   OH215103   6.706   3.316   0.691 -0.0755 -0.4957 -0.5262
 5057TIP3    H115104   6.780   3.355   0.737 -0.9494 -0.6691  1.0692
 5057TIP3    H215105   6.630   3.367   0.720 -0.6206 -0.4325 -1.9898
 5058TIP3   OH215106   7.307   6.239   2.823  0.2256 -0.2792  0.1612
 5058TIP3    H115107   7.271   6.151   2.834 -0.0143 -0.3466 -1.0448
 5058TIP3    H215108   7.398   6.233   2.851  0.8851 -1.4955 -2.1222
 5059TIP3   OH215109   5.350   0.311   6.021  0.4272  0.4693 -0.2155
 5059TIP3    H115110   5.328   0.249   6.090 -0.8361  1.2359  0.0721
 5059TIP3    H215111   5.350   0.396   6.064  1.1740  0.7902 -0.8318
 5060TIP3   OH215112   3.415   2.922   6.756  0.3346 -0.1774  0.2643
 5060TIP3    H115113   3.320   2.923   6.741  0.4378  0.6121 -0.3708
 5060TIP3    H215114   3.430   2.991   6.820  0.4890 -0.2740  0.3324
 5061TIP3   OH215115   8.444   5.225   0.987  0.1674  0.8116  0.2149
 5061TIP3    H115116   8.437   5.133   0.959 -4.2014  1.0668  0.0116
 5061TIP3    H215117   8.509   5.263   0.928  0.3413 -1.6278 -1.2437
 5062TIP3   OH215118   7.253   5.232   0.290 -0.2480 -0.1237  0.1237
 5062TIP3    H115119   7.252   5.324   0.266  0.3565 -0.2361 -0.3369
 5062TIP3    H215120   7.180   5.222   0.351  0.3670  0.8996  1.0413
 5063TIP3   OH215121   4.878   3.349   0.297 -0.2428 -0.1853 -0.1425
 5063TIP3    H115122   4.792   3.354   0.256 -0.0725  2.5927 -0.2399
 5063TIP3    H215123   4.905   3.258   0.284 -3.0162 -1.0291 -0.3674
 5064TIP3   OH215124   7.599   4.605   1.536 -0.2487 -0.1236  0.1402
 5064TIP3    H115125   7.564   4.516   1.537 -1.1668  0.1990 -1.5321
 5064TIP3    H215126   7.584   4.635   1.446  1.7268  1.0510  0.1805
 5065TIP3   OH215127   6.582   6.122   0.754 -0.3575  0.4568  0.3302
 5065TIP3    H115128   6.533   6.184   0.700  0.1481  1.0200  0.5114
 5065TIP3    H215129   6.658   6.099   0.700 -0.1633  0.5565  0.5639
 5066TIP3   OH215130   6.135   4.780   4.354  0.3807  0.4298  0.0218
 5066TIP3    H115131   6.220   4.824   4.354  0.4205  0.3502 -0.5734
 5066TIP3    H215132   6.082   4.831   4.416  0.4629  1.2540 -0.5821
 5067TIP3   OH215133   8.284   3.881   6.094  0.0059  0.1902 -0.0728
 5067TIP3    H115134   8.322   3.827   6.025 -2.2072  0.6563 -1.7036
 5067TIP3    H215135   8.240   3.953   6.048  0.3709  1.7428  1.9229
 5068TIP3   OH215136   0.858   6.883   1.530  0.2177  0.0883  0.4897
 5068TIP3    H115137   0.924   6.950   1.513 -1.0283  1.2524  0.1342
 5068TIP3    H215138   0.778   6.917   1.488 -0.8949 -0.7595  1.8825
 5069TIP3   OH215139   7.905   6.821   2.109 -0.7675 -0.3832  0.4985
 5069TIP3    H115140   7.930   6.773   2.188  0.0591 -0.2109  0.3464
 5069TIP3    H215141   7.855   6.896   2.142 -1.5800 -1.0258  0.7675
 5070TIP3   OH215142   1.849   6.140   1.612  0.4738  0.5071  0.1191
 5070TIP3    H115143   1.781   6.143   1.545  0.9901 -0.2890 -0.4405
 5070TIP3    H215144   1.887   6.053   1.604  0.5438  0.4031  1.4460
 5071TIP3   OH215145   3.958   0.883   6.487 -0.2247  0.0959 -0.0653
 5071TIP3    H115146   4.008   0.962   6.468  0.4916 -0.1716  0.6630
 5071TIP3    H215147   3.957   0.877   6.583 -0.2159 -0.8089 -0.1126
 5072TIP3   OH215148   1.359   7.553   1.725 -0.0619  0.1419 -0.5782
 5072TIP3    H115149   1.269   7.579   1.709  0.3960  1.9636 -0.3203
 5072TIP3    H215150   1.379   7.590   1.811  0.3789 -1.7746  0.1774
 5073TIP3   OH215151   0.155   6.689   4.165 -0.2712  0.7187  0.9486
 5073TIP3    H115152   0.230   6.630   4.175 -1.0477 -0.2662  1.1033
 5073TIP3    H215153   0.089   6.653   4.224 -1.0382  1.2749  0.4325
 5074TIP3   OH215154   0.344   7.198   2.885 -0.1330  0.2335  0.0165
 5074TIP3    H115155   0.392   7.125   2.923 -0.3901  0.6011  1.0766
 5074TIP3    H215156   0.261   7.160   2.856  0.5661 -0.2926 -1.3242
 5075TIP3   OH215157   1.661   4.417   0.933  0.2112 -0.0284  0.2868
 5075TIP3    H115158   1.621   4.494   0.974 -1.0612  0.2535 -1.4011
 5075TIP3    H215159   1.636   4.344   0.989 -2.4795  0.1881 -0.5576
 5076TIP3   OH215160   7.054   5.799   2.963  0.8050 -0.0613  0.1992
 5076TIP3    H115161   7.023   5.799   2.873  0.3001  0.3928  0.3701
 5076TIP3    H215162   7.138   5.754   2.960  2.6639  3.3163 -1.1593
 5077TIP3   OH215163   7.587   6.203   2.593 -0.0409 -0.1509 -0.2494
 5077TIP3    H115164   7.592   6.118   2.637 -0.8703 -0.4225 -0.6663
 5077TIP3    H215165   7.500   6.204   2.553 -0.6225  1.5019  0.9990
 5078TIP3   OH215166   7.577   7.340   4.067  0.4535  0.2430  0.1224
 5078TIP3    H115167   7.580   7.323   3.973 -0.9628  0.1855  0.0719
 5078TIP3    H215168   7.557   7.255   4.106  3.5561 -0.2598  0.6972
 5079TIP3   OH215169   2.874   5.302   3.262 -0.5099 -0.1432  0.2431
 5079TIP3    H115170   2.794   5.303   3.315 -1.6817  0.0907 -1.4595
 5079TIP3    H215171   2.936   5.249   3.311 -1.1836  0.9942  2.3551
 5080TIP3   OH215172   7.657   6.289   1.422  0.3622 -0.3030  0.0779
 5080TIP3    H115173   7.672   6.249   1.336 -0.5510  0.9813 -0.6953
 5080TIP3    H215174   7.725   6.356   1.429  0.8529 -0.8453  0.6663
 5081TIP3   OH215175   1.889   1.116   3.968  0.3189 -0.1008  0.4816
 5081TIP3    H115176   1.827   1.174   3.925  1.2221  1.0327  0.6811
 5081TIP3    H215177   1.932   1.171   4.034  2.5605 -0.4643 -0.6322
 5082TIP3   OH215178   0.523   7.333   1.959 -0.0571 -0.2114  0.0874
 5082TIP3    H115179   0.435   7.329   1.997 -0.0016  0.2671  0.2673
 5082TIP3    H215180   0.518   7.404   1.895  1.1230  2.1449  2.5134
 5083TIP3   OH215181   8.093   7.665   3.683  0.2889  0.2708 -0.0287
 5083TIP3    H115182   8.077   7.583   3.635  1.0635  0.4472 -0.5949
 5083TIP3    H215183   8.011   7.714   3.675 -1.5193 -1.9427  3.3616
 5084TIP3   OH215184   8.451   6.689   2.384  0.6771  0.4722  0.1551
 5084TIP3    H115185   8.359   6.708   2.403  0.3619 -1.0822  0.2832
 5084TIP3    H215186   8.499   6.733   2.454 -0.0215  0.6208  0.5518
 5085TIP3   OH215187   1.222   6.484   0.360 -0.4075 -0.1043  0.8475
 5085TIP3    H115188   1.135   6.505   0.392 -0.1941  2.0362  0.1318
 5085TIP3    H215189   1.281   6.516   0.428 -0.1292  0.0894  0.5173
 5086TIP3   OH215190   7.827   5.915   2.857  0.1651 -0.6585 -0.5159
 5086TIP3    H115191   7.888   5.931   2.929 -1.7436  0.9808  0.7999
 5086TIP3    H215192   7.882   5.915   2.778  2.0315 -0.5955  0.7482
 5087TIP3   OH215193   0.153   7.707   3.200 -0.4116  0.1460 -0.1380
 5087TIP3    H115194   0.210   7.734   3.129 -0.4952 -1.0704 -0.6900
 5087TIP3    H215195   0.166   7.612   3.206  0.0246  0.2964  1.8378
 5088TIP3   OH215196   2.547   5.509   2.676 -0.5379  0.8635 -0.4589
 5088TIP3    H115197   2.547   5.603   2.658 -0.4511  0.6635 -1.5300
 5088TIP3    H215198   2.558   5.503   2.771  1.2866  1.9172 -0.5719
 5089TIP3   OH215199   1.052   6.301   3.267 -0.0954 -0.0196  0.0111
 5089TIP3    H115200   0.957   6.308   3.279 -0.2854 -0.5536 -1.1452
 5089TIP3    H215201   1.065   6.311   3.173  1.2702  3.0785  0.4568
 5090TIP3   OH215202   0.401   7.241   4.085 -0.2045 -0.1789  0.6088
 5090TIP3    H115203   0.320   7.266   4.131 -0.3833 -1.1479  0.8196
 5090TIP3    H215204   0.374   7.230   3.994 -0.5286 -1.4995  0.8526
 5091TIP3   OH215205   6.295   5.948   3.047  0.2697  0.2680 -0.4190
 5091TIP3    H115206   6.374   5.929   3.098  0.0438  0.2519 -0.0741
 5091TIP3    H215207   6.236   5.989   3.110 -0.6310 -1.2577 -0.2604
 5092TIP3   OH215208   8.303   4.441   2.485 -0.6096  0.1305 -0.0978
 5092TIP3    H115209   8.269   4.352   2.475 -1.1413  0.3155  0.0621
 5092TIP3    H215210   8.245   4.482   2.549 -1.2848  1.0761 -1.3093
 5093TIP3   OH215211   0.861   7.527   0.895 -0.2550  0.4067  0.4991
 5093TIP3    H115212   0.938   7.472   0.893 -1.0646 -0.6900 -1.0475
 5093TIP3    H215213   0.893   7.615   0.873  0.3745 -0.2687 -1.3514
 5094TIP3   OH215214   0.922   4.844   1.867  0.5104  0.4583 -0.2569
 5094TIP3    H115215   0.941   4.801   1.950 -0.5766  1.9152  0.7691
 5094TIP3    H215216   0.888   4.930   1.892 -0.5368  0.6220 -2.1915
 5095TIP3   OH215217   0.548   5.143   2.984 -0.4442  0.1169  0.1724
 5095TIP3    H115218   0.572   5.095   3.063 -2.1938 -1.3720 -0.1840
 5095TIP3    H215219   0.573   5.086   2.912  0.3972  1.1310 -0.3658
 5096TIP3   OH215220   0.398   6.508   2.863 -0.7239  0.0097  0.0661
 5096TIP3    H115221   0.418   6.419   2.836  2.0877  1.3258 -2.5225
 5096TIP3    H215222   0.482   6.544   2.892 -1.9252  1.6588  1.6693
 5097TIP3   OH215223   0.259   5.450   2.824  0.7177  0.3938 -0.4697
 5097TIP3    H115224   0.290   5.429   2.912 -2.9899 -0.0401  0.8219
 5097TIP3    H215225   0.243   5.544   2.826  0.4502  0.3518 -0.6314
 5098TIP3   OH215226   0.335   4.985   2.071 -0.3126  0.5214 -0.1117
 5098TIP3    H115227   0.246   4.961   2.047 -0.1835  0.2133 -0.2892
 5098TIP3    H215228   0.343   4.961   2.163 -0.9469  2.1061  0.3599
 5099TIP3   OH215229   1.316   0.675   4.641  0.0333 -0.2124 -0.5778
 5099TIP3    H115230   1.301   0.589   4.680  1.3502 -1.1575 -2.0697
 5099TIP3    H215231   1.410   0.687   4.645 -0.1151  1.0085 -0.6836
 5100TIP3   OH215232   1.753   5.138   0.685  0.1216  0.9508  0.1252
 5100TIP3    H115233   1.668   5.095   0.698 -0.2133  1.2081 -1.1798
 5100TIP3    H215234   1.789   5.098   0.606  0.8200  1.4660  0.1765
 5101TIP3   OH215235   1.438   6.029   2.098 -0.1028 -0.0826  0.6089
 5101TIP3    H115236   1.415   5.961   2.035  0.5662  1.0606 -0.9241
 5101TIP3    H215237   1.410   6.111   2.056  5.0276  1.2322 -0.6494
 5102TIP3   OH215238   0.900   7.816   1.116  0.1381 -0.0017 -0.3705
 5102TIP3    H115239   0.872   7.828   1.206 -1.7034  2.8630 -1.2857
 5102TIP3    H215240   0.824   7.778   1.072  0.3125  0.5841 -1.1798
 5103TIP3   OH215241   4.091   7.660   2.539  0.4079  0.0772 -0.8592
 5103TIP3    H115242   4.070   7.704   2.457 -1.2766 -0.4486 -0.7424
 5103TIP3    H215243   4.017   7.600   2.553  1.4448 -0.9683  0.2313
 5104TIP3   OH215244   3.657   7.674   0.778 -0.2642 -0.1737 -0.2343
 5104TIP3    H115245   3.612   7.705   0.857 -0.2524 -0.1498 -0.2366
 5104TIP3    H215246   3.588   7.662   0.714 -0.1573  0.8346 -0.5565
 5105TIP3   OH215247   7.935   6.406   0.659  0.3208  0.0178 -0.1751
 5105TIP3    H115248   8.019   6.369   0.632 -0.3657 -0.3946 -1.7910
 5105TIP3    H215249   7.907   6.350   0.732 -0.0139 -1.8061 -1.6418
 5106TIP3   OH215250   0.434   6.620   1.093  0.3138 -0.7366 -0.0636
 5106TIP3    H115251   0.393   6.702   1.121  0.0251 -0.1238 -2.1412
 5106TIP3    H215252   0.513   6.614   1.146 -0.3331  0.2077  1.0481
 5107TIP3   OH215253   2.294   6.202   2.169 -0.6504 -0.0968  0.1222
 5107TIP3    H115254   2.300   6.107   2.163 -0.2918 -0.0978  0.4364
 5107TIP3    H215255   2.205   6.223   2.140 -1.1571 -0.6283  1.2699
 5108TIP3   OH215256   0.709   7.296   0.555 -0.0780  0.0801 -0.1808
 5108TIP3    H115257   0.637   7.353   0.583 -0.8650 -0.5072 -0.9654
 5108TIP3    H215258   0.696   7.286   0.460  1.2102  0.2070 -0.3883
 5109TIP3   OH215259   1.993   4.147   0.905 -0.0074 -0.5408  0.0142
 5109TIP3    H115260   2.037   4.066   0.931 -0.2823 -0.4816  0.6654
 5109TIP3    H215261   1.922   4.157   0.968  1.2016  1.2307  1.1294
 5110TIP3   OH215262   2.593   7.211   1.872  0.2916  0.2431  0.2385
 5110TIP3    H115263   2.513   7.247   1.912 -1.3817 -0.4126 -2.3520
 5110TIP3    H215264   2.596   7.121   1.902  0.4747  0.4905  0.9631
 5111TIP3   OH215265   7.008   0.739   2.712  0.8518 -0.0781 -0.3426
 5111TIP3    H115266   7.093   0.698   2.727  1.4539  0.4864 -2.0874
 5111TIP3    H215267   7.029   0.830   2.689 -0.2396  0.1607 -0.4012
 5112TIP3   OH215268   2.046   5.337   3.366  0.3362  0.3135 -0.0136
 5112TIP3    H115269   2.036   5.339   3.271 -1.6501  1.0934  0.1840
 5112TIP3    H215270   2.137   5.311   3.380  0.5093 -0.3041 -2.1144
 5113TIP3   OH215271   3.650   6.826   3.288  0.3415  0.8389 -0.5182
 5113TIP3    H115272   3.608   6.859   3.368  0.5019  0.9491 -0.4774
 5113TIP3    H215273   3.671   6.905   3.239 -1.1632  0.7069 -1.3966
 5114TIP3   OH215274   3.853   6.890   2.191 -0.0794 -0.1330  0.0574
 5114TIP3    H115275   3.935   6.902   2.143 -1.0609  2.8264 -0.9870
 5114TIP3    H215276   3.873   6.920   2.280 -0.1038  0.8915 -0.2780
 5115TIP3   OH215277   1.123   5.655   2.538  0.3595 -0.5185 -0.1175
 5115TIP3    H115278   1.056   5.719   2.512  0.1958 -0.5791  0.1523
 5115TIP3    H215279   1.166   5.631   2.456 -0.9751 -1.6478 -0.5126
 5116TIP3   OH215280   3.171   0.140   1.790 -0.7254 -0.2099 -0.1132
 5116TIP3    H115281   3.229   0.082   1.740 -0.7785 -0.4993  0.1568
 5116TIP3    H215282   3.110   0.080   1.834 -0.6959  0.0410  0.2713
 5117TIP3   OH215283   0.644   5.924   1.533 -0.1886  0.5907  0.6551
 5117TIP3    H115284   0.672   6.006   1.492  1.3767  0.0980  0.7104
 5117TIP3    H215285   0.593   5.879   1.465  0.6970  0.6867 -0.0882
 5118TIP3   OH215286   7.080   2.278   5.602 -0.8636 -0.0498 -0.2178
 5118TIP3    H115287   7.014   2.348   5.598 -0.7675 -0.0549 -2.3784
 5118TIP3    H215288   7.129   2.296   5.682 -1.2241  2.0112 -0.4401
 5119TIP3   OH215289   0.349   4.457   1.347  0.4941 -0.3658  0.0477
 5119TIP3    H115290   0.360   4.395   1.420 -0.5196  0.1566  0.6428
 5119TIP3    H215291   0.259   4.487   1.354  0.7075  0.4843 -0.7980
 5120TIP3   OH215292   2.852   6.328   3.407 -0.8019  0.3582  0.0862
 5120TIP3    H115293   2.911   6.313   3.333 -1.6543 -1.9357 -0.1821
 5120TIP3    H215294   2.909   6.323   3.484 -0.4414 -0.7016 -0.2319
 5121TIP3   OH215295   3.270   7.879   2.204 -0.0486 -0.2779  0.1960
 5121TIP3    H115296   3.314   7.797   2.180 -0.1723 -0.2202 -0.2344
 5121TIP3    H215297   3.241   7.916   2.120  1.8260  1.2613  0.2091
 5122TIP3   OH215298   7.744   5.123   2.131  0.3692  0.3626  0.5664
 5122TIP3    H115299   7.728   5.196   2.191  0.5422  0.9041 -0.0408
 5122TIP3    H215300   7.837   5.105   2.139  0.4624  0.6681  0.2061
 5123TIP3   OH215301   5.909   0.671   0.033 -0.8754 -0.2219  0.0358
 5123TIP3    H115302   5.955   0.675   0.117 -0.8477 -0.0653  0.0146
 5123TIP3    H215303   5.962   0.613  -0.022 -1.0603 -0.5743  0.2272
 5124TIP3   OH215304   0.295   7.399   2.126  0.4829  0.0502 -0.1779
 5124TIP3    H115305   0.355   7.388   2.199 -0.4674 -0.1523  0.5831
 5124TIP3    H215306   0.210   7.368   2.159 -0.5574  2.4712 -0.4605
 5125TIP3   OH215307   2.329   6.003   1.888 -0.4317  0.1086  0.2809
 5125TIP3    H115308   2.284   5.956   1.958 -0.7896  0.0300 -0.0018
 5125TIP3    H215309   2.322   5.946   1.812 -0.0949  0.2213  0.1623
 5126TIP3   OH215310   1.560   4.846   3.205  0.2212  0.6973 -0.2481
 5126TIP3    H115311   1.572   4.924   3.151 -1.5123  2.0305  1.2415
 5126TIP3    H215312   1.564   4.878   3.295  0.8558 -1.1469  0.3984
 5127TIP3   OH215313   3.132   6.534   1.059  0.3449 -0.1401  0.9773
 5127TIP3    H115314   3.222   6.535   1.090 -0.1374 -0.3396  2.4360
 5127TIP3    H215315   3.080   6.552   1.137 -0.8387  0.8568 -0.0072
 5128TIP3   OH215316   2.563   6.995   3.175 -0.1666  0.0666 -0.2351
 5128TIP3    H115317   2.593   6.935   3.243 -1.2120 -1.2889 -0.9417
 5128TIP3    H215318   2.630   6.990   3.107  0.9381  1.5121  0.7212
 5129TIP3   OH215319   4.894   7.558   1.911  0.7762  1.0121 -0.4517
 5129TIP3    H115320   4.947   7.576   1.988 -1.7667 -0.3434  1.7107
 5129TIP3    H215321   4.833   7.632   1.907 -1.2515 -0.5342  0.8420
 5130TIP3   OH215322   2.635   6.851   1.386 -0.0085 -0.8180  0.2508
 5130TIP3    H115323   2.560   6.819   1.336 -1.2792  0.6156  1.1766
 5130TIP3    H215324   2.596   6.894   1.462  1.6215  2.3945 -0.6443
 5131TIP3   OH215325   1.113   7.061   1.496 -0.6594 -0.0843  1.1589
 5131TIP3    H115326   1.137   7.150   1.471 -0.9667 -0.1809  0.5117
 5131TIP3    H215327   1.124   7.059   1.591  1.5905 -0.0444  0.9187
 5132TIP3   OH215328   0.308   6.617   1.943  0.2096  0.1467  0.8431
 5132TIP3    H115329   0.276   6.692   1.892 -1.6829  0.0512  1.8333
 5132TIP3    H215330   0.380   6.652   1.995  2.5666  0.1090 -2.2851
 5133TIP3   OH215331   2.543   5.878   3.787 -0.3944  0.1454 -0.4864
 5133TIP3    H115332   2.597   5.804   3.816 -0.9095 -0.6510 -1.5171
 5133TIP3    H215333   2.577   5.953   3.835  0.5633 -0.6466  0.0917
 5134TIP3   OH215334   2.897   0.293   2.648  0.4407 -0.2175  0.1121
 5134TIP3    H115335   2.828   0.328   2.591  0.2507 -1.6655 -0.5706
 5134TIP3    H215336   2.861   0.211   2.681  1.2208 -0.2091  1.0070
 5135TIP3   OH215337   1.474   3.895   1.387  0.1679  0.2381  0.2915
 5135TIP3    H115338   1.560   3.869   1.354 -0.2308  1.5412 -1.8466
 5135TIP3    H215339   1.423   3.814   1.386  1.3532 -0.5558  1.6119
 5136TIP3   OH215340   4.582   7.422   0.284  0.0541 -0.0201 -0.5153
 5136TIP3    H115341   4.607   7.359   0.216  0.0225 -0.1022 -0.4500
 5136TIP3    H215342   4.585   7.373   0.365  0.1972  0.1068 -0.4430
 5137TIP3   OH215343   0.656   6.869   1.950 -0.1759  0.1937 -0.2819
 5137TIP3    H115344   0.722   6.937   1.933  1.2416 -0.8009  1.1016
 5137TIP3    H215345   0.652   6.819   1.868 -1.2873  1.9490 -1.3407
 5138TIP3   OH215346   2.034   6.053   3.136  0.2197 -0.0149 -0.3637
 5138TIP3    H115347   1.989   6.121   3.187 -0.7104 -0.7532 -0.1819
 5138TIP3    H215348   1.980   5.974   3.149  1.6167 -0.9384 -0.0697
 5139TIP3   OH215349   0.754   7.201   1.150 -0.0769  0.4425 -0.1768
 5139TIP3    H115350   0.824   7.261   1.176 -0.2317 -0.1270  1.6095
 5139TIP3    H215351   0.800   7.127   1.111  0.2157  0.8254 -0.5716
 5140TIP3   OH215352   0.506   7.581   2.458  0.8540 -0.0240 -0.2981
 5140TIP3    H115353   0.496   7.492   2.492 -0.4600  0.0023 -0.6257
 5140TIP3    H215354   0.459   7.636   2.520 -0.4497  0.1704 -1.4535
 5141TIP3   OH215355   2.013   6.988   6.114  0.0496  0.2551 -0.1895
 5141TIP3    H115356   2.002   6.893   6.112 -1.8507  0.4643 -0.4070
 5141TIP3    H215357   2.032   7.008   6.206 -0.7201 -0.2118  0.0742
 5142TIP3   OH215358   3.887   6.173   3.096  0.5544 -0.4270 -0.1486
 5142TIP3    H115359   3.969   6.124   3.089  1.4977  0.6955  2.6041
 5142TIP3    H215360   3.890   6.214   3.182 -2.7646 -0.0868 -0.1136
 5143TIP3   OH215361   1.656   6.203   0.434 -0.1903  0.1804  0.1447
 5143TIP3    H115362   1.748   6.213   0.462 -0.3277 -3.1214  1.9811
 5143TIP3    H215363   1.606   6.247   0.503 -0.0516  1.1076 -0.3377
 5144TIP3   OH215364   1.393   7.012   1.222 -0.9978  0.1915  0.4139
 5144TIP3    H115365   1.412   6.970   1.138 -2.6863  2.6112 -1.2083
 5144TIP3    H215366   1.480   7.030   1.259 -0.2373 -1.9406 -0.2296
 5145TIP3   OH215367   1.819   7.336   2.603 -0.2728 -0.1949 -0.4055
 5145TIP3    H115368   1.840   7.332   2.697 -2.3695  1.7805  0.2030
 5145TIP3    H215369   1.857   7.419   2.574  0.7078 -0.9876 -1.4147
 5146TIP3   OH215370   0.547   5.674   4.346 -0.2114 -0.0183 -0.0102
 5146TIP3    H115371   0.521   5.585   4.326 -4.3867  0.6962  1.7003
 5146TIP3    H215372   0.548   5.678   4.442  1.3578  1.4090 -0.0561
 5147TIP3   OH215373   3.544   1.656   2.598 -0.2886 -0.0979 -0.0357
 5147TIP3    H115374   3.497   1.596   2.654  1.5260  0.3654  2.0569
 5147TIP3    H215375   3.635   1.625   2.599 -0.1848 -0.0283 -2.6538
 5148TIP3   OH215376   3.108   6.255   3.337  0.8610 -0.2282  0.5262
 5148TIP3    H115377   3.109   6.235   3.243  0.9789 -0.0621  0.4922
 5148TIP3    H215378   3.086   6.171   3.379  0.7564 -0.2910  0.3479
 5149TIP3   OH215379   4.040   0.037   0.713  0.0465 -0.3341 -0.3453
 5149TIP3    H115380   4.049   0.128   0.686 -0.4107 -0.4936 -1.0514
 5149TIP3    H215381   4.010   0.042   0.804 -1.2349  0.2440 -0.7813
 5150TIP3   OH215382   0.498   5.943   3.195  0.0872 -0.5108 -0.5990
 5150TIP3    H115383   0.432   6.008   3.169  0.2991  0.6617  1.6311
 5150TIP3    H215384   0.565   5.995   3.240  0.4372 -2.2287  0.9166
 5151TIP3   OH215385   8.290   7.210   2.358  0.2020 -0.9902  0.1896
 5151TIP3    H115386   8.263   7.300   2.378  2.9224 -0.2040  0.4453
 5151TIP3    H215387   8.208   7.166   2.337 -1.1939  1.5476  0.0222
 5152TIP3   OH215388   2.376   5.453   3.093  0.3307 -0.0478 -0.1828
 5152TIP3    H115389   2.324   5.405   3.029 -0.2533  0.6778 -0.2692
 5152TIP3    H215390   2.451   5.486   3.043 -0.1866  0.6222 -0.5390
 5153TIP3   OH215391   5.803   4.663   3.460 -0.6195 -0.1172  0.1584
 5153TIP3    H115392   5.888   4.618   3.456 -2.1773 -3.0814 -1.2799
 5153TIP3    H215393   5.801   4.717   3.381  0.5575  1.2302  1.0204
 5154TIP3   OH215394   1.772   5.434   0.858 -0.1356 -0.2748 -0.0995
 5154TIP3    H115395   1.804   5.346   0.838 -1.7500 -0.8227 -0.3892
 5154TIP3    H215396   1.794   5.486   0.780  0.2465 -0.5793 -0.1952
 5155TIP3   OH215397   2.179   5.589   3.421 -0.3087  0.0851 -0.2262
 5155TIP3    H115398   2.090   5.554   3.430 -0.0504 -0.2812  1.0287
 5155TIP3    H215399   2.227   5.551   3.494  0.2404  2.2639  0.5811
 5156TIP3   OH215400   3.051   6.584   2.869 -0.0124  0.3882  0.3968
 5156TIP3    H115401   3.145   6.570   2.875 -0.2816 -2.8414 -1.3871
 5156TIP3    H215402   3.021   6.586   2.960  1.5906 -0.1865  0.9484
 5157TIP3   OH215403   2.469   5.467   3.351  0.4725 -0.3170 -0.2503
 5157TIP3    H115404   2.453   5.479   3.257  0.5588 -1.6932 -0.4476
 5157TIP3    H215405   2.409   5.398   3.377 -0.2802  0.7839  0.9418
 5158TIP3   OH215406   2.035   6.852   2.066  0.1449 -0.0652  0.1363
 5158TIP3    H115407   1.967   6.902   2.021  1.3782  1.3329 -0.2405
 5158TIP3    H215408   2.047   6.897   2.150 -1.2576 -1.9121  1.3540
 5159TIP3   OH215409   0.370   7.284   0.060  0.0373  0.4322 -0.4601
 5159TIP3    H115410   0.363   7.202   0.012  1.7306 -0.3496  0.5796
 5159TIP3    H215411   0.288   7.289   0.109 -0.8340  0.2464 -1.8683
 5160TIP3   OH215412   0.929   6.158   6.455  0.3733  0.6637  0.2268
 5160TIP3    H115413   0.839   6.141   6.426  1.4811 -2.0235 -1.9132
 5160TIP3    H215414   0.958   6.075   6.492  2.5181  0.9993 -0.6204
 5161TIP3   OH215415   1.407   5.895   2.539  0.4763  0.5054 -0.7065
 5161TIP3    H115416   1.428   5.844   2.461 -0.6906 -0.1111 -0.6247
 5161TIP3    H215417   1.352   5.967   2.508 -1.5217 -0.7701 -0.2276
 5162TIP3   OH215418   0.286   6.558   2.240  0.1624 -0.2151 -0.1750
 5162TIP3    H115419   0.345   6.630   2.216  1.2295 -0.8241  0.6199
 5162TIP3    H215420   0.265   6.516   2.157 -0.6204  1.1108 -0.6774
 5163TIP3   OH215421   0.575   7.626   1.718  0.0676 -0.0165 -1.0987
 5163TIP3    H115422   0.657   7.601   1.759 -0.0695  1.3915  0.0468
 5163TIP3    H215423   0.544   7.545   1.677  0.3518 -1.4042  1.3156
 5164TIP3   OH215424   2.334   6.281   1.841 -0.2223  0.3891 -0.0374
 5164TIP3    H115425   2.249   6.276   1.798 -0.1583 -1.1175  0.0125
 5164TIP3    H215426   2.341   6.201   1.892  0.9554  0.8047  0.4792
 5165TIP3   OH215427   3.830   1.818   2.709  0.4780  0.1805 -0.2076
 5165TIP3    H115428   3.793   1.732   2.687  0.8344  0.1517 -0.7222
 5165TIP3    H215429   3.758   1.865   2.751  0.1602 -0.2334 -0.2802
 5166TIP3   OH215430   4.804   0.440   0.962 -0.6227  0.0529  0.2842
 5166TIP3    H115431   4.825   0.410   1.050  2.4966 -0.1706 -0.4676
 5166TIP3    H215432   4.863   0.515   0.947 -2.1348  1.0085 -1.0763
 5167TIP3   OH215433   5.731   0.751   2.275  0.3966 -0.3655  0.0815
 5167TIP3    H115434   5.766   0.722   2.359  2.4670  1.3962 -0.1305
 5167TIP3    H215435   5.712   0.671   2.227  3.2715 -1.3903  0.5786
 5168TIP3   OH215436   7.913   2.149   6.450  0.2900 -0.5820  0.1982
 5168TIP3    H115437   7.943   2.108   6.369 -0.4170  1.3696 -1.1117
 5168TIP3    H215438   7.875   2.078   6.501  0.2233 -1.7528 -1.4521
 5169TIP3   OH215439   0.563   5.656   2.721 -0.1061  0.2150 -0.0303
 5169TIP3    H115440   0.656   5.671   2.734 -0.3252  1.1906  0.3966
 5169TIP3    H215441   0.559   5.601   2.643  0.6942  2.1650 -1.4792
 5170TIP3   OH215442   1.529   6.120   2.693  0.7492 -0.2213  0.5249
 5170TIP3    H115443   1.529   6.026   2.676  0.9643 -0.4765  1.8296
 5170TIP3    H215444   1.440   6.149   2.670  0.4669 -0.8761  0.7792
 5171TIP3   OH215445   4.041   1.434   6.598  0.5209 -0.2354 -0.5511
 5171TIP3    H115446   4.006   1.413   6.684 -0.3159 -2.2496 -1.3404
 5171TIP3    H215447   4.106   1.503   6.614 -0.7200  0.4989  1.4676
 5172TIP3   OH215448   8.141   7.388   3.937  0.1685 -0.4605  0.4657
 5172TIP3    H115449   8.067   7.405   3.996  0.2649 -0.6470  0.6421
 5172TIP3    H215450   8.188   7.471   3.931 -0.9486  0.1000 -0.8970
 5173TIP3   OH215451   7.660   4.703   6.682 -0.3182  0.1120 -0.0242
 5173TIP3    H115452   7.667   4.659   6.766  0.3536  1.6211  0.7199
 5173TIP3    H215453   7.585   4.761   6.691 -0.0860  0.4705 -0.3855
 5174TIP3   OH215454   2.847   6.505   3.780 -0.3349  0.0187 -0.4231
 5174TIP3    H115455   2.806   6.542   3.858  0.8714  0.6830 -0.0855
 5174TIP3    H215456   2.941   6.522   3.792 -0.2482  1.3938 -2.6583
 5175TIP3   OH215457   1.081   5.956   1.388  0.0070 -0.1376  0.6221
 5175TIP3    H115458   1.006   5.974   1.331  0.4389 -0.3817 -0.0266
 5175TIP3    H215459   1.042   5.929   1.471 -0.6110 -1.6194 -0.1470
 5176TIP3   OH215460   0.410   7.915   2.536 -0.1572  0.4490  0.2893
 5176TIP3    H115461   0.486   7.973   2.525 -0.7569  1.6414  2.1171
 5176TIP3    H215462   0.424   7.874   2.622 -1.2348  0.1681  0.3410
 5177TIP3   OH215463   1.194   6.709   2.684 -0.6776 -0.1746  0.2157
 5177TIP3    H115464   1.265   6.731   2.624  1.2229  1.9345  3.1004
 5177TIP3    H215465   1.238   6.677   2.762 -2.8721  1.1434  2.0430
 5178TIP3   OH215466   0.694   6.608   1.212  0.2058  0.3498  0.9266
 5178TIP3    H115467   0.785   6.634   1.222  0.7277 -1.1364  0.2406
 5178TIP3    H215468   0.696   6.512   1.219 -1.4111  0.3579  1.7297
 5179TIP3   OH215469   3.398   6.941   3.044 -0.2464 -1.5776  0.3143
 5179TIP3    H115470   3.453   6.873   3.006 -0.1324 -0.9170 -0.7076
 5179TIP3    H215471   3.316   6.896   3.067  0.9166 -2.6859  2.3918
 5180TIP3   OH215472   1.762   0.598   2.426 -0.3466 -0.1472 -0.4874
 5180TIP3    H115473   1.699   0.593   2.499  1.1813  0.8437  0.9259
 5180TIP3    H215474   1.834   0.541   2.452  1.1100  1.7228 -0.2995
 5181TIP3   OH215475   1.942   5.776   4.848  0.0994 -0.0172 -0.0276
 5181TIP3    H115476   1.935   5.814   4.936  0.2463 -0.5038  0.2022
 5181TIP3    H215477   1.880   5.825   4.795  0.0965  0.3631  0.3212
 5182TIP3   OH215478   2.264   6.667   0.690  0.1490 -0.1983 -0.3864
 5182TIP3    H115479   2.315   6.747   0.677  2.9685 -1.7474  0.5939
 5182TIP3    H215480   2.265   6.623   0.605  1.7903 -0.9351 -0.0093
 5183TIP3   OH215481   3.418   6.568   0.227 -0.3705 -0.2077  0.2405
 5183TIP3    H115482   3.498   6.521   0.248 -0.2482  0.0616  0.3882
 5183TIP3    H215483   3.352   6.533   0.287 -0.6407 -1.2296 -0.6437
 5184TIP3   OH215484   3.860   0.980   3.430  0.0098  0.3276  0.4937
 5184TIP3    H115485   3.936   0.937   3.470  0.0176  0.7504  0.9367
 5184TIP3    H215486   3.786   0.956   3.486 -0.0783  0.4465  0.4292
 5185TIP3   OH215487   0.942   5.846   3.521 -0.1537  0.3149  0.0309
 5185TIP3    H115488   0.872   5.808   3.574  0.7989 -1.1120  0.2884
 5185TIP3    H215489   0.997   5.893   3.583 -0.3585  0.6568 -0.0426
 5186TIP3   OH215490   1.950   7.258   1.218 -0.1337  0.4601 -0.3698
 5186TIP3    H115491   1.927   7.273   1.126 -1.1782 -0.3163 -0.2416
 5186TIP3    H215492   1.956   7.346   1.255  1.9927  0.8582 -1.5787
 5187TIP3   OH215493   2.944   6.155   2.503  0.2156 -0.4051 -0.3503
 5187TIP3    H115494   2.921   6.205   2.424  1.0614 -0.5362 -0.6825
 5187TIP3    H215495   2.958   6.221   2.571 -0.0767 -0.2682 -0.4214
 5188TIP3   OH215496   8.214   1.106   2.016  0.1784  0.2081  0.0968
 5188TIP3    H115497   8.154   1.032   2.010 -1.2487  1.3951 -0.8527
 5188TIP3    H215498   8.160   1.179   2.045  1.4015  1.0528  0.3145
 5189TIP3   OH215499   1.366   6.442   1.023  0.1975 -0.1205  0.1107
 5189TIP3    H115500   1.297   6.416   0.962  0.6936  1.7214 -1.2538
 5189TIP3    H215501   1.320   6.497   1.087  0.3993  1.1823 -0.8505
 5190TIP3   OH215502   0.825   5.993   3.296  0.0159 -0.2002  0.3328
 5190TIP3    H115503   0.895   5.943   3.337  2.3124  3.3685  0.9629
 5190TIP3    H215504   0.785   6.042   3.367 -0.4663  0.8696 -0.6551
 5191TIP3   OH215505   8.420   5.825   3.082 -0.5046  0.3526 -0.4478
 5191TIP3    H115506   8.362   5.902   3.083  0.9779  1.5871 -3.0195
 5191TIP3    H215507   8.491   5.849   3.141  0.1646  1.1440 -1.5654
 5192TIP3   OH215508   2.946   7.098   1.226 -0.2702 -0.3228  0.2333
 5192TIP3    H115509   2.868   7.103   1.171  2.3360 -0.3153 -3.7391
 5192TIP3    H215510   3.018   7.087   1.163  3.0363  0.7073  3.6665
 5193TIP3   OH215511   7.524   5.496   4.300  0.2999 -0.1086 -0.0428
 5193TIP3    H115512   7.447   5.552   4.307  1.3392  1.4619 -0.8979
 5193TIP3    H215513   7.590   5.551   4.259  2.0503 -1.2792  1.1389
 5194TIP3   OH215514   4.494   6.090   0.518  0.3605  0.2823  0.3231
 5194TIP3    H115515   4.497   5.995   0.508  0.5233  0.1292  1.6855
 5194TIP3    H215516   4.443   6.105   0.598 -0.2462  1.3672 -0.2509
 5195TIP3   OH215517   1.438   6.680   2.537  0.5442  0.0562 -0.1099
 5195TIP3    H115518   1.515   6.701   2.589 -0.0162 -0.7000  1.0440
 5195TIP3    H215519   1.454   6.592   2.503 -0.6872 -0.9846  1.8681
 5196TIP3   OH215520   8.064   1.120   6.717 -0.5522  0.4682 -0.0168
 5196TIP3    H115521   8.153   1.153   6.718  0.6070 -2.5275 -0.3915
 5196TIP3    H215522   8.035   1.130   6.626 -0.2187  0.4711 -0.1210
 5197TIP3   OH215523   1.384   6.598   3.251 -0.2886 -0.3910  0.2226
 5197TIP3    H115524   1.406   6.505   3.254 -0.5909 -0.4281  2.0035
 5197TIP3    H215525   1.461   6.639   3.212 -0.2811 -1.4129 -0.8718
 5198TIP3   OH215526   1.333   6.984   0.534  0.1149  0.1015 -0.6974
 5198TIP3    H115527   1.287   7.039   0.471 -1.6002  1.3642  1.5860
 5198TIP3    H215528   1.298   6.896   0.520 -0.1183  0.3477 -1.6411
 5199TIP3   OH215529   7.907   6.061   0.654  0.4963 -0.5757 -0.8547
 5199TIP3    H115530   7.974   6.009   0.700  1.1971  0.6987 -0.3984
 5199TIP3    H215531   7.874   6.003   0.586  2.6839 -0.9383 -1.6362
 5200TIP3   OH215532   1.968   7.021   4.901  0.1816 -0.5488  0.3012
 5200TIP3    H115533   2.032   7.040   4.832 -0.7665  2.3366  0.1142
 5200TIP3    H215534   1.884   7.047   4.863 -0.4578  0.3104  2.2386
 5201TIP3   OH215535   1.771   6.879   3.637  0.1778  0.4995 -0.2023
 5201TIP3    H115536   1.712   6.868   3.562  1.0528  0.9254 -0.9629
 5201TIP3    H215537   1.714   6.906   3.709 -0.8307 -1.0498 -0.4167
 5202TIP3   OH215538   3.280   6.827   4.205  1.1782 -0.0722  0.1383
 5202TIP3    H115539   3.230   6.891   4.255  1.4797 -0.6338  1.1678
 5202TIP3    H215540   3.371   6.848   4.225  1.2532 -1.9007  1.8659
 5203TIP3   OH215541   0.505   6.676   2.117  0.4595 -0.1922 -0.4836
 5203TIP3    H115542   0.574   6.632   2.167  1.2877  1.9263  0.3041
 5203TIP3    H215543   0.551   6.746   2.070 -0.9542  0.4184 -0.9783
 5204TIP3   OH215544   0.312   5.716   2.827  0.1555 -0.2926  0.1981
 5204TIP3    H115545   0.393   5.720   2.775 -0.2135 -1.1394 -0.4547
 5204TIP3    H215546   0.256   5.785   2.790  0.2441 -0.2874  0.0715
 5205TIP3   OH215547   8.270   5.532   1.893 -0.2367 -0.3172 -0.7248
 5205TIP3    H115548   8.335   5.545   1.823 -1.2865 -0.1856 -1.6884
 5205TIP3    H215549   8.293   5.598   1.959  1.3823 -1.1141 -0.4739
 5206TIP3   OH215550   2.135   5.739   2.964 -0.1902  0.2196  0.4058
 5206TIP3    H115551   2.218   5.717   3.004  0.7728 -0.9358 -2.1353
 5206TIP3    H215552   2.071   5.682   3.006  0.8475 -1.1979  0.0753
 5207TIP3   OH215553   1.863   4.741   3.434  0.4351 -0.3761  0.0728
 5207TIP3    H115554   1.793   4.775   3.490  0.3491 -0.9467  0.3161
 5207TIP3    H215555   1.905   4.673   3.486  0.1401 -1.1485 -0.6835
 5208TIP3   OH215556   1.560   4.899   5.493 -0.6369 -0.4210 -0.2009
 5208TIP3    H115557   1.628   4.896   5.560 -2.5754  2.2068  1.9690
 5208TIP3    H215558   1.585   4.973   5.437 -0.6614 -0.7155 -0.6074
 5209TIP3   OH215559   8.267   4.687   3.230  0.3521 -0.3449 -0.1094
 5209TIP3    H115560   8.193   4.643   3.272  0.8374  0.7995  2.0148
 5209TIP3    H215561   8.243   4.780   3.231  1.8144  0.0311  0.6252
 5210TIP3   OH215562   4.933   0.075   3.112  0.2780  0.4491  0.1794
 5210TIP3    H115563   5.013   0.116   3.143  1.1757 -0.4322 -0.9347
 5210TIP3    H215564   4.873   0.148   3.095  0.8133  1.0992  1.0843
 5211TIP3   OH215565   4.695   0.008   0.587 -0.4884  0.0556 -0.4550
 5211TIP3    H115566   4.725   0.076   0.647  0.1456 -0.2475 -0.4241
 5211TIP3    H215567   4.618   0.045   0.545  0.2016  1.0153 -0.8664
 5212TIP3   OH215568   0.959   5.671   0.728  0.0246 -0.0316 -0.0466
 5212TIP3    H115569   1.046   5.710   0.732  0.3638 -0.6766 -0.9910
 5212TIP3    H215570   0.973   5.583   0.694 -0.9572 -0.2665  0.1276
 5213TIP3   OH215571   1.092   7.583   0.598 -0.7042 -0.0667  0.0905
 5213TIP3    H115572   1.163   7.629   0.553  1.4267 -1.9037  1.4377
 5213TIP3    H215573   1.095   7.616   0.687  0.7270 -2.5373  1.0306
 5214TIP3   OH215574   0.022   6.561   3.349 -0.2518 -0.9525 -0.1624
 5214TIP3    H115575   0.092   6.622   3.326 -0.0479 -1.5228 -1.0570
 5214TIP3    H215576  -0.009   6.592   3.435 -0.7966  0.9988 -1.0360
 5215TIP3   OH215577   0.847   6.476   1.431 -0.5445  0.2217 -0.3433
 5215TIP3    H115578   0.889   6.407   1.380 -1.5685 -1.3784  0.9468
 5215TIP3    H215579   0.907   6.551   1.424 -0.2558 -0.2261 -3.1449
 5216TIP3   OH215580   3.250   0.189   2.126  0.3373 -0.2681 -0.0148
 5216TIP3    H115581   3.155   0.182   2.140  0.5005  0.2616  1.4129
 5216TIP3    H215582   3.282   0.100   2.136  0.2199 -0.1704  1.3147
 5217TIP3   OH215583   1.845   5.721   1.834  0.1215  0.2497  0.1166
 5217TIP3    H115584   1.882   5.791   1.889  0.5118  0.8007 -0.8296
 5217TIP3    H215585   1.751   5.738   1.834 -0.0030 -0.3718  1.4599
 5218TIP3   OH215586   2.664   6.689   2.247  0.0321 -0.0040  0.2537
 5218TIP3    H115587   2.681   6.631   2.320  0.1049  0.1325  0.3448
 5218TIP3    H215588   2.746   6.691   2.198  0.1059  0.2214  0.3893
 5219TIP3   OH215589   2.868   7.828   4.677 -0.0626  0.1738  0.1432
 5219TIP3    H115590   2.780   7.867   4.683 -0.6183 -0.6889 -1.7305
 5219TIP3    H215591   2.871   7.764   4.749 -0.5770  0.9529  0.8655
 5220TIP3   OH215592   3.102   7.930   0.533  0.3185  0.2299  0.8226
 5220TIP3    H115593   3.171   7.944   0.468 -0.4886 -0.9255 -0.3138
 5220TIP3    H215594   3.146   7.942   0.618  2.1336 -1.4200  0.1549
 5221TIP3   OH215595   2.996   0.423   1.402  0.2719 -0.0830 -0.0375
 5221TIP3    H115596   3.051   0.469   1.465 -0.7754 -1.1539  1.7114
 5221TIP3    H215597   3.031   0.334   1.400  0.9439  0.2062 -1.7726
 5222TIP3   OH215598   2.170   5.997   0.902 -0.2564 -0.7293 -0.3603
 5222TIP3    H115599   2.221   6.074   0.928  0.2929 -1.2152  0.0146
 5222TIP3    H215600   2.192   5.931   0.968 -0.0454 -1.4821 -1.1813
 5223TIP3   OH215601   3.323   5.990   3.694  0.2189  0.2305  0.4161
 5223TIP3    H115602   3.238   6.035   3.691 -0.4581 -1.1088 -1.3421
 5223TIP3    H215603   3.309   5.915   3.751  0.5857  0.7254  1.1603
 5224TIP3   OH215604   2.006   6.481   5.799 -0.2880 -0.2005 -0.2001
 5224TIP3    H115605   2.003   6.515   5.888  1.8519  0.8196 -0.4962
 5224TIP3    H215606   1.932   6.522   5.754 -0.3355  0.6315  0.6386
 5225TIP3   OH215607   1.384   5.400   3.514 -0.3070 -0.1454 -0.3304
 5225TIP3    H115608   1.396   5.336   3.443  1.8569 -2.0158  1.6086
 5225TIP3    H215609   1.438   5.475   3.488 -0.2725 -0.4342 -1.1107
 5226TIP3   OH215610   3.357   7.446   2.160  0.3040  0.1915 -1.0114
 5226TIP3    H115611   3.298   7.449   2.236  1.0386  2.6422 -0.4949
 5226TIP3    H215612   3.405   7.364   2.170  0.1919  0.3510  1.0321
 5227TIP3   OH215613   2.452   5.945   1.328  0.5579  0.7769 -0.4361
 5227TIP3    H115614   2.459   5.870   1.387  2.3630 -0.0646 -1.6816
 5227TIP3    H215615   2.360   5.970   1.332  0.2832 -0.4156  1.3199
 5228TIP3   OH215616   2.457   5.951   3.368 -0.0147 -0.0711  0.1450
 5228TIP3    H115617   2.371   5.942   3.326 -0.2654  0.1021  0.6166
 5228TIP3    H215618   2.466   5.871   3.420  0.9491 -1.0005 -1.3970
 5229TIP3   OH215619   2.175   5.990   1.318  0.2162  0.3177  0.0368
 5229TIP3    H115620   2.103   5.995   1.380 -1.6695  0.0487 -2.0677
 5229TIP3    H215621   2.201   6.081   1.303 -0.4814  0.4940 -0.1000
 5230TIP3   OH215622   6.780   2.438   6.389  0.2055 -0.3617  0.6538
 5230TIP3    H115623   6.740   2.357   6.358  1.0765 -0.5172 -0.0844
 5230TIP3    H215624   6.865   2.411   6.423 -0.2894 -0.0293  2.1767
 5231TIP3   OH215625   1.940   0.075   3.261 -0.5179  0.6071 -0.5488
 5231TIP3    H115626   1.941  -0.014   3.299  1.4062  0.1461 -1.6105
 5231TIP3    H215627   1.899   0.064   3.175 -0.8978  0.8760 -0.4028
 5232TIP3   OH215628   7.336   6.867   1.814  0.1534 -0.1999  0.7750
 5232TIP3    H115629   7.431   6.869   1.828  0.1624 -1.3545  0.9092
 5232TIP3    H215630   7.303   6.940   1.866  0.8977 -0.2317  1.3052
 5233TIP3   OH215631   1.466   5.823   1.487  0.3898 -0.2375  0.6776
 5233TIP3    H115632   1.465   5.787   1.398  0.1491 -0.3710  0.7330
 5233TIP3    H215633   1.543   5.783   1.527  1.2241  0.8129  0.1313
 5234TIP3   OH215634   2.027   5.027   4.554 -0.5361  0.2303 -0.1961
 5234TIP3    H115635   2.057   5.060   4.469  0.8260  0.2280  0.2734
 5234TIP3    H215636   1.991   5.105   4.598 -1.9012  0.0918 -1.0393
 5235TIP3   OH215637   2.965   7.410   0.490 -0.0112  0.0208  0.1705
 5235TIP3    H115638   2.956   7.423   0.395  0.1752  0.7465  0.2557
 5235TIP3    H215639   2.915   7.481   0.529  1.4324  0.8067  0.6307
 5236TIP3   OH215640   2.303   6.174   0.579  1.0379 -0.0464 -0.0223
 5236TIP3    H115641   2.302   6.210   0.667 -0.3353 -1.3355  0.5094
 5236TIP3    H215642   2.287   6.250   0.522  1.0130  0.6389  0.8813
 5237TIP3   OH215643   3.531   0.053   1.269  0.1554  0.5877 -0.2135
 5237TIP3    H115644   3.613   0.053   1.320  0.6899 -0.1292 -1.0611
 5237TIP3    H215645   3.500  -0.037   1.275  0.0430  0.5854 -0.8946
 5238TIP3   OH215646   3.400   0.064   0.092 -0.1105  0.1765  0.1226
 5238TIP3    H115647   3.333   0.047   0.026  0.0490  0.5807 -0.1394
 5238TIP3    H215648   3.426   0.155   0.078  0.6378 -0.0396  0.0903
 5239TIP3   OH215649   0.550   5.485   0.091  0.0413 -0.3701 -0.1565
 5239TIP3    H115650   0.578   5.394   0.077  2.3702  0.5552 -1.8465
 5239TIP3    H215651   0.599   5.514   0.168 -1.1974 -0.7173  0.7819
 5240TIP3   OH215652   3.420   6.534   2.220 -0.8602 -0.0746 -0.0673
 5240TIP3    H115653   3.405   6.439   2.219 -0.4738 -0.1434  0.3885
 5240TIP3    H215654   3.499   6.545   2.167 -0.6858 -0.0465  0.1998
 5241TIP3   OH215655   3.864   7.623   1.801 -0.0992  0.3918  0.4651
 5241TIP3    H115656   3.829   7.535   1.785 -0.9810  0.7833  0.1956
 5241TIP3    H215657   3.786   7.679   1.803  0.6505  1.5955 -2.1633
 5242TIP3   OH215658   7.402   4.660   6.845  0.2622  0.1855 -0.1230
 5242TIP3    H115659   7.460   4.722   6.888 -0.5953  1.2589 -0.5054
 5242TIP3    H215660   7.317   4.673   6.887  0.2502 -1.2769  0.3365
 5243TIP3   OH215661   3.056   7.319   1.664 -0.0611 -0.1227  0.4196
 5243TIP3    H115662   3.118   7.324   1.591  0.3428  1.7289  0.8780
 5243TIP3    H215663   3.002   7.242   1.643  1.7402 -1.1830 -0.4765
 5244TIP3   OH215664   1.125   5.397   2.668  0.6194  0.3995 -0.1273
 5244TIP3    H115665   1.115   5.489   2.644 -0.2655  0.0409 -1.2105
 5244TIP3    H215666   1.042   5.374   2.711  0.5833 -0.0531 -0.4308
 5245TIP3   OH215667   0.991   6.728   4.773 -0.3502 -0.3642 -0.3975
 5245TIP3    H115668   0.979   6.775   4.691 -0.1268  0.7073  0.1782
 5245TIP3    H215669   1.067   6.769   4.814 -0.3588 -0.9954  0.2724
 5246TIP3   OH215670   2.050   5.205   0.903 -0.2983  0.0517 -0.1786
 5246TIP3    H115671   2.051   5.139   0.833  1.8138  0.2647 -0.3627
 5246TIP3    H215672   2.080   5.285   0.861  0.3671  0.3327  0.8249
 5247TIP3   OH215673   6.967   0.765   2.194 -0.1929  0.2939  0.3679
 5247TIP3    H115674   6.946   0.715   2.273 -0.2042  0.6835  0.6124
 5247TIP3    H215675   7.013   0.842   2.226  0.1532  0.2573 -0.0391
 5248TIP3   OH215676   5.865   2.354   1.947  0.4793  0.1664 -0.1250
 5248TIP3    H115677   5.790   2.396   1.906  0.4869  0.2116 -0.0934
 5248TIP3    H215678   5.832   2.268   1.976 -0.0071  0.8307  1.3465
 5249TIP3   OH215679   1.724   7.090   2.950 -0.5629  0.3168 -0.3928
 5249TIP3    H115680   1.815   7.120   2.950 -0.5772  0.4327  1.1649
 5249TIP3    H215681   1.673   7.169   2.970 -0.9944  0.2352 -1.1762
 5250TIP3   OH215682   4.594   0.268   1.194  0.0014 -0.1990 -0.1147
 5250TIP3    H115683   4.516   0.319   1.215  0.4230  0.9117 -1.2391
 5250TIP3    H215684   4.666   0.317   1.233  0.3071 -0.4418 -0.3744
 5251TIP3   OH215685   1.262   7.130   0.273 -0.0300  0.5245  0.5106
 5251TIP3    H115686   1.184   7.181   0.251  0.0490  0.7158  0.6758
 5251TIP3    H215687   1.240   7.041   0.248 -0.6631  0.4154  1.4524
 5252TIP3   OH215688   2.157   0.234   3.325 -0.2044 -0.1991  0.3313
 5252TIP3    H115689   2.176   0.298   3.256 -1.4070  0.9715  1.0465
 5252TIP3    H215690   2.086   0.180   3.289  0.4910 -0.8267 -0.0938
 5253TIP3   OH215691   5.472   0.961   0.646 -0.0615 -0.2214  0.1836
 5253TIP3    H115692   5.389   0.997   0.615 -0.6876 -1.4256  0.4338
 5253TIP3    H215693   5.532   0.974   0.573 -0.7419 -0.2739 -0.3913
 5254TIP3   OH215694   2.605   7.546   2.243 -0.1636 -0.1364 -0.3896
 5254TIP3    H115695   2.524   7.497   2.255  0.2343 -0.0474  3.1052
 5254TIP3    H215696   2.674   7.479   2.242  0.3192  0.1368  3.7704
 5255TIP3   OH215697   1.174   7.631   2.776  0.7119  0.9913 -0.2409
 5255TIP3    H115698   1.236   7.663   2.711  1.5648  1.4241  0.7707
 5255TIP3    H215699   1.108   7.584   2.725  2.6367 -0.7496 -1.2189
 5256TIP3   OH215700   3.444   7.699   2.108 -0.0629 -0.3319 -0.0121
 5256TIP3    H115701   3.535   7.671   2.116 -0.1437 -0.6804 -0.2798
 5256TIP3    H215702   3.393   7.620   2.127 -0.2876 -0.6832 -1.9329
 5257TIP3   OH215703   6.124   0.839   3.099 -0.2165  0.4814 -0.6635
 5257TIP3    H115704   6.072   0.834   3.019 -0.4539  3.7240 -0.7808
 5257TIP3    H215705   6.068   0.883   3.162  0.1837 -1.5243  1.1601
 5258TIP3   OH215706   3.928   7.199   1.968  0.1331  0.0497 -0.2181
 5258TIP3    H115707   3.868   7.124   1.962  0.2461 -0.0554 -0.0252
 5258TIP3    H215708   4.014   7.162   1.950  0.6867 -0.5452  3.3429
 5259TIP3   OH215709   1.742   5.902   4.714  0.4645  0.1157  0.3392
 5259TIP3    H115710   1.702   5.981   4.677  1.8150  1.3424  1.4554
 5259TIP3    H215711   1.678   5.870   4.778  0.0137  0.4326  0.0447
 5260TIP3   OH215712   2.802   6.312   1.088 -0.1825 -0.0856 -0.4361
 5260TIP3    H115713   2.768   6.401   1.091 -0.3899 -0.1663 -0.4125
 5260TIP3    H215714   2.794   6.280   1.178 -0.2672 -0.1866 -0.4789
 5261TIP3   OH215715   6.609   5.054   1.334 -0.1674 -0.1505 -0.5153
 5261TIP3    H115716   6.650   5.036   1.419  0.0329  0.1090 -0.5572
 5261TIP3    H215717   6.537   4.992   1.329  0.8976 -1.3737 -0.9256
 5262TIP3   OH215718   2.989   7.222   3.850  0.4487 -0.7623 -0.5451
 5262TIP3    H115719   2.955   7.146   3.897 -0.3632 -0.9952 -1.4812
 5262TIP3    H215720   2.980   7.198   3.757  2.8669 -0.6875 -0.8163
 5263TIP3   OH215721   7.532   4.885   6.397  0.5775 -0.2663 -0.0176
 5263TIP3    H115722   7.452   4.919   6.437  1.1811  0.7837  0.3085
 5263TIP3    H215723   7.525   4.790   6.407 -2.7755 -0.5905 -4.0406
 5264TIP3   OH215724   1.944   7.727   0.605  0.1111  0.5944  0.5395
 5264TIP3    H115725   1.911   7.811   0.572  0.4662  0.2593 -0.6978
 5264TIP3    H215726   1.935   7.667   0.531  2.5441  0.2466  0.4676
 5265TIP3   OH215727   6.128   0.061   2.659 -0.2354 -0.2465 -0.2880
 5265TIP3    H115728   6.039   0.051   2.693 -0.6287 -0.8808 -1.4644
 5265TIP3    H215729   6.118   0.050   2.564  1.2728 -1.5557 -0.3071
 5266TIP3   OH215730   3.864   5.994   2.095 -0.2137 -0.0121  0.0085
 5266TIP3    H115731   3.799   6.056   2.127 -0.7085 -0.3041 -0.4217
 5266TIP3    H215732   3.874   5.931   2.167 -1.8352 -1.0634 -0.6471
 5267TIP3   OH215733   5.017   0.453   0.710 -0.5197 -0.3188  0.0146
 5267TIP3    H115734   5.071   0.417   0.780 -1.8406 -2.5534 -0.0513
 5267TIP3    H215735   4.990   0.539   0.741 -0.3077 -0.8946  1.8444
 5268TIP3   OH215736   5.623   0.092   2.538 -0.1266 -0.1134  0.3328
 5268TIP3    H115737   5.531   0.072   2.554 -0.0603 -0.0786  0.7700
 5268TIP3    H215738   5.626   0.186   2.525 -0.0067  0.0236  1.3542
 5269TIP3   OH215739   4.400   7.614   2.774  0.2399  0.4823 -0.3211
 5269TIP3    H115740   4.346   7.550   2.820 -0.0884 -0.2192 -1.6629
 5269TIP3    H215741   4.359   7.698   2.792 -0.5563  0.0830 -0.2751
 5270TIP3   OH215742   3.217   5.616   3.289  0.8671 -0.0707  0.3554
 5270TIP3    H115743   3.211   5.526   3.320  0.3830  0.2499  1.1926
 5270TIP3    H215744   3.304   5.621   3.248  1.1222 -0.7620  0.8041
 5271TIP3   OH215745   2.985   6.708   0.897 -0.1368 -0.0434  0.0475
 5271TIP3    H115746   3.005   6.683   0.807 -0.2447  0.0229  0.0045
 5271TIP3    H215747   3.046   6.658   0.951  1.5820  1.7361 -0.1979
 5272TIP3   OH215748   3.864   6.670   1.976  0.0189 -0.3154  0.2763
 5272TIP3    H115749   3.936   6.729   1.999 -1.6960  1.2080  1.9838
 5272TIP3    H215750   3.895   6.583   2.002  0.8988  0.4489  1.8653
 5273TIP3   OH215751   3.403   0.584   0.174 -0.3579 -0.1297  0.0580
 5273TIP3    H115752   3.421   0.640   0.250  0.2669 -0.1181 -0.0894
 5273TIP3    H215753   3.490   0.564   0.139 -0.7124  1.5274 -1.8579
 5274TIP3   OH215754   6.197   0.444   1.308 -0.0083  0.2019  0.2979
 5274TIP3    H115755   6.206   0.379   1.239 -2.1025 -1.2272  1.3254
 5274TIP3    H215756   6.121   0.497   1.282  2.0515  2.7304 -0.8603
 5275TIP3   OH215757   5.637   6.979   0.906  0.1316 -0.2533 -0.4305
 5275TIP3    H115758   5.694   6.912   0.867  0.3064 -0.8344  0.7787
 5275TIP3    H215759   5.671   6.990   0.995 -0.5678  0.6685 -0.2716
 5276TIP3   OH215760   5.397   0.775   1.667 -0.2512  0.0558 -0.4258
 5276TIP3    H115761   5.395   0.749   1.760 -3.8665  0.3292 -0.3420
 5276TIP3    H215762   5.449   0.708   1.624 -1.9501 -2.3706  1.2025
 5277TIP3   OH215763   6.533   0.330   2.975 -0.1969  0.3998  0.4348
 5277TIP3    H115764   6.531   0.310   3.069  0.5302  1.6039  0.7168
 5277TIP3    H215765   6.446   0.363   2.955  0.0795  1.4631  0.9857
 5278TIP3   OH215766   1.903   7.345   0.926  0.0950 -0.0266  0.7651
 5278TIP3    H115767   1.847   7.298   0.864  2.6103 -1.6854 -0.3501
 5278TIP3    H215768   1.912   7.433   0.888 -0.9935 -0.0128  0.5085
 5279TIP3   OH215769   8.282   0.461   1.851 -0.0134  0.7550  0.6807
 5279TIP3    H115770   8.373   0.459   1.878 -0.2989 -0.2166  1.5869
 5279TIP3    H215771   8.247   0.376   1.878 -0.3111 -0.2692 -2.7696
 5280TIP3   OH215772   5.330   0.373   0.805 -0.1803 -0.2337 -0.2471
 5280TIP3    H115773   5.353   0.466   0.798  1.3275 -0.5650  0.0425
 5280TIP3    H215774   5.255   0.372   0.865  1.6694  0.5663  2.1625
 5281TIP3   OH215775   8.083   1.101   3.579 -0.3130  0.0209  0.1999
 5281TIP3    H115776   8.124   1.072   3.661  2.0551 -0.2596 -1.0328
 5281TIP3    H215777   8.129   1.052   3.511 -2.9009 -0.4544 -1.2554
 5282TIP3   OH215778   1.518   7.829   1.722 -0.2477  0.1239 -0.8655
 5282TIP3    H115779   1.451   7.795   1.781  0.5719  1.3764  0.8239
 5282TIP3    H215780   1.574   7.754   1.703  0.9124  0.2107  1.9548
 5283TIP3   OH215781   3.015   6.016   3.437 -0.1394  0.3782  0.2716
 5283TIP3    H115782   2.986   5.949   3.498  0.6609 -0.2360 -0.0159
 5283TIP3    H215783   3.051   5.968   3.363 -0.3486  1.1217 -0.3244
 5284TIP3   OH215784   7.021   1.118   1.727 -0.0758 -0.0841  0.0305
 5284TIP3    H115785   7.008   1.141   1.635 -0.7915  0.0405  0.1621
 5284TIP3    H215786   6.946   1.062   1.748 -1.3284  1.9955  1.2735
 5285TIP3   OH215787   2.025   7.495   1.337  0.4314 -0.1378  0.2003
 5285TIP3    H115788   2.024   7.585   1.303 -1.0375 -0.2779 -0.1861
 5285TIP3    H215789   2.114   7.482   1.370  0.4968  1.6517  0.7677
 5286TIP3   OH215790   2.278   5.836   1.074 -0.3905 -0.4821  0.3164
 5286TIP3    H115791   2.365   5.868   1.051 -1.2556  0.4062 -1.8006
 5286TIP3    H215792   2.261   5.873   1.161  0.7299  0.5500  0.0995
 5287TIP3   OH215793   5.747   0.196   0.887  1.1105  0.1549 -0.1454
 5287TIP3    H115794   5.812   0.146   0.839  1.5136  2.2732 -1.8988
 5287TIP3    H215795   5.688   0.230   0.819  0.2691  1.2057  1.0852
 5288TIP3   OH215796   3.170   6.922   3.309  0.5599 -0.0851  0.2340
 5288TIP3    H115797   3.238   6.983   3.338  1.0842  0.5467 -2.1761
 5288TIP3    H215798   3.114   6.975   3.252 -0.1091 -1.3795 -0.3285
 5289TIP3   OH215799   2.581   5.639   3.978 -0.7501  0.2423 -0.5840
 5289TIP3    H115800   2.671   5.625   4.007 -0.7734  0.2522 -0.5064
 5289TIP3    H215801   2.538   5.555   3.994 -1.0906  0.6225  0.6153
 5290TIP3   OH215802   4.292   0.274   3.889  0.5682 -0.2210  0.1015
 5290TIP3    H115803   4.296   0.204   3.954 -1.2329  0.2936  0.8087
 5290TIP3    H215804   4.232   0.240   3.822  0.7802  0.0773 -0.2412
 5291TIP3   OH215805   5.325   7.651   1.731 -0.1680  0.2661 -0.2176
 5291TIP3    H115806   5.271   7.689   1.800 -0.5923  1.0099 -0.9543
 5291TIP3    H215807   5.414   7.678   1.753  0.0306 -1.6006  1.4213
 5292TIP3   OH215808   6.802   0.084   0.427 -0.5659  0.1940 -0.0100
 5292TIP3    H115809   6.878   0.133   0.459 -0.3583  0.1228 -0.3851
 5292TIP3    H215810   6.729   0.146   0.433 -0.3907  0.4066 -0.0643
 5293TIP3   OH215811   7.715   1.972   5.521 -0.0705 -0.8034  0.0288
 5293TIP3    H115812   7.665   2.014   5.452  0.3833  0.0209  0.1974
 5293TIP3    H215813   7.690   1.879   5.516  0.4780 -0.8733 -1.6673
 5294TIP3   OH215814   5.500   0.232   1.809  0.0903 -0.5142 -1.1956
 5294TIP3    H115815   5.433   0.200   1.748  0.0895  0.7736 -1.8753
 5294TIP3    H215816   5.462   0.311   1.846  1.1052  0.0387 -1.3351
 5295TIP3   OH215817   4.554   6.201   2.392  0.8288  0.0001 -0.2161
 5295TIP3    H115818   4.596   6.220   2.308  1.2543 -0.9055 -0.2227
 5295TIP3    H215819   4.627   6.196   2.455  0.5132  0.7005  0.2173
 5296TIP3   OH215820   0.581   4.430   6.569  0.1521  0.1383 -0.5077
 5296TIP3    H115821   0.661   4.482   6.571  0.1242  0.1347  1.0806
 5296TIP3    H215822   0.515   4.486   6.610 -0.2019 -0.6003 -0.0586
 5297TIP3   OH215823   4.322   7.673   1.626  0.0906  0.4612  0.4694
 5297TIP3    H115824   4.241   7.621   1.627 -0.8656  1.7889 -2.0989
 5297TIP3    H215825   4.384   7.619   1.576  0.1347  0.3516  0.6430
 5298TIP3   OH215826   3.619   6.726   0.850 -0.5334  0.5225  0.0794
 5298TIP3    H115827   3.672   6.648   0.866 -1.1698  0.1649  0.4773
 5298TIP3    H215828   3.637   6.782   0.926 -0.6326  0.4510  0.1564
 5299TIP3   OH215829   4.330   6.939   3.352 -0.5999  0.1752 -0.5767
 5299TIP3    H115830   4.247   6.945   3.304 -1.0088  2.9453  0.4083
 5299TIP3    H215831   4.392   6.991   3.300 -0.1880  0.3913  0.1201
 5300TIP3   OH215832   3.347   7.449   0.855 -0.1784 -0.0000  0.6515
 5300TIP3    H115833   3.275   7.400   0.817 -0.6769  0.1901  1.3501
 5300TIP3    H215834   3.425   7.415   0.812 -0.4580 -1.8639  1.5769
 5301TIP3   OH215835   0.859   7.859   0.117  0.0194  0.5209 -0.2574
 5301TIP3    H115836   0.855   7.782   0.173  1.0933  0.7846  0.1935
 5301TIP3    H215837   0.824   7.930   0.172 -1.3315  0.3018 -0.8005
 5302TIP3   OH215838   7.610   3.147   6.815 -0.1589 -0.6270  0.1613
 5302TIP3    H115839   7.557   3.110   6.744 -1.8090  1.3101  0.3370
 5302TIP3    H215840   7.566   3.118   6.895 -0.2904  0.0078  0.3229
 5303TIP3   OH215841   6.705   0.082   1.628  0.3950  0.2786  0.2814
 5303TIP3    H115842   6.715  -0.003   1.585  0.8218 -0.2356  1.3700
 5303TIP3    H215843   6.661   0.062   1.711  1.4347  0.9659  1.0237
 5304TIP3   OH215844   6.881   2.046   0.735 -0.9875  0.3366 -0.1052
 5304TIP3    H115845   6.945   2.104   0.776 -1.9083 -0.0815  1.9924
 5304TIP3    H215846   6.934   1.983   0.687  0.0835  1.6450 -0.6818
 5305TIP3   OH215847   1.568   6.673   1.580 -0.0849 -0.4709  0.0872
 5305TIP3    H115848   1.514   6.646   1.506  0.0395 -2.2369  0.6125
 5305TIP3    H215849   1.568   6.769   1.577 -0.4545 -0.5273 -1.9154
 5306TIP3   OH215850   4.577   2.141   0.864  0.7999  0.4212  0.4290
 5306TIP3    H115851   4.589   2.236   0.855  0.4848  0.6154  1.9668
 5306TIP3    H215852   4.659   2.104   0.832  0.9243  1.2063 -0.1878
 5307TIP3   OH215853   2.897   7.828   1.993 -0.4228 -0.1953  0.1667
 5307TIP3    H115854   2.934   7.755   2.042  0.2465  0.3278  0.4640
 5307TIP3    H215855   2.893   7.797   1.903  1.6640  0.0348 -0.0498
 5308TIP3   OH215856   6.118   0.374   1.792  0.0951  0.1914 -0.0696
 5308TIP3    H115857   6.171   0.314   1.844 -1.5921 -2.3312 -1.2184
 5308TIP3    H215858   6.165   0.382   1.709  0.2942  0.4620  0.0660
 5309TIP3   OH215859   4.712   7.672   2.530 -0.1682 -0.1413 -0.3769
 5309TIP3    H115860   4.702   7.642   2.621  2.3656  0.2558  0.0544
 5309TIP3    H215861   4.800   7.709   2.526 -0.7950  1.2143 -2.6264
 5310TIP3   OH215862   5.198   1.311   2.320  0.2741  0.5430  0.1493
 5310TIP3    H115863   5.160   1.234   2.363  3.8815 -0.6050  1.5159
 5310TIP3    H215864   5.265   1.275   2.262  1.7417  2.6108  0.4989
 5311TIP3   OH215865   3.722   7.061   0.282 -0.3983  0.0151 -0.3947
 5311TIP3    H115866   3.632   7.044   0.308  0.3977 -0.3762  2.2272
 5311TIP3    H215867   3.733   7.011   0.201 -2.5357  0.1038 -0.7766
 5312TIP3   OH215868   0.364   7.874   1.426 -0.6584 -0.8435  0.0409
 5312TIP3    H115869   0.291   7.822   1.462 -3.2252  0.9499 -2.4064
 5312TIP3    H215870   0.368   7.849   1.334  0.1423  1.0121 -0.4363
 5313TIP3   OH215871   3.302   7.717   0.925 -0.6579  0.3436  0.3550
 5313TIP3    H115872   3.389   7.724   0.966 -1.0110 -0.9662  1.3826
 5313TIP3    H215873   3.293   7.623   0.907 -1.1706  0.7042 -1.3100
 5314TIP3   OH215874   4.850   0.635   1.433 -0.1535  0.7398 -0.1229
 5314TIP3    H115875   4.791   0.640   1.507 -3.4805 -0.1603 -2.5832
 5314TIP3    H215876   4.910   0.709   1.444  2.0819 -1.5995  5.4787
 5315TIP3   OH215877   3.989   7.377   1.480  0.4083  0.3121 -0.7662
 5315TIP3    H115878   3.963   7.374   1.388 -1.0281  2.1166 -0.4627
 5315TIP3    H215879   3.941   7.306   1.521  0.4705 -0.0230 -1.2610
 5316TIP3   OH215880   3.327   6.364   3.477  0.0962 -0.1790 -0.3224
 5316TIP3    H115881   3.366   6.445   3.445 -0.3912  0.0753 -0.2926
 5316TIP3    H215882   3.248   6.354   3.424  0.5424 -1.0255 -0.8223
 5317TIP3   OH215883   3.081   5.848   0.220 -0.1898  0.4357 -0.5479
 5317TIP3    H115884   3.076   5.937   0.254  0.3681 -1.0750  3.9454
 5317TIP3    H215885   3.001   5.806   0.254  1.6576 -1.8412  1.1460
 5318TIP3   OH215886   7.166   3.306   6.249  0.2700  0.0737  0.8574
 5318TIP3    H115887   7.086   3.255   6.236  1.5620 -1.9179  0.5366
 5318TIP3    H215888   7.206   3.269   6.328  1.7492 -0.1127  0.0389
 5319TIP3   OH215889   5.277   0.148   1.632  0.3125 -0.1685 -0.0919
 5319TIP3    H115890   5.208   0.084   1.616 -0.8773  0.7299  1.2909
 5319TIP3    H215891   5.316   0.163   1.546 -2.9022  1.1812 -1.4097
 5320TIP3   OH215892   4.725   0.640   2.432  0.2096  0.0182  0.0609
 5320TIP3    H115893   4.738   0.574   2.499  1.4173 -1.3839 -1.5035
 5320TIP3    H215894   4.673   0.708   2.474  0.2443 -1.2208  2.1421
 5321TIP3   OH215895   4.466   7.734   2.349 -0.0349  0.0042 -0.2374
 5321TIP3    H115896   4.490   7.716   2.440 -0.8155 -0.1029 -0.0545
 5321TIP3    H215897   4.549   7.730   2.301  0.3645 -0.0096  0.4583
 5322TIP3   OH215898   4.510   7.020   0.627  1.0226 -0.0833 -0.2628
 5322TIP3    H115899   4.516   6.985   0.716 -1.3695 -0.8533 -0.3558
 5322TIP3    H215900   4.435   6.974   0.589  0.9473  1.5017 -2.0986
 5323TIP3   OH215901   6.686   2.139   1.917 -0.3588 -0.3884 -0.2292
 5323TIP3    H115902   6.763   2.154   1.971 -0.0171 -0.4067 -0.7025
 5323TIP3    H215903   6.688   2.211   1.853 -2.2616  1.2097  1.4540
 5324TIP3   OH215904   5.121   1.456   1.138  0.4580 -0.6967 -0.3291
 5324TIP3    H115905   5.125   1.436   1.044  1.1692  0.2202 -0.4977
 5324TIP3    H215906   5.088   1.545   1.142  2.0729 -0.1061  0.2284
 5325TIP3   OH215907   3.478   5.850   0.597  0.0255 -0.1305  0.4737
 5325TIP3    H115908   3.449   5.935   0.632 -1.1328  0.1224 -1.0607
 5325TIP3    H215909   3.398   5.802   0.581  0.7151 -1.9250  2.2366
 5326TIP3   OH215910   4.702   7.667   0.297  0.5996  0.7662 -0.4621
 5326TIP3    H115911   4.650   7.586   0.303  1.6445  0.0954 -0.4325
 5326TIP3    H215912   4.636   7.737   0.299 -0.1707  0.0566  2.9524
 5327TIP3   OH215913   7.238   0.538   1.769  0.4264  0.2346  0.6766
 5327TIP3    H115914   7.151   0.521   1.803 -0.2822  0.7331 -0.8487
 5327TIP3    H215915   7.280   0.452   1.765 -0.5835 -0.2298 -0.1609
 5328TIP3   OH215916   2.214   7.823   0.694 -0.7763  0.4276  0.6293
 5328TIP3    H115917   2.223   7.827   0.599  0.5312 -0.2637  0.7124
 5328TIP3    H215918   2.134   7.772   0.709 -1.1456  0.7938 -0.0915
 5329TIP3   OH215919   3.232   6.092   2.455  0.5104  0.3154  0.1484
 5329TIP3    H115920   3.297   6.060   2.392  0.0629  0.8824 -0.6124
 5329TIP3    H215921   3.221   6.184   2.433 -0.1491  0.3520  0.6294
 5330TIP3   OH215922   5.692   1.341   2.760  0.0913  0.0514 -0.2296
 5330TIP3    H115923   5.724   1.289   2.686 -0.4548  0.0761 -0.4816
 5330TIP3    H215924   5.603   1.309   2.776  0.5521 -0.6547  1.0650
 5331TIP3   OH215925   7.004   0.169   1.755  0.6325 -0.4464 -0.0374
 5331TIP3    H115926   7.021   0.082   1.719  0.0723 -0.5031 -0.1803
 5331TIP3    H215927   6.911   0.183   1.738  0.6557  0.0559  0.2563
 5332TIP3   OH215928   3.633   7.130   1.676 -0.7630  0.3661  0.0050
 5332TIP3    H115929   3.682   7.200   1.719 -0.0423 -0.2312  0.1614
 5332TIP3    H215930   3.555   7.118   1.730  0.1580 -0.4075  1.1827
 5333TIP3   OH215931   1.863   6.851   3.064  0.8452 -0.3988  0.5052
 5333TIP3    H115932   1.957   6.865   3.076  0.7938 -0.4721  1.0259
 5333TIP3    H215933   1.822   6.925   3.108  0.6994  0.6533 -1.3883
 5334TIP3   OH215934   7.310   3.959   6.119  0.0922  0.0722  0.2302
 5334TIP3    H115935   7.246   3.981   6.050  0.3997 -0.6395 -0.2864
 5334TIP3    H215936   7.268   3.988   6.200 -1.3668 -1.3546  0.0199
 5335TIP3   OH215937   8.081   2.420   6.754 -0.1329  0.3197  0.0525
 5335TIP3    H115938   8.069   2.363   6.830  0.3560 -2.0285 -1.6105
 5335TIP3    H215939   7.992   2.447   6.730 -0.4530 -0.6139  0.1790
 5336TIP3   OH215940   7.931   0.201   1.569 -0.0892 -0.2127  1.0472
 5336TIP3    H115941   7.845   0.220   1.608 -0.5311 -0.9791  0.4634
 5336TIP3    H215942   7.918   0.119   1.521 -0.2269  1.9117 -2.7728
 5337TIP3   OH215943   6.837   1.789   3.639  0.2175  0.6900 -0.3439
 5337TIP3    H115944   6.877   1.870   3.608  0.9055  0.3459 -0.3775
 5337TIP3    H215945   6.911   1.729   3.650 -0.2850  0.0632 -0.3483
 5338TIP3   OH215946   1.741   6.169   0.134 -0.0164 -0.3261 -0.6259
 5338TIP3    H115947   1.681   6.244   0.130  0.8791  0.3916 -0.7470
 5338TIP3    H215948   1.730   6.134   0.222  0.4229  0.6703 -0.1685
 5339TIP3   OH215949   4.477   7.396   2.598  0.0651 -0.8986  0.3202
 5339TIP3    H115950   4.441   7.475   2.639  0.8954 -0.0228 -0.6386
 5339TIP3    H215951   4.502   7.340   2.672 -0.3252 -0.1768  1.0035
 5340TIP3   OH215952   2.335   6.863   1.526  0.3384  0.3704 -0.7554
 5340TIP3    H115953   2.331   6.769   1.544  0.9873  0.4382 -0.2570
 5340TIP3    H215954   2.420   6.890   1.560  0.2862  1.0776 -1.1937
 5341TIP3   OH215955   8.033   3.479   6.817  0.1256  0.1989 -0.2159
 5341TIP3    H115956   8.005   3.459   6.906  0.5673 -0.9517 -0.3253
 5341TIP3    H215957   8.012   3.400   6.767 -0.4889  0.9814 -1.2180
 5342TIP3   OH215958   4.845   0.664   1.972 -0.3163  0.1225 -0.2648
 5342TIP3    H115959   4.822   0.648   1.880 -0.2504 -0.1705 -0.2307
 5342TIP3    H215960   4.762   0.688   2.014 -0.8221 -2.2365  0.1464
 5343TIP3   OH215961   2.867   5.613   2.925  0.0403  0.1253  0.2786
 5343TIP3    H115962   2.887   5.526   2.890  2.1064  0.8812 -0.4960
 5343TIP3    H215963   2.884   5.606   3.019 -1.7516 -0.8467  0.5407
 5344TIP3   OH215964   0.463   7.689   2.191 -0.8506  0.1854  1.0169
 5344TIP3    H115965   0.467   7.652   2.279 -0.3105 -1.1839  0.4261
 5344TIP3    H215966   0.548   7.669   2.151 -1.2692  0.3419  0.0136
 5345TIP3   OH215967   5.664   0.839   1.408 -0.1973 -0.3863  0.0711
 5345TIP3    H115968   5.692   0.747   1.406 -0.1477 -0.3553 -1.3338
 5345TIP3    H215969   5.568   0.834   1.411 -0.1505 -0.4784  2.1022
 5346TIP3   OH215970   6.765   7.342   3.254  0.2216 -0.9176  0.1657
 5346TIP3    H115971   6.753   7.283   3.329 -0.6076  0.3252  1.0208
 5346TIP3    H215972   6.677   7.375   3.235  0.5968 -0.3908 -0.6679
 5347TIP3   OH215973   3.196   5.895   1.124 -0.3269 -0.0018  0.0344
 5347TIP3    H115974   3.151   5.951   1.187 -0.8946 -0.1196 -0.2623
 5347TIP3    H215975   3.184   5.939   1.039  0.2785  0.0622 -0.0225
 5348TIP3   OH215976   2.698   7.805   2.233 -0.1731 -0.1732 -0.3787
 5348TIP3    H115977   2.708   7.821   2.326  2.6915  0.4640 -0.7345
 5348TIP3    H215978   2.667   7.714   2.227 -2.3569  0.4351  1.2047
 5349TIP3   OH215979   0.558   6.587   3.102  0.2985 -0.0019 -0.1932
 5349TIP3    H115980   0.481   6.643   3.111  0.6519  0.6364 -1.0597
 5349TIP3    H215981   0.618   6.619   3.169  0.0904 -0.0389  0.0123
 5350TIP3   OH215982   3.981   7.831   1.938 -0.3365 -0.0859 -0.1769
 5350TIP3    H115983   3.969   7.755   1.880  1.3694  1.2189 -2.3077
 5350TIP3    H215984   3.921   7.897   1.903 -2.1866 -0.5600  1.9793
 5351TIP3   OH215985   3.615   7.626   2.910  0.2984 -0.1335 -0.6761
 5351TIP3    H115986   3.560   7.677   2.850 -1.4225 -0.9104  0.1821
 5351TIP3    H215987   3.646   7.690   2.974 -0.5681  0.1220 -0.5032
 5352TIP3   OH215988   1.132   1.446   6.843 -0.0416  0.7115 -1.0288
 5352TIP3    H115989   1.122   1.395   6.923 -0.9236  1.2707 -0.7764
 5352TIP3    H215990   1.093   1.392   6.774  0.6584  0.2598 -1.0758
 5353TIP3   OH215991   3.990   6.907   3.499 -0.1355 -0.4253  0.1143
 5353TIP3    H115992   3.939   6.831   3.470  0.8996 -1.4523  0.9315
 5353TIP3    H215993   3.933   6.951   3.562 -0.3203 -1.1524  0.4689
 5354TIP3   OH215994   7.653   0.333   0.911  0.1848  0.4274  0.6206
 5354TIP3    H115995   7.667   0.276   0.987 -0.2189  1.0085  1.1385
 5354TIP3    H215996   7.663   0.422   0.946  1.3060  0.6595 -0.2833
 5355TIP3   OH215997   2.088   6.919   2.331 -0.0070  0.3892  0.1766
 5355TIP3    H115998   2.048   6.844   2.374 -0.6021  0.8657  0.4657
 5355TIP3    H215999   2.075   6.991   2.392 -1.1677  1.1471 -0.9367
 5356TIP3   OH216000   0.897   6.884   2.770 -0.1498 -0.3468 -0.1321
 5356TIP3    H116001   0.990   6.867   2.754 -0.1010  1.7583 -2.2873
 5356TIP3    H216002   0.893   6.913   2.861  1.7689  2.5801 -0.9322
 5357TIP3   OH216003   0.358   4.436   6.827  0.2262  0.1116  0.1747
 5357TIP3    H116004   0.302   4.428   6.750  1.2678 -2.3326 -0.3575
 5357TIP3    H216005   0.386   4.347   6.847  1.9632  0.9874  1.9067
 5358TIP3   OH216006   3.320   6.284   2.170  0.3268  0.0721 -0.3060
 5358TIP3    H116007   3.366   6.202   2.188  0.9244  0.1296 -1.5485
 5358TIP3    H216008   3.342   6.305   2.079 -0.1638  1.3882 -0.1357
 5359TIP3   OH216009   5.006   7.647   1.263 -0.1115 -0.3729 -0.3189
 5359TIP3    H116010   5.045   7.595   1.333  0.1528  0.8399  0.4458
 5359TIP3    H216011   5.076   7.706   1.235 -1.0197  0.9929  0.2410
 5360TIP3   OH216012   1.183   5.755   5.407 -0.3170 -0.0183 -0.5046
 5360TIP3    H116013   1.116   5.821   5.423  0.4466  0.4639  0.8061
 5360TIP3    H216014   1.141   5.672   5.432 -0.2475  0.3467  0.8680
 5361TIP3   OH216015   4.286   6.492   3.075 -0.1817 -0.2819  0.8033
 5361TIP3    H116016   4.301   6.409   3.121  0.9259 -1.9881 -2.4186
 5361TIP3    H216017   4.263   6.465   2.985 -1.5446  2.8818  0.1421
 5362TIP3   OH216018   7.828   0.046   1.857  0.3374 -0.2470 -0.3845
 5362TIP3    H116019   7.816   0.053   1.951 -0.3520  0.9149 -0.5501
 5362TIP3    H216020   7.748   0.083   1.819  0.7403 -0.4127 -1.4279
 5363TIP3   OH216021   4.257   7.342   1.583  0.6305  0.5293 -0.1989
 5363TIP3    H116022   4.168   7.351   1.548  0.2055  1.7800  1.1182
 5363TIP3    H216023   4.245   7.309   1.672  1.4648  0.8202  0.0310
 5364TIP3   OH216024   5.961   0.283   2.371 -0.1673 -0.0139  0.4341
 5364TIP3    H116025   6.015   0.207   2.394  0.2133 -0.0694 -0.6085
 5364TIP3    H216026   6.010   0.358   2.405  1.7905  0.1401 -2.5272
 5365TIP3   OH216027   2.880   7.103   1.485 -0.5106  0.0808 -0.5945
 5365TIP3    H116028   2.938   7.102   1.409 -1.8128 -0.9613 -1.6075
 5365TIP3    H216029   2.886   7.014   1.521  1.1762  0.9723  1.3717
 5366TIP3   OH216030   8.045   6.131   6.343 -0.2432 -0.3300  0.0485
 5366TIP3    H116031   8.041   6.214   6.294  1.1745 -0.4790 -0.3227
 5366TIP3    H216032   8.136   6.102   6.335 -0.1842 -0.7784  2.0920
 5367TIP3   OH216033   3.862   7.888   0.826  0.6347 -0.0726 -0.4591
 5367TIP3    H116034   3.776   7.845   0.826  1.1078 -1.0972  2.5244
 5367TIP3    H216035   3.848   7.971   0.871  1.4966 -0.9236  1.4269
 5368TIP3   OH216036   5.298   0.176   2.178  0.0203 -0.2622 -0.4652
 5368TIP3    H116037   5.344   0.125   2.111  0.3447 -0.3548 -0.1768
 5368TIP3    H216038   5.283   0.261   2.137 -1.9284 -1.0720 -1.5206
 5369TIP3   OH216039   5.057   2.397   2.517  0.0109 -0.4254 -0.3322
 5369TIP3    H116040   5.085   2.306   2.505  0.3444 -0.2308 -1.0238
 5369TIP3    H216041   5.122   2.448   2.469 -0.7909  0.1149 -0.8402
 5370TIP3   OH216042   7.611   0.999   2.517  0.1963 -0.2572  0.0216
 5370TIP3    H116043   7.657   1.012   2.434  0.0606 -0.0339 -0.0168
 5370TIP3    H216044   7.558   1.078   2.529  0.5932 -0.0660  0.5619
 5371TIP3   OH216045   4.143   1.897   0.552 -0.2804 -0.3581  0.2060
 5371TIP3    H116046   4.081   1.946   0.606 -0.7319 -1.0847  0.3616
 5371TIP3    H216047   4.225   1.944   0.560 -0.7620  0.5011  0.1685
 5372TIP3   OH216048   7.954   3.125   6.852 -0.6904  0.0085  0.3974
 5372TIP3    H116049   7.909   3.068   6.914 -1.1666 -0.4997 -0.4116
 5372TIP3    H216050   7.895   3.199   6.839 -0.7270 -0.0352  0.3147
 5373TIP3   OH216051   2.770   7.342   1.442  0.0815 -0.0386  1.1351
 5373TIP3    H116052   2.767   7.358   1.348  1.0147  0.6898  1.2197
 5373TIP3    H216053   2.811   7.256   1.451 -1.3688 -0.7753  0.8263
 5374TIP3   OH216054   7.472   0.502   2.652  0.7372  0.1746 -0.2358
 5374TIP3    H116055   7.546   0.451   2.685  0.2211 -0.2152  0.3490
 5374TIP3    H216056   7.509   0.560   2.586  1.8161  1.0057  1.0767
 5375TIP3   OH216057   3.460   7.815   2.788 -0.4772  0.3932 -0.1614
 5375TIP3    H116058   3.484   7.854   2.704  0.3782  0.6364  0.1917
 5375TIP3    H216059   3.429   7.889   2.841  1.0200  0.5813  0.4623
 5376TIP3   OH216060   7.490   1.195   3.735  0.0244  0.4007  0.2325
 5376TIP3    H116061   7.585   1.181   3.738 -0.2023 -1.2256  0.0253
 5376TIP3    H216062   7.454   1.111   3.708 -1.5919  0.5271  1.9074
 5377TIP3   OH216063   7.798   5.076   6.915  0.3521 -0.2467 -0.0349
 5377TIP3    H116064   7.767   5.152   6.866 -1.3357 -0.9593 -0.1187
 5377TIP3    H216065   7.893   5.081   6.909  0.2372  1.1503 -1.1134
 5378TIP3   OH216066   4.016   7.863   1.236  0.4367 -0.2200 -0.0962
 5378TIP3    H116067   4.084   7.802   1.208  2.0225  1.7294 -0.5814
 5378TIP3    H216068   4.033   7.943   1.187 -1.6975  0.5858  0.4200
 5379TIP3   OH216069   7.351   0.420   2.221  0.4020  0.0413  0.5550
 5379TIP3    H116070   7.316   0.422   2.310 -0.8163  0.0854  0.0751
 5379TIP3    H216071   7.284   0.462   2.167  0.5312 -1.2146 -0.6007
 5380TIP3   OH216072   0.152   0.405   1.300  0.2684  0.3388 -0.1046
 5380TIP3    H116073   0.189   0.322   1.330  2.8737  1.7430  0.7208
 5380TIP3    H216074   0.063   0.406   1.335  0.4651 -1.7546  0.5085
 5381TIP3   OH216075   2.009   5.249   3.084 -0.9078  0.0901 -0.0925
 5381TIP3    H116076   1.955   5.208   3.017 -2.9761 -1.4557  2.4205
 5381TIP3    H216077   2.073   5.182   3.109 -0.0466  0.7083 -0.6102
 5382TIP3   OH216078   3.087   6.492   2.084 -0.4531 -0.7971 -0.2710
 5382TIP3    H116079   3.079   6.407   2.128  0.5612 -1.3145 -1.0448
 5382TIP3    H216080   3.089   6.470   1.991 -2.5976  0.2794 -0.5822
 5383TIP3   OH216081   5.828   0.215   0.156 -0.1736  0.3111 -0.2191
 5383TIP3    H116082   5.893   0.235   0.223  1.1538 -0.2969 -1.2905
 5383TIP3    H216083   5.799   0.126   0.175 -2.4314  1.4052  1.6287
 5384TIP3   OH216084   3.513   0.194   1.022 -0.3853  0.5238  0.3325
 5384TIP3    H116085   3.531   0.104   1.046 -0.0648  0.9290  1.6447
 5384TIP3    H216086   3.548   0.246   1.095 -0.2710  1.7191 -0.5593
 5385TIP3   OH216087   4.575   0.866   0.250 -0.2447 -0.2756 -0.1940
 5385TIP3    H116088   4.660   0.903   0.275 -0.9441  0.4056  1.2109
 5385TIP3    H216089   4.597   0.783   0.207  1.1324 -0.0694  0.0953
 5386TIP3   OH216090   5.251   7.847   2.747 -0.1493 -0.2207  0.1676
 5386TIP3    H116091   5.307   7.769   2.746 -0.1412 -0.2247  0.7396
 5386TIP3    H216092   5.171   7.819   2.791 -0.1627  0.0762  0.3401
 5387TIP3   OH216093   3.612   7.791   1.740  0.0838  0.0545  0.2447
 5387TIP3    H116094   3.536   7.763   1.791  0.7030 -0.2397  1.0118
 5387TIP3    H216095   3.623   7.721   1.675 -0.2541  0.0561  0.1841
 5388TIP3   OH216096   1.433   6.760   1.066 -0.2883  0.0316 -0.0435
 5388TIP3    H116097   1.502   6.763   1.133 -1.9446 -0.3540  1.7484
 5388TIP3    H216098   1.474   6.718   0.990  0.9416 -1.9055  1.6256
 5389TIP3   OH216099   3.628   5.880   1.746  0.3971  0.2352  0.6525
 5389TIP3    H116100   3.715   5.916   1.759 -0.1521  1.5957  0.6970
 5389TIP3    H216101   3.579   5.906   1.825 -0.0133 -0.6217  0.6899
 5390TIP3   OH216102   8.203   1.712   0.913 -0.0716  0.5263 -0.1561
 5390TIP3    H116103   8.207   1.734   1.006  0.7933 -2.2273  0.5233
 5390TIP3    H216104   8.294   1.719   0.883 -0.4149  1.8214 -0.8989
 5391TIP3   OH216105   4.865   6.338   2.252  0.2122  0.8575 -0.4363
 5391TIP3    H116106   4.913   6.420   2.259  0.3605  0.7723 -0.4566
 5391TIP3    H216107   4.835   6.320   2.340  0.5502  0.7089 -0.3515
 5392TIP3   OH216108   2.830   5.126   0.379  0.3974  0.0244  0.5509
 5392TIP3    H116109   2.921   5.154   0.376  0.4503 -0.0692  1.1617
 5392TIP3    H216110   2.827   5.049   0.321 -0.1877  2.4422 -2.7607
 5393TIP3   OH216111   4.164   3.055   1.944  0.0685 -0.2968 -0.1070
 5393TIP3    H116112   4.156   3.010   2.028  0.4409 -0.4528 -0.1535
 5393TIP3    H216113   4.252   3.094   1.946 -0.2013  0.3289 -0.1130
 5394TIP3   OH216114   2.279   5.921   1.612 -0.4027 -0.3753  0.1290
 5394TIP3    H116115   2.194   5.952   1.643  0.3633  0.2954  1.5742
 5394TIP3    H216116   2.265   5.829   1.591 -1.0191 -0.7507  2.1681
 5395TIP3   OH216117   2.872   6.600   1.685  0.3479 -0.0065 -0.3743
 5395TIP3    H116118   2.927   6.663   1.639  0.5889  0.6062  0.7228
 5395TIP3    H216119   2.927   6.568   1.756 -0.4077 -0.0458  0.1965
 5396TIP3   OH216120   3.939   7.845   1.519  0.2314 -0.4708 -0.0466
 5396TIP3    H116121   3.931   7.750   1.510  0.7386 -0.4250 -1.0580
 5396TIP3    H216122   3.959   7.876   1.430  2.8855  0.2886  0.7536
 5397TIP3   OH216123   3.182   4.965   6.899  0.2321  0.4220  0.4084
 5397TIP3    H116124   3.145   4.877   6.898  0.8231  0.1708 -0.1187
 5397TIP3    H216125   3.260   4.958   6.953  1.8941 -0.0804 -1.9527
 5398TIP3   OH216126   0.455   4.184   6.852  0.1455  0.3399 -0.2329
 5398TIP3    H116127   0.519   4.148   6.790 -0.0415  0.2610 -0.3789
 5398TIP3    H216128   0.506   4.201   6.931  0.5851  1.3298 -0.7214
 5399TIP3   OH216129   1.608   7.951   1.145 -0.1404  0.4165 -0.2484
 5399TIP3    H116130   1.598   7.934   1.052  0.2884  0.1470 -0.2452
 5399TIP3    H216131   1.650   7.872   1.180  1.9013  1.4474 -0.2473
 5400TIP3   OH216132   3.973   8.026   2.713 -0.0473 -0.3197  0.2993
 5400TIP3    H116133   4.007   7.936   2.717  3.8309  1.0273 -0.5957
 5400TIP3    H216134   4.000   8.065   2.796  0.3023  0.7078 -0.2980
 5401TIP3   OH216135   4.235   5.555   1.533  0.1814 -0.1327 -0.6718
 5401TIP3    H116136   4.329   5.542   1.527  0.7807  3.8194 -1.5888
 5401TIP3    H216137   4.198   5.499   1.465  1.6991 -2.8211  0.6654
 5402TIP3   OH216138   4.408   7.298   1.140 -0.0491 -0.4074  0.3686
 5402TIP3    H116139   4.373   7.232   1.199 -0.3970  1.3733  2.1904
 5402TIP3    H216140   4.497   7.314   1.172  0.0638 -0.0406 -0.1288
 5403TIP3   OH216141   5.001   7.118   1.294  0.1695 -0.1192 -0.3301
 5403TIP3    H116142   5.013   7.066   1.373  0.7390  1.5194  0.7081
 5403TIP3    H216143   4.984   7.207   1.327 -0.4661  0.4101 -2.0417
 5404TIP3   OH216144   6.475   6.290   3.620  0.4371 -0.3046  0.6460
 5404TIP3    H116145   6.559   6.336   3.612  0.5254 -0.6530 -0.6360
 5404TIP3    H216146   6.417   6.336   3.560  0.5045 -1.7716 -0.5880
 5405TIP3   OH216147   5.038   7.489   0.566 -0.4563 -0.1811  0.1390
 5405TIP3    H116148   5.002   7.476   0.654 -1.1416 -0.1014 -0.1264
 5405TIP3    H216149   5.015   7.579   0.544  0.0831 -0.0649  0.0442
 5406TIP3   OH216150   5.064   7.940   1.447  0.1720 -0.2591  0.0676
 5406TIP3    H116151   4.987   7.907   1.493  0.3692 -1.3149 -0.3410
 5406TIP3    H216152   5.040   7.934   1.354  0.6599 -0.3644 -0.0497
 5407TIP3   OH216153   4.556   0.371   3.470  0.3191 -1.0115  0.3538
 5407TIP3    H116154   4.537   0.350   3.562 -2.3032 -0.2232  0.0376
 5407TIP3    H216155   4.569   0.466   3.469 -1.5453 -0.7526 -0.3723
 5408TIP3   OH216156   6.571   2.013   3.078  0.5950  0.3971 -0.3113
 5408TIP3    H116157   6.488   2.038   3.036 -0.5628 -0.6779  1.2523
 5408TIP3    H216158   6.628   2.089   3.065 -0.9549  1.5477 -0.5992
 5409TIP3   OH216159   5.030   7.909   3.505  0.7567 -0.2744 -0.2632
 5409TIP3    H116160   4.990   7.988   3.468  2.4019  1.2694  1.1792
 5409TIP3    H216161   4.960   7.870   3.557 -0.6620 -0.8579 -2.5165
 5410TIP3   OH216162   1.136   0.738   4.147 -0.1704  0.4379  0.2835
 5410TIP3    H116163   1.163   0.652   4.114  0.3392 -0.2588  2.4920
 5410TIP3    H216164   1.040   0.736   4.141 -0.2566 -0.8939  1.7601
 5411TIP3   OH216165   5.245   7.450   1.119  0.4507 -0.2754  0.5149
 5411TIP3    H116166   5.281   7.535   1.144 -2.0226  0.3919  2.0193
 5411TIP3    H216167   5.215   7.412   1.201 -1.9124 -0.9172 -0.5817
 5412TIP3   OH216168   7.209   0.057   2.986 -0.0446  0.6507  0.6561
 5412TIP3    H116169   7.151   0.015   3.049 -1.0330 -0.6823 -1.0921
 5412TIP3    H216170   7.286   0.082   3.037 -0.5004 -1.0431  2.2422
 5413TIP3   OH216171   1.814   1.683   2.585 -0.1894 -0.3802  0.2500
 5413TIP3    H116172   1.904   1.655   2.596 -0.4994 -1.8867 -0.8581
 5413TIP3    H216173   1.763   1.619   2.635 -0.7273 -0.3234 -0.2196
 5414TIP3   OH216174   5.509   0.037   1.993 -0.1835 -0.7307  0.3981
 5414TIP3    H116175   5.423  -0.004   1.988  0.0542 -1.0077 -1.5172
 5414TIP3    H216176   5.510   0.100   1.921  0.2880  1.0895  1.9336
 5415TIP3   OH216177   7.393   1.013   1.022 -0.2867 -0.0280 -0.3184
 5415TIP3    H116178   7.372   1.100   0.990 -1.6119 -0.3806 -0.4215
 5415TIP3    H216179   7.379   0.955   0.947  0.4262 -0.3616 -0.2074
 5416TIP3   OH216180   1.022   0.586   4.670 -0.9494  0.5059  0.2403
 5416TIP3    H116181   1.082   0.512   4.658 -2.4929 -0.7222  0.0483
 5416TIP3    H216182   1.044   0.646   4.599  0.0232  0.0569  0.1482
 5417TIP3   OH216183   6.033   6.846   0.107  0.1328  0.1620 -0.0279
 5417TIP3    H116184   6.013   6.879   0.019  1.2842 -0.2121 -0.4337
 5417TIP3    H216185   6.049   6.753   0.094  0.1665  0.0835  0.6026
 5418TIP3   OH216186   0.744   3.182   6.817 -0.4016  0.0708 -0.0191
 5418TIP3    H116187   0.737   3.090   6.843  0.3294 -0.5141 -1.8508
 5418TIP3    H216188   0.780   3.225   6.894  2.2567 -1.7410 -0.1627
 5419TIP3   OH216189   0.842   0.311   0.869  0.6961  0.1709  0.1066
 5419TIP3    H116190   0.749   0.298   0.890  0.6534  0.2645 -0.0172
 5419TIP3    H216191   0.882   0.226   0.884  0.5151  0.0266 -0.2182
 5420TIP3   OH216192   3.836   5.687   0.482  0.2397 -0.1418  0.4416
 5420TIP3    H116193   3.795   5.602   0.501  1.6450 -1.0148 -0.3894
 5420TIP3    H216194   3.929   5.667   0.471  0.3761  1.2813 -1.1824
 5421TIP3   OH216195   4.673   7.408   1.179 -0.1864 -0.6689  0.3278
 5421TIP3    H116196   4.642   7.482   1.127 -2.0321 -1.2711  0.5497
 5421TIP3    H216197   4.762   7.433   1.205 -0.5632  1.1889 -0.0898
 5422TIP3   OH216198   5.325   1.851   1.751  0.5338 -0.2644 -0.3127
 5422TIP3    H116199   5.289   1.789   1.688  0.3623 -0.6940  0.2051
 5422TIP3    H216200   5.408   1.810   1.779 -1.1312 -1.8788  2.4857
 5423TIP3   OH216201   1.108   4.147   6.458  0.0215 -0.4441  0.3817
 5423TIP3    H116202   1.114   4.214   6.390 -0.4656 -0.7180  0.0685
 5423TIP3    H216203   1.199   4.122   6.475  0.2262  0.4321  0.6381
 5424TIP3   OH216204   5.436   4.406   1.799  0.7275  0.4172 -0.0893
 5424TIP3    H116205   5.422   4.400   1.893  0.5344  1.7330 -0.0346
 5424TIP3    H216206   5.531   4.400   1.788  0.7758  0.6870  0.2113
 5425TIP3   OH216207   4.764   4.821   1.905 -0.6972  0.0305 -0.6526
 5425TIP3    H116208   4.749   4.819   1.811 -0.1336 -0.2092 -0.7371
 5425TIP3    H216209   4.854   4.853   1.915 -0.8016  0.1950 -0.1920
 5426TIP3   OH216210   4.931   5.539   5.783  0.2299  0.1061 -0.6104
 5426TIP3    H116211   4.949   5.611   5.722 -0.8515 -0.1149 -1.1944
 5426TIP3    H216212   4.940   5.460   5.730  0.8701 -0.1694 -0.0981
 5427TIP3   OH216213   8.066   5.918   0.324  0.6332  0.4990  0.1717
 5427TIP3    H116214   7.988   5.911   0.380  0.4667  0.2464 -0.0869
 5427TIP3    H216215   8.123   5.848   0.354  1.5088  1.7543  1.5067
 5428TIP3   OH216216   5.782   6.039   4.133 -0.3647  0.1336  0.2270
 5428TIP3    H116217   5.861   5.989   4.152 -0.1752  0.0869 -0.6531
 5428TIP3    H216218   5.724   5.976   4.090  0.5335  1.0765 -2.4728
 5429TIP3   OH216219   3.915   4.256   6.825 -0.0742  0.1802 -0.1122
 5429TIP3    H116220   3.858   4.325   6.791  2.1575  2.1012 -0.0560
 5429TIP3    H216221   3.943   4.207   6.747 -0.2251  0.4706 -0.3489
 5430TIP3   OH216222   4.529   7.774   1.424 -0.0215  0.2284 -0.4887
 5430TIP3    H116223   4.525   7.679   1.428  1.3969  0.1806 -0.1452
 5430TIP3    H216224   4.599   7.793   1.361 -0.7611  1.0460 -1.0865
 5431TIP3   OH216225   6.263   6.280   2.547 -0.1232 -0.4562  0.2372
 5431TIP3    H116226   6.178   6.277   2.590  0.3174 -0.5934  1.1147
 5431TIP3    H216227   6.303   6.195   2.568  0.8662  0.2280  1.1495
 5432TIP3   OH216228   7.055   0.227   2.189 -0.3242  0.5649 -0.4733
 5432TIP3    H116229   6.976   0.280   2.180 -0.7780  0.2539  1.2938
 5432TIP3    H216230   7.081   0.240   2.281  0.9195 -0.3707 -0.6875
 5433TIP3   OH216231   1.714   4.058   6.545  0.1337 -0.1548 -0.5475
 5433TIP3    H116232   1.699   4.137   6.597  0.6203  0.7564 -1.7747
 5433TIP3    H216233   1.808   4.058   6.528 -0.1078 -0.1335 -1.9176
 5434TIP3   OH216234   6.471   6.772   2.675 -0.1085  0.1663 -0.1167
 5434TIP3    H116235   6.551   6.820   2.697  0.9496 -0.9777 -1.3311
 5434TIP3    H216236   6.502   6.684   2.652 -1.5685  0.1331 -2.0459
 5435TIP3   OH216237   6.933   7.546   3.300 -0.1747 -0.0232 -0.2269
 5435TIP3    H116238   6.885   7.469   3.270 -0.6388  0.3945 -0.5714
 5435TIP3    H216239   6.896   7.618   3.250  1.1954  0.2275 -0.8883
 5436TIP3   OH216240   6.482   0.238   0.493 -0.5538 -0.2607 -1.0447
 5436TIP3    H116241   6.471   0.332   0.479 -1.2939 -0.2414 -0.4124
 5436TIP3    H216242   6.502   0.202   0.406  1.4395  0.6994 -0.9999
 5437TIP3   OH216243   7.329   0.281   1.719  0.8649 -0.3095  0.3298
 5437TIP3    H116244   7.244   0.246   1.692 -0.2714  1.7024  1.2153
 5437TIP3    H216245   7.383   0.273   1.641 -0.2466 -1.2179 -0.3789
 5438TIP3   OH216246   6.122   7.704   1.882 -0.3830 -0.2627 -0.0332
 5438TIP3    H116247   6.161   7.763   1.946 -0.3521  0.3610 -0.6261
 5438TIP3    H216248   6.028   7.709   1.898 -0.3563 -0.3131  0.1401
 5439TIP3   OH216249   6.926   0.804   1.664 -0.2857  0.1562 -0.4964
 5439TIP3    H116250   6.842   0.799   1.618 -0.3019 -1.1688 -0.3593
 5439TIP3    H216251   6.904   0.786   1.755  0.1524 -0.3034 -0.4784
 5440TIP3   OH216252   4.717   0.256   1.553  0.2976  0.3538  0.2830
 5440TIP3    H116253   4.713   0.334   1.610  0.0867  0.7168 -0.2269
 5440TIP3    H216254   4.634   0.212   1.568 -0.6091  1.4964 -1.2174
 5441TIP3   OH216255   7.171   7.428   3.321  0.2720  0.0968  0.2175
 5441TIP3    H116256   7.168   7.412   3.416  0.9011  2.3387  0.6534
 5441TIP3    H216257   7.094   7.483   3.304  0.2901 -0.1067 -0.5377
 5442TIP3   OH216258   6.956   7.305   1.407 -0.2565  0.1029 -0.1381
 5442TIP3    H116259   6.968   7.239   1.474  0.4811 -0.1946 -0.5630
 5442TIP3    H216260   6.864   7.297   1.381 -0.2617 -0.5108  0.0680
 5443TIP3   OH216261   3.208   2.734   5.860 -0.3782  0.5784  0.0199
 5443TIP3    H116262   3.230   2.753   5.951  0.6573 -0.7623  0.0659
 5443TIP3    H216263   3.132   2.677   5.866  1.9586 -2.6845  0.2428
 5444TIP3   OH216264   2.882   1.414   2.844 -0.2348 -0.0774 -0.5506
 5444TIP3    H116265   2.837   1.417   2.929  1.5491 -0.8139  0.4579
 5444TIP3    H216266   2.922   1.500   2.835 -0.1223 -0.1225 -0.4785
 5445TIP3   OH216267   7.166   1.421   0.758  0.2377 -0.6191  0.3220
 5445TIP3    H116268   7.172   1.514   0.782 -1.4520 -0.3518 -0.2822
 5445TIP3    H216269   7.080   1.393   0.788  0.5611 -1.8989  0.1107
 5446TIP3   OH216270   5.808   7.065   0.261 -0.1024 -0.5113 -0.0790
 5446TIP3    H116271   5.774   7.098   0.178 -2.3099  1.1901  1.4070
 5446TIP3    H216272   5.903   7.071   0.253 -0.3337  2.6382 -1.3434
 5447TIP3   OH216273   5.148   7.419   2.270  0.1170 -0.1803 -0.6554
 5447TIP3    H116274   5.078   7.395   2.331  0.4377  1.3567  0.3464
 5447TIP3    H216275   5.217   7.355   2.286  0.0404 -0.0233  0.3213
 5448TIP3   OH216276   7.794   7.265   1.584 -0.4828 -0.0584  0.0335
 5448TIP3    H116277   7.806   7.181   1.627 -1.7138  0.1449  0.8016
 5448TIP3    H216278   7.812   7.330   1.652 -0.6973  0.2927 -0.2407
 5449TIP3   OH216279   5.720   5.958   0.205 -0.2400 -0.6669 -0.2553
 5449TIP3    H116280   5.670   6.010   0.143 -0.7399 -3.2611 -2.0929
 5449TIP3    H216281   5.654   5.917   0.261  0.0792 -0.3359  0.3692
 5450TIP3   OH216282   7.729   0.367   0.187  0.0742  0.1549 -0.4422
 5450TIP3    H116283   7.773   0.347   0.270 -0.8991  1.0851  0.3009
 5450TIP3    H216284   7.762   0.300   0.126  1.0816 -0.3023  0.5842
 5451TIP3   OH216285   7.886  -0.008   1.190  0.2176 -0.2955  0.1768
 5451TIP3    H116286   7.934  -0.043   1.115 -0.2013 -0.3124 -0.0863
 5451TIP3    H216287   7.945   0.057   1.228  1.3800 -1.9301  1.2336
 5452TIP3   OH216288   2.581   6.209   0.276  0.3375 -1.1256  0.1505
 5452TIP3    H116289   2.612   6.162   0.353 -1.8637 -2.5959  0.1994
 5452TIP3    H216290   2.585   6.145   0.205 -1.9972 -1.2365  0.0592
 5453TIP3   OH216291   3.365   7.771   1.849 -0.5703 -0.7174 -0.5525
 5453TIP3    H116292   3.402   7.762   1.936  0.2216  3.0304 -0.4166
 5453TIP3    H216293   3.294   7.707   1.846 -0.7216 -0.7806  2.8850
 5454TIP3   OH216294   6.562   0.813   1.210  0.3501 -0.1433  0.4010
 5454TIP3    H116295   6.567   0.733   1.263  2.1660 -0.5400 -0.3182
 5454TIP3    H216296   6.649   0.852   1.219 -0.1163  1.0636 -0.3253
 5455TIP3   OH216297   3.862   7.103   1.478 -0.1059 -0.2259  0.2169
 5455TIP3    H116298   3.856   7.064   1.566 -0.8495 -1.3606 -0.3247
 5455TIP3    H216299   3.932   7.055   1.435 -0.1966 -0.1331 -0.0351
 5456TIP3   OH216300   3.829   7.307   2.735  0.3786 -0.2987  0.1237
 5456TIP3    H116301   3.854   7.397   2.753 -0.8456 -0.2668  1.8217
 5456TIP3    H216302   3.756   7.314   2.673  1.1395 -0.1881 -0.7677
 5457TIP3   OH216303   6.535   1.360   2.516  0.3554 -0.5650  0.3302
 5457TIP3    H116304   6.565   1.401   2.435  1.0252  0.2343  0.9652
 5457TIP3    H216305   6.612   1.362   2.573 -0.1394 -1.0168  1.0222
 5458TIP3   OH216306   6.653   0.120   0.991 -0.4214 -0.3480 -0.1367
 5458TIP3    H116307   6.742   0.136   1.022  0.4479 -0.6852 -2.3383
 5458TIP3    H216308   6.598   0.182   1.039  1.4814  2.2903 -1.2440
 5459TIP3   OH216309   6.048   6.396   2.781 -0.0855 -0.6310  0.0260
 5459TIP3    H116310   6.044   6.468   2.719  2.3363  0.4285  1.0079
 5459TIP3    H216311   5.967   6.403   2.832  0.3504  1.7552  0.4587
 5460TIP3   OH216312   6.273   0.834   1.613  0.6123 -0.1892  0.3821
 5460TIP3    H116313   6.207   0.790   1.665  1.0181 -3.0355 -1.4046
 5460TIP3    H216314   6.281   0.780   1.534  3.0556  1.6329 -0.6722
 5461TIP3   OH216315   0.636   3.866   6.300 -0.2283  0.2917 -0.9216
 5461TIP3    H116316   0.727   3.882   6.325  0.6302 -1.9640 -2.4143
 5461TIP3    H216317   0.614   3.937   6.240  0.3542  1.1876 -0.0751
 5462TIP3   OH216318   7.263   6.704   2.391 -0.8703 -0.2990  0.5961
 5462TIP3    H116319   7.297   6.617   2.374 -1.3522 -0.3951  0.0898
 5462TIP3    H216320   7.302   6.730   2.475  0.1382 -0.5453  0.2015
 5463TIP3   OH216321   6.365   7.442   0.747  0.0465  0.4842 -0.2672
 5463TIP3    H116322   6.446   7.455   0.699 -0.2430 -1.2448 -1.2808
 5463TIP3    H216323   6.377   7.358   0.792 -0.6557  0.8688  0.6503
 5464TIP3   OH216324   0.446   0.325   2.195  0.4735  0.3030  0.0063
 5464TIP3    H116325   0.406   0.377   2.265 -0.7428  0.7014 -0.9725
 5464TIP3    H216326   0.538   0.319   2.220 -0.0603 -0.1190  1.9792
 5465TIP3   OH216327   8.430   1.066   2.693 -0.2893  0.4757 -0.2361
 5465TIP3    H116328   8.406   1.114   2.613  0.8804  2.0749  0.3427
 5465TIP3    H216329   8.526   1.062   2.690 -0.3236 -1.0272  0.2117
 5466TIP3   OH216330   2.556   7.441   0.911  0.6950 -0.2415 -0.0433
 5466TIP3    H116331   2.478   7.438   0.967  2.2694 -4.4372  2.1698
 5466TIP3    H216332   2.596   7.525   0.930 -1.3677  0.4293  1.5247
 5467TIP3   OH216333   7.227   1.734   2.534 -0.1517 -0.1095  0.0137
 5467TIP3    H116334   7.141   1.692   2.544  0.1503 -0.4074  1.3969
 5467TIP3    H216335   7.207   1.827   2.520 -0.7497 -0.4021 -1.1138
 5468TIP3   OH216336   4.248   6.849   3.609 -0.0924  0.5815  0.0580
 5468TIP3    H116337   4.306   6.846   3.533 -0.3589 -1.4720 -0.0821
 5468TIP3    H216338   4.161   6.866   3.571 -0.4634 -1.8904 -0.2578
 5469TIP3   OH216339   8.467   0.532   3.219  0.0572  0.5278  0.0603
 5469TIP3    H116340   8.462   0.561   3.310 -0.3494  2.6638 -0.5991
 5469TIP3    H216341   8.535   0.588   3.180  1.0492 -1.1588 -0.6835
 5470TIP3   OH216342   7.334   6.818   1.505 -0.4702 -0.1439 -0.4510
 5470TIP3    H116343   7.324   6.882   1.575 -0.9990  0.3063 -0.9281
 5470TIP3    H216344   7.361   6.737   1.549 -1.5642 -0.0795  0.3472
 5471TIP3   OH216345   2.725   3.729   6.631 -0.1663 -0.5430 -0.1111
 5471TIP3    H116346   2.674   3.668   6.578 -0.7385 -0.0574 -0.1382
 5471TIP3    H216347   2.692   3.815   6.605  0.6387 -0.2307 -0.0839
 5472TIP3   OH216348   6.913   0.566   2.389 -0.6366 -0.2153  0.5971
 5472TIP3    H116349   6.902   0.482   2.346  0.0857 -0.5813  1.1109
 5472TIP3    H216350   6.927   0.544   2.481  2.3100  0.2815  0.3250
 5473TIP3   OH216351   6.205   7.035   1.292  0.8300  0.5191 -0.4900
 5473TIP3    H116352   6.260   7.096   1.242  0.1349  0.3032 -1.5384
 5473TIP3    H216353   6.141   7.003   1.228  1.3997 -1.5824 -0.0483
 5474TIP3   OH216354   7.633   0.133   5.103 -0.0200  0.0421  0.6143
 5474TIP3    H116355   7.640   0.146   5.009  0.6023  0.6331  0.7332
 5474TIP3    H216356   7.586   0.210   5.135 -2.0765 -1.1577  0.5384
 5475TIP3   OH216357   6.220   2.022   0.516  0.4129 -0.0735  0.2585
 5475TIP3    H116358   6.134   2.038   0.554  0.1212 -0.0654 -0.4010
 5475TIP3    H216359   6.235   1.928   0.530  0.0883 -0.1709 -0.0684
 5476TIP3   OH216360   7.115   0.941   2.333  0.4198 -0.2153 -0.0348
 5476TIP3    H116361   7.193   0.888   2.348 -0.0389 -0.1985  2.5919
 5476TIP3    H216362   7.149   1.026   2.303  1.4971  0.2410  2.3923
 5477TIP3   OH216363   4.124   6.032   0.456  0.0013  0.2326  0.1536
 5477TIP3    H116364   4.153   6.043   0.366  1.8305 -1.6628  0.4722
 5477TIP3    H216365   4.174   6.098   0.505 -2.5219  2.6834 -0.4559
 5478TIP3   OH216366   0.616   3.917   6.803  0.2768  0.3382  0.7121
 5478TIP3    H116367   0.684   3.970   6.846  1.7976 -0.8261 -0.2098
 5478TIP3    H216368   0.600   3.963   6.720  0.5590  0.1363  0.5464
 5479TIP3   OH216369   7.934   0.361   2.596  0.0122 -0.0217 -0.3298
 5479TIP3    H116370   7.988   0.435   2.622 -1.5893  0.4430  1.8293
 5479TIP3    H216371   7.989   0.284   2.614  0.4528  0.5049  0.6121
 5480TIP3   OH216372   4.817   7.540   0.071 -0.0547  0.3620 -0.8188
 5480TIP3    H116373   4.902   7.506   0.098 -0.4988 -0.5561 -0.5584
 5480TIP3    H216374   4.774   7.564   0.153  0.4741  2.1084 -1.0303
 5481TIP3   OH216375   5.731   7.304   2.083  0.0368  0.1485 -0.4286
 5481TIP3    H116376   5.736   7.224   2.030 -0.5593  0.5809 -1.1344
 5481TIP3    H216377   5.686   7.367   2.028 -1.8242  0.1903  1.0718
 5482TIP3   OH216378   7.077   0.752   0.951  0.3740 -0.0389  0.0576
 5482TIP3    H116379   7.090   0.771   0.858  1.3155 -2.2989 -0.2919
 5482TIP3    H216380   6.989   0.714   0.955  0.7565 -0.9328 -0.0583
 5483TIP3   OH216381   5.656   6.970   1.488  0.4224  0.3469 -0.1873
 5483TIP3    H116382   5.577   7.019   1.463  0.2318  0.0712 -0.1273
 5483TIP3    H216383   5.728   7.031   1.471  0.0524  1.3021  1.5629
 5484TIP3   OH216384   6.061   5.220   0.403 -0.1053 -0.0508  0.4397
 5484TIP3    H116385   6.146   5.252   0.432 -0.5522  0.5488  1.1297
 5484TIP3    H216386   6.080   5.157   0.334  0.9018 -0.0673  0.7345
 5485TIP3   OH216387   7.591   0.306   1.931  0.1661 -0.2424 -0.0965
 5485TIP3    H116388   7.592   0.402   1.932 -0.4900 -0.2231 -1.4044
 5485TIP3    H216389   7.595   0.282   2.024  0.5412  1.0453  0.2346
 5486TIP3   OH216390   4.418   4.554   0.413  0.0594  0.5145  0.1703
 5486TIP3    H116391   4.423   4.593   0.500 -2.0893  1.1459  0.0415
 5486TIP3    H216392   4.379   4.468   0.427  2.7293 -0.7493  0.1807
 5487TIP3   OH216393   7.658   1.284   3.045  0.5251 -0.5837 -0.0398
 5487TIP3    H116394   7.599   1.253   2.976 -0.9911 -0.7303  1.2925
 5487TIP3    H216395   7.605   1.345   3.097  1.5074 -0.8139  1.2651
 5488TIP3   OH216396   5.973   6.772   2.788  0.2107  0.4046  0.2822
 5488TIP3    H116397   5.896   6.821   2.758 -1.0934 -1.4180  0.5638
 5488TIP3    H216398   6.019   6.749   2.708  0.8496  2.0784  0.1465
 5489TIP3   OH216399   0.037   1.619   0.941  0.8983 -0.4358  0.0207
 5489TIP3    H116400   0.104   1.562   0.978 -0.8041 -1.5105  1.5325
 5489TIP3    H216401   0.074   1.707   0.945  1.7070 -0.8519  2.0072
 5490TIP3   OH216402   5.468   6.773   1.468 -0.3628 -0.2222 -0.2111
 5490TIP3    H116403   5.539   6.836   1.477  1.9347 -2.3547 -2.5976
 5490TIP3    H216404   5.433   6.788   1.380 -2.2126  0.0873  0.5415
 5491TIP3   OH216405   6.979   7.639   0.056  0.1810 -0.3901 -0.1246
 5491TIP3    H116406   6.995   7.716   0.001  0.9698  0.5306  1.3539
 5491TIP3    H216407   6.995   7.670   0.145 -1.6880 -1.6807  0.6986
 5492TIP3   OH216408   7.822   0.359   3.982 -0.2509 -0.3100 -0.4785
 5492TIP3    H116409   7.729   0.355   4.005 -0.4045  0.9162 -0.8977
 5492TIP3    H216410   7.866   0.312   4.054 -0.9014  1.8040  1.3461
 5493TIP3   OH216411   7.767   0.377   3.576  0.2938  0.5183  0.1239
 5493TIP3    H116412   7.716   0.358   3.497  2.1544 -1.8529 -0.5739
 5493TIP3    H216413   7.709   0.352   3.648  0.0613 -1.1629 -0.6204
 5494TIP3   OH216414   4.568   5.530   3.208 -0.2342 -0.0108 -0.1415
 5494TIP3    H116415   4.567   5.437   3.232 -1.2294 -0.4125 -1.6282
 5494TIP3    H216416   4.660   5.549   3.190 -0.0106 -0.7018  0.2555
 5495TIP3   OH216417   5.456   6.379   1.711  0.2839  0.2587  0.4864
 5495TIP3    H116418   5.469   6.297   1.662  1.6730  1.0419 -0.4994
 5495TIP3    H216419   5.495   6.362   1.796  3.3467  0.8708 -0.7304
 5496TIP3   OH216420   4.759   7.803   1.886 -0.1269 -0.0761 -0.3209
 5496TIP3    H116421   4.735   7.894   1.906 -0.9498 -0.0331 -1.4772
 5496TIP3    H216422   4.767   7.800   1.791  1.0521 -0.9424 -0.2009
 5497TIP3   OH216423   6.245   7.599   4.210  0.7230  0.0426 -0.7271
 5497TIP3    H116424   6.157   7.596   4.172  0.6560 -3.5203 -0.3921
 5497TIP3    H216425   6.293   7.661   4.154 -0.8612 -1.0251 -3.3502
 5498TIP3   OH216426   7.310   7.695   3.008  0.3109  0.1339  0.4739
 5498TIP3    H116427   7.251   7.728   3.077 -1.5396  0.0326 -1.0090
 5498TIP3    H216428   7.251   7.668   2.937  2.1066 -1.0826 -0.5964
 5499TIP3   OH216429   5.674   6.292   4.287  0.4710  0.1825  0.7196
 5499TIP3    H116430   5.767   6.308   4.302  0.3081  0.9570  0.8957
 5499TIP3    H216431   5.672   6.237   4.208  1.0090  1.3681 -0.1418
 5500TIP3   OH216432   0.572   6.418   0.871  0.3732  0.2239  0.5191
 5500TIP3    H116433   0.596   6.354   0.939 -0.1144  1.3455  1.7710
 5500TIP3    H216434   0.571   6.502   0.917  0.8673  1.1136 -1.0893
 5501TIP3   OH216435   3.959   7.561   2.834 -0.5259  0.7196 -0.2237
 5501TIP3    H116436   3.886   7.576   2.774 -0.7825  0.9539  0.1440
 5501TIP3    H216437   4.002   7.646   2.841 -0.1589  0.5611 -0.5104
 5502TIP3   OH216438   4.691   7.492   2.143 -0.6854 -0.0228 -0.1739
 5502TIP3    H116439   4.620   7.467   2.084  0.1391  0.7359 -1.5334
 5502TIP3    H216440   4.680   7.587   2.156 -0.0368  0.0747 -0.2761
 5503TIP3   OH216441   0.059   0.207   2.738  0.7733  0.3454 -0.2574
 5503TIP3    H116442   0.028   0.126   2.698  0.4627  0.1767  0.3149
 5503TIP3    H216443   0.140   0.227   2.691  1.1534 -0.6101 -0.0274
 5504TIP3   OH216444   5.649   7.065   2.431 -0.3812  0.0219  0.3801
 5504TIP3    H116445   5.568   7.035   2.473  0.3020 -2.1430  0.2360
 5504TIP3    H216446   5.700   6.985   2.420  0.8828  1.0653 -1.4945
 5505TIP3   OH216447   5.499   7.034   3.127  0.2121  0.4746  0.6606
 5505TIP3    H116448   5.559   7.079   3.068 -0.7277  1.6578  0.5687
 5505TIP3    H216449   5.527   7.060   3.215  0.5055  0.1620  0.6570
 5506TIP3   OH216450   5.180   6.671   1.285  0.1572 -0.6928 -0.3620
 5506TIP3    H116451   5.195   6.611   1.211  0.1052 -1.6212  0.3696
 5506TIP3    H216452   5.172   6.613   1.361  2.3649  0.3697  0.7319
 5507TIP3   OH216453   7.908   0.663   1.917  0.0818 -0.0704 -0.4096
 5507TIP3    H116454   7.846   0.639   1.849 -1.3743  1.6034  0.3006
 5507TIP3    H216455   7.857   0.663   1.998  1.1141  0.8449  0.2638
 5508TIP3   OH216456   5.261   7.694   3.340 -1.0634  0.6255  0.5856
 5508TIP3    H116457   5.305   7.720   3.421 -2.4233  0.5924  1.3530
 5508TIP3    H216458   5.258   7.774   3.287 -0.1376  0.6362  0.5455
 5509TIP3   OH216459   0.484   0.742   3.468  0.0788  0.5085  1.0329
 5509TIP3    H116460   0.559   0.783   3.424  0.1617  0.4205  1.0907
 5509TIP3    H216461   0.477   0.789   3.551 -0.3789  0.9944  0.7157
 5510TIP3   OH216462   8.360   0.812   0.264 -0.0352  0.1003 -0.2194
 5510TIP3    H116463   8.359   0.865   0.344 -3.5566  1.1314 -0.8468
 5510TIP3    H216464   8.355   0.721   0.296  2.0856  0.3038  0.7691
 5511TIP3   OH216465   3.112   7.480   2.581  0.0323  0.5397  0.4593
 5511TIP3    H116466   3.142   7.571   2.585  0.1961  0.5080 -0.0745
 5511TIP3    H216467   3.187   7.431   2.547  0.6720 -0.1271  2.7427
 5512TIP3   OH216468   6.963   7.181   4.240 -0.4891 -0.3585  0.4708
 5512TIP3    H116469   7.050   7.144   4.227  0.0952  0.7087  1.2977
 5512TIP3    H216470   6.962   7.259   4.184 -1.1535 -0.7273 -0.0429
 5513TIP3   OH216471   7.418   1.907   3.681  0.8159  0.4578 -0.5291
 5513TIP3    H116472   7.403   1.978   3.618 -0.3078 -0.2132 -1.0181
 5513TIP3    H216473   7.365   1.834   3.649  1.8461 -0.5626  0.0565
 5514TIP3   OH216474   8.060   0.042   2.367  0.6230 -0.1493  0.2516
 5514TIP3    H116475   8.023   0.093   2.439 -0.4145  0.8971 -0.9937
 5514TIP3    H216476   8.154   0.053   2.376  0.7132 -2.4848  3.2092
 5515TIP3   OH216477   7.763   7.855   1.945 -0.0109 -0.1285 -0.4387
 5515TIP3    H116478   7.857   7.835   1.949 -0.1414 -0.7901 -0.5576
 5515TIP3    H216479   7.744   7.857   1.852 -0.4597 -1.6957 -0.3961
 5516TIP3   OH216480   0.763   0.558   4.354  0.1010  0.1064  0.1904
 5516TIP3    H116481   0.723   0.569   4.268 -2.0239 -0.1190  1.0999
 5516TIP3    H216482   0.856   0.572   4.340 -0.0653 -1.1084 -2.3702
 5517TIP3   OH216483   5.268   7.421   3.501  0.1998 -0.4210 -0.4841
 5517TIP3    H116484   5.207   7.353   3.470 -0.2295  0.3101 -1.2745
 5517TIP3    H216485   5.212   7.483   3.549  0.5790 -0.5763  0.1680
 5518TIP3   OH216486   6.171   6.572   1.948  0.5013  0.7098 -0.3242
 5518TIP3    H116487   6.159   6.502   1.884 -2.2459  0.0602  0.8195
 5518TIP3    H216488   6.142   6.651   1.902  1.9437  0.8313 -1.0395
 5519TIP3   OH216489   4.229   7.802   0.445  0.3344 -0.1811  0.1466
 5519TIP3    H116490   4.136   7.785   0.461  0.1906  0.0899 -0.4047
 5519TIP3    H216491   4.231   7.890   0.407  0.7286 -0.5904 -0.7857
 5520TIP3   OH216492   6.951   2.508   2.591 -0.1981  0.3786 -0.2815
 5520TIP3    H116493   6.991   2.512   2.678  1.1477 -2.0188 -0.7564
 5520TIP3    H216494   7.022   2.527   2.530 -0.4195 -1.0382 -0.9957
 5521TIP3   OH216495   1.664   6.462   1.885  0.4170 -0.1586 -0.7381
 5521TIP3    H116496   1.655   6.375   1.848  0.5433 -0.1303 -0.8347
 5521TIP3    H216497   1.694   6.447   1.975 -1.1481 -0.2765 -0.2203
 5522TIP3   OH216498   7.032   6.360   3.565 -0.4978 -0.1556  0.0855
 5522TIP3    H116499   6.963   6.313   3.518  0.3383 -0.4213 -0.8999
 5522TIP3    H216500   7.076   6.411   3.497 -0.1976  0.5848  0.8395
 5523TIP3   OH216501   6.408   0.759   2.810  0.4113 -0.9050  0.2566
 5523TIP3    H116502   6.315   0.764   2.790  0.7967 -1.4186 -1.7387
 5523TIP3    H216503   6.432   0.848   2.834  0.0282 -0.1194 -2.1449
 5524TIP3   OH216504   5.415   7.641   2.722 -0.4084  0.2897  0.1890
 5524TIP3    H116505   5.456   7.618   2.638 -0.6227  2.0185 -0.4110
 5524TIP3    H216506   5.479   7.615   2.788  0.7659  1.0644 -0.6333
 5525TIP3   OH216507   4.485   6.740   1.747 -0.7184  0.1349 -0.0485
 5525TIP3    H116508   4.528   6.657   1.725  0.1297  0.4457  0.4113
 5525TIP3    H216509   4.557   6.799   1.770 -1.4411  0.4659  1.3887
 5526TIP3   OH216510   0.360   0.270   1.616 -0.3051  0.2408 -0.2940
 5526TIP3    H116511   0.412   0.350   1.630 -0.1529 -0.0172  0.6652
 5526TIP3    H216512   0.320   0.253   1.701 -0.5867 -0.5345 -0.5802
 5527TIP3   OH216513   7.096   7.530   1.972 -0.3418  0.1868  0.3727
 5527TIP3    H116514   7.157   7.572   2.034 -0.0798 -1.0317  0.9509
 5527TIP3    H216515   7.024   7.498   2.028  0.7138 -2.4376  0.3047
 5528TIP3   OH216516   4.735   6.984   3.435  0.3927  0.0851  0.0815
 5528TIP3    H116517   4.707   6.986   3.527 -0.8260 -0.0251 -0.2784
 5528TIP3    H216518   4.753   6.892   3.418  2.2106  0.3143  0.6670
 5529TIP3   OH216519   3.790   7.290   2.206  0.0177 -0.3366  0.1808
 5529TIP3    H116520   3.834   7.271   2.123 -1.0243 -0.2327 -0.4159
 5529TIP3    H216521   3.702   7.252   2.196  0.6532 -2.4426  2.1778
 5530TIP3   OH216522   6.789   0.324   0.700 -0.1605  0.0829 -0.1697
 5530TIP3    H116523   6.741   0.390   0.750 -2.1398 -2.1380  0.9215
 5530TIP3    H216524   6.791   0.360   0.611 -2.1701  1.1231  0.1690
 5531TIP3   OH216525   3.272   1.131   6.804  0.1038 -0.2032 -0.4691
 5531TIP3    H116526   3.200   1.165   6.752  0.7694 -0.4737 -1.5681
 5531TIP3    H216527   3.344   1.192   6.790  1.1820 -1.8125 -2.1481
 5532TIP3   OH216528   3.553   7.388   1.511  0.2000  0.2047 -0.4131
 5532TIP3    H116529   3.608   7.364   1.585 -2.0393  1.0115  1.5622
 5532TIP3    H216530   3.560   7.314   1.451  2.4838 -0.2049  0.3105
 5533TIP3   OH216531   5.206   7.109   2.102  0.2873  0.5916 -0.0053
 5533TIP3    H116532   5.152   7.140   2.174  0.1186 -1.2338  0.6960
 5533TIP3    H216533   5.296   7.129   2.128  0.1758  0.5594  0.4088
 5534TIP3   OH216534   8.360   4.934   6.427  0.4380  0.3465  0.1512
 5534TIP3    H116535   8.364   4.970   6.516  1.3211  0.3072  0.1351
 5534TIP3    H216536   8.432   4.978   6.381 -0.2895  0.6972 -0.6677
 5535TIP3   OH216537   6.648   6.056   0.119  0.1648 -0.3068 -0.9061
 5535TIP3    H116538   6.693   6.087   0.040  0.2834  0.7333 -0.4393
 5535TIP3    H216539   6.601   5.978   0.091 -2.1686  1.6723 -2.7371
 5536TIP3   OH216540   4.061   7.598   1.612  0.2482 -0.1581  0.1710
 5536TIP3    H116541   3.989   7.610   1.674  0.0263  0.2826 -0.1756
 5536TIP3    H216542   4.039   7.517   1.565  0.3348 -0.4042  0.5461
 5537TIP3   OH216543   3.114   5.253   0.767  0.1479 -0.2155  0.2918
 5537TIP3    H116544   3.134   5.327   0.710 -2.0837 -1.1523 -1.7948
 5537TIP3    H216545   3.042   5.284   0.822  0.9499  0.0057  1.2324
 5538TIP3   OH216546   6.748   7.862   2.790  0.1566 -0.2031  0.7068
 5538TIP3    H116547   6.695   7.837   2.866  0.9607  0.5970  1.5499
 5538TIP3    H216548   6.714   7.947   2.764  0.0570 -0.3568  0.3280
 5539TIP3   OH216549   7.078   6.767   1.842 -0.0831  0.0943  0.4277
 5539TIP3    H116550   7.102   6.731   1.927  1.1380  0.3891  0.2192
 5539TIP3    H216551   7.161   6.790   1.801 -0.7702  1.9893  0.0421
 5540TIP3   OH216552   6.340   7.957   1.251  0.0765  0.4372 -0.0165
 5540TIP3    H116553   6.302   7.970   1.164 -2.9456  1.5362  1.3883
 5540TIP3    H216554   6.286   7.888   1.290  0.5338  0.9004  1.4686
 5541TIP3   OH216555   6.720   7.737   1.548  0.2659 -0.0141  1.0264
 5541TIP3    H116556   6.686   7.759   1.635  0.1175 -0.1974  1.0151
 5541TIP3    H216557   6.642   7.725   1.494  0.3407 -0.7720  1.0795
 5542TIP3   OH216558   6.659   6.931   2.082 -0.4742  0.2853 -0.7340
 5542TIP3    H116559   6.709   6.909   2.003  0.3472  2.4010 -0.8420
 5542TIP3    H216560   6.719   6.985   2.134 -1.5275  0.1586  0.6410
 5543TIP3   OH216561   1.299   0.064   0.233 -0.6773  0.3055  0.2283
 5543TIP3    H116562   1.296   0.119   0.311  1.2799  0.5866  0.1139
 5543TIP3    H216563   1.392   0.045   0.220 -1.0042  0.0925 -1.9167
 5544TIP3   OH216564   6.747   7.202   3.804 -0.1812  0.0464  0.2991
 5544TIP3    H116565   6.654   7.180   3.805  0.0378 -0.8830  0.5818
 5544TIP3    H216566   6.749   7.297   3.799 -1.1466 -0.0175 -2.3495
 5545TIP3   OH216567   0.577   0.418   2.669  0.2438  0.1328 -0.1495
 5545TIP3    H116568   0.603   0.445   2.757  1.2917  1.2384 -0.7894
 5545TIP3    H216569   0.570   0.500   2.620 -2.3904 -0.2809 -0.5737
 5546TIP3   OH216570   7.894   6.952   0.791 -0.8185  0.1935  0.3866
 5546TIP3    H116571   7.829   6.893   0.829  0.4025 -1.6630 -0.3413
 5546TIP3    H216572   7.900   6.925   0.699 -0.4741  1.6789 -0.0429
 5547TIP3   OH216573   1.574   0.417   1.535 -0.4948 -0.1501  0.0490
 5547TIP3    H116574   1.592   0.342   1.591  0.0840 -0.1285 -0.1085
 5547TIP3    H216575   1.492   0.395   1.490  0.3646 -1.2529 -0.9861
 5548TIP3   OH216576   8.104   0.251   3.846 -0.0099  0.1825  0.1996
 5548TIP3    H116577   8.024   0.220   3.804  1.6967 -0.7782 -2.4853
 5548TIP3    H216578   8.086   0.342   3.870 -1.7448  0.1046 -0.7911
 5549TIP3   OH216579   1.753   0.217   3.056 -0.7585  0.0721 -0.0362
 5549TIP3    H116580   1.795   0.157   2.995  4.2718  1.2178  2.0662
 5549TIP3    H216581   1.741   0.298   3.006  0.9339  0.2022 -0.2336
 5550TIP3   OH216582   0.423   7.135   3.557 -0.0385  0.5677  1.0138
 5550TIP3    H116583   0.339   7.107   3.522 -0.4452 -0.1923  2.5694
 5550TIP3    H216584   0.488   7.083   3.510 -0.6069 -0.7505  1.6768
 5551TIP3   OH216585   1.997   1.000   1.114 -0.0929 -0.8540  0.4000
 5551TIP3    H116586   2.027   0.971   1.200  1.5715 -0.3112  0.0261
 5551TIP3    H216587   2.064   0.967   1.053 -0.5042 -0.0091 -0.5265
 5552TIP3   OH216588   6.567   6.169   6.376 -0.7478  0.3259 -0.0640
 5552TIP3    H116589   6.613   6.250   6.353  1.2124 -0.5218  0.7858
 5552TIP3    H216590   6.568   6.117   6.295  1.4374 -0.4420  0.4285
 5553TIP3   OH216591   6.777   7.869   3.442  0.4015  0.0091 -0.0200
 5553TIP3    H116592   6.698   7.908   3.479 -0.4773 -0.3277 -1.4876
 5553TIP3    H216593   6.758   7.861   3.348  1.9027 -0.7347 -0.2781
 5554TIP3   OH216594   7.515   2.926   3.177 -0.1662  0.0589  0.3676
 5554TIP3    H116595   7.609   2.916   3.166 -0.3562 -1.5630  0.0954
 5554TIP3    H216596   7.504   3.013   3.215  1.2585  1.2391 -1.8271
 5555TIP3   OH216597   4.811   7.248   2.051 -0.4720  0.5246 -0.2052
 5555TIP3    H116598   4.861   7.212   2.125  0.3263 -0.1679 -1.0740
 5555TIP3    H216599   4.755   7.314   2.091 -0.6655 -0.4316  1.1600
 5556TIP3   OH216600   0.408   6.739   2.716 -0.0673  0.0215  0.2221
 5556TIP3    H116601   0.385   6.654   2.752 -1.1104  0.1255 -0.1776
 5556TIP3    H216602   0.502   6.733   2.698 -0.5732 -1.8799 -2.0180
 5557TIP3   OH216603   6.590   7.521   1.730  0.1612 -0.3814  0.9020
 5557TIP3    H116604   6.518   7.557   1.781  0.5718 -1.5918  2.3814
 5557TIP3    H216605   6.666   7.528   1.787  1.1167  0.4043 -0.4492
 5558TIP3   OH216606   0.290   1.579   3.786 -0.0647  0.4545  0.0264
 5558TIP3    H116607   0.300   1.623   3.871  2.0731  1.3562 -0.6346
 5558TIP3    H216608   0.301   1.486   3.806  0.5014  0.6640  0.7421
 5559TIP3   OH216609   7.643   6.468   0.646  0.1407  0.0334 -0.4862
 5559TIP3    H116610   7.604   6.382   0.659 -0.0613 -0.1310 -1.9924
 5559TIP3    H216611   7.737   6.454   0.660  0.2111 -0.6326 -1.5204
 5560TIP3   OH216612   1.522   0.110   1.736 -0.3548  0.3312 -0.4626
 5560TIP3    H116613   1.456   0.041   1.737 -0.1503  0.1245  1.4820
 5560TIP3    H216614   1.520   0.147   1.825  0.0442  2.3442 -1.2529
 5561TIP3   OH216615   6.351   7.779   1.649 -0.0144 -0.3361  0.0658
 5561TIP3    H116616   6.366   7.727   1.728  0.8649 -1.1545 -0.6287
 5561TIP3    H216617   6.362   7.717   1.577  2.3473  1.0564 -0.8396
 5562TIP3   OH216618   6.521   6.691   3.688 -0.0556 -0.0386  0.4136
 5562TIP3    H116619   6.474   6.617   3.649 -1.9090 -0.1771  2.8007
 5562TIP3    H216620   6.607   6.656   3.711 -0.1023 -0.8151 -0.5843
 5563TIP3   OH216621   7.791   1.058   3.113  0.1470 -0.4818  0.1015
 5563TIP3    H116622   7.744   1.132   3.076 -0.4124 -0.1065  1.5291
 5563TIP3    H216623   7.882   1.084   3.113 -0.0153  0.0844  0.3007
 5564TIP3   OH216624   6.049   7.445   2.437  0.1102  0.0106  0.2868
 5564TIP3    H116625   6.104   7.445   2.515 -0.6165  1.6703  0.8254
 5564TIP3    H216626   6.033   7.352   2.419 -0.0935 -0.3918  2.3852
 5565TIP3   OH216627   6.619   7.311   1.505  0.8946  0.4056 -0.1185
 5565TIP3    H116628   6.581   7.357   1.430 -0.6919 -0.9793 -0.1805
 5565TIP3    H216629   6.646   7.381   1.565  0.1145  1.4563 -0.9731
 5566TIP3   OH216630   0.405   0.208   2.951  0.1288  0.9643  0.1479
 5566TIP3    H116631   0.388   0.199   3.045 -0.1238 -0.0954  0.0132
 5566TIP3    H216632   0.335   0.264   2.919  1.0345  2.5184  0.8292
 5567TIP3   OH216633   6.760   6.198   1.500  0.2432 -0.4986  1.0487
 5567TIP3    H116634   6.719   6.257   1.563 -2.0631 -0.7904 -0.1339
 5567TIP3    H216635   6.842   6.241   1.476 -0.8360  1.6351  1.1127
 5568TIP3   OH216636   0.495   0.075   0.117  0.3511 -0.4708  1.0014
 5568TIP3    H116637   0.474   0.035   0.201 -0.5608  0.8893  1.4328
 5568TIP3    H216638   0.419   0.056   0.061  0.0069  0.4828  1.1468
 5569TIP3   OH216639   7.376   7.817   4.156 -0.1628  0.1485 -0.3944
 5569TIP3    H116640   7.439   7.762   4.111 -0.2995 -2.0155  1.9825
 5569TIP3    H216641   7.421   7.846   4.236 -1.6747 -0.3432  0.6642
 5570TIP3   OH216642   8.307   7.219   2.989 -0.2775 -0.2882  0.1970
 5570TIP3    H116643   8.336   7.211   3.079  1.1086  0.0696 -0.2006
 5570TIP3    H216644   8.270   7.133   2.968  0.6265 -0.7991  0.6801
 5571TIP3   OH216645  -0.033   0.041   6.548 -0.5517 -0.4092 -0.0900
 5571TIP3    H116646   0.044   0.073   6.500 -1.0399 -1.3404 -1.5044
 5571TIP3    H216647  -0.003  -0.041   6.588 -0.5446 -0.2971  0.1396
 5572TIP3   OH216648   6.818   6.225   5.801  0.2385  0.2774  0.1210
 5572TIP3    H116649   6.862   6.170   5.735 -0.4600  1.5207 -1.4244
 5572TIP3    H216650   6.889   6.256   5.857  0.6803 -1.9043  0.8238
 5573TIP3   OH216651   2.629   1.022   4.723  0.0404  0.1918  0.3470
 5573TIP3    H116652   2.579   0.970   4.786  1.4237 -1.7267 -0.0848
 5573TIP3    H216653   2.577   1.019   4.643 -0.1260 -0.0946  0.4660
 5574TIP3   OH216654   2.052   7.124   5.203 -0.5961  0.7013 -0.3747
 5574TIP3    H116655   2.050   7.114   5.108  1.6683  1.8994 -0.5888
 5574TIP3    H216656   2.096   7.208   5.218 -1.7653  0.9704  1.7118
 5575TIP3   OH216657   2.141   1.343   6.073  1.1033 -0.0485 -0.2393
 5575TIP3    H116658   2.131   1.301   6.159  0.9412 -0.9154 -0.6802
 5575TIP3    H216659   2.095   1.426   6.082  0.8112 -0.2755  0.4167
 5576TIP3   OH216660   0.875   0.038   5.197 -0.8914 -0.8752  0.1197
 5576TIP3    H116661   0.935   0.000   5.262  0.1468 -0.9481 -0.8705
 5576TIP3    H216662   0.862   0.128   5.226 -0.9428 -1.0924  0.7821
 5577TIP3   OH216663   2.142   7.973   5.252  0.1571  0.4857  0.0914
 5577TIP3    H116664   2.086   7.970   5.330  0.7988 -1.6174  0.5117
 5577TIP3    H216665   2.098   8.034   5.193 -1.6219  0.2668  1.1491
 5578TIP3   OH216666   5.391   5.275   0.423  0.2065 -0.1779  0.0635
 5578TIP3    H116667   5.475   5.229   0.418 -0.1672 -0.8160 -0.4560
 5578TIP3    H216668   5.386   5.306   0.514  1.6728  1.1728 -0.2923
 5579TIP3   OH216669   2.774   0.673   6.373 -0.4130  0.0366 -0.3520
 5579TIP3    H116670   2.838   0.698   6.307  1.0831 -1.3578  0.5617
 5579TIP3    H216671   2.701   0.734   6.359  1.3139  1.9994 -1.0322
 5580TIP3   OH216672   5.313   4.550   1.357 -0.8824  0.4291  0.4400
 5580TIP3    H116673   5.351   4.598   1.430 -0.9983  2.0671 -0.5456
 5580TIP3    H216674   5.219   4.565   1.365 -0.8770  0.8243 -0.1673
 5581TIP3   OH216675   0.408   3.216   3.893  0.2669  0.4955  0.0694
 5581TIP3    H116676   0.430   3.309   3.883 -0.1362  0.7934  1.7599
 5581TIP3    H216677   0.314   3.212   3.879 -0.0033  0.6338  1.7560
 5582TIP3   OH216678   0.416   2.070   5.843 -0.1268 -0.1466  0.1503
 5582TIP3    H116679   0.409   2.138   5.910  1.6934  0.3336 -0.1201
 5582TIP3    H216680   0.372   1.994   5.881 -1.5491  0.9494  0.7552
 5583TIP3   OH216681   0.439   3.832   4.036  0.4060 -0.5993  0.1655
 5583TIP3    H116682   0.527   3.800   4.016  0.9856  1.3648 -0.5233
 5583TIP3    H216683   0.395   3.836   3.951 -0.9171 -3.0977  0.6774
 5584TIP3   OH216684   5.440   7.089   0.515 -0.2714  0.0734  0.3815
 5584TIP3    H116685   5.436   7.053   0.604 -0.4629  0.7771  0.6587
 5584TIP3    H216686   5.360   7.141   0.507  1.4396  2.9103  1.0531
 5585TIP3   OH216687   2.883   4.829   0.523 -0.2816  0.2147 -0.2428
 5585TIP3    H116688   2.882   4.913   0.478 -1.3682  0.7229  0.6750
 5585TIP3    H216689   2.874   4.763   0.454 -1.6748  0.9635 -0.7881
 5586TIP3   OH216690   5.960   7.634   5.812 -0.4713 -0.0279  0.1231
 5586TIP3    H116691   5.943   7.629   5.717 -0.7332  0.2414  0.1532
 5586TIP3    H216692   5.971   7.543   5.839  0.1542 -0.0682 -0.2674
 5587TIP3   OH216693   2.629   0.867   3.772  0.0439 -0.2127 -0.0370
 5587TIP3    H116694   2.657   0.886   3.683  1.4869  1.3063  0.7213
 5587TIP3    H216695   2.649   0.774   3.784  0.8989 -0.1453 -0.9005
 5588TIP3   OH216696   1.211   0.496   3.099 -0.1357 -0.1727 -0.1934
 5588TIP3    H116697   1.243   0.549   3.025 -1.7553 -0.7237 -1.3069
 5588TIP3    H216698   1.290   0.455   3.134  0.8346  1.1392 -0.7898
 5589TIP3   OH216699   1.898   1.072   4.797 -0.4149  0.5207  0.1068
 5589TIP3    H116700   1.876   1.150   4.747  1.0359  0.2212 -1.0315
 5589TIP3    H216701   1.969   1.099   4.855  0.6591 -0.1626 -0.8851
 5590TIP3   OH216702   4.587   1.353   6.873  0.2272 -0.1766 -0.1590
 5590TIP3    H116703   4.620   1.443   6.868  0.1885 -0.2057 -0.9759
 5590TIP3    H216704   4.583   1.323   6.782  1.1067 -1.3192  0.1609
 5591TIP3   OH216705   4.658   6.318   0.524  0.3058 -0.3294 -0.0003
 5591TIP3    H116706   4.661   6.345   0.616 -0.0252 -2.0023  0.5256
 5591TIP3    H216707   4.584   6.258   0.519  0.2435 -0.1475 -1.3970
 5592TIP3   OH216708   0.648   0.807   3.703  0.0206  0.6165  0.3507
 5592TIP3    H116709   0.668   0.713   3.701  1.6648  0.8670  2.7968
 5592TIP3    H216710   0.714   0.846   3.645  1.4003  0.5599  1.8440
 5593TIP3   OH216711   7.029   7.116   3.915 -0.4467 -0.4968  0.4456
 5593TIP3    H116712   6.950   7.170   3.919 -0.5115 -0.5588  0.0021
 5593TIP3    H216713   7.090   7.166   3.861 -0.8429 -1.2894 -0.7524
 5594TIP3   OH216714   0.697   1.533   4.918  0.3541 -0.2785 -0.8501
 5594TIP3    H116715   0.664   1.610   4.872 -1.4545  0.3291  1.3901
 5594TIP3    H216716   0.787   1.556   4.942 -0.8663  2.0964  1.7457
 5595TIP3   OH216717   0.730   1.763   6.276  0.8593  0.2953  0.5595
 5595TIP3    H116718   0.818   1.735   6.302  1.2438  0.8961 -0.0537
 5595TIP3    H216719   0.741   1.856   6.253  0.2272  0.1565 -0.3117
 5596TIP3   OH216720   2.370   4.816   0.786  0.2341  0.2111  0.1784
 5596TIP3    H116721   2.454   4.785   0.751  0.0492 -0.4657  0.3111
 5596TIP3    H216722   2.393   4.861   0.867  0.4728  0.0367  0.2083
 5597TIP3   OH216723   2.594   2.374   3.057  0.0829 -0.3413  0.6660
 5597TIP3    H116724   2.605   2.404   3.147  0.4169 -0.5812  0.7033
 5597TIP3    H216725   2.683   2.359   3.025  0.0469  1.1244 -0.1725
 5598TIP3   OH216726   8.269   6.356   4.602 -0.6314  0.1249  0.4282
 5598TIP3    H116727   8.331   6.426   4.624  0.6406 -0.7064 -0.4441
 5598TIP3    H216728   8.258   6.363   4.508 -0.4701 -0.8805  0.3348
 5599TIP3   OH216729   5.129   5.150   1.165 -0.0752 -0.1886 -0.0528
 5599TIP3    H116730   5.207   5.201   1.141 -0.2914 -0.1074 -0.5847
 5599TIP3    H216731   5.156   5.101   1.243 -0.3723  1.9501  1.4234
 5600TIP3   OH216732   0.407   0.779   6.415  0.3868  0.0908  0.0247
 5600TIP3    H116733   0.442   0.691   6.408 -2.2643 -1.0153  0.0952
 5600TIP3    H216734   0.363   0.781   6.500  0.5279  1.5142  0.0797
 5601TIP3   OH216735   5.448   4.144   0.246  0.6777 -0.3305 -0.3440
 5601TIP3    H116736   5.386   4.072   0.232 -1.0538  1.5994 -3.2578
 5601TIP3    H216737   5.482   4.164   0.159  0.9531  2.4738  0.3457
 5602TIP3   OH216738   5.618   6.711   0.027 -0.3788  0.5367 -0.8437
 5602TIP3    H116739   5.673   6.734   0.102 -0.7904  0.5680 -0.5553
 5602TIP3    H216740   5.652   6.766  -0.044 -1.0506  1.6996 -0.2759
 5603TIP3   OH216741   0.819   2.108   5.666  0.0272  0.4665  0.0837
 5603TIP3    H116742   0.726   2.112   5.691 -1.6511 -0.1246 -5.4546
 5603TIP3    H216743   0.845   2.200   5.658 -0.3077  0.6329  0.8143
 5604TIP3   OH216744   1.600   0.790   4.486  0.6249 -0.1580 -0.5112
 5604TIP3    H116745   1.572   0.754   4.401 -0.9681 -1.6906  0.6152
 5604TIP3    H216746   1.667   0.730   4.516  0.2775 -0.3475 -0.1114
 5605TIP3   OH216747   1.656   1.974   5.553  0.1556 -0.3340 -0.1845
 5605TIP3    H116748   1.682   1.960   5.462 -0.3776  0.1401 -0.4161
 5605TIP3    H216749   1.725   2.030   5.589  0.2562 -0.3461 -0.3587
 5606TIP3   OH216750   6.532   7.477   5.279 -0.0375  0.4929  0.1880
 5606TIP3    H116751   6.501   7.386   5.277  0.3806  0.3148  1.4476
 5606TIP3    H216752   6.476   7.523   5.216  0.0567 -0.7332 -0.8081
 5607TIP3   OH216753   8.430   1.195   4.667  0.0294 -0.0808 -0.0645
 5607TIP3    H116754   8.354   1.155   4.625  0.8489 -3.2543  1.3250
 5607TIP3    H216755   8.498   1.194   4.600 -0.5501  0.9405 -0.6846
 5608TIP3   OH216756   5.888   4.266   2.323  0.0367 -0.6336 -0.3704
 5608TIP3    H116757   5.856   4.333   2.384 -0.9577 -1.0897 -0.3732
 5608TIP3    H216758   5.983   4.276   2.322 -0.1905  1.8462 -1.5764
 5609TIP3   OH216759   2.462   0.504   4.635 -0.5002 -0.0113 -0.5577
 5609TIP3    H116760   2.536   0.559   4.664 -0.8409 -0.5221  1.4063
 5609TIP3    H216761   2.502   0.438   4.578  0.0453  1.7351 -2.2096
 5610TIP3   OH216762   1.109   0.789   6.324 -0.0959  0.3786  0.2789
 5610TIP3    H116763   1.192   0.810   6.366 -0.1439 -0.2488  0.6947
 5610TIP3    H216764   1.132   0.756   6.237  0.0479  0.8920  0.1223
 5611TIP3   OH216765   0.860   7.616   2.290 -0.6603  0.6029 -0.3371
 5611TIP3    H116766   0.818   7.625   2.204 -3.0697  0.3837  0.7898
 5611TIP3    H216767   0.894   7.704   2.308 -1.2648  0.9680 -0.9311
 5612TIP3   OH216768   5.309   3.538   2.590 -0.0723  0.4516  0.2087
 5612TIP3    H116769   5.250   3.481   2.638  0.7199  1.8927  2.9698
 5612TIP3    H216770   5.295   3.625   2.628  1.6113  1.3719 -1.1808
 5613TIP3   OH216771   8.475   0.577   6.675  0.3388  0.2663  0.7271
 5613TIP3    H116772   8.521   0.602   6.596  0.6332 -1.2746  0.4024
 5613TIP3    H216773   8.390   0.622   6.669  0.2466 -0.0853 -0.5881
 5614TIP3   OH216774   2.272   1.594   5.721  0.2555  0.2999  0.2385
 5614TIP3    H116775   2.356   1.564   5.757  0.0132  0.0580  0.5981
 5614TIP3    H216776   2.278   1.690   5.722 -0.3656  0.3213  2.3524
 5615TIP3   OH216777   2.047   7.564   6.037  0.0612  0.5759  0.2653
 5615TIP3    H116778   2.037   7.491   6.098  0.9686  0.0958 -0.1539
 5615TIP3    H216779   1.957   7.587   6.013 -0.2236 -0.6793  0.0724
 5616TIP3   OH216780   1.808   2.999   6.856 -0.3054 -0.6239 -0.0883
 5616TIP3    H116781   1.780   2.994   6.947  1.5300  1.3490  0.6278
 5616TIP3    H216782   1.726   3.009   6.806 -1.1796  0.4898  1.5435
 5617TIP3   OH216783   1.169   2.095   6.861  0.3882 -0.1900 -0.1032
 5617TIP3    H116784   1.162   2.182   6.822 -2.1021 -0.2946  0.0224
 5617TIP3    H216785   1.152   2.034   6.789  0.5768 -0.5340  0.1372
 5618TIP3   OH216786   0.069   0.959   5.580 -0.0522 -0.0989 -0.2787
 5618TIP3    H116787   0.008   0.957   5.506  0.0904  0.6716 -0.4237
 5618TIP3    H216788   0.148   1.000   5.544 -0.1194  0.6400  0.3976
 5619TIP3   OH216789   2.947   2.986   5.261  0.1608 -0.1820  0.0178
 5619TIP3    H116790   2.953   3.023   5.173  1.1143 -0.2395  0.0506
 5619TIP3    H216791   2.916   2.897   5.248 -0.6193  0.1156 -0.1850
 5620TIP3   OH216792   6.539   7.369   4.434  0.1276 -0.2213 -0.0598
 5620TIP3    H116793   6.631   7.342   4.439  0.1463 -0.4321 -1.4094
 5620TIP3    H216794   6.511   7.343   4.347 -1.2029 -0.0787  0.3146
 5621TIP3   OH216795   0.569   0.074   5.652  1.0749  0.3879  0.0187
 5621TIP3    H116796   0.627  -0.002   5.645  0.3066 -0.2413  0.3961
 5621TIP3    H216797   0.611   0.142   5.599  0.4793 -1.1084 -2.4589
 5622TIP3   OH216798   8.317   7.495   3.282 -0.2183  0.3589 -0.4747
 5622TIP3    H116799   8.248   7.559   3.300 -0.9087  0.4466 -3.1947
 5622TIP3    H216800   8.354   7.522   3.198  1.3527 -1.2261 -0.3368
 5623TIP3   OH216801   5.017   4.999   0.029 -0.3740  0.2105 -1.0933
 5623TIP3    H116802   5.058   5.084   0.037  0.6827 -0.4977  1.4512
 5623TIP3    H216803   5.080   4.945  -0.019  0.5458 -0.1204  0.4537
 5624TIP3   OH216804   8.202   7.824   4.376 -0.0772  0.1008  0.3528
 5624TIP3    H116805   8.158   7.743   4.349  1.0283 -0.8953  1.4736
 5624TIP3    H216806   8.133   7.876   4.417 -0.5094 -0.8648  0.8735
 5625TIP3   OH216807   1.174   7.347   4.138 -0.2139 -0.0523 -0.5155
 5625TIP3    H116808   1.089   7.313   4.166 -0.4536 -0.2142 -1.4010
 5625TIP3    H216809   1.181   7.320   4.046  1.5522 -1.5125  0.0118
 5626TIP3   OH216810   3.205   1.211   5.937 -0.6758  0.2274 -0.4384
 5626TIP3    H116811   3.120   1.195   5.977 -1.2779  2.5425 -0.6800
 5626TIP3    H216812   3.255   1.258   6.005  0.8128 -2.0743  0.1010
 5627TIP3   OH216813   2.735   1.210   6.073 -0.4268  0.4991 -0.3786
 5627TIP3    H116814   2.650   1.189   6.110 -1.0494  3.1113 -0.2591
 5627TIP3    H216815   2.767   1.127   6.037 -2.4802 -0.7464  0.6109
 5628TIP3   OH216816   1.117   2.464   4.641  0.3163 -0.0001 -0.2532
 5628TIP3    H116817   1.052   2.428   4.581 -0.1816 -1.0030  0.8601
 5628TIP3    H216818   1.201   2.427   4.612 -0.1741 -2.0351  0.8178
 5629TIP3   OH216819   2.516   3.242   0.637 -0.0144 -0.0137 -0.3122
 5629TIP3    H116820   2.467   3.245   0.555 -0.2558 -2.3793 -0.3025
 5629TIP3    H216821   2.467   3.298   0.697 -0.5065  0.7675 -1.4246
 5630TIP3   OH216822   0.457   1.805   5.370  0.2063 -0.0822 -0.1804
 5630TIP3    H116823   0.363   1.821   5.368  0.4244  1.4364  1.3263
 5630TIP3    H216824   0.496   1.890   5.351  1.2930 -0.8977 -1.7564
 5631TIP3   OH216825   3.892   6.508   0.554 -0.0576  0.1375 -0.4313
 5631TIP3    H116826   3.799   6.512   0.578 -0.1819 -0.8067 -0.7136
 5631TIP3    H216827   3.917   6.417   0.572  0.3694 -0.0668 -1.9597
 5632TIP3   OH216828   0.318   0.693   5.554 -0.1954 -0.2876  0.1602
 5632TIP3    H116829   0.396   0.748   5.549 -0.7205  0.3822 -0.9976
 5632TIP3    H216830   0.323   0.638   5.475 -0.4852 -0.7887  0.4909
 5633TIP3   OH216831   3.590   1.759   5.773  0.0833  0.2016  0.2522
 5633TIP3    H116832   3.659   1.819   5.804 -0.0797 -0.5349  2.1035
 5633TIP3    H216833   3.634   1.704   5.708  0.4174  1.8495 -0.9490
 5634TIP3   OH216834   1.278   1.096   6.023  0.2529  1.0089 -0.2774
 5634TIP3    H116835   1.293   1.188   6.002  0.7329  0.6558 -1.5697
 5634TIP3    H216836   1.232   1.062   5.946  0.7332 -0.0054 -0.1236
 5635TIP3   OH216837   2.679   1.869   4.400 -0.0322 -0.1431  0.1110
 5635TIP3    H116838   2.601   1.827   4.365  1.9304 -1.3271 -3.1123
 5635TIP3    H216839   2.664   1.963   4.388 -1.4400 -0.2992  0.6248
 5636TIP3   OH216840   4.515   3.963   1.087 -0.5276  0.5581 -0.2388
 5636TIP3    H116841   4.435   4.010   1.064  0.6571  2.9941  0.4662
 5636TIP3    H216842   4.529   3.984   1.179 -0.6342 -2.2388  0.4565
 5637TIP3   OH216843   1.284   0.153   4.822  0.1492 -0.4720  0.4795
 5637TIP3    H116844   1.228   0.106   4.884  0.4426 -0.3471  0.8406
 5637TIP3    H216845   1.301   0.237   4.865  0.9824 -0.6876  0.5722
 5638TIP3   OH216846   3.164   0.333   5.205  0.1874  0.5262  0.3621
 5638TIP3    H116847   3.100   0.342   5.134  0.1268  1.4049  0.5155
 5638TIP3    H216848   3.208   0.250   5.188 -0.7777  0.0643  0.0770
 5639TIP3   OH216849   2.050   0.747   5.008 -0.0395 -0.0098  0.1170
 5639TIP3    H116850   2.116   0.807   4.974 -0.7850  0.6369 -0.2109
 5639TIP3    H216851   1.980   0.804   5.039  0.0246 -0.6516  1.4485
 5640TIP3   OH216852   4.622   1.094   5.916  0.0110  0.2832  0.2379
 5640TIP3    H116853   4.649   1.165   5.857  0.0835 -0.8532 -1.1144
 5640TIP3    H216854   4.532   1.075   5.889  0.0464 -0.2335  0.5006
 5641TIP3   OH216855   5.678   7.427   4.222  0.8880 -0.2782 -0.3875
 5641TIP3    H116856   5.608   7.493   4.224  0.5568 -0.6203 -0.5594
 5641TIP3    H216857   5.637   7.350   4.183  1.7357 -0.0366 -1.8009
 5642TIP3   OH216858   4.038   2.403   4.663  0.5313  0.7701  0.2025
 5642TIP3    H116859   3.966   2.463   4.645  0.7387  0.8984 -0.2162
 5642TIP3    H216860   3.999   2.316   4.663 -0.1963  1.0321  3.0191
 5643TIP3   OH216861   0.182   7.525   4.347 -0.3349 -0.1055 -0.0970
 5643TIP3    H116862   0.121   7.476   4.403 -1.3546  0.4624 -0.6986
 5643TIP3    H216863   0.126   7.583   4.296  0.8461  1.5136  0.4302
 5644TIP3   OH216864   2.429   0.556   4.944 -0.1637  0.4448  0.5637
 5644TIP3    H116865   2.354   0.532   4.889  0.0385 -1.0052  0.8885
 5644TIP3    H216866   2.482   0.476   4.948  1.3300  1.3982  0.4706
 5645TIP3   OH216867   6.397   6.578   0.251  0.1215 -0.5802  0.2005
 5645TIP3    H116868   6.306   6.549   0.246 -0.1823  0.4497 -0.3515
 5645TIP3    H216869   6.402   6.626   0.334 -0.2992  0.8965 -0.6136
 5646TIP3   OH216870   3.224   1.568   5.273  0.0931  0.3133 -0.0556
 5646TIP3    H116871   3.260   1.487   5.309 -0.7016  0.7176  1.7193
 5646TIP3    H216872   3.295   1.605   5.221  0.4506 -1.5321 -0.9275
 5647TIP3   OH216873   3.173   1.201   5.437 -0.4484  0.2834  0.7427
 5647TIP3    H116874   3.194   1.222   5.528  1.4482 -2.1621  0.9309
 5647TIP3    H216875   3.217   1.268   5.385 -0.9794  1.2986  1.5843
 5648TIP3   OH216876   0.147   7.429   3.730 -0.0228 -0.1054 -0.2165
 5648TIP3    H116877   0.068   7.403   3.682 -0.6085 -0.6030  1.0083
 5648TIP3    H216878   0.127   7.516   3.764  0.9168  0.8468 -2.0177
 5649TIP3   OH216879   7.443   7.550   4.516  0.1992 -0.7379  0.1323
 5649TIP3    H116880   7.511   7.594   4.466 -1.4831 -0.4541 -1.9345
 5649TIP3    H216881   7.393   7.620   4.558  1.6448 -0.9720  2.3352
 5650TIP3   OH216882   3.136   1.424   4.942 -0.0002 -0.3051  0.3102
 5650TIP3    H116883   3.108   1.441   5.032  1.0847  0.2513  0.5602
 5650TIP3    H216884   3.217   1.374   4.952 -0.3716 -1.0346 -0.3667
 5651TIP3   OH216885   0.759   7.539   4.640 -0.3714 -0.4143 -0.3700
 5651TIP3    H116886   0.687   7.601   4.626  1.2552  1.8893  1.0374
 5651TIP3    H216887   0.798   7.528   4.553 -0.9609  0.1985 -0.7202
 5652TIP3   OH216888   6.741   7.930   5.360  0.4175 -1.0831  0.3598
 5652TIP3    H116889   6.699   7.844   5.365 -0.1812 -0.8074  0.2167
 5652TIP3    H216890   6.785   7.940   5.444 -0.0580 -1.2652  0.6353
 5653TIP3   OH216891   2.489   7.717   3.973 -0.4578 -0.4215 -0.1701
 5653TIP3    H116892   2.471   7.707   3.879 -1.9213 -0.3589  0.0962
 5653TIP3    H216893   2.403   7.711   4.015  0.1094  0.1995  1.1145
 5654TIP3   OH216894   4.250   1.175   6.725 -0.1622  0.0858  0.0725
 5654TIP3    H116895   4.221   1.216   6.643 -0.5997 -0.5075 -0.0774
 5654TIP3    H216896   4.271   1.248   6.783 -0.1120  0.5126 -0.4766
 5655TIP3   OH216897   5.356   3.927   0.597 -0.6269  0.4295 -0.4070
 5655TIP3    H116898   5.436   3.895   0.638 -0.9454  1.9814  1.4353
 5655TIP3    H216899   5.286   3.883   0.644 -0.9117 -1.1683 -2.2190
 5656TIP3   OH216900   3.026   2.071   5.653 -0.5138 -0.3735  0.0563
 5656TIP3    H116901   2.944   2.113   5.677 -0.6515 -0.8269  0.3925
 5656TIP3    H216902   3.093   2.137   5.669 -0.7569 -0.1897  0.3139
 5657TIP3   OH216903   4.348   1.047   5.539  0.1993 -0.8881  0.1006
 5657TIP3    H116904   4.254   1.058   5.551  0.0029 -0.1621 -1.8681
 5657TIP3    H216905   4.370   0.966   5.585 -1.5673 -1.5873 -0.2781
 5658TIP3   OH216906   0.820   7.686   6.177 -0.3612  0.0122  0.2602
 5658TIP3    H116907   0.845   7.721   6.091  0.4529 -0.2730  0.3716
 5658TIP3    H216908   0.805   7.763   6.231 -1.7602  0.2027 -0.3790
 5659TIP3   OH216909   4.795   0.274   3.397 -0.0450  0.2927 -0.3631
 5659TIP3    H116910   4.716   0.324   3.417 -0.4804 -0.3256 -0.5187
 5659TIP3    H216911   4.790   0.260   3.302  0.7078  1.0138 -0.5210
 5660TIP3   OH216912   3.426   2.881   5.771 -0.0928  0.6560  0.0907
 5660TIP3    H116913   3.378   2.938   5.711 -0.6687 -0.5045 -0.5927
 5660TIP3    H216914   3.362   2.813   5.795  0.5725  0.2855  0.8568
 5661TIP3   OH216915   2.012   3.193   6.500  0.2821 -0.7948 -0.2605
 5661TIP3    H116916   2.022   3.170   6.593 -2.7188  4.1751  1.4751
 5661TIP3    H216917   1.930   3.152   6.474  0.2478 -0.7531 -0.2180
 5662TIP3   OH216918   2.846   1.228   6.327  0.4777  0.1081  0.3172
 5662TIP3    H116919   2.809   1.224   6.239 -0.1917 -0.6320  0.6238
 5662TIP3    H216920   2.782   1.277   6.378  2.2022  3.0395 -0.2436
 5663TIP3   OH216921   5.442   0.604   4.237 -0.0319  0.4013  0.0945
 5663TIP3    H116922   5.362   0.564   4.271  1.0355 -1.5077  0.3693
 5663TIP3    H216923   5.476   0.655   4.311  0.4433 -0.9621  0.8250
 5664TIP3   OH216924   1.709   6.818   5.913  0.3386  0.3170  0.3230
 5664TIP3    H116925   1.776   6.847   5.850  0.0706  0.9008  0.3067
 5664TIP3    H216926   1.629   6.862   5.884 -0.3024 -1.2493 -0.3094
 5665TIP3   OH216927   4.378   0.986   5.870  0.1826 -0.2286  0.8329
 5665TIP3    H116928   4.388   0.902   5.825 -0.3988  0.0354  0.1931
 5665TIP3    H216929   4.333   0.965   5.951  0.3452 -0.5837  0.8295
 5666TIP3   OH216930   4.148   0.038   4.832 -0.2086 -0.5597 -0.2175
 5666TIP3    H116931   4.148   0.116   4.777  1.8161  0.0845  0.6206
 5666TIP3    H216932   4.216  -0.018   4.794  0.7352 -0.4019  1.1887
 5667TIP3   OH216933   3.862   0.880   5.009  0.3653 -0.0835  0.1819
 5667TIP3    H116934   3.901   0.954   4.962  1.4997 -0.7268  0.0972
 5667TIP3    H216935   3.933   0.815   5.015 -0.4333 -0.9084  0.8074
 5668TIP3   OH216936   4.983   1.653   5.347 -0.6306  0.6051  0.5763
 5668TIP3    H116937   4.964   1.663   5.441 -0.9542  1.2484  0.4482
 5668TIP3    H216938   5.043   1.725   5.327 -0.2469  0.2298  0.3754
 5669TIP3   OH216939   4.005   1.281   5.035 -0.3145 -0.1291  0.2903
 5669TIP3    H116940   3.986   1.217   4.966  0.2317 -0.3373  0.3284
 5669TIP3    H216941   4.062   1.234   5.096 -0.1668  0.2952  0.4809
 5670TIP3   OH216942   3.042   0.932   5.837 -0.6873  0.0958  0.0419
 5670TIP3    H116943   3.117   0.904   5.890 -0.2439  0.2467 -0.4919
 5670TIP3    H216944   3.082   0.982   5.765 -1.2986  0.1034 -0.2911
 5671TIP3   OH216945   8.444   6.500   4.753  0.5265  0.0867  0.1368
 5671TIP3    H116946   8.444   6.439   4.826 -0.5869  0.5568  0.5477
 5671TIP3    H216947   8.471   6.584   4.791  1.3791  0.0031 -0.2858
 5672TIP3   OH216948   5.108   2.318   5.772  0.4432  0.9984  0.7114
 5672TIP3    H116949   5.121   2.233   5.814  1.8579  1.1534  0.6020
 5672TIP3    H216950   5.131   2.382   5.839  0.5173  1.2772  0.4196
 5673TIP3   OH216951   5.039   1.448   3.858 -0.2445 -0.8498 -0.7725
 5673TIP3    H116952   5.062   1.363   3.894 -1.3013 -2.7796 -4.4578
 5673TIP3    H216953   5.123   1.485   3.829  0.0601 -1.1658 -0.3016
 5674TIP3   OH216954   3.096   6.021   1.342  0.1031  0.1761 -0.2561
 5674TIP3    H116955   3.099   6.006   1.436 -2.0965 -0.7357 -0.3039
 5674TIP3    H216956   3.060   6.109   1.332  1.8268  0.9034 -0.2329
 5675TIP3   OH216957   1.677   0.401   4.965 -0.2946  0.3178  0.6228
 5675TIP3    H116958   1.657   0.491   4.991 -0.6938  1.1184 -2.2758
 5675TIP3    H216959   1.772   0.393   4.975 -0.0920  1.4827 -0.3397
 5676TIP3   OH216960   3.793   1.207   5.618  0.8019  0.3869 -0.1871
 5676TIP3    H116961   3.712   1.256   5.631  0.1994 -0.6124 -0.0871
 5676TIP3    H216962   3.814   1.220   5.526  0.2415  0.2361 -0.3391
 5677TIP3   OH216963   3.296   0.569   4.183  0.1060  0.2820 -0.5925
 5677TIP3    H116964   3.331   0.481   4.192  0.9987  0.7842  1.2031
 5677TIP3    H216965   3.252   0.585   4.267 -0.2073  1.4618 -0.9787
 5678TIP3   OH216966   3.782   1.524   6.849  0.4551  0.2066  0.3332
 5678TIP3    H116967   3.719   1.467   6.894 -0.9444 -1.1824 -3.2165
 5678TIP3    H216968   3.867   1.483   6.864 -0.3760 -2.1202 -0.9856
 5679TIP3   OH216969   3.305   2.397   5.908 -0.1238 -0.3025  0.2483
 5679TIP3    H116970   3.247   2.370   5.979  0.1898  0.5628  0.8482
 5679TIP3    H216971   3.378   2.441   5.953  1.0445 -1.4620 -0.4825
 5680TIP3   OH216972   2.647   0.997   5.369 -0.2187  0.2565  0.1355
 5680TIP3    H116973   2.706   0.923   5.388  0.8533  1.3337  1.1024
 5680TIP3    H216974   2.658   1.013   5.276  1.8100  1.0701  0.4818
 5681TIP3   OH216975   3.819   0.540   1.435  0.5297 -0.8734  0.8843
 5681TIP3    H116976   3.783   0.453   1.451  0.0746 -1.1782 -1.5710
 5681TIP3    H216977   3.885   0.527   1.367  0.5956  0.6693  0.6284
 5682TIP3   OH216978   2.261   1.604   5.147 -0.3009  0.6190  0.3525
 5682TIP3    H116979   2.221   1.643   5.225  1.6157  1.2433  1.0574
 5682TIP3    H216980   2.247   1.510   5.156 -1.8605  0.8548  0.4288
 5683TIP3   OH216981   2.792   0.962   2.564  0.2874  0.0696  0.4448
 5683TIP3    H116982   2.834   1.031   2.512 -0.7096 -0.5315 -1.2049
 5683TIP3    H216983   2.701   0.990   2.572  0.0939 -0.5951  0.5908
 5684TIP3   OH216984   4.022   3.262   5.056 -0.3148 -0.0455  0.1182
 5684TIP3    H116985   3.933   3.274   5.088 -0.5816 -1.5903 -0.0166
 5684TIP3    H216986   4.048   3.176   5.088  1.1967  0.4542  0.2894
 5685TIP3   OH216987   2.647   2.669   6.041  0.2525  0.2754 -0.7181
 5685TIP3    H116988   2.605   2.740   5.992  2.7476  0.8795 -2.0594
 5685TIP3    H216989   2.627   2.590   5.991  1.9034  0.7551 -2.1859
 5686TIP3   OH216990   7.239   0.863   1.174 -0.2763  0.3645 -0.1792
 5686TIP3    H116991   7.157   0.846   1.129 -0.2864  1.3819 -0.5362
 5686TIP3    H216992   7.282   0.932   1.123  1.4065 -1.0598 -0.7553
 5687TIP3   OH216993   0.921   7.582   3.883 -0.8731 -0.2009  0.3909
 5687TIP3    H116994   0.848   7.642   3.896 -1.5191 -1.5237  3.1045
 5687TIP3    H216995   0.973   7.589   3.963  0.0076 -1.9533  0.0089
 5688TIP3   OH216996   7.589   6.249   2.980  0.2214  0.7232 -0.5315
 5688TIP3    H116997   7.658   6.259   2.915  1.9321  1.6607  1.3803
 5688TIP3    H216998   7.609   6.165   3.023 -0.8603  0.1422 -1.1325
 5689TIP3   OH216999   3.893   0.168   4.333  0.3455  0.0440  0.1762
 5689TIP3    H117000   3.874   0.077   4.357  0.4889 -0.2012 -0.6117
 5689TIP3    H217001   3.900   0.214   4.417  2.7648 -1.1693  0.7027
 5690TIP3   OH217002   3.241   3.022   5.266  0.1540 -0.2870  0.4713
 5690TIP3    H117003   3.149   3.011   5.289  0.4858 -0.2395  1.8446
 5690TIP3    H217004   3.248   2.987   5.177 -1.4074  0.7034 -0.0556
 5691TIP3   OH217005   4.066   0.689   3.777 -0.3601 -0.7947 -0.3034
 5691TIP3    H117006   4.112   0.639   3.845  0.1925 -0.1915 -0.2349
 5691TIP3    H217007   4.037   0.769   3.821 -1.0331 -0.9341 -0.4781
 5692TIP3   OH217008   1.780   7.737   4.378 -0.0556 -0.0414  0.4922
 5692TIP3    H117009   1.710   7.768   4.436 -0.1575  1.6697 -0.5282
 5692TIP3    H217010   1.743   7.743   4.290  0.7590 -0.8265  0.0944
 5693TIP3   OH217011   4.428   0.921   4.309  0.0291 -0.6108  0.4140
 5693TIP3    H117012   4.383   0.939   4.226 -0.6368  2.5731  1.3876
 5693TIP3    H217013   4.396   0.988   4.368  2.3378 -1.3521  2.5809
 5694TIP3   OH217014   2.566   1.077   6.398 -0.3743  0.1782  0.7016
 5694TIP3    H117015   2.519   1.116   6.472 -0.7625  0.2654  0.4116
 5694TIP3    H217016   2.598   0.994   6.431 -0.3320  0.3289  1.0451
 5695TIP3   OH217017   8.278   1.829   3.674  0.4301  0.4162  0.2826
 5695TIP3    H117018   8.267   1.858   3.583 -0.1772  0.0304  0.2257
 5695TIP3    H217019   8.295   1.735   3.667 -2.1260 -0.1066  0.6843
 5696TIP3   OH217020   3.951   1.845   5.366  0.2104 -0.0209 -0.3938
 5696TIP3    H117021   3.947   1.792   5.286 -3.2906  1.3890 -1.2091
 5696TIP3    H217022   3.983   1.930   5.337  1.2551 -0.2297  0.1262
 5697TIP3   OH217023   1.015   6.476   3.782  0.7941 -0.3219  0.3594
 5697TIP3    H117024   1.002   6.412   3.712 -1.6885 -1.3968  1.7648
 5697TIP3    H217025   0.927   6.510   3.800  1.8991  2.6390  0.4757
 5698TIP3   OH217026   2.658   7.961   4.044 -0.3147 -0.1247  0.7637
 5698TIP3    H117027   2.617   7.876   4.031  0.5045 -0.3071 -0.6896
 5698TIP3    H217028   2.752   7.944   4.039 -0.0974  0.6209  2.0255
 5699TIP3   OH217029   2.976   7.775   6.272 -0.4435 -0.4455  0.0671
 5699TIP3    H117030   3.052   7.786   6.215  1.0058 -0.8511  1.8776
 5699TIP3    H217031   2.965   7.680   6.280 -0.6597 -0.3902  0.4501
 5700TIP3   OH217032   2.149   2.122   4.469  0.3443  0.3718  0.4744
 5700TIP3    H117033   2.173   2.207   4.505 -0.8067  0.1216  1.8732
 5700TIP3    H217034   2.224   2.065   4.489  1.5713  1.2803 -1.3893
 5701TIP3   OH217035   4.122   1.884   6.221 -0.3585  0.1780 -0.0820
 5701TIP3    H117036   4.112   1.838   6.304  1.9437 -0.0358  0.0939
 5701TIP3    H217037   4.055   1.845   6.164  0.1404 -1.8890  0.7154
 5702TIP3   OH217038   3.805   0.503   6.218 -0.0289 -0.4393 -0.0810
 5702TIP3    H117039   3.780   0.449   6.292  0.7014 -0.7684 -0.0683
 5702TIP3    H217040   3.810   0.592   6.252 -0.7888 -0.4290  0.0025
 5703TIP3   OH217041   1.468   7.002   4.206 -0.4484  0.2267 -0.2913
 5703TIP3    H117042   1.400   6.975   4.145  0.5263  3.1090 -2.7766
 5703TIP3    H217043   1.535   7.044   4.151  1.1196  1.6712  2.5771
 5704TIP3   OH217044   3.164   0.907   6.914  0.0331  0.0956  0.3813
 5704TIP3    H117045   3.191   0.842   6.849 -3.7473 -0.0006 -1.2271
 5704TIP3    H217046   3.199   0.990   6.881 -0.8560 -0.1386 -1.2075
 5705TIP3   OH217047   3.592   1.902   5.448 -0.4126 -0.6509  0.1027
 5705TIP3    H117048   3.587   1.904   5.352  1.2185 -0.2504  0.0146
 5705TIP3    H217049   3.637   1.820   5.468  1.8715  0.6473  0.3891
 5706TIP3   OH217050   3.800   0.183   5.910  0.4324 -0.0425 -0.2345
 5706TIP3    H117051   3.726   0.243   5.913  0.1830 -0.3736  0.1597
 5706TIP3    H217052   3.863   0.226   5.851 -0.7998 -0.5762 -1.9938
 5707TIP3   OH217053   4.445   5.431   0.168  0.3082  0.4515  0.9128
 5707TIP3    H117054   4.392   5.353   0.185  0.8505 -0.1824 -0.2595
 5707TIP3    H217055   4.529   5.413   0.210  1.6137 -1.0731 -2.2484
 5708TIP3   OH217056   7.282   5.010   6.449 -0.1797 -0.4611  0.1452
 5708TIP3    H117057   7.197   5.011   6.405  0.2265 -1.2206 -0.6736
 5708TIP3    H217058   7.262   5.011   6.542 -1.0618  1.2098 -0.0428
 5709TIP3   OH217059   4.291   6.879   0.218  0.5271  0.1051  0.2575
 5709TIP3    H117060   4.223   6.816   0.191  1.6315  0.0014 -2.4061
 5709TIP3    H217061   4.267   6.960   0.174  1.5530  0.3370  0.1147
 5710TIP3   OH217062   4.473   0.639   4.006 -0.0614  0.8795  0.1533
 5710TIP3    H117063   4.394   0.694   4.001 -0.4388  0.2834 -0.5133
 5710TIP3    H217064   4.440   0.550   4.016  0.4697  0.3374 -2.6811
 5711TIP3   OH217065   4.517   0.017   4.291 -0.4514  0.2785 -0.1600
 5711TIP3    H117066   4.596   0.070   4.282 -1.3349  1.3804 -1.7052
 5711TIP3    H217067   4.523  -0.048   4.220 -0.6252 -0.0376  0.1125
 5712TIP3   OH217068   1.707   5.881   5.818  0.2009  0.8196  0.1493
 5712TIP3    H117069   1.617   5.912   5.826  0.3307  0.9155  1.2335
 5712TIP3    H217070   1.718   5.818   5.889  0.2067 -1.1073 -1.4864
 5713TIP3   OH217071   6.102   5.144   1.406  0.1339 -0.3976  0.4167
 5713TIP3    H117072   6.093   5.079   1.336  3.0045 -0.1343 -0.2684
 5713TIP3    H217073   6.157   5.212   1.368 -0.3055  0.9472  2.1483
 5714TIP3   OH217074   1.694   0.480   3.380  0.2004  0.5088 -0.1350
 5714TIP3    H117075   1.684   0.396   3.334 -0.1321 -0.5510  1.8081
 5714TIP3    H217076   1.753   0.531   3.324  0.0954 -0.8676 -1.5455
 5715TIP3   OH217077   2.306   4.992   6.502  0.0146 -0.6120  0.0297
 5715TIP3    H117078   2.357   4.915   6.478  2.9475  1.2271  0.1672
 5715TIP3    H217079   2.258   5.015   6.422 -0.3769 -2.1699 -0.1977
 5716TIP3   OH217080   3.913   0.372   3.202  0.8292 -0.6406 -0.0738
 5716TIP3    H117081   3.986   0.353   3.261  1.6865 -1.3507 -1.3329
 5716TIP3    H217082   3.955   0.404   3.122 -0.1949 -1.5151 -0.9787
 5717TIP3   OH217083   5.025   1.895   4.928  0.4351  0.4833 -0.3130
 5717TIP3    H117084   5.082   1.846   4.869  1.4295  0.2667  0.7897
 5717TIP3    H217085   4.940   1.852   4.920  1.8631 -3.2225  2.5442
 5718TIP3   OH217086   5.085   2.427   4.619 -0.5164 -0.6439 -0.2868
 5718TIP3    H117087   5.123   2.358   4.674 -0.4669  1.3593  2.3311
 5718TIP3    H217088   4.991   2.410   4.620 -0.4918 -0.7770  0.2564
 5719TIP3   OH217089   1.374   0.299   3.176  0.4587 -0.1503 -0.1563
 5719TIP3    H117090   1.295   0.270   3.221  1.0782 -1.3263  0.1856
 5719TIP3    H217091   1.387   0.236   3.105  1.1619 -0.0405 -0.1316
 5720TIP3   OH217092   2.509   0.857   4.916 -0.2837 -0.5929 -0.4171
 5720TIP3    H117093   2.552   0.885   4.996  1.9241 -1.5780 -1.2105
 5720TIP3    H217094   2.507   0.761   4.922 -2.4440 -0.5915 -0.4005
 5721TIP3   OH217095   3.877   6.042   1.346 -0.0638 -0.2387 -0.1810
 5721TIP3    H117096   3.901   6.015   1.434 -0.9478  1.6232  0.6683
 5721TIP3    H217097   3.920   6.127   1.335 -2.8747  1.2492 -0.1401
 5722TIP3   OH217098   3.657   0.438   3.323 -0.2271  0.5054 -0.2709
 5722TIP3    H117099   3.685   0.497   3.392  2.2335  0.4842 -1.1953
 5722TIP3    H217100   3.737   0.397   3.292 -1.7062 -2.1406 -0.7432
 5723TIP3   OH217101   2.396   4.119   6.390  0.1844  0.1619  0.2263
 5723TIP3    H117102   2.444   4.127   6.308  1.7919  2.1319  1.3147
 5723TIP3    H217103   2.339   4.196   6.392 -3.1927 -2.1776 -1.0952
 5724TIP3   OH217104   5.488   1.388   4.670  0.1936 -0.2139  0.1201
 5724TIP3    H117105   5.400   1.364   4.699  1.1692 -1.7808  1.9639
 5724TIP3    H217106   5.508   1.326   4.600  0.3794 -0.8445  0.7227
 5725TIP3   OH217107   2.876   2.356   4.376 -0.1683 -0.2037 -0.2985
 5725TIP3    H117108   2.963   2.318   4.391 -0.0703  0.1278 -0.0362
 5725TIP3    H217109   2.819   2.280   4.363 -0.6637 -0.6189  3.6651
 5726TIP3   OH217110   0.222   7.907   2.838  0.2008 -0.8645  0.6416
 5726TIP3    H117111   0.289   7.973   2.856  0.8545 -1.6404  1.0894
 5726TIP3    H217112   0.239   7.838   2.902  0.2675 -2.0098 -0.5998
 5727TIP3   OH217113   3.624   1.267   5.171 -0.4572 -0.0531 -0.5850
 5727TIP3    H117114   3.641   1.344   5.117 -0.2183  0.0998 -0.2959
 5727TIP3    H217115   3.580   1.206   5.112 -2.5700  1.1021 -0.2747
 5728TIP3   OH217116   2.957   2.450   5.473  0.1695 -1.0532  0.0290
 5728TIP3    H117117   2.988   2.484   5.389  1.6611 -0.1508  0.9160
 5728TIP3    H217118   2.894   2.516   5.504  0.5113 -0.7970  0.1746
 5729TIP3   OH217119   4.344   0.965   4.046  0.3766  0.2168  0.6161
 5729TIP3    H117120   4.270   1.025   4.048  0.9403  0.9256  0.3641
 5729TIP3    H217121   4.365   0.956   3.953 -1.5181 -2.6359  0.3842
 5730TIP3   OH217122   2.730   1.135   5.124 -0.1058 -0.2628 -0.0599
 5730TIP3    H117123   2.776   1.190   5.186  0.9245 -1.0800 -0.0845
 5730TIP3    H217124   2.783   1.139   5.044 -0.1516 -1.0958 -0.1353
 5731TIP3   OH217125   0.591   0.861   4.293  0.3005  0.2175 -0.1169
 5731TIP3    H117126   0.612   0.788   4.235 -1.5610 -0.7840  0.4354
 5731TIP3    H217127   0.646   0.847   4.370 -0.0875 -0.6416  0.0136
 5732TIP3   OH217128   3.855   0.332   4.585  0.3394 -0.4481 -0.2810
 5732TIP3    H117129   3.884   0.414   4.625 -1.4910  0.0588  0.0698
 5732TIP3    H217130   3.770   0.315   4.625 -0.8130 -0.7804 -2.7390
 5733TIP3   OH217131   8.109   5.715   3.595  0.0344  0.5503  0.0734
 5733TIP3    H117132   8.175   5.708   3.664  0.1322  1.1232  0.0422
 5733TIP3    H217133   8.132   5.645   3.533 -0.3253 -0.2583  0.8386
 5734TIP3   OH217134   5.680   0.935   6.726  0.0746  0.6019 -0.0724
 5734TIP3    H117135   5.692   0.991   6.803  0.4377  0.7236 -0.2176
 5734TIP3    H217136   5.650   0.851   6.761 -0.1513  0.7844  0.1717
 5735TIP3   OH217137   6.998   7.971   3.306  0.1037 -0.5251  0.3001
 5735TIP3    H117138   7.079   7.985   3.356  0.3479 -1.9432  0.3373
 5735TIP3    H217139   6.934   7.944   3.372 -0.4237  0.6475  0.2763
 5736TIP3   OH217140   2.277   7.154   6.832  0.3277 -0.2788  0.5328
 5736TIP3    H117141   2.214   7.109   6.889  0.4427 -0.6776  0.3501
 5736TIP3    H217142   2.351   7.093   6.826 -0.2383 -0.8480 -1.1244
 5737TIP3   OH217143   1.382   0.420   4.406  0.2767 -0.4361  0.4104
 5737TIP3    H117144   1.346   0.355   4.345 -0.3088 -0.3062  0.6121
 5737TIP3    H217145   1.404   0.495   4.352 -0.7307 -0.1217  0.4269
 5738TIP3   OH217146   4.342   0.198   5.196 -0.2520 -0.4417 -0.6647
 5738TIP3    H117147   4.270   0.156   5.242  0.7088 -0.9502  0.3926
 5738TIP3    H217148   4.396   0.126   5.165  0.2239 -0.0427 -0.7694
 5739TIP3   OH217149   2.001   7.572   4.033  0.1583 -0.3014  0.1687
 5739TIP3    H117150   1.982   7.542   3.944 -0.0833  0.8394 -0.1717
 5739TIP3    H217151   2.062   7.644   4.022 -0.3165  0.2251  0.8904
 5740TIP3   OH217152   4.451   1.514   4.487 -0.1950  0.2070 -0.3704
 5740TIP3    H117153   4.544   1.521   4.507 -0.2387 -0.8027  0.1977
 5740TIP3    H217154   4.411   1.479   4.566 -0.5991 -2.3498 -1.6521
 5741TIP3   OH217155   1.295   1.402   6.519  0.7800 -0.0670 -0.2454
 5741TIP3    H117156   1.370   1.393   6.461  1.5704 -2.0152  1.0049
 5741TIP3    H217157   1.333   1.412   6.606 -0.3948  0.2785  0.2429
 5742TIP3   OH217158   6.879   3.839   1.145  0.0385  0.5157  0.6504
 5742TIP3    H117159   6.838   3.816   1.062  1.3620  3.0223 -0.7516
 5742TIP3    H217160   6.967   3.802   1.140  0.8527  2.4701 -0.0055
 5743TIP3   OH217161   4.389   2.058   6.612 -0.3311 -0.1162  0.1794
 5743TIP3    H117162   4.346   2.081   6.694  0.2946 -0.1775  0.5319
 5743TIP3    H217163   4.318   2.053   6.548 -1.2334 -2.9736  1.3188
 5744TIP3   OH217164   4.276   6.415   0.480 -0.1813  1.0942  0.9725
 5744TIP3    H117165   4.268   6.341   0.539  0.0638  0.1829 -0.1100
 5744TIP3    H217166   4.210   6.399   0.412  1.9655  0.1906 -0.9836
 5745TIP3   OH217167   2.311   0.548   4.060 -0.0792  0.1035 -0.4008
 5745TIP3    H117168   2.304   0.544   4.155  0.1581 -1.5808 -0.4327
 5745TIP3    H217169   2.231   0.590   4.030 -0.7497 -0.5691  0.4609
 5746TIP3   OH217170   3.846   3.317   1.127 -0.2789  0.5888 -0.2171
 5746TIP3    H117171   3.915   3.260   1.094 -0.3422  1.4229 -1.8436
 5746TIP3    H217172   3.864   3.326   1.220  0.7142 -0.7188 -0.2756
 5747TIP3   OH217173   8.372   7.959   4.199 -0.0884  0.3655  0.2976
 5747TIP3    H117174   8.319   8.014   4.142 -1.5233 -2.0814 -0.8407
 5747TIP3    H217175   8.310   7.926   4.264  0.5513 -0.4897  0.4872
 5748TIP3   OH217176   5.938   5.350   1.815 -0.6883  0.0791 -0.4571
 5748TIP3    H117177   5.963   5.440   1.833  0.0026 -0.0368 -0.8421
 5748TIP3    H217178   6.020   5.304   1.799 -0.9420 -0.8616  0.7990
 5749TIP3   OH217179   1.676   1.098   5.828 -0.0207  0.4599  0.1637
 5749TIP3    H117180   1.758   1.147   5.834  0.5422 -0.5071  0.4786
 5749TIP3    H217181   1.643   1.096   5.917 -0.0700  0.3201  0.1425
 5750TIP3   OH217182   4.331   2.103   6.167  0.0155  0.2924  0.0800
 5750TIP3    H117183   4.290   2.022   6.196  0.7872 -0.4516 -0.8749
 5750TIP3    H217184   4.402   2.118   6.229 -0.4964  0.5537  0.6034
 5751TIP3   OH217185   2.352   1.536   3.367 -0.2614  0.1929 -0.2588
 5751TIP3    H117186   2.288   1.607   3.365  0.2318  0.6965  1.0198
 5751TIP3    H217187   2.434   1.577   3.342 -0.1079 -0.0751 -0.1933
 5752TIP3   OH217188   4.954   5.721   1.802 -0.3540 -0.3095 -0.4269
 5752TIP3    H117189   4.935   5.729   1.709  1.0906  1.0879 -0.6357
 5752TIP3    H217190   5.014   5.794   1.820 -0.9734 -0.2879  1.6886
 5753TIP3   OH217191   7.055   3.920   1.575 -0.0407  0.2216 -0.1518
 5753TIP3    H117192   7.009   3.999   1.546  2.2094  1.3852 -0.6059
 5753TIP3    H217193   7.068   3.934   1.669 -0.7711 -0.1949  0.0135
 5754TIP3   OH217194   0.491   7.466   3.643 -0.0938 -0.2635 -0.6534
 5754TIP3    H117195   0.439   7.397   3.685  1.2756 -0.9719 -0.0895
 5754TIP3    H217196   0.581   7.445   3.666  0.3246  1.9278 -0.2129
 5755TIP3   OH217197   5.736   5.003   0.624 -0.0670  0.1598 -0.0426
 5755TIP3    H117198   5.694   5.013   0.710 -0.8273 -0.5741 -0.3203
 5755TIP3    H217199   5.816   5.054   0.630  0.4727 -0.8330  1.5035
 5756TIP3   OH217200   4.654   0.106   3.633 -0.3454 -0.2868  0.2648
 5756TIP3    H117201   4.601   0.177   3.668 -1.9473 -1.0414 -0.5925
 5756TIP3    H217202   4.722   0.150   3.582 -1.4336  0.6294 -0.4211
 5757TIP3   OH217203   2.534   1.473   5.114 -0.7806  0.7446  0.2430
 5757TIP3    H117204   2.566   1.428   5.036  0.5930 -0.1572  1.3213
 5757TIP3    H217205   2.453   1.427   5.137  0.3118 -0.8189  1.0061
 5758TIP3   OH217206   4.777   1.037   5.409  0.0901 -0.2316  0.4042
 5758TIP3    H117207   4.801   0.969   5.347 -0.3476  0.6700 -0.7684
 5758TIP3    H217208   4.726   0.991   5.476  0.4299 -1.1830  0.0115
 5759TIP3   OH217209   4.036   0.839   5.430  0.6808  0.4091  0.4760
 5759TIP3    H117210   3.976   0.786   5.483  0.8873  0.4709  0.7717
 5759TIP3    H217211   4.050   0.786   5.352 -0.3554  0.7375  0.0584
 5760TIP3   OH217212   4.284   0.559   5.537  0.0150 -0.2146 -0.4621
 5760TIP3    H117213   4.294   0.508   5.618 -0.0107 -0.8532 -0.8573
 5760TIP3    H217214   4.363   0.539   5.486  0.6220  1.1394 -0.0781
 5761TIP3   OH217215   2.378   2.999   5.655 -0.1883  0.2177  0.4388
 5761TIP3    H117216   2.314   2.956   5.712  1.1969 -0.1225  1.7552
 5761TIP3    H217217   2.403   2.931   5.592  0.5633 -0.3552  1.3362
 5762TIP3   OH217218   6.730   2.656   0.141 -0.5093  0.9025  0.1542
 5762TIP3    H117219   6.783   2.728   0.173  1.5554 -0.3325 -0.4318
 5762TIP3    H217220   6.765   2.636   0.054  1.1553 -2.8998  1.5802
 5763TIP3   OH217221   1.495   0.778   3.187 -0.1564  0.3503  0.5644
 5763TIP3    H117222   1.562   0.827   3.235 -1.9599  2.2845  1.2011
 5763TIP3    H217223   1.435   0.747   3.255 -0.4201 -0.5497 -0.0762
 5764TIP3   OH217224   5.043   0.998   5.538 -0.1038 -0.5318 -0.1712
 5764TIP3    H117225   5.109   1.055   5.500  0.5682 -0.6464  0.8163
 5764TIP3    H217226   4.961   1.026   5.497  0.3065  0.7268 -0.1495
 5765TIP3   OH217227   1.529   2.308   5.641 -0.1587 -0.2515  0.2005
 5765TIP3    H117228   1.510   2.387   5.589 -0.6075 -0.7774 -0.4470
 5765TIP3    H217229   1.623   2.296   5.632 -0.0759  0.2530  0.3592
 5766TIP3   OH217230   6.565   6.541   4.774 -0.3725 -0.0772 -0.3721
 5766TIP3    H117231   6.638   6.529   4.714 -0.1287  2.6803 -0.6893
 5766TIP3    H217232   6.607   6.556   4.859 -0.5055  1.8480 -0.6161
 5767TIP3   OH217233   5.953   1.976   4.699 -0.3807 -0.0574 -0.2005
 5767TIP3    H117234   5.931   1.893   4.743  0.0940  0.2586  0.6350
 5767TIP3    H217235   5.991   1.949   4.616 -1.3667 -0.6568 -0.4753
 5768TIP3   OH217236   4.874   0.243   6.680  0.0538  0.2492 -0.0812
 5768TIP3    H117237   4.806   0.307   6.659 -0.0678  0.2591  0.3239
 5768TIP3    H217238   4.933   0.290   6.740  0.0917  0.0555  0.0342
 5769TIP3   OH217239   5.219   3.306   1.440 -0.2237  0.1138 -0.0376
 5769TIP3    H117240   5.181   3.301   1.352 -2.2640 -2.9917  0.9330
 5769TIP3    H217241   5.178   3.383   1.479 -1.8336 -0.3864 -0.6941
 5770TIP3   OH217242   4.572   0.476   5.039  0.4323 -0.3997 -0.1261
 5770TIP3    H117243   4.612   0.496   4.954  1.7358 -0.8795  0.3748
 5770TIP3    H217244   4.641   0.490   5.103 -1.6156  3.9897  1.3449
 5771TIP3   OH217245   5.849   4.272   0.164 -0.4740 -0.2208 -0.0258
 5771TIP3    H117246   5.925   4.305   0.212  0.5888 -2.5626 -0.0528
 5771TIP3    H217247   5.830   4.341   0.099  1.5781  0.4215  0.0299
 5772TIP3   OH217248   4.196   0.643   6.198 -0.5944 -0.6319  0.3162
 5772TIP3    H117249   4.187   0.555   6.235  0.0073 -0.2740  1.3240
 5772TIP3    H217250   4.106   0.669   6.177 -0.8918 -1.0519  1.0437
 5773TIP3   OH217251   3.852   0.007   5.684  0.0627 -0.3239  0.1563
 5773TIP3    H117252   3.794   0.042   5.616  1.0328 -1.3554 -1.2210
 5773TIP3    H217253   3.822   0.049   5.765 -0.2475  1.9404 -1.0947
 5774TIP3   OH217254   4.043   0.175   3.361 -0.2739 -0.1383  0.2215
 5774TIP3    H117255   4.112   0.114   3.387 -0.2909  0.3330  1.4094
 5774TIP3    H217256   3.962   0.133   3.392 -0.2439  0.6893  1.4639
 5775TIP3   OH217257   7.101   6.976   3.227  0.1853 -0.1310  0.2402
 5775TIP3    H117258   7.173   7.038   3.227 -0.4324  0.5965  0.7361
 5775TIP3    H217259   7.029   7.022   3.184  0.1763 -1.0535 -0.7510
 5776TIP3   OH217260   1.028   7.572   4.727 -0.2181 -0.0352  0.5601
 5776TIP3    H117261   0.933   7.566   4.727 -0.2298 -0.0854 -1.5199
 5776TIP3    H217262   1.047   7.666   4.729 -0.3237 -0.0018  0.0224
 5777TIP3   OH217263   5.084   5.269   0.029 -0.3567 -0.3408  0.3888
 5777TIP3    H117264   5.049   5.337   0.086  0.7331  0.0807  0.5569
 5777TIP3    H217265   5.161   5.309  -0.011 -0.8525 -0.7783 -1.0534
 5778TIP3   OH217266   2.119   7.946   4.219 -0.7090 -0.2391 -0.6450
 5778TIP3    H117267   2.088   7.859   4.244 -2.5016  0.0263 -1.8361
 5778TIP3    H217268   2.205   7.932   4.182 -0.8925 -1.4808 -0.5988
 5779TIP3   OH217269   3.311   1.571   5.759 -0.3062  0.3709 -0.0353
 5779TIP3    H117270   3.330   1.649   5.706  1.7071  1.1232  1.7281
 5779TIP3    H217271   3.383   1.567   5.822 -1.2918 -1.9765  0.9764
 5780TIP3   OH217272   3.680   1.403   4.783  0.4470 -0.2392 -0.5018
 5780TIP3    H117273   3.732   1.480   4.763  0.2654  0.4263  1.5039
 5780TIP3    H217274   3.662   1.363   4.698  0.6602  1.8509 -1.5400
 5781TIP3   OH217275   3.364   0.815   4.574 -0.4309  0.2573  0.0512
 5781TIP3    H117276   3.424   0.772   4.634 -1.5202  0.4598  1.3327
 5781TIP3    H217277   3.310   0.745   4.538  1.7534 -0.1692 -2.5562
 5782TIP3   OH217278   1.931   3.074   5.794 -0.5060 -0.2956  0.1189
 5782TIP3    H117279   1.972   2.988   5.806  0.0487 -0.0791 -0.2194
 5782TIP3    H217280   1.846   3.055   5.756 -0.4250 -0.7032  0.1382
 5783TIP3   OH217281   2.489   1.111   6.143  0.3287  0.0446  0.0635
 5783TIP3    H117282   2.437   1.032   6.133 -0.6115  0.6878 -0.2164
 5783TIP3    H217283   2.516   1.111   6.235  0.3019 -0.5717  0.0700
 5784TIP3   OH217284   5.314   5.428   1.426 -0.3340  0.3582 -0.3533
 5784TIP3    H117285   5.365   5.495   1.472  1.0265 -0.3261 -0.8227
 5784TIP3    H217286   5.339   5.436   1.334  1.0099 -1.7434 -0.2180
 5785TIP3   OH217287   0.682   6.741   4.180 -0.9024  0.1108  0.2618
 5785TIP3    H117288   0.702   6.792   4.102 -0.1311 -1.2331 -0.4360
 5785TIP3    H217289   0.630   6.667   4.148 -1.3146  0.0114  1.1409
 5786TIP3   OH217290   4.573   6.981   0.187 -0.3853 -0.3379 -0.2554
 5786TIP3    H117291   4.482   6.954   0.177  0.2802 -1.7871 -2.9212
 5786TIP3    H217292   4.610   6.919   0.250 -0.9536 -0.4499 -0.0321
 5787TIP3   OH217293   1.341   0.841   5.640  0.0480 -0.0888  0.0824
 5787TIP3    H117294   1.416   0.844   5.699  0.5460  0.2254 -0.5624
 5787TIP3    H217295   1.359   0.907   5.573 -1.5137  1.0619  0.7562
 5788TIP3   OH217296   7.451   7.894   4.399  0.2627 -0.8148  0.1099
 5788TIP3    H117297   7.475   7.983   4.423 -0.1181 -0.7066  0.0925
 5788TIP3    H217298   7.528   7.842   4.420  2.7957  0.3773 -5.3466
 5789TIP3   OH217299   1.126   2.140   5.862  0.1665 -0.0194 -0.2667
 5789TIP3    H117300   1.097   2.119   5.951  2.7935  1.3869  0.9688
 5789TIP3    H217301   1.057   2.196   5.827 -1.3470 -1.3593  0.4961
 5790TIP3   OH217302   4.260   2.289   5.962  0.7022 -0.5997  0.1308
 5790TIP3    H117303   4.342   2.321   5.924  0.2746  0.1111 -0.2027
 5790TIP3    H217304   4.288   2.233   6.035  1.4569  1.2185  1.2733
 5791TIP3   OH217305   6.251   7.419   0.054  0.3339  0.3788  0.1931
 5791TIP3    H117306   6.175   7.477   0.053 -0.7970 -1.0948 -0.2456
 5791TIP3    H217307   6.319   7.467   0.006 -0.2919  1.7003  0.6023
 5792TIP3   OH217308   6.249   2.231   4.797  0.1872 -0.0926  0.5213
 5792TIP3    H117309   6.331   2.226   4.845 -0.9308  0.4834  2.5346
 5792TIP3    H217310   6.248   2.319   4.759  1.7372 -1.0437 -1.8532
 5793TIP3   OH217311   3.107   1.484   6.464  0.2616 -1.0356 -0.3928
 5793TIP3    H117312   3.174   1.421   6.440  0.3660 -0.3781 -1.8669
 5793TIP3    H217313   3.064   1.506   6.382  0.7267  1.3909 -0.0165
 5794TIP3   OH217314   3.288   4.190   5.483  0.3877  0.4009  0.5856
 5794TIP3    H117315   3.298   4.164   5.392  4.3600  1.0387  0.7235
 5794TIP3    H217316   3.230   4.266   5.482  0.7501  0.6571 -1.4528
 5795TIP3   OH217317   1.941   2.231   4.757 -0.0950 -0.1526  0.1793
 5795TIP3    H117318   1.953   2.242   4.662 -0.6217  1.7700  0.3124
 5795TIP3    H217319   2.013   2.281   4.796 -1.5318  1.4878  0.8045
 5796TIP3   OH217320   2.205   0.430   4.683 -0.0366  0.2864 -0.0603
 5796TIP3    H117321   2.284   0.475   4.654 -0.1131  0.0825 -0.5967
 5796TIP3    H217322   2.135   0.493   4.669 -0.2130 -0.1812 -1.2938
 5797TIP3   OH217323   6.524   7.957   3.466 -0.7282  0.6833  0.7048
 5797TIP3    H117324   6.458   7.891   3.445 -1.2199  0.8616  1.6857
 5797TIP3    H217325   6.535   8.006   3.385  1.9729 -2.5887 -1.0384
 5798TIP3   OH217326   2.912   2.123   6.508  0.3011 -0.3769 -0.3716
 5798TIP3    H117327   2.977   2.056   6.485  0.4820  0.1769 -1.5153
 5798TIP3    H217328   2.830   2.089   6.474  0.1416 -0.6738  0.3069
 5799TIP3   OH217329   3.935   0.648   5.569 -0.7812 -0.0146 -0.4214
 5799TIP3    H117330   3.854   0.599   5.584 -1.1961  0.1615 -1.9474
 5799TIP3    H217331   4.005   0.590   5.599 -1.4156 -0.6056 -0.0865
 5800TIP3   OH217332   3.492   0.884   2.394  0.2082  0.6128 -0.5859
 5800TIP3    H117333   3.556   0.927   2.450 -0.6550  1.0328  0.0985
 5800TIP3    H217334   3.428   0.952   2.374  0.1243  0.2721 -1.4899
 5801TIP3   OH217335   0.401   6.100   2.125  0.2861 -0.3090  0.2881
 5801TIP3    H117336   0.305   6.097   2.131  0.2500  1.0118  0.5943
 5801TIP3    H217337   0.418   6.146   2.043  0.6564 -0.1697  0.4426
 5802TIP3   OH217338   2.989   1.609   5.728  0.4903 -0.3412 -0.2873
 5802TIP3    H117339   2.963   1.626   5.819  0.4752  0.0135 -0.3578
 5802TIP3    H217340   3.084   1.616   5.729  0.4707 -0.0563 -0.3561
 5803TIP3   OH217341   4.120   1.566   3.209  0.2245 -0.2982 -0.0715
 5803TIP3    H117342   4.215   1.551   3.200  0.0607 -0.4293 -1.9579
 5803TIP3    H217343   4.105   1.648   3.162 -0.4936  0.1046  0.8657
 5804TIP3   OH217344   4.587   0.793   4.929 -0.4037  0.8849  0.0909
 5804TIP3    H117345   4.608   0.758   4.842 -0.0227  2.2012 -0.3576
 5804TIP3    H217346   4.558   0.717   4.979  1.4223 -0.2649 -0.5470
 5805TIP3   OH217347   4.811   0.586   5.680 -0.8898 -0.0404  0.0933
 5805TIP3    H117348   4.722   0.551   5.675 -0.8687 -0.1303  0.3888
 5805TIP3    H217349   4.845   0.555   5.763 -1.1901  1.4503  0.7875
 5806TIP3   OH217350   4.891   1.650   4.835  0.1927 -0.2518 -0.6637
 5806TIP3    H117351   4.804   1.612   4.847  0.2725  0.1466  1.1946
 5806TIP3    H217352   4.950   1.590   4.879  0.5001  1.1539  0.8887
 5807TIP3   OH217353   3.401   0.159   4.503  0.2668  0.4916 -0.3573
 5807TIP3    H117354   3.445   0.143   4.586  0.1325  0.1995 -0.3418
 5807TIP3    H217355   3.313   0.188   4.527  0.5377  1.3435 -0.3861
 5808TIP3   OH217356   0.783   7.853   4.516 -0.0680 -0.6539  0.2638
 5808TIP3    H117357   0.751   7.942   4.529  2.0759  0.2494 -0.4949
 5808TIP3    H217358   0.863   7.848   4.567 -0.5010 -2.3525  0.7943
 5809TIP3   OH217359   5.452   0.306   4.839 -0.3637 -0.3130 -0.0118
 5809TIP3    H117360   5.467   0.392   4.879  0.0889 -0.7198  0.7093
 5809TIP3    H217361   5.358   0.292   4.848 -0.3329 -0.2055  0.5193
 5810TIP3   OH217362   6.543   2.408   5.190 -0.0821 -0.6073  0.1265
 5810TIP3    H117363   6.611   2.402   5.123  0.3361 -0.7600  0.5534
 5810TIP3    H217364   6.462   2.383   5.145  0.4751 -2.4799  0.0970
 5811TIP3   OH217365   5.423   2.283   5.702  0.1790  0.2452  0.1252
 5811TIP3    H117366   5.443   2.287   5.609  1.1708 -3.6978  0.0689
 5811TIP3    H217367   5.334   2.315   5.709 -0.0765  0.1378 -2.2562
 5812TIP3   OH217368   5.779   2.633   4.770  0.3538  0.2111 -0.1007
 5812TIP3    H117369   5.761   2.726   4.787 -2.7601 -0.4318  0.2981
 5812TIP3    H217370   5.697   2.598   4.737  1.1785 -2.6595  0.7640
 5813TIP3   OH217371   6.718   1.981   5.516  0.0766  0.5522 -0.4271
 5813TIP3    H117372   6.665   1.967   5.438  0.2916  3.0458 -1.0401
 5813TIP3    H217373   6.803   2.009   5.484 -0.3713  3.3683  0.6874
 5814TIP3   OH217374   5.442   0.470   5.171 -0.0522  0.0659 -0.0163
 5814TIP3    H117375   5.446   0.505   5.082 -0.1323 -1.1274 -0.5089
 5814TIP3    H217376   5.369   0.409   5.169  0.4490 -0.5687  0.6383
 5815TIP3   OH217377   1.084   7.847   4.692  0.1444 -1.0138  0.4455
 5815TIP3    H117378   1.140   7.889   4.758  0.3304 -0.2893 -0.1631
 5815TIP3    H217379   1.141   7.837   4.616 -0.9806  1.2160 -0.7442
 5816TIP3   OH217380   4.116   0.652   5.259 -0.1534  0.4701 -0.1293
 5816TIP3    H117381   4.108   0.557   5.263 -0.7864  0.5928  1.7546
 5816TIP3    H217382   4.211   0.667   5.251 -0.2167 -0.3641 -3.0793
 5817TIP3   OH217383   2.825   5.711   4.897  0.0833 -0.1806  0.2288
 5817TIP3    H117384   2.773   5.783   4.864 -0.1475 -0.5080 -0.1332
 5817TIP3    H217385   2.811   5.711   4.991  1.0519  1.0071  0.3863
 5818TIP3   OH217386   6.026   0.748   5.740 -0.0048  0.2225 -0.1113
 5818TIP3    H117387   6.019   0.761   5.645  0.5341 -0.5491 -0.2640
 5818TIP3    H217388   6.071   0.663   5.749  0.9440  0.8189  0.8340
 5819TIP3   OH217389   4.139   1.155   4.017  0.3574 -0.0028  0.4369
 5819TIP3    H117390   4.201   1.221   4.047 -0.7940  1.6589 -0.6819
 5819TIP3    H217391   4.056   1.180   4.058 -0.0403 -0.8937  0.1897
 5820TIP3   OH217392   4.658   1.369   5.494 -0.2541 -0.2967 -0.0558
 5820TIP3    H117393   4.577   1.329   5.463 -0.5633  2.1843 -2.6571
 5820TIP3    H217394   4.726   1.305   5.472 -1.2103 -1.2779 -0.2113
 5821TIP3   OH217395   5.081   0.593   3.001 -0.7703  0.6794  0.1651
 5821TIP3    H117396   5.080   0.648   3.079  0.8284 -0.7635  1.2298
 5821TIP3    H217397   5.161   0.541   3.008 -1.7240 -1.0861 -1.2938
 5822TIP3   OH217398   2.359   7.792   5.225  0.4283 -0.2696  0.5553
 5822TIP3    H117399   2.442   7.839   5.218  0.2264  0.1312  0.8886
 5822TIP3    H217400   2.292   7.860   5.221  0.1597 -0.4522  1.9218
 5823TIP3   OH217401   4.828   0.437   2.934 -0.2392 -0.4673  0.1341
 5823TIP3    H117402   4.915   0.471   2.956 -0.3324 -0.8821  1.2031
 5823TIP3    H217403   4.777   0.514   2.911 -0.1334  0.0066  1.4529
 5824TIP3   OH217404   4.080   2.135   5.421  0.0731 -0.0764 -0.3849
 5824TIP3    H117405   4.026   2.104   5.493 -0.5707  2.1874  0.1254
 5824TIP3    H217406   4.152   2.072   5.417 -0.4117 -0.7964  1.5708
 5825TIP3   OH217407   5.467   2.355   4.096 -0.1808  0.2414  0.0519
 5825TIP3    H117408   5.479   2.284   4.034 -1.0592  0.1139  0.0152
 5825TIP3    H217409   5.460   2.312   4.181  1.4303  0.4442  0.3063
 5826TIP3   OH217410   2.190   7.289   4.029  0.7769  0.6518 -0.1870
 5826TIP3    H117411   2.109   7.269   3.983  0.1794  1.2875  0.5632
 5826TIP3    H217412   2.187   7.236   4.109  2.6568 -1.8379 -1.6910
 5827TIP3   OH217413   4.111   1.954   4.789 -0.3900 -0.3248  0.4505
 5827TIP3    H117414   4.167   1.968   4.865 -3.8978 -0.5971  3.2179
 5827TIP3    H217415   4.088   1.861   4.793 -2.4965  0.1557  0.5211
 5828TIP3   OH217416   5.621   0.382   4.148  0.0850 -0.0701 -0.3752
 5828TIP3    H117417   5.582   0.467   4.168  2.8196  1.1180  0.0853
 5828TIP3    H217418   5.549   0.319   4.162 -1.3826  1.9290  1.3840
 5829TIP3   OH217419   5.759   0.394   2.655  0.0530  0.0128  0.1828
 5829TIP3    H117420   5.665   0.405   2.641  0.4061  2.0035 -0.8029
 5829TIP3    H217421   5.780   0.310   2.615 -0.9981  0.3698 -1.1348
 5830TIP3   OH217422   5.135   2.121   4.575  0.3749 -0.0345 -0.1156
 5830TIP3    H117423   5.142   2.026   4.582 -1.7230 -0.0755  1.8067
 5830TIP3    H217424   5.049   2.137   4.536  1.1884  1.0659 -1.5190
 5831TIP3   OH217425   6.812   4.205   0.712  0.4882 -0.1780 -0.4532
 5831TIP3    H117426   6.723   4.183   0.683  0.6228 -1.1352 -0.1617
 5831TIP3    H217427   6.836   4.133   0.770  0.6207  1.1860  1.2060
 5832TIP3   OH217428   5.832   0.053   4.128 -0.1235 -0.0155 -0.4058
 5832TIP3    H117429   5.781   0.082   4.203 -0.0607  0.0756 -0.3976
 5832TIP3    H217430   5.918   0.030   4.165  0.4817  1.6893 -0.6906
 5833TIP3   OH217431   3.276   0.418   4.680  0.3980  0.9204 -0.1890
 5833TIP3    H117432   3.349   0.456   4.729  0.4502 -0.7886  1.1209
 5833TIP3    H217433   3.202   0.422   4.740 -0.2892  1.5273 -1.0672
 5834TIP3   OH217434   4.497   1.583   5.351 -0.2514 -0.2088 -0.2540
 5834TIP3    H117435   4.537   1.497   5.346 -0.8116 -0.5326  0.7366
 5834TIP3    H217436   4.533   1.621   5.431 -1.8985 -0.4893  0.6233
 5835TIP3   OH217437   5.829   2.009   5.534  0.3944 -0.0576 -0.8071
 5835TIP3    H117438   5.785   2.094   5.538  0.6486  0.0655 -0.6898
 5835TIP3    H217439   5.818   1.982   5.442  0.7877  0.3507 -0.9777
 5836TIP3   OH217440   6.477   5.670   1.074  0.7352  0.2362 -0.3911
 5836TIP3    H117441   6.412   5.675   1.145 -0.0039 -1.3739 -0.9189
 5836TIP3    H217442   6.459   5.746   1.019  1.3886  1.5591  1.2005
 5837TIP3   OH217443   2.955   6.557   4.468 -0.6959 -0.8107  0.1634
 5837TIP3    H117444   2.958   6.652   4.478 -1.9906 -0.7659  0.1784
 5837TIP3    H217445   3.001   6.523   4.544  2.6977 -0.1472 -1.4942
 5838TIP3   OH217446   0.446   5.764   0.763 -0.0311 -0.0292 -0.4219
 5838TIP3    H117447   0.427   5.824   0.692  0.2790  1.9908  1.1631
 5838TIP3    H217448   0.529   5.795   0.800 -1.5207  0.6449  2.5240
 5839TIP3   OH217449   8.243   1.220   4.043 -0.4008  0.3631 -0.2045
 5839TIP3    H117450   8.270   1.307   4.072 -1.2673  0.8289 -0.7799
 5839TIP3    H217451   8.150   1.216   4.062 -0.2048 -0.7430  0.5491
 5840TIP3   OH217452   2.719   7.541   3.753 -0.1147  0.3883  0.8700
 5840TIP3    H117453   2.712   7.511   3.844 -1.3718  0.5257  0.8267
 5840TIP3    H217454   2.809   7.518   3.728  0.7556  1.7118  2.6186
 5841TIP3   OH217455   4.227   0.809   5.638 -0.0711 -0.2504  0.3103
 5841TIP3    H117456   4.167   0.825   5.565  2.6702 -1.2809 -2.2797
 5841TIP3    H217457   4.252   0.717   5.630  0.9035 -0.1770  2.0647
 5842TIP3   OH217458   3.229   1.171   4.809 -0.2554  1.0483 -0.5852
 5842TIP3    H117459   3.213   1.150   4.717  1.3036  0.2792 -0.6822
 5842TIP3    H217460   3.190   1.098   4.857  1.3482  0.0415 -0.7613
 5843TIP3   OH217461   7.651   1.262   6.023  0.4661  0.3023  0.8013
 5843TIP3    H117462   7.713   1.241   5.953 -1.7306  0.6057 -1.3219
 5843TIP3    H217463   7.587   1.191   6.021 -1.5872  2.1068  0.0713
 5844TIP3   OH217464   2.147   7.874   6.306 -0.1280 -0.2699  0.1381
 5844TIP3    H117465   2.197   7.914   6.378 -0.0511 -0.2787  0.0899
 5844TIP3    H217466   2.179   7.784   6.302 -0.0864 -0.2520  0.0528
 5845TIP3   OH217467   4.392   1.282   5.398  0.3522  0.0497  0.2847
 5845TIP3    H117468   4.305   1.311   5.427  0.0388 -1.3418  0.8161
 5845TIP3    H217469   4.384   1.186   5.394  1.2769  0.0502 -1.6136
 5846TIP3   OH217470   2.984   7.490   3.773  0.1256  0.4981 -0.0573
 5846TIP3    H117471   3.049   7.549   3.812  0.1144  0.7469 -0.4090
 5846TIP3    H217472   2.963   7.428   3.842  2.0462 -0.6836 -0.4782
 5847TIP3   OH217473   6.905   2.282   3.890  0.3825  0.2089 -0.2174
 5847TIP3    H117474   6.986   2.256   3.933 -0.0802  0.6326  0.9488
 5847TIP3    H217475   6.931   2.347   3.825  0.9775  0.4153  0.2186
 5848TIP3   OH217476   6.485   1.350   4.303 -0.7386  0.5904  0.3245
 5848TIP3    H117477   6.553   1.304   4.352 -1.1331  0.5718  0.8599
 5848TIP3    H217478   6.464   1.292   4.230 -1.3117 -0.1305  1.0553
 5849TIP3   OH217479   6.016   0.923   5.988  0.0037 -0.2396 -0.2089
 5849TIP3    H117480   6.031   0.881   6.073  1.3956  0.3660 -0.1540
 5849TIP3    H217481   5.999   0.850   5.928 -1.4616 -0.6436  0.6770
 5850TIP3   OH217482   0.588   8.020   4.726 -0.2821 -0.0463  0.4909
 5850TIP3    H117483   0.590   7.928   4.699 -0.9806  0.8069 -2.6491
 5850TIP3    H217484   0.497   8.035   4.753 -1.0962  0.6062 -2.4511
 5851TIP3   OH217485   3.279   7.063   5.697 -0.3661 -0.5935  0.6509
 5851TIP3    H117486   3.360   7.071   5.648 -0.6060 -0.4388  0.2783
 5851TIP3    H217487   3.219   7.124   5.655 -1.0528 -1.5960  0.1537
 5852TIP3   OH217488   0.317   6.136   3.163  0.3510 -0.4059  0.7908
 5852TIP3    H117489   0.253   6.193   3.205 -0.3347 -0.7966  0.2892
 5852TIP3    H217490   0.383   6.196   3.126 -0.6024  0.0836 -0.1329
 5853TIP3   OH217491   4.786   2.412   4.657 -0.5256  0.0826 -0.1423
 5853TIP3    H117492   4.710   2.357   4.637 -1.0792  1.1958 -1.2005
 5853TIP3    H217493   4.754   2.501   4.644  0.7022  0.6008  0.3570
 5854TIP3   OH217494   3.164   0.583   3.217  1.0315 -0.2460 -0.0126
 5854TIP3    H117495   3.239   0.523   3.209  1.2783 -0.2518  2.0825
 5854TIP3    H217496   3.204   0.669   3.231  0.6544  0.0944 -0.9825
 5855TIP3   OH217497   4.102   1.778   5.633  0.0627 -0.1675  0.1904
 5855TIP3    H117498   4.053   1.841   5.580 -0.3786 -0.3028  0.4302
 5855TIP3    H217499   4.114   1.823   5.717  1.9946  0.6051 -0.4762
 5856TIP3   OH217500   4.467   7.181   6.145  0.1303  0.0426  0.0276
 5856TIP3    H117501   4.494   7.224   6.064 -1.1354  1.2934  0.2484
 5856TIP3    H217502   4.412   7.246   6.189  0.9410 -0.5439  1.9677
 5857TIP3   OH217503   7.077   0.147   3.975 -0.2649 -0.0222 -0.5254
 5857TIP3    H117504   7.072   0.242   3.978  1.1229  0.0194  0.5446
 5857TIP3    H217505   6.986   0.118   3.980 -0.5654  1.1832  1.4695
 5858TIP3   OH217506   5.127   0.330   3.976  0.1896  0.7226 -0.0302
 5858TIP3    H117507   5.183   0.271   4.025  0.4411  0.5614 -0.5139
 5858TIP3    H217508   5.038   0.297   3.991  0.3321  0.2045 -0.3260
 5859TIP3   OH217509   2.474   6.141   1.616 -0.4900 -0.1502 -0.2767
 5859TIP3    H117510   2.447   6.178   1.701  0.0238 -0.7873  0.1718
 5859TIP3    H217511   2.414   6.068   1.602 -1.8260  1.1228 -1.3999
 5860TIP3   OH217512   7.556   4.837   0.888 -0.1199  0.3783  0.4638
 5860TIP3    H117513   7.626   4.773   0.904  0.9482  1.0382 -1.4282
 5860TIP3    H217514   7.553   4.890   0.968  1.0716 -0.0903  0.8342
 5861TIP3   OH217515   5.218   0.123   3.824  0.5591 -0.0161 -0.0573
 5861TIP3    H117516   5.200   0.150   3.735  1.6128 -0.8317 -0.5407
 5861TIP3    H217517   5.212   0.203   3.876 -0.3320  0.4099 -0.8069
 5862TIP3   OH217518   1.672   7.308   4.145  0.0777 -0.1219  0.5216
 5862TIP3    H117519   1.712   7.221   4.153 -0.4502 -0.4071  0.1132
 5862TIP3    H217520   1.649   7.315   4.052 -0.6595  0.1085  0.7194
 5863TIP3   OH217521   1.689   5.681   5.120 -0.0872  0.1368  0.1785
 5863TIP3    H117522   1.641   5.736   5.058 -0.5900 -0.5616 -0.0624
 5863TIP3    H217523   1.630   5.674   5.196 -0.6460 -1.2133 -0.3584
 5864TIP3   OH217524   5.456   0.605   3.894 -0.1379 -0.0137 -0.1279
 5864TIP3    H117525   5.510   0.621   3.971 -0.3254 -0.4134  0.0909
 5864TIP3    H217526   5.513   0.624   3.820  0.1612  0.0101  0.1074
 5865TIP3   OH217527   2.895   1.298   5.313 -0.0629 -0.7333  0.1703
 5865TIP3    H117528   2.970   1.239   5.310  0.0114 -0.6545  0.5326
 5865TIP3    H217529   2.835   1.257   5.376 -1.2123 -1.8623 -1.5959
 5866TIP3   OH217530   5.759   1.581   3.351  0.3267  0.3309  0.0580
 5866TIP3    H117531   5.823   1.567   3.421 -1.5997 -1.1206  1.5816
 5866TIP3    H217532   5.782   1.666   3.315  1.1827  1.2682  2.6784
 5867TIP3   OH217533   2.444   6.408   4.292 -0.3079  0.5174 -0.1528
 5867TIP3    H117534   2.409   6.351   4.361 -0.9395  0.3154 -0.6333
 5867TIP3    H217535   2.383   6.397   4.219  0.0385  1.1710 -0.5433
 5868TIP3   OH217536   0.766   6.912   3.972 -0.1758 -0.4246  0.5633
 5868TIP3    H117537   0.731   6.998   3.993 -0.2119 -0.3395  0.1492
 5868TIP3    H217538   0.808   6.923   3.887 -0.0628 -0.7829  0.5715
 5869TIP3   OH217539   5.963   1.790   3.373  0.4150 -0.3892  0.1866
 5869TIP3    H117540   5.899   1.824   3.436  0.8493 -0.2438  0.5513
 5869TIP3    H217541   6.048   1.805   3.414  0.6286 -1.7397  0.2603
 5870TIP3   OH217542   5.747   0.892   4.560  0.2855  0.0255 -0.3250
 5870TIP3    H117543   5.759   0.880   4.654 -2.3307  0.3248  0.0772
 5870TIP3    H217544   5.815   0.839   4.520 -0.0089 -1.9388  1.7161
 5871TIP3   OH217545   2.135   7.422   2.543  0.3507  0.6968  0.5874
 5871TIP3    H117546   2.212   7.474   2.519  0.6484 -0.3055 -0.6898
 5871TIP3    H217547   2.064   7.486   2.550  0.3155  1.1143 -2.6739
 5872TIP3   OH217548   5.968   1.095   5.348 -0.1362 -0.3634 -0.0216
 5872TIP3    H117549   5.895   1.157   5.346 -0.7794 -1.1351 -1.0021
 5872TIP3    H217550   6.023   1.125   5.420 -1.7834 -0.1707  1.1836
 5873TIP3   OH217551   3.490   0.041   4.259 -0.1857 -0.2749 -0.1010
 5873TIP3    H117552   3.464   0.063   4.349  0.0678 -0.7492  0.0913
 5873TIP3    H217553   3.583   0.021   4.266  0.2481  1.3885 -0.7815
 5874TIP3   OH217554   5.224   0.516   5.635 -0.0628  0.0254 -0.0469
 5874TIP3    H117555   5.188   0.605   5.631 -0.9766  0.0618  5.1187
 5874TIP3    H217556   5.317   0.527   5.615 -0.3931  1.9645 -0.6146
 5875TIP3   OH217557   1.479   6.714   4.299  0.3232 -0.0061 -0.4544
 5875TIP3    H117558   1.462   6.807   4.283  0.0844 -0.4648 -3.1559
 5875TIP3    H217559   1.412   6.669   4.248 -0.0413 -1.6861  1.4365
 5876TIP3   OH217560   4.520   2.338   5.846  0.2192 -0.4599  0.0751
 5876TIP3    H117561   4.572   2.341   5.926  1.5824  0.0254 -0.8209
 5876TIP3    H217562   4.572   2.287   5.785 -0.6913 -0.5949 -0.6084
 5877TIP3   OH217563   4.312   0.787   6.440 -0.7845 -0.4085  0.5451
 5877TIP3    H117564   4.297   0.874   6.403 -1.8640  0.4780  2.9611
 5877TIP3    H217565   4.313   0.728   6.364  0.0483  1.7069 -1.1144
 5878TIP3   OH217566   7.891   0.788   4.452 -0.3582 -0.3764 -0.3875
 5878TIP3    H117567   7.806   0.782   4.494 -0.2902  1.8535  0.1043
 5878TIP3    H217568   7.952   0.808   4.524 -0.0682  2.2573 -1.3359
 5879TIP3   OH217569   4.408   0.566   6.045  0.0263 -0.3152 -0.1034
 5879TIP3    H117570   4.342   0.554   6.113 -0.1629 -0.8958 -0.3856
 5879TIP3    H217571   4.489   0.584   6.093 -0.3997  0.7610  0.2386
 5880TIP3   OH217572   7.624   0.716   4.919 -0.1532 -0.3849 -0.0161
 5880TIP3    H117573   7.537   0.676   4.917 -0.2439 -0.3847  2.4684
 5880TIP3    H217574   7.626   0.765   5.001  1.9438  0.2220 -0.3941
 5881TIP3   OH217575   4.008   1.377   4.467  0.4624  0.0633 -0.0725
 5881TIP3    H117576   4.038   1.466   4.485  1.1814  0.1199 -1.5093
 5881TIP3    H217577   3.923   1.389   4.424  0.1901  0.0288  0.4561
 5882TIP3   OH217578   3.805   0.221   4.013  0.1744 -0.5473 -0.6007
 5882TIP3    H117579   3.847   0.306   4.018 -2.3734  0.8134 -1.4895
 5882TIP3    H217580   3.781   0.201   4.104  0.8823 -0.3896 -0.3750
 5883TIP3   OH217581   2.233   7.658   1.939 -0.3842  0.4056 -0.0365
 5883TIP3    H117582   2.244   7.689   2.029  0.3522 -0.1860  0.0851
 5883TIP3    H217583   2.212   7.565   1.949  1.4287 -0.0803 -0.5175
 5884TIP3   OH217584   3.434   0.646   2.539 -0.5813  0.8187  0.1276
 5884TIP3    H117585   3.505   0.694   2.496  0.3143  0.5082  1.2268
 5884TIP3    H217586   3.354   0.688   2.508  0.1863  3.4963  1.6000
 5885TIP3   OH217587   4.732   2.751   4.041  0.6836  0.4051 -0.2278
 5885TIP3    H117588   4.785   2.829   4.025  1.8440 -0.1167  1.0228
 5885TIP3    H217589   4.769   2.712   4.119 -0.6015 -0.8070 -0.1979
 5886TIP3   OH217590   5.918   0.584   4.878 -0.3691  0.4167 -0.5748
 5886TIP3    H117591   5.858   0.560   4.949  0.1506  1.0686  0.1053
 5886TIP3    H217592   5.863   0.589   4.800 -0.8600 -0.8275 -0.3250
 5887TIP3   OH217593   1.387   6.541   6.642  0.8976  0.0311  0.4319
 5887TIP3    H117594   1.362   6.492   6.563 -0.7882  1.0823  0.2984
 5887TIP3    H217595   1.454   6.602   6.611  0.0456  0.6298 -0.2665
 5888TIP3   OH217596   6.043   2.107   4.912  0.4142  0.0760  0.0233
 5888TIP3    H117597   6.003   2.067   4.834 -1.6842  0.9098  0.6300
 5888TIP3    H217598   6.118   2.156   4.879  0.7621 -1.2331 -1.1971
 5889TIP3   OH217599   5.282   0.800   4.112 -0.4130 -0.3587  0.2977
 5889TIP3    H117600   5.241   0.730   4.061 -0.1405 -0.7967  0.6764
 5889TIP3    H217601   5.363   0.762   4.146 -0.3361  0.0930  0.6337
 5890TIP3   OH217602   4.337   2.668   2.367  0.5984 -0.2594 -0.3798
 5890TIP3    H117603   4.352   2.634   2.278  0.6489 -0.6635 -0.2174
 5890TIP3    H217604   4.295   2.596   2.414 -0.1565  0.2308 -0.2974
 5891TIP3   OH217605   2.629   6.886   5.400 -0.6051  0.6370  0.5221
 5891TIP3    H117606   2.615   6.938   5.479  1.9198  1.4715  0.4344
 5891TIP3    H217607   2.658   6.801   5.432 -0.2911  0.7434  0.5223
 5892TIP3   OH217608   4.242   0.263   4.350  0.1563  0.2564 -0.1979
 5892TIP3    H117609   4.217   0.233   4.438  0.7492 -1.1875 -0.4958
 5892TIP3    H217610   4.337   0.252   4.347 -0.1244 -2.3316 -1.9171
 5893TIP3   OH217611   5.906   1.443   3.596  0.1764  0.4526  0.0068
 5893TIP3    H117612   5.985   1.461   3.545 -0.5255  0.2891 -1.1511
 5893TIP3    H217613   5.930   1.464   3.686  0.8013  2.7119 -0.6759
 5894TIP3   OH217614   4.292   1.392   4.087 -0.7320 -0.2278 -0.2162
 5894TIP3    H117615   4.332   1.363   4.169 -0.3531 -0.7785 -0.5918
 5894TIP3    H217616   4.241   1.469   4.111 -0.4821 -0.2844  0.5053
 5895TIP3   OH217617   1.788   6.638   5.323  0.5164  0.0453 -0.5314
 5895TIP3    H117618   1.713   6.587   5.291  1.6692 -0.0665 -3.1386
 5895TIP3    H217619   1.761   6.729   5.313 -0.8923  0.0543  2.5783
 5896TIP3   OH217620   4.042   0.343   4.162 -0.0761 -0.4999  0.4393
 5896TIP3    H117621   3.986   0.271   4.193 -0.0696 -1.1263 -0.9746
 5896TIP3    H217622   4.123   0.333   4.211  0.9336 -3.0989 -1.6060
 5897TIP3   OH217623   6.372   1.379   4.883  0.7038 -0.1020 -0.0828
 5897TIP3    H117624   6.401   1.336   4.803  1.3457 -1.9058  1.0779
 5897TIP3    H217625   6.316   1.315   4.926 -1.0529  1.5042  0.0873
 5898TIP3   OH217626   4.923   0.397   4.369  0.0637 -0.1838 -0.2340
 5898TIP3    H117627   4.860   0.406   4.298 -0.4279 -3.5664 -0.3309
 5898TIP3    H217628   4.877   0.344   4.435  1.8570 -0.4160  0.8695
 5899TIP3   OH217629   4.471  -0.000   2.564  0.3312  0.1143  0.2988
 5899TIP3    H117630   4.428   0.035   2.642 -0.4801 -0.1651 -0.0252
 5899TIP3    H217631   4.504   0.077   2.518  0.5824  0.2974  0.7736
 5900TIP3   OH217632   7.200   6.162   0.481  0.6373  0.6559 -0.3931
 5900TIP3    H117633   7.191   6.124   0.569 -1.4290  0.0829 -0.8326
 5900TIP3    H217634   7.294   6.164   0.466  0.8889 -2.6467  0.3680
 5901TIP3   OH217635   5.104   1.272   3.079 -0.1415 -0.0659  0.0857
 5901TIP3    H117636   5.088   1.288   2.986 -1.3965 -0.3201  0.2596
 5901TIP3    H217637   5.056   1.191   3.098  0.2072 -0.0743  0.9356
 5902TIP3   OH217638   6.079   2.446   4.537 -0.2907  0.3257  0.8193
 5902TIP3    H117639   6.080   2.522   4.478  2.8240 -0.8285 -0.7080
 5902TIP3    H217640   6.075   2.370   4.480 -0.1317 -0.7476  2.1902
 5903TIP3   OH217641   5.704   1.962   4.524 -0.3804 -0.3788 -0.4574
 5903TIP3    H117642   5.766   1.988   4.455 -0.3910  1.9956  0.3753
 5903TIP3    H217643   5.760   1.939   4.598 -0.4675  1.0300  0.0499
 5904TIP3   OH217644   4.567   1.107   3.004  0.1561  0.2524 -0.0290
 5904TIP3    H117645   4.519   1.130   2.925 -1.6401  0.1635  1.0171
 5904TIP3    H217646   4.505   1.120   3.075  2.0576  1.4027  1.5052
 5905TIP3   OH217647   5.184   0.461   5.023 -0.3241  0.1694 -0.2069
 5905TIP3    H117648   5.149   0.550   5.029 -3.1619 -0.9009 -0.3949
 5905TIP3    H217649   5.194   0.445   4.930 -2.1526 -0.5813 -0.2820
 5906TIP3   OH217650   4.934   1.219   6.403  0.0318 -0.3303  0.1466
 5906TIP3    H117651   4.927   1.156   6.331 -1.6915 -1.3021  1.1415
 5906TIP3    H217652   4.880   1.183   6.473  0.7558  1.1804  1.5337
 5907TIP3   OH217653   3.810   2.853   1.459  0.3292  0.0254 -0.7147
 5907TIP3    H117654   3.717   2.837   1.475  0.3888 -0.0987 -0.4904
 5907TIP3    H217655   3.829   2.934   1.506  0.5180 -0.3711 -0.1035
 5908TIP3   OH217656   2.078   0.977   5.708  0.4414 -0.1466  0.8085
 5908TIP3    H117657   2.148   1.009   5.652  0.5516 -1.4218  0.2009
 5908TIP3    H217658   2.009   0.950   5.647 -0.8444  1.6923  1.4172
 5909TIP3   OH217659   6.530   2.148   3.744 -0.5202  0.3565 -0.3688
 5909TIP3    H117660   6.553   2.231   3.701 -0.3671  1.3487  1.5677
 5909TIP3    H217661   6.613   2.114   3.776 -0.7465  0.0858 -0.0697
 5910TIP3   OH217662   0.245   5.798   0.298 -0.6066  0.6105  0.1359
 5910TIP3    H117663   0.171   5.858   0.310 -1.3717  0.0581 -1.5846
 5910TIP3    H217664   0.255   5.792   0.203  0.1851 -1.1034  0.3211
 5911TIP3   OH217665   3.501   0.970   2.668  0.5081  0.2452 -0.2280
 5911TIP3    H117666   3.409   0.988   2.646  0.5813  2.3741  1.0246
 5911TIP3    H217667   3.499   0.884   2.710 -0.7873 -0.0970 -0.9522
 5912TIP3   OH217668   2.987   7.943   5.646 -0.3422  0.3552 -0.3319
 5912TIP3    H117669   2.999   7.955   5.740 -0.0359  0.9468 -0.4475
 5912TIP3    H217670   2.991   7.848   5.634  0.2009  0.3116  0.1721
 5913TIP3   OH217671   0.701   2.968   0.276  0.7835 -0.5179  0.1652
 5913TIP3    H117672   0.740   3.008   0.354  0.3942  0.7127 -0.2629
 5913TIP3    H217673   0.751   2.887   0.264  1.9912  0.1257  0.6893
 5914TIP3   OH217674   5.619   0.540   4.681  0.4847 -0.1399 -0.3287
 5914TIP3    H117675   5.691   0.557   4.620 -0.3168  0.6400 -1.0588
 5914TIP3    H217676   5.546   0.592   4.649  0.0738  0.3648  1.3474
 5915TIP3   OH217677   4.282   1.295   4.382  0.0961  0.1086 -0.1694
 5915TIP3    H117678   4.192   1.318   4.361  0.4832 -0.7498 -2.9754
 5915TIP3    H217679   4.329   1.379   4.382 -0.2191  0.2907 -1.2777
 5916TIP3   OH217680   5.465   0.571   4.924  0.0541 -0.6658  0.1239
 5916TIP3    H117681   5.496   0.587   4.835 -3.4181  0.5946 -0.9471
 5916TIP3    H217682   5.465   0.657   4.966 -1.0307 -0.7806  0.3885
 5917TIP3   OH217683   5.544   0.440   6.655 -0.1270 -0.2210 -0.0265
 5917TIP3    H117684   5.475   0.419   6.716  0.8075  1.0230  1.4971
 5917TIP3    H217685   5.527   0.385   6.579 -1.6512 -1.3324  1.1023
 5918TIP3   OH217686   0.804   5.919   5.022  0.6812  0.1054 -0.5133
 5918TIP3    H117687   0.875   5.862   5.050  0.0676  0.2001  1.2800
 5918TIP3    H217688   0.844   6.006   5.014  0.9477 -0.0013 -0.3141
 5919TIP3   OH217689   5.225   4.184   5.701 -0.3350  0.0487  0.2913
 5919TIP3    H117690   5.244   4.090   5.695 -1.0116 -0.0809  0.1341
 5919TIP3    H217691   5.198   4.196   5.792 -0.2567  0.0858  0.3088
 5920TIP3   OH217692   5.423   0.965   4.742 -0.2060 -0.1620 -0.0771
 5920TIP3    H117693   5.380   1.002   4.819  0.7939  1.9179 -0.4841
 5920TIP3    H217694   5.364   0.984   4.669 -0.3024 -0.5320 -0.0964
 5921TIP3   OH217695   1.470   6.071   5.047 -0.2582 -0.4394 -0.2410
 5921TIP3    H117696   1.418   6.103   4.973 -0.1602  2.5617  0.9287
 5921TIP3    H217697   1.407   6.059   5.118 -0.0833 -1.5857 -0.2687
 5922TIP3   OH217698   4.179   1.098   5.159  0.0740 -0.1379 -0.3264
 5922TIP3    H117699   4.207   1.053   5.079  0.6838  0.0533 -0.2173
 5922TIP3    H217700   4.260   1.123   5.203 -0.2612 -0.0691  0.2603
 5923TIP3   OH217701   7.898   2.931   6.450 -0.4574 -0.5747  0.9059
 5923TIP3    H117702   7.815   2.889   6.474  0.1117 -1.3409  1.5638
 5923TIP3    H217703   7.961   2.898   6.515  0.1842  0.6323  0.9132
 5924TIP3   OH217704   3.691   0.539   5.593 -0.2841 -0.0792 -0.3222
 5924TIP3    H117705   3.728   0.452   5.609 -2.3982 -1.0582 -0.5955
 5924TIP3    H217706   3.655   0.535   5.505 -1.4886  0.6781  0.1206
 5925TIP3   OH217707   3.505   0.601   5.803  0.0608  0.7250  0.0390
 5925TIP3    H117708   3.513   0.551   5.884 -0.6978  0.5060 -0.0159
 5925TIP3    H217709   3.578   0.572   5.749 -1.2678 -1.5172 -0.6191
 5926TIP3   OH217710   3.934   7.755   5.512  0.3076  0.0262 -0.2168
 5926TIP3    H117711   3.962   7.671   5.475 -1.4604 -1.0999  0.8973
 5926TIP3    H217712   3.876   7.792   5.446  2.0581  0.9856 -1.2518
 5927TIP3   OH217713   4.892   1.773   4.269  0.1409 -0.5944  0.0021
 5927TIP3    H117714   4.834   1.704   4.235 -1.7748 -0.0200  2.0227
 5927TIP3    H217715   4.905   1.831   4.194 -0.5022 -1.6497 -0.9547
 5928TIP3   OH217716   4.415   2.216   4.878 -0.3707  0.5503 -0.2605
 5928TIP3    H117717   4.340   2.270   4.853 -0.1779  1.6986  1.5338
 5928TIP3    H217718   4.456   2.192   4.795 -0.7930  2.6985 -1.1336
 5929TIP3   OH217719   4.401   0.567   2.274 -0.4767 -0.4374  0.3932
 5929TIP3    H117720   4.382   0.624   2.199 -1.7256 -0.3056  0.7916
 5929TIP3    H217721   4.401   0.626   2.349  1.0528 -0.5258  0.4691
 5930TIP3   OH217722   3.557   1.355   5.719 -0.0458  0.0516  0.1219
 5930TIP3    H117723   3.557   1.434   5.666 -0.1064 -0.2194 -0.2884
 5930TIP3    H217724   3.467   1.323   5.714 -0.1387  0.2187  0.6838
 5931TIP3   OH217725   5.277   3.167   4.819  0.1918  0.5687 -0.3098
 5931TIP3    H117726   5.309   3.077   4.819 -0.4259  0.3339  1.1789
 5931TIP3    H217727   5.273   3.191   4.727  3.0480  0.0361 -0.6233
 5932TIP3   OH217728   4.154   1.607   4.586 -0.9190  0.2380 -0.1092
 5932TIP3    H117729   4.238   1.601   4.633 -0.0515 -0.7662 -1.7131
 5932TIP3    H217730   4.126   1.697   4.599  0.5865  0.6865  0.1968
 5933TIP3   OH217731   4.515   0.452   5.712 -0.2019 -0.1271  0.1283
 5933TIP3    H117732   4.570   0.406   5.775 -0.9587 -0.9486  0.1866
 5933TIP3    H217733   4.454   0.386   5.680  0.1245  0.3075 -1.4056
 5934TIP3   OH217734   5.652   1.670   4.974 -0.4432 -0.4266 -0.5781
 5934TIP3    H117735   5.631   1.576   4.976  0.0024 -0.5227 -0.3971
 5934TIP3    H217736   5.567   1.713   4.988 -0.8536 -0.7749 -1.9124
 5935TIP3   OH217737   6.785   1.462   4.141  0.3991  0.2016  0.3868
 5935TIP3    H117738   6.828   1.537   4.100  0.4293 -0.0388 -0.0302
 5935TIP3    H217739   6.813   1.465   4.232 -0.0672  1.0418  0.5156
 5936TIP3   OH217740   3.542   6.772   5.715  0.1574 -0.4711 -0.1256
 5936TIP3    H117741   3.497   6.742   5.636 -4.1309 -0.7100  2.2880
 5936TIP3    H217742   3.581   6.856   5.690  2.1730 -2.3136 -3.5271
 5937TIP3   OH217743   4.667   1.915   5.070  0.4296 -0.5858  0.3888
 5937TIP3    H117744   4.731   1.856   5.110  0.4881 -2.4158 -2.2537
 5937TIP3    H217745   4.718   1.991   5.042  1.3294 -1.6798 -0.9858
 5938TIP3   OH217746   5.366   1.706   5.422  0.0111  0.2224  0.1233
 5938TIP3    H117747   5.372   1.619   5.462  2.3568  0.6353  0.7454
 5938TIP3    H217748   5.366   1.689   5.328  0.8219 -0.4262  0.2400
 5939TIP3   OH217749   2.913   7.585   2.922 -0.1075 -0.1005 -0.1044
 5939TIP3    H117750   2.957   7.534   2.854 -1.8753 -1.4500 -0.2981
 5939TIP3    H217751   2.918   7.529   3.000  1.0784  1.0228  0.6338
 5940TIP3   OH217752   2.556   6.833   4.584 -0.3529 -0.2987 -0.4546
 5940TIP3    H117753   2.516   6.770   4.523 -1.0127 -1.9000  1.6035
 5940TIP3    H217754   2.502   6.828   4.663 -0.8105  3.3163 -0.4337
 5941TIP3   OH217755   4.539   2.482   4.836 -0.6382  0.1284 -0.1642
 5941TIP3    H117756   4.484   2.540   4.888 -1.4865 -1.6622  0.9789
 5941TIP3    H217757   4.500   2.395   4.847  3.9863 -1.7435  3.0306
 5942TIP3   OH217758   7.650   2.010   4.108  0.2581 -0.1816  0.1566
 5942TIP3    H117759   7.585   1.989   4.041  0.4832 -0.5776  0.0615
 5942TIP3    H217760   7.599   2.020   4.188 -0.0371  0.4972 -0.1108
 5943TIP3   OH217761   2.740   6.642   5.476  0.3130  0.0523 -0.0354
 5943TIP3    H117762   2.796   6.640   5.554  1.6254  1.2360 -0.9205
 5943TIP3    H217763   2.762   6.562   5.428  0.0411 -0.3088  0.4404
 5944TIP3   OH217764   5.445   0.807   3.556 -0.4954  0.4068 -0.2750
 5944TIP3    H117765   5.469   0.716   3.536 -0.3338 -0.1024  2.0994
 5944TIP3    H217766   5.529   0.851   3.569 -0.6260  0.4484  0.4322
 5945TIP3   OH217767   4.014   0.040   2.728  0.3769  0.2015  0.0917
 5945TIP3    H117768   3.995  -0.027   2.662 -0.5118  0.7365 -0.2025
 5945TIP3    H217769   4.053   0.112   2.679 -0.4945  0.6917  0.1165
 5946TIP3   OH217770   7.566   3.364   0.874  0.8916 -0.3114 -0.6085
 5946TIP3    H117771   7.475   3.343   0.894  1.4666 -1.5256  0.8390
 5946TIP3    H217772   7.591   3.430   0.938  0.1611  2.2810 -2.9107
 5947TIP3   OH217773   3.083   0.098   6.880 -0.1226 -0.2760 -0.1201
 5947TIP3    H117774   3.052   0.137   6.962  0.7971  1.7606 -0.6898
 5947TIP3    H217775   3.020   0.128   6.814  0.5412  0.1664 -0.5556
 5948TIP3   OH217776   4.393   0.815   5.228 -0.2015  0.0972  0.5766
 5948TIP3    H117777   4.349   0.836   5.310 -0.9921 -0.6097  0.3412
 5948TIP3    H217778   4.445   0.893   5.208  0.2090  0.1801  1.8796
 5949TIP3   OH217779   4.224   2.049   5.773 -0.9047 -0.3953  0.2486
 5949TIP3    H117780   4.244   2.079   5.862 -1.1964  0.4498  0.0360
 5949TIP3    H217781   4.176   2.122   5.734 -2.5094 -1.5528  0.0366
 5950TIP3   OH217782   5.956   1.721   6.421  0.2057  0.1139  0.0446
 5950TIP3    H117783   5.980   1.629   6.435  1.5200  0.6019  1.1683
 5950TIP3    H217784   6.011   1.748   6.348 -1.4492 -0.4521 -1.4482
 5951TIP3   OH217785   8.473   5.840   0.020 -0.4635 -0.4346 -0.3934
 5951TIP3    H117786   8.451   5.933   0.019 -1.8255 -0.7647 -1.1787
 5951TIP3    H217787   8.569   5.839   0.028 -0.3152  1.0541 -1.6990
 5952TIP3   OH217788   6.497   0.533   6.278  0.6833 -0.0751  0.5759
 5952TIP3    H117789   6.420   0.511   6.332 -0.3363  1.8041 -0.0806
 5952TIP3    H217790   6.539   0.605   6.325  1.9696 -0.9940  0.8446
 5953TIP3   OH217791   3.700   2.143   5.502 -0.0144  0.3416 -0.3871
 5953TIP3    H117792   3.630   2.208   5.496 -0.1747  0.3276  1.1244
 5953TIP3    H217793   3.663   2.065   5.462 -0.8822  0.3261  0.4258
 5954TIP3   OH217794   5.696   1.609   5.410 -0.3248 -0.0138 -0.2394
 5954TIP3    H117795   5.714   1.610   5.504  1.1076  0.0518 -0.5042
 5954TIP3    H217796   5.710   1.518   5.384  1.4247  0.3832 -0.7697
 5955TIP3   OH217797   4.395   1.415   3.821 -0.4244  0.1971 -0.1711
 5955TIP3    H117798   4.364   1.406   3.911  1.3015  0.8195  0.4960
 5955TIP3    H217799   4.315   1.414   3.768 -1.3740 -1.5694  1.2434
 5956TIP3   OH217800   6.017   1.886   5.311  0.3065  0.3772  0.1185
 5956TIP3    H117801   6.104   1.848   5.297 -0.1901 -1.1002  0.8866
 5956TIP3    H217802   5.957   1.819   5.278 -0.7219 -1.0896  4.6068
 5957TIP3   OH217803   2.319   7.750   6.705  0.7526 -0.2090  0.4481
 5957TIP3    H117804   2.262   7.728   6.779  2.7806 -2.5310  1.4004
 5957TIP3    H217805   2.396   7.792   6.745  0.7008  0.9206 -0.6073
 5958TIP3   OH217806   6.147   2.952   5.298 -0.5242 -0.0606 -0.4453
 5958TIP3    H117807   6.200   3.017   5.253 -1.6411 -0.0674 -1.8057
 5958TIP3    H217808   6.081   3.003   5.345 -0.9351 -0.1736 -0.8990
 5959TIP3   OH217809   2.792   7.918   3.711 -0.7660 -0.0899 -0.0159
 5959TIP3    H117810   2.712   7.947   3.754 -0.7355 -0.6159  0.3966
 5959TIP3    H217811   2.860   7.928   3.778 -0.9514 -2.2551  0.5539
 5960TIP3   OH217812   4.856   2.919   5.332  0.0159  0.1911  0.1501
 5960TIP3    H117813   4.901   2.888   5.253 -0.7831  0.7226 -0.5105
 5960TIP3    H217814   4.887   3.009   5.343 -1.3448  0.7586 -0.6425
 5961TIP3   OH217815   5.404   0.180   4.447  0.4677  0.3510  0.0796
 5961TIP3    H117816   5.390   0.265   4.489 -0.9205 -0.3426  1.0454
 5961TIP3    H217817   5.320   0.135   4.456  0.9217 -0.7844 -1.2314
 5962TIP3   OH217818   3.323   7.289   2.605  0.1692 -0.3483 -0.3483
 5962TIP3    H117819   3.330   7.232   2.682 -1.2945  1.2548  1.0017
 5962TIP3    H217820   3.342   7.231   2.531  0.5498 -2.1669  1.1263
 5963TIP3   OH217821   6.110   1.194   5.569  0.2534  0.3317  0.3192
 5963TIP3    H117822   6.205   1.196   5.559  0.3728 -1.0540  1.0098
 5963TIP3    H217823   6.095   1.188   5.664 -0.5438  1.3783  0.2688
 5964TIP3   OH217824   1.487   6.276   3.241 -0.1892 -0.2933  0.1344
 5964TIP3    H117825   1.482   6.288   3.146 -0.0830  4.4544  0.5693
 5964TIP3    H217826   1.571   6.315   3.265 -0.0163 -1.8509  2.1424
 5965TIP3   OH217827   3.739   2.052   6.118  0.3018 -0.5873 -0.1668
 5965TIP3    H117828   3.813   2.108   6.141  1.1016 -1.2768 -1.0044
 5965TIP3    H217829   3.733   1.989   6.190  0.2809 -0.2897  0.0918
 5966TIP3   OH217830   6.721   1.634   2.793 -0.5305 -0.8139 -0.2146
 5966TIP3    H117831   6.656   1.687   2.840 -0.8159 -0.0515 -1.4621
 5966TIP3    H217832   6.770   1.590   2.863 -1.1882  0.0173  0.7924
 5967TIP3   OH217833   2.082   6.561   3.834 -0.1720  0.3025 -0.2137
 5967TIP3    H117834   2.125   6.631   3.785  0.1440 -0.1060 -0.5215
 5967TIP3    H217835   1.988   6.573   3.817 -0.0583  0.1290 -0.9679
 5968TIP3   OH217836   6.649   1.096   3.814  0.5001  0.0301 -0.1277
 5968TIP3    H117837   6.578   1.143   3.770  1.0646  2.1772  1.1513
 5968TIP3    H217838   6.612   1.069   3.898 -0.2853 -3.2219 -1.4771
 5969TIP3   OH217839   7.387   2.507   5.449  0.4767  0.6601  0.3860
 5969TIP3    H117840   7.298   2.525   5.480  0.1788  1.6324 -0.9841
 5969TIP3    H217841   7.392   2.411   5.444 -0.5910  0.6105  0.2025
 5970TIP3   OH217842   6.749   0.517   3.889 -0.2959 -0.6184 -0.3628
 5970TIP3    H117843   6.665   0.487   3.853 -0.5245  0.1428 -0.4730
 5970TIP3    H217844   6.803   0.533   3.811 -1.5375  3.2422 -0.5414
 5971TIP3   OH217845   5.316   0.397   3.314  0.7052  0.0813 -0.8283
 5971TIP3    H117846   5.338   0.356   3.397  2.9090  2.3720 -0.2058
 5971TIP3    H217847   5.359   0.344   3.248  0.3279 -0.7921 -0.3830
 5972TIP3   OH217848   6.056   1.938   5.669 -0.2361  0.0202  0.2615
 5972TIP3    H117849   5.985   1.961   5.609  0.7986  0.5992 -0.7656
 5972TIP3    H217850   6.081   2.021   5.709  0.2677 -0.0907  0.1717
 5973TIP3   OH217851   6.470   0.484   3.423  0.0571 -0.8665 -0.7289
 5973TIP3    H117852   6.409   0.450   3.357 -2.2405  1.1597  0.2891
 5973TIP3    H217853   6.423   0.556   3.464  2.9874  0.4582  0.4274
 5974TIP3   OH217854   6.019   3.466   4.085  0.1370  0.0817 -0.3265
 5974TIP3    H117855   6.051   3.438   4.171 -1.7714 -0.6502  0.1737
 5974TIP3    H217856   6.032   3.390   4.029  2.3110  0.8931 -0.9551
 5975TIP3   OH217857   6.080   2.502   2.270  0.8408  0.6077  0.3888
 5975TIP3    H117858   6.156   2.481   2.325 -0.2215  2.5679  2.6904
 5975TIP3    H217859   6.076   2.598   2.271 -1.9272  0.5170  0.7092
 5976TIP3   OH217860   5.735   0.325   4.831  0.4783  0.2185 -0.0335
 5976TIP3    H117861   5.680   0.274   4.890  0.9797 -0.6320 -0.2994
 5976TIP3    H217862   5.672   0.378   4.781 -0.2409 -1.8688 -1.4036
 5977TIP3   OH217863   5.596   1.955   2.560 -0.0999  0.3832  1.0176
 5977TIP3    H117864   5.686   1.972   2.590  0.4172 -0.0397 -0.2456
 5977TIP3    H217865   5.541   1.997   2.626  1.0507  1.7319  1.1629
 5978TIP3   OH217866   2.087   7.296   4.497 -0.4622 -0.2604 -0.1029
 5978TIP3    H117867   2.012   7.330   4.448 -1.2184 -2.0658 -0.2547
 5978TIP3    H217868   2.077   7.201   4.492  1.3221 -0.5048  0.6927
 5979TIP3   OH217869   6.240   0.377   3.731  0.1948 -0.0080  0.3406
 5979TIP3    H117870   6.189   0.365   3.811 -0.9845 -0.0443 -0.4087
 5979TIP3    H217871   6.183   0.428   3.674  0.9348 -0.2003 -0.5767
 5980TIP3   OH217872   0.103   0.158   5.248 -0.3956  0.4618  0.4380
 5980TIP3    H117873   0.165   0.215   5.202 -1.0270  0.2788 -0.6562
 5980TIP3    H217874   0.091   0.084   5.188  0.5405 -0.9187  1.8938
 5981TIP3   OH217875   5.880   0.286   1.950 -0.2477 -0.6914  0.4880
 5981TIP3    H117876   5.834   0.250   1.874  0.0577 -0.6010  0.2591
 5981TIP3    H217877   5.949   0.342   1.912 -0.4473 -0.2109  0.8365
 5982TIP3   OH217878   7.453   1.973   3.111 -0.2845 -0.5344 -0.1779
 5982TIP3    H117879   7.410   2.043   3.160  1.2756  0.4264 -0.1499
 5982TIP3    H217880   7.407   1.971   3.027 -1.3918 -0.5662  0.4231
 5983TIP3   OH217881   2.247   7.659   4.967 -0.4165 -0.6522 -0.1443
 5983TIP3    H117882   2.209   7.728   4.913 -0.5632 -1.1638 -0.7002
 5983TIP3    H217883   2.273   7.703   5.048  0.2406  0.2178 -0.8166
 5984TIP3   OH217884   7.381   1.932   5.310  0.4437 -0.4165 -0.3132
 5984TIP3    H117885   7.322   1.962   5.241 -0.6475  1.3167  1.3182
 5984TIP3    H217886   7.467   1.968   5.287  0.0466  0.2917 -0.6900
 5985TIP3   OH217887   6.444   0.819   3.454  0.0856  0.3646  0.0619
 5985TIP3    H117888   6.424   0.805   3.547  2.1503 -0.9225  0.3469
 5985TIP3    H217889   6.376   0.771   3.407  0.7527 -1.5420  0.9714
 5986TIP3   OH217890   6.830   2.111   4.187 -0.2846 -0.5628 -0.6840
 5986TIP3    H117891   6.847   2.058   4.265  1.5037 -1.1316 -1.4209
 5986TIP3    H217892   6.905   2.093   4.130 -0.8177  0.9962 -1.9046
 5987TIP3   OH217893   7.272   2.367   2.004 -0.2750  0.2954  0.3189
 5987TIP3    H117894   7.177   2.384   2.004  0.0657  2.2766 -0.2361
 5987TIP3    H217895   7.286   2.314   1.926 -1.4362 -3.2282  2.3754
 5988TIP3   OH217896   7.554   2.933   1.629 -0.7248 -0.5773  0.4484
 5988TIP3    H117897   7.506   2.858   1.592 -2.6375  1.0177 -0.4069
 5988TIP3    H217898   7.506   3.010   1.597  0.6027  0.9915  2.1433
 5989TIP3   OH217899   5.391   0.178   4.174  0.1191  0.1774 -0.8125
 5989TIP3    H117900   5.428   0.104   4.125 -0.2965 -0.0599 -0.7782
 5989TIP3    H217901   5.384   0.146   4.264  0.1384  0.3337 -0.7563
 5990TIP3   OH217902   6.657   1.709   2.455 -0.6725  0.0804  0.3990
 5990TIP3    H117903   6.719   1.766   2.501 -0.1891 -0.7957  0.8718
 5990TIP3    H217904   6.589   1.690   2.520 -1.2894  0.8174 -0.0324
 5991TIP3   OH217905   8.213   0.844   3.620 -0.8187  0.2464  0.1739
 5991TIP3    H117906   8.152   0.859   3.692  1.7450  1.2655  2.2217
 5991TIP3    H217907   8.237   0.752   3.627 -0.4065  0.3968  0.7836
 5992TIP3   OH217908   3.815   7.589   4.467 -0.3398 -0.2902  0.2142
 5992TIP3    H117909   3.869   7.594   4.388 -0.4000 -1.4655  0.0861
 5992TIP3    H217910   3.731   7.627   4.442 -0.6767 -1.5210 -0.5787
 5993TIP3   OH217911   7.198   0.146   5.228  0.1771 -0.0834 -0.5261
 5993TIP3    H117912   7.195   0.116   5.318  0.5472 -0.6434 -0.6982
 5993TIP3    H217913   7.235   0.234   5.233 -1.6367  0.6749  0.0582
 5994TIP3   OH217914   7.536   0.451   3.349  0.1856  0.3462  0.7150
 5994TIP3    H117915   7.531   0.368   3.302 -1.7926  1.6345 -1.4669
 5994TIP3    H217916   7.581   0.510   3.288 -0.3034  1.4352  1.3919
 5995TIP3   OH217917   5.681   0.892   4.134 -0.1703 -0.3531  0.0852
 5995TIP3    H117918   5.706   0.800   4.121  0.1229 -0.1972 -0.4571
 5995TIP3    H217919   5.759   0.933   4.170 -0.9511 -0.7629  2.3125
 5996TIP3   OH217920   5.599   2.129   2.265 -0.4171 -0.4923 -0.4468
 5996TIP3    H117921   5.632   2.076   2.338 -1.4683  1.2606  1.3497
 5996TIP3    H217922   5.510   2.153   2.292  0.3061  2.8240 -0.8548
 5997TIP3   OH217923   6.714   1.083   3.190  0.1829  0.2643 -0.6782
 5997TIP3    H117924   6.698   1.073   3.284 -1.1219  1.6646 -0.7385
 5997TIP3    H217925   6.723   1.177   3.177  0.0269  0.0984 -1.9997
 5998TIP3   OH217926   7.238   2.546   5.754 -0.1957 -0.4569  0.1458
 5998TIP3    H117927   7.163   2.544   5.695 -1.0163 -2.0200  1.1779
 5998TIP3    H217928   7.203   2.514   5.837  1.7422 -1.8463  0.4735
 5999TIP3   OH217929   3.799   7.951   4.760 -0.4086 -0.2824 -0.2248
 5999TIP3    H117930   3.836   8.005   4.830 -0.3217 -0.4037 -0.1761
 5999TIP3    H217931   3.709   7.982   4.751 -0.1489  0.3522 -0.6851
 6000TIP3   OH217932   1.365   1.599   3.610  0.1445  0.4934  0.9812
 6000TIP3    H117933   1.315   1.623   3.688  0.8403  0.9068  1.3045
 6000TIP3    H217934   1.369   1.680   3.559 -2.0578 -0.2727 -0.4678
 6001TIP3   OH217935   3.439   7.873   3.274  0.3541  0.0277  0.0685
 6001TIP3    H117936   3.482   7.791   3.251  2.5296  0.8577  1.0428
 6001TIP3    H217937   3.477   7.938   3.215  0.0401  0.6881  0.5831
 6002TIP3   OH217938   7.193   2.863   3.630 -0.1271  0.5457  0.3879
 6002TIP3    H117939   7.277   2.869   3.676  0.2065  0.0728 -0.1650
 6002TIP3    H217940   7.171   2.770   3.631 -0.5918  0.6502  0.4241
 6003TIP3   OH217941   8.261   1.838   5.482 -0.3814 -0.1547 -0.6560
 6003TIP3    H117942   8.181   1.815   5.435 -0.1299 -0.3349 -0.9993
 6003TIP3    H217943   8.230   1.875   5.565 -0.8106 -0.6872 -0.5715
 6004TIP3   OH217944   4.346   2.751   1.408 -0.2188  0.5112 -0.0300
 6004TIP3    H117945   4.260   2.784   1.382 -0.5249 -0.5337 -0.3869
 6004TIP3    H217946   4.349   2.663   1.371  0.4389  0.0144  1.2007
 6005TIP3   OH217947   6.017   0.569   1.156 -0.1356  0.2627  0.8433
 6005TIP3    H117948   5.926   0.563   1.184 -0.1305  1.2884  1.0888
 6005TIP3    H217949   6.039   0.662   1.163  0.9605  0.0119  0.8767
 6006TIP3   OH217950   5.182   1.039   4.597  0.0610 -0.2806  0.3084
 6006TIP3    H117951   5.095   1.076   4.579  0.5199 -0.0331 -1.5759
 6006TIP3    H217952   5.196   0.978   4.524  1.0374 -1.1070  1.1763
 6007TIP3   OH217953   0.099   0.036   3.008 -0.1703  0.0655 -0.0741
 6007TIP3    H117954   0.089   0.020   2.915  1.6069  0.7335 -0.4101
 6007TIP3    H217955   0.107   0.131   3.016  0.3044 -0.0310  0.6780
 6008TIP3   OH217956   0.629   2.343   5.006 -0.4481  0.6037 -0.2591
 6008TIP3    H117957   0.615   2.275   4.940  0.8052 -0.0537  0.1401
 6008TIP3    H217958   0.549   2.395   5.004 -1.0011 -0.2694 -1.2934
 6009TIP3   OH217959   4.783   2.189   5.150 -0.4301 -0.1150  0.1963
 6009TIP3    H117960   4.871   2.189   5.189 -1.1742  0.6213  1.9194
 6009TIP3    H217961   4.783   2.263   5.091 -0.0809  0.2594  0.6582
 6010TIP3   OH217962   6.514   1.860   3.506 -0.0554  0.5044 -0.3140
 6010TIP3    H117963   6.571   1.811   3.447  0.0846  0.2596  0.0236
 6010TIP3    H217964   6.509   1.948   3.468  0.6492  0.5618 -0.2732
 6011TIP3   OH217965   3.927   2.136   4.682 -0.1801  0.6451 -0.9221
 6011TIP3    H117966   3.852   2.158   4.737  0.4936  2.5235 -0.6958
 6011TIP3    H217967   3.971   2.065   4.728 -0.5231  1.1153  0.1568
 6012TIP3   OH217968   6.551   2.621   3.059  0.0587  0.3505  0.0579
 6012TIP3    H117969   6.529   2.578   2.977  0.9021 -0.3976  0.2183
 6012TIP3    H217970   6.647   2.625   3.060  0.1464 -1.1668  1.7503
 6013TIP3   OH217971   6.979   3.072   2.775  0.3675  0.7042  0.5167
 6013TIP3    H117972   6.961   3.166   2.771 -1.2283  0.3470 -0.9705
 6013TIP3    H217973   6.930   3.041   2.851  1.9241  1.2641  1.7906
 6014TIP3   OH217974   7.661   0.887   3.262  0.1669  0.7755 -0.1368
 6014TIP3    H117975   7.698   0.968   3.226  2.0984  0.8571  1.9578
 6014TIP3    H217976   7.613   0.915   3.340  1.9907 -0.2262  1.3824
 6015TIP3   OH217977   7.529   0.008   4.093  0.3925  0.7551  0.0694
 6015TIP3    H117978   7.473   0.085   4.106  1.5954  1.9039 -1.3340
 6015TIP3    H217979   7.603   0.022   4.152  0.7650  0.8294 -0.4135
 6016TIP3   OH217980   5.839   7.831   4.936 -0.6839  0.2714 -0.1739
 6016TIP3    H117981   5.806   7.906   4.986 -0.9954 -1.0607  1.6666
 6016TIP3    H217982   5.784   7.757   4.964  0.1886 -0.8281 -1.2936
 6017TIP3   OH217983   0.653   1.595   2.872 -0.6074 -0.0737  0.4230
 6017TIP3    H117984   0.694   1.511   2.852 -1.3555 -0.5510  0.8636
 6017TIP3    H217985   0.567   1.590   2.831 -0.2331  0.9138 -0.4875
 6018TIP3   OH217986   4.665   1.075   4.576  0.0653 -0.0179 -0.6991
 6018TIP3    H117987   4.672   1.074   4.672  0.4526  0.6719 -0.7134
 6018TIP3    H217988   4.754   1.054   4.546  0.4830  1.9844 -0.9033
 6019TIP3   OH217989   2.614   7.294   3.241  0.0772  0.0662  0.1361
 6019TIP3    H117990   2.527   7.331   3.248 -0.0743 -0.4274  0.9611
 6019TIP3    H217991   2.600   7.203   3.215  0.4197  0.4166 -1.3151
 6020TIP3   OH217992   6.596   0.953   5.702  0.2850  0.1264  0.2021
 6020TIP3    H117993   6.623   0.982   5.615  0.2170 -0.3131  0.0345
 6020TIP3    H217994   6.654   1.001   5.762  1.8537 -1.2459 -0.1783
 6021TIP3   OH217995   3.795   6.728   5.102 -0.5481  0.1942  0.1990
 6021TIP3    H117996   3.875   6.740   5.153 -0.8998 -0.9446  1.0292
 6021TIP3    H217997   3.808   6.645   5.056 -0.9507  0.3733 -0.2495
 6022TIP3   OH217998   6.773   2.056   3.811 -0.6661 -0.7446 -0.2716
 6022TIP3    H117999   6.801   2.139   3.850 -0.5710 -0.5969 -0.6483
 6022TIP3    H218000   6.836   2.040   3.740 -0.3315 -1.4409  0.1800
 6023TIP3   OH218001   6.248   1.767   5.251  0.3106  0.2660 -0.6703
 6023TIP3    H118002   6.300   1.793   5.175  1.4832  1.7511  0.6079
 6023TIP3    H218003   6.309   1.720   5.307 -0.1223  0.6483  0.1271
 6024TIP3   OH218004   5.437   7.220   5.696  0.6985  0.8883  0.0345
 6024TIP3    H118005   5.452   7.166   5.618  1.2257  0.8717  0.1453
 6024TIP3    H218006   5.473   7.168   5.767 -0.4135  0.5901  0.3924
 6025TIP3   OH218007   5.690   4.406   3.444 -0.2598 -0.0538  0.0209
 6025TIP3    H118008   5.596   4.419   3.452  0.0700  1.6829  1.3151
 6025TIP3    H218009   5.725   4.492   3.421  0.9103 -0.9131 -1.5663
 6026TIP3   OH218010   3.973   7.492   3.939 -0.2344 -0.3855 -0.1746
 6026TIP3    H118011   3.893   7.524   3.896 -0.7261  1.3535  1.9985
 6026TIP3    H218012   4.040   7.555   3.915  0.1028 -0.8820 -0.5507
 6027TIP3   OH218013   5.726   0.537   5.058 -0.1066  0.3258  0.0424
 6027TIP3    H118014   5.642   0.525   5.012 -0.4450 -0.8009  0.9344
 6027TIP3    H218015   5.736   0.457   5.110  0.6253  1.2574  1.3535
 6028TIP3   OH218016   6.160   1.393   3.759 -0.6741 -0.2216 -0.0678
 6028TIP3    H118017   6.238   1.371   3.810 -1.8139 -1.7186  1.0758
 6028TIP3    H218018   6.106   1.444   3.819 -1.0739 -0.1279 -0.5043
 6029TIP3   OH218019   6.315   2.216   4.311  0.4077  0.2867 -0.4965
 6029TIP3    H118020   6.364   2.182   4.386  0.2483  1.0706 -0.0331
 6029TIP3    H218021   6.375   2.206   4.237  0.2151 -1.3813 -0.4586
 6030TIP3   OH218022   7.559   0.793   3.760 -0.0911  0.5133 -0.1503
 6030TIP3    H118023   7.608   0.814   3.840 -1.6837 -1.9800  1.5471
 6030TIP3    H218024   7.626   0.762   3.699  0.9241  0.6420  0.8786
 6031TIP3   OH218025   7.417   2.241   4.279  0.0360 -0.0579  0.1833
 6031TIP3    H118026   7.376   2.155   4.285 -0.3070 -0.0584 -1.8047
 6031TIP3    H218027   7.442   2.249   4.187  0.4438  1.7985  0.4377
 6032TIP3   OH218028   6.774   0.641   5.640  0.3325  0.3490  0.1945
 6032TIP3    H118029   6.818   0.726   5.634  0.1589  0.6323  2.3793
 6032TIP3    H218030   6.698   0.649   5.583  0.6685  1.4446 -0.1062
 6033TIP3   OH218031   5.682   1.232   4.227  0.1555  0.0364  0.2151
 6033TIP3    H118032   5.628   1.283   4.167 -1.0412 -0.7766  0.5874
 6033TIP3    H218033   5.742   1.296   4.266  0.0022  0.8000 -0.7958
 6034TIP3   OH218034   6.555   2.934   4.390  0.3634  0.7973 -0.2873
 6034TIP3    H118035   6.586   2.949   4.479  0.1682 -1.2800  0.1508
 6034TIP3    H218036   6.600   2.855   4.362 -0.2245  0.9585 -1.7359
 6035TIP3   OH218037   5.224   1.252   4.356  0.0498 -0.3374 -0.0222
 6035TIP3    H118038   5.317   1.243   4.375  0.2685  1.5826 -0.0595
 6035TIP3    H218039   5.201   1.173   4.309  1.5346 -1.0917  0.4893
 6036TIP3   OH218040   7.453   1.078   6.053  0.0768 -0.5931  0.1660
 6036TIP3    H118041   7.409   1.024   5.987 -1.9740  0.5276  0.5861
 6036TIP3    H218042   7.464   1.019   6.128  0.8841 -1.3725 -0.5446
 6037TIP3   OH218043   2.692   7.759   2.501  0.0576 -0.3934 -0.9045
 6037TIP3    H118044   2.766   7.761   2.562  0.2914 -2.1336 -1.1212
 6037TIP3    H218045   2.636   7.688   2.533 -1.9850  1.4486 -0.2301
 6038TIP3   OH218046   7.290   2.222   5.045  0.4337  0.8488 -0.1732
 6038TIP3    H118047   7.285   2.226   4.949  0.9902 -0.8169 -0.2876
 6038TIP3    H218048   7.368   2.273   5.068  1.1329  0.0189 -0.7084
 6039TIP3   OH218049   5.227   7.981   3.309  0.0963 -0.3277 -0.2659
 6039TIP3    H118050   5.177   7.944   3.382  0.5375 -0.5777 -0.0879
 6039TIP3    H218051   5.165   8.038   3.264  0.0860  0.5425  0.8417
 6040TIP3   OH218052   5.059   7.920   6.363 -0.3211  0.4442  0.8905
 6040TIP3    H118053   4.989   7.986   6.363 -1.1040 -0.3695  0.6968
 6040TIP3    H218054   5.020   7.845   6.409  0.7991  0.3704  1.7218
 6041TIP3   OH218055   5.721   1.047   3.904 -0.0417  0.4838  0.1038
 6041TIP3    H118056   5.682   1.130   3.930 -0.6122  0.3897 -0.4373
 6041TIP3    H218057   5.704   0.988   3.978  0.2608  0.8115  0.4370
 6042TIP3   OH218058   6.858   1.725   4.699 -0.2224  0.1639 -0.0151
 6042TIP3    H118059   6.821   1.710   4.612 -0.1342 -1.3018  0.1880
 6042TIP3    H218060   6.953   1.724   4.685 -0.2128  1.0599 -0.0714
 6043TIP3   OH218061   7.414   3.875   4.555  0.4129 -0.1155 -0.1607
 6043TIP3    H118062   7.372   3.808   4.501  0.7208 -0.3514 -0.1104
 6043TIP3    H218063   7.364   3.877   4.636 -0.2229  0.4326 -0.5593
 6044TIP3   OH218064   7.730   1.749   4.342  0.1828 -0.3685 -0.3692
 6044TIP3    H118065   7.734   1.720   4.250 -1.3138 -1.2710 -0.1499
 6044TIP3    H218066   7.707   1.841   4.337  0.2009 -0.3912 -0.8967
 6045TIP3   OH218067   7.858   1.894   2.669  0.1321  0.2396  0.5355
 6045TIP3    H118068   7.882   1.974   2.716  2.6955 -0.9754  1.3856
 6045TIP3    H218069   7.860   1.825   2.736 -3.1731 -0.3959  0.0537
 6046TIP3   OH218070   3.407   7.151   3.573 -0.3607  0.0969 -0.1853
 6046TIP3    H118071   3.324   7.135   3.619  0.6810 -2.7252  0.8833
 6046TIP3    H218072   3.383   7.153   3.480 -1.7322  0.1621  0.1536
 6047TIP3   OH218073   5.468   2.255   4.354 -0.0377 -0.9907 -0.1076
 6047TIP3    H118074   5.435   2.168   4.379 -1.0695 -0.8512 -0.9447
 6047TIP3    H218075   5.554   2.261   4.398 -0.9391 -1.5102  1.7996
 6048TIP3   OH218076   6.121   0.509   4.252  0.4392  0.5238  0.6772
 6048TIP3    H118077   6.045   0.470   4.296  0.7662 -2.5124 -1.3330
 6048TIP3    H218078   6.161   0.564   4.319 -0.7369 -1.6782  3.3070
 6049TIP3   OH218079   7.093   1.509   3.864  0.1469  0.1264  0.2577
 6049TIP3    H118080   7.090   1.423   3.822 -0.1263  0.3214 -0.1276
 6049TIP3    H218081   7.123   1.492   3.953 -1.8728 -0.5859  0.8096
 6050TIP3   OH218082   5.823   1.107   3.448  0.4686  0.2066  0.3378
 6050TIP3    H118083   5.896   1.145   3.497  0.7787  0.3659 -0.2419
 6050TIP3    H218084   5.763   1.077   3.515  0.8097  0.5789  0.8196
 6051TIP3   OH218085   7.858   3.272   3.179 -0.1106  0.1946 -0.5331
 6051TIP3    H118086   7.797   3.295   3.249  0.6415  0.2320  0.1148
 6051TIP3    H218087   7.920   3.213   3.220  0.3716  0.2712 -1.1545
 6052TIP3   OH218088   7.039   0.998   2.630  0.3083  0.8963 -0.0964
 6052TIP3    H118089   7.109   1.013   2.566 -1.1736  3.5527 -1.1829
 6052TIP3    H218090   6.959   1.007   2.579 -0.9154  3.0466  2.1274
 6053TIP3   OH218091   7.166   2.293   3.694 -0.5889 -0.4426  0.3761
 6053TIP3    H118092   7.226   2.239   3.744  1.6024  1.5320 -0.0742
 6053TIP3    H218093   7.205   2.298   3.607 -0.9116  1.5863  0.3236
 6054TIP3   OH218094   6.725   2.713   0.965  0.6579  0.0216  0.5097
 6054TIP3    H118095   6.705   2.771   0.892 -4.1807 -2.3970 -0.3083
 6054TIP3    H218096   6.709   2.766   1.043 -2.5118  0.2824 -0.2298
 6055TIP3   OH218097   0.568   2.571   4.055 -0.1948  0.6013 -0.3545
 6055TIP3    H118098   0.591   2.509   3.985  0.4066  1.1216 -0.6255
 6055TIP3    H218099   0.486   2.609   4.026 -0.1007  0.5944 -0.6384
 6056TIP3   OH218100   5.447   2.511   5.876 -0.4147  0.1018 -0.7799
 6056TIP3    H118101   5.435   2.588   5.821 -0.6850  0.8494  0.2939
 6056TIP3    H218102   5.474   2.442   5.816  1.4998  1.4519 -1.5144
 6057TIP3   OH218103   7.539   2.474   1.153  0.2140  0.4107  0.4306
 6057TIP3    H118104   7.489   2.395   1.173  0.5187  0.7843  2.8669
 6057TIP3    H218105   7.534   2.483   1.058 -0.2222 -2.2703  0.1651
 6058TIP3   OH218106   6.194   1.532   3.130  0.3683  0.5954  0.2809
 6058TIP3    H118107   6.279   1.500   3.098  0.5332  1.7337 -0.4719
 6058TIP3    H218108   6.201   1.527   3.225  0.0620 -2.3857  0.1777
 6059TIP3   OH218109   7.656   0.145   4.842 -0.0966 -0.2512 -0.0165
 6059TIP3    H118110   7.691   0.197   4.769  0.7784 -2.1964 -1.0187
 6059TIP3    H218111   7.581   0.099   4.804 -0.2037 -0.5384  0.5486
 6060TIP3   OH218112   8.311   2.804   4.878  0.2765  0.4052 -0.1877
 6060TIP3    H118113   8.405   2.789   4.870  0.1891 -0.5472  0.3968
 6060TIP3    H218114   8.282   2.822   4.789  0.8889 -0.0543 -0.4867
 6061TIP3   OH218115   7.329   1.729   3.427  0.2393  0.0143  0.2749
 6061TIP3    H118116   7.419   1.722   3.393  0.2881  0.3727  0.3291
 6061TIP3    H218117   7.284   1.653   3.391  0.4810  0.0109 -0.0200
 6062TIP3   OH218118   5.905   1.367   5.034  0.3784  0.4022 -0.5086
 6062TIP3    H118119   5.945   1.454   5.041 -0.6853  0.7687  1.3353
 6062TIP3    H218120   5.830   1.380   4.976 -1.0115  1.1962  1.4204
 6063TIP3   OH218121   5.557   1.571   3.913  0.8970 -0.4489 -0.2392
 6063TIP3    H118122   5.537   1.659   3.944 -1.0283 -0.9706  0.0651
 6063TIP3    H218123   5.615   1.584   3.838  1.0093  1.0486  0.0988
 6064TIP3   OH218124   4.885   0.490   4.852 -0.0913 -0.0646  0.4072
 6064TIP3    H118125   4.898   0.398   4.873 -1.5448 -0.2673  0.4623
 6064TIP3    H218126   4.926   0.537   4.925 -1.7859 -0.7243  1.8415
 6065TIP3   OH218127   5.493   1.979   3.588  0.0992 -0.2316  0.4483
 6065TIP3    H118128   5.535   1.918   3.649  1.4362  1.0175  0.8106
 6065TIP3    H218129   5.400   1.963   3.599  0.3762 -1.1292  1.6741
 6066TIP3   OH218130   6.429   1.237   3.652 -0.7240 -0.4348 -0.2283
 6066TIP3    H118131   6.422   1.182   3.574 -0.6725 -0.0499 -0.5040
 6066TIP3    H218132   6.432   1.326   3.619  0.3733 -0.3223  0.1542
 6067TIP3   OH218133   6.253   1.861   5.847 -0.1102 -0.5834  0.2932
 6067TIP3    H118134   6.185   1.901   5.793 -0.1605 -2.5334 -1.1471
 6067TIP3    H218135   6.204   1.810   5.912 -0.0624 -1.6847 -0.5121
 6068TIP3   OH218136   6.612   0.902   4.834 -0.1757 -0.6213  0.2053
 6068TIP3    H118137   6.572   0.948   4.908 -0.8921 -1.5165  0.3749
 6068TIP3    H218138   6.545   0.903   4.766 -0.0620 -1.1143  0.0880
 6069TIP3   OH218139   6.726   3.846   4.867  0.1644 -0.5611 -0.3899
 6069TIP3    H118140   6.762   3.767   4.907 -2.7213 -0.7876  1.9442
 6069TIP3    H218141   6.667   3.813   4.799  0.3406 -0.3655 -0.6354
 6070TIP3   OH218142   5.368   2.747   6.713  0.0295 -0.2394  0.3151
 6070TIP3    H118143   5.371   2.696   6.794  0.5989  0.9364  1.0460
 6070TIP3    H218144   5.311   2.821   6.733 -0.8173 -0.5822 -0.7501
 6071TIP3   OH218145   8.166   1.360   4.890  0.4175  0.1373 -1.0179
 6071TIP3    H118146   8.131   1.330   4.974  0.2548 -0.0706 -1.1598
 6071TIP3    H218147   8.235   1.298   4.868  0.2529  0.0160 -1.1892
 6072TIP3   OH218148   6.749   0.939   4.572 -0.0240 -0.1382  0.0434
 6072TIP3    H118149   6.743   1.000   4.646 -1.7631  0.7415 -0.7812
 6072TIP3    H218150   6.671   0.958   4.520  0.9483 -1.0722 -1.7793
 6073TIP3   OH218151   7.721   2.226   3.474  0.1494  0.2100 -0.6089
 6073TIP3    H118152   7.731   2.193   3.385 -0.1378 -1.1487 -0.1436
 6073TIP3    H218153   7.631   2.259   3.478 -0.2410 -0.8745 -0.4460
 6074TIP3   OH218154   4.775   0.125   4.147 -0.5214  0.6997  0.0511
 6074TIP3    H118155   4.843   0.067   4.183 -1.0338  0.5031  0.7045
 6074TIP3    H218156   4.822   0.180   4.085  0.0374 -0.2073 -0.3452
 6075TIP3   OH218157   6.654   1.436   5.374 -0.1685  0.8460  0.1693
 6075TIP3    H118158   6.732   1.395   5.337 -1.8960  0.0342 -2.6787
 6075TIP3    H218159   6.646   1.396   5.461  1.5197 -0.4527 -0.2385
 6076TIP3   OH218160   0.042   1.281   3.279  0.0119 -0.2804  0.3795
 6076TIP3    H118161   0.037   1.186   3.263 -2.9486 -0.5047  2.3114
 6076TIP3    H218162   0.101   1.290   3.353 -0.1485 -0.6723  0.5566
 6077TIP3   OH218163   8.283   2.580   4.178 -0.0979  0.1443 -0.1379
 6077TIP3    H118164   8.242   2.611   4.259 -2.0533  0.4888 -1.2387
 6077TIP3    H218165   8.227   2.510   4.147  0.7996 -0.1856 -1.0537
 6078TIP3   OH218166   7.622   2.916   4.210 -0.4503  0.1094 -0.0616
 6078TIP3    H118167   7.528   2.907   4.222 -0.3186 -1.0011  0.2636
 6078TIP3    H218168   7.658   2.911   4.299 -0.2085  2.2671 -0.0237
 6079TIP3   OH218169   6.169   0.818   6.477 -0.1844  0.5988  0.0557
 6079TIP3    H118170   6.169   0.830   6.572 -0.1533 -1.4102  0.3299
 6079TIP3    H218171   6.204   0.900   6.443  0.5953  1.0340  1.8282
 6080TIP3   OH218172   5.115   2.784   3.908 -0.6008 -0.3501 -0.6844
 6080TIP3    H118173   5.112   2.727   3.985  1.3090  0.7035  0.1978
 6080TIP3    H218174   5.172   2.738   3.846  0.2229  0.1637 -0.3173
 6081TIP3   OH218175   7.724   0.620   2.586 -0.0158  0.3585  0.0725
 6081TIP3    H118176   7.768   0.561   2.647  0.6546 -0.6294 -1.3336
 6081TIP3    H218177   7.756   0.707   2.609 -0.4586  0.0912  1.7019
 6082TIP3   OH218178   8.281   0.172   2.781 -0.0489  0.1655 -0.5462
 6082TIP3    H118179   8.278   0.099   2.720  1.6195  0.6190 -1.1968
 6082TIP3    H218180   8.372   0.175   2.811 -0.6793  0.4084  1.4105
 6083TIP3   OH218181   0.051   4.262   6.450  0.4172 -0.1801  0.1789
 6083TIP3    H118182   0.047   4.183   6.503 -0.2405 -0.2473  0.0307
 6083TIP3    H218183   0.072   4.332   6.513  0.7097 -0.4243  0.3540
 6084TIP3   OH218184   0.048   1.026   3.208  0.0062 -0.2364  0.1526
 6084TIP3    H118185   0.120   0.963   3.216 -1.6675 -2.1728  0.2718
 6084TIP3    H218186  -0.010   0.988   3.143 -0.1050  2.1384 -1.1802
 6085TIP3   OH218187   6.893   3.044   4.206  0.7230 -0.7083  0.1606
 6085TIP3    H118188   6.882   3.021   4.298  1.0060  1.2537  0.7065
 6085TIP3    H218189   6.806   3.029   4.167 -0.2885  1.5587  1.4668
 6086TIP3   OH218190   5.797   0.962   5.152 -0.3406 -0.1711 -0.1268
 6086TIP3    H118191   5.732   1.032   5.144  1.0368  1.1076 -0.4975
 6086TIP3    H218192   5.856   0.993   5.221  0.2539 -0.9971 -0.2621
 6087TIP3   OH218193   7.034   0.887   4.548  0.4983 -0.3031 -0.7239
 6087TIP3    H118194   6.944   0.884   4.579  0.2560 -0.5428 -1.4479
 6087TIP3    H218195   7.071   0.802   4.570  0.0028 -0.8671 -2.0662
 6088TIP3   OH218196   7.201   3.317   5.092  0.3239 -0.1651 -0.6949
 6088TIP3    H118197   7.207   3.394   5.148 -1.1814 -0.1430 -0.5435
 6088TIP3    H218198   7.113   3.282   5.108  1.3800 -2.5485  0.0533
 6089TIP3   OH218199   6.114   1.502   4.352 -0.0654  0.3027 -0.1249
 6089TIP3    H118200   6.089   1.590   4.380 -2.3220 -0.3366 -0.0324
 6089TIP3    H218201   6.123   1.509   4.257  0.1332  0.7209 -0.0785
 6090TIP3   OH218202   6.113   0.783   4.839  0.0030  0.0117 -0.0631
 6090TIP3    H118203   6.051   0.715   4.867 -0.3353 -0.2385 -1.3853
 6090TIP3    H218204   6.058   0.857   4.816  0.1803 -0.2883 -1.4625
 6091TIP3   OH218205   6.310   2.449   3.401  0.1422 -0.3272 -0.4637
 6091TIP3    H118206   6.251   2.493   3.462  0.3584  0.7610 -1.0291
 6091TIP3    H218207   6.388   2.505   3.399  1.1024 -1.6333  0.1014
 6092TIP3   OH218208   6.387   3.099   3.257  0.4110  0.0693  0.3535
 6092TIP3    H118209   6.367   3.108   3.163  2.0232 -0.4307 -0.0459
 6092TIP3    H218210   6.426   3.183   3.281  1.9612 -0.5603  0.0678
 6093TIP3   OH218211   6.899   1.903   4.389 -0.4396 -0.2614  0.6207
 6093TIP3    H118212   6.812   1.875   4.362 -0.4084 -0.1834  0.4402
 6093TIP3    H218213   6.959   1.841   4.346 -0.3746  0.0495  0.2585
 6094TIP3   OH218214   1.922   5.845   3.263  0.3386 -0.2836 -0.4699
 6094TIP3    H118215   1.897   5.887   3.344  2.0809  0.4909 -0.3068
 6094TIP3    H218216   1.844   5.798   3.234 -1.1179  1.6982  0.2045
 6095TIP3   OH218217   0.085   0.107   4.699 -0.0746 -0.0138 -0.1953
 6095TIP3    H118218   0.172   0.075   4.676 -0.2430 -0.6001 -0.0266
 6095TIP3    H218219   0.026   0.066   4.635 -0.3505 -0.4178  0.3169
 6096TIP3   OH218220   0.726   2.685   5.775 -0.1908  0.0556  0.2848
 6096TIP3    H118221   0.801   2.626   5.783 -0.6526 -0.5440  0.1701
 6096TIP3    H218222   0.654   2.639   5.816 -0.3860  0.8467  0.8363
 6097TIP3   OH218223   6.457   3.401   4.919  0.1076 -0.4149  0.4810
 6097TIP3    H118224   6.491   3.313   4.934 -0.6853 -1.0559 -1.3316
 6097TIP3    H218225   6.529   3.448   4.877 -0.4437 -1.1262 -1.3390
 6098TIP3   OH218226   0.772   1.040   5.054  1.0140 -0.6781 -0.0059
 6098TIP3    H118227   0.810   0.999   5.132 -2.0574 -0.9100  1.4384
 6098TIP3    H218228   0.734   0.967   5.005 -0.2639 -0.1319  0.1477
 6099TIP3   OH218229   0.199   0.380   4.416 -0.4034  0.1131  0.4593
 6099TIP3    H118230   0.151   0.298   4.405  0.5768 -0.5451  1.0394
 6099TIP3    H218231   0.193   0.423   4.330  0.2147 -1.1879 -0.2523
 6100TIP3   OH218232   7.430   2.878   3.801  0.5350  0.0114 -0.5571
 6100TIP3    H118233   7.467   2.873   3.889  0.6104  2.0835 -0.4438
 6100TIP3    H218234   7.505   2.899   3.745  0.2345  0.1869 -0.8924
 6101TIP3   OH218235   7.005   3.181   4.406 -0.3304  0.3316  0.3136
 6101TIP3    H118236   7.038   3.201   4.318 -3.2944  2.2172 -0.4478
 6101TIP3    H218237   7.022   3.088   4.417 -0.9474 -0.1990 -2.7357
 6102TIP3   OH218238   2.865   7.934   5.387 -0.3146 -0.2538  0.1930
 6102TIP3    H118239   2.876   7.853   5.437 -1.7109 -0.1514  0.6744
 6102TIP3    H218240   2.943   7.938   5.332 -0.2838 -1.9830  0.0814
 6103TIP3   OH218241   6.656   7.847   2.261 -0.6060 -0.4127  0.4116
 6103TIP3    H118242   6.625   7.768   2.304 -3.9188  0.7775  0.3133
 6103TIP3    H218243   6.620   7.843   2.173  0.8668  0.2465 -0.2434
 6104TIP3   OH218244   8.404   1.461   4.146  0.0895 -0.1565 -0.0026
 6104TIP3    H118245   8.458   1.535   4.118 -0.8199  0.0496 -1.2634
 6104TIP3    H218246   8.327   1.502   4.187  0.3134 -0.4290  0.6905
 6105TIP3   OH218247   5.813   2.059   4.279  0.0553  0.2796 -0.0898
 6105TIP3    H118248   5.888   2.115   4.300 -0.4392  0.2230  1.9415
 6105TIP3    H218249   5.760   2.111   4.219 -0.5245  2.1258  1.9534
 6106TIP3   OH218250   2.636   2.943   4.695  0.4070  0.3653 -0.2863
 6106TIP3    H118251   2.580   2.944   4.772  1.7277  0.9242  0.6924
 6106TIP3    H218252   2.579   2.969   4.623 -0.9879 -0.7692  0.3943
 6107TIP3   OH218253   7.338   0.005   6.061  0.7500  0.4439  0.4593
 6107TIP3    H118254   7.309  -0.035   5.980  2.7813 -0.3952  0.1109
 6107TIP3    H218255   7.326   0.099   6.047  0.8618  0.2891 -0.7184
 6108TIP3   OH218256   6.512   5.952   2.483 -0.0941 -0.0546  0.3266
 6108TIP3    H118257   6.429   5.941   2.531  0.0232 -2.1085  0.1222
 6108TIP3    H218258   6.575   5.900   2.533  0.1956 -1.6618 -1.6389
 6109TIP3   OH218259   6.939   2.730   4.864 -0.0083  0.8359 -0.3844
 6109TIP3    H118260   6.970   2.640   4.871  2.9405  1.8994  1.2331
 6109TIP3    H218261   6.905   2.738   4.775  1.3773 -1.3740 -1.1279
 6110TIP3   OH218262   5.527   7.721   4.720  0.2072  0.6520  0.4256
 6110TIP3    H118263   5.572   7.685   4.644  2.1700  1.9389  0.9223
 6110TIP3    H218264   5.458   7.776   4.683 -1.2648 -1.6683 -0.3462
 6111TIP3   OH218265   6.278   0.717   4.650 -0.4372 -0.4997  0.1158
 6111TIP3    H118266   6.225   0.737   4.727 -0.1451 -1.1892  0.4956
 6111TIP3    H218267   6.368   0.715   4.683 -0.4169 -1.9350 -0.0285
 6112TIP3   OH218268   3.944   7.247   5.680  0.5598 -0.7240 -0.5017
 6112TIP3    H118269   3.962   7.257   5.773 -0.7469  0.1784 -0.3380
 6112TIP3    H218270   3.856   7.211   5.677  0.6585 -0.8975 -1.3924
 6113TIP3   OH218271   7.113   2.995   2.237  0.5367  0.4372  0.0674
 6113TIP3    H118272   7.187   2.942   2.205 -0.0774 -0.6198  0.3806
 6113TIP3    H218273   7.036   2.951   2.202  0.0531  1.4993 -0.1860
 6114TIP3   OH218274   4.695   7.225   6.497 -0.3427  0.0717  0.2169
 6114TIP3    H118275   4.753   7.149   6.504  1.3161  0.8572 -3.6818
 6114TIP3    H218276   4.635   7.202   6.426 -1.1666  1.5621  0.4154
 6115TIP3   OH218277   0.033   0.400   4.670  1.4524 -0.0561 -0.4165
 6115TIP3    H118278   0.041   0.305   4.681  2.6667 -0.0764 -1.3666
 6115TIP3    H218279   0.097   0.422   4.602  2.0164  1.6084  0.5996
 6116TIP3   OH218280   7.333   2.662   2.562  0.2642 -0.3492 -0.0127
 6116TIP3    H118281   7.333   2.576   2.604  3.0235  0.8008  2.5001
 6116TIP3    H218282   7.292   2.720   2.626  1.0971  0.7284 -0.4394
 6117TIP3   OH218283   7.607   0.315   6.102 -0.0993  0.1339  0.0844
 6117TIP3    H118284   7.689   0.317   6.152  1.0086  1.0502 -1.7084
 6117TIP3    H218285   7.635   0.319   6.011 -2.0911 -1.3180 -0.6206
 6118TIP3   OH218286   2.239   6.854   3.405 -0.1020  0.3860  0.7580
 6118TIP3    H118287   2.209   6.923   3.346 -1.4212 -0.0579  0.8946
 6118TIP3    H218288   2.229   6.774   3.355  0.3695  0.1806  0.9945
 6119TIP3   OH218289   5.614   2.885   5.108  0.2632 -0.1160 -0.5566
 6119TIP3    H118290   5.618   2.912   5.016 -2.7575  4.2063  0.4390
 6119TIP3    H218291   5.550   2.814   5.109  1.0326 -0.8658 -1.8773
 6120TIP3   OH218292   8.005   0.977   2.898  0.1254  0.0169  0.3528
 6120TIP3    H118293   8.081   0.946   2.849 -0.8727  1.0515 -1.9367
 6120TIP3    H218294   8.039   1.045   2.956  0.9921  0.2586 -0.4376
 6121TIP3   OH218295   6.595   2.221   4.144  0.1571 -0.1955 -0.2649
 6121TIP3    H118296   6.642   2.294   4.103  1.8133 -0.6282  0.8236
 6121TIP3    H218297   6.662   2.155   4.160 -1.1707 -1.5976 -0.3964
 6122TIP3   OH218298   7.791   0.638   3.636  0.7703  0.4822 -0.1683
 6122TIP3    H118299   7.863   0.613   3.694  0.6274  0.5900  0.0572
 6122TIP3    H218300   7.757   0.555   3.603  0.8440  0.4194 -0.0882
 6123TIP3   OH218301   5.014   5.037   5.854 -0.2287 -0.3900  0.1765
 6123TIP3    H118302   5.045   4.955   5.816  1.3942  1.5216 -2.8667
 6123TIP3    H218303   5.068   5.050   5.931  0.4004 -1.5319 -0.0560
 6124TIP3   OH218304   4.403   8.032   4.208  0.5068  0.2198 -0.0759
 6124TIP3    H118305   4.479   7.974   4.197  1.8925  2.0829 -0.4927
 6124TIP3    H218306   4.361   8.032   4.122  0.6404  0.0427 -0.1431
 6125TIP3   OH218307   6.041   2.641   3.857  0.3116 -0.0139  0.3260
 6125TIP3    H118308   6.060   2.732   3.836 -1.8404  0.3094 -0.3333
 6125TIP3    H218309   6.049   2.594   3.773  2.2650 -0.5990  0.8188
 6126TIP3   OH218310   7.384   2.410   4.491  0.2940 -0.1507  0.0001
 6126TIP3    H118311   7.406   2.335   4.436  1.4951 -0.0469  0.3256
 6126TIP3    H218312   7.423   2.485   4.445 -0.8732  0.2843 -0.3119
 6127TIP3   OH218313   7.978   0.048   2.631  0.3062 -0.6027  0.0027
 6127TIP3    H118314   7.916   0.022   2.699  0.8323  2.7662  1.8465
 6127TIP3    H218315   8.047  -0.019   2.635 -0.5002 -1.3811  1.6069
 6128TIP3   OH218316   7.408   1.508   4.881 -0.4652 -0.2739  0.2142
 6128TIP3    H118317   7.331   1.535   4.932 -0.4903  1.5432 -0.7453
 6128TIP3    H218318   7.428   1.420   4.913 -2.4981 -0.4867  1.0022
 6129TIP3   OH218319   6.923   2.719   3.791  0.4974  0.1274 -0.2809
 6129TIP3    H118320   6.873   2.738   3.711 -0.9130  0.2128  0.5961
 6129TIP3    H218321   6.976   2.643   3.768 -0.2796 -0.1705 -1.1429
 6130TIP3   OH218322   0.442   0.308   6.256 -0.4167 -0.5914 -0.2565
 6130TIP3    H118323   0.398   0.228   6.226 -1.3832 -0.2978  0.3494
 6130TIP3    H218324   0.535   0.289   6.248 -0.6431 -1.3154 -1.3486
 6131TIP3   OH218325   0.225   2.451   3.138  0.6198  0.2934 -0.1022
 6131TIP3    H118326   0.183   2.521   3.189  0.7399  1.5563 -1.7298
 6131TIP3    H218327   0.242   2.382   3.203 -1.7225  0.7445  1.0793
 6132TIP3   OH218328   7.655   2.958   3.684  0.2825  0.1827 -0.2037
 6132TIP3    H118329   7.695   2.971   3.598 -0.0862  1.2612 -0.2197
 6132TIP3    H218330   7.696   3.024   3.739 -1.2513  1.1032 -0.1470
 6133TIP3   OH218331   1.956   0.407   4.963  0.3407 -0.1924  0.0673
 6133TIP3    H118332   2.013   0.342   4.921  0.1948  0.2913 -0.9129
 6133TIP3    H218333   1.996   0.491   4.941  0.6814  0.0396  1.5670
 6134TIP3   OH218334   8.416   0.750   4.735 -0.1964 -0.1166 -0.3669
 6134TIP3    H118335   8.484   0.789   4.680  0.5402  0.1753  0.7426
 6134TIP3    H218336   8.463   0.691   4.793 -0.8049  0.5186  0.7923
 6135TIP3   OH218337   1.480   2.210   6.189  0.5717  0.4223 -0.3838
 6135TIP3    H118338   1.414   2.198   6.257  2.0948 -1.7817  0.8030
 6135TIP3    H218339   1.434   2.193   6.107 -0.1364 -2.2430  0.5133
 6136TIP3   OH218340   0.328   2.330   6.589 -0.2805 -0.2421 -0.4130
 6136TIP3    H118341   0.236   2.308   6.572 -0.9328  1.0006  1.4031
 6136TIP3    H218342   0.378   2.265   6.539 -2.1475 -1.6683 -0.4722
 6137TIP3   OH218343   0.414   2.352   4.615 -0.6104 -0.2038  0.2058
 6137TIP3    H118344   0.396   2.329   4.523 -0.3506  1.6678 -0.3337
 6137TIP3    H218345   0.374   2.281   4.665 -2.5213 -0.2412 -1.2815
 6138TIP3   OH218346   7.633   0.464   5.442 -0.1148 -0.4664 -0.1109
 6138TIP3    H118347   7.581   0.481   5.520 -2.0303  0.0739 -1.4622
 6138TIP3    H218348   7.663   0.550   5.413  0.1763 -0.6175 -0.2694
 6139TIP3   OH218349   7.754   1.698   4.048  0.2175  0.0728 -0.2810
 6139TIP3    H118350   7.841   1.729   4.074  0.8171 -0.9640 -0.9975
 6139TIP3    H218351   7.733   1.747   3.969  0.7885 -0.6943 -0.9218
 6140TIP3   OH218352   6.280   6.494   5.404  0.3330  0.1925  0.6190
 6140TIP3    H118353   6.289   6.441   5.325  2.2868  0.7924  0.4150
 6140TIP3    H218354   6.234   6.573   5.375  0.1205 -0.0513  0.2898
 6141TIP3   OH218355   7.983   2.630   3.190 -0.1938  0.0840 -0.0552
 6141TIP3    H118356   7.940   2.685   3.255  1.8147 -0.2482  1.6133
 6141TIP3    H218357   7.995   2.687   3.114 -2.4912  0.5041 -0.1143
 6142TIP3   OH218358   2.844   1.156   3.251 -0.0247 -0.1803 -0.0059
 6142TIP3    H118359   2.855   1.154   3.346 -0.7306 -1.0395  0.0719
 6142TIP3    H218360   2.810   1.243   3.233  1.7223  0.5769  0.3364
 6143TIP3   OH218361   7.162   2.558   1.646  0.1391  0.1179 -0.6750
 6143TIP3    H118362   7.092   2.493   1.650  0.2012  0.0615 -0.4743
 6143TIP3    H218363   7.161   2.600   1.732  1.9118 -1.5203  0.1750
 6144TIP3   OH218364   8.303   1.590   4.996  0.0567  0.4564 -0.1458
 6144TIP3    H118365   8.392   1.563   4.971  0.2604  0.6918  0.3033
 6144TIP3    H218366   8.252   1.509   4.996  0.1409  0.4027 -0.9432
 6145TIP3   OH218367   7.606   1.934   3.384  0.1436 -0.4984 -0.1319
 6145TIP3    H118368   7.569   1.924   3.296  0.2428 -0.2922 -0.1973
 6145TIP3    H218369   7.566   2.013   3.418 -0.6068 -1.0822  0.3715
 6146TIP3   OH218370   8.040   0.136   5.801  0.1562  0.5252 -0.2365
 6146TIP3    H118371   8.075   0.142   5.712  0.3937  1.5459 -0.0820
 6146TIP3    H218372   8.023   0.227   5.826 -3.1991  0.0252 -0.5200
 6147TIP3   OH218373   6.105   0.604   3.603  0.0116 -0.0175  0.0168
 6147TIP3    H118374   6.063   0.603   3.517 -0.5373 -0.4990  0.2933
 6147TIP3    H218375   6.056   0.670   3.653  2.3447  2.6431 -1.0450
 6148TIP3   OH218376   8.479   2.206   3.297  0.2544  0.0370  0.7272
 6148TIP3    H118377   8.439   2.236   3.216  2.3752  0.8300 -0.0743
 6148TIP3    H218378   8.567   2.244   3.295  0.6386 -0.6650  2.9778
 6149TIP3   OH218379   7.191   4.382   4.310 -0.2008  0.1217  0.3758
 6149TIP3    H118380   7.276   4.349   4.282  0.3987  1.0346  1.0986
 6149TIP3    H218381   7.211   4.463   4.357 -1.3839 -0.1186  1.3312
 6150TIP3   OH218382   7.281   0.714   3.979  0.4000 -0.0240 -0.1520
 6150TIP3    H118383   7.278   0.804   4.012  0.3341 -0.5442  1.2930
 6150TIP3    H218384   7.192   0.696   3.950  0.5945  0.6438 -1.2085
 6151TIP3   OH218385   8.386   2.430   5.008 -0.5715  0.2456  0.2059
 6151TIP3    H118386   8.463   2.377   5.027 -0.5726  0.1768  0.0179
 6151TIP3    H218387   8.366   2.412   4.916 -0.1350  1.1161 -0.0736
 6152TIP3   OH218388   0.238   2.279   3.343  0.5536 -0.7396 -0.2241
 6152TIP3    H118389   0.326   2.251   3.317  0.1906 -1.4843 -0.7010
 6152TIP3    H218390   0.234   2.261   3.436  1.0633 -0.2754 -0.1094
 6153TIP3   OH218391   7.798   1.428   2.853  0.2588 -0.2122  0.2939
 6153TIP3    H118392   7.761   1.389   2.932 -0.6449 -0.4872 -0.2590
 6153TIP3    H218393   7.824   1.354   2.799 -2.7516 -0.1356 -1.3669
 6154TIP3   OH218394   1.044   3.874   5.375  0.2252  0.0189 -0.2099
 6154TIP3    H118395   1.041   3.904   5.284 -0.1854  0.3274 -0.0995
 6154TIP3    H218396   1.066   3.953   5.425  0.9578 -0.2571 -0.0860
 6155TIP3   OH218397   0.809   1.475   5.255 -0.2802  0.2158 -0.0580
 6155TIP3    H118398   0.762   1.551   5.290  0.2379  0.4556  0.1148
 6155TIP3    H218399   0.833   1.502   5.166 -1.8321 -0.4930 -0.7124
 6156TIP3   OH218400   0.960   1.671   4.520  0.0264  1.0032 -0.0398
 6156TIP3    H118401   0.964   1.579   4.492 -0.1819  0.3214  2.0627
 6156TIP3    H218402   1.032   1.714   4.473  2.0877 -0.9023  1.2841
 6157TIP3   OH218403   7.587   1.688   4.566  0.4956  0.4551  0.0282
 6157TIP3    H118404   7.640   1.693   4.486 -0.1660 -0.3502 -0.4768
 6157TIP3    H218405   7.649   1.668   4.635  0.6776 -2.1525 -0.8183
 6158TIP3   OH218406   8.095   1.651   1.440 -0.6025 -0.3278  0.1554
 6158TIP3    H118407   8.155   1.663   1.514  1.0694 -1.4110 -0.9845
 6158TIP3    H218408   8.015   1.616   1.478  0.4795 -1.4909  1.3700
 6159TIP3   OH218409   6.663   4.315   3.858 -0.2380 -0.4705  0.2847
 6159TIP3    H118410   6.675   4.378   3.929  1.9709 -1.2730  0.6338
 6159TIP3    H218411   6.595   4.255   3.890 -0.9322  0.5547  0.7427
 6160TIP3   OH218412   7.606   2.099   5.285 -0.1845 -0.1965 -0.6822
 6160TIP3    H118413   7.569   2.185   5.270 -0.8971 -0.2540  0.6906
 6160TIP3    H218414   7.680   2.093   5.224  1.2258  2.2399  0.7126
 6161TIP3   OH218415   1.297   1.279   4.488  0.4289 -0.2097 -0.0018
 6161TIP3    H118416   1.254   1.200   4.520  1.0649 -0.1978  0.9218
 6161TIP3    H218417   1.273   1.285   4.396 -3.0783  0.7945  0.8901
 6162TIP3   OH218418   0.455   0.679   1.835 -0.1406 -0.5914 -0.1599
 6162TIP3    H118419   0.483   0.740   1.767 -1.2254  0.3326  0.2094
 6162TIP3    H218420   0.434   0.735   1.910 -0.3760 -1.4868  0.4539
 6163TIP3   OH218421   7.617   1.995   4.994 -0.2578  0.1704  0.4005
 6163TIP3    H118422   7.711   2.010   4.982 -0.4199  0.2623 -0.8642
 6163TIP3    H218423   7.582   1.990   4.904 -1.4369  0.0203  0.8591
 6164TIP3   OH218424   6.848   4.228   2.912 -0.1163  0.5534  0.0093
 6164TIP3    H118425   6.752   4.227   2.913 -0.1699 -1.7915 -2.5440
 6164TIP3    H218426   6.873   4.142   2.944  1.1149  0.5808 -0.8444
 6165TIP3   OH218427   3.395   7.904   0.144  0.0979  0.7687  0.5277
 6165TIP3    H118428   3.417   7.897   0.051 -0.4153  1.4263  0.3558
 6165TIP3    H218429   3.379   7.997   0.159  2.2619  0.9921  1.7602
 6166TIP3   OH218430   2.181   4.314   6.366  0.2141  0.6970  0.2955
 6166TIP3    H118431   2.107   4.253   6.368  0.3478  0.4145 -2.1913
 6166TIP3    H218432   2.164   4.370   6.290  0.9900  2.6414  1.5215
 6167TIP3   OH218433   0.073   1.486   5.529 -0.5457  0.9577 -0.3669
 6167TIP3    H118434   0.063   1.535   5.610  1.1430  0.1677  0.3385
 6167TIP3    H218435   0.105   1.550   5.465 -0.4929  1.2688 -0.0267
 6168TIP3   OH218436   1.990   3.081   5.469  0.3944 -0.2796  0.4465
 6168TIP3    H118437   1.944   3.163   5.457 -0.4187 -0.6799  0.8114
 6168TIP3    H218438   2.019   3.083   5.560 -0.2704 -0.7222  0.6711
 6169TIP3   OH218439   1.365   2.700   6.180  0.0470  0.0316 -0.5476
 6169TIP3    H118440   1.337   2.706   6.089  0.0529 -1.3483 -0.6583
 6169TIP3    H218441   1.423   2.624   6.182 -0.1212 -0.0787  0.6435
 6170TIP3   OH218442   3.542   5.783   0.969  0.0215  0.5914 -0.3248
 6170TIP3    H118443   3.568   5.821   0.885  0.5921 -0.9663 -0.8617
 6170TIP3    H218444   3.590   5.834   1.034  0.7847  0.7918 -1.0393
 6171TIP3   OH218445   8.325   1.015   4.230 -0.2311  0.1247  0.5046
 6171TIP3    H118446   8.294   1.063   4.306 -0.4552 -0.1567  0.5880
 6171TIP3    H218447   8.281   1.056   4.156 -0.4626  0.0144  0.5810
 6172TIP3   OH218448   2.714   1.951   5.422 -0.1629  0.2873 -0.5791
 6172TIP3    H118449   2.744   2.042   5.428  1.3063 -0.1202 -1.4399
 6172TIP3    H218450   2.758   1.907   5.495  0.1347  0.0025 -0.9279
 6173TIP3   OH218451   3.789   6.216   0.111  0.1197  0.2494 -0.5804
 6173TIP3    H118452   3.800   6.122   0.099 -0.9678  0.2422 -1.5511
 6173TIP3    H218453   3.729   6.243   0.042  1.2629  1.8475 -1.0024
 6174TIP3   OH218454   6.590   6.155   5.236 -0.2804 -0.2451 -0.0385
 6174TIP3    H118455   6.655   6.207   5.188 -0.3557  1.5003  1.6751
 6174TIP3    H218456   6.601   6.066   5.202  2.2906  0.2060 -0.5443
 6175TIP3   OH218457   8.230   5.919   5.022  0.4434 -0.4851  0.1017
 6175TIP3    H118458   8.256   5.847   5.080 -0.4321 -0.5983  0.3610
 6175TIP3    H218459   8.138   5.935   5.044  0.3961  0.1456 -0.5528
 6176TIP3   OH218460   3.421   3.874   0.342 -0.5084  0.0707  0.2663
 6176TIP3    H118461   3.344   3.817   0.343  0.0515 -0.6819  0.7687
 6176TIP3    H218462   3.475   3.840   0.270 -0.2395  0.0450  0.4792
 6177TIP3   OH218463   1.679   1.635   5.640 -0.7060 -0.2665 -0.7719
 6177TIP3    H118464   1.614   1.705   5.643  0.7538  1.0642  0.4667
 6177TIP3    H218465   1.629   1.555   5.653 -1.9689  0.8277  1.2834
 6178TIP3   OH218466   3.208   3.708   0.348  0.0886 -0.3836  0.1730
 6178TIP3    H118467   3.113   3.702   0.337 -0.1354  0.2077  1.5577
 6178TIP3    H218468   3.239   3.618   0.343 -0.4190 -0.4844 -1.2803
 6179TIP3   OH218469   3.378   7.697   1.273  0.5339 -0.4632  0.8095
 6179TIP3    H118470   3.431   7.700   1.353  2.0249 -1.6323 -0.1132
 6179TIP3    H218471   3.391   7.609   1.238 -2.0047 -0.7650  0.5181
 6180TIP3   OH218472   0.716   1.264   5.432  0.0923 -0.5344 -0.5557
 6180TIP3    H118473   0.760   1.328   5.377 -1.6549  0.6285 -0.6468
 6180TIP3    H218474   0.708   1.307   5.517 -0.0626 -1.0802 -0.2908
 6181TIP3   OH218475   1.640   3.090   6.230 -0.2882  0.0245  0.6989
 6181TIP3    H118476   1.721   3.122   6.188 -0.4640 -1.4075 -0.8025
 6181TIP3    H218477   1.582   3.166   6.230  0.0777  0.3347 -0.8043
 6182TIP3   OH218478   2.639   3.430   5.733 -0.4504  0.2573  0.2944
 6182TIP3    H118479   2.575   3.370   5.695 -2.2024  2.3496 -0.1940
 6182TIP3    H218480   2.710   3.433   5.668 -0.3044 -1.3414  0.3774
 6183TIP3   OH218481   1.967   2.334   6.660  0.1202  0.1503  0.3351
 6183TIP3    H118482   1.964   2.251   6.613  1.6265  1.0100 -1.3808
 6183TIP3    H218483   1.910   2.393   6.610  0.4036  0.6101  0.5423
 6184TIP3   OH218484   0.196   3.331   5.699  0.1627  0.2412  0.3356
 6184TIP3    H118485   0.271   3.276   5.676 -0.9519 -1.0881 -0.2266
 6184TIP3    H218486   0.171   3.301   5.787  0.6143  1.0507  0.7444
 6185TIP3   OH218487   7.806   3.667   4.175 -0.5125  0.2779 -0.5436
 6185TIP3    H118488   7.784   3.701   4.262  3.4390  0.4034  0.5292
 6185TIP3    H218489   7.767   3.729   4.114  0.2526  2.6030  1.2426
 6186TIP3   OH218490   2.915   0.721   4.493 -0.0085  0.0310  0.2194
 6186TIP3    H118491   2.869   0.730   4.409 -0.2000  1.4037  0.4657
 6186TIP3    H218492   2.906   0.806   4.535  2.0466  0.0752  0.6471
 6187TIP3   OH218493   3.205   5.441   0.615 -0.8027 -0.4341  0.5488
 6187TIP3    H118494   3.252   5.424   0.534  0.2643  0.7817  0.8987
 6187TIP3    H218495   3.224   5.532   0.636 -1.0539 -0.7253  2.1674
 6188TIP3   OH218496   1.203   1.421   4.937  0.9909 -0.5121 -0.3911
 6188TIP3    H118497   1.201   1.345   4.996  1.0893  0.2966  0.6780
 6188TIP3    H218498   1.286   1.413   4.890  1.8639 -0.1089  1.0356
 6189TIP3   OH218499   1.265   3.450   5.692  0.8690 -0.2878  0.2026
 6189TIP3    H118500   1.349   3.455   5.737  0.8198 -1.2667  0.4280
 6189TIP3    H218501   1.203   3.423   5.760  1.1475 -3.7180 -0.8234
 6190TIP3   OH218502   8.333   3.026   3.602 -0.0292 -0.3484 -0.3259
 6190TIP3    H118503   8.318   2.934   3.623 -0.5761 -0.0750  0.5085
 6190TIP3    H218504   8.267   3.073   3.653 -0.1258  0.4672 -1.1798
 6191TIP3   OH218505   4.630   6.122   0.239  0.0941  0.1247 -0.4258
 6191TIP3    H118506   4.564   6.069   0.193  0.9073 -0.2754 -1.1546
 6191TIP3    H218507   4.608   6.113   0.331 -1.0328  0.2015 -0.6779
 6192TIP3   OH218508   0.122   2.266   5.134 -0.3204 -0.2149 -0.1388
 6192TIP3    H118509   0.071   2.256   5.214 -0.1276  1.2494  0.1706
 6192TIP3    H218510   0.143   2.176   5.108 -2.4264 -0.7993  0.1128
 6193TIP3   OH218511   2.757   5.202   0.841 -0.2815  0.2899  0.5640
 6193TIP3    H118512   2.682   5.256   0.866  0.1251  0.4411  1.4652
 6193TIP3    H218513   2.720   5.133   0.787 -1.0327  0.5174  0.7843
 6194TIP3   OH218514   0.370   1.797   5.975  0.3922 -0.3026  0.3171
 6194TIP3    H118515   0.459   1.798   5.939  0.3983 -0.0025  0.3385
 6194TIP3    H218516   0.374   1.734   6.047  0.1813 -1.4969 -0.6986
 6195TIP3   OH218517   8.448   1.269   4.930  0.2400  0.1354 -0.1635
 6195TIP3    H118518   8.468   1.236   4.842  4.3645  2.6742 -0.3155
 6195TIP3    H218519   8.411   1.193   4.976 -0.0740 -1.8098 -3.4690
 6196TIP3   OH218520   2.148   4.257   5.912 -0.5600 -0.1809  0.1703
 6196TIP3    H118521   2.234   4.216   5.903 -1.0379 -1.0256 -0.6237
 6196TIP3    H218522   2.099   4.228   5.835 -1.9074 -0.5982  1.1577
 6197TIP3   OH218523   8.389   3.681   5.548 -0.2324 -0.0192 -0.4368
 6197TIP3    H118524   8.390   3.746   5.479 -0.6083 -0.2790 -0.6852
 6197TIP3    H218525   8.476   3.639   5.542 -0.2616 -0.0364 -0.7445
 6198TIP3   OH218526   8.046   2.241   6.092  0.5477  0.1411 -0.5951
 6198TIP3    H118527   8.028   2.160   6.140  1.2062  1.6842  2.3930
 6198TIP3    H218528   7.979   2.245   6.025 -0.6835 -1.9098  0.4660
 6199TIP3   OH218529   2.647   4.467   5.130 -0.1205 -0.1576  0.0462
 6199TIP3    H118530   2.590   4.407   5.178 -1.5827  0.9510 -0.2636
 6199TIP3    H218531   2.638   4.440   5.038 -1.4830  1.0913 -0.1967
 6200TIP3   OH218532   3.394   1.871   4.877 -0.1039  0.2635  0.0325
 6200TIP3    H118533   3.341   1.793   4.891  1.9737 -0.7439  2.6946
 6200TIP3    H218534   3.333   1.944   4.892 -1.3568 -0.8519  0.5192
 6201TIP3   OH218535   0.961   1.720   6.385 -0.0738  0.1747  0.0395
 6201TIP3    H118536   1.011   1.799   6.366 -0.1072  0.3313  0.5983
 6201TIP3    H218537   1.025   1.658   6.418  0.3239 -0.7513 -2.3389
 6202TIP3   OH218538   1.998   0.620   4.383  0.3521  0.1801 -0.6504
 6202TIP3    H118539   1.921   0.618   4.440  1.3155 -2.6416  0.6195
 6202TIP3    H218540   1.988   0.702   4.333 -2.5308  0.7499  0.7309
 6203TIP3   OH218541   7.179   3.572   6.142  0.4202  0.1207  0.5132
 6203TIP3    H118542   7.156   3.483   6.170  1.2348  0.1787  1.3695
 6203TIP3    H218543   7.209   3.560   6.051  0.4147 -0.4634  0.5819
 6204TIP3   OH218544   3.504   4.440   0.636  0.0294 -0.1798  0.0173
 6204TIP3    H118545   3.496   4.396   0.720 -0.0201  0.9394  0.6124
 6204TIP3    H218546   3.455   4.522   0.647  1.7034  0.9173 -0.4088
 6205TIP3   OH218547   8.291   0.686   6.926  0.0275  0.4078  0.5037
 6205TIP3    H118548   8.263   0.625   6.859  1.3347 -0.2269  0.5079
 6205TIP3    H218549   8.348   0.635   6.983 -0.4742  1.1228  1.6759
 6206TIP3   OH218550   3.204   3.230   3.083  0.2893  0.3975  0.2351
 6206TIP3    H118551   3.255   3.269   3.011 -0.0693  0.2310 -0.1131
 6206TIP3    H218552   3.149   3.164   3.040 -0.0931  0.4580  0.6306
 6207TIP3   OH218553   6.141   3.674   6.239  0.3280 -0.3180  0.3535
 6207TIP3    H118554   6.182   3.749   6.283 -1.2027  1.0139 -0.4683
 6207TIP3    H218555   6.098   3.626   6.310 -0.3337  0.6492  0.6088
 6208TIP3   OH218556   2.189   4.646   6.400  0.1210  0.4490 -0.4065
 6208TIP3    H118557   2.281   4.646   6.373  0.1809 -0.2994 -0.2151
 6208TIP3    H218558   2.150   4.574   6.351  0.2449 -0.9849  1.5401
 6209TIP3   OH218559   1.140   0.733   6.876  0.0579 -0.8696 -0.1575
 6209TIP3    H118560   1.092   0.712   6.796 -0.6096 -2.4449  0.6356
 6209TIP3    H218561   1.192   0.654   6.894  0.2454 -0.5040  0.9238
 6210TIP3   OH218562   1.361   2.975   6.025 -0.6522 -0.5577  0.2249
 6210TIP3    H118563   1.336   2.921   6.099 -0.1798 -1.0593  0.0233
 6210TIP3    H218564   1.414   2.917   5.969  1.2166  0.5477  0.7854
 6211TIP3   OH218565   1.456   4.913   4.599  0.2687 -0.2055  0.0793
 6211TIP3    H118566   1.368   4.886   4.626  0.5977 -0.3118  1.0969
 6211TIP3    H218567   1.445   4.953   4.513 -0.8560  0.2972  0.4557
 6212TIP3   OH218568   2.023   5.669   0.789 -0.1318  0.0183  0.1877
 6212TIP3    H118569   1.989   5.680   0.700  0.2689 -0.6640 -0.0514
 6212TIP3    H218570   2.057   5.580   0.791  1.3562  0.5641  0.5160
 6213TIP3   OH218571   1.272   2.335   6.543 -0.0619  0.3011  0.3295
 6213TIP3    H118572   1.224   2.389   6.479  1.0585  0.6761 -0.1988
 6213TIP3    H218573   1.263   2.383   6.626 -1.7229 -0.3068  0.5274
 6214TIP3   OH218574   7.665   4.046   6.380  0.0360 -0.3256 -0.2862
 6214TIP3    H118575   7.619   4.004   6.452  0.4626 -0.5590 -0.1460
 6214TIP3    H218576   7.603   4.110   6.346 -0.1962 -0.2620  0.2453
 6215TIP3   OH218577   0.700   2.035   5.385 -0.1759  0.4659 -0.2085
 6215TIP3    H118578   0.654   2.115   5.361 -3.7538 -0.9713  1.4271
 6215TIP3    H218579   0.717   2.044   5.479 -1.3461 -0.9786  0.1644
 6216TIP3   OH218580   8.396   3.389   6.699  0.3082  0.4830 -0.9581
 6216TIP3    H118581   8.420   3.438   6.778  1.0984 -3.1893  1.2366
 6216TIP3    H218582   8.305   3.361   6.716  0.0115  0.8212 -1.9823
 6217TIP3   OH218583   3.925   5.347   0.608  0.0084  0.1178 -0.1740
 6217TIP3    H118584   3.862   5.347   0.536  1.2192 -1.5459 -1.2841
 6217TIP3    H218585   3.993   5.408   0.579  0.8787 -1.1382 -0.8121
 6218TIP3   OH218586   0.547   2.558   6.179  0.3339 -0.4010 -0.7544
 6218TIP3    H118587   0.624   2.540   6.234 -0.3791 -1.3733 -0.0721
 6218TIP3    H218588   0.485   2.489   6.200 -0.6814  0.2887 -1.4271
 6219TIP3   OH218589   0.504   0.406   6.638 -0.2129  0.2867  0.6652
 6219TIP3    H118590   0.543   0.482   6.595  0.1645  0.0044  0.5119
 6219TIP3    H218591   0.524   0.418   6.731  0.8655 -0.2299  0.5028
 6220TIP3   OH218592   8.323   1.864   4.169  0.4627  0.0396 -0.2456
 6220TIP3    H118593   8.238   1.820   4.168 -0.3256  1.5164  0.6229
 6220TIP3    H218594   8.332   1.901   4.081  0.7374 -1.0857 -0.7022
 6221TIP3   OH218595   2.732   1.367   6.566 -0.1802 -0.0981  0.0119
 6221TIP3    H118596   2.780   1.422   6.628  1.0747 -0.9234 -0.2116
 6221TIP3    H218597   2.710   1.288   6.615 -0.1642 -0.2798 -0.2704
 6222TIP3   OH218598   0.213   2.236   5.477 -0.5427 -0.6455 -0.4502
 6222TIP3    H118599   0.164   2.314   5.450 -0.2688  0.0988  1.1130
 6222TIP3    H218600   0.150   2.184   5.527  0.0728  0.0409  1.0810
 6223TIP3   OH218601   2.003   3.391   0.120 -0.0037  0.5151  0.1371
 6223TIP3    H118602   1.968   3.304   0.102 -1.2156  0.8959  0.5931
 6223TIP3    H218603   1.933   3.435   0.169  0.3179  1.9778 -0.6997
 6224TIP3   OH218604   0.841   2.029   6.286  1.0087 -0.4013 -0.2961
 6224TIP3    H118605   0.873   2.001   6.372 -0.3118  0.3978  0.4685
 6224TIP3    H218606   0.772   2.092   6.306 -0.3692 -1.3734 -1.9427
 6225TIP3   OH218607   0.124   1.844   4.557  0.3157 -0.2541 -0.6322
 6225TIP3    H118608   0.092   1.780   4.620 -0.0695 -1.2638 -1.8345
 6225TIP3    H218609   0.209   1.812   4.530 -0.1001 -0.5415 -1.6244
 6226TIP3   OH218610   1.809   0.979   6.298  0.3968 -0.3777  0.2032
 6226TIP3    H118611   1.771   0.913   6.240 -0.8412  0.4795  0.0244
 6226TIP3    H218612   1.891   1.005   6.254 -0.8235  0.6998 -1.4912
 6227TIP3   OH218613   0.884   0.337   5.751  0.3358 -0.1626  0.1221
 6227TIP3    H118614   0.834   0.372   5.676 -3.4834 -1.6534  1.8297
 6227TIP3    H218615   0.859   0.394   5.824  0.0772 -1.7729  1.3008
 6228TIP3   OH218616   8.261   0.044   6.736 -0.1253 -0.4167 -0.5410
 6228TIP3    H118617   8.303   0.047   6.650 -0.4217 -0.5723 -0.6914
 6228TIP3    H218618   8.174   0.009   6.719 -1.0827  1.8751 -0.5251
 6229TIP3   OH218619   8.148   3.157   4.889 -0.1566 -0.0321 -0.3982
 6229TIP3    H118620   8.191   3.232   4.846  0.5470  0.7241  1.5760
 6229TIP3    H218621   8.169   3.167   4.981 -3.6027 -0.3034  0.4952
 6230TIP3   OH218622   2.633   3.584   5.432  0.3613  0.0931  0.3328
 6230TIP3    H118623   2.560   3.552   5.485 -1.2846  1.8373 -0.7869
 6230TIP3    H218624   2.710   3.542   5.469 -1.3432 -2.8833  0.7092
 6231TIP3   OH218625   1.958   2.233   6.032  0.0379  1.4078 -0.0216
 6231TIP3    H118626   1.873   2.201   6.002 -0.3457  0.8231  1.6236
 6231TIP3    H218627   2.021   2.197   5.970 -0.8801  1.5477 -1.0421
 6232TIP3   OH218628   0.101   3.892   4.281  0.5472 -0.0033 -0.5584
 6232TIP3    H118629   0.128   3.978   4.315 -1.0463  0.1153  0.4862
 6232TIP3    H218630   0.110   3.833   4.355 -1.5265 -0.0469 -0.3021
 6233TIP3   OH218631   8.046   2.706   4.906  0.3167 -0.2308 -0.5907
 6233TIP3    H118632   8.135   2.741   4.903 -0.1818  1.1616  0.5072
 6233TIP3    H218633   8.014   2.728   4.994 -0.5164 -2.2227 -0.3537
 6234TIP3   OH218634   1.602   1.547   3.727  0.4718 -0.3369  0.2130
 6234TIP3    H118635   1.507   1.537   3.726  0.4882 -0.7775  1.7955
 6234TIP3    H218636   1.616   1.642   3.729  0.0719 -0.2686 -0.1649
 6235TIP3   OH218637   7.657   1.252   5.648 -0.0256  0.1055 -0.8614
 6235TIP3    H118638   7.715   1.252   5.724 -1.0841 -2.0280 -0.0000
 6235TIP3    H218639   7.678   1.171   5.602 -0.2936  0.7506 -2.1363
 6236TIP3   OH218640   1.223   3.640   4.837 -0.7832 -0.4575  0.1882
 6236TIP3    H118641   1.191   3.729   4.821 -0.4878 -0.2716  0.6226
 6236TIP3    H218642   1.305   3.652   4.883  0.9751 -0.9079 -2.7070
 6237TIP3   OH218643   0.263   3.257   6.388  0.7395  0.5134 -0.6277
 6237TIP3    H118644   0.274   3.168   6.356 -1.4075 -0.5442  1.4174
 6237TIP3    H218645   0.349   3.281   6.423  1.1239 -1.0271 -0.4879
 6238TIP3   OH218646   1.610   1.695   6.209  0.1884  0.6504  0.0265
 6238TIP3    H118647   1.687   1.669   6.258  0.4272  1.1873 -0.0620
 6238TIP3    H218648   1.638   1.697   6.118 -0.2106 -0.1792 -0.1255
 6239TIP3   OH218649   7.315   1.990   4.264 -0.7866  0.6693  0.8679
 6239TIP3    H118650   7.302   1.971   4.357 -1.8846 -1.6212  0.2863
 6239TIP3    H218651   7.319   1.904   4.222  1.1432  1.6334 -1.0403
 6240TIP3   OH218652   1.478   2.627   5.215  0.7908 -0.2617  0.3904
 6240TIP3    H118653   1.389   2.658   5.229  0.5851 -1.4493  1.8699
 6240TIP3    H218654   1.473   2.571   5.137 -0.0595 -1.5082  1.3320
 6241TIP3   OH218655   0.803   1.096   3.851  0.1737 -0.4660 -0.1529
 6241TIP3    H118656   0.795   1.191   3.857  0.6513 -0.4039 -0.5170
 6241TIP3    H218657   0.777   1.065   3.938 -2.3124 -0.1641 -0.7479
 6242TIP3   OH218658   1.032   1.846   4.735  0.0182  0.2232 -0.6529
 6242TIP3    H118659   1.004   1.782   4.670  2.8913  0.7154 -2.4339
 6242TIP3    H218660   1.099   1.801   4.786  2.2872  1.8362 -2.1145
 6243TIP3   OH218661   1.943   2.340   5.044  0.0408 -0.4264 -0.0500
 6243TIP3    H118662   1.874   2.385   4.997 -1.0605  0.4602  2.3059
 6243TIP3    H218663   2.013   2.328   4.980 -1.5399  0.3471 -1.9687
 6244TIP3   OH218664   0.361   2.373   5.824 -0.0457  0.6591 -0.4315
 6244TIP3    H118665   0.309   2.293   5.824  0.0457  0.4831  3.8110
 6244TIP3    H218666   0.298   2.442   5.805 -0.4397 -0.2115 -2.4095
 6245TIP3   OH218667   0.051   2.248   5.776 -0.2774  0.1246 -0.2713
 6245TIP3    H118668   0.027   2.299   5.699 -0.1207  1.6388  0.6719
 6245TIP3    H218669  -0.006   2.281   5.846  1.1771  0.3596  0.8105
 6246TIP3   OH218670   8.227   0.423   5.316 -0.6572  0.1052  0.6249
 6246TIP3    H118671   8.321   0.422   5.301 -0.4782  0.1485  1.7147
 6246TIP3    H218672   8.195   0.343   5.274 -0.3469  0.8218 -1.0103
 6247TIP3   OH218673   7.512   3.150   5.655 -0.1320  0.3653  0.0798
 6247TIP3    H118674   7.554   3.143   5.570 -0.0095 -0.3771  0.1903
 6247TIP3    H218675   7.577   3.115   5.717 -0.1167  1.1364  0.5111
 6248TIP3   OH218676   0.704   1.216   6.201 -0.3094  0.1354 -0.7544
 6248TIP3    H118677   0.690   1.303   6.238 -0.0320 -0.3491  0.5051
 6248TIP3    H218678   0.798   1.212   6.184 -0.2988  0.0305 -0.6728
 6249TIP3   OH218679   3.551   5.118   0.689  0.7305 -0.6558 -0.0733
 6249TIP3    H118680   3.462   5.086   0.707 -0.9711  3.5343 -0.4643
 6249TIP3    H218681   3.585   5.143   0.775  0.7749 -0.4383 -0.1537
 6250TIP3   OH218682   2.147   2.855   6.669 -0.6365 -0.1022 -0.0994
 6250TIP3    H118683   2.128   2.943   6.704  2.0738  1.1403 -1.5889
 6250TIP3    H218684   2.191   2.810   6.741 -0.5867  0.3183  0.1380
 6251TIP3   OH218685   3.021   3.089   3.370 -0.0373  0.3395 -0.0096
 6251TIP3    H118686   3.115   3.106   3.357 -0.7887  2.4578 -3.0357
 6251TIP3    H218687   2.993   3.156   3.431 -0.3523  2.1344 -2.0935
 6252TIP3   OH218688   3.808   1.492   6.459 -0.1934 -0.1745  0.0413
 6252TIP3    H118689   3.880   1.486   6.521 -0.4894  0.4717  0.4527
 6252TIP3    H218690   3.790   1.401   6.433  0.5893 -0.3557  0.1357
 6253TIP3   OH218691   2.361   1.927   5.403 -0.3515 -0.5971 -0.3197
 6253TIP3    H118692   2.285   1.966   5.360  0.1660  0.3749 -0.3649
 6253TIP3    H218693   2.414   2.002   5.430 -1.0694 -1.1253  2.7823
 6254TIP3   OH218694   2.236   3.285   5.328 -0.0639 -0.3698 -0.1229
 6254TIP3    H118695   2.293   3.339   5.273  1.8870 -2.0504  0.1594
 6254TIP3    H218696   2.290   3.265   5.405 -2.1064  0.4393  1.5646
 6255TIP3   OH218697   2.505   1.500   5.823  0.1822 -0.8015 -0.1136
 6255TIP3    H118698   2.598   1.481   5.820  0.1638 -1.2585  1.6576
 6255TIP3    H218699   2.467   1.431   5.877 -0.8294  0.6413  1.0907
 6256TIP3   OH218700   7.586   1.413   4.284 -0.4599  0.2460  0.2155
 6256TIP3    H118701   7.498   1.403   4.320 -0.1952 -1.7829  0.3109
 6256TIP3    H218702   7.571   1.449   4.196 -1.2351  2.3293  1.1401
 6257TIP3   OH218703   8.361   1.470   3.329 -0.6969  0.0615  0.1032
 6257TIP3    H118704   8.408   1.393   3.295 -0.2592  0.1114  0.5838
 6257TIP3    H218705   8.338   1.520   3.251 -1.2734 -0.7246 -0.2302
 6258TIP3   OH218706   0.503   0.499   5.028  0.2174 -0.3507 -0.0286
 6258TIP3    H118707   0.561   0.454   4.966 -1.5037  1.0476 -2.7233
 6258TIP3    H218708   0.547   0.583   5.045  0.8224 -0.8460  0.8658
 6259TIP3   OH218709   1.933   2.061   6.283 -0.0860  0.1202  0.2070
 6259TIP3    H118710   1.847   2.022   6.266  0.5728 -1.3242  0.0574
 6259TIP3    H218711   1.948   2.119   6.208  0.4832 -2.1690 -1.5184
 6260TIP3   OH218712   1.587   3.253   5.258  0.3700 -0.6944  0.0104
 6260TIP3    H118713   1.562   3.169   5.219  2.1901 -0.4770 -1.7111
 6260TIP3    H218714   1.647   3.291   5.194 -1.0041  2.2691  0.4209
 6261TIP3   OH218715   0.382   3.225   4.768 -0.1822 -0.0391  0.4876
 6261TIP3    H118716   0.310   3.168   4.795  0.3419 -1.1145 -0.3806
 6261TIP3    H218717   0.461   3.174   4.786  0.3154  0.6476  0.2618
 6262TIP3   OH218718   8.481   2.952   6.543 -0.4313 -0.2010  0.6197
 6262TIP3    H118719   8.522   3.022   6.594 -0.6569 -0.1486  0.7254
 6262TIP3    H218720   8.428   2.904   6.605 -2.2660  1.0513  0.0546
 6263TIP3   OH218721   1.397   2.531   4.960 -0.6298  0.2893 -0.2056
 6263TIP3    H118722   1.411   2.439   4.936  0.0010 -0.2666  2.2041
 6263TIP3    H218723   1.303   2.536   4.978 -0.8151  0.3260 -1.1529
 6264TIP3   OH218724   1.475   3.185   5.896  0.0686  0.1494  0.0350
 6264TIP3    H118725   1.425   3.114   5.935 -2.3183  1.0934 -1.2367
 6264TIP3    H218726   1.490   3.158   5.805 -1.4412  1.5470 -0.6428
 6265TIP3   OH218727   0.110   3.183   3.907  0.2128 -0.3677  0.1342
 6265TIP3    H118728   0.028   3.147   3.876 -0.7613  1.9285 -0.0866
 6265TIP3    H218729   0.091   3.212   3.996  0.4403  1.1708 -0.2983
 6266TIP3   OH218730   8.428   4.139   5.601 -0.0950 -0.3052 -0.1052
 6266TIP3    H118731   8.409   4.115   5.692  0.1309 -1.3924 -0.3424
 6266TIP3    H218732   8.523   4.141   5.596 -0.1000 -0.9401 -0.4929
 6267TIP3   OH218733   0.561   1.571   4.315  0.4834 -0.1347 -0.1309
 6267TIP3    H118734   0.478   1.532   4.288  0.2443 -0.1189  0.5740
 6267TIP3    H218735   0.626   1.502   4.302  0.5538  0.2148 -1.7720
 6268TIP3   OH218736   1.693   3.023   5.665 -0.6960  0.3586 -0.1050
 6268TIP3    H118737   1.678   3.107   5.621  0.7174 -0.2036 -1.7421
 6268TIP3    H218738   1.605   2.984   5.672 -1.4878  2.3756  1.5714
 6269TIP3   OH218739   4.814   5.144   0.508 -0.1700 -0.4331 -0.0154
 6269TIP3    H118740   4.789   5.103   0.591  0.7219  0.0683  0.5042
 6269TIP3    H218741   4.800   5.238   0.522 -1.0596 -0.4369 -0.8039
 6270TIP3   OH218742   5.945   7.522   6.158  0.3525 -0.5490  0.5189
 6270TIP3    H118743   5.933   7.454   6.092  0.1309 -1.2451  1.2673
 6270TIP3    H218744   5.859   7.562   6.167  0.6802  0.4467 -0.5653
 6271TIP3   OH218745   1.280   3.865   5.161 -0.0938 -0.3993 -0.0020
 6271TIP3    H118746   1.196   3.890   5.123 -0.1421 -0.0596  0.3197
 6271TIP3    H218747   1.280   3.769   5.160 -0.4469 -0.3974 -0.0835
 6272TIP3   OH218748  -0.002   0.681   3.447 -0.3181  0.1247  0.2083
 6272TIP3    H118749  -0.002   0.771   3.479 -0.5668 -0.4560  1.8720
 6272TIP3    H218750   0.088   0.667   3.416 -0.2347  0.8796  0.0954
 6273TIP3   OH218751   1.455   2.577   3.951  0.0831  0.3329 -0.5111
 6273TIP3    H118752   1.542   2.597   3.915 -0.4224  0.2285 -1.8039
 6273TIP3    H218753   1.417   2.662   3.971  0.7400  0.3547  0.6913
 6274TIP3   OH218754   8.480   0.480   3.976  0.2489 -0.0127  0.5003
 6274TIP3    H118755   8.471   0.430   3.894 -0.8384  0.2376  0.4557
 6274TIP3    H218756   8.409   0.545   3.972 -0.4101 -0.6120  2.0733
 6275TIP3   OH218757   7.517   3.469   4.844 -0.1838 -0.8681  0.4359
 6275TIP3    H118758   7.577   3.540   4.823 -0.4420 -0.8549 -0.2879
 6275TIP3    H218759   7.573   3.392   4.854  0.1981 -0.3646  2.2562
 6276TIP3   OH218760   1.567   1.440   5.394 -0.4201 -0.7708 -0.1343
 6276TIP3    H118761   1.481   1.399   5.391 -1.5470  1.0817  3.6157
 6276TIP3    H218762   1.552   1.531   5.368  0.2390 -0.2902  1.0773
 6277TIP3   OH218763   1.504   2.884   6.367  0.0244 -0.3045 -0.1273
 6277TIP3    H118764   1.512   2.812   6.304  1.6589 -2.0381  1.9740
 6277TIP3    H218765   1.538   2.961   6.321  1.6504 -1.6358 -1.2141
 6278TIP3   OH218766   1.622   3.052   4.138 -0.1435 -0.2560  0.2099
 6278TIP3    H118767   1.634   3.147   4.136  0.2387 -0.2482  1.9351
 6278TIP3    H218768   1.676   3.023   4.212  1.4799 -2.0695 -1.6521
 6279TIP3   OH218769   2.469   1.674   6.389  0.1751  0.0205 -0.0941
 6279TIP3    H118770   2.420   1.745   6.349  1.2842 -0.2560 -2.0283
 6279TIP3    H218771   2.442   1.596   6.340  0.3310 -0.5958  0.7890
 6280TIP3   OH218772   1.124   3.006   5.617  0.0785 -0.5004 -0.2966
 6280TIP3    H118773   1.085   3.064   5.552 -0.8677 -1.9820 -1.0952
 6280TIP3    H218774   1.073   3.021   5.697 -1.3083 -1.4727 -0.9783
 6281TIP3   OH218775   0.664   4.947   5.500  0.1174 -0.2904 -0.3301
 6281TIP3    H118776   0.705   4.918   5.418  1.1662 -0.9372  0.4212
 6281TIP3    H218777   0.578   4.979   5.472  1.0259  0.8807 -1.8851
 6282TIP3   OH218778   0.638   1.759   5.861  0.1653  0.0062  0.3854
 6282TIP3    H118779   0.694   1.705   5.917  0.0022 -0.4545  0.0970
 6282TIP3    H218780   0.700   1.807   5.805  0.2998  0.0322  0.5534
 6283TIP3   OH218781   0.556   0.439   5.964  0.0345 -0.1220  0.2689
 6283TIP3    H118782   0.496   0.365   5.950  1.1675 -0.8594 -0.7219
 6283TIP3    H218783   0.500   0.508   6.001 -1.2282 -1.1371  0.2855
 6284TIP3   OH218784   1.209   2.827   4.272 -0.0750  0.0313 -0.1443
 6284TIP3    H118785   1.261   2.825   4.192 -0.5977 -0.8554 -0.4662
 6284TIP3    H218786   1.126   2.786   4.248 -1.1844  2.0057  0.1896
 6285TIP3   OH218787   4.645   5.668   0.055 -0.1407  0.4834 -0.0905
 6285TIP3    H118788   4.715   5.609   0.081 -0.3390 -0.1655 -1.0153
 6285TIP3    H218789   4.677   5.710  -0.024 -0.2723  1.1346  0.1959
 6286TIP3   OH218790   0.025   3.000   4.263 -0.7667 -0.6208 -0.7766
 6286TIP3    H118791   0.024   2.945   4.342  2.7103  0.9854  0.4726
 6286TIP3    H218792  -0.035   3.072   4.284 -0.9550 -0.9519 -0.1488
 6287TIP3   OH218793   6.220   4.396   1.764  0.0161 -0.3162 -0.3621
 6287TIP3    H118794   6.251   4.307   1.750 -0.5545 -0.9856  2.2009
 6287TIP3    H218795   6.149   4.387   1.829  0.1575  2.0131  0.1974
 6288TIP3   OH218796   2.291   1.704   6.886  0.2802  0.2742 -0.2717
 6288TIP3    H118797   2.242   1.718   6.805 -0.0951 -0.9353 -0.2578
 6288TIP3    H218798   2.336   1.620   6.873  1.5201  0.8661  0.1295
 6289TIP3   OH218799   1.568   2.205   6.710 -0.1002 -0.2045  0.0731
 6289TIP3    H118800   1.577   2.296   6.682 -1.4863 -0.4692 -1.2784
 6289TIP3    H218801   1.532   2.159   6.634  1.5353 -2.1099  0.3919
 6290TIP3   OH218802   4.914   6.558   0.952  0.1263  0.2641 -0.0617
 6290TIP3    H118803   4.872   6.528   1.033 -0.7519  1.1604 -0.1687
 6290TIP3    H218804   4.921   6.653   0.963  1.0021  0.2592 -0.5808
 6291TIP3   OH218805   0.198   0.896   4.081 -0.7196 -0.3884  0.7013
 6291TIP3    H118806   0.165   0.874   4.168 -2.0019 -0.5809  0.1854
 6291TIP3    H218807   0.246   0.977   4.092 -1.6605  0.0748  1.4277
 6292TIP3   OH218808   0.337   0.169   6.608  0.1777  0.0677  0.2820
 6292TIP3    H118809   0.378   0.102   6.662 -0.5380 -0.9118 -0.3747
 6292TIP3    H218810   0.408   0.230   6.587  1.2366 -1.4216 -0.5614
 6293TIP3   OH218811   7.959   2.051   5.662 -0.4335 -0.4952  0.2200
 6293TIP3    H118812   7.876   2.004   5.658 -0.6680  0.0061 -0.9028
 6293TIP3    H218813   7.951   2.120   5.596  0.3974  0.3320  0.9610
 6294TIP3   OH218814   2.907   2.531   2.944 -0.0822 -0.1825  0.3744
 6294TIP3    H118815   2.936   2.445   2.974  1.7475  0.3645  0.1968
 6294TIP3    H218816   2.985   2.586   2.945 -1.2226  1.5133  0.5374
 6295TIP3   OH218817   0.367   2.789   5.757  0.0702 -0.4582  0.3118
 6295TIP3    H118818   0.369   2.744   5.841 -0.1261 -2.6271 -0.8062
 6295TIP3    H218819   0.274   2.805   5.740  0.1011 -0.1406  0.4297
 6296TIP3   OH218820   2.792   4.941   0.170 -0.2813 -0.5802 -0.3123
 6296TIP3    H118821   2.808   4.907   0.082 -4.1183 -0.1169 -1.2356
 6296TIP3    H218822   2.750   4.868   0.216 -1.1338  0.2290  0.1891
 6297TIP3   OH218823   2.749   2.411   4.125 -0.7553  0.1212 -0.4241
 6297TIP3    H118824   2.818   2.415   4.191  0.6897  0.4656 -1.9181
 6297TIP3    H218825   2.668   2.409   4.175  0.3101  0.4381  1.3521
 6298TIP3   OH218826   1.779   2.138   5.166 -0.4465 -0.4621 -0.3856
 6298TIP3    H118827   1.700   2.192   5.156  0.1574  0.1602 -1.9277
 6298TIP3    H218828   1.844   2.181   5.111  0.5745 -1.7620 -0.2057
 6299TIP3   OH218829   2.224   6.498   0.891  1.0094 -0.2569 -0.0747
 6299TIP3    H118830   2.234   6.565   0.824  0.4564  0.7821  0.8640
 6299TIP3    H218831   2.201   6.547   0.970 -1.3429 -1.6865  0.1645
 6300TIP3   OH218832   1.450   3.922   6.527  0.3193 -0.0076  0.6341
 6300TIP3    H118833   1.532   3.962   6.502  0.9384 -1.8813 -0.4563
 6300TIP3    H218834   1.470   3.828   6.533 -1.5259 -0.3914  1.2077
 6301TIP3   OH218835   4.741   7.656   1.306 -0.6493 -0.4011 -0.0642
 6301TIP3    H118836   4.690   7.690   1.233 -0.8960  0.8520  0.6845
 6301TIP3    H218837   4.832   7.660   1.276 -0.6581  1.1338  0.0980
 6302TIP3   OH218838   3.414   2.084   6.315  0.0681  0.2420  0.1992
 6302TIP3    H118839   3.368   2.165   6.294  0.1870  0.4092  0.5663
 6302TIP3    H218840   3.358   2.014   6.282 -0.7489  0.4212  1.1727
 6303TIP3   OH218841   3.942   4.680   0.665  0.1214  0.0242  0.4605
 6303TIP3    H118842   3.878   4.634   0.610 -0.6264  1.0968  0.4093
 6303TIP3    H218843   4.007   4.714   0.603  0.9782 -1.4006  0.5489
 6304TIP3   OH218844   2.773   3.414   2.206  0.2843  0.1869  0.4284
 6304TIP3    H118845   2.863   3.383   2.207  0.4647  0.6490 -0.7527
 6304TIP3    H218846   2.773   3.488   2.145 -0.6904  0.8122  1.1606
 6305TIP3   OH218847   4.767   6.396   0.286  0.2146  0.2452 -0.1204
 6305TIP3    H118848   4.798   6.486   0.275  1.7592 -0.3407 -0.7541
 6305TIP3    H218849   4.720   6.397   0.370 -1.1325  1.9779 -0.8535
 6306TIP3   OH218850   0.656   0.376   4.851  0.2249 -0.5197  0.2211
 6306TIP3    H118851   0.702   0.398   4.770  0.3273 -0.4601  0.2942
 6306TIP3    H218852   0.726   0.368   4.916 -0.0611  2.0488  0.9098
 6307TIP3   OH218853   2.597   2.670   6.334  0.4623  0.7595  0.4938
 6307TIP3    H118854   2.511   2.703   6.360  1.2225  1.5246  2.0928
 6307TIP3    H218855   2.580   2.620   6.255 -1.1748  2.5278 -0.3269
 6308TIP3   OH218856   0.833   0.089   5.869 -0.3326  0.1628  0.4778
 6308TIP3    H118857   0.833   0.174   5.824  1.4999 -0.6217 -1.0944
 6308TIP3    H218858   0.907   0.093   5.929  0.3240 -0.6568 -0.2712
 6309TIP3   OH218859   8.427   0.300   6.825 -0.1650  0.0580 -0.5756
 6309TIP3    H118860   8.522   0.292   6.834 -0.2492  0.1330  0.4109
 6309TIP3    H218861   8.412   0.394   6.820 -0.3756  0.1417  1.4405
 6310TIP3   OH218862   7.677   2.998   4.922  0.4856 -0.0684  0.3019
 6310TIP3    H118863   7.669   3.019   5.015 -0.7787 -3.0887  0.9269
 6310TIP3    H218864   7.756   3.044   4.894  0.4817  1.4766  2.6730
 6311TIP3   OH218865   1.880   1.294   3.323 -0.1570 -0.5134  0.3694
 6311TIP3    H118866   1.901   1.387   3.324 -1.6736 -0.1281 -1.3148
 6311TIP3    H218867   1.955   1.252   3.366  2.1280  1.1674 -1.7947
 6312TIP3   OH218868   7.866   4.681   3.189 -0.7603 -0.4867 -0.2330
 6312TIP3    H118869   7.811   4.758   3.178 -0.9421 -0.7292 -1.1167
 6312TIP3    H218870   7.841   4.644   3.273  0.1570  1.0844  0.7455
 6313TIP3   OH218871   7.043   3.986   6.550  0.0611 -0.6138 -0.0990
 6313TIP3    H118872   6.949   3.973   6.550  0.1684 -1.4396  0.1720
 6313TIP3    H218873   7.059   4.049   6.620 -0.3288 -0.1525 -0.4255
 6314TIP3   OH218874   7.647   3.190   5.422  0.3987  0.1150 -0.2180
 6314TIP3    H118875   7.672   3.278   5.393  2.1864 -0.4122 -0.3628
 6314TIP3    H218876   7.572   3.167   5.368  1.1153  0.7934 -1.5380
 6315TIP3   OH218877   3.764   3.139   4.481 -0.1366  0.2213 -0.4526
 6315TIP3    H118878   3.774   3.173   4.570  1.6198 -0.2573 -0.4585
 6315TIP3    H218879   3.780   3.214   4.425 -0.7030  0.3962 -0.3877
 6316TIP3   OH218880   5.622   5.568   0.312  0.2339 -0.2377 -0.4687
 6316TIP3    H118881   5.649   5.651   0.351 -2.0589  0.3555 -0.0656
 6316TIP3    H218882   5.621   5.506   0.385  1.7459 -0.6051 -0.7327
 6317TIP3   OH218883   2.303   1.325   5.225  0.6245 -0.1035  0.2500
 6317TIP3    H118884   2.212   1.302   5.241  0.4485 -0.3611 -1.0582
 6317TIP3    H218885   2.345   1.320   5.311 -0.9661  1.7542  1.1757
 6318TIP3   OH218886   3.639   3.426   5.760  0.2505  0.1903 -0.1583
 6318TIP3    H118887   3.567   3.458   5.705  0.9848  1.6238 -0.3228
 6318TIP3    H218888   3.705   3.495   5.755  1.3413 -0.7805  0.5733
 6319TIP3   OH218889   3.002   2.581   5.224  0.3443 -0.0420 -0.2754
 6319TIP3    H118890   3.083   2.629   5.209 -0.4861  1.5052  0.0553
 6319TIP3    H218891   2.933   2.648   5.222 -0.7766 -1.1169  0.7999
 6320TIP3   OH218892   3.494   2.294   6.607  0.2402  0.0744  0.0292
 6320TIP3    H118893   3.561   2.353   6.575  1.4281 -2.2629 -1.9454
 6320TIP3    H218894   3.413   2.345   6.603  1.3885  1.8634 -0.7019
 6321TIP3   OH218895   1.895   1.787   4.174 -0.2733 -0.1503 -0.6789
 6321TIP3    H118896   1.924   1.869   4.214 -0.5474  0.2292 -1.2634
 6321TIP3    H218897   1.802   1.801   4.155 -0.7094 -1.1589  0.6559
 6322TIP3   OH218898   1.232   1.699   5.429 -0.6596 -0.2038  0.1301
 6322TIP3    H118899   1.196   1.621   5.472 -0.8392 -0.0080  0.3393
 6322TIP3    H218900   1.326   1.696   5.448 -0.3472 -1.4348 -1.5466
 6323TIP3   OH218901   8.112   1.915   4.355  0.0444 -0.2480  0.2112
 6323TIP3    H118902   8.079   1.995   4.396 -0.7031 -0.3576 -0.1800
 6323TIP3    H218903   8.153   1.945   4.274  0.6078 -0.1534  0.5272
 6324TIP3   OH218904   7.313   2.205   6.322  0.0344  0.5892 -0.1995
 6324TIP3    H118905   7.252   2.131   6.332  2.2428 -1.1874  0.7002
 6324TIP3    H218906   7.280   2.271   6.382  0.2370 -1.2216  1.9867
 6325TIP3   OH218907   0.410   2.817   4.850 -0.4249  0.2345 -0.1346
 6325TIP3    H118908   0.346   2.889   4.848  0.2950  1.0144  2.5392
 6325TIP3    H218909   0.357   2.738   4.862 -1.0558  0.6077 -0.4420
 6326TIP3   OH218910   5.527   6.677   0.896 -0.1460 -0.2068 -0.3284
 6326TIP3    H118911   5.571   6.620   0.833 -1.1314  0.4499 -1.6389
 6326TIP3    H218912   5.444   6.699   0.854 -0.8386  0.2118  1.2345
 6327TIP3   OH218913   6.203   7.091   5.609 -0.2621  0.2104 -0.0024
 6327TIP3    H118914   6.260   7.015   5.599 -0.0546  0.4444 -0.6726
 6327TIP3    H218915   6.176   7.112   5.519 -0.7200  0.6151  0.2290
 6328TIP3   OH218916   1.479   1.849   5.708 -0.0770 -0.0406 -0.1123
 6328TIP3    H118917   1.548   1.902   5.668 -0.0915  0.4717  0.5217
 6328TIP3    H218918   1.403   1.907   5.709 -0.0300  0.0247  0.7991
 6329TIP3   OH218919   4.907   4.934   0.269  0.3655  0.0597  0.0534
 6329TIP3    H118920   4.972   4.936   0.199  1.0251  0.1403  0.6596
 6329TIP3    H218921   4.903   4.842   0.295 -0.8346 -0.1892 -0.9619
 6330TIP3   OH218922   5.256   6.784   0.764  0.8479 -0.3609 -1.0231
 6330TIP3    H118923   5.173   6.828   0.750  1.0050 -0.5817 -2.8116
 6330TIP3    H218924   5.314   6.852   0.799 -0.2825 -0.4016  0.9721
 6331TIP3   OH218925   3.985   0.128   6.129  0.4901  0.3903 -0.5134
 6331TIP3    H118926   3.937   0.132   6.046  0.3297  2.0030 -0.3759
 6331TIP3    H218927   3.962   0.043   6.166  0.5008 -0.3173 -2.0833
 6332TIP3   OH218928   2.089   0.693   3.979 -0.1260 -0.0026 -0.2521
 6332TIP3    H118929   2.068   0.750   4.054 -1.1514 -1.9438  0.9881
 6332TIP3    H218930   2.062   0.744   3.903  0.7402  1.9358  0.6920
 6333TIP3   OH218931   0.550   1.232   4.555  0.4852 -0.4478 -0.6985
 6333TIP3    H118932   0.578   1.258   4.643 -0.5335 -0.4725 -0.3594
 6333TIP3    H218933   0.623   1.259   4.498  1.4786 -1.1195  0.2361
 6334TIP3   OH218934   1.650   0.646   5.304 -0.1323 -0.4715 -0.1993
 6334TIP3    H118935   1.684   0.668   5.217 -0.3206 -0.7185 -0.3360
 6334TIP3    H218936   1.702   0.700   5.364  0.5481 -0.8915 -0.4023
 6335TIP3   OH218937   0.157   1.965   6.008  0.1894 -0.1654  0.1488
 6335TIP3    H118938   0.108   1.887   5.981 -0.1284  0.1566 -0.2080
 6335TIP3    H218939   0.243   1.932   6.032  0.2182 -0.5639 -0.4907
 6336TIP3   OH218940   4.161   5.173   0.014 -0.0141  1.1067  0.0804
 6336TIP3    H118941   4.228   5.150   0.079  0.9396  3.4926  0.0179
 6336TIP3    H218942   4.081   5.185   0.066 -0.2899 -1.1931  0.2322
 6337TIP3   OH218943   6.522   1.195   0.164 -0.4271  0.2102  0.2022
 6337TIP3    H118944   6.499   1.166   0.253  3.5274 -3.2922  0.2269
 6337TIP3    H218945   6.467   1.142   0.107 -0.0786 -0.4431  0.4694
 6338TIP3   OH218946   1.800   4.092   6.233 -0.2721  0.8376 -0.5941
 6338TIP3    H118947   1.882   4.065   6.193  0.7422  1.9295  0.7039
 6338TIP3    H218948   1.765   4.012   6.271  1.4436  0.8082  0.9963
 6339TIP3   OH218949   4.014   6.311   1.823 -0.3738  0.2358 -0.0972
 6339TIP3    H118950   4.021   6.387   1.881  1.3534  0.0230  0.0248
 6339TIP3    H218951   4.005   6.237   1.883  2.4597 -0.0957  0.0012
 6340TIP3   OH218952   6.534   6.938   5.880  0.9845 -0.4324 -0.3486
 6340TIP3    H118953   6.613   6.919   5.829  1.1519  1.0476 -0.6607
 6340TIP3    H218954   6.562   7.003   5.944 -0.3648  1.4749 -1.6268
 6341TIP3   OH218955   1.252   1.297   5.728 -0.0647 -0.0810 -0.2333
 6341TIP3    H118956   1.241   1.344   5.811 -1.2100 -0.8519  0.0672
 6341TIP3    H218957   1.181   1.233   5.727 -1.0653  0.9771 -2.5383
 6342TIP3   OH218958   1.696   2.650   5.663 -0.1138  0.0170  0.1473
 6342TIP3    H118959   1.781   2.612   5.686  0.0343  0.2436 -0.0156
 6342TIP3    H218960   1.717   2.738   5.631 -0.3851 -0.0134 -0.1201
 6343TIP3   OH218961   1.300   2.333   3.942  0.1073  0.3551  0.1750
 6343TIP3    H118962   1.341   2.419   3.955 -0.9686  0.8900  0.0356
 6343TIP3    H218963   1.263   2.310   4.027 -0.7656  0.6441 -0.1187
 6344TIP3   OH218964   0.769   3.958   4.170 -0.9337 -0.2471 -0.0209
 6344TIP3    H118965   0.841   4.016   4.195 -1.5228  0.1420  0.8024
 6344TIP3    H218966   0.705   3.967   4.241 -1.6130 -0.9017 -0.5386
 6345TIP3   OH218967   2.285   3.761   5.181  0.2577  0.1396  0.3742
 6345TIP3    H118968   2.244   3.813   5.112  2.6714 -0.3203 -1.4514
 6345TIP3    H218969   2.211   3.722   5.228 -1.4445  0.4216 -1.9703
 6346TIP3   OH218970   2.562   6.908   1.094 -0.1508  0.3043  0.2326
 6346TIP3    H118971   2.650   6.902   1.059  0.5157 -1.8389  2.1050
 6346TIP3    H218972   2.518   6.829   1.062 -1.3685  1.3247 -0.6401
 6347TIP3   OH218973   0.536   2.136   5.606 -0.2540  0.3473 -0.0727
 6347TIP3    H118974   0.468   2.191   5.567 -2.1534 -1.2515  0.8395
 6347TIP3    H218975   0.493   2.096   5.682  1.2201 -1.8919 -0.3558
 6348TIP3   OH218976   2.790   7.315   0.812 -0.2813  0.2552  0.2381
 6348TIP3    H118977   2.704   7.313   0.854 -0.1517 -1.9693  0.4791
 6348TIP3    H218978   2.813   7.407   0.807 -2.6132  0.8675  0.3294
 6349TIP3   OH218979   0.802   0.540   5.929 -0.7116  0.2121  0.1830
 6349TIP3    H118980   0.814   0.553   6.023  0.0982  0.8113  0.0019
 6349TIP3    H218981   0.709   0.516   5.920 -0.9440  0.7438  1.0741
 6350TIP3   OH218982   1.211   1.606   3.828  0.0140  0.1708  0.2327
 6350TIP3    H118983   1.291   1.586   3.877  0.5486 -0.3812 -0.8377
 6350TIP3    H218984   1.141   1.568   3.880  0.7175 -1.7619 -0.1610
 6351TIP3   OH218985   4.147   7.569   3.294  0.0631 -0.4875 -0.2613
 6351TIP3    H118986   4.240   7.552   3.278 -0.2730 -2.0783 -0.6011
 6351TIP3    H218987   4.127   7.520   3.373 -0.0792  1.3231  0.8734
 6352TIP3   OH218988   1.758   1.340   3.851 -0.4461  0.6002 -0.6888
 6352TIP3    H118989   1.845   1.373   3.874  0.6411 -2.4518 -0.1446
 6352TIP3    H218990   1.707   1.418   3.831  2.3391  2.4807 -0.7301
 6353TIP3   OH218991   0.299   3.356   6.746  0.5333 -0.0998 -0.1032
 6353TIP3    H118992   0.360   3.284   6.760  1.1419 -0.0057 -2.1214
 6353TIP3    H218993   0.323   3.422   6.811 -0.3848 -1.8984  2.1239
 6354TIP3   OH218994   0.171   0.158   6.395 -0.5944 -0.4397  0.6415
 6354TIP3    H118995   0.231   0.134   6.325 -0.4631 -2.0275  1.2781
 6354TIP3    H218996   0.228   0.180   6.469 -0.7593 -1.8641  1.2202
 6355TIP3   OH218997   1.030   3.475   5.478  0.2689  0.1019 -0.2694
 6355TIP3    H118998   0.961   3.540   5.463 -0.6672 -0.7524  0.2573
 6355TIP3    H218999   0.991   3.392   5.452  1.0764 -0.4034  0.0964
 6356TIP3   OH219000   1.344   2.294   4.557  0.2034 -0.2697  0.1494
 6356TIP3    H119001   1.332   2.208   4.517 -0.4086  0.7509 -1.9641
 6356TIP3    H219002   1.424   2.328   4.516  0.1366  0.3972  0.5600
 6357TIP3   OH219003   8.248   3.100   6.469  0.1904 -0.5226  0.8059
 6357TIP3    H119004   8.342   3.118   6.463  0.4110 -1.7757  0.2589
 6357TIP3    H219005   8.211   3.130   6.386  0.2312 -0.7041  0.7209
 6358TIP3   OH219006   4.927   5.566   0.096  0.6514 -0.3917 -0.0264
 6358TIP3    H119007   4.889   5.518   0.023  3.0269 -1.9854 -0.3019
 6358TIP3    H219008   5.002   5.613   0.058  1.3347 -0.4672  1.1751
 6359TIP3   OH219009   2.477   3.913   5.784  0.5211 -0.1160 -0.0433
 6359TIP3    H119010   2.489   3.822   5.810 -0.0170 -0.1283  0.1681
 6359TIP3    H219011   2.423   3.909   5.705  0.7104  0.0080 -0.1794
 6360TIP3   OH219012   2.992   2.990   4.980  0.5920 -0.6198  0.0251
 6360TIP3    H119013   2.985   2.908   4.930 -3.4785  0.6200 -1.6523
 6360TIP3    H219014   2.945   3.054   4.926  2.0306  2.3872  2.2496
 6361TIP3   OH219015   3.002   2.577   5.766  0.4584 -0.8143  0.2553
 6361TIP3    H119016   2.939   2.642   5.735  1.0738 -0.2660  0.1506
 6361TIP3    H219017   2.963   2.542   5.846  0.0288 -0.4703  0.1998
 6362TIP3   OH219018   2.211   1.876   5.629  0.0087 -0.6888 -0.1383
 6362TIP3    H119019   2.120   1.856   5.607  0.1402 -1.6865  0.2228
 6362TIP3    H219020   2.257   1.872   5.545  0.0079 -1.7483 -0.0839
 6363TIP3   OH219021   2.307   3.255   6.667  0.3344  0.3913  0.7347
 6363TIP3    H119022   2.215   3.249   6.691  0.4289  1.2660  1.3273
 6363TIP3    H219023   2.330   3.166   6.639 -0.9611  0.4075 -0.4617
 6364TIP3   OH219024   2.566   4.014   6.134 -0.1268 -0.2575 -0.1301
 6364TIP3    H119025   2.626   4.030   6.206 -0.4496 -0.1675  0.1160
 6364TIP3    H219026   2.521   3.933   6.158 -1.1842  0.4854  0.3927
 6365TIP3   OH219027   2.872   3.092   4.505 -0.1607  0.1056  0.8850
 6365TIP3    H119028   2.780   3.094   4.532 -0.3711 -0.2174  0.1968
 6365TIP3    H219029   2.900   3.183   4.510 -1.2357  0.5934 -1.3596
 6366TIP3   OH219030   3.166   2.592   3.431  0.1787  0.3816 -0.1339
 6366TIP3    H119031   3.125   2.678   3.443 -0.6067  0.2352 -1.7171
 6366TIP3    H219032   3.229   2.586   3.503 -0.8432  1.6311  0.8913
 6367TIP3   OH219033   0.513   7.084   4.326  0.1244  0.0140  0.1248
 6367TIP3    H119034   0.457   7.090   4.249 -0.7537  2.8336  0.9297
 6367TIP3    H219035   0.509   7.171   4.366  2.3820 -0.7194  2.0892
 6368TIP3   OH219036   4.582   2.285   6.602 -0.7402  0.1106  0.1782
 6368TIP3    H119037   4.528   2.213   6.634 -1.2964  0.1780 -0.5812
 6368TIP3    H219038   4.521   2.342   6.555 -0.5246  1.7017  1.7734
 6369TIP3   OH219039   1.806   1.111   6.620 -0.0094  0.2510  0.1992
 6369TIP3    H119040   1.865   1.160   6.678  0.8856 -3.2014  2.3404
 6369TIP3    H219041   1.721   1.115   6.665 -0.5101  1.8077 -0.8469
 6370TIP3   OH219042   5.136   1.293   5.161  0.4973 -0.1809  0.1409
 6370TIP3    H119043   5.052   1.322   5.198 -1.1957 -3.7181 -0.6451
 6370TIP3    H219044   5.183   1.255   5.235  0.5427 -0.0099  0.1992
 6371TIP3   OH219045   5.105   5.177   0.377  0.0490 -0.3786  0.0302
 6371TIP3    H119046   5.147   5.261   0.363 -1.8366  0.6131  0.2061
 6371TIP3    H219047   5.119   5.159   0.470 -0.0857  0.0231  0.1280
 6372TIP3   OH219048   8.475   1.750   5.924  0.2177 -0.3744 -0.2751
 6372TIP3    H119049   8.409   1.699   5.878  0.7352 -0.0455 -1.4090
 6372TIP3    H219050   8.426   1.810   5.979 -0.4217 -0.6579 -0.5360
 6373TIP3   OH219051   4.938   1.225   5.780 -0.7685  0.1058 -0.4393
 6373TIP3    H119052   4.975   1.243   5.866  1.0378  3.0607 -1.7887
 6373TIP3    H219053   4.848   1.257   5.785 -0.3587  1.1920  0.0538
 6374TIP3   OH219054   2.889   4.524   4.938  0.2426  0.2852 -0.0698
 6374TIP3    H119055   2.794   4.518   4.921  0.4718  1.2678 -1.7539
 6374TIP3    H219056   2.919   4.433   4.931 -0.4960  0.0221  0.0304
 6375TIP3   OH219057   2.797   2.757   5.157 -0.2258  0.4166  0.4969
 6375TIP3    H119058   2.703   2.757   5.175 -0.4147  2.0697 -0.3899
 6375TIP3    H219059   2.803   2.750   5.062  0.5264  1.4523  0.4639
 6376TIP3   OH219060   4.558   0.892   6.137 -0.5627  0.4764  0.0329
 6376TIP3    H119061   4.576   0.963   6.075 -0.0514 -0.1875 -0.5816
 6376TIP3    H219062   4.584   0.812   6.091  0.1709  0.0021  1.2386
 6377TIP3   OH219063   4.682   3.092   4.891 -0.2299 -0.2329 -0.1624
 6377TIP3    H119064   4.753   3.115   4.832 -0.4401 -0.7781 -0.6405
 6377TIP3    H219065   4.693   3.149   4.967  1.1279 -0.7959  0.0753
 6378TIP3   OH219066   5.309   7.281   0.907 -0.2323  0.3386 -0.0157
 6378TIP3    H119067   5.217   7.262   0.889 -0.1968 -0.6584  0.7766
 6378TIP3    H219068   5.309   7.367   0.949 -0.8020  0.3841 -0.1130
 6379TIP3   OH219069   4.808   3.726   5.004 -0.0432  0.2121 -0.8916
 6379TIP3    H119070   4.847   3.639   4.992  1.4231  0.7109  0.0745
 6379TIP3    H219071   4.788   3.756   4.915 -1.2108 -1.3931 -1.1812
 6380TIP3   OH219072   3.338   2.004   5.335 -0.3662 -0.6087  0.7424
 6380TIP3    H119073   3.393   1.955   5.275 -1.6100 -1.6036  0.4004
 6380TIP3    H219074   3.370   2.094   5.329 -0.4193 -0.7080 -1.3439
 6381TIP3   OH219075   3.385   3.411   5.157 -0.1110 -0.2315 -0.1852
 6381TIP3    H119076   3.414   3.320   5.169 -0.7705 -0.4281 -0.0656
 6381TIP3    H219077   3.319   3.406   5.089 -1.6871 -0.1434  1.3085
 6382TIP3   OH219078   3.716   1.631   4.185  1.0318 -0.0761  0.3134
 6382TIP3    H119079   3.630   1.655   4.220 -0.2222 -1.6518 -1.5475
 6382TIP3    H219080   3.748   1.711   4.144 -0.1611  0.1774 -0.1521
 6383TIP3   OH219081   2.517   1.489   3.623 -0.3144  0.2524 -0.0825
 6383TIP3    H119082   2.546   1.486   3.715 -0.9913  1.9121  0.2027
 6383TIP3    H219083   2.460   1.565   3.619 -1.3462 -0.5894 -1.5963
 6384TIP3   OH219084   3.674   1.768   6.411  0.1066  0.1163 -0.2171
 6384TIP3    H119085   3.705   1.789   6.499  2.3709  0.0899 -0.9622
 6384TIP3    H219086   3.707   1.680   6.394 -2.4065 -0.8753 -0.2023
 6385TIP3   OH219087   3.931   3.440   4.504 -0.5333  0.1466 -0.0202
 6385TIP3    H119088   3.985   3.508   4.545 -1.2595  0.6694  0.0938
 6385TIP3    H219089   3.976   3.358   4.525 -1.0291  0.3679  2.1065
 6386TIP3   OH219090   5.202   2.534   5.223 -0.1402 -0.4199  0.2315
 6386TIP3    H119091   5.147   2.523   5.301 -0.6540 -1.2903 -0.2587
 6386TIP3    H219092   5.242   2.448   5.209  0.2985 -0.1452 -0.2124
 6387TIP3   OH219093   1.755   7.960   2.244 -0.0325  0.6323 -0.1004
 6387TIP3    H119094   1.783   8.051   2.249  0.7544  0.5295 -2.0396
 6387TIP3    H219095   1.729   7.948   2.153  1.2343 -1.4492 -0.2229
 6388TIP3   OH219096   1.241   1.606   4.526 -0.1780  0.5291  0.1619
 6388TIP3    H119097   1.279   1.629   4.610 -0.3508 -1.5657  0.8480
 6388TIP3    H219098   1.310   1.557   4.481 -0.2057  1.3470 -0.7992
 6389TIP3   OH219099   4.232   1.668   5.282 -0.5319 -0.0253  0.2422
 6389TIP3    H119100   4.315   1.631   5.314  0.5817  2.0535 -0.1782
 6389TIP3    H219101   4.248   1.687   5.190 -1.3307  0.7864  0.2642
 6390TIP3   OH219102   3.161   2.332   5.663  0.3252 -0.1362  0.1000
 6390TIP3    H119103   3.104   2.408   5.669  1.2891  0.7456 -1.6565
 6390TIP3    H219104   3.229   2.347   5.728  0.5678  0.5559 -0.3120
 6391TIP3   OH219105   5.463   3.262   4.279  0.2389  0.5426 -0.3648
 6391TIP3    H119106   5.504   3.333   4.230  1.7513 -1.0379 -1.4380
 6391TIP3    H219107   5.375   3.256   4.242  0.5034  1.0614 -1.0962
 6392TIP3   OH219108   2.594   1.799   5.770  0.0759  0.0811 -0.4466
 6392TIP3    H119109   2.680   1.839   5.759 -0.3840  1.1303 -0.2525
 6392TIP3    H219110   2.611   1.715   5.812  0.8757  0.9281  0.9456
 6393TIP3   OH219111   2.181   2.338   4.885 -0.3906  0.4836 -0.1216
 6393TIP3    H119112   2.268   2.309   4.857  0.3031 -0.0406  2.4624
 6393TIP3    H219113   2.184   2.433   4.879  0.4443  0.4775  0.1537
 6394TIP3   OH219114   4.845   5.225   0.227 -0.0820  0.3885  0.3724
 6394TIP3    H119115   4.804   5.202   0.144  0.7847  0.8741 -0.2064
 6394TIP3    H219116   4.821   5.316   0.242 -1.9363 -0.3012  1.7019
 6395TIP3   OH219117   5.313   3.300   5.509  0.2875 -0.4219 -0.6246
 6395TIP3    H119118   5.235   3.343   5.473  0.5262  0.6876  0.1749
 6395TIP3    H219119   5.375   3.372   5.523  1.2758 -1.2395 -0.7928
 6396TIP3   OH219120   3.773   3.619   6.267 -0.6979  0.5546 -0.1343
 6396TIP3    H119121   3.840   3.611   6.335 -1.1273  0.3144  0.2660
 6396TIP3    H219122   3.822   3.615   6.185 -0.4669 -2.5710  0.0975
 6397TIP3   OH219123   4.412   0.623   4.682 -0.0455  0.0466  0.0461
 6397TIP3    H119124   4.499   0.627   4.641  2.4068  0.2353  4.9030
 6397TIP3    H219125   4.387   0.715   4.694  0.1291  0.0090  0.7034
 6398TIP3   OH219126   2.994   1.587   3.912 -0.6601 -0.5376 -0.0606
 6398TIP3    H119127   3.062   1.526   3.884  0.3579  0.4898  0.1172
 6398TIP3    H219128   3.029   1.673   3.891 -1.8244  0.0197  0.2316
 6399TIP3   OH219129   1.616   4.332   4.680  0.1492  0.4899  0.5817
 6399TIP3    H119130   1.576   4.295   4.601  0.6922 -1.8252  1.3454
 6399TIP3    H219131   1.710   4.329   4.662  0.3445 -1.1695  1.7476
 6400TIP3   OH219132   4.939   4.118   5.879 -0.4089  0.2567  0.3521
 6400TIP3    H119133   4.911   4.085   5.794  2.3919 -0.1073 -0.4741
 6400TIP3    H219134   4.873   4.085   5.940 -1.2068 -1.4188 -1.3544
 6401TIP3   OH219135   4.789   0.625   3.574  0.1068 -0.4695 -0.1475
 6401TIP3    H119136   4.801   0.538   3.611  1.0398  1.1968  3.6029
 6401TIP3    H219137   4.870   0.672   3.594 -2.0724  2.6114  1.7759
 6402TIP3   OH219138   4.335   2.939   4.333  0.2118  0.3519  0.1147
 6402TIP3    H119139   4.429   2.924   4.343  0.3835  0.4462 -1.1707
 6402TIP3    H219140   4.321   3.027   4.369  0.7721  0.6857 -0.4625
 6403TIP3   OH219141   3.935   2.421   2.749 -0.6055  0.0016 -0.6730
 6403TIP3    H119142   4.020   2.425   2.794 -1.2824 -0.3794  0.6431
 6403TIP3    H219143   3.952   2.460   2.663  0.9864 -0.3644 -0.5419
 6404TIP3   OH219144   2.796   2.794   5.761 -0.4095 -0.2819 -0.0671
 6404TIP3    H119145   2.828   2.795   5.851  2.0577  0.4646 -0.9121
 6404TIP3    H219146   2.703   2.816   5.769  0.2421  1.9618  2.1470
 6405TIP3   OH219147   8.026   4.142   5.045  0.1642 -0.3609 -0.0606
 6405TIP3    H119148   8.075   4.223   5.032  0.3275 -0.6415 -1.1822
 6405TIP3    H219149   8.093   4.075   5.058  0.1192 -0.8796 -2.3468
 6406TIP3   OH219150   1.895   1.138   0.275  0.0679 -0.2094 -0.1891
 6406TIP3    H119151   1.868   1.156   0.365  2.1021  0.4014  0.3178
 6406TIP3    H219152   1.841   1.197   0.222 -1.2006 -0.6304  0.6021
 6407TIP3   OH219153   2.352   3.465   5.625  0.7541 -0.5767  0.1757
 6407TIP3    H119154   2.265   3.481   5.590  1.6948  0.2000 -1.9168
 6407TIP3    H219155   2.377   3.380   5.589  1.4277 -0.1235 -0.4496
 6408TIP3   OH219156   3.128   3.298   4.964 -1.1871 -0.2789 -0.2599
 6408TIP3    H119157   3.107   3.259   4.879 -1.3069  0.8761 -0.7549
 6408TIP3    H219158   3.082   3.382   4.964  0.6340  0.7251  0.0486
 6409TIP3   OH219159   0.915   1.808   4.182  0.1693  0.0664 -0.3387
 6409TIP3    H119160   0.939   1.718   4.158  1.2353  0.0135  0.8906
 6409TIP3    H219161   0.980   1.834   4.246  0.2568  1.9834 -1.1793
 6410TIP3   OH219162   2.782   0.788   4.260  0.1475  0.5792 -0.2414
 6410TIP3    H119163   2.777   0.881   4.238 -0.8388  0.3493 -0.9974
 6410TIP3    H219164   2.727   0.744   4.196  0.6477 -0.5462  0.0708
 6411TIP3   OH219165   3.714   3.210   5.906 -0.4064 -0.5049 -0.2667
 6411TIP3    H119166   3.698   3.273   5.837  0.3070 -1.5556 -1.4158
 6411TIP3    H219167   3.720   3.126   5.861  0.8446 -1.1028  0.9792
 6412TIP3   OH219168   4.463   0.370   6.467 -0.5939  0.3540  0.2115
 6412TIP3    H119169   4.541   0.390   6.519 -2.4573  2.7358  2.2373
 6412TIP3    H219170   4.491   0.378   6.376  1.3453  1.9463  0.9231
 6413TIP3   OH219171   1.814   3.486   5.164  0.0498 -0.2636  0.0342
 6413TIP3    H119172   1.765   3.568   5.159 -0.9086 -0.8025  0.5136
 6413TIP3    H219173   1.780   3.432   5.093 -0.2920 -0.7676  0.5779
 6414TIP3   OH219174   3.849   0.152   5.342  0.3326 -0.6039 -0.3559
 6414TIP3    H119175   3.817   0.068   5.310  1.9044 -0.9704 -1.0608
 6414TIP3    H219176   3.828   0.214   5.272  1.3957 -0.9018 -0.9560
 6415TIP3   OH219177   3.223   3.194   4.069 -0.0701 -0.2825 -0.6386
 6415TIP3    H119178   3.229   3.128   4.000  0.3875 -3.8526  2.6465
 6415TIP3    H219179   3.133   3.188   4.100 -0.0881  0.8202 -0.4757
 6416TIP3   OH219180   4.904   1.062   4.460  0.1688  0.1350  0.9103
 6416TIP3    H119181   4.902   1.153   4.431  1.3834  0.2985  1.2797
 6416TIP3    H219182   4.925   1.012   4.381  0.6701  0.3021  0.9319
 6417TIP3   OH219183   3.753   1.703   5.509  0.4439 -0.4748  0.5391
 6417TIP3    H119184   3.799   1.679   5.589  2.1575 -0.6501 -0.4658
 6417TIP3    H219185   3.816   1.757   5.461 -1.6804  2.2252  0.6906
 6418TIP3   OH219186   3.830   1.823   4.724 -0.0504  0.1499  0.1896
 6418TIP3    H119187   3.822   1.729   4.707 -1.3017  0.3138 -0.1517
 6418TIP3    H219188   3.754   1.862   4.681 -0.1456  1.1959  1.2754
 6419TIP3   OH219189   0.999   2.058   5.188  0.4151 -0.3197 -0.1005
 6419TIP3    H119190   1.078   2.021   5.229  0.6654  0.2375 -0.0753
 6419TIP3    H219191   0.940   1.983   5.178  2.1212 -1.3799 -2.9042
 6420TIP3   OH219192   2.680   1.128   5.774  0.0590 -0.2118 -0.7016
 6420TIP3    H119193   2.625   1.146   5.850 -1.8749 -2.1059 -1.6042
 6420TIP3    H219194   2.735   1.054   5.801 -0.4790 -0.7478 -1.0723
 6421TIP3   OH219195   2.531   1.448   5.405  0.1488 -0.4845 -0.2261
 6421TIP3    H119196   2.596   1.422   5.471  0.3876  4.0769  1.5235
 6421TIP3    H219197   2.446   1.430   5.447  0.2799 -1.4847 -0.3792
 6422TIP3   OH219198   4.585   7.074   1.016 -0.0152 -0.5880  0.2829
 6422TIP3    H119199   4.491   7.057   1.013 -0.0481 -0.3913  0.1286
 6422TIP3    H219200   4.592   7.170   1.019  0.1887 -0.5829 -0.1950
 6423TIP3   OH219201   1.385   2.210   5.921  0.2802 -0.5910  0.3990
 6423TIP3    H119202   1.431   2.222   5.837  0.4673  2.2649  0.8769
 6423TIP3    H219203   1.298   2.180   5.896  0.4891 -0.2519 -0.8087
 6424TIP3   OH219204   3.252   4.276   6.248  0.3287 -0.2799 -0.3454
 6424TIP3    H119205   3.343   4.303   6.262  0.8346 -2.8092  1.7620
 6424TIP3    H219206   3.245   4.261   6.154  1.5740  1.6182 -0.7675
 6425TIP3   OH219207   3.190   1.442   4.650 -0.6120  0.3963  0.2016
 6425TIP3    H119208   3.178   1.537   4.659 -0.4827  0.7134 -2.5094
 6425TIP3    H219209   3.184   1.409   4.740 -1.9892  2.8056  1.0713
 6426TIP3   OH219210   2.724   1.568   6.343 -0.0999 -0.0585  0.2206
 6426TIP3    H119211   2.646   1.619   6.365 -1.7697 -1.0669 -3.1118
 6426TIP3    H219212   2.726   1.498   6.409 -0.1509  1.7782  2.2491
 6427TIP3   OH219213   8.411   1.552   4.542  0.1152  0.2355 -0.2717
 6427TIP3    H119214   8.477   1.543   4.610 -1.1608 -1.7823  0.7562
 6427TIP3    H219215   8.426   1.639   4.504  0.9531  1.3198  2.4598
 6428TIP3   OH219216   2.870   2.480   6.093  0.0884  0.3912  0.3151
 6428TIP3    H119217   2.873   2.389   6.122 -0.3688  0.6318  1.1562
 6428TIP3    H219218   2.776   2.498   6.081  0.0887  1.1125  1.3656
 6429TIP3   OH219219   2.639   1.227   5.524 -0.5612  0.0706  0.0378
 6429TIP3    H119220   2.646   1.172   5.602  0.0681 -2.2656 -1.6131
 6429TIP3    H219221   2.601   1.170   5.457  0.0572  1.6542 -1.7281
 6430TIP3   OH219222   1.225   0.389   4.640 -0.3411  0.1551 -0.4189
 6430TIP3    H119223   1.287   0.373   4.569  2.1529  0.9551  1.5150
 6430TIP3    H219224   1.209   0.303   4.678  1.2277  0.2045  0.3868
 6431TIP3   OH219225   1.967   0.361   3.809 -0.3917 -0.1662 -0.3683
 6431TIP3    H119226   1.885   0.326   3.775 -0.2785 -1.1254  0.3238
 6431TIP3    H219227   2.010   0.286   3.850  0.5703  0.4518 -0.2177
 6432TIP3   OH219228   4.528   2.887   5.040 -0.2601 -0.2788  0.0396
 6432TIP3    H119229   4.601   2.835   5.074 -1.2238 -0.3013  2.1537
 6432TIP3    H219230   4.561   2.925   4.959  2.4002  0.4590  1.4289
 6433TIP3   OH219231   3.827   0.512   3.773 -0.5756  0.3076 -0.3583
 6433TIP3    H119232   3.912   0.546   3.799 -0.1725 -2.3047  2.0076
 6433TIP3    H219233   3.764   0.566   3.820 -0.0959  0.3681  0.2169
 6434TIP3   OH219234   2.340   2.514   6.088  0.4314  0.7322  0.1013
 6434TIP3    H119235   2.287   2.460   6.147  0.5030  0.6842  0.1210
 6434TIP3    H219236   2.295   2.599   6.088  0.8364  0.9534  0.7956
 6435TIP3   OH219237   3.103   3.306   5.478 -0.5764  0.0282  0.1698
 6435TIP3    H119238   3.062   3.274   5.559  1.6838 -2.5850  0.3435
 6435TIP3    H219239   3.040   3.282   5.409 -1.4391  0.1793  0.8879
 6436TIP3   OH219240   2.781   1.547   5.310 -0.2923  0.3868 -0.0646
 6436TIP3    H119241   2.824   1.463   5.328 -1.3188  0.1503  1.3549
 6436TIP3    H219242   2.843   1.613   5.342 -0.8261  0.0575  1.7044
 6437TIP3   OH219243   3.404   2.588   4.322  0.0964  0.5466  0.0798
 6437TIP3    H119244   3.383   2.503   4.360 -0.8332 -0.8255 -3.2786
 6437TIP3    H219245   3.323   2.616   4.280  0.5100  2.9324  0.8313
 6438TIP3   OH219246   1.270   1.951   5.282 -0.1753  0.1329 -0.1995
 6438TIP3    H119247   1.336   2.014   5.312 -2.8853  3.0233 -0.1294
 6438TIP3    H219248   1.251   1.898   5.360 -0.5119  1.6384  0.7662
 6439TIP3   OH219249   3.063   0.928   3.878 -0.1810 -0.1154  0.2181
 6439TIP3    H119250   3.123   0.854   3.890 -0.9850 -0.5226  1.9663
 6439TIP3    H219251   2.981   0.898   3.918 -0.9168  1.2149 -0.2840
 6440TIP3   OH219252   6.529   5.330   0.331  0.2325 -0.1138 -0.6967
 6440TIP3    H119253   6.542   5.410   0.382  0.7233  0.0066 -1.0102
 6440TIP3    H219254   6.497   5.359   0.246  3.1120 -0.0330 -1.8137
 6441TIP3   OH219255   2.266   2.563   6.915  0.0952 -0.1016 -0.4330
 6441TIP3    H119256   2.175   2.593   6.915  0.6054  1.5124 -0.5885
 6441TIP3    H219257   2.282   2.537   6.824  0.0054  0.2873 -0.5612
 6442TIP3   OH219258   6.697   6.195   0.361  0.3715 -0.4033 -0.7300
 6442TIP3    H119259   6.666   6.164   0.276  2.6170  1.2247 -2.2086
 6442TIP3    H219260   6.764   6.132   0.387  0.9281  0.0680 -1.0170
 6443TIP3   OH219261   0.360   1.737   4.474 -0.0403  0.0716 -0.0801
 6443TIP3    H119262   0.434   1.677   4.486 -0.1637 -0.1797 -0.5424
 6443TIP3    H219263   0.397   1.811   4.425 -0.2648 -0.4095 -0.9827
 6444TIP3   OH219264   2.466   3.239   5.564 -0.4029 -0.0432  0.3038
 6444TIP3    H119265   2.470   3.151   5.601 -0.6245 -0.9614 -1.7613
 6444TIP3    H219266   2.520   3.234   5.485  0.0983  1.8599  0.5048
 6445TIP3   OH219267   3.242   1.882   6.466 -0.3265 -0.1609 -0.2322
 6445TIP3    H119268   3.308   1.832   6.418  0.3806  1.0244 -0.5118
 6445TIP3    H219269   3.291   1.954   6.505 -1.4818  0.8337 -0.6029
 6446TIP3   OH219270   4.559   2.608   5.949  0.2182 -0.3245  0.5381
 6446TIP3    H119271   4.572   2.662   5.871 -2.5634  1.0502  0.9911
 6446TIP3    H219272   4.526   2.525   5.915 -0.9022  0.2406  0.2083
 6447TIP3   OH219273   3.500   1.514   6.360  0.2998  0.3033 -0.3295
 6447TIP3    H119274   3.560   1.524   6.433 -0.9493  0.5997  0.6757
 6447TIP3    H219275   3.516   1.426   6.327  1.0306  0.2581  0.1546
 6448TIP3   OH219276   3.021   2.568   6.778  0.3692 -0.2815 -0.2748
 6448TIP3    H119277   3.045   2.511   6.852 -1.8917  0.1378  0.8371
 6448TIP3    H219278   3.104   2.605   6.749  1.4961 -1.6417  1.0775
 6449TIP3   OH219279   2.774   1.388   4.460  0.3239 -0.0865 -0.3876
 6449TIP3    H119280   2.787   1.336   4.539  0.8118  0.1363 -0.3210
 6449TIP3    H219281   2.861   1.422   4.439 -0.4796  3.2754  1.3173
 6450TIP3   OH219282   7.740   4.882   0.139  0.6134 -0.0190  0.3299
 6450TIP3    H119283   7.688   4.955   0.105 -0.4660 -0.1897  1.5772
 6450TIP3    H219284   7.678   4.809   0.143  1.2649 -0.5515  0.6614
 6451TIP3   OH219285   3.039   0.979   3.613  1.1278 -0.2881  0.2165
 6451TIP3    H119286   3.067   0.950   3.700 -0.8883 -1.4818  0.5228
 6451TIP3    H219287   2.990   1.060   3.630  0.3005 -0.7925  0.2711
 6452TIP3   OH219288   5.282   2.282   4.761 -0.4976  0.0507  0.1064
 6452TIP3    H119289   5.377   2.276   4.761 -0.4695  0.5325 -0.4876
 6452TIP3    H219290   5.254   2.228   4.687 -0.6138  1.0144 -0.5613
 6453TIP3   OH219291   3.636   3.257   3.942 -0.2379 -0.2947  0.4534
 6453TIP3    H119292   3.685   3.307   4.008 -0.9852 -0.2187  0.9610
 6453TIP3    H219293   3.668   3.167   3.952  1.4110  0.1325 -0.7407
 6454TIP3   OH219294   0.705   2.349   6.005 -0.0593  0.2008  0.0848
 6454TIP3    H119295   0.696   2.416   5.938  2.4482 -0.2780 -0.7806
 6454TIP3    H219296   0.786   2.371   6.050  0.2179 -1.6148  0.5213
 6455TIP3   OH219297   2.421   2.270   4.772 -0.5290  0.0033 -0.1085
 6455TIP3    H119298   2.443   2.263   4.679 -0.6665 -1.7270 -0.0400
 6455TIP3    H219299   2.405   2.179   4.799 -1.8497  0.6268  1.2710
 6456TIP3   OH219300   5.416   2.021   4.914  0.1193 -0.7043  0.7081
 6456TIP3    H119301   5.444   2.112   4.903 -0.2059 -0.6723  0.1212
 6456TIP3    H219302   5.320   2.026   4.917  0.1184 -0.9737  1.1896
 6457TIP3   OH219303   2.774   1.965   3.587 -0.3539  0.4560 -0.4326
 6457TIP3    H119304   2.810   1.877   3.594 -1.7148 -0.1419 -0.9068
 6457TIP3    H219305   2.849   2.022   3.602  0.4730 -0.7768  0.2205
 6458TIP3   OH219306   4.481   2.915   5.904 -0.3008  0.0364 -0.0152
 6458TIP3    H119307   4.556   2.878   5.951  0.2988 -0.9382 -1.7223
 6458TIP3    H219308   4.499   2.897   5.812 -2.5712 -0.1088 -0.4562
 6459TIP3   OH219309   3.503   0.238   5.428 -0.2610  0.3030 -0.1510
 6459TIP3    H119310   3.541   0.212   5.512  0.8103 -0.3258 -0.8071
 6459TIP3    H219311   3.551   0.317   5.404 -0.1619  0.1592 -0.4335
 6460TIP3   OH219312   3.664   3.653   4.345  0.2319 -0.0520  0.0670
 6460TIP3    H119313   3.640   3.562   4.362 -0.7826 -0.0121 -1.0563
 6460TIP3    H219314   3.746   3.648   4.297 -0.2428 -0.4168 -0.7154
 6461TIP3   OH219315   5.313   3.214   4.554  1.0633  0.3550  0.6190
 6461TIP3    H119316   5.256   3.221   4.477 -0.9255 -0.2927  1.9747
 6461TIP3    H219317   5.399   3.191   4.519 -0.3432 -2.2838 -1.2696
 6462TIP3   OH219318   2.027   0.050   4.779 -0.4138 -0.4949  0.6771
 6462TIP3    H119319   1.933   0.043   4.792 -0.5612 -1.8686 -1.0108
 6462TIP3    H219320   2.065  -0.022   4.830 -0.3689 -0.7304  0.3106
 6463TIP3   OH219321   1.017   7.215   2.859 -0.3240 -0.2255  0.3016
 6463TIP3    H119322   0.930   7.241   2.888 -1.1700  1.1386 -3.1824
 6463TIP3    H219323   1.008   7.202   2.764  3.1200 -0.6722 -0.0392
 6464TIP3   OH219324   1.667   4.239   5.665 -0.4574  0.3363  0.0371
 6464TIP3    H119325   1.694   4.181   5.736 -1.7490  2.1845  2.0942
 6464TIP3    H219326   1.572   4.227   5.658 -0.3633  0.2187 -1.3700
 6465TIP3   OH219327   2.457   2.714   3.381  0.1741  0.4317 -0.2722
 6465TIP3    H119328   2.420   2.706   3.468 -2.3130 -0.9862 -1.3984
 6465TIP3    H219329   2.392   2.765   3.332  2.2553  2.5574 -0.9279
 6466TIP3   OH219330   2.792   2.243   5.454  0.2104 -0.4230  0.6119
 6466TIP3    H119331   2.858   2.312   5.445  0.9484 -0.9043  2.2737
 6466TIP3    H219332   2.783   2.229   5.548 -0.1018 -2.4277  0.3160
 6467TIP3   OH219333   4.548   1.851   6.241  0.1319  0.0461  0.0422
 6467TIP3    H119334   4.642   1.835   6.247  0.1672 -0.4326 -1.6308
 6467TIP3    H219335   4.509   1.783   6.295  0.7368  0.1921  0.6756
 6468TIP3   OH219336   2.897   2.882   4.705 -0.3414 -0.1250  0.1738
 6468TIP3    H119337   2.967   2.894   4.641 -0.5308  2.3447  0.4167
 6468TIP3    H219338   2.823   2.931   4.671 -1.3512 -1.0986  0.9040
 6469TIP3   OH219339   6.439   7.754   4.128  0.3127  0.4434  0.1001
 6469TIP3    H119340   6.404   7.773   4.041 -0.9597  1.8026  0.8769
 6469TIP3    H219341   6.531   7.776   4.122  0.1882  0.7492 -0.8412
 6470TIP3   OH219342   1.201   1.361   5.978 -0.3875  0.8048 -0.4772
 6470TIP3    H119343   1.255   1.430   6.016 -0.8924 -0.6149  3.0051
 6470TIP3    H219344   1.111   1.384   6.002 -0.8931  0.6059 -2.0836
 6471TIP3   OH219345   2.085   1.869   5.268 -0.3535 -0.4611  0.2265
 6471TIP3    H119346   2.030   1.852   5.192 -0.9591 -0.1947  0.6028
 6471TIP3    H219347   2.043   1.943   5.313  0.6027  0.0973  0.2261
 6472TIP3   OH219348   3.486   1.792   4.253 -0.5169  0.1254 -0.1562
 6472TIP3    H119349   3.397   1.794   4.216 -0.2636  1.1310 -0.7242
 6472TIP3    H219350   3.472   1.798   4.348 -1.1878 -2.9440  0.0001
 6473TIP3   OH219351   2.619   1.654   6.754 -0.1754  0.0010 -0.4098
 6473TIP3    H119352   2.653   1.661   6.843  0.5199 -1.2515 -0.5721
 6473TIP3    H219353   2.697   1.642   6.699 -0.5419  1.4112 -1.2729
 6474TIP3   OH219354   2.109   3.564   5.549 -0.3253 -0.2402 -0.0277
 6474TIP3    H119355   2.016   3.546   5.558 -0.1287 -2.4429 -1.8697
 6474TIP3    H219356   2.122   3.586   5.457  0.9468  0.3039  0.2541
 6475TIP3   OH219357   1.480   0.374   4.040 -0.3285 -0.0647 -0.0883
 6475TIP3    H119358   1.562   0.390   3.993 -0.1907 -1.0531 -0.1811
 6475TIP3    H219359   1.491   0.288   4.080 -0.7249  0.4634  1.1783
 6476TIP3   OH219360   1.844   1.622   5.388 -0.3965  0.6718 -0.4572
 6476TIP3    H119361   1.807   1.706   5.361  0.9561  1.3912 -0.1192
 6476TIP3    H219362   1.794   1.598   5.466 -1.2203  0.8391 -0.9256
 6477TIP3   OH219363   2.568   1.769   5.280  0.1887  0.1818 -0.1278
 6477TIP3    H119364   2.497   1.794   5.339  0.8200  0.7409  0.4088
 6477TIP3    H219365   2.630   1.842   5.285 -0.4726  0.9651 -2.6689
 6478TIP3   OH219366   2.367   0.981   5.379 -0.1214 -0.7472 -0.3871
 6478TIP3    H119367   2.370   1.004   5.286 -0.2447 -0.3248 -0.2884
 6478TIP3    H219368   2.458   0.966   5.403 -0.0284 -0.2205 -0.4168
 6479TIP3   OH219369   2.134   3.183   2.670 -0.4690  0.4494 -0.2851
 6479TIP3    H119370   2.072   3.196   2.742 -1.5737  0.7182 -1.2899
 6479TIP3    H219371   2.083   3.197   2.591  0.7244  0.0358 -1.1366
 6480TIP3   OH219372   3.121   1.898   5.467  0.4444  0.1261 -0.1584
 6480TIP3    H119373   3.195   1.933   5.416  0.9255 -0.1287  0.3599
 6480TIP3    H219374   3.114   1.957   5.542  1.0531 -0.6840  0.5519
 6481TIP3   OH219375   0.806   7.687   4.283 -0.0411 -0.2827 -0.5252
 6481TIP3    H119376   0.750   7.611   4.304 -0.0556 -0.0075  0.4558
 6481TIP3    H219377   0.802   7.742   4.361 -0.0704  0.7638 -1.2597
 6482TIP3   OH219378   2.308   2.968   3.616  0.5298 -0.2908 -0.1251
 6482TIP3    H119379   2.266   2.925   3.541  0.8162  1.1491 -1.1485
 6482TIP3    H219380   2.259   3.050   3.626  1.0083 -0.1108  0.7575
 6483TIP3   OH219381   3.283   3.969   5.668 -0.1483  0.1633 -0.4994
 6483TIP3    H119382   3.280   4.053   5.622 -1.9199  1.0156  1.0618
 6483TIP3    H219383   3.192   3.939   5.669  0.6416 -2.3702 -2.0483
 6484TIP3   OH219384   5.572   6.030   0.638  0.4347  0.2633  0.2582
 6484TIP3    H119385   5.539   6.051   0.551 -1.3092 -0.5783  0.7085
 6484TIP3    H219386   5.654   5.983   0.622  0.2888  0.3872 -0.9016
 6485TIP3   OH219387   1.685   2.740   3.219 -0.1084  0.2881 -0.4678
 6485TIP3    H119388   1.625   2.814   3.210 -0.8839 -0.3620 -0.7073
 6485TIP3    H219389   1.650   2.673   3.159  1.9483  0.6031 -2.0732
 6486TIP3   OH219390   3.294   3.032   3.293  0.8518 -0.1785  0.2767
 6486TIP3    H119391   3.366   3.002   3.348  1.8725  0.9389 -0.4134
 6486TIP3    H219392   3.318   3.122   3.269 -1.4608  0.7217  1.1933
 6487TIP3   OH219393   4.331   1.791   6.036  0.7374  0.1698  0.1255
 6487TIP3    H119394   4.393   1.838   6.091  0.2652 -0.0294  0.8458
 6487TIP3    H219395   4.254   1.780   6.091  0.7327 -1.1963 -0.1143
 6488TIP3   OH219396   3.278   3.066   6.519 -0.0875 -0.0251  0.0474
 6488TIP3    H119397   3.360   3.021   6.504  0.1325  0.2666  0.3731
 6488TIP3    H219398   3.222   3.040   6.445  0.4187  0.0633 -0.3686
 6489TIP3   OH219399   2.351   1.939   3.540  0.3896 -0.0637  0.3271
 6489TIP3    H119400   2.354   2.025   3.498  0.2185  0.6790  1.8192
 6489TIP3    H219401   2.271   1.940   3.592  0.6934 -0.8960  0.8255
 6490TIP3   OH219402   1.999   2.837   5.692 -0.2522 -0.3449  0.5523
 6490TIP3    H119403   1.941   2.767   5.723  1.1892 -1.4292  0.8796
 6490TIP3    H219404   1.986   2.838   5.597 -1.4525  0.0317  0.7099
 6491TIP3   OH219405   3.516   3.124   6.394  0.3424  0.2022 -0.2094
 6491TIP3    H119406   3.443   3.166   6.349  0.9198  0.2883 -1.0676
 6491TIP3    H219407   3.530   3.043   6.346  0.5992  0.0251  0.1638
 6492TIP3   OH219408   2.268   3.493   6.518  0.2677 -0.3769 -0.0128
 6492TIP3    H119409   2.288   3.412   6.565  1.8099  0.4112  0.7033
 6492TIP3    H219410   2.286   3.472   6.426 -1.4469 -1.5003 -0.1220
 6493TIP3   OH219411   2.617   3.561   6.436  0.2827  0.4841 -0.5047
 6493TIP3    H119412   2.592   3.627   6.372  0.2777  0.0662 -0.9450
 6493TIP3    H219413   2.624   3.480   6.384  1.2532  0.3409 -0.1526
 6494TIP3   OH219414   1.998   2.818   5.419 -0.4308 -0.1772 -0.4989
 6494TIP3    H119415   1.955   2.793   5.337  1.3119  0.5615 -1.6685
 6494TIP3    H219416   2.011   2.912   5.412  0.8985 -0.3113  0.0771
 6495TIP3   OH219417   1.439   0.800   6.248 -0.1915 -0.0547 -0.1724
 6495TIP3    H119418   1.409   0.796   6.338  0.5546 -3.9761 -0.0064
 6495TIP3    H219419   1.359   0.797   6.195 -0.5054 -0.8229  0.3440
 6496TIP3   OH219420   2.507   2.990   4.981  0.1226  0.1023 -0.1611
 6496TIP3    H119421   2.515   3.010   5.074 -1.2447 -1.8888  0.4284
 6496TIP3    H219422   2.504   3.075   4.938 -1.1126  1.0798  1.8015
 6497TIP3   OH219423   4.665   4.292   6.724  0.0382 -0.3493  0.1707
 6497TIP3    H119424   4.643   4.352   6.795 -1.8547 -1.4201  0.5059
 6497TIP3    H219425   4.602   4.311   6.655 -0.0022 -1.3451 -0.0764
 6498TIP3   OH219426   2.476   4.146   5.490 -0.2989  0.1867  0.0136
 6498TIP3    H119427   2.429   4.196   5.423  0.1650 -2.0151 -2.0066
 6498TIP3    H219428   2.481   4.057   5.455  0.2704 -0.9477  2.8306
 6499TIP3   OH219429   5.409   4.663   0.896 -0.3243  0.7519  0.4662
 6499TIP3    H119430   5.421   4.575   0.861  0.3245  0.9694  0.1195
 6499TIP3    H219431   5.488   4.679   0.948 -0.8284  0.8101  1.2142
 6500TIP3   OH219432   3.551   2.780   5.502  0.4702 -0.1414  0.0155
 6500TIP3    H119433   3.515   2.691   5.502  0.2935 -0.0713  0.7768
 6500TIP3    H219434   3.520   2.819   5.584  3.4945 -0.5660  1.4243
 6501TIP3   OH219435   4.311   1.756   3.857  0.5058  0.5585  0.0065
 6501TIP3    H119436   4.228   1.710   3.870  1.9135 -1.6603  1.3447
 6501TIP3    H219437   4.331   1.744   3.765  1.2259 -2.2421  0.4779
 6502TIP3   OH219438   5.388   4.747   2.333  1.3553 -0.3687  0.0006
 6502TIP3    H119439   5.400   4.769   2.425 -1.6254 -1.4536  0.7163
 6502TIP3    H219440   5.430   4.661   2.322  1.9374 -0.1173  0.2883
 6503TIP3   OH219441   1.913   1.824   5.899 -0.0725 -0.3264 -0.3884
 6503TIP3    H119442   1.818   1.821   5.913  0.1983  0.6389  1.8341
 6503TIP3    H219443   1.944   1.739   5.931 -0.0157  0.0141  0.4906
 6504TIP3   OH219444   1.204   0.797   6.079  0.5898 -0.3073  0.1284
 6504TIP3    H119445   1.159   0.875   6.047  1.6601  1.0682  1.8659
 6504TIP3    H219446   1.217   0.743   6.001  1.4260  2.0530 -1.4194
 6505TIP3   OH219447   7.594   0.070   0.069 -0.4504  0.0613  0.0690
 6505TIP3    H119448   7.539  -0.007   0.083 -2.2520  1.1046 -1.0926
 6505TIP3    H219449   7.655   0.043  -0.001 -0.5998 -0.5325  0.1636
 6506TIP3   OH219450   5.379   1.469   5.522  0.2394 -0.0398  0.2010
 6506TIP3    H119451   5.424   1.421   5.591 -0.1584 -1.0890 -0.2594
 6506TIP3    H219452   5.416   1.435   5.440  0.7711  1.2496 -0.1171
 6507TIP3   OH219453   2.269   2.289   6.416 -0.1401 -0.2481  0.2141
 6507TIP3    H119454   2.282   2.228   6.489 -0.5381 -0.5284  0.0542
 6507TIP3    H219455   2.324   2.254   6.345  0.0455 -0.1225  0.2972
 6508TIP3   OH219456   3.134   2.034   6.172  0.0022 -0.3015  0.4162
 6508TIP3    H119457   3.169   1.965   6.116 -1.6332 -0.6308 -0.2491
 6508TIP3    H219458   3.107   1.990   6.252  1.3227 -0.0041  1.0434
 6509TIP3   OH219459   6.000   6.680   0.356  0.8014  0.2281  0.1740
 6509TIP3    H119460   6.065   6.746   0.333  0.3408  0.4134 -0.6261
 6509TIP3    H219461   6.037   6.635   0.432  1.1220  1.3883  0.7124
 6510TIP3   OH219462   1.935   2.551   5.754 -0.6328  0.2073 -0.3229
 6510TIP3    H119463   1.996   2.536   5.826  0.8613 -0.9497 -1.7967
 6510TIP3    H219464   1.970   2.499   5.682 -1.3967  2.3370 -2.2798
 6511TIP3   OH219465   2.055   3.709   4.152 -0.2520 -0.0535 -0.2174
 6511TIP3    H119466   2.036   3.692   4.244 -1.7226  3.0298  0.1024
 6511TIP3    H219467   2.124   3.775   4.153 -1.1223  0.8831 -1.3191
 6512TIP3   OH219468   0.771   4.872   5.268  0.2807  0.1224  0.1179
 6512TIP3    H119469   0.725   4.866   5.185  1.6136 -0.4409 -0.5979
 6512TIP3    H219470   0.783   4.780   5.295 -0.1089  0.2999  0.9023
 6513TIP3   OH219471   1.492   3.112   4.640 -0.3245  0.5572  0.2409
 6513TIP3    H119472   1.470   3.066   4.559 -0.2788  1.0358 -0.0434
 6513TIP3    H219473   1.455   3.199   4.630  0.5651  0.9515  0.3019
 6514TIP3   OH219474   3.503   3.000   3.520  0.3687  0.2267 -0.7728
 6514TIP3    H119475   3.574   2.949   3.481  0.6994  0.2028 -0.1357
 6514TIP3    H219476   3.547   3.069   3.569  0.0537 -1.4164  1.9176
 6515TIP3   OH219477   3.758   3.296   4.725  0.4924 -0.6552  0.0483
 6515TIP3    H119478   3.742   3.263   4.813 -2.1791  1.6497  0.4970
 6515TIP3    H219479   3.835   3.351   4.734  0.2900 -0.5043  0.9371
 6516TIP3   OH219480   3.085   2.586   6.236 -0.3017 -0.6691  0.1290
 6516TIP3    H119481   3.091   2.630   6.151  0.1884  0.9662  0.9962
 6516TIP3    H219482   3.014   2.522   6.225  0.5353 -1.3137 -1.8722
 6517TIP3   OH219483   5.073   2.605   5.962  0.3660 -1.0932 -0.3079
 6517TIP3    H119484   4.985   2.566   5.954 -0.0876 -0.4435  1.3012
 6517TIP3    H219485   5.112   2.560   6.036  0.6083  0.0574  0.2756
 6518TIP3   OH219486   5.086   3.447   5.426  0.3682 -0.0650  0.0838
 6518TIP3    H119487   5.047   3.481   5.346 -0.9159  0.5093  0.9422
 6518TIP3    H219488   5.032   3.483   5.496  3.5753  2.3400  1.4443
 6519TIP3   OH219489   4.749   1.012   4.853 -0.2912  0.4020 -0.2386
 6519TIP3    H119490   4.838   0.990   4.879  1.0702  2.0049 -3.3077
 6519TIP3    H219491   4.697   0.935   4.878  1.8577 -0.4384  1.8332
 6520TIP3   OH219492   2.246   1.367   4.757  0.4028 -0.0197 -0.2525
 6520TIP3    H119493   2.160   1.397   4.786  0.3034 -0.6794  0.1320
 6520TIP3    H219494   2.291   1.447   4.730 -0.3065  0.3340 -0.3901
 6521TIP3   OH219495   2.820   3.146   6.332 -0.1581  0.0593  0.2228
 6521TIP3    H119496   2.885   3.193   6.385  0.5940 -0.9946  0.2558
 6521TIP3    H219497   2.859   3.143   6.245 -0.0722 -0.7466  0.2884
 6522TIP3   OH219498   4.996   0.662   5.041  0.3343 -0.2674  0.3484
 6522TIP3    H119499   4.928   0.716   5.082  0.1595  1.9270 -2.6340
 6522TIP3    H219500   5.074   0.717   5.042  0.6807 -0.7105 -0.9458
 6523TIP3   OH219501   4.062   1.093   5.615 -0.1243 -0.2615  0.2346
 6523TIP3    H119502   3.968   1.089   5.632 -0.5169  3.1779 -0.6010
 6523TIP3    H219503   4.071   1.069   5.523 -0.0501 -1.7293  0.6255
 6524TIP3   OH219504   5.220   1.115   4.970 -0.0124  0.8975  1.1120
 6524TIP3    H119505   5.182   1.183   5.027 -0.4165  0.1443  1.7539
 6524TIP3    H219506   5.307   1.100   5.005 -0.6979 -0.4268  2.3002
 6525TIP3   OH219507   8.266   0.231   6.463  0.2354 -1.0140 -0.0404
 6525TIP3    H119508   8.274   0.209   6.371  0.2470 -0.1022 -0.2671
 6525TIP3    H219509   8.350   0.206   6.502  0.9244  0.3056 -0.6514
 6526TIP3   OH219510   3.907   1.598   5.717  0.3275  0.0173 -0.0380
 6526TIP3    H119511   3.941   1.513   5.744  0.4848  0.6002  1.6975
 6526TIP3    H219512   3.985   1.654   5.710  0.0965  0.4026  0.3576
 6527TIP3   OH219513   3.275   0.535   6.299  0.6524 -0.8388 -0.2041
 6527TIP3    H119514   3.304   0.613   6.346 -3.4104 -0.5247  2.0728
 6527TIP3    H219515   3.230   0.570   6.222  0.6119 -0.9897 -0.2484
 6528TIP3   OH219516   4.042   1.468   6.221  0.5616  0.2903  0.6854
 6528TIP3    H119517   3.948   1.472   6.205  0.3411 -0.1301  1.8340
 6528TIP3    H219518   4.076   1.410   6.152 -0.3284 -1.3036  1.5592
 6529TIP3   OH219519   4.786   1.712   6.231 -0.1097 -0.0533 -0.2604
 6529TIP3    H119520   4.798   1.620   6.255  0.0880 -0.3405 -1.4185
 6529TIP3    H219521   4.798   1.714   6.136 -2.1525  0.8362 -0.5308
 6530TIP3   OH219522   6.065   6.566   0.061  0.1077  0.2907 -0.5063
 6530TIP3    H119523   6.020   6.483   0.043 -1.8406  1.0724  0.7142
 6530TIP3    H219524   6.136   6.568  -0.004  0.1265 -2.2686 -0.6369
 6531TIP3   OH219525   3.757   2.018   4.477  0.1264 -0.7068 -0.2629
 6531TIP3    H119526   3.710   2.019   4.561  0.0656  1.3749 -0.2806
 6531TIP3    H219527   3.841   2.060   4.496  0.2784 -0.6001 -1.1447
 6532TIP3   OH219528   5.610   5.649   0.051 -0.3833  0.6210 -0.2169
 6532TIP3    H119529   5.629   5.633   0.143 -1.7250  2.2241  0.3726
 6532TIP3    H219530   5.693   5.681   0.015  0.0836  0.2230  0.4966
 6533TIP3   OH219531   5.498   2.527   4.415  0.4997 -0.0647 -0.8082
 6533TIP3    H119532   5.484   2.438   4.383 -0.1011  0.2107 -1.3266
 6533TIP3    H219533   5.585   2.551   4.383  0.1617 -0.0219 -1.7226
 6534TIP3   OH219534   0.993   8.009   3.519  0.2434 -0.4963  0.1799
 6534TIP3    H119535   0.988   7.918   3.547 -0.5886 -1.0479 -1.7020
 6534TIP3    H219536   1.042   8.053   3.589 -0.3364 -2.1439  1.6465
 6535TIP3   OH219537   4.432   5.809   0.141  0.9967 -0.3653  1.0224
 6535TIP3    H119538   4.406   5.845   0.056  0.5752 -0.9226  0.9094
 6535TIP3    H219539   4.503   5.748   0.119  0.4334 -1.0215  0.9763
 6536TIP3   OH219540   0.582   3.626   3.452  0.0888  0.1944 -0.0256
 6536TIP3    H119541   0.625   3.642   3.536  1.4285 -2.6273 -0.1424
 6536TIP3    H219542   0.501   3.581   3.475  0.9154 -1.4502 -0.2823
 6537TIP3   OH219543   6.997   7.134   1.162  0.0738 -0.4283  0.3411
 6537TIP3    H119544   7.086   7.102   1.146 -0.3627 -3.5378  3.4000
 6537TIP3    H219545   7.008   7.203   1.227  0.4042  0.8631 -1.0505
 6538TIP3   OH219546   7.577   6.094   2.116  1.2290  0.0446 -0.3805
 6538TIP3    H119547   7.523   6.057   2.186  0.7349 -0.5129 -1.0400
 6538TIP3    H219548   7.561   6.036   2.041 -0.1949  2.0479 -1.6750
 6539TIP3   OH219549   8.300   2.149   2.323  0.4482 -0.6251 -0.3788
 6539TIP3    H119550   8.379   2.114   2.363  0.8210 -2.5967 -2.7213
 6539TIP3    H219551   8.307   2.125   2.231 -1.9398  0.9036 -1.0038
 6540TIP3   OH219552   3.300   3.356   4.259 -0.0855 -0.3171  0.1723
 6540TIP3    H119553   3.305   3.439   4.212 -1.4672 -0.5249 -0.3884
 6540TIP3    H219554   3.261   3.295   4.196 -1.5818 -0.7023  1.4196
 6541TIP3   OH219555   4.678   4.583   0.788 -0.1520 -0.0941  0.0073
 6541TIP3    H119556   4.687   4.585   0.693  1.0160 -0.4249  0.0915
 6541TIP3    H219557   4.756   4.629   0.820 -1.6609  1.9954  0.7754
 6542TIP3   OH219558   6.795   0.434   0.424  0.4928 -0.0507 -0.1561
 6542TIP3    H119559   6.758   0.489   0.356 -0.5103 -1.4741 -0.7900
 6542TIP3    H219560   6.850   0.493   0.475  0.2538  1.3074 -1.4225
 6543TIP3   OH219561   3.656   2.050   6.471 -0.3973 -0.1161  0.2499
 6543TIP3    H119562   3.667   1.958   6.448  1.3711  0.5843 -1.8877
 6543TIP3    H219563   3.577   2.076   6.423 -0.2366 -0.2454 -0.0926
 6544TIP3   OH219564   1.808   3.639   4.601 -0.0579  0.3473  0.2441
 6544TIP3    H119565   1.716   3.660   4.619  0.3815  2.8003 -0.1660
 6544TIP3    H219566   1.850   3.639   4.688 -0.7433 -2.5591  0.6262
 6545TIP3   OH219567   6.621   6.687   0.090 -0.7011  0.1424  0.1252
 6545TIP3    H119568   6.629   6.771   0.135  2.5757 -0.2687  0.4211
 6545TIP3    H219569   6.643   6.706  -0.001 -1.5476 -0.1083 -0.1385
 6546TIP3   OH219570   4.956   3.542   5.669  0.1121  0.4725 -0.2527
 6546TIP3    H119571   5.011   3.562   5.745 -0.5797  0.4729  0.2525
 6546TIP3    H219572   4.942   3.627   5.626 -1.2600  0.7989  0.8246
 6547TIP3   OH219573   5.323   6.938   0.091 -0.2095  0.3102  0.4495
 6547TIP3    H119574   5.284   7.004   0.148 -1.5281  1.2490 -1.5121
 6547TIP3    H219575   5.410   6.923   0.129 -1.6358 -0.2755  3.6387
 6548TIP3   OH219576   2.873   2.284   3.274 -0.0311  0.1390 -0.1452
 6548TIP3    H119577   2.922   2.300   3.193 -1.2067 -0.6124 -1.0195
 6548TIP3    H219578   2.847   2.371   3.303  1.3241  0.4978  0.0151
 6549TIP3   OH219579   2.694   4.656   3.655  0.2877  0.3199 -0.3521
 6549TIP3    H119580   2.735   4.570   3.654 -0.3550  0.0001  0.3982
 6549TIP3    H219581   2.727   4.698   3.735 -0.7270  0.1200  0.1708
 6550TIP3   OH219582   4.089   2.905   2.960  0.1627 -0.4529  0.2710
 6550TIP3    H119583   4.127   2.939   3.041 -0.7699  0.4893  0.3233
 6550TIP3    H219584   4.039   2.829   2.987 -1.4576  0.7785  0.8441
 6551TIP3   OH219585   3.021   3.541   4.103 -0.3426 -0.2333 -0.5743
 6551TIP3    H119586   3.040   3.478   4.033  1.0192 -2.5530  1.7913
 6551TIP3    H219587   3.096   3.600   4.103  0.2341 -0.9592 -0.3027
 6552TIP3   OH219588   0.880   1.865   5.783 -0.1258  0.2329  0.6400
 6552TIP3    H119589   0.890   1.949   5.736  2.3927 -0.5034 -0.2207
 6552TIP3    H219590   0.959   1.858   5.837  0.1323 -1.9954  0.0264
 6553TIP3   OH219591   2.414   1.455   6.805  0.1372  0.4973 -0.0890
 6553TIP3    H119592   2.385   1.448   6.714 -0.3741  2.8076 -0.1250
 6553TIP3    H219593   2.501   1.495   6.800 -0.0857  1.0517  0.4597
 6554TIP3   OH219594   5.283   2.866   5.172  0.2141 -0.0172 -0.3022
 6554TIP3    H119595   5.328   2.782   5.160  0.6812 -0.0183  1.3626
 6554TIP3    H219596   5.332   2.927   5.117  1.2957 -0.3618  0.2582
 6555TIP3   OH219597   2.056   0.574   3.657 -0.1469 -0.4177  0.4779
 6555TIP3    H119598   2.009   0.501   3.697  0.1769 -0.1033  1.4364
 6555TIP3    H219599   2.136   0.583   3.709 -0.3594  0.8658  0.5903
 6556TIP3   OH219600   3.765   3.015   3.181  0.5294 -0.3705 -0.2921
 6556TIP3    H119601   3.855   3.046   3.173  0.1256  0.7236 -0.7589
 6556TIP3    H219602   3.732   3.014   3.091 -0.5982  1.3628  0.0698
 6557TIP3   OH219603   4.105   1.290   3.132  0.2303  0.7629  0.9794
 6557TIP3    H119604   4.105   1.373   3.180 -0.8445  1.4500 -0.1865
 6557TIP3    H219605   4.041   1.235   3.178  0.8444  0.6131  1.6693
 6558TIP3   OH219606   3.741   0.943   5.254  0.2508 -0.6381 -0.1890
 6558TIP3    H119607   3.791   0.929   5.173 -0.1576  1.3783 -0.8432
 6558TIP3    H219608   3.796   1.001   5.306 -0.8588  0.6421 -0.4072
 6559TIP3   OH219609   4.021   1.046   4.848 -0.0329  0.3680 -0.1294
 6559TIP3    H119610   4.014   1.130   4.802  0.3555 -0.2620 -1.3801
 6559TIP3    H219611   4.115   1.028   4.851 -0.0738  0.2724  0.6978
 6560TIP3   OH219612   3.375   1.118   5.114 -0.3311  0.2451  0.0519
 6560TIP3    H119613   3.367   1.205   5.074  1.1890  0.4853  0.2586
 6560TIP3    H219614   3.353   1.132   5.206  1.2901  0.7002  0.3901
 6561TIP3   OH219615   1.058   7.718   5.443 -0.7152  0.4497 -0.1184
 6561TIP3    H119616   1.087   7.719   5.352 -0.8166  0.9560 -0.1481
 6561TIP3    H219617   1.112   7.784   5.486 -0.5492  0.0935  0.2302
 6562TIP3   OH219618   5.351   1.997   4.459  0.1305  0.2526  0.2439
 6562TIP3    H119619   5.395   1.932   4.514 -1.2979 -0.0409  1.0457
 6562TIP3    H219620   5.278   1.951   4.420  0.4494  0.7787 -1.0116
 6563TIP3   OH219621   8.214   2.716   5.665  0.4322 -0.3650 -0.1839
 6563TIP3    H119622   8.131   2.669   5.661  0.1354  0.1093  0.1772
 6563TIP3    H219623   8.253   2.706   5.578 -0.0937 -0.4324 -0.4111
 6564TIP3   OH219624   1.114   0.556   2.337 -0.2042 -0.3387  0.3101
 6564TIP3    H119625   1.147   0.527   2.422  1.1826 -0.4217 -0.2522
 6564TIP3    H219626   1.024   0.584   2.355  0.2870  0.2537  1.9248
 6565TIP3   OH219627   3.869   1.143   6.804 -0.0514  0.4635 -0.1026
 6565TIP3    H119628   3.869   1.232   6.770 -0.9731  0.2371 -0.7217
 6565TIP3    H219629   3.941   1.100   6.759  0.3311  0.8643  0.1234
 6566TIP3   OH219630   2.352   1.861   5.861  0.3084 -0.5062 -0.2289
 6566TIP3    H119631   2.298   1.895   5.790 -0.4505 -2.0030 -0.3863
 6566TIP3    H219632   2.436   1.842   5.820  0.5498  0.6095 -0.2649
 6567TIP3   OH219633   2.858   3.447   6.148  0.2962 -0.1628  0.1092
 6567TIP3    H119634   2.895   3.416   6.065 -0.1354  0.9128 -0.5036
 6567TIP3    H219635   2.912   3.406   6.216  0.3340 -1.4556 -0.6932
 6568TIP3   OH219636   3.063   3.979   4.951  0.9604 -0.0854  0.2511
 6568TIP3    H119637   3.000   4.050   4.941  0.7123 -0.7992 -3.7756
 6568TIP3    H219638   3.145   4.024   4.975  0.2190  1.3213  0.2115
 6569TIP3   OH219639   2.808   2.534   6.509  0.1294 -0.1404 -0.9269
 6569TIP3    H119640   2.777   2.564   6.594  0.4245 -0.3723 -0.7350
 6569TIP3    H219641   2.733   2.544   6.451  0.1004  0.5523 -0.7683
 6570TIP3   OH219642   1.330   3.377   4.773 -0.6261  0.2425  0.1002
 6570TIP3    H119643   1.270   3.309   4.803 -0.9737  0.4372 -0.1577
 6570TIP3    H219644   1.275   3.454   4.762 -0.3086  0.4488 -0.0404
 6571TIP3   OH219645   2.220   2.672   6.466 -0.2120 -0.4566 -0.7866
 6571TIP3    H119646   2.194   2.731   6.536 -0.2386 -1.8108  0.3579
 6571TIP3    H219647   2.292   2.717   6.422  1.1424 -0.4380  1.3535
 6572TIP3   OH219648   4.663   1.302   5.754  0.1390  0.4078 -0.0072
 6572TIP3    H119649   4.662   1.375   5.815 -0.7471 -1.6105  2.4629
 6572TIP3    H219650   4.644   1.342   5.669 -2.6762  2.7411  1.6189
 6573TIP3   OH219651   3.535   3.485   4.615 -0.3610  0.2450 -0.0459
 6573TIP3    H119652   3.516   3.514   4.704  0.2907  2.7229 -0.6847
 6573TIP3    H219653   3.629   3.462   4.617 -0.3736  0.1891 -0.0787
 6574TIP3   OH219654   5.347   2.872   3.193 -0.3575  0.6167 -0.0877
 6574TIP3    H119655   5.371   2.843   3.281 -1.8693  1.4144  0.6030
 6574TIP3    H219656   5.253   2.885   3.197 -0.3681  1.1402 -1.6941
 6575TIP3   OH219657   3.570   3.646   6.459  0.1338  0.5953  0.2807
 6575TIP3    H119658   3.627   3.628   6.384 -0.6133  0.2009 -0.2044
 6575TIP3    H219659   3.607   3.595   6.531  0.4990  0.4789  0.0110
 6576TIP3   OH219660   6.365   3.429   3.711  0.4749 -0.6988 -0.1288
 6576TIP3    H119661   6.400   3.346   3.743  0.1630 -0.2562  1.3790
 6576TIP3    H219662   6.289   3.446   3.766  1.4434  1.3729  0.6543
 6577TIP3   OH219663   4.032   2.658   6.543  0.1076 -0.3618 -0.1628
 6577TIP3    H119664   4.031   2.642   6.449 -0.4739  2.0858 -0.6202
 6577TIP3    H219665   4.124   2.680   6.562 -0.2376  1.5336 -0.6214
 6578TIP3   OH219666   5.456   2.150   3.893  0.1086  0.0482 -0.0244
 6578TIP3    H119667   5.535   2.097   3.882  0.2898  0.0569  1.1826
 6578TIP3    H219668   5.390   2.088   3.925  0.0097  0.3200  0.2984
 6579TIP3   OH219669   4.579   1.663   5.626  0.1165  0.5045 -0.1949
 6579TIP3    H119670   4.558   1.754   5.649  0.8612  0.0479  2.4425
 6579TIP3    H219671   4.495   1.618   5.628 -0.0871  0.8781 -0.2216
 6580TIP3   OH219672   5.555   2.993   5.962 -0.2776 -0.1482  1.4096
 6580TIP3    H119673   5.620   2.931   5.928  0.2775  1.0854  0.1668
 6580TIP3    H219674   5.472   2.947   5.955 -0.4242  0.6162 -3.2704
 6581TIP3   OH219675   5.508   1.336   5.317 -0.2813  0.3580  0.2515
 6581TIP3    H119676   5.572   1.285   5.367 -0.7232  0.1878  0.6491
 6581TIP3    H219677   5.501   1.291   5.233 -0.1771  0.1535  0.3529
 6582TIP3   OH219678   7.163   2.593   3.681  0.7789 -0.0250  0.7816
 6582TIP3    H119679   7.076   2.557   3.664  0.3246  1.2092  0.3644
 6582TIP3    H219680   7.221   2.544   3.624  0.1033  0.2112 -0.1271
 6583TIP3   OH219681   4.382   2.439   5.639 -0.0442 -0.1448  0.0151
 6583TIP3    H119682   4.438   2.408   5.710  1.2551 -1.7687 -1.6497
 6583TIP3    H219683   4.365   2.361   5.586  0.1040  1.2409 -2.1614
 6584TIP3   OH219684   5.284   1.636   5.167 -0.0718  0.9310  0.4785
 6584TIP3    H119685   5.271   1.541   5.172  1.5695  0.6794  0.2393
 6584TIP3    H219686   5.326   1.651   5.083  2.3445  1.5176  1.7307
 6585TIP3   OH219687   5.216   2.885   3.626  0.4702  0.1812  0.1714
 6585TIP3    H119688   5.201   2.791   3.638 -0.3079  0.3504  0.5757
 6585TIP3    H219689   5.305   2.899   3.659  0.5948 -0.4143  0.0999
 6586TIP3   OH219690   4.342   2.403   6.557  0.6447 -0.1706  0.0279
 6586TIP3    H119691   4.340   2.492   6.594  1.3492  0.1300 -0.6553
 6586TIP3    H219692   4.344   2.417   6.463  1.9294 -0.8937 -0.0613
 6587TIP3   OH219693   4.421   2.761   3.544 -0.4785 -0.2200  0.0214
 6587TIP3    H119694   4.411   2.666   3.545  1.1353 -0.4104  0.0169
 6587TIP3    H219695   4.366   2.792   3.617 -1.4268 -1.0952 -0.3069
 6588TIP3   OH219696   5.838   1.731   4.757 -0.3565 -0.1297 -0.5402
 6588TIP3    H119697   5.787   1.669   4.705 -0.4042 -0.5189 -0.0295
 6588TIP3    H219698   5.786   1.745   4.836  0.8166 -1.3630  0.4845
 6589TIP3   OH219699   3.765   0.964   2.559 -0.1168 -0.0557 -0.2113
 6589TIP3    H119700   3.798   1.037   2.611 -0.4656  0.0471 -0.1317
 6589TIP3    H219701   3.673   0.957   2.583  0.2714 -1.5389  0.9563
 6590TIP3   OH219702   5.482   1.208   4.422 -0.4842 -0.5291 -0.1156
 6590TIP3    H119703   5.533   1.259   4.359  0.3949  1.3385  2.0502
 6590TIP3    H219704   5.520   1.120   4.416  0.7698  0.0412 -0.9216
 6591TIP3   OH219705   3.288   2.282   5.131 -0.1286 -0.0348 -0.8099
 6591TIP3    H119706   3.263   2.325   5.213  1.4758 -1.2634  0.3651
 6591TIP3    H219707   3.382   2.299   5.122  0.0482 -1.2757 -1.5306
 6592TIP3   OH219708   4.466   1.372   5.140 -0.2249 -0.0706 -0.1534
 6592TIP3    H119709   4.449   1.351   5.232  2.0277  1.8255  0.7341
 6592TIP3    H219710   4.548   1.327   5.120 -0.7847 -0.6054 -1.3009
 6593TIP3   OH219711   4.222   3.577   4.528  0.2575  0.1816 -0.1307
 6593TIP3    H119712   4.200   3.583   4.435  1.5793 -0.8460 -0.5342
 6593TIP3    H219713   4.316   3.593   4.531 -0.1484  2.4924  1.3169
 6594TIP3   OH219714   5.182   3.147   4.112 -0.3069 -0.3534 -0.6859
 6594TIP3    H119715   5.192   3.058   4.078  0.7619  0.6458 -3.0481
 6594TIP3    H219716   5.154   3.199   4.037  1.8587  1.8519 -0.0313
 6595TIP3   OH219717   2.995   3.141   4.186 -0.1664 -0.3140 -0.0106
 6595TIP3    H119718   3.015   3.073   4.251  2.5981  0.7815  0.3626
 6595TIP3    H219719   2.936   3.201   4.231 -0.3151 -0.9415  0.6446
 6596TIP3   OH219720   6.503   4.269   5.810  0.4466  0.1147  0.0654
 6596TIP3    H119721   6.426   4.217   5.831 -0.2067  1.4568  1.0651
 6596TIP3    H219722   6.577   4.221   5.849 -0.1753  0.0843  1.2219
 6597TIP3   OH219723   5.000   2.940   4.374  0.1538 -0.0373  0.4083
 6597TIP3    H119724   5.079   2.915   4.422  0.5521 -1.4059 -0.9169
 6597TIP3    H219725   4.991   3.034   4.389  2.6895  0.3614 -0.3525
 6598TIP3   OH219726   2.204   7.403   4.910 -0.2620 -0.1272  0.0884
 6598TIP3    H119727   2.223   7.496   4.907 -0.9900  0.0700  1.0676
 6598TIP3    H219728   2.108   7.398   4.906 -0.2260 -0.8271 -0.0451
 6599TIP3   OH219729   4.149   1.330   3.693 -0.2513 -0.7497  0.4066
 6599TIP3    H119730   4.104   1.258   3.737 -2.1781 -0.5629 -1.1674
 6599TIP3    H219731   4.081   1.396   3.681  0.8717  0.2483 -0.5087
 6600TIP3   OH219732   6.026   3.283   1.006  0.2811  0.0344  0.2349
 6600TIP3    H119733   5.935   3.288   1.034  0.3422 -1.1559  0.6869
 6600TIP3    H219734   6.021   3.263   0.913  0.0776  1.0313  0.0325
 6601TIP3   OH219735   4.942   3.439   4.957  0.3016  0.6926  0.2629
 6601TIP3    H119736   4.902   3.378   4.896  0.6086  0.8577 -0.1135
 6601TIP3    H219737   5.018   3.392   4.992 -0.5186  0.1788  1.3880
 6602TIP3   OH219738   2.191   1.148   3.958 -0.1418  0.1502 -0.0581
 6602TIP3    H119739   2.136   1.128   3.883 -1.6810 -1.6338  1.4908
 6602TIP3    H219740   2.140   1.210   4.011  0.3372  0.3200  0.2132
 6603TIP3   OH219741   2.623   2.379   5.182  0.9899  0.4152 -0.2432
 6603TIP3    H119742   2.614   2.451   5.119  1.1144 -0.1044 -0.8680
 6603TIP3    H219743   2.632   2.422   5.267 -3.7419  1.0758  0.0696
 6604TIP3   OH219744   6.425   3.125   4.543  0.4412  0.4997  0.0907
 6604TIP3    H119745   6.494   3.089   4.599  0.8442  0.2788 -0.5398
 6604TIP3    H219746   6.358   3.156   4.604  1.9380  2.4721  0.7997
 6605TIP3   OH219747   3.978   1.294   4.712  0.4841  0.7154 -0.4579
 6605TIP3    H119748   3.925   1.219   4.683  1.6727  0.4008 -1.8525
 6605TIP3    H219749   4.020   1.326   4.632  0.5807  2.4139  0.2607
 6606TIP3   OH219750   4.592   2.082   5.711 -0.0689 -0.1393 -0.5938
 6606TIP3    H119751   4.670   2.063   5.764  0.7937  0.1026 -1.7415
 6606TIP3    H219752   4.527   2.018   5.740  0.2774  0.2178  0.9901
 6607TIP3   OH219753   6.449   3.948   2.708  0.2098  0.4975  0.7870
 6607TIP3    H119754   6.411   4.035   2.696 -1.7712 -0.2659  1.2530
 6607TIP3    H219755   6.431   3.927   2.800 -0.6095 -0.9807  0.2994
 6608TIP3   OH219756   5.163   2.150   4.958 -0.3151 -0.4208 -0.5052
 6608TIP3    H119757   5.184   2.183   4.870  1.1093 -2.0004 -0.7668
 6608TIP3    H219758   5.089   2.091   4.943 -0.6413 -0.0164 -0.5107
 6609TIP3   OH219759   2.352   3.403   6.262 -0.5370  0.3535 -0.4767
 6609TIP3    H119760   2.447   3.395   6.262 -0.5434 -0.2625  1.7937
 6609TIP3    H219761   2.332   3.458   6.186  1.6926  1.2348 -0.4704
 6610TIP3   OH219762   7.628   3.055   6.258  0.2465  0.5692 -0.0773
 6610TIP3    H119763   7.644   3.139   6.302  1.4349  0.5726 -0.4862
 6610TIP3    H219764   7.548   3.068   6.209  0.3540  1.4291 -0.0360
 6611TIP3   OH219765   4.873   2.807   5.584  0.5536 -0.1859 -0.2232
 6611TIP3    H119766   4.932   2.732   5.580  3.3516  1.9607 -0.3788
 6611TIP3    H219767   4.868   2.838   5.493  0.3355  0.5109  0.0254
 6612TIP3   OH219768   3.281   2.394   5.401  0.0206 -0.2199 -0.2663
 6612TIP3    H119769   3.221   2.353   5.463 -1.0576 -0.3342 -1.3683
 6612TIP3    H219770   3.320   2.467   5.450 -0.5694 -0.5035  0.6329
 6613TIP3   OH219771   5.568   0.920   5.359 -0.0196  0.2233 -0.6016
 6613TIP3    H119772   5.570   0.971   5.278  0.9605  1.1717  0.0135
 6613TIP3    H219773   5.572   0.829   5.329 -0.2703  0.5397 -1.6451
 6614TIP3   OH219774   5.481   3.240   3.632  0.2906 -0.5493 -0.3567
 6614TIP3    H119775   5.546   3.240   3.703 -2.3423 -3.2566  2.2298
 6614TIP3    H219776   5.414   3.302   3.661  0.2229 -0.0380 -1.5642
 6615TIP3   OH219777   3.245   2.708   5.223  0.2730  0.1615 -0.1602
 6615TIP3    H119778   3.270   2.788   5.177  1.1988 -0.1925 -0.2799
 6615TIP3    H219779   3.326   2.658   5.231 -0.0606 -0.2179  0.9971
 6616TIP3   OH219780   1.825   7.709   1.876 -0.4668 -0.3361  0.4554
 6616TIP3    H119781   1.865   7.662   1.803 -1.2975  0.7485 -0.7309
 6616TIP3    H219782   1.857   7.665   1.954  2.2049 -0.1329 -0.4899
 6617TIP3   OH219783   4.982   1.332   4.414 -0.2593 -0.1597  0.0940
 6617TIP3    H119784   4.990   1.386   4.493 -0.5237 -0.2340  0.1708
 6617TIP3    H219785   5.069   1.295   4.401  0.6287  2.3268 -1.4097
 6618TIP3   OH219786   6.745   3.728   4.417  0.2457 -0.0922 -0.3180
 6618TIP3    H119787   6.806   3.801   4.428  1.4565 -1.3551  1.4416
 6618TIP3    H219788   6.752   3.706   4.324  0.3631  1.5797 -0.7323
 6619TIP3   OH219789   6.764   4.808   0.308 -0.3435  0.5916 -0.5762
 6619TIP3    H119790   6.789   4.876   0.247  1.1618 -0.8738 -1.6534
 6619TIP3    H219791   6.848   4.774   0.341 -1.0813 -0.3390  0.3827
 6620TIP3   OH219792   4.642   1.264   3.392  0.2931  0.3980  0.1038
 6620TIP3    H119793   4.620   1.347   3.433 -0.4316 -1.4055  3.5976
 6620TIP3    H219794   4.731   1.245   3.423  0.5990  0.0637 -0.9737
 6621TIP3   OH219795   3.666   3.874   6.204 -0.1478 -1.2804  0.7070
 6621TIP3    H119796   3.681   3.782   6.223 -0.7120 -1.1346  1.9191
 6621TIP3    H219797   3.754   3.910   6.188  0.2554 -1.6416  2.0524
 6622TIP3   OH219798   2.838   2.086   4.641  0.4855 -0.1790 -0.1395
 6622TIP3    H119799   2.862   2.114   4.729  0.7846 -0.1401 -0.2355
 6622TIP3    H219800   2.911   2.112   4.586 -0.1743  0.7742 -0.5835
 6623TIP3   OH219801   5.142   2.202   4.297 -0.1627 -0.8483 -0.3581
 6623TIP3    H119802   5.196   2.277   4.321 -2.0637  0.1573  0.8910
 6623TIP3    H219803   5.136   2.151   4.378 -0.5497 -1.2956 -0.6683
 6624TIP3   OH219804   4.127   4.113   5.457 -0.1466 -0.7893  0.3577
 6624TIP3    H119805   4.059   4.051   5.431  0.2884 -1.6708  1.2606
 6624TIP3    H219806   4.145   4.165   5.379 -1.5221 -0.8683 -0.0121
 6625TIP3   OH219807   5.104   5.155   3.019 -0.0529  0.3708  0.5180
 6625TIP3    H119808   5.038   5.092   3.048  0.2115  0.3767  1.1255
 6625TIP3    H219809   5.155   5.107   2.953 -0.6600  0.3688  0.0387
 6626TIP3   OH219810   5.632   2.835   4.546  0.4347 -0.3142  0.0862
 6626TIP3    H119811   5.545   2.839   4.506  1.1912 -1.5685 -1.7579
 6626TIP3    H219812   5.671   2.754   4.511  1.6651 -0.7143  2.2906
 6627TIP3   OH219813   4.721   1.626   4.529  0.0293 -0.0381 -0.1753
 6627TIP3    H119814   4.760   1.707   4.563  0.1782 -0.0403 -0.3383
 6627TIP3    H219815   4.759   1.616   4.442 -0.7592  0.2564 -0.5599
 6628TIP3   OH219816   5.018   3.000   5.943  0.0895 -0.2871 -0.1016
 6628TIP3    H119817   4.933   3.013   5.984  0.6887  3.2494  0.1678
 6628TIP3    H219818   5.011   3.045   5.859  1.6752 -0.0815 -0.1369
 6629TIP3   OH219819   2.849   0.469   6.642  0.1965  0.7440 -0.0621
 6629TIP3    H119820   2.805   0.523   6.708 -0.3022  0.3518 -0.0717
 6629TIP3    H219821   2.817   0.503   6.559 -0.2307  0.3457 -0.0650
 6630TIP3   OH219822   4.362   0.076   6.559 -0.3273 -0.3979 -0.0890
 6630TIP3    H119823   4.450   0.055   6.528 -0.6965 -2.3024  0.0903
 6630TIP3    H219824   4.314   0.104   6.481  0.4507  0.7499 -0.1663
 6631TIP3   OH219825   3.509   2.260   5.332  0.1395 -0.7249  0.2579
 6631TIP3    H119826   3.582   2.321   5.323  1.7148 -2.7054 -0.8270
 6631TIP3    H219827   3.437   2.313   5.366  1.6414  1.5827 -0.0780
 6632TIP3   OH219828   4.118   0.769   2.955 -0.3715  0.5958  0.2747
 6632TIP3    H119829   4.158   0.811   3.032  0.4300 -0.6669  0.5595
 6632TIP3    H219830   4.125   0.675   2.973 -0.6236  0.3071 -1.1254
 6633TIP3   OH219831   3.673   4.107   3.734 -0.0888 -0.2019  0.1481
 6633TIP3    H119832   3.759   4.120   3.775 -0.0554 -0.7941  0.2732
 6633TIP3    H219833   3.641   4.025   3.772 -1.5392  0.9860  1.5403
 6634TIP3   OH219834   5.264   0.992   2.607  0.1805 -0.4454 -0.0643
 6634TIP3    H119835   5.287   0.967   2.696 -0.3354 -0.6253  0.0136
 6634TIP3    H219836   5.347   1.024   2.570  0.5072 -0.8584  0.3073
 6635TIP3   OH219837   7.916   1.118   2.442 -0.4595  0.0852  0.0593
 6635TIP3    H119838   7.914   1.141   2.349 -1.7390 -1.9253 -0.4244
 6635TIP3    H219839   8.001   1.076   2.454  0.5938  2.1980  0.2855
 6636TIP3   OH219840   5.102   1.008   5.245 -0.3113  0.5207 -0.4909
 6636TIP3    H119841   5.168   1.046   5.303  0.0470 -0.2798 -0.3757
 6636TIP3    H219842   5.036   1.077   5.236 -0.5718  0.5096  1.1871
 6637TIP3   OH219843   4.031   0.674   4.977  0.5032  0.3595  0.1556
 6637TIP3    H119844   4.090   0.686   5.051  1.1119  1.9265 -0.5777
 6637TIP3    H219845   3.981   0.595   5.000  2.8428 -0.9939  0.7862
 6638TIP3   OH219846   3.892   0.875   4.213 -0.5500  0.2119  0.2834
 6638TIP3    H119847   3.967   0.839   4.261 -0.0316  0.4187 -0.3530
 6638TIP3    H219848   3.920   0.873   4.121 -0.5137  2.1836  0.2207
 6639TIP3   OH219849   1.773   6.830   4.058 -0.1279 -0.1301  0.8579
 6639TIP3    H119850   1.765   6.737   4.037 -0.1730 -0.1306  0.8765
 6639TIP3    H219851   1.855   6.857   4.017  0.9119 -0.6355  2.5727
 6640TIP3   OH219852   4.908   1.375   5.310 -0.0316 -0.3199 -0.0662
 6640TIP3    H119853   4.953   1.349   5.390 -1.2816 -2.1173  0.0846
 6640TIP3    H219854   4.919   1.470   5.306 -1.2148  0.0033  3.0299
 6641TIP3   OH219855   3.217   2.067   4.976 -0.1863 -0.0077 -0.3825
 6641TIP3    H119856   3.240   2.151   5.015  1.0513 -0.6154  0.2373
 6641TIP3    H219857   3.150   2.031   5.034  0.6432 -0.2863  0.4065
 6642TIP3   OH219858   3.710   2.487   5.258 -0.1213 -0.1444  0.1330
 6642TIP3    H119859   3.801   2.476   5.283 -0.2500  0.9936  1.1285
 6642TIP3    H219860   3.711   2.487   5.162  0.7750 -1.2498  0.1381
 6643TIP3   OH219861   5.237   0.809   5.099 -0.3476 -0.1859 -0.3535
 6643TIP3    H119862   5.207   0.889   5.143  0.7121 -0.3286  0.6396
 6643TIP3    H219863   5.328   0.799   5.126  0.3034 -0.3409 -2.4986
 6644TIP3   OH219864   6.424   2.422   4.838  0.3570  0.1664 -0.2504
 6644TIP3    H119865   6.465   2.344   4.876  0.4223  0.1997 -0.2523
 6644TIP3    H219866   6.453   2.494   4.893 -0.7988  0.0201  0.5789
 6645TIP3   OH219867   1.806   0.589   3.936  0.2545  0.1144 -0.3684
 6645TIP3    H119868   1.851   0.672   3.954  0.8696 -0.1127 -0.8544
 6645TIP3    H219869   1.869   0.537   3.887 -1.0870  0.4070 -2.4568
 6646TIP3   OH219870   3.311   2.680   6.360  0.4166 -0.1110 -0.1801
 6646TIP3    H119871   3.393   2.641   6.331  0.6499 -0.5355  1.0149
 6646TIP3    H219872   3.249   2.662   6.289  1.1966 -0.3073 -0.8204
 6647TIP3   OH219873   2.593   2.123   5.081 -0.1796  0.0882  0.3207
 6647TIP3    H119874   2.589   2.218   5.092 -0.1826  0.0078  1.0854
 6647TIP3    H219875   2.621   2.091   5.167  2.0637 -0.4449 -0.5841
 6648TIP3   OH219876   5.754   2.930   4.828 -0.5781  0.4288  0.4990
 6648TIP3    H119877   5.719   3.009   4.788  1.4903  0.8295 -0.5390
 6648TIP3    H219878   5.834   2.958   4.873  0.1615 -1.0604  0.1537
 6649TIP3   OH219879   2.726   4.086   5.912  0.7760  0.4950  0.0239
 6649TIP3    H119880   2.664   4.051   5.976  2.2699 -0.5294  0.9479
 6649TIP3    H219881   2.791   4.133   5.964  1.1708  0.9780 -0.8786
 6650TIP3   OH219882   6.511   1.683   5.275  0.0579 -0.2274  0.2350
 6650TIP3    H119883   6.494   1.643   5.190  1.1467  0.5319 -0.3527
 6650TIP3    H219884   6.576   1.626   5.317  0.1773 -0.1232  0.1919
 6651TIP3   OH219885   5.162   3.555   3.271  0.2839 -0.6553  0.2409
 6651TIP3    H119886   5.233   3.580   3.213  0.1777  0.1390  0.4440
 6651TIP3    H219887   5.083   3.568   3.219  0.0782  1.6055  1.0577
 6652TIP3   OH219888   5.000   1.519   5.933 -0.4610 -0.9377 -0.3098
 6652TIP3    H119889   5.038   1.448   5.984  0.1758 -0.2202  0.2170
 6652TIP3    H219890   5.055   1.525   5.854 -0.4043 -0.9165 -0.2689
 6653TIP3   OH219891   5.914   3.853   3.925  0.4572  0.5003 -0.2765
 6653TIP3    H119892   5.939   3.763   3.904  1.2613  0.9959 -1.4997
 6653TIP3    H219893   5.930   3.902   3.844 -1.5323  1.4357 -0.1264
 6654TIP3   OH219894   5.733   2.336   4.426  0.1205 -0.3849 -0.2338
 6654TIP3    H119895   5.790   2.314   4.500  0.8881 -0.2017 -0.7745
 6654TIP3    H219896   5.792   2.347   4.352 -0.7599 -1.8561 -1.1729
 6655TIP3   OH219897   5.206   1.440   1.898  0.2205 -0.4644  0.1646
 6655TIP3    H119898   5.186   1.488   1.818 -1.1117 -0.5817  0.4093
 6655TIP3    H219899   5.194   1.348   1.874 -1.6651 -0.4265  0.8777
 6656TIP3   OH219900   3.825   1.901   5.879  0.5382  0.0696  0.4332
 6656TIP3    H119901   3.863   1.955   5.810 -0.2699  0.6749  0.4573
 6656TIP3    H219902   3.787   1.964   5.941 -0.7834 -0.5113  0.2465
 6657TIP3   OH219903   6.173   2.870   2.595 -0.1723  0.0814 -0.3547
 6657TIP3    H119904   6.158   2.957   2.633  0.2002 -0.6300  1.5186
 6657TIP3    H219905   6.100   2.857   2.535 -2.9143 -0.1973  2.8963
 6658TIP3   OH219906   3.005   3.185   5.694 -0.0831  0.0592 -0.0799
 6658TIP3    H119907   3.042   3.229   5.770  0.7013 -0.7095 -0.0098
 6658TIP3    H219908   3.031   3.093   5.703  0.6115  0.0729 -1.6049
 6659TIP3   OH219909   4.576   5.085   4.013  0.0893 -0.2223 -0.0620
 6659TIP3    H119910   4.617   5.076   3.927 -1.8841  0.1772 -1.0676
 6659TIP3    H219911   4.565   5.179   4.025  0.9555 -0.2277  0.9504
 6660TIP3   OH219912   6.279   4.211   0.719  0.1192 -0.0655 -0.0536
 6660TIP3    H119913   6.260   4.292   0.767 -0.3872 -0.0603 -0.2704
 6660TIP3    H219914   6.194   4.173   0.700  0.3507 -0.5531 -0.1263
 6661TIP3   OH219915   3.534   0.057   6.530  0.2908 -0.0870  0.4315
 6661TIP3    H119916   3.467   0.115   6.565 -0.6405 -0.8946 -0.0076
 6661TIP3    H219917   3.617   0.095   6.561 -0.4757 -0.5866  3.2238
 6662TIP3   OH219918   5.592   3.508   5.516  0.1516 -0.6324  0.3309
 6662TIP3    H119919   5.566   3.598   5.536  1.6141 -0.6676  2.5166
 6662TIP3    H219920   5.672   3.494   5.566  1.2936 -2.3730 -1.8728
 6663TIP3   OH219921   4.586   2.594   1.481 -0.0056 -0.5371 -0.0049
 6663TIP3    H119922   4.600   2.554   1.567  0.9275  0.6031  0.3798
 6663TIP3    H219923   4.502   2.639   1.488  0.9239  1.1065  0.9179
 6664TIP3   OH219924   8.007   1.679   6.238  0.3148 -0.0294 -0.5295
 6664TIP3    H119925   8.070   1.696   6.308  0.2724 -1.1392 -0.2200
 6664TIP3    H219926   7.965   1.597   6.262 -1.8487  1.0995 -0.3325
 6665TIP3   OH219927   3.901   1.114   2.789 -0.3059  0.6547  0.3829
 6665TIP3    H119928   3.911   1.159   2.705  0.0668 -0.4197 -0.1504
 6665TIP3    H219929   3.956   1.164   2.849 -0.6987  1.5227  0.0393
 6666TIP3   OH219930   2.985   0.277   4.945  0.0271  0.0138  0.2744
 6666TIP3    H119931   2.912   0.236   4.899 -0.3177  0.0210  0.8001
 6666TIP3    H219932   2.965   0.371   4.943  0.3349  0.0724 -0.1119
 6667TIP3   OH219933   2.876   1.657   5.001 -0.2809  0.1169  0.0566
 6667TIP3    H119934   2.855   1.751   5.002 -0.6952  0.0499 -1.7007
 6667TIP3    H219935   2.886   1.634   5.094  0.7675  2.0999  0.4683
 6668TIP3   OH219936   4.210   1.066   3.417  0.1477 -0.4472  0.0832
 6668TIP3    H119937   4.187   1.159   3.418 -1.4975 -0.7874 -1.8715
 6668TIP3    H219938   4.304   1.064   3.436  0.1865  1.6084  0.2061
 6669TIP3   OH219939   3.389   1.807   4.547 -0.3788 -0.1668 -0.0849
 6669TIP3    H119940   3.450   1.813   4.621  0.3905 -1.3831 -0.6223
 6669TIP3    H219941   3.308   1.775   4.587 -0.0817 -0.4465  0.3056
 6670TIP3   OH219942   4.291   4.421   4.784  0.3064  0.9179 -0.3196
 6670TIP3    H119943   4.247   4.505   4.769  1.7776  1.9188  0.8690
 6670TIP3    H219944   4.334   4.431   4.869  2.5703 -0.1467 -1.3086
 6671TIP3   OH219945   5.795   3.713   4.295  0.2229  0.3533  0.0951
 6671TIP3    H119946   5.849   3.738   4.220  0.6404  1.2130  0.6721
 6671TIP3    H219947   5.741   3.791   4.313  0.4639  0.3298  0.9723
 6672TIP3   OH219948   4.545   3.860   3.801  0.3480  0.3663 -0.0352
 6672TIP3    H119949   4.461   3.895   3.831  1.1251  1.7542  0.5416
 6672TIP3    H219950   4.524   3.814   3.719 -1.2930 -0.9899  1.1111
 6673TIP3   OH219951   4.728   3.540   3.709 -0.7437  0.0506 -0.3269
 6673TIP3    H119952   4.769   3.626   3.702  2.2138 -1.3076 -0.9523
 6673TIP3    H219953   4.724   3.523   3.803  1.0759 -0.1550 -0.2602
 6674TIP3   OH219954   4.474   3.037   5.343  0.1485  0.4712  0.5044
 6674TIP3    H119955   4.530   3.114   5.352  1.4468 -0.5466  1.2414
 6674TIP3    H219956   4.535   2.964   5.334 -1.0747 -0.5282  0.2174
 6675TIP3   OH219957   5.397   2.920   4.792 -0.4715 -0.4119 -0.1449
 6675TIP3    H119958   5.482   2.933   4.750 -0.5679 -0.2592 -0.3004
 6675TIP3    H219959   5.382   2.826   4.789 -0.4786 -0.4031 -0.4658
 6676TIP3   OH219960   5.185   2.514   6.199 -0.6620 -0.1882 -0.9300
 6676TIP3    H119961   5.120   2.521   6.269  0.0242 -1.5705 -0.1302
 6676TIP3    H219962   5.185   2.422   6.174  0.2317 -0.0053 -1.6585
 6677TIP3   OH219963   4.851   3.046   3.749 -0.1657  0.1973 -0.0468
 6677TIP3    H119964   4.864   3.042   3.844  0.4114 -1.0701 -0.1688
 6677TIP3    H219965   4.819   3.135   3.733  0.3332  0.6273  1.2593
 6678TIP3   OH219966   5.173   1.475   5.692 -0.2319 -0.1575 -0.1047
 6678TIP3    H119967   5.212   1.406   5.745 -1.3988  0.2041  1.2623
 6678TIP3    H219968   5.240   1.497   5.628  0.5392 -1.8241  0.1177
 6679TIP3   OH219969   0.534   7.898   1.689 -0.1014 -0.1749 -0.8862
 6679TIP3    H119970   0.557   7.812   1.723 -1.0024  0.7552  2.1854
 6679TIP3    H219971   0.508   7.882   1.598 -1.3271 -3.2856 -0.0376
 6680TIP3   OH219972   4.381   0.950   3.757  0.7525  0.3230 -0.0134
 6680TIP3    H119973   4.463   0.903   3.775 -0.0611 -1.5871 -1.2796
 6680TIP3    H219974   4.393   0.986   3.669  0.4470  0.5741  0.0471
 6681TIP3   OH219975   2.604   2.528   5.690  0.0419  0.0386 -0.2019
 6681TIP3    H119976   2.568   2.565   5.610 -0.3434 -0.9232 -0.4821
 6681TIP3    H219977   2.693   2.561   5.694 -0.2443  0.8521 -0.5326
 6682TIP3   OH219978   5.740   0.533   2.111 -0.1016 -0.4408 -0.0116
 6682TIP3    H119979   5.780   0.470   2.171  0.6588  0.4437  0.4267
 6682TIP3    H219980   5.793   0.528   2.031 -0.8111 -1.2576 -0.4431
 6683TIP3   OH219981   5.735   2.321   3.659  0.2834  0.1402  0.8264
 6683TIP3    H119982   5.763   2.364   3.739 -0.8605 -0.2633  1.4456
 6683TIP3    H219983   5.814   2.280   3.625  1.1290  1.7154  0.8563
 6684TIP3   OH219984   3.435   3.536   4.889 -0.0383  0.7513  0.0906
 6684TIP3    H119985   3.527   3.535   4.913 -0.5190 -1.4384  2.0002
 6684TIP3    H219986   3.394   3.593   4.954 -0.3831 -0.2450  0.7634
 6685TIP3   OH219987   6.229   3.370   4.266 -0.7157 -0.5874  0.3647
 6685TIP3    H119988   6.262   3.292   4.312  1.5915 -0.0995 -0.3845
 6685TIP3    H219989   6.277   3.443   4.306 -0.0027  0.0222 -1.5444
 6686TIP3   OH219990   6.621   6.902   0.252  0.5448 -0.1292 -0.0639
 6686TIP3    H119991   6.549   6.962   0.238  0.8950 -0.1147 -1.9343
 6686TIP3    H219992   6.697   6.959   0.265  0.5034 -0.1514  0.2677
 6687TIP3   OH219993   4.515   1.048   5.254 -0.4807  0.2404 -0.3087
 6687TIP3    H119994   4.537   1.018   5.342 -1.0720 -0.7211 -0.4820
 6687TIP3    H219995   4.589   1.103   5.228 -1.1828  2.1115  1.5382
 6688TIP3   OH219996   3.057   3.589   3.768 -0.4646 -0.2142 -0.7741
 6688TIP3    H119997   3.056   3.502   3.807 -0.4475  0.1384  0.0210
 6688TIP3    H219998   3.040   3.574   3.675  0.6637 -1.1651 -0.8423
 6689TIP3   OH219999   4.767   0.616   3.924 -0.1500  0.4045  0.2704
 6689TIP3    H120000   4.680   0.600   3.959 -1.1637 -2.8492 -3.3402
 6689TIP3    H220001   4.772   0.711   3.914 -2.7442  0.7440  1.7770
 6690TIP3   OH220002   5.247   3.990   5.922  0.8786  0.2483  0.2089
 6690TIP3    H120003   5.247   3.898   5.894  0.0520 -0.1253  1.4166
 6690TIP3    H220004   5.155   4.014   5.925  1.0150  0.6169  1.5004
 6691TIP3   OH220005   5.286   1.566   3.465  0.1699  0.2935 -0.3173
 6691TIP3    H120006   5.216   1.510   3.431 -1.4156 -0.2606  3.5955
 6691TIP3    H220007   5.278   1.647   3.415 -1.7395 -0.6333 -1.5912
 6692TIP3   OH220008   3.155   2.704   5.491  0.5753  0.2103 -0.0750
 6692TIP3    H120009   3.188   2.702   5.402 -1.2553 -1.9551 -0.7487
 6692TIP3    H220010   3.061   2.690   5.482  0.0872  1.7073  2.0971
 6693TIP3   OH220011   2.904   0.599   3.947  0.6780  0.3283 -0.0502
 6693TIP3    H120012   2.891   0.508   3.974  1.5222  0.0890 -0.4322
 6693TIP3    H220013   2.856   0.608   3.865  0.9225  0.1152 -0.2174
 6694TIP3   OH220014   5.909   4.101   5.209  0.4564 -0.1319  0.0323
 6694TIP3    H120015   5.977   4.045   5.248 -0.8454 -0.7852  1.4132
 6694TIP3    H220016   5.947   4.189   5.212  1.2018 -0.4677  0.9206
 6695TIP3   OH220017   3.591   1.262   4.166  0.5397 -0.1670 -0.1492
 6695TIP3    H120018   3.590   1.244   4.071  0.3368 -1.6790  0.1222
 6695TIP3    H220019   3.529   1.199   4.202  0.1906  0.7907  0.9413
 6696TIP3   OH220020   4.741   2.722   5.112  0.1315 -0.0337  0.2356
 6696TIP3    H120021   4.727   2.641   5.161  0.8497 -0.6200 -0.5089
 6696TIP3    H220022   4.798   2.696   5.039  0.5391  1.1864  0.1119
 6697TIP3   OH220023   2.576   3.941   6.519  0.3983  0.1266 -0.2871
 6697TIP3    H120024   2.624   3.986   6.449  2.3629 -0.5075  0.6388
 6697TIP3    H220025   2.490   3.984   6.519  1.0413  1.4972 -1.7505
 6698TIP3   OH220026   3.877   2.510   6.730  0.1455 -0.0704  0.1828
 6698TIP3    H120027   3.802   2.474   6.682  0.7730 -1.5444  0.2953
 6698TIP3    H220028   3.920   2.567   6.667 -0.4253 -0.0988 -0.2442
 6699TIP3   OH220029   6.326   4.348   3.536  0.3145 -0.6344  0.1180
 6699TIP3    H120030   6.368   4.273   3.494  1.5644 -1.0482  2.0527
 6699TIP3    H220031   6.233   4.327   3.537  0.5315 -1.6198 -0.3981
 6700TIP3   OH220032   4.775   3.023   6.090 -0.1589 -0.5005 -0.9068
 6700TIP3    H120033   4.729   2.943   6.115 -0.3550  0.1746  1.0451
 6700TIP3    H220034   4.710   3.073   6.040 -1.4932  0.2655  1.4876
 6701TIP3   OH220035   4.590   2.752   2.825  0.3237  0.1371  0.4350
 6701TIP3    H120036   4.632   2.676   2.865  2.0339  1.1436  0.5979
 6701TIP3    H220037   4.520   2.776   2.886  0.3192 -0.7747  0.7979
 6702TIP3   OH220038   4.397   2.870   6.263 -0.4174  0.2377 -0.0277
 6702TIP3    H120039   4.356   2.830   6.340 -1.4793  0.9707 -0.2042
 6702TIP3    H220040   4.415   2.960   6.289  2.4825 -0.4847  0.5579
 6703TIP3   OH220041   4.068   4.781   2.882 -0.1930 -0.3237  0.1586
 6703TIP3    H120042   4.144   4.833   2.858 -0.5367  0.3676  0.5373
 6703TIP3    H220043   4.057   4.718   2.810 -1.1830  1.6762 -1.4898
 6704TIP3   OH220044   5.949   6.090   0.222 -0.0904  0.1030 -0.1159
 6704TIP3    H120045   5.943   6.157   0.154  0.9069  1.3753  1.0200
 6704TIP3    H220046   5.863   6.048   0.222 -0.4438  0.8074 -1.4247
 6705TIP3   OH220047   4.837   2.899   3.510  0.4060  0.1302  0.4445
 6705TIP3    H120048   4.844   2.947   3.593 -0.5723  0.0061  0.6094
 6705TIP3    H220049   4.859   2.808   3.533  0.3547  0.1380  0.5244
 6706TIP3   OH220050   4.476   4.868   6.734  0.5190 -0.3927  0.3094
 6706TIP3    H120051   4.534   4.883   6.660  1.5034  0.6849  1.2738
 6706TIP3    H220052   4.478   4.950   6.784 -0.5382 -0.9151  1.2386
 6707TIP3   OH220053   3.644   2.389   6.935  0.3228 -0.3092 -0.3997
 6707TIP3    H120054   3.650   2.304   6.892 -1.2917 -0.6565  0.0300
 6707TIP3    H220055   3.563   2.428   6.901  0.7862  0.8399 -0.2210
 6708TIP3   OH220056   3.995   2.693   5.078 -0.1756 -0.0599  0.0159
 6708TIP3    H120057   3.987   2.788   5.069 -0.2502 -0.1127 -0.4833
 6708TIP3    H220058   4.045   2.680   5.159 -2.9339  0.3633  1.8675
 6709TIP3   OH220059   2.430   1.523   4.585 -0.1761  0.2281  0.3009
 6709TIP3    H120060   2.514   1.535   4.628 -0.5252  0.0342  1.0530
 6709TIP3    H220061   2.395   1.612   4.574  0.5555  0.3766 -0.9042
 6710TIP3   OH220062   1.861   2.792   4.923 -0.2278  0.4107 -1.1878
 6710TIP3    H120063   1.889   2.844   4.999 -1.0415 -1.3185  0.3155
 6710TIP3    H220064   1.775   2.758   4.948 -0.1071 -0.9042 -2.5443
 6711TIP3   OH220065   6.701   2.553   6.143 -0.0733 -0.0535  0.1059
 6711TIP3    H120066   6.733   2.513   6.224 -1.3202 -0.2294  0.5376
 6711TIP3    H220067   6.706   2.484   6.077 -0.6015 -0.4190  0.4406
 6712TIP3   OH220068   4.455   4.033   3.089 -0.1277  0.4352  0.1148
 6712TIP3    H120069   4.501   4.116   3.085 -1.4894  1.1772 -0.4089
 6712TIP3    H220070   4.434   4.021   3.182  1.2342  0.0085  0.3811
 6713TIP3   OH220071   5.952   2.978   5.010 -0.1462  0.1436 -0.2737
 6713TIP3    H120072   5.928   2.974   5.102 -2.9578  4.6247 -0.6839
 6713TIP3    H220073   6.036   3.023   5.008 -0.0283 -0.0608  0.0974
 6714TIP3   OH220074   4.904   2.709   4.258 -0.4445  0.1886  0.5958
 6714TIP3    H120075   4.942   2.797   4.252  0.3771 -0.1000  1.4701
 6714TIP3    H220076   4.874   2.702   4.348 -0.2636 -0.5350  0.6002
 6715TIP3   OH220077   4.213   3.200   4.094 -0.0285 -0.9667 -0.1965
 6715TIP3    H120078   4.145   3.186   4.160  2.2796 -1.7260  2.0818
 6715TIP3    H220079   4.216   3.295   4.082 -0.3605 -0.8159  0.8798
 6716TIP3   OH220080   4.097   0.972   6.696  0.0475 -0.3227 -0.6661
 6716TIP3    H120081   4.148   0.900   6.733  1.5676 -1.1624 -4.1645
 6716TIP3    H220082   4.152   1.049   6.708  0.9341 -0.7428 -1.8814
 6717TIP3   OH220083   6.479   3.413   6.658 -0.1137 -0.2160 -0.1523
 6717TIP3    H120084   6.548   3.357   6.693  0.6633  0.6356 -0.3112
 6717TIP3    H220085   6.405   3.400   6.718  0.1861 -1.1094  0.0304
 6718TIP3   OH220086   3.544   1.814   5.189  0.2839 -0.1445 -0.1504
 6718TIP3    H120087   3.593   1.832   5.109 -0.1325  0.5873 -0.2353
 6718TIP3    H220088   3.510   1.725   5.176  1.6933 -0.7246 -0.0371
 6719TIP3   OH220089   4.706   0.656   4.708  0.3670 -0.3865  0.0281
 6719TIP3    H120090   4.766   0.690   4.641  0.3490  2.6701  1.4662
 6719TIP3    H220091   4.757   0.589   4.753  1.1886 -0.8394 -1.5447
 6720TIP3   OH220092   4.347   3.119   4.962  0.0026 -0.3802  0.2824
 6720TIP3    H120093   4.405   3.047   4.984  1.5744  1.0017  0.7988
 6720TIP3    H220094   4.344   3.173   5.041 -1.9507 -0.4022  0.2473
 6721TIP3   OH220095   5.529   2.496   4.719 -0.0431  0.3368  0.1850
 6721TIP3    H120096   5.520   2.406   4.749  1.4994  0.0213 -0.2461
 6721TIP3    H220097   5.481   2.499   4.636 -1.0610  0.2190  0.7637
 6722TIP3   OH220098   0.182   4.769   0.425 -0.5626 -0.4245 -0.1469
 6722TIP3    H120099   0.090   4.782   0.404 -0.5978 -1.9597 -0.9974
 6722TIP3    H220100   0.219   4.726   0.347  0.9512  0.4985  0.0341
 6723TIP3   OH220101   5.752   1.094   6.069 -0.0788  0.4653  0.2126
 6723TIP3    H120102   5.717   1.008   6.044 -0.4231  0.1975  1.5584
 6723TIP3    H220103   5.846   1.080   6.079 -0.0535  0.3849 -0.1441
 6724TIP3   OH220104   5.713   1.127   5.526 -0.0962 -0.2652  0.3804
 6724TIP3    H120105   5.675   1.071   5.458  2.2142 -0.9104 -0.4147
 6724TIP3    H220106   5.750   1.066   5.589  1.0742  0.3391  0.2967
 6725TIP3   OH220107   6.026   4.632   0.214  0.5587  0.0840 -0.1700
 6725TIP3    H120108   6.065   4.620   0.127  1.5078  0.0864  0.2606
 6725TIP3    H220109   6.030   4.545   0.255  0.2555  0.1200 -0.0587
 6726TIP3   OH220110   3.969   1.493   5.347 -0.0596  0.1126 -0.4236
 6726TIP3    H120111   3.895   1.531   5.393 -1.0159 -0.3404 -1.5558
 6726TIP3    H220112   4.019   1.568   5.315 -0.2261  0.4177  0.0338
 6727TIP3   OH220113   3.654   2.347   4.107  0.6052  0.0898  0.3283
 6727TIP3    H120114   3.653   2.443   4.099  1.3024 -0.0077 -1.0080
 6727TIP3    H220115   3.567   2.325   4.139  0.5055  1.1866  0.8711
 6728TIP3   OH220116   4.038   3.079   3.913 -0.1104  0.0662 -0.3869
 6728TIP3    H120117   4.060   3.127   3.834  1.4941  0.2675  0.1507
 6728TIP3    H220118   4.107   3.103   3.976 -0.5688 -1.1434  0.6176
 6729TIP3   OH220119   4.370   1.524   4.752  0.4193 -0.0300 -0.8850
 6729TIP3    H120120   4.321   1.479   4.821  0.0365  0.3699 -0.8977
 6729TIP3    H220121   4.422   1.589   4.799  0.0650  0.3263 -0.9842
 6730TIP3   OH220122   4.029   3.892   5.316  0.0126 -0.5276  0.1213
 6730TIP3    H120123   4.005   3.969   5.263  0.0782 -0.2875  0.4420
 6730TIP3    H220124   4.085   3.840   5.258 -0.7236 -0.7552 -0.3981
 6731TIP3   OH220125   5.811   3.187   6.764 -0.2774  0.2546  0.5844
 6731TIP3    H120126   5.754   3.252   6.723 -0.5053  0.4995  1.2854
 6731TIP3    H220127   5.777   3.177   6.853 -0.3007 -0.9006  0.4505
 6732TIP3   OH220128   5.612   4.510   6.382  0.5896 -0.0350  0.6974
 6732TIP3    H120129   5.642   4.527   6.471  2.2993  1.0879 -0.0725
 6732TIP3    H220130   5.529   4.557   6.375  0.3502 -0.2872  1.7483
 6733TIP3   OH220131   6.711   1.261   2.126  0.0170  0.0195 -0.7640
 6733TIP3    H120132   6.683   1.321   2.196 -0.2421 -2.5188  1.3797
 6733TIP3    H220133   6.722   1.317   2.049 -0.3850  2.7803  1.1266
 6734TIP3   OH220134   6.884   1.515   5.620  0.7962 -0.3415 -0.0537
 6734TIP3    H120135   6.916   1.488   5.534  0.8895  0.5896 -0.3192
 6734TIP3    H220136   6.832   1.594   5.602  1.5438  0.3713  0.8466
 6735TIP3   OH220137   4.640   2.723   5.719 -0.3138  0.2088  0.0040
 6735TIP3    H120138   4.716   2.776   5.694 -0.7767  1.0133  0.2853
 6735TIP3    H220139   4.648   2.644   5.667  0.4024  0.5440 -0.4064
 6736TIP3   OH220140   4.440   3.501   5.279 -0.4962  0.0830  0.7575
 6736TIP3    H120141   4.365   3.491   5.220  0.9329 -1.2040 -0.8849
 6736TIP3    H220142   4.499   3.561   5.233  1.4615 -2.3744 -0.0261
 6737TIP3   OH220143   6.028   0.018   3.320 -0.1967 -0.4598 -0.3727
 6737TIP3    H120144   6.083  -0.056   3.293  1.8116  1.0718 -0.5499
 6737TIP3    H220145   6.074   0.056   3.395 -1.5345  0.2549  0.1046
 6738TIP3   OH220146   6.235   3.649   5.385  0.0439 -0.8929  0.0240
 6738TIP3    H120147   6.254   3.669   5.477 -1.8322  1.5309 -0.0987
 6738TIP3    H220148   6.176   3.574   5.389 -2.1828  0.8593  0.9304
 6739TIP3   OH220149   5.544   2.206   4.702  0.1043 -0.3733 -0.4142
 6739TIP3    H120150   5.632   2.238   4.685  0.5970 -1.4498  0.0352
 6739TIP3    H220151   5.520   2.158   4.622 -0.5978  0.9976 -1.0519
 6740TIP3   OH220152   4.129   0.239   4.655 -0.3467  0.0376 -0.5531
 6740TIP3    H120153   4.039   0.237   4.622 -0.8665 -0.4399  0.8405
 6740TIP3    H220154   4.133   0.319   4.709  0.0320  0.0075 -0.5327
 6741TIP3   OH220155   3.527   2.823   5.230 -0.3585  0.3713  0.6019
 6741TIP3    H120156   3.605   2.770   5.244  0.1574  0.8058 -0.5770
 6741TIP3    H220157   3.514   2.870   5.313 -1.8494 -2.8742  2.3293
 6742TIP3   OH220158   6.430   1.923   6.262 -0.1326  0.0814 -0.0729
 6742TIP3    H120159   6.391   2.002   6.225 -0.3227  0.4223  0.8428
 6742TIP3    H220160   6.524   1.938   6.258 -0.2116  1.1280  1.7653
 6743TIP3   OH220161   4.714   0.267   4.551 -0.2665 -0.0243  0.4810
 6743TIP3    H120162   4.790   0.260   4.608  1.1513  0.7417 -1.2635
 6743TIP3    H220163   4.639   0.259   4.609  1.1500 -1.7824  2.1048
 6744TIP3   OH220164   4.104   0.825   3.483  0.2612  0.8210 -0.1147
 6744TIP3    H120165   4.096   0.816   3.578  0.1543  0.8562 -0.1197
 6744TIP3    H220166   4.148   0.909   3.470  1.3270  0.2692 -0.0670
 6745TIP3   OH220167   4.867   2.151   4.487 -0.2126 -0.2454 -0.4719
 6745TIP3    H120168   4.858   2.164   4.393  1.0894 -2.5923 -0.9710
 6745TIP3    H220169   4.787   2.189   4.525 -1.7197 -1.0676 -2.7187
 6746TIP3   OH220170   5.417   3.037   5.497 -0.1259  0.2471 -0.0351
 6746TIP3    H120171   5.506   3.049   5.529  0.0667 -0.5121 -0.2822
 6746TIP3    H220172   5.377   3.123   5.506  0.5816  0.5535  0.2312
 6747TIP3   OH220173   0.186   7.542   0.675 -0.7967 -0.8551  0.2356
 6747TIP3    H120174   0.251   7.485   0.715  0.8033  0.6648 -0.1090
 6747TIP3    H220175   0.180   7.617   0.733 -2.5777 -1.1583  0.4754
 6748TIP3   OH220176   5.640   1.129   6.523  0.3167  0.3180  0.3530
 6748TIP3    H120177   5.549   1.122   6.496  0.5203 -1.2383  0.0121
 6748TIP3    H220178   5.647   1.070   6.599  0.8686  0.9633  0.8054
 6749TIP3   OH220179   5.056   1.354   2.787 -0.3324 -0.4720 -0.0552
 6749TIP3    H120180   5.121   1.388   2.726  0.8695 -0.9483  0.9416
 6749TIP3    H220181   4.975   1.399   2.764  1.5099  4.4240  2.2667
 6750TIP3   OH220182   2.851   2.728   5.460 -0.3042 -0.1450 -0.8436
 6750TIP3    H120183   2.820   2.797   5.518 -0.1307 -1.0582  0.3640
 6750TIP3    H220184   2.771   2.685   5.430 -0.3394 -0.7183  0.0458
 6751TIP3   OH220185   2.738   2.234   5.735 -0.2001  0.0952  0.3996
 6751TIP3    H120186   2.656   2.192   5.763 -0.4531  0.6262  0.4681
 6751TIP3    H220187   2.719   2.327   5.741  0.6105  0.2239  1.0070
 6752TIP3   OH220188   7.691   3.721   5.429  0.3341  0.2889 -0.1282
 6752TIP3    H120189   7.678   3.636   5.472  0.3190  0.1309 -0.4513
 6752TIP3    H220190   7.631   3.720   5.355  0.3884  0.5545 -0.1750
 6753TIP3   OH220191   5.981   0.265   3.570 -0.3280  0.1715 -0.6215
 6753TIP3    H120192   6.055   0.208   3.549  0.0488  0.6232 -0.5288
 6753TIP3    H220193   5.907   0.206   3.582 -0.1745 -0.2170 -1.5819
 6754TIP3   OH220194   2.453   7.625   3.307 -0.0103 -0.7624  0.0557
 6754TIP3    H120195   2.484   7.638   3.397 -1.3321  0.5820  0.3225
 6754TIP3    H220196   2.531   7.639   3.254 -0.0486  2.3579  0.7508
 6755TIP3   OH220197   4.943   1.175   3.923 -0.9216 -0.2116 -0.1805
 6755TIP3    H120198   4.926   1.207   4.011 -1.2309 -2.8655  0.7552
 6755TIP3    H220199   5.039   1.179   3.914 -0.8397 -0.6334  0.5366
 6756TIP3   OH220200   1.505   1.712   5.329 -0.4938  0.7577 -0.7632
 6756TIP3    H120201   1.459   1.710   5.245 -1.3531  2.2584 -0.3518
 6756TIP3    H220202   1.565   1.787   5.321  0.3435  0.1209 -0.5075
 6757TIP3   OH220203   6.598   7.074   0.505 -0.1314  0.0712 -0.3047
 6757TIP3    H120204   6.609   7.110   0.593  2.4731 -3.0030  0.7160
 6757TIP3    H220205   6.658   7.126   0.451 -0.4928  0.8719  0.0553
 6758TIP3   OH220206   4.799   3.361   2.305 -0.2524  0.7827  0.2015
 6758TIP3    H120207   4.732   3.310   2.349 -0.4407 -1.2033 -2.2439
 6758TIP3    H220208   4.881   3.314   2.320 -0.2016  0.4927 -0.8892
 6759TIP3   OH220209   4.353   2.649   4.478  0.3924 -0.0503 -0.0979
 6759TIP3    H120210   4.332   2.617   4.566  0.3165 -1.2000 -0.5200
 6759TIP3    H220211   4.294   2.724   4.465  0.0144 -0.2173  0.6142
 6760TIP3   OH220212   3.849   3.609   5.723  0.5078  0.1069 -0.3598
 6760TIP3    H120213   3.830   3.691   5.679  1.4977  0.2431 -0.5396
 6760TIP3    H220214   3.939   3.589   5.700  1.1648  0.3538  1.8381
 6761TIP3   OH220215   5.531   2.639   4.123 -0.0201  0.2014  0.2647
 6761TIP3    H120216   5.515   2.550   4.091 -0.5290  1.1202 -2.1522
 6761TIP3    H220217   5.509   2.635   4.216  0.5514 -2.3359  0.3414
 6762TIP3   OH220218   3.340   1.841   3.573  0.9756 -0.0896  0.2828
 6762TIP3    H120219   3.403   1.820   3.642  1.2856 -0.5996 -0.1454
 6762TIP3    H220220   3.290   1.915   3.607  1.5368  0.0562  0.7973
 6763TIP3   OH220221   5.741   4.272   2.079  0.4556  0.0608  0.4795
 6763TIP3    H120222   5.789   4.281   2.161  1.8548  0.4753 -0.3785
 6763TIP3    H220223   5.655   4.311   2.097  0.5858 -0.2808  1.8809
 6764TIP3   OH220224   3.781   3.268   5.173 -0.0575 -0.1706 -0.2482
 6764TIP3    H120225   3.776   3.200   5.240 -0.1566 -0.0446 -0.1269
 6764TIP3    H220226   3.734   3.232   5.098 -2.6816  0.9305  0.8187
 6765TIP3   OH220227   3.480   2.450   6.331  0.1734 -0.1650 -0.1406
 6765TIP3    H120228   3.399   2.399   6.328  0.8084 -1.2769  1.0277
 6765TIP3    H220229   3.528   2.425   6.252  1.0204 -2.3269  1.0199
 6766TIP3   OH220230   4.440   2.882   5.605 -0.0422 -0.2533  0.3401
 6766TIP3    H120231   4.496   2.811   5.635  1.3974  1.0302  0.7587
 6766TIP3    H220232   4.452   2.884   5.510 -0.9208 -1.2443  0.1968
 6767TIP3   OH220233   4.930   0.983   6.563 -0.0347 -0.4305 -0.2411
 6767TIP3    H120234   5.011   0.933   6.572  0.9560  0.9534 -1.1288
 6767TIP3    H220235   4.881   0.937   6.494  0.5172 -0.6013 -0.5202
 6768TIP3   OH220236   4.619   2.311   5.411  0.0346  0.3684 -0.3937
 6768TIP3    H120237   4.566   2.231   5.412  0.4771  0.0743  0.3734
 6768TIP3    H220238   4.661   2.311   5.325  0.3345 -0.4322 -0.2513
 6769TIP3   OH220239   5.310   4.694   3.008  0.5641 -0.7176 -0.6108
 6769TIP3    H120240   5.229   4.663   2.969  0.7352  0.3318 -1.8249
 6769TIP3    H220241   5.379   4.642   2.966  0.6988 -0.0533 -1.2032
 6770TIP3   OH220242   4.360   4.337   3.771  0.8510 -0.0389 -0.2704
 6770TIP3    H120243   4.289   4.400   3.782  0.1805 -0.5741 -1.3784
 6770TIP3    H220244   4.389   4.318   3.860 -1.6636 -1.2328  0.3596
 6771TIP3   OH220245   6.361   1.901   4.386  0.1575 -0.5887  0.1261
 6771TIP3    H120246   6.403   1.983   4.412 -0.7246 -0.5782  1.5369
 6771TIP3    H220247   6.346   1.855   4.468 -1.9625 -0.9142 -0.4164
 6772TIP3   OH220248   6.318   3.775   3.740  0.2153 -0.4336  0.1089
 6772TIP3    H120249   6.291   3.719   3.814  0.5608 -1.7119 -0.7295
 6772TIP3    H220250   6.302   3.864   3.772 -1.5975 -1.0273  0.9853
 6773TIP3   OH220251   4.922   1.542   3.062 -0.4173  0.0396  0.1662
 6773TIP3    H120252   4.911   1.551   2.967 -3.1435 -2.2566  0.1975
 6773TIP3    H220253   4.884   1.457   3.083  0.3250  0.4054  3.3254
 6774TIP3   OH220254   5.463   0.430   2.686  0.7391 -0.0931 -0.1955
 6774TIP3    H120255   5.447   0.406   2.594  1.6028  1.1811 -0.6796
 6774TIP3    H220256   5.388   0.485   2.710  0.6010 -0.2881 -0.1677
 6775TIP3   OH220257   5.529   0.034   4.745 -0.0976  0.1416 -0.2152
 6775TIP3    H120258   5.516   0.118   4.701 -0.6937  0.8395  1.2699
 6775TIP3    H220259   5.563   0.057   4.832  0.9806 -1.2088 -0.2511
 6776TIP3   OH220260   3.975   0.629   4.682 -0.2003 -0.5516  0.4348
 6776TIP3    H120261   4.028   0.673   4.749  1.6386 -1.5436 -0.3249
 6776TIP3    H220262   4.038   0.573   4.635 -1.8943 -1.6013 -0.6296
 6777TIP3   OH220263   6.298   2.311   3.136  0.3299  0.0575  0.4495
 6777TIP3    H120264   6.291   2.372   3.209 -0.4843  0.0885  0.3444
 6777TIP3    H220265   6.295   2.225   3.176 -1.9875  0.0494  0.2993
 6778TIP3   OH220266   4.276   2.432   3.594  0.5971 -0.2664 -0.3549
 6778TIP3    H120267   4.308   2.429   3.504  1.9082  0.8250  0.0563
 6778TIP3    H220268   4.330   2.369   3.641  1.2970  0.6370  0.0744
 6779TIP3   OH220269   4.276   1.890   3.306  0.5124 -0.1481  0.8117
 6779TIP3    H120270   4.350   1.844   3.265  3.1757  3.4373  1.4124
 6779TIP3    H220271   4.277   1.860   3.397  1.0128 -0.3494  0.7438
 6780TIP3   OH220272   6.046   2.479   5.676  0.5370 -0.9732 -0.4115
 6780TIP3    H120273   6.059   2.485   5.581  0.9784  1.3272 -0.2268
 6780TIP3    H220274   5.980   2.545   5.696  0.8427 -1.0664  0.9799
 6781TIP3   OH220275   4.823   4.166   2.121  0.4701 -0.4132  0.4160
 6781TIP3    H120276   4.878   4.136   2.049  0.5701  0.3964  0.1508
 6781TIP3    H220277   4.825   4.262   2.115 -1.1684 -0.3687  0.2514
 6782TIP3   OH220278   4.734   3.171   4.417 -0.1396 -0.4294 -0.5247
 6782TIP3    H120279   4.662   3.228   4.391  1.4380  2.5580  1.2856
 6782TIP3    H220280   4.806   3.196   4.359  0.8944  0.2486  1.0204
 6783TIP3   OH220281   7.686   4.908   0.651  0.2569 -1.0060 -0.4418
 6783TIP3    H120282   7.639   4.985   0.620  2.7482  1.3281  1.3697
 6783TIP3    H220283   7.669   4.906   0.745 -0.1079 -2.9608 -0.5191
 6784TIP3   OH220284   5.273   0.949   6.792 -0.3742  0.5168  0.1276
 6784TIP3    H120285   5.356   0.945   6.839 -1.5311  0.4214  2.2605
 6784TIP3    H220286   5.221   1.014   6.840 -0.2548  3.3356 -3.3759
 6785TIP3   OH220287   1.587   1.981   4.510  0.1458  0.3721  0.2395
 6785TIP3    H120288   1.598   2.031   4.591  1.1811  0.0685  0.2948
 6785TIP3    H220289   1.642   2.027   4.446 -0.5319  0.5101 -0.2563
 6786TIP3   OH220290   7.477   5.052   0.200  0.1272 -0.8302 -0.2862
 6786TIP3    H120291   7.528   5.126   0.166  1.1046 -0.1397  2.5249
 6786TIP3    H220292   7.405   5.092   0.247 -0.4094 -1.7298 -0.3348
 6787TIP3   OH220293   3.803   2.152   5.134 -0.0966 -0.4151  0.1349
 6787TIP3    H120294   3.775   2.175   5.223 -0.7507 -0.9632  0.0681
 6787TIP3    H220295   3.897   2.170   5.134 -0.3885  1.1772  0.4340
 6788TIP3   OH220296   5.144   3.016   3.381 -0.3127  0.2017 -0.0165
 6788TIP3    H120297   5.133   3.097   3.431 -0.3706  1.2340 -1.6543
 6788TIP3    H220298   5.155   2.948   3.448 -2.2824  1.2426  1.4319
 6789TIP3   OH220299   7.540   0.369   5.181 -0.0029  0.3901  0.3544
 6789TIP3    H120300   7.594   0.431   5.230  0.4215  1.3858 -1.3365
 6789TIP3    H220301   7.463   0.354   5.237  0.5833  1.3043  1.4193
 6790TIP3   OH220302   5.653   3.257   4.463  0.5886 -0.9933 -0.1201
 6790TIP3    H120303   5.591   3.238   4.392 -1.0809 -1.8171  1.5251
 6790TIP3    H220304   5.716   3.319   4.424 -0.8975 -0.6127 -1.9900
 6791TIP3   OH220305   8.436   2.399   4.497  0.0059  0.3455  0.7780
 6791TIP3    H120306   8.472   2.402   4.586  0.5366  1.0271  0.5469
 6791TIP3    H220307   8.359   2.455   4.500 -0.7247 -0.6682  1.1326
 6792TIP3   OH220308   2.521   0.358   4.222  0.0561  0.4390 -0.3614
 6792TIP3    H120309   2.563   0.396   4.300 -1.5352  2.3272 -0.3584
 6792TIP3    H220310   2.466   0.288   4.257  0.5519  0.2456  0.0380
 6793TIP3   OH220311   5.301   1.194   5.651 -0.1726  0.1393  0.5020
 6793TIP3    H120312   5.257   1.215   5.733 -0.9610  1.5582 -0.2683
 6793TIP3    H220313   5.390   1.224   5.663 -0.2090  0.0757  0.9413
 6794TIP3   OH220314   0.348   7.267   3.803  0.3312 -0.0120 -0.1048
 6794TIP3    H120315   0.376   7.202   3.739  1.5591 -0.1043  0.5151
 6794TIP3    H220316   0.262   7.295   3.772 -0.6124 -2.5884  0.1391
 6795TIP3   OH220317   4.968   1.394   4.930 -0.3678  0.1215 -0.2279
 6795TIP3    H120318   4.993   1.311   4.972  0.7506  0.3586 -0.4101
 6795TIP3    H220319   4.925   1.367   4.849  2.0366 -0.2854 -1.4312
 6796TIP3   OH220320   6.680   2.018   6.079  0.1423  0.0499  0.5963
 6796TIP3    H120321   6.736   2.053   6.010  0.3322  0.6962  1.0728
 6796TIP3    H220322   6.734   1.952   6.123 -0.0519 -0.5059 -0.0029
 6797TIP3   OH220323   7.842   3.835   3.593  0.0596  0.3806 -0.2335
 6797TIP3    H120324   7.788   3.914   3.595  0.0972  0.4076 -0.3557
 6797TIP3    H220325   7.851   3.814   3.501  1.5837  1.2618 -0.2868
 6798TIP3   OH220326   7.459   3.305   3.000  0.2144 -0.0418 -0.6450
 6798TIP3    H120327   7.465   3.346   3.086  1.3414 -2.0389  0.2605
 6798TIP3    H220328   7.502   3.367   2.940  0.3141  0.8853  0.3781
 6799TIP3   OH220329   6.145   1.692   5.562  0.5015 -0.0817 -0.3151
 6799TIP3    H120330   6.235   1.669   5.582  1.6960  1.8961 -3.2079
 6799TIP3    H220331   6.141   1.787   5.572 -1.0535 -0.0592 -0.9658
 6800TIP3   OH220332   5.769   4.108   2.714 -0.1688  0.1771  0.4054
 6800TIP3    H120333   5.686   4.153   2.697 -0.8123 -0.7704  1.0069
 6800TIP3    H220334   5.744   4.024   2.752  1.1163  0.8924  2.9749
 6801TIP3   OH220335   7.334   1.646   4.483 -0.3488  0.3863 -0.2669
 6801TIP3    H120336   7.346   1.557   4.516 -0.2030 -0.0733 -1.5293
 6801TIP3    H220337   7.420   1.688   4.495 -0.0144 -0.0918 -1.0088
 6802TIP3   OH220338   3.161   1.814   2.250 -0.2836 -0.1267  0.3052
 6802TIP3    H120339   3.074   1.820   2.211  0.4815 -1.8967 -1.7854
 6802TIP3    H220340   3.213   1.878   2.203  0.2439 -1.1206 -0.4847
 6803TIP3   OH220341   8.256   0.843   2.421  0.0739  0.2396 -0.2549
 6803TIP3    H120342   8.178   0.825   2.475  0.1890 -1.5385 -0.6603
 6803TIP3    H220343   8.239   0.798   2.338  0.8006  1.2601 -0.9704
 6804TIP3   OH220344   6.841   2.796   2.763  0.5055 -0.4217  0.0013
 6804TIP3    H120345   6.846   2.704   2.791  0.7903  0.1546  1.8775
 6804TIP3    H220346   6.886   2.796   2.678 -0.1612 -2.1504 -0.3835
 6805TIP3   OH220347   4.597   2.773   5.390 -0.2542  0.0517  0.1186
 6805TIP3    H120348   4.687   2.801   5.371 -0.0642 -0.2576  0.5499
 6805TIP3    H220349   4.587   2.691   5.340 -0.9313  1.0502 -1.4271
 6806TIP3   OH220350   2.984   4.704   5.426 -0.0793 -0.1073  0.1170
 6806TIP3    H120351   2.949   4.719   5.514 -0.7574 -2.2281  0.2418
 6806TIP3    H220352   2.936   4.628   5.394  1.0898 -0.1565 -1.5780
 6807TIP3   OH220353   7.250   4.006   5.682 -0.2328 -0.1649  0.3707
 6807TIP3    H120354   7.245   3.982   5.775  1.9613 -1.3955  0.2148
 6807TIP3    H220355   7.281   4.096   5.682 -0.0334 -0.2308  0.8518
 6808TIP3   OH220356   5.210   3.630   6.456 -0.6556  0.5021  0.3266
 6808TIP3    H120357   5.217   3.681   6.375 -0.1083  2.8468  1.8225
 6808TIP3    H220358   5.300   3.605   6.476 -0.3022  3.0450  2.1314
 6809TIP3   OH220359   4.559   4.712   6.110 -0.3415 -0.0151  0.4781
 6809TIP3    H120360   4.511   4.721   6.028 -0.0037 -0.8105  0.1875
 6809TIP3    H220361   4.622   4.642   6.093 -1.2153 -1.1863  1.8476
 6810TIP3   OH220362   7.007   1.999   3.647  0.5189 -1.0544  0.2158
 6810TIP3    H120363   7.040   2.037   3.565 -1.4878  1.4571  0.5108
 6810TIP3    H220364   7.079   2.010   3.709  1.5219 -1.6390 -0.8167
 6811TIP3   OH220365   6.365   2.792   4.600  0.1472  0.6558  0.1015
 6811TIP3    H120366   6.304   2.836   4.658  1.6976  0.7092  1.7309
 6811TIP3    H220367   6.437   2.854   4.589  1.6808 -0.8672  1.2582
 6812TIP3   OH220368   6.031   3.896   1.202 -0.3286 -0.8484 -0.1914
 6812TIP3    H120369   6.030   3.803   1.225  3.7982 -1.1679 -0.9742
 6812TIP3    H220370   5.997   3.900   1.113  1.4946 -1.8900 -0.9418
 6813TIP3   OH220371   0.951   3.195   5.488  0.7331  0.1200 -0.1017
 6813TIP3    H120372   0.881   3.167   5.429 -0.3673 -0.6913  1.5351
 6813TIP3    H220373   0.912   3.189   5.575  2.3485  1.2081  0.7170
 6814TIP3   OH220374   7.444   3.414   5.701 -0.3817  0.3843  0.1684
 6814TIP3    H120375   7.524   3.457   5.731 -0.3558  0.2105  0.3444
 6814TIP3    H220376   7.462   3.320   5.709 -0.8357  0.3497  0.8114
 6815TIP3   OH220377   7.040   2.236   3.143  0.7912 -0.1187  0.3956
 6815TIP3    H120378   7.128   2.209   3.172  1.9092  0.2998 -2.4379
 6815TIP3    H220379   7.052   2.263   3.052 -2.4034 -0.5390 -0.2093
 6816TIP3   OH220380   7.877   1.823   3.096  0.2845 -0.0244 -0.4550
 6816TIP3    H120381   7.865   1.917   3.087  0.3609  0.0743  0.4820
 6816TIP3    H220382   7.872   1.806   3.190  2.4509 -0.6524 -0.4308
 6817TIP3   OH220383   7.106   2.816   6.120 -0.4047 -0.1391  0.4899
 6817TIP3    H120384   7.119   2.783   6.209  1.2206 -1.2445 -0.1224
 6817TIP3    H220385   7.021   2.859   6.122 -0.6748 -0.7262  2.4158
 6818TIP3   OH220386   7.393   3.654   3.993 -0.1115 -0.2891 -0.2214
 6818TIP3    H120387   7.471   3.640   3.939 -0.1863  0.2594 -0.4773
 6818TIP3    H220388   7.373   3.568   4.028  1.0867 -0.2863  0.5043
 6819TIP3   OH220389   0.346   2.434   5.073 -0.5787  0.1593 -0.0883
 6819TIP3    H120390   0.284   2.477   5.131 -1.4709 -1.7005  0.3651
 6819TIP3    H220391   0.308   2.348   5.056  1.0335 -0.3649 -1.1953
 6820TIP3   OH220392   6.830   2.181   4.569  0.2896 -0.3372 -0.3223
 6820TIP3    H120393   6.884   2.229   4.507 -0.4736 -1.2161 -1.6811
 6820TIP3    H220394   6.779   2.120   4.515 -0.6456 -0.8608  1.1209
 6821TIP3   OH220395   4.751   3.574   4.529  0.1337  0.0058 -0.5161
 6821TIP3    H120396   4.820   3.559   4.464 -2.2001  0.1729 -3.0874
 6821TIP3    H220397   4.746   3.492   4.577  1.2847 -0.4212 -1.0937
 6822TIP3   OH220398   7.180   1.069   5.691  0.7198  0.4399  0.0214
 6822TIP3    H120399   7.101   1.060   5.638  0.7400 -0.9669  0.2029
 6822TIP3    H220400   7.218   1.153   5.664 -0.5758  0.9028 -0.4022
 6823TIP3   OH220401   5.414   3.019   3.814 -0.2236 -0.1078 -0.0276
 6823TIP3    H120402   5.323   3.040   3.833 -0.1402 -0.9301  1.3950
 6823TIP3    H220403   5.434   3.067   3.734 -2.5140 -1.5744 -1.5349
 6824TIP3   OH220404   5.398   4.593   4.906  0.3524  0.1483  0.2903
 6824TIP3    H120405   5.316   4.558   4.942 -0.9112 -0.5778 -3.1414
 6824TIP3    H220406   5.374   4.676   4.866  1.6547  0.7258  0.6511
 6825TIP3   OH220407   6.891   4.251   6.689 -0.3740  0.1389  1.0045
 6825TIP3    H120408   6.871   4.195   6.614  2.5647 -0.6216  0.7242
 6825TIP3    H220409   6.874   4.340   6.658 -1.0508 -0.3043  0.0903
 6826TIP3   OH220410   6.136   1.057   4.604  0.1194  0.3811 -0.5251
 6826TIP3    H120411   6.141   1.148   4.577 -0.9545  0.1948 -1.3977
 6826TIP3    H220412   6.096   1.012   4.530  1.7261 -1.0086 -0.5786
 6827TIP3   OH220413   6.919   2.918   4.456  0.3593  0.2377  0.1876
 6827TIP3    H120414   6.889   2.842   4.405  0.2470 -1.0595  2.1246
 6827TIP3    H220415   6.861   2.919   4.533 -0.5777  3.1640 -0.5180
 6828TIP3   OH220416   4.213   3.880   6.533 -0.3435  0.3813  0.0871
 6828TIP3    H120417   4.224   3.898   6.627  1.0272  0.8492 -0.1520
 6828TIP3    H220418   4.175   3.960   6.498  1.3710  1.1139 -0.1567
 6829TIP3   OH220419   6.149   1.902   3.984 -0.2416  0.7602  0.3511
 6829TIP3    H120420   6.233   1.916   3.942 -0.4354  0.5697 -0.1078
 6829TIP3    H220421   6.120   1.817   3.951 -0.3653  0.5759  0.9213
 6830TIP3   OH220422   6.219   3.023   1.689 -0.3386  0.0170 -0.0338
 6830TIP3    H120423   6.180   3.039   1.775 -2.5117 -0.8625 -0.8154
 6830TIP3    H220424   6.171   3.081   1.630 -0.2278 -0.8354 -0.9747
 6831TIP3   OH220425   6.433   3.883   2.982  0.0848  0.2086 -0.8139
 6831TIP3    H120426   6.429   3.898   3.077 -1.0837  1.0546 -0.9840
 6831TIP3    H220427   6.381   3.804   2.968 -1.2241  1.0943 -0.9555
 6832TIP3   OH220428   5.665   1.331   5.971  0.2897  0.1171  0.2848
 6832TIP3    H120429   5.619   1.387   6.033  0.2960  1.0469 -0.5274
 6832TIP3    H220430   5.689   1.253   6.021 -1.4882 -0.0456  0.9032
 6833TIP3   OH220431   1.010   7.217   0.195  0.1940  0.0215 -0.1892
 6833TIP3    H120432   0.940   7.196   0.256  1.6618  0.3994  1.7050
 6833TIP3    H220433   0.990   7.306   0.165 -0.4842 -0.1225 -0.1688
 6834TIP3   OH220434   7.254   3.756   6.312 -0.4066  0.1181 -0.0821
 6834TIP3    H120435   7.285   3.825   6.254  1.0227 -0.2916  0.1890
 6834TIP3    H220436   7.198   3.702   6.257  1.2723 -0.5006 -1.2049
 6835TIP3   OH220437   6.842   0.813   4.964  0.0895 -0.2344  0.2358
 6835TIP3    H120438   6.882   0.899   4.969 -0.8330  0.1835  0.5333
 6835TIP3    H220439   6.756   0.828   4.926 -0.1714 -0.9876  0.5130
 6836TIP3   OH220440   4.851   2.678   2.178  0.3788  0.2795  0.2146
 6836TIP3    H120441   4.799   2.616   2.229  0.5994 -0.3709 -0.3463
 6836TIP3    H220442   4.898   2.729   2.243  0.2307 -0.1716  0.6784
 6837TIP3   OH220443   5.029   3.912   4.674 -0.0856 -0.1793  0.3965
 6837TIP3    H120444   4.944   3.884   4.709 -0.0249  2.0316  2.3496
 6837TIP3    H220445   5.017   4.004   4.652  1.4772 -0.1577 -0.4115
 6838TIP3   OH220446   5.254   2.141   2.505 -0.0770 -0.5648 -0.3804
 6838TIP3    H120447   5.287   2.231   2.504 -2.0609  0.1982  0.1848
 6838TIP3    H220448   5.317   2.093   2.560  0.9682  0.4766 -0.6495
 6839TIP3   OH220449   6.848   2.860   5.131 -0.7959 -0.1633  0.0484
 6839TIP3    H120450   6.761   2.900   5.126 -0.5959  0.1958 -0.5025
 6839TIP3    H220451   6.858   2.813   5.048 -0.5966 -0.4814  0.2500
 6840TIP3   OH220452   6.983   4.258   4.162  0.7657 -0.7449  0.5447
 6840TIP3    H120453   7.046   4.300   4.221  1.7383  1.2785 -1.8172
 6840TIP3    H220454   6.938   4.331   4.119 -1.3322 -2.1746  0.2368
 6841TIP3   OH220455   5.141   4.577   4.980  0.0918  0.0325  0.4009
 6841TIP3    H120456   5.083   4.611   4.912 -0.3966 -0.4239  0.5925
 6841TIP3    H220457   5.099   4.602   5.062  0.7954  0.7764  0.5468
 6842TIP3   OH220458   5.368   0.840   2.841  0.6129  0.0817 -0.4170
 6842TIP3    H120459   5.274   0.832   2.855  0.5975  2.1892  0.8742
 6842TIP3    H220460   5.401   0.883   2.920  2.5614 -0.0444 -1.1221
 6843TIP3   OH220461   7.946   1.586   5.147 -0.1605 -0.3521  0.1585
 6843TIP3    H120462   7.963   1.508   5.200 -1.0111 -0.9719 -0.4775
 6843TIP3    H220463   7.872   1.562   5.092  0.8638  0.2044 -1.4921
 6844TIP3   OH220464   6.781   3.597   3.888  0.9037 -0.4161 -0.2397
 6844TIP3    H120465   6.744   3.516   3.855  0.3254 -0.3006  0.1301
 6844TIP3    H220466   6.718   3.665   3.865  0.1151 -0.4292  1.7365
 6845TIP3   OH220467   6.629   3.916   2.502  0.4072 -0.3831 -0.4135
 6845TIP3    H120468   6.676   3.833   2.508  0.3427 -0.3446  0.6732
 6845TIP3    H220469   6.565   3.912   2.572  0.7226  0.7881 -0.0538
 6846TIP3   OH220470   5.259   2.104   1.986 -0.1805 -0.1935 -0.2599
 6846TIP3    H120471   5.315   2.028   2.004  0.1233  0.3449  1.1077
 6846TIP3    H220472   5.180   2.088   2.039 -1.0004 -0.5589 -1.5621
 6847TIP3   OH220473   6.434   3.277   6.166 -0.6132 -0.3056 -0.4295
 6847TIP3    H120474   6.389   3.339   6.108  0.0863 -0.2384 -0.9094
 6847TIP3    H220475   6.390   3.287   6.250 -1.2145  0.0677 -0.7847
 6848TIP3   OH220476   5.434   4.045   4.576  0.0767 -0.2909  0.0324
 6848TIP3    H120477   5.361   4.103   4.596  0.0329 -0.5793  0.7535
 6848TIP3    H220478   5.399   3.956   4.589  0.5210 -0.4324  0.2970
 6849TIP3   OH220479   6.074   2.497   3.079  0.3159  0.0060 -0.0786
 6849TIP3    H120480   6.109   2.427   3.024  0.6513 -0.1811  0.3709
 6849TIP3    H220481   6.142   2.564   3.080  2.0539 -1.6917  3.3434
 6850TIP3   OH220482   6.223   2.659   5.444 -0.6648 -0.3482 -0.0565
 6850TIP3    H120483   6.309   2.653   5.486 -0.4425 -0.2323 -0.4941
 6850TIP3    H220484   6.242   2.669   5.351 -1.1602 -0.6570 -0.1933
 6851TIP3   OH220485   5.550   3.360   2.766  0.1842  0.0734  0.2420
 6851TIP3    H120486   5.469   3.338   2.811 -0.3664  1.2383 -0.1536
 6851TIP3    H220487   5.592   3.276   2.749 -0.8606 -0.5246  0.5840
 6852TIP3   OH220488   4.725   3.501   3.272  0.1234 -0.0832  0.4353
 6852TIP3    H120489   4.742   3.549   3.191 -0.2428  0.9890  0.9796
 6852TIP3    H220490   4.760   3.558   3.341 -1.2666 -0.1142  1.1722
 6853TIP3   OH220491   0.305   2.077   3.001  0.0511 -0.2975  0.4093
 6853TIP3    H120492   0.276   2.034   3.082  0.7513 -0.0944  0.7673
 6853TIP3    H220493   0.397   2.054   2.993 -0.5678 -2.1875 -1.5411
 6854TIP3   OH220494   5.726   5.100   4.776  0.1572 -0.0424  0.7289
 6854TIP3    H120495   5.648   5.058   4.812  0.3997 -1.6469 -0.5314
 6854TIP3    H220496   5.699   5.132   4.690  0.9055 -0.7640  0.2093
 6855TIP3   OH220497   6.601   2.955   2.833  0.1373  0.0256 -0.2037
 6855TIP3    H120498   6.666   2.991   2.893 -0.3176 -1.2069  1.0447
 6855TIP3    H220499   6.649   2.889   2.782  0.1139 -0.1733  0.0287
 6856TIP3   OH220500   7.923   4.172   6.032  0.5277 -0.0883 -0.5978
 6856TIP3    H120501   7.887   4.205   5.950  1.1569  1.1194 -0.3905
 6856TIP3    H220502   7.872   4.093   6.051 -0.6572  0.5011 -1.3370
 6857TIP3   OH220503   5.173   1.575   4.336 -0.2529  0.5369 -0.1368
 6857TIP3    H120504   5.132   1.572   4.422  2.2533  1.3090  1.1505
 6857TIP3    H220505   5.193   1.484   4.316 -1.6574  0.2604 -0.3306
 6858TIP3   OH220506   4.372   1.088   2.816  0.3645 -0.4878 -0.2864
 6858TIP3    H120507   4.324   1.105   2.897  0.1727  1.0958 -0.7166
 6858TIP3    H220508   4.371   0.993   2.808 -1.9003 -0.5471  0.2022
 6859TIP3   OH220509   0.107   3.030   3.598 -0.4620 -0.3128 -0.8771
 6859TIP3    H120510   0.016   3.027   3.567 -0.2892 -2.0365 -1.2409
 6859TIP3    H220511   0.106   2.983   3.681 -0.0247  0.3000 -0.5156
 6860TIP3   OH220512   6.416   4.236   4.349  0.2133  0.0883  0.4465
 6860TIP3    H120513   6.406   4.229   4.444 -1.4106  0.6856  0.3324
 6860TIP3    H220514   6.392   4.326   4.328  0.2929 -0.1185 -0.5647
 6861TIP3   OH220515   5.647   2.473   3.327 -0.1839 -0.3495 -0.7115
 6861TIP3    H120516   5.560   2.448   3.297 -0.4780 -1.0070  0.6727
 6861TIP3    H220517   5.693   2.390   3.341 -0.3632 -0.0846  1.5384
 6862TIP3   OH220518   5.629   5.289   5.278 -0.1798 -0.2695 -0.6406
 6862TIP3    H120519   5.567   5.239   5.225  0.9958 -0.8665 -1.4700
 6862TIP3    H220520   5.714   5.272   5.238  0.7477 -0.7966  1.4949
 6863TIP3   OH220521   5.906   3.572   5.431  0.4047 -0.2006  0.1191
 6863TIP3    H120522   5.905   3.504   5.498  0.6425 -0.4678 -0.1445
 6863TIP3    H220523   5.955   3.645   5.470  0.4394 -0.3104  0.2782
 6864TIP3   OH220524   6.214   2.850   3.287  0.1648  0.4808  0.5573
 6864TIP3    H120525   6.234   2.795   3.211  0.8620  1.3361  0.1090
 6864TIP3    H220526   6.255   2.934   3.267 -0.1458  0.8948  1.6246
 6865TIP3   OH220527   6.729   5.098   3.526 -0.3408 -0.6090  0.0802
 6865TIP3    H120528   6.686   5.012   3.537 -1.5975 -0.1504 -1.0232
 6865TIP3    H220529   6.767   5.117   3.611  0.1189 -2.3545  0.2943
 6866TIP3   OH220530   6.754   3.539   6.510  0.3743  0.1236  0.3330
 6866TIP3    H120531   6.836   3.563   6.467  1.5767  1.1619  3.0720
 6866TIP3    H220532   6.701   3.619   6.506  0.3297  0.0952  0.3605
 6867TIP3   OH220533   5.878   2.903   2.272  0.1209 -0.2459 -0.3514
 6867TIP3    H120534   5.786   2.884   2.286 -0.6434  2.8977 -0.6902
 6867TIP3    H220535   5.880   2.953   2.190  2.2726 -1.2959 -0.9808
 6868TIP3   OH220536   5.180   3.201   6.316  0.2228  0.5968  0.1274
 6868TIP3    H120537   5.218   3.113   6.320  0.3190  0.6487  0.3692
 6868TIP3    H220538   5.140   3.206   6.229  1.5107  0.8407 -0.4613
 6869TIP3   OH220539   5.581   1.478   3.610 -0.4348 -0.5129  0.5581
 6869TIP3    H120540   5.580   1.538   3.536 -1.4546  0.9473  1.7248
 6869TIP3    H220541   5.673   1.463   3.628 -0.1780  0.5096  0.1126
 6870TIP3   OH220542   6.726   1.047   5.466  0.1160  0.6892 -0.3938
 6870TIP3    H120543   6.671   1.094   5.404  0.0041  0.8346 -0.1843
 6870TIP3    H220544   6.775   0.984   5.412  0.0517  0.8435 -0.6334
 6871TIP3   OH220545   7.467   2.704   3.322 -0.4607  0.1004  0.2174
 6871TIP3    H120546   7.376   2.681   3.307  0.0260 -1.4740 -0.4275
 6871TIP3    H220547   7.481   2.785   3.272 -1.2385 -0.1927 -0.4765
 6872TIP3   OH220548   7.161   2.931   4.903  0.3341  0.1852  0.0984
 6872TIP3    H120549   7.171   3.011   4.851 -0.4162 -1.0179 -1.9650
 6872TIP3    H220550   7.067   2.921   4.914  0.4243 -0.4371  0.3140
 6873TIP3   OH220551   6.034   4.195   2.729 -0.2646 -0.6756  0.3979
 6873TIP3    H120552   6.039   4.224   2.820  0.8782  0.8648 -0.1362
 6873TIP3    H220553   5.948   4.152   2.723 -0.5440 -0.4110  2.0778
 6874TIP3   OH220554   6.594   3.411   4.533  0.1414 -0.1108  0.6766
 6874TIP3    H120555   6.608   3.443   4.622 -2.9035 -0.5397  1.3661
 6874TIP3    H220556   6.549   3.328   4.544  1.8844 -1.3580 -1.2463
 6875TIP3   OH220557   6.601   3.837   3.736 -0.4238 -0.0712 -0.4875
 6875TIP3    H120558   6.532   3.821   3.672 -0.5924  1.2344 -0.6285
 6875TIP3    H220559   6.557   3.884   3.807  0.0575 -0.3138 -0.0279
 6876TIP3   OH220560   7.524   3.080   2.839  0.0858 -0.2730  0.3362
 6876TIP3    H120561   7.439   3.081   2.796 -0.2065 -0.3475  0.9050
 6876TIP3    H220562   7.523   3.157   2.896  0.2615 -0.4679  0.6026
 6877TIP3   OH220563   6.467   3.922   3.289  0.0955 -0.6994  0.2397
 6877TIP3    H120564   6.410   3.902   3.363 -0.1812  0.2631  0.2843
 6877TIP3    H220565   6.522   3.994   3.319  0.0320 -0.3491 -0.4596
 6878TIP3   OH220566   6.946   3.350   2.780 -0.1624 -0.7831 -0.0028
 6878TIP3    H120567   7.038   3.355   2.807 -0.4133  1.4475  0.5298
 6878TIP3    H220568   6.897   3.377   2.858 -1.1365  0.5382 -1.0489
 6879TIP3   OH220569   5.591   4.631   2.772  0.3528  0.2617  0.7755
 6879TIP3    H120570   5.627   4.639   2.861 -2.8471  2.7375  1.9376
 6879TIP3    H220571   5.536   4.553   2.776 -0.1949  0.6575  1.1621
 6880TIP3   OH220572   7.957   3.905   2.502  0.2473 -0.8316  0.0681
 6880TIP3    H120573   7.903   3.928   2.578 -0.0135  0.2718 -0.4462
 6880TIP3    H220574   7.998   3.823   2.527 -1.6867 -1.7048  0.4543
 6881TIP3   OH220575   5.386   3.554   4.564 -0.5161 -0.5710  0.7044
 6881TIP3    H120576   5.455   3.602   4.518  0.2094 -1.9315  0.3379
 6881TIP3    H220577   5.394   3.464   4.532 -1.6886 -0.9960  1.5602
 6882TIP3   OH220578   4.688   3.354   3.915  0.1223  0.5237  0.0151
 6882TIP3    H120579   4.640   3.339   3.834 -1.4460  0.5897  0.9235
 6882TIP3    H220580   4.636   3.311   3.983  1.3995  0.4899  0.9988
 6883TIP3   OH220581   6.531   4.450   4.561 -0.1629 -0.2433 -0.0823
 6883TIP3    H120582   6.526   4.534   4.516 -1.4840 -1.0259 -1.4676
 6883TIP3    H220583   6.617   4.415   4.538  0.6122  0.9550  0.9480
 6884TIP3   OH220584   4.857   2.405   3.497 -0.4412  0.1041  0.3586
 6884TIP3    H120585   4.772   2.361   3.488 -0.0484 -0.5465 -0.2139
 6884TIP3    H220586   4.921   2.334   3.495  0.2717  0.7822 -1.6593
 6885TIP3   OH220587   6.520   3.327   3.404  0.1746  0.5644 -0.1235
 6885TIP3    H120588   6.591   3.326   3.468  0.3381  1.8299 -0.2656
 6885TIP3    H220589   6.564   3.330   3.319 -0.0443  0.5696 -0.2364
 6886TIP3   OH220590   6.650   1.914   4.804 -0.1836  0.2053  0.2909
 6886TIP3    H120591   6.721   1.964   4.845 -0.4679 -0.4892  1.6423
 6886TIP3    H220592   6.694   1.851   4.748  0.2462  0.2629  0.5626
 6887TIP3   OH220593   4.997   3.187   5.322 -0.7329 -0.2778  0.7400
 6887TIP3    H120594   5.091   3.176   5.310 -0.4324 -2.0800  4.0562
 6887TIP3    H220595   4.989   3.257   5.387 -1.6287 -0.8912  1.2966
 6888TIP3   OH220596   6.442   2.770   5.711  0.0919  0.5818  0.4389
 6888TIP3    H120597   6.495   2.720   5.649 -0.3013 -1.5323  1.7516
 6888TIP3    H220598   6.484   2.754   5.796 -2.3046 -0.6655  1.4160
 6889TIP3   OH220599   5.801   3.609   6.135 -0.4369 -0.1502  0.5121
 6889TIP3    H120600   5.824   3.701   6.149 -0.8024  0.3124 -1.6797
 6889TIP3    H220601   5.866   3.578   6.072 -0.2223 -1.4495  1.3494
 6890TIP3   OH220602   8.070   1.293   6.144  0.0122 -0.1708  0.1207
 6890TIP3    H120603   7.982   1.273   6.175  0.0438  2.0324  1.7352
 6890TIP3    H220604   8.057   1.348   6.067 -0.0109 -1.3112 -0.7075
 6891TIP3   OH220605   7.926   4.309   1.842 -0.5266  0.2434  0.3427
 6891TIP3    H120606   7.867   4.236   1.861  1.6728 -1.3005  1.5078
 6891TIP3    H220607   7.923   4.318   1.746 -1.9789 -0.3765  0.3249
 6892TIP3   OH220608   4.516   4.094   4.527  0.2075  0.4364  0.2074
 6892TIP3    H120609   4.430   4.133   4.545  1.2148  2.5990  0.5703
 6892TIP3    H220610   4.550   4.070   4.613 -0.6471 -1.8762 -0.0583
 6893TIP3   OH220611   6.256   3.556   3.218 -0.5487  0.1644  0.3405
 6893TIP3    H120612   6.182   3.512   3.176 -1.0618  0.0775  1.3331
 6893TIP3    H220613   6.236   3.553   3.311  0.1406  1.1835  0.5257
 6894TIP3   OH220614   8.092   3.794   2.894 -0.4175 -0.4835  0.5260
 6894TIP3    H120615   8.158   3.800   2.825 -1.8074  1.8567 -0.6412
 6894TIP3    H220616   8.055   3.706   2.884  0.8101 -0.9199 -0.3579
 6895TIP3   OH220617   6.135   3.371   5.283 -0.5778  0.3391  1.0588
 6895TIP3    H120618   6.041   3.356   5.275 -0.6765  1.0450  0.8376
 6895TIP3    H220619   6.156   3.430   5.211  0.5840 -2.1355 -0.6680
 6896TIP3   OH220620   6.131   1.796   4.239  0.5040  0.2034 -0.1227
 6896TIP3    H120621   6.116   1.861   4.170  1.4669 -0.0845 -0.6228
 6896TIP3    H220622   6.221   1.811   4.266  1.4366 -2.2447 -1.6885
 6897TIP3   OH220623   5.811   3.041   4.545 -0.5637  0.2823  0.1917
 6897TIP3    H120624   5.749   2.969   4.532 -0.2641  0.4451 -2.4546
 6897TIP3    H220625   5.760   3.120   4.527 -0.4805  0.6510  1.5273
 6898TIP3   OH220626   7.064   3.694   2.565 -0.6279  0.0990  0.2250
 6898TIP3    H120627   7.102   3.775   2.531  0.6468 -1.7164 -2.8600
 6898TIP3    H220628   7.134   3.656   2.619 -0.3191 -0.1838 -0.3750
 6899TIP3   OH220629   7.466   2.544   2.132 -0.3566  0.2881  0.4331
 6899TIP3    H120630   7.395   2.488   2.102 -0.9184  1.1371  0.1650
 6899TIP3    H220631   7.513   2.569   2.053  1.0964 -1.3675  0.7196
 6900TIP3   OH220632   6.035   2.234   4.275  0.6179 -0.0614  0.3878
 6900TIP3    H120633   6.028   2.281   4.192  0.2212  0.1347  0.5303
 6900TIP3    H220634   6.127   2.207   4.280  0.1059 -2.2627 -1.3259
 6901TIP3   OH220635   8.068   2.169   4.485  0.1823  0.6176  0.7141
 6901TIP3    H120636   8.109   2.225   4.419 -0.1684  1.1612  0.9488
 6901TIP3    H220637   7.976   2.194   4.482 -0.1024 -0.4628  0.3220
 6902TIP3   OH220638   6.827   4.555   5.534  0.4888 -0.0472 -0.3248
 6902TIP3    H120639   6.835   4.635   5.483  0.1155  0.6934  0.7705
 6902TIP3    H220640   6.814   4.486   5.469 -0.0636  0.9015 -1.2272
 6903TIP3   OH220641   4.057   2.792   3.242 -0.5519 -0.1610  0.6017
 6903TIP3    H120642   4.039   2.883   3.266 -0.4781 -0.2120  0.8550
 6903TIP3    H220643   3.987   2.742   3.283  1.1849 -0.5662  3.1705
 6904TIP3   OH220644   5.198   2.535   4.353 -0.2205 -0.0535 -0.3985
 6904TIP3    H120645   5.291   2.554   4.368 -0.5188  0.6668  0.5503
 6904TIP3    H220646   5.166   2.507   4.439 -0.8066 -0.6310 -0.8038
 6905TIP3   OH220647   4.277   3.179   5.218  0.6153  0.3610 -0.0485
 6905TIP3    H120648   4.349   3.138   5.266  0.3783 -1.7623 -1.4504
 6905TIP3    H220649   4.198   3.146   5.261  0.4389  1.0507  0.1646
 6906TIP3   OH220650   4.394   3.429   3.240  0.2092 -0.2908  0.1233
 6906TIP3    H120651   4.462   3.452   3.302 -0.4918 -0.0766  0.8258
 6906TIP3    H220652   4.395   3.333   3.237  1.7663 -0.2518 -1.2712
 6907TIP3   OH220653   2.667   0.729   4.679  0.3164 -0.7012 -0.3532
 6907TIP3    H120654   2.760   0.705   4.680  0.6260  0.4948  1.3644
 6907TIP3    H220655   2.641   0.729   4.771 -0.7198  1.4971 -0.6126
 6908TIP3   OH220656   6.571   2.487   4.353 -0.0479  0.4279 -0.3089
 6908TIP3    H120657   6.564   2.394   4.331 -2.8796  0.9008 -1.7261
 6908TIP3    H220658   6.548   2.491   4.446  0.7411 -0.3435 -0.0738
 6909TIP3   OH220659   6.963   2.291   5.031 -0.1773  0.1922 -0.0956
 6909TIP3    H120660   7.027   2.334   4.973 -0.5539  0.0582 -0.6117
 6909TIP3    H220661   6.996   2.308   5.119  0.3905  0.4167 -0.3469
 6910TIP3   OH220662   5.689   3.096   3.765  0.3401  0.0030 -0.2398
 6910TIP3    H120663   5.749   3.034   3.722 -0.6693 -0.8208 -0.4844
 6910TIP3    H220664   5.608   3.046   3.776 -0.1879  1.0012  0.4004
 6911TIP3   OH220665   6.248   3.254   4.699  0.1294 -0.2833  0.0283
 6911TIP3    H120666   6.176   3.257   4.636  0.4349  0.7483 -0.2726
 6911TIP3    H220667   6.275   3.345   4.710  0.0938 -0.4626  1.6411
 6912TIP3   OH220668   4.285   3.128   6.818 -0.1491 -0.0015  0.0169
 6912TIP3    H120669   4.353   3.195   6.819  0.7101 -0.8748  0.9305
 6912TIP3    H220670   4.275   3.106   6.725  1.5155 -0.5658 -0.0445
 6913TIP3   OH220671   6.859   3.859   3.658  0.2444 -0.1047  1.3632
 6913TIP3    H120672   6.898   3.914   3.726 -0.3943  0.3160  1.3878
 6913TIP3    H220673   6.767   3.851   3.683 -0.1558  0.6232  0.1869
 6914TIP3   OH220674   7.738   2.601   4.448 -0.8218 -0.3325  0.2237
 6914TIP3    H120675   7.706   2.673   4.502 -0.5364 -0.4519  0.5566
 6914TIP3    H220676   7.687   2.605   4.368  1.7784  2.6327 -1.3834
 6915TIP3   OH220677   8.497   1.052   1.352  0.1524  0.0130 -0.1371
 6915TIP3    H120678   8.505   1.147   1.337 -0.3882 -0.1128 -1.2921
 6915TIP3    H220679   8.403   1.035   1.346  0.0087 -0.2486  2.3613
 6916TIP3   OH220680   6.518   1.791   6.879  0.0252 -0.2306  0.3440
 6916TIP3    H120681   6.512   1.848   6.802 -0.0104 -1.1770 -0.3517
 6916TIP3    H220682   6.490   1.705   6.848 -0.2256 -0.5635  1.4738
 6917TIP3   OH220683   7.234   3.344   3.386 -0.5483 -0.2732  0.6275
 6917TIP3    H120684   7.191   3.411   3.332 -1.5433 -1.4086 -0.0282
 6917TIP3    H220685   7.197   3.357   3.474  0.9709  1.4918  1.0293
 6918TIP3   OH220686   5.949   4.130   5.840  0.2059 -0.2117  0.1169
 6918TIP3    H120687   5.953   4.036   5.825  0.2457 -0.5515  2.0789
 6918TIP3    H220688   5.928   4.167   5.755 -1.4659 -2.1339 -0.3585
 6919TIP3   OH220689   6.433   2.178   3.409  0.4339 -0.2768  0.4012
 6919TIP3    H120690   6.364   2.243   3.397 -0.9169 -1.5907  0.8480
 6919TIP3    H220691   6.499   2.223   3.461 -0.1977  0.9340  0.1721
 6920TIP3   OH220692   7.131   3.967   3.019 -0.5022  0.9078 -0.1983
 6920TIP3    H120693   7.070   3.909   2.973  1.7915 -0.9351 -1.0045
 6920TIP3    H220694   7.173   4.018   2.950 -0.1169  1.1774  0.2326
 6921TIP3   OH220695   5.132   1.808   4.417 -0.1245 -0.3025  0.1248
 6921TIP3    H120696   5.040   1.805   4.394 -0.1325 -0.3231  0.1606
 6921TIP3    H220697   5.170   1.731   4.375 -0.2913 -0.7831  0.8379
 6922TIP3   OH220698   6.045   2.948   4.655 -0.6699 -0.3307  0.3155
 6922TIP3    H120699   5.966   2.983   4.614  0.1080  2.1498  0.8778
 6922TIP3    H220700   6.050   2.858   4.624 -2.2846  0.2853 -1.8262
 6923TIP3   OH220701   6.016   3.299   4.540 -0.6196 -0.3602 -0.2684
 6923TIP3    H120702   5.973   3.253   4.613 -0.4175  1.2397  0.8862
 6923TIP3    H220703   5.969   3.381   4.533  0.1508  0.0105 -1.1541
 6924TIP3   OH220704   3.748   3.204   2.714 -0.1075  0.4553  0.1305
 6924TIP3    H120705   3.791   3.262   2.652  0.4972 -0.3347 -0.1926
 6924TIP3    H220706   3.678   3.161   2.664 -0.7053  1.0680  0.4276
 6925TIP3   OH220707   6.083   2.964   3.741 -0.0421  0.1081  0.0456
 6925TIP3    H120708   6.036   3.046   3.724 -1.1707 -0.4959  0.1954
 6925TIP3    H220709   6.069   2.911   3.663 -0.3080 -0.3951  0.4310
 6926TIP3   OH220710   6.361   2.618   0.969 -0.6034  1.0623 -0.6660
 6926TIP3    H120711   6.395   2.690   1.023 -0.6014  0.1560  0.5735
 6926TIP3    H220712   6.434   2.556   0.964 -0.9075  0.7282 -0.9617
 6927TIP3   OH220713   7.420   3.500   4.341  0.4486 -0.2233  0.6959
 6927TIP3    H120714   7.501   3.448   4.344  0.6022 -0.1341 -1.4427
 6927TIP3    H220715   7.382   3.479   4.256 -2.1179 -0.7278  1.9376
 6928TIP3   OH220716   7.658   1.733   5.335  0.4511  0.1523 -0.3965
 6928TIP3    H120717   7.666   1.741   5.240  1.0554  1.2207 -0.2578
 6928TIP3    H220718   7.664   1.638   5.351 -3.7125 -0.4512 -1.7641
 6929TIP3   OH220719   5.800   0.585   3.546  0.4616  0.1732 -0.1767
 6929TIP3    H120720   5.762   0.591   3.459  1.1212 -0.5833 -0.5249
 6929TIP3    H220721   5.769   0.502   3.581  0.8430  0.0957 -0.0107
 6930TIP3   OH220722   6.916   1.501   4.377  0.2016  0.3466  0.0093
 6930TIP3    H120723   6.996   1.551   4.359 -0.2538  1.5783  1.3753
 6930TIP3    H220724   6.945   1.426   4.429  0.8125 -0.6024 -1.6380
 6931TIP3   OH220725   6.101   3.946   3.342  0.0026 -0.0904 -0.7403
 6931TIP3    H120726   6.164   3.885   3.380 -1.5047 -0.6843  0.8853
 6931TIP3    H220727   6.055   3.982   3.418  0.5071  2.6884 -1.7130
 6932TIP3   OH220728   7.070   1.718   4.265 -0.5600 -0.0803  0.1766
 6932TIP3    H120729   7.163   1.714   4.241 -0.5294 -0.4487  0.3533
 6932TIP3    H220730   7.024   1.713   4.181 -0.3876  2.4114 -0.1294
 6933TIP3   OH220731   5.069   1.594   6.729  0.1790  0.0296 -0.6078
 6933TIP3    H120732   5.098   1.524   6.671  0.7934 -2.1894  2.3000
 6933TIP3    H220733   5.148   1.645   6.746  0.0941  0.4028 -1.3086
 6934TIP3   OH220734   2.089   0.965   5.311 -0.1211 -0.2125 -0.1223
 6934TIP3    H120735   2.056   0.885   5.269 -0.1449 -0.2488 -0.0353
 6934TIP3    H220736   2.183   0.950   5.319 -0.1217 -0.2207 -0.1300
 6935TIP3   OH220737   6.760   4.325   5.367  0.4298  0.1575  0.3215
 6935TIP3    H120738   6.837   4.271   5.379  0.4119  0.0141 -0.2063
 6935TIP3    H220739   6.701   4.300   5.438  0.3234 -0.6809 -0.0629
 6936TIP3   OH220740   7.962   2.010   5.340  0.5856 -0.2381 -0.3826
 6936TIP3    H120741   8.008   1.948   5.396 -0.5732  0.7175  1.6663
 6936TIP3    H220742   7.872   2.012   5.374 -0.0256  0.7104 -1.9834
 6937TIP3   OH220743   7.133   2.438   4.870  0.0590 -0.3386 -0.1191
 6937TIP3    H120744   7.157   2.366   4.812 -0.7256  0.4163 -1.4038
 6937TIP3    H220745   7.205   2.501   4.860  0.2960 -0.5372  0.3142
 6938TIP3   OH220746   5.537   0.778   5.072  0.4816  0.0970  0.0658
 6938TIP3    H120747   5.615   0.742   5.112  0.3023 -0.6845 -0.2890
 6938TIP3    H220748   5.550   0.873   5.075  1.0958 -0.0110  0.6917
 6939TIP3   OH220749   4.628   5.138   4.620 -0.2428 -0.0094  0.0080
 6939TIP3    H120750   4.646   5.095   4.704 -2.2204 -2.2378 -0.6511
 6939TIP3    H220751   4.577   5.216   4.643 -0.2562 -0.2799  0.9030
 6940TIP3   OH220752   7.386   6.477   2.582  0.3112 -0.8329  0.2821
 6940TIP3    H120753   7.392   6.386   2.610  1.5328 -0.8534 -0.0491
 6940TIP3    H220754   7.443   6.525   2.642 -1.9996  0.0600  1.8689
 6941TIP3   OH220755   5.121   3.421   2.770  0.0310 -0.2761 -0.3934
 6941TIP3    H120756   5.080   3.447   2.853  0.8035  0.6786 -0.2968
 6941TIP3    H220757   5.062   3.355   2.733 -1.3863  0.7883 -0.0753
 6942TIP3   OH220758   3.930   4.316   2.201 -0.1461 -0.1278 -0.0718
 6942TIP3    H120759   3.902   4.259   2.129  0.9570 -0.3404 -0.3320
 6942TIP3    H220760   3.854   4.372   2.217 -1.7643 -2.5439  1.0850
 6943TIP3   OH220761   3.106   2.058   2.465 -0.3698  0.3754 -0.2945
 6943TIP3    H120762   3.026   2.053   2.518 -1.1970 -0.5745 -1.6020
 6943TIP3    H220763   3.078   2.102   2.384  0.3425 -0.3256 -0.9289
 6944TIP3   OH220764   1.423   2.755   2.962  0.1917 -0.2517  0.4411
 6944TIP3    H120765   1.356   2.706   2.913  1.0134 -1.5455  0.5845
 6944TIP3    H220766   1.489   2.777   2.896  0.4704 -0.5040  0.6366
 6945TIP3   OH220767   8.196   2.508   3.319 -0.1545  0.0180 -0.3906
 6945TIP3    H120768   8.115   2.537   3.278 -0.0752 -0.4094 -0.8611
 6945TIP3    H220769   8.222   2.580   3.376  0.1112  0.9325 -1.6415
 6946TIP3   OH220770   6.811   2.413   5.543  0.2734  0.1784 -0.2053
 6946TIP3    H120771   6.788   2.479   5.609 -0.7010  0.0423 -0.3935
 6946TIP3    H220772   6.728   2.368   5.525  0.5808  0.0429 -1.3346
 6947TIP3   OH220773   6.121   3.161   3.259 -0.1433  0.3953  0.4468
 6947TIP3    H120774   6.070   3.101   3.313  0.6688  0.0896  0.8883
 6947TIP3    H220775   6.187   3.196   3.319  1.2645 -0.5365 -0.5333
 6948TIP3   OH220776   8.219   3.204   4.515  0.4415 -0.9036  0.3701
 6948TIP3    H120777   8.133   3.233   4.485  0.1136 -2.2651 -0.0415
 6948TIP3    H220778   8.225   3.235   4.605  1.1662  2.6974 -0.7935
 6949TIP3   OH220779   4.583   3.769   4.090 -0.2294  0.0664  0.1023
 6949TIP3    H120780   4.646   3.804   4.153  1.3073  0.3264 -1.5666
 6949TIP3    H220781   4.574   3.837   4.023  0.8865 -1.6651 -1.8586
 6950TIP3   OH220782   7.520   2.764   4.845  0.4674  0.1943 -0.2592
 6950TIP3    H120783   7.570   2.844   4.858  1.4498 -0.5734  0.8263
 6950TIP3    H220784   7.587   2.695   4.835 -0.3555 -0.4591 -1.3225
 6951TIP3   OH220785   7.466   2.660   5.793  0.7615 -0.4263  0.5702
 6951TIP3    H120786   7.441   2.737   5.845  1.3500  0.0602  0.1359
 6951TIP3    H220787   7.384   2.611   5.782  0.5398 -0.2711  1.5219
 6952TIP3   OH220788   5.716   4.550   2.539 -0.0194 -0.4097  0.1690
 6952TIP3    H120789   5.810   4.535   2.532  0.2869  1.4984 -0.1434
 6952TIP3    H220790   5.702   4.572   2.631  0.2603  1.8743 -0.3138
 6953TIP3   OH220791   0.044   2.454   4.201  0.0701  0.1213  1.2494
 6953TIP3    H120792   0.102   2.512   4.251 -0.5596  2.8941 -1.0765
 6953TIP3    H220793  -0.041   2.499   4.202 -0.5629 -1.0183 -0.1606
 6954TIP3   OH220794   4.537   3.764   3.402  0.8833 -0.3610  0.0414
 6954TIP3    H120795   4.555   3.811   3.321  2.3119  1.2150  1.2391
 6954TIP3    H220796   4.611   3.785   3.459  0.2709 -2.0365  1.4924
 6955TIP3   OH220797   5.518   2.543   2.819  0.4964 -0.3564 -0.3016
 6955TIP3    H120798   5.540   2.486   2.893 -0.7784 -1.9906 -1.1443
 6955TIP3    H220799   5.602   2.574   2.787  1.1350 -0.5995  1.0884
 6956TIP3   OH220800   0.255   3.563   4.146 -0.3427  0.0276 -0.4211
 6956TIP3    H120801   0.195   3.628   4.109 -1.7558 -0.4180  1.0161
 6956TIP3    H220802   0.269   3.591   4.236 -1.8995 -2.2152  0.5852
 6957TIP3   OH220803   6.639   2.173   0.738 -0.0662  0.3216  0.5340
 6957TIP3    H120804   6.724   2.130   0.747  0.2459  1.1269  1.5202
 6957TIP3    H220805   6.590   2.116   0.679  0.8729 -0.5783  0.5988
 6958TIP3   OH220806   7.336   3.113   3.306  0.3158  0.3688  0.3081
 6958TIP3    H120807   7.274   3.167   3.355 -0.5960 -0.1456 -0.2441
 6958TIP3    H220808   7.297   3.105   3.219  0.7986 -0.5646  0.1700
 6959TIP3   OH220809   5.831   1.662   4.434  0.3797 -0.3455  0.0356
 6959TIP3    H120810   5.746   1.657   4.478 -0.6490  0.1115 -1.8648
 6959TIP3    H220811   5.844   1.574   4.397  1.8872 -1.1555  2.3364
 6960TIP3   OH220812   6.797   1.599   4.951  0.0158  0.1356  0.3001
 6960TIP3    H120813   6.807   1.636   4.864  0.8070  1.1187  0.7890
 6960TIP3    H220814   6.702   1.594   4.965 -0.1214  1.8047  0.1226
 6961TIP3   OH220815   3.768   2.540   5.004 -0.3942  0.4551 -0.4032
 6961TIP3    H120816   3.852   2.578   5.029 -1.1493  2.1163 -0.3004
 6961TIP3    H220817   3.733   2.601   4.938 -1.7486  0.0874 -0.0488
 6962TIP3   OH220818   5.691   4.066   4.696 -0.3364 -0.1961  0.4855
 6962TIP3    H120819   5.664   3.982   4.731 -0.2621 -1.8189 -3.0842
 6962TIP3    H220820   5.610   4.110   4.670 -0.1745 -1.1201 -1.7205
 6963TIP3   OH220821   6.217   1.552   2.677 -0.1704 -0.3693  0.2136
 6963TIP3    H120822   6.200   1.598   2.759  0.4950  1.1596 -0.4927
 6963TIP3    H220823   6.154   1.590   2.615  0.5124 -0.2617 -0.4233
 6964TIP3   OH220824   5.000   3.567   5.177 -0.1624 -0.0592 -0.5217
 6964TIP3    H120825   4.933   3.542   5.113 -0.2977  0.0474 -0.4217
 6964TIP3    H220826   5.082   3.566   5.127 -0.6096  2.6488 -1.3728
 6965TIP3   OH220827   4.193   1.873   4.543  0.4235  0.3138 -0.3277
 6965TIP3    H120828   4.167   1.913   4.627  0.6634  0.3422 -0.2654
 6965TIP3    H220829   4.144   1.922   4.477  2.6717  2.4851 -0.4697
 6966TIP3   OH220830   7.813   5.950   6.374 -0.3324 -0.6976  0.2881
 6966TIP3    H120831   7.878   6.020   6.379  0.3119 -1.0990 -2.0619
 6966TIP3    H220832   7.730   5.995   6.357 -0.1731 -0.4118  0.2662
 6967TIP3   OH220833   6.240   7.804   2.463  0.2508 -0.4616  0.0963
 6967TIP3    H120834   6.234   7.721   2.416  0.8130  0.2376 -1.2283
 6967TIP3    H220835   6.236   7.780   2.556 -0.5481 -1.8818 -0.2982
 6968TIP3   OH220836   5.148   0.874   1.201 -0.2963 -0.5446  0.0761
 6968TIP3    H120837   5.115   0.853   1.289 -1.2941  1.0228  0.1065
 6968TIP3    H220838   5.174   0.966   1.207  0.3335 -0.6335 -1.0808
 6969TIP3   OH220839   5.771   2.862   3.629  0.5142  0.5730  0.4808
 6969TIP3    H120840   5.814   2.856   3.544 -0.7348 -0.2679 -0.0993
 6969TIP3    H220841   5.717   2.784   3.635  0.3199  0.7928  1.9067
 6970TIP3   OH220842   4.843   2.789   4.739  0.5885  0.3406 -0.6657
 6970TIP3    H120843   4.766   2.760   4.690  2.9872 -3.4677 -2.3418
 6970TIP3    H220844   4.882   2.858   4.685  0.8594 -0.9034 -2.0818
 6971TIP3   OH220845   4.045   2.980   5.645  0.2144  0.5146 -0.5740
 6971TIP3    H120846   4.009   3.068   5.660  0.4052  0.1554  2.2458
 6971TIP3    H220847   3.998   2.924   5.708  1.5023 -1.0323 -0.9623
 6972TIP3   OH220848   6.690   3.455   5.884  0.1749  0.1031 -0.4648
 6972TIP3    H120849   6.698   3.458   5.979 -0.4511  1.7604 -0.4483
 6972TIP3    H220850   6.642   3.374   5.867 -1.2679  0.6693  0.7624
 6973TIP3   OH220851   5.637   3.874   5.851  0.5380 -0.3548  0.0317
 6973TIP3    H120852   5.582   3.819   5.906 -0.7411 -0.7347 -1.6051
 6973TIP3    H220853   5.613   3.964   5.874 -0.5564 -0.5184 -0.4670
 6974TIP3   OH220854   6.020   3.692   3.226  0.0089  0.2907 -0.3642
 6974TIP3    H120855   6.115   3.696   3.231 -0.0991 -0.1257  2.5179
 6974TIP3    H220856   5.997   3.762   3.164  2.1158  1.1292 -0.2398
 6975TIP3   OH220857   0.458   2.787   5.365  0.8551  0.4863 -0.0412
 6975TIP3    H120858   0.476   2.826   5.279  1.1573 -1.0821 -0.7033
 6975TIP3    H220859   0.530   2.818   5.420  3.3270 -2.2238 -1.5606
 6976TIP3   OH220860   3.985   4.767   4.282 -0.1303  0.0160 -0.3873
 6976TIP3    H120861   4.033   4.688   4.310  0.1850 -0.2005 -1.5331
 6976TIP3    H220862   3.986   4.763   4.187  1.2097  2.2278 -0.4767
 6977TIP3   OH220863   4.706   2.503   5.592  0.5943 -0.6187 -0.2289
 6977TIP3    H120864   4.659   2.446   5.531 -0.0708 -1.1443  0.7709
 6977TIP3    H220865   4.773   2.447   5.631  0.9443 -0.3131 -0.3875
 6978TIP3   OH220866   7.043   3.816   4.666 -0.2880  0.4050  0.3323
 6978TIP3    H120867   7.136   3.837   4.675 -0.0488 -0.7365  0.5794
 6978TIP3    H220868   7.035   3.728   4.703 -1.6307  0.8581  1.1349
 6979TIP3   OH220869   5.596   3.416   4.071 -0.0507  0.0312 -0.8562
 6979TIP3    H120870   5.651   3.415   3.993 -0.6428  0.6637 -1.2928
 6979TIP3    H220871   5.656   3.438   4.143  0.5638 -0.9324 -1.0692
 6980TIP3   OH220872   6.839   5.352   3.401 -0.4744 -0.1246  0.5238
 6980TIP3    H120873   6.873   5.391   3.320 -1.0521 -0.1907  0.2509
 6980TIP3    H220874   6.746   5.374   3.402 -0.0941  1.5420  2.1365
 6981TIP3   OH220875   5.641   3.403   3.396 -0.6497  0.2855 -0.4067
 6981TIP3    H120876   5.591   3.384   3.475  1.3450 -1.0263  0.5510
 6981TIP3    H220877   5.634   3.498   3.386 -1.2424  0.4146  1.0980
 6982TIP3   OH220878   6.058   2.124   5.187 -0.2913  0.0454  0.8938
 6982TIP3    H120879   6.035   2.045   5.236 -0.8766 -0.2784  0.1087
 6982TIP3    H220880   6.047   2.100   5.096  0.0854  0.8683  0.6227
 6983TIP3   OH220881   5.998   4.227   1.261 -0.5467  0.1686  0.2119
 6983TIP3    H120882   6.073   4.286   1.262 -1.1095  0.8916  0.1046
 6983TIP3    H220883   5.937   4.265   1.198 -0.3261 -1.2817 -0.9226
 6984TIP3   OH220884   7.796   3.334   6.753 -0.4030 -0.2074 -0.3580
 6984TIP3    H120885   7.793   3.405   6.817  1.5588 -0.5499  0.1235
 6984TIP3    H220886   7.714   3.286   6.767 -0.8393  0.8026  0.6185
 6985TIP3   OH220887   8.373   1.615   5.293  0.2476 -0.0178 -0.9785
 6985TIP3    H120888   8.326   1.605   5.210 -1.8618 -0.9226  0.2689
 6985TIP3    H220889   8.351   1.703   5.323 -0.1170 -0.1863 -0.7379
 6986TIP3   OH220890   6.710   2.723   4.313  1.0359  0.2474  0.0313
 6986TIP3    H120891   6.754   2.714   4.228 -0.6245 -0.9127 -0.7503
 6986TIP3    H220892   6.677   2.635   4.331 -0.8085  1.0516  0.6608
 6987TIP3   OH220893   5.158   1.221   3.541  0.4427  0.1246 -0.0703
 6987TIP3    H120894   5.253   1.211   3.535  0.3962 -1.3118  1.1736
 6987TIP3    H220895   5.136   1.188   3.628 -1.2204  0.2984 -0.4047
 6988TIP3   OH220896   5.538   1.821   3.994  0.5029 -0.3682  0.1048
 6988TIP3    H120897   5.607   1.813   4.060  0.8556  0.3402 -0.1767
 6988TIP3    H220898   5.458   1.834   4.044  1.1657  3.2724  0.3513
 6989TIP3   OH220899   4.688   7.861   5.497 -0.0644 -0.2863  0.2159
 6989TIP3    H120900   4.784   7.851   5.494  0.1429  0.8917  1.7114
 6989TIP3    H220901   4.655   7.793   5.439  1.7195 -0.1736 -0.9975
 6990TIP3   OH220902   5.458   1.892   2.058 -0.3947 -0.6473  0.2494
 6990TIP3    H120903   5.536   1.865   2.009 -0.5058 -1.3118  0.4367
 6990TIP3    H220904   5.492   1.920   2.143 -0.2008  0.5179 -0.2108
 6991TIP3   OH220905   5.228   3.640   2.915 -0.1401  0.1635 -0.0351
 6991TIP3    H120906   5.231   3.703   2.843 -1.0164  1.2809  0.8817
 6991TIP3    H220907   5.228   3.555   2.873 -0.8651  0.8050 -1.3670
 6992TIP3   OH220908   5.598   1.628   4.566  0.1883 -0.3447  0.1477
 6992TIP3    H120909   5.538   1.694   4.599 -0.9104 -0.6074 -1.2854
 6992TIP3    H220910   5.574   1.548   4.613  1.6462  0.2833  2.0274
 6993TIP3   OH220911   5.934   0.791   4.388  0.3717 -0.4111  0.0715
 6993TIP3    H120912   5.934   0.882   4.359  0.4837 -0.7154 -0.8997
 6993TIP3    H220913   5.936   0.740   4.308  1.4321 -1.2669  0.6209
 6994TIP3   OH220914   7.238   3.311   5.530  0.2352  0.5025 -0.0057
 6994TIP3    H120915   7.298   3.298   5.603  0.7939 -0.1215 -0.5623
 6994TIP3    H220916   7.189   3.229   5.524  0.3518  0.4627 -0.4718
 6995TIP3   OH220917   7.475   4.619   6.021  0.4876 -0.5867  0.4323
 6995TIP3    H120918   7.418   4.650   5.951 -1.8810 -0.0916  2.5037
 6995TIP3    H220919   7.551   4.676   6.018 -0.7331  1.0494 -0.1601
 6996TIP3   OH220920   5.595   0.557   5.612  0.2790  0.1044 -0.3804
 6996TIP3    H120921   5.588   0.468   5.578 -0.6657 -0.4238  1.1647
 6996TIP3    H220922   5.621   0.546   5.704  0.6007  1.4301 -0.3003
 6997TIP3   OH220923   6.909   0.381   5.760 -0.7449  0.0875  0.4784
 6997TIP3    H120924   6.944   0.396   5.848  2.2118  0.2316 -0.6707
 6997TIP3    H220925   6.887   0.468   5.727 -1.5139  0.0667  0.9258
 6998TIP3   OH220926   3.853   3.016   3.624  0.2401  0.2184  0.2436
 6998TIP3    H120927   3.816   2.959   3.557 -0.4048  0.6246  0.2555
 6998TIP3    H220928   3.946   3.024   3.599  0.5337 -1.4861  0.6998
 6999TIP3   OH220929   6.110   1.188   4.272 -0.3369 -0.0081 -0.2707
 6999TIP3    H120930   6.184   1.133   4.246  0.4504  1.6947 -1.7996
 6999TIP3    H220931   6.141   1.236   4.348  0.9424  2.2129 -2.1146
 7000TIP3   OH220932   5.524   4.343   6.011 -0.5359 -0.2257 -0.4648
 7000TIP3    H120933   5.548   4.420   6.062 -0.4819 -1.4220  1.3427
 7000TIP3    H220934   5.592   4.337   5.944 -0.6532  1.4046 -0.7520
 7001TIP3   OH220935  -0.003   2.453   3.916  0.6707  0.0454 -0.0057
 7001TIP3    H120936   0.023   2.490   4.000 -1.1712 -0.6179  0.8727
 7001TIP3    H220937  -0.011   2.359   3.932  1.3510 -0.2324 -1.2032
 7002TIP3   OH220938   8.439   5.452   2.404 -0.3509 -0.4864  0.2391
 7002TIP3    H120939   8.356   5.476   2.362 -0.1134  1.1192  0.6485
 7002TIP3    H220940   8.434   5.357   2.415 -2.1168 -0.4129  0.2042
 7003TIP3   OH220941   6.847   4.729   5.325  0.4670 -0.3555 -0.0473
 7003TIP3    H120942   6.788   4.803   5.328  3.0327  1.8368 -1.5215
 7003TIP3    H220943   6.877   4.725   5.234  1.7711 -2.0259  0.4210
 7004TIP3   OH220944   6.542   2.440   2.078  0.6230 -0.3935 -0.5733
 7004TIP3    H120945   6.521   2.434   2.171 -0.0927 -0.7013 -0.7563
 7004TIP3    H220946   6.493   2.370   2.037 -0.1183  0.5719 -1.3732
 7005TIP3   OH220947  -0.006   3.455   3.802 -0.4438 -0.4580  0.1321
 7005TIP3    H120948   0.052   3.380   3.809 -1.3715 -1.2188 -0.2122
 7005TIP3    H220949  -0.019   3.468   3.708  0.0322  0.3902  0.1742
 7006TIP3   OH220950   8.070   3.226   2.138  0.3507  0.0247 -0.2182
 7006TIP3    H120951   8.162   3.253   2.131  0.0845  1.1068  0.3083
 7006TIP3    H220952   8.074   3.131   2.145  1.3743 -0.0186 -1.1304
 7007TIP3   OH220953   6.327   3.742   4.202 -0.2227  0.6239 -0.3941
 7007TIP3    H120954   6.369   3.822   4.233 -1.0136  0.3590  1.4320
 7007TIP3    H220955   6.304   3.694   4.282  0.0149 -1.3217 -1.4484
 7008TIP3   OH220956   4.728   7.480   3.504  0.1476  0.2418 -0.4659
 7008TIP3    H120957   4.741   7.573   3.483 -1.0755  0.9623  1.7639
 7008TIP3    H220958   4.705   7.480   3.597  0.9727 -2.3893 -0.2330
 7009TIP3   OH220959   6.487   3.147   3.780  0.1464  0.1487 -0.0882
 7009TIP3    H120960   6.487   3.052   3.789  2.4844 -0.0051 -1.4791
 7009TIP3    H220961   6.486   3.179   3.870  1.1025 -1.2149  0.4260
 7010TIP3   OH220962   6.039   1.719   2.516  0.1497 -0.0633  0.1937
 7010TIP3    H120963   6.035   1.814   2.521  0.7321 -0.0011 -0.5076
 7010TIP3    H220964   5.947   1.692   2.510  0.0054  0.4772 -0.0640
 7011TIP3   OH220965   4.756   4.035   5.655 -0.4464  0.2903 -0.1169
 7011TIP3    H120966   4.703   3.957   5.675  0.3309 -0.2364 -0.0781
 7011TIP3    H220967   4.815   4.006   5.585  0.5172  0.5529  0.5774
 7012TIP3   OH220968   1.007   2.339   5.662 -0.3164 -0.2782  0.0446
 7012TIP3    H120969   1.093   2.337   5.621 -0.7485  0.1325 -0.9089
 7012TIP3    H220970   0.946   2.354   5.589 -1.1555 -0.1804  0.7538
 7013TIP3   OH220971   6.515   5.701   1.664  0.3522  0.2868 -0.5077
 7013TIP3    H120972   6.529   5.788   1.702 -1.6455  1.0272 -1.3836
 7013TIP3    H220973   6.590   5.687   1.606 -0.1743  2.1905 -1.6829
 7014TIP3   OH220974   8.064   3.784   3.263  0.4593  0.1440 -0.0182
 7014TIP3    H120975   7.990   3.829   3.223  0.7155 -0.1498 -0.8370
 7014TIP3    H220976   8.029   3.699   3.289  0.5732 -0.0830 -0.6173
 7015TIP3   OH220977   5.824   2.415   2.256 -0.5236  0.3401 -0.1176
 7015TIP3    H120978   5.810   2.422   2.162  0.2420 -1.8570 -0.4451
 7015TIP3    H220979   5.912   2.452   2.269 -0.4239  0.1929 -0.3503
 7016TIP3   OH220980   1.222   4.092   3.694 -0.6819 -0.2389 -0.3779
 7016TIP3    H120981   1.310   4.125   3.679 -0.3698 -0.0540  1.6952
 7016TIP3    H220982   1.228   3.998   3.677 -0.0019 -0.2851  0.1037
 7017TIP3   OH220983   8.212   2.132   2.580 -0.6614 -0.0779  0.0568
 7017TIP3    H120984   8.276   2.067   2.608 -2.2970 -1.7406  0.0054
 7017TIP3    H220985   8.223   2.138   2.485  0.2102  0.5310  0.1860
 7018TIP3   OH220986   5.776   2.737   5.254  0.3268 -0.0681  0.4118
 7018TIP3    H120987   5.778   2.675   5.181  1.3575 -0.1745  0.5175
 7018TIP3    H220988   5.725   2.811   5.222  1.7879  0.4253 -0.8722
 7019TIP3   OH220989   7.968   3.121   3.606 -0.1007 -0.3919 -0.0586
 7019TIP3    H120990   7.899   3.092   3.665 -0.9924  1.5431 -0.1242
 7019TIP3    H220991   8.031   3.166   3.663  1.5648 -2.8926  0.1316
 7020TIP3   OH220992   6.718   4.130   4.087 -0.6459 -1.0258  0.2338
 7020TIP3    H120993   6.735   4.036   4.080 -1.4371 -1.0746 -1.1097
 7020TIP3    H220994   6.798   4.166   4.125  1.3469 -1.6397 -3.2591
 7021TIP3   OH220995   7.379   4.627   4.741 -0.3296  0.0414  0.2390
 7021TIP3    H120996   7.308   4.689   4.755  0.1196  0.6654 -0.2110
 7021TIP3    H220997   7.382   4.575   4.821  1.1720  2.4833  1.8456
 7022TIP3   OH220998  -0.027   3.156   2.547 -0.4821 -0.1274  0.4351
 7022TIP3    H120999   0.036   3.112   2.490  0.5290  0.2867  1.2122
 7022TIP3    H221000   0.024   3.181   2.624 -1.3791  1.1046  0.6441
 7023TIP3   OH221001   6.081   3.096   2.781 -0.1707 -0.5593 -0.3200
 7023TIP3    H121002   6.024   3.079   2.856 -0.4165  0.1787 -0.3386
 7023TIP3    H221003   6.025   3.086   2.705  0.4405 -2.8973 -0.5116
 7024TIP3   OH221004   6.838   2.675   4.053 -0.0289 -0.0603  0.1880
 7024TIP3    H121005   6.777   2.604   4.033 -0.2964  0.2321 -0.0596
 7024TIP3    H221006   6.869   2.705   3.968  0.2178  0.0032  0.2986
 7025TIP3   OH221007   7.451   2.635   4.341  0.1778  0.7611 -0.0420
 7025TIP3    H121008   7.456   2.730   4.332 -0.8584  0.9427  1.1610
 7025TIP3    H221009   7.409   2.606   4.261 -1.4518  1.5323  0.5241
 7026TIP3   OH221010   7.026   2.507   1.943 -0.0426 -0.0260 -0.1123
 7026TIP3    H121011   7.064   2.583   1.899  0.0398 -0.4649 -0.8099
 7026TIP3    H221012   6.934   2.507   1.917 -0.0661 -0.1042 -0.0272
 7027TIP3   OH221013   7.794   2.455   1.568 -0.1012 -0.1770 -0.3282
 7027TIP3    H121014   7.850   2.524   1.535 -1.3763  0.5983 -0.8986
 7027TIP3    H221015   7.855   2.385   1.594  1.1333  0.7886 -0.5773
 7028TIP3   OH221016   1.634   4.162   1.083  0.3864  0.2623  0.6188
 7028TIP3    H121017   1.644   4.155   1.178  0.4413  0.0793  0.5993
 7028TIP3    H221018   1.673   4.082   1.048  0.3189  0.3037  0.4447
 7029TIP3   OH221019   8.457   1.356   2.693  0.5733 -0.8832  0.2387
 7029TIP3    H121020   8.445   1.317   2.780  0.7031 -0.7346  0.3232
 7029TIP3    H221021   8.538   1.317   2.661 -0.8498 -2.9932 -0.9334
 7030TIP3   OH221022   6.757   1.083   5.091 -0.6909 -0.2754  0.0210
 7030TIP3    H121023   6.705   1.153   5.132 -0.8921  0.2751 -1.1488
 7030TIP3    H221024   6.723   1.003   5.130 -1.3121  0.1953  0.4660
 7031TIP3   OH221025   6.795   3.085   2.991 -0.0792  0.1704 -0.5892
 7031TIP3    H121026   6.805   3.079   3.086  1.6478  1.1566 -0.6748
 7031TIP3    H221027   6.732   3.156   2.979  0.0285  0.3423 -0.1804
 7032TIP3   OH221028   6.173   1.449   3.443 -1.0076  0.4704 -0.3868
 7032TIP3    H121029   6.180   1.438   3.538 -0.3659  0.4673 -0.4304
 7032TIP3    H221030   6.254   1.411   3.409 -1.0923  0.7627 -0.9125
 7033TIP3   OH221031   0.651   1.344   4.212 -0.5959  0.4197  0.1344
 7033TIP3    H121032   0.686   1.315   4.127  0.7991  0.9150  0.5299
 7033TIP3    H221033   0.701   1.294   4.276 -1.6388  0.0631  0.6730
 7034TIP3   OH221034   5.604   1.682   2.187  0.2714  0.6226 -0.4000
 7034TIP3    H121035   5.582   1.595   2.154  1.8120 -0.8705  2.3581
 7034TIP3    H221036   5.520   1.719   2.214 -0.2377 -0.5500 -0.3352
 7035TIP3   OH221037   6.407   2.893   3.656 -0.5325  0.0763  0.0179
 7035TIP3    H121038   6.313   2.911   3.652 -0.3256  1.1848 -0.0277
 7035TIP3    H221039   6.445   2.943   3.584  0.1863  0.3099  0.5422
 7036TIP3   OH221040   0.094   0.872   4.563  0.5508  0.1431  0.2888
 7036TIP3    H121041   0.074   0.814   4.489 -0.8494  0.7763  0.1488
 7036TIP3    H221042   0.099   0.959   4.525  2.2245  0.1859  0.5723
 7037TIP3   OH221043   7.597   1.817   5.912 -0.3057  0.5675 -0.0739
 7037TIP3    H121044   7.614   1.747   5.975  0.8398  0.2117 -0.7454
 7037TIP3    H221045   7.589   1.771   5.828  0.2068  1.2117 -0.4817
 7038TIP3   OH221046   7.351   1.843   4.807  0.0346 -0.4372  0.2919
 7038TIP3    H121047   7.392   1.764   4.844  2.0934 -0.2956 -1.5547
 7038TIP3    H221048   7.320   1.892   4.884  0.0316 -2.3370  1.5418
 7039TIP3   OH221049   6.577   2.947   3.343 -0.2024  0.0787 -0.4584
 7039TIP3    H121050   6.638   3.020   3.347 -1.9432  1.5511 -0.1919
 7039TIP3    H221051   6.495   2.985   3.312 -1.3078 -1.6425  0.2421
 7040TIP3   OH221052   7.412   1.389   4.606  0.1512 -0.0842 -0.1944
 7040TIP3    H121053   7.326   1.363   4.638  0.8172 -1.6735  0.3766
 7040TIP3    H221054   7.450   1.441   4.676 -0.0453 -0.0107 -0.1427
 7041TIP3   OH221055   7.685   1.441   5.381 -0.2274  0.5665  0.0741
 7041TIP3    H121056   7.707   1.416   5.471 -0.5790  0.9647  0.2741
 7041TIP3    H221057   7.750   1.397   5.327  0.7031  1.2511  0.6162
 7042TIP3   OH221058   0.100   2.268   2.919 -0.4951  0.0733 -0.5281
 7042TIP3    H121059   0.163   2.203   2.952  1.0139  0.1484 -3.0887
 7042TIP3    H221060   0.101   2.338   2.984  1.0586 -0.5664  0.1780
 7043TIP3   OH221061   6.372   2.669   4.344 -0.5999 -0.1525  0.1565
 7043TIP3    H121062   6.378   2.717   4.427 -0.5014 -1.0415  0.6775
 7043TIP3    H221063   6.435   2.598   4.353 -1.6304 -1.1230 -0.0872
 7044TIP3   OH221064   6.206   3.486   3.497  0.2301  0.3137 -0.5401
 7044TIP3    H121065   6.266   3.485   3.571 -0.2252  1.5242 -0.1334
 7044TIP3    H221066   6.119   3.474   3.536 -0.2822  3.3524 -0.5534
 7045TIP3   OH221067   0.421   2.075   3.312  0.1325 -0.2608  0.0096
 7045TIP3    H121068   0.374   1.994   3.292 -0.0884 -0.5468  1.5701
 7045TIP3    H221069   0.473   2.053   3.390  0.1909  1.0549  0.3518
 7046TIP3   OH221070   4.616   5.916   4.059 -0.2768  0.6205 -0.8383
 7046TIP3    H121071   4.650   5.951   4.142 -1.8108 -0.6562  0.3803
 7046TIP3    H221072   4.551   5.981   4.031 -0.5165  0.5452 -0.4697
 7047TIP3   OH221073   6.317   3.532   4.710  0.1564  0.2213  0.3828
 7047TIP3    H121074   6.362   3.519   4.793  0.2938 -1.2587  0.0920
 7047TIP3    H221075   6.231   3.567   4.734  0.3962  0.3189  1.1114
 7048TIP3   OH221076   7.988   2.093   2.229  0.6443 -0.2917  0.8538
 7048TIP3    H121077   7.922   2.074   2.164 -0.2659  2.4834  0.9019
 7048TIP3    H221078   7.977   2.025   2.296 -1.0442 -0.8192  0.0555
 7049TIP3   OH221079   7.066   2.548   4.168  0.0608  0.1338 -0.7518
 7049TIP3    H121080   6.989   2.594   4.132 -0.3240 -0.2910 -0.4765
 7049TIP3    H221081   7.062   2.565   4.262  1.1549  1.3764 -0.9113
 7050TIP3   OH221082   8.188   2.947   4.450  0.0865 -0.5117 -0.0515
 7050TIP3    H121083   8.215   3.035   4.475  3.1774 -1.2970 -0.4441
 7050TIP3    H221084   8.208   2.894   4.527  0.4460 -1.2666 -0.6629
 7051TIP3   OH221085   7.142   4.045   1.794  0.1505  0.1014  0.0830
 7051TIP3    H121086   7.178   4.134   1.790  1.3466 -0.2955  1.6521
 7051TIP3    H221087   7.090   4.044   1.874  0.6993 -0.8213  0.4258
 7052TIP3   OH221088   7.453   3.205   2.400 -0.3723 -0.2069  0.0645
 7052TIP3    H121089   7.522   3.187   2.463 -1.5691  1.0330  1.7910
 7052TIP3    H221090   7.400   3.126   2.398  0.2351 -0.6127 -0.1569
 7053TIP3   OH221091   6.622   3.291   2.937  0.0512  0.5190  0.1544
 7053TIP3    H121092   6.631   3.339   2.855  1.0735  0.1978  0.0826
 7053TIP3    H221093   6.583   3.355   2.998  0.2477  1.0601 -0.2870
 7054TIP3   OH221094   0.676   5.942   3.946  0.2826  0.0866 -0.2251
 7054TIP3    H121095   0.714   6.028   3.926 -0.9405  0.6486 -0.1637
 7054TIP3    H221096   0.651   5.948   4.039  0.1386 -0.3148 -0.2356
 7055TIP3   OH221097   6.520   1.773   2.207 -0.1376  0.1227  0.3671
 7055TIP3    H121098   6.467   1.786   2.286 -0.3658 -0.4758  0.3222
 7055TIP3    H221099   6.610   1.784   2.236 -0.2632  0.6824  0.5467
 7056TIP3   OH221100   6.178   3.094   4.043  0.0855 -0.1448  0.6794
 7056TIP3    H121101   6.186   3.116   4.136  1.4550 -0.1868  0.5901
 7056TIP3    H221102   6.235   3.018   4.031  1.3079  0.9153 -0.5258
 7057TIP3   OH221103   0.638   1.509   2.278  0.1841  0.1378 -0.4732
 7057TIP3    H121104   0.604   1.472   2.196  0.0252  2.3138 -1.4368
 7057TIP3    H221105   0.733   1.497   2.272  0.0798 -0.6950 -0.4705
 7058TIP3   OH221106   8.188   3.326   3.171  0.6245  0.1965  0.1614
 7058TIP3    H121107   8.235   3.261   3.120 -1.9944 -0.0020 -2.1487
 7058TIP3    H221108   8.142   3.275   3.238 -0.9505 -0.3171 -1.2739
 7059TIP3   OH221109   8.192   2.788   3.673 -0.1896 -0.5200  0.3210
 7059TIP3    H121110   8.130   2.822   3.737  1.1647 -0.2185  1.5067
 7059TIP3    H221111   8.203   2.696   3.696  0.3894 -0.3827  0.6039
 7060TIP3   OH221112   8.210   1.814   2.142 -0.4080  0.2624 -0.3388
 7060TIP3    H121113   8.176   1.827   2.231  0.9658  0.7487  0.1313
 7060TIP3    H221114   8.303   1.838   2.148 -0.1916 -0.1444 -1.8013
 7061TIP3   OH221115   6.362   4.658   2.890 -0.0330  0.4949  0.2858
 7061TIP3    H121116   6.374   4.694   2.978 -0.2438  0.8927  0.1559
 7061TIP3    H221117   6.405   4.573   2.892  0.6238  0.8350  0.5488
 7062TIP3   OH221118   6.769   1.927   2.627  0.2437  0.2847  0.2867
 7062TIP3    H121119   6.763   1.879   2.709  1.5179  0.2788  0.3845
 7062TIP3    H221120   6.836   1.993   2.642  0.0351  0.6939 -0.5374
 7063TIP3   OH221121   5.539   0.329   5.456 -0.4344 -0.3955 -0.3465
 7063TIP3    H121122   5.487   0.305   5.379  1.5773 -1.0265 -1.5469
 7063TIP3    H221123   5.564   0.245   5.495  0.2706 -0.1169 -0.1918
 7064TIP3   OH221124   0.395   1.561   2.734  0.2141 -0.3205 -0.8365
 7064TIP3    H121125   0.362   1.596   2.651 -1.5193 -1.3807 -0.6060
 7064TIP3    H221126   0.414   1.469   2.715  0.7464 -0.3261 -0.2993
 7065TIP3   OH221127   7.940   5.403   3.655  0.5846 -0.5008  0.7337
 7065TIP3    H121128   7.956   5.498   3.658  0.3566 -0.3312 -1.8106
 7065TIP3    H221129   7.869   5.388   3.717 -0.1596  1.1944  0.3234
 7066TIP3   OH221130   1.727   3.949   3.183  0.2433  0.2000 -0.2470
 7066TIP3    H121131   1.797   3.887   3.161  1.8101  1.6720  0.5116
 7066TIP3    H221132   1.767   4.035   3.172 -0.7542  1.0472  2.4093
 7067TIP3   OH221133   6.690   3.789   1.385  0.5520  0.2907 -0.2322
 7067TIP3    H121134   6.615   3.845   1.365  0.0445 -0.5634 -0.7834
 7067TIP3    H221135   6.747   3.797   1.309  0.4053 -0.0526 -0.3807
 7068TIP3   OH221136   7.977   1.658   4.390 -0.1630 -0.1366  0.0102
 7068TIP3    H121137   7.885   1.686   4.388 -0.0873  0.0511 -1.2041
 7068TIP3    H221138   8.026   1.740   4.398 -0.1257 -0.3045  1.7068
 7069TIP3   OH221139   0.277   3.480   4.783 -0.4398 -0.0910  0.1033
 7069TIP3    H121140   0.333   3.404   4.801 -0.1694  0.0040 -0.3254
 7069TIP3    H221141   0.233   3.498   4.866  0.1442 -0.1904  0.4364
 7070TIP3   OH221142   0.644   2.411   3.850  0.2735 -0.3505 -0.5100
 7070TIP3    H121143   0.621   2.423   3.758 -0.5572 -1.7776 -0.4957
 7070TIP3    H221144   0.581   2.348   3.884  2.0789 -1.7417  0.3959
 7071TIP3   OH221145   7.254   0.524   1.093  0.5439 -0.2804 -0.4127
 7071TIP3    H121146   7.321   0.508   1.160  0.3958 -0.5926 -0.3378
 7071TIP3    H221147   7.264   0.616   1.070  2.1192 -0.7226 -1.6027
 7072TIP3   OH221148   7.888   2.146   4.131  0.4035 -0.2503  0.1654
 7072TIP3    H121149   7.813   2.086   4.129  0.3374 -0.1451 -0.9488
 7072TIP3    H221150   7.925   2.141   4.043  0.2713  1.4864 -0.0108
 7073TIP3   OH221151   7.804   2.388   3.776 -0.2518  0.3202  0.0583
 7073TIP3    H121152   7.854   2.396   3.857  2.8806  0.9922 -1.8523
 7073TIP3    H221153   7.785   2.295   3.769  2.7180 -0.3105 -0.2535
 7074TIP3   OH221154   4.580   3.023   3.540  0.5354  0.5136 -0.2086
 7074TIP3    H121155   4.519   2.952   3.522  0.5112  0.9315 -1.8842
 7074TIP3    H221156   4.666   2.981   3.547  0.2089  0.0578  1.0357
 7075TIP3   OH221157   7.105   3.597   3.325  0.8652  1.1993 -0.0559
 7075TIP3    H121158   7.140   3.684   3.306 -0.3945  1.7531  0.0947
 7075TIP3    H221159   7.026   3.614   3.376  0.7341 -0.0451  0.1638
 7076TIP3   OH221160   0.170   5.173   2.816  0.2947 -0.3160 -0.6506
 7076TIP3    H121161   0.202   5.264   2.814 -1.9363  0.4932 -2.6365
 7076TIP3    H221162   0.166   5.151   2.909  0.3972  1.8083 -0.1173
 7077TIP3   OH221163   7.132   2.792   4.568  0.4557  0.1944  0.3098
 7077TIP3    H121164   7.045   2.832   4.570 -0.3112 -1.1501 -3.1201
 7077TIP3    H221165   7.192   2.865   4.552 -0.3625  0.7644 -0.1761
 7078TIP3   OH221166   7.952   3.970   3.070  0.3569  0.5051 -0.0677
 7078TIP3    H121167   7.870   3.985   3.024  0.2151  0.9756  0.3260
 7078TIP3    H221168   7.995   3.899   3.022 -0.5596 -0.1588  0.0962
 7079TIP3   OH221169   6.317   3.830   4.555 -0.2092 -0.4462  0.4809
 7079TIP3    H121170   6.286   3.914   4.589 -2.4370  0.2350 -2.9700
 7079TIP3    H221171   6.242   3.771   4.566 -1.1552 -0.1139 -3.2681
 7080TIP3   OH221172   7.804   3.802   3.932 -0.5599 -0.5157 -0.4137
 7080TIP3    H121173   7.898   3.802   3.947 -0.6155  0.2939 -0.0216
 7080TIP3    H221174   7.795   3.792   3.837 -0.1040 -1.2901 -0.3810
 7081TIP3   OH221175   6.824   2.421   3.409 -0.2952  0.5934  0.3619
 7081TIP3    H121176   6.878   2.360   3.358  0.8786  0.7054  1.4448
 7081TIP3    H221177   6.769   2.464   3.344  0.3484 -0.1075 -0.6704
 7082TIP3   OH221178   6.365   1.952   3.811 -0.6606  0.0462 -0.5621
 7082TIP3    H121179   6.424   1.876   3.816 -1.2209 -0.4084 -0.8415
 7082TIP3    H221180   6.419   2.021   3.772  0.3437  0.2809  1.1849
 7083TIP3   OH221181   3.840   4.088   3.500 -0.0287 -0.3350 -0.2833
 7083TIP3    H121182   3.782   4.088   3.576  1.5800 -0.6820  0.9757
 7083TIP3    H221183   3.825   4.173   3.458 -1.4017 -0.4107  0.0348
 7084TIP3   OH221184   6.761   4.325   4.476  0.1482 -0.1580 -0.4036
 7084TIP3    H121185   6.742   4.269   4.552  0.3556 -0.4467 -0.5629
 7084TIP3    H221186   6.852   4.306   4.455  0.3313  0.5116 -0.2342
 7085TIP3   OH221187   7.845   3.510   3.917 -0.6054 -0.0702 -0.1870
 7085TIP3    H121188   7.802   3.571   3.976 -1.4913  0.0637 -0.9625
 7085TIP3    H221189   7.873   3.438   3.973  1.5510  1.5982  0.9452
 7086TIP3   OH221190   6.105   3.214   1.518 -0.7047  0.0359 -0.4901
 7086TIP3    H121191   6.152   3.289   1.554 -1.4333 -0.0988  0.7525
 7086TIP3    H221192   6.036   3.251   1.463 -0.5108  0.2538 -0.5861
 7087TIP3   OH221193   6.724   2.444   3.988  0.6489 -0.2973 -0.1748
 7087TIP3    H121194   6.765   2.370   3.942  1.9846 -0.9865  2.0721
 7087TIP3    H221195   6.630   2.431   3.972  0.9216 -1.9168 -0.6424
 7088TIP3   OH221196   6.563   4.699   4.444 -0.0466 -0.1716  0.0330
 7088TIP3    H121197   6.536   4.789   4.423 -1.2995 -0.2388  1.3135
 7088TIP3    H221198   6.659   4.703   4.446 -0.0230  0.7735 -1.4450
 7089TIP3   OH221199   7.608   1.231   2.246  0.1177  0.2117 -0.1933
 7089TIP3    H121200   7.701   1.248   2.258  0.1918 -0.2510 -0.1164
 7089TIP3    H221201   7.602   1.191   2.159  0.0761 -0.4211  0.0976
 7090TIP3   OH221202   8.049   1.259   5.107  0.1577  0.3186  0.2185
 7090TIP3    H121203   7.992   1.301   5.170 -0.0943  0.4549 -0.0963
 7090TIP3    H221204   8.017   1.169   5.100 -1.5311  1.0403 -1.7300
 7091TIP3   OH221205   6.757   4.753   4.170 -0.2834 -0.2189 -0.1076
 7091TIP3    H121206   6.698   4.778   4.241  0.1152  1.5347 -0.3542
 7091TIP3    H221207   6.845   4.762   4.207 -0.1115 -0.4759 -0.4471
 7092TIP3   OH221208   8.485   4.494   3.241 -0.2494 -0.5343 -0.1532
 7092TIP3    H121209   8.451   4.420   3.190  0.6700 -0.4648 -0.9019
 7092TIP3    H221210   8.417   4.561   3.235  0.4486  0.0054 -2.5322
 7093TIP3   OH221211   6.507   3.897   3.988  0.3432 -0.1445 -0.0037
 7093TIP3    H121212   6.442   3.877   4.056 -1.6719  0.3606 -1.7085
 7093TIP3    H221213   6.590   3.903   4.035 -1.2072  1.6211  2.6266
 7094TIP3   OH221214   3.087   5.854   3.245  0.3393  0.0341  0.3547
 7094TIP3    H121215   3.154   5.788   3.256  2.2326  1.8541  0.1187
 7094TIP3    H221216   3.100   5.887   3.155 -1.1680  0.0815  0.1423
 7095TIP3   OH221217   6.410   4.652   5.266  0.0419 -0.1059  0.7339
 7095TIP3    H121218   6.447   4.739   5.256 -1.8539  0.5546 -0.6883
 7095TIP3    H221219   6.476   4.593   5.228  0.0161  0.9684 -1.0125
 7096TIP3   OH221220   5.705   3.591   6.816  0.1564 -0.0439  0.2013
 7096TIP3    H121221   5.731   3.589   6.724 -0.2522 -1.4590  0.1039
 7096TIP3    H221222   5.634   3.655   6.820 -0.3162 -0.5069 -0.6109
 7097TIP3   OH221223   7.737   4.999   3.879 -0.5563 -0.0052 -0.9776
 7097TIP3    H121224   7.816   4.967   3.922  0.4615  1.8485 -1.4217
 7097TIP3    H221225   7.681   5.030   3.951 -0.4109 -0.2781 -0.7460
 7098TIP3   OH221226   0.098   5.327   3.720  0.1869 -0.2215 -0.0763
 7098TIP3    H121227   0.025   5.390   3.720  0.2753 -0.0799 -1.9932
 7098TIP3    H221228   0.118   5.314   3.813 -0.1971  2.1520  0.3897
 7099TIP3   OH221229   4.081   3.938   3.433  0.1614  0.0125 -0.0135
 7099TIP3    H121230   4.011   3.991   3.470 -0.4916 -0.1477 -1.0164
 7099TIP3    H221231   4.115   3.888   3.508  0.4619  1.4557  0.8357
 7100TIP3   OH221232   5.776   4.166   3.320  0.1565  0.3111 -0.4329
 7100TIP3    H121233   5.831   4.124   3.385 -1.2863  0.0329  0.6336
 7100TIP3    H221234   5.733   4.238   3.368  0.2087  1.0193 -1.4387
 7101TIP3   OH221235   7.515   3.863   3.174  0.0649  0.0593  0.1897
 7101TIP3    H121236   7.500   3.956   3.189 -0.0501  0.0501  0.1301
 7101TIP3    H221237   7.475   3.820   3.249 -0.8046 -0.0064 -0.3062
 7102TIP3   OH221238   0.521   1.793   3.130  0.0014  0.1867 -0.8871
 7102TIP3    H121239   0.453   1.802   3.064  0.4705  0.4777 -1.3319
 7102TIP3    H221240   0.603   1.792   3.081  0.2397 -1.7670 -0.4980
 7103TIP3   OH221241   6.415   3.353   4.014  0.1351  0.0592  0.2480
 7103TIP3    H121242   6.494   3.353   4.069  0.4104 -1.7957 -0.1470
 7103TIP3    H221243   6.355   3.293   4.058  0.2336 -1.1833 -1.3201
 7104TIP3   OH221244   7.787   4.112   3.574 -0.1111  0.1550 -0.4965
 7104TIP3    H121245   7.831   4.076   3.497  0.0485  0.1796 -0.4168
 7104TIP3    H221246   7.823   4.201   3.582 -0.3470  0.2553 -0.5690
 7105TIP3   OH221247   0.792   1.920   1.571 -0.6603  0.2536 -0.4945
 7105TIP3    H121248   0.785   1.825   1.563  1.3167  0.1487 -1.1450
 7105TIP3    H221249   0.740   1.941   1.649 -3.6289 -0.9897 -2.0800
 7106TIP3   OH221250   1.344   2.823   4.010 -0.0667 -0.4805  0.1311
 7106TIP3    H121251   1.377   2.900   3.964 -0.3026  0.0112  0.7724
 7106TIP3    H221252   1.259   2.805   3.970 -0.3060 -0.0104  0.4273
 7107TIP3   OH221253   7.211   3.868   3.625 -0.1654 -0.3289 -0.0005
 7107TIP3    H121254   7.171   3.897   3.707 -1.1069  2.5069 -1.3738
 7107TIP3    H221255   7.142   3.882   3.559  0.8075 -1.8760 -1.3804
 7108TIP3   OH221256   7.483   3.341   6.230 -0.2111  0.4329 -0.0161
 7108TIP3    H121257   7.472   3.430   6.263  1.8161  0.3533  0.9856
 7108TIP3    H221258   7.427   3.287   6.286 -0.5178  0.9299  0.1548
 7109TIP3   OH221259   7.423   3.099   2.079  0.8139 -0.1109 -0.2820
 7109TIP3    H121260   7.442   3.190   2.057  2.6776 -0.4428 -0.1110
 7109TIP3    H221261   7.507   3.063   2.106  0.2450 -2.0842 -1.0577
 7110TIP3   OH221262   1.162   4.903   5.890 -0.0575  0.5060  0.4598
 7110TIP3    H121263   1.250   4.937   5.906  0.5089 -0.3168 -0.8005
 7110TIP3    H221264   1.127   4.885   5.977  0.2426  2.7259  1.0718
 7111TIP3   OH221265   3.261   2.905   3.649  0.2638  0.7406 -0.0412
 7111TIP3    H121266   3.197   2.913   3.578  0.2041  0.4937 -0.0164
 7111TIP3    H221267   3.340   2.948   3.615  0.8506 -1.0310 -1.0074
 7112TIP3   OH221268   0.515   6.102   4.952 -0.2451 -0.8453 -0.4033
 7112TIP3    H121269   0.509   6.012   4.985 -0.3020 -0.2869  1.1289
 7112TIP3    H221270   0.454   6.151   5.007  3.6038  1.1457  2.2724
 7113TIP3   OH221271   8.265   4.038   3.854  0.1281 -0.1270 -0.2540
 7113TIP3    H121272   8.335   4.010   3.912 -0.1735 -1.0413 -0.3211
 7113TIP3    H221273   8.309   4.083   3.782  0.6761 -1.1748 -0.5719
 7114TIP3   OH221274   8.441   1.178   0.750  0.2101 -0.1238 -0.1655
 7114TIP3    H121275   8.443   1.085   0.772 -1.8089 -0.2720 -0.5500
 7114TIP3    H221276   8.401   1.220   0.826  0.5911  0.3669 -0.2314
 7115TIP3   OH221277   0.213   5.594   4.841  0.4115 -0.4504  0.5708
 7115TIP3    H121278   0.194   5.648   4.765 -0.6749 -0.4791  0.8149
 7115TIP3    H221279   0.130   5.588   4.888  1.1263 -0.2228  1.8974
 7116TIP3   OH221280   2.035   3.191   4.071  0.1764  0.4227 -0.0326
 7116TIP3    H121281   1.976   3.173   3.998 -0.4961 -3.3258  1.3010
 7116TIP3    H221282   2.113   3.139   4.051  0.8173  1.0219  0.9007
 7117TIP3   OH221283   7.975   4.884   6.469  0.0196 -0.7401 -0.3279
 7117TIP3    H121284   8.023   4.806   6.441 -0.6894 -1.1177 -0.5041
 7117TIP3    H221285   7.975   4.879   6.565  0.5315 -0.6146 -0.3207
 7118TIP3   OH221286   2.524   2.711   4.972 -0.0042 -0.0641  0.0531
 7118TIP3    H121287   2.608   2.710   4.926 -0.1717  0.0266 -0.2569
 7118TIP3    H221288   2.507   2.803   4.991 -0.6374  0.0472 -1.0040
 7119TIP3   OH221289   2.048   3.087   6.771  0.0101 -0.3257 -0.0492
 7119TIP3    H121290   2.084   3.091   6.859 -1.1417 -1.9414  0.5192
 7119TIP3    H221291   1.956   3.063   6.783 -0.5683  0.9744 -1.6132
 7120TIP3   OH221292   0.204   3.027   4.551 -0.4584 -0.0337  0.2587
 7120TIP3    H121293   0.169   3.097   4.497 -0.8120 -0.4953 -0.1231
 7120TIP3    H221294   0.200   3.061   4.640 -0.3350  0.5467  0.0452
 7121TIP3   OH221295   0.859   4.667   4.173 -0.5412  0.2330  0.2067
 7121TIP3    H121296   0.881   4.606   4.244  1.5977  2.5091  1.5853
 7121TIP3    H221297   0.900   4.629   4.095 -0.3456 -0.7482  0.7818
 7122TIP3   OH221298   0.745   3.174   5.697 -0.1773  0.0328  0.1983
 7122TIP3    H121299   0.663   3.224   5.699  0.3152  0.8129  1.0626
 7122TIP3    H221300   0.740   3.117   5.774  0.4310  0.6295  0.6838
 7123TIP3   OH221301   7.795   2.226   6.027 -0.3908 -1.2956  1.0770
 7123TIP3    H121302   7.804   2.318   6.052  0.6635 -1.6759  2.1437
 7123TIP3    H221303   7.709   2.221   5.986  1.1431  0.9953 -2.7185
 7124TIP3   OH221304   1.930   2.677   3.973  0.1637 -0.7074  0.2927
 7124TIP3    H121305   1.846   2.662   4.015  1.4879 -1.6156  2.6634
 7124TIP3    H221306   1.985   2.715   4.041  1.0644  1.9594 -1.8208
 7125TIP3   OH221307   7.765   3.268   6.450 -0.5642  0.1825  0.3366
 7125TIP3    H121308   7.849   3.224   6.439 -0.1700  0.9459  0.3189
 7125TIP3    H221309   7.767   3.302   6.539 -1.4495 -1.0555  0.8448
 7126TIP3   OH221310   6.597   0.498   0.873 -0.1618 -0.2250  0.0974
 7126TIP3    H121311   6.605   0.451   0.955 -0.2011 -1.1581 -0.4240
 7126TIP3    H221312   6.595   0.591   0.898  2.2248 -0.3781  0.9702
 7127TIP3   OH221313   8.284   2.853   5.154  0.7629  0.8507 -0.0299
 7127TIP3    H121314   8.271   2.759   5.170  2.4780  0.6942  0.5632
 7127TIP3    H221315   8.291   2.859   5.059 -0.4304  0.5243 -0.1436
 7128TIP3   OH221316   1.894   7.768   0.185 -0.7271 -0.4802  0.0632
 7128TIP3    H121317   1.884   7.789   0.092 -1.2601 -2.0947 -0.2611
 7128TIP3    H221318   1.856   7.844   0.231 -0.3977  0.3561 -1.0261
 7129TIP3   OH221319   3.357   2.569   5.599 -0.0520 -0.4578 -0.4461
 7129TIP3    H121320   3.340   2.550   5.691  2.2634  1.3498  0.3909
 7129TIP3    H221321   3.283   2.625   5.573 -0.8567 -1.1865  0.2117
 7130TIP3   OH221322   1.179   5.029   6.421 -0.0328 -0.3165 -0.3569
 7130TIP3    H121323   1.123   5.053   6.347  1.0151  0.5995 -0.8626
 7130TIP3    H221324   1.267   5.020   6.383  0.0473 -2.5692  0.2731
 7131TIP3   OH221325   7.515   4.437   4.413  0.8671 -0.0474  0.1239
 7131TIP3    H121326   7.572   4.475   4.347  0.0081  0.5940 -0.2470
 7131TIP3    H221327   7.444   4.500   4.423 -0.1817 -1.2008  0.0272
 7132TIP3   OH221328   7.387   4.335   4.668  0.0478 -0.1676  0.0638
 7132TIP3    H121329   7.349   4.421   4.683  1.2469  0.4083 -0.1256
 7132TIP3    H221330   7.338   4.277   4.726  0.2964  0.9087  1.3726
 7133TIP3   OH221331   2.014   5.654   5.789  0.0810  0.2950 -0.3372
 7133TIP3    H121332   2.025   5.611   5.874 -2.2609 -1.4288 -0.8719
 7133TIP3    H221333   1.998   5.582   5.727 -1.4011  1.7365 -1.6903
 7134TIP3   OH221334   0.689   4.186   5.920  0.4681  0.1251 -0.0781
 7134TIP3    H121335   0.742   4.125   5.869  0.3290 -0.5146  0.5387
 7134TIP3    H221336   0.645   4.240   5.854 -0.6932 -1.5169 -0.6797
 7135TIP3   OH221337   0.428   3.712   4.744  0.0324 -1.0585  0.1463
 7135TIP3    H121338   0.474   3.710   4.661 -0.1415  1.4869 -0.0631
 7135TIP3    H221339   0.387   3.626   4.752  2.4257 -2.3254 -1.0104
 7136TIP3   OH221340   0.293   4.670   5.114  0.1347 -0.3522  0.1958
 7136TIP3    H121341   0.248   4.591   5.142  1.1768 -0.9126  0.3228
 7136TIP3    H221342   0.243   4.700   5.038  0.0673 -1.4671 -0.2157
 7137TIP3   OH221343   6.717   0.844   0.071  0.2645  0.0646 -0.3048
 7137TIP3    H121344   6.763   0.761   0.075 -0.3591 -0.2831 -0.2357
 7137TIP3    H221345   6.782   0.909   0.097  0.5969 -0.4622  0.1985
 7138TIP3   OH221346   0.501   3.762   6.556  0.0922 -0.2240  0.0578
 7138TIP3    H121347   0.528   3.769   6.464  0.1475  0.6706  0.1351
 7138TIP3    H221348   0.454   3.844   6.574  0.2482 -0.3032  0.8748
 7139TIP3   OH221349   1.411   4.259   2.158 -0.1604 -0.4689  0.1684
 7139TIP3    H121350   1.382   4.214   2.238  1.2540  0.2570  1.1013
 7139TIP3    H221351   1.475   4.199   2.119  0.5500  0.0239  0.5762
 7140TIP3   OH221352   0.394   4.769   5.513 -0.0770 -0.1559  0.0829
 7140TIP3    H121353   0.479   4.725   5.505 -0.3799 -0.5286 -1.0604
 7140TIP3    H221354   0.409   4.856   5.476 -0.0613 -0.0440  0.3504
 7141TIP3   OH221355   2.179   2.752   6.031  0.5281  0.3560 -0.1068
 7141TIP3    H121356   2.205   2.717   5.946 -0.2294  0.5502 -0.4255
 7141TIP3    H221357   2.091   2.786   6.017  0.2921  0.1478  0.8296
 7142TIP3   OH221358   1.582   5.171   6.552 -0.7358  0.6006  0.3217
 7142TIP3    H121359   1.610   5.236   6.617 -2.4232  0.9143  0.7447
 7142TIP3    H221360   1.661   5.119   6.536  0.6147  2.6302  0.1092
 7143TIP3   OH221361   1.905   6.212   5.754  0.2444  0.5463 -0.2499
 7143TIP3    H121362   1.883   6.212   5.661 -2.1343  1.0371  0.2919
 7143TIP3    H221363   1.917   6.304   5.776  2.4365  0.3376 -0.3964
 7144TIP3   OH221364   1.043   3.264   2.894  0.0918 -0.3380 -0.0130
 7144TIP3    H121365   0.948   3.267   2.885 -0.0969  0.8117  1.9577
 7144TIP3    H221366   1.062   3.174   2.919 -0.8198  0.1651  2.6401
 7145TIP3   OH221367   1.098   3.230   4.866 -0.3867  0.2657 -0.4649
 7145TIP3    H121368   1.033   3.257   4.801 -0.7133 -0.2008 -0.3367
 7145TIP3    H221369   1.064   3.147   4.901 -0.7620  1.0549  1.0771
 7146TIP3   OH221370   1.126   5.757   6.128  0.0385  0.0717  0.3334
 7146TIP3    H121371   1.083   5.842   6.130 -1.5234 -0.6672 -0.7895
 7146TIP3    H221372   1.220   5.777   6.135 -0.1401  2.0407 -2.3342
 7147TIP3   OH221373   0.332   5.227   5.672  0.1819  0.0668  0.5902
 7147TIP3    H121374   0.378   5.276   5.604 -0.4329  0.4731  0.4544
 7147TIP3    H221375   0.268   5.174   5.625 -0.0189  0.0951  0.8262
 7148TIP3   OH221376   1.800   4.372   4.195  0.2692  0.8189  0.0275
 7148TIP3    H121377   1.774   4.299   4.139 -0.4960  0.6284  0.6287
 7148TIP3    H221378   1.717   4.410   4.225  0.6710  0.5110  1.5638
 7149TIP3   OH221379   7.781   3.977   4.240  0.2878  0.2987 -0.2482
 7149TIP3    H121380   7.714   4.044   4.225 -1.1435 -1.4210 -1.6995
 7149TIP3    H221381   7.844   3.990   4.169 -1.5709 -1.7682 -2.3770
 7150TIP3   OH221382   1.256   4.073   3.307 -0.2895  0.5155  0.5453
 7150TIP3    H121383   1.264   3.978   3.302  1.4461  0.6494  0.5799
 7150TIP3    H221384   1.342   4.106   3.281 -0.6832  2.0631  1.1606
 7151TIP3   OH221385   0.491   4.841   6.637 -0.0025 -0.7246 -0.1947
 7151TIP3    H121386   0.396   4.833   6.650 -0.0171 -0.3432 -0.0396
 7151TIP3    H221387   0.501   4.921   6.586  0.3226  0.0389  1.0420
 7152TIP3   OH221388   0.155   3.611   5.603  0.0536  1.1405  0.2462
 7152TIP3    H121389   0.142   3.647   5.691  1.7986  2.4473 -0.0091
 7152TIP3    H221390   0.183   3.521   5.619  1.0532  1.5844  1.0555
 7153TIP3   OH221391   0.726   4.693   6.709 -0.0072  0.0662 -0.1661
 7153TIP3    H121392   0.771   4.769   6.747 -1.3682  0.9165 -0.2604
 7153TIP3    H221393   0.639   4.725   6.686 -0.8048 -1.6700  0.3405
 7154TIP3   OH221394   8.004   3.610   6.147  0.0188  0.5615 -0.1613
 7154TIP3    H121395   8.058   3.577   6.075  1.6187 -0.4871  1.4494
 7154TIP3    H221396   7.937   3.543   6.159  0.2067  0.3655 -0.1970
 7155TIP3   OH221397   7.808   4.760   5.383 -0.6011 -0.3987 -0.6275
 7155TIP3    H121398   7.816   4.669   5.354  0.1294 -0.1396 -1.2556
 7155TIP3    H221399   7.714   4.778   5.380 -0.7335 -1.0841 -0.6543
 7156TIP3   OH221400   3.660   5.220   0.042 -0.1594 -0.4580 -0.4296
 7156TIP3    H121401   3.611   5.298   0.067  0.8719 -0.2881  1.1460
 7156TIP3    H221402   3.593   5.154   0.023 -1.0286 -0.3295  1.9979
 7157TIP3   OH221403   1.101   7.049   5.037  0.1508 -0.5941 -0.2839
 7157TIP3    H121404   1.125   6.977   5.096  1.0011  0.1906  0.3463
 7157TIP3    H221405   1.185   7.077   4.999  0.2434  2.0342  1.7508
 7158TIP3   OH221406   0.716   3.435   5.071  0.1254 -0.1571 -0.1588
 7158TIP3    H121407   0.783   3.502   5.085 -1.4920  1.1776  1.4823
 7158TIP3    H221408   0.634   3.478   5.095 -1.2273 -2.0260 -1.3078
 7159TIP3   OH221409   1.761   4.553   6.388  0.0369 -0.1890 -0.4038
 7159TIP3    H121410   1.757   4.638   6.431 -0.8416 -1.6790  2.5606
 7159TIP3    H221411   1.839   4.511   6.425 -0.4283 -1.2948 -0.6548
 7160TIP3   OH221412   8.112   3.980   3.511  0.0896  0.6133  0.3660
 7160TIP3    H121413   8.153   3.917   3.451 -0.8359  0.0539  0.3090
 7160TIP3    H221414   8.048   4.025   3.457 -0.2233  0.6295  0.7561
 7161TIP3   OH221415   0.803   5.623   3.973 -0.2950 -0.4559  0.2871
 7161TIP3    H121416   0.803   5.530   3.994 -0.2192 -0.5384 -0.0911
 7161TIP3    H221417   0.740   5.661   4.035 -1.9478 -1.0736 -0.9844
 7162TIP3   OH221418   1.470   1.723   6.627  0.2401  0.1348  0.4782
 7162TIP3    H121419   1.495   1.653   6.568  2.2771  0.9744  0.3077
 7162TIP3    H221420   1.436   1.678   6.705  2.0260 -1.0675  0.5938
 7163TIP3   OH221421   1.056   4.534   5.530  0.2667  0.3622 -0.2133
 7163TIP3    H121422   1.089   4.605   5.585  1.4173  0.9883 -1.6793
 7163TIP3    H221423   1.081   4.454   5.577  3.9426  0.7926 -1.2234
 7164TIP3   OH221424   0.999   2.262   4.301  0.1988 -0.7443  0.4363
 7164TIP3    H121425   0.942   2.338   4.315  1.8749  0.5826  0.1797
 7164TIP3    H221426   0.979   2.204   4.374 -2.6745 -1.0608 -0.5353
 7165TIP3   OH221427   0.294   3.630   3.402 -0.2139 -0.2302 -0.1646
 7165TIP3    H121428   0.296   3.712   3.352  1.4846 -0.3891 -0.3732
 7165TIP3    H221429   0.265   3.657   3.490  1.3250  0.7828  0.0604
 7166TIP3   OH221430   8.310   5.004   5.177 -0.0951  0.3471  0.0217
 7166TIP3    H121431   8.221   4.999   5.140 -0.3614  2.7308  0.2556
 7166TIP3    H221432   8.301   4.969   5.265 -0.6596 -0.0035 -0.1675
 7167TIP3   OH221433   0.313   4.700   0.698 -0.3502  0.2374  0.3494
 7167TIP3    H121434   0.367   4.778   0.690 -1.3266  0.9798  0.9427
 7167TIP3    H221435   0.351   4.638   0.636 -0.6148  1.7693 -1.3795
 7168TIP3   OH221436   1.357   3.444   6.024  0.0305  0.1711 -0.0717
 7168TIP3    H121437   1.406   3.376   5.978  1.5290  0.6135  0.8258
 7168TIP3    H221438   1.302   3.396   6.086 -0.0351 -0.2975 -0.4960
 7169TIP3   OH221439   0.555   4.029   3.310 -0.4396  0.0022  0.8004
 7169TIP3    H121440   0.584   3.977   3.236 -1.5016 -2.8351  2.3035
 7169TIP3    H221441   0.627   4.023   3.373 -0.5317  0.4438  0.9487
 7170TIP3   OH221442   3.185   6.953   0.258 -0.1423 -0.0096 -0.6424
 7170TIP3    H121443   3.179   6.976   0.165 -1.3797  0.2251 -0.5130
 7170TIP3    H221444   3.144   6.867   0.264  2.0527 -1.1097 -0.6810
 7171TIP3   OH221445   8.440   3.993   3.478  0.5249 -0.2638 -0.6418
 7171TIP3    H121446   8.518   4.047   3.467  1.0513 -0.6578  0.8824
 7171TIP3    H221447   8.439   3.936   3.402  2.2699 -0.8836 -0.2321
 7172TIP3   OH221448   1.327   4.632   4.390  0.7526  0.4908 -0.2342
 7172TIP3    H121449   1.274   4.626   4.469 -0.1630  0.1442 -0.8751
 7172TIP3    H221450   1.372   4.717   4.398 -0.9906  1.4418 -0.3806
 7173TIP3   OH221451   0.921   2.442   3.918 -0.1304  0.0599  0.0085
 7173TIP3    H121452   0.947   2.496   3.843  0.5946 -0.7888 -0.3608
 7173TIP3    H221453   0.830   2.418   3.901  0.6922 -2.0199 -1.7587
 7174TIP3   OH221454   1.145   3.693   4.519 -0.2593 -0.0353 -0.5149
 7174TIP3    H121455   1.064   3.643   4.521  0.2702 -0.8943 -0.5423
 7174TIP3    H221456   1.126   3.772   4.571 -1.0577 -0.3015 -0.3998
 7175TIP3   OH221457   0.916   3.220   4.689  0.2509 -0.2131 -0.4923
 7175TIP3    H121458   0.930   3.243   4.597 -1.7202 -2.0689 -1.2886
 7175TIP3    H221459   0.831   3.259   4.710  0.3923 -0.3572  0.3565
 7176TIP3   OH221460   1.178   2.743   4.565  0.4346 -0.1114  0.1269
 7176TIP3    H121461   1.155   2.650   4.569  2.4971 -0.7601 -2.0474
 7176TIP3    H221462   1.207   2.757   4.475 -0.4919  2.8333  0.2206
 7177TIP3   OH221463   0.037   4.657   6.694 -0.1555 -0.0407  0.3081
 7177TIP3    H121464   0.095   4.733   6.696  0.9484 -0.8143 -1.1075
 7177TIP3    H221465   0.014   4.642   6.786 -0.5403  2.0951  0.5844
 7178TIP3   OH221466   7.509   0.538   0.179  0.2053 -0.0678 -0.8542
 7178TIP3    H121467   7.585   0.480   0.167  0.3499  0.0923 -0.7143
 7178TIP3    H221468   7.448   0.487   0.232  1.1689  0.6406  1.0050
 7179TIP3   OH221469   1.234   1.706   5.757 -0.4331 -0.2484 -1.2786
 7179TIP3    H121470   1.252   1.778   5.696  1.6197 -0.5550 -1.0989
 7179TIP3    H221471   1.194   1.748   5.833  2.2079  0.9864 -0.5119
 7180TIP3   OH221472   2.477   7.106   0.138  0.3636 -0.0242  0.0376
 7180TIP3    H121473   2.431   7.133   0.059  0.4849  0.0561 -0.0055
 7180TIP3    H221474   2.456   7.175   0.202 -0.0108 -0.2654  0.1759
 7181TIP3   OH221475   2.410   2.382   4.029 -0.2010  0.4615 -0.1289
 7181TIP3    H121476   2.345   2.405   4.096 -0.6661 -0.5928 -0.2222
 7181TIP3    H221477   2.435   2.292   4.050  0.9453  0.7280 -0.3299
 7182TIP3   OH221478   0.008   2.285   4.768 -0.1451 -0.1898 -0.8136
 7182TIP3    H121479   0.080   2.228   4.797  0.3512  1.1727  0.7139
 7182TIP3    H221480  -0.068   2.228   4.768  0.3117 -0.8303  0.8817
 7183TIP3   OH221481   8.327   1.835   4.740  0.6593 -0.5468 -0.1905
 7183TIP3    H121482   8.241   1.819   4.778 -0.0144  1.5806 -0.7689
 7183TIP3    H221483   8.316   1.821   4.646  0.5457  1.2747 -0.4586
 7184TIP3   OH221484   1.717   3.352   4.961 -0.2120 -0.0298  0.3385
 7184TIP3    H121485   1.714   3.269   4.913  0.2531  0.1667 -0.0414
 7184TIP3    H221486   1.708   3.419   4.893 -0.9877  0.2259  0.6867
 7185TIP3   OH221487   0.345   3.359   5.261  0.0381  0.5494  0.0834
 7185TIP3    H121488   0.343   3.448   5.296 -0.3343  1.0763 -1.2672
 7185TIP3    H221489   0.378   3.306   5.334 -0.9613  1.5852  1.3201
 7186TIP3   OH221490   6.794   1.127   0.154  0.6331 -0.3146 -0.3118
 7186TIP3    H121491   6.699   1.129   0.151  0.5608 -1.3028  0.8403
 7186TIP3    H221492   6.816   1.150   0.245  1.5451  1.2390 -0.9093
 7187TIP3   OH221493   2.278   2.500   4.223  0.0979  0.0747  0.3522
 7187TIP3    H121494   2.205   2.496   4.285  0.9126  0.8121  1.3691
 7187TIP3    H221495   2.301   2.593   4.218  2.3519 -0.3803  1.6787
 7188TIP3   OH221496   2.348   4.601   5.598  0.3204  0.0838  0.5168
 7188TIP3    H121497   2.334   4.536   5.529 -2.7711 -0.3949  1.5188
 7188TIP3    H221498   2.270   4.656   5.596 -0.0796 -0.2277  3.9146
 7189TIP3   OH221499   0.518   6.196   4.051 -0.5007 -0.3891 -0.0236
 7189TIP3    H121500   0.456   6.196   4.124  0.3717  0.0499  0.7325
 7189TIP3    H221501   0.471   6.155   3.979 -1.2581 -1.1628  0.8978
 7190TIP3   OH221502   1.760   2.849   4.629  0.2938  0.0905  0.0279
 7190TIP3    H121503   1.791   2.939   4.620 -1.5130  0.5542 -1.9213
 7190TIP3    H221504   1.800   2.818   4.710  1.1909  2.5381  0.5626
 7191TIP3   OH221505   0.505   2.889   5.109 -0.0656 -0.4286 -0.1558
 7191TIP3    H121506   0.496   2.829   5.034 -0.6131 -1.9908  1.1362
 7191TIP3    H221507   0.497   2.976   5.071  1.4069 -1.1459 -2.1793
 7192TIP3   OH221508   7.446   5.280   3.135  0.1203  0.0768  0.2796
 7192TIP3    H121509   7.388   5.292   3.060 -0.5440 -0.1572  0.7530
 7192TIP3    H221510   7.388   5.255   3.207  0.6169  1.3992  1.1537
 7193TIP3   OH221511   7.142   3.640   6.610  0.0476  0.0643  0.0163
 7193TIP3    H121512   7.134   3.733   6.591 -0.7029  0.2359  1.1391
 7193TIP3    H221513   7.106   3.596   6.533  0.6254  0.6914 -0.6167
 7194TIP3   OH221514   0.180   6.799   2.842  0.3703  0.5415 -0.3991
 7194TIP3    H121515   0.271   6.779   2.820  0.2478 -0.9495  0.3559
 7194TIP3    H221516   0.153   6.726   2.897 -0.4969  2.2680  1.5280
 7195TIP3   OH221517   1.078   4.317   4.508  1.1053  0.2414 -0.4553
 7195TIP3    H121518   1.021   4.253   4.551 -0.4832  0.2330 -2.5596
 7195TIP3    H221519   1.117   4.269   4.435  2.2614  0.8306 -0.2371
 7196TIP3   OH221520   7.592   1.183   0.243 -0.4017  0.3837 -0.1454
 7196TIP3    H121521   7.642   1.250   0.290 -0.2202  0.7166 -0.8030
 7196TIP3    H221522   7.659   1.128   0.201 -0.5640  0.2392 -0.2157
 7197TIP3   OH221523   2.244   5.738   5.932  0.2269 -0.3655  0.0236
 7197TIP3    H121524   2.316   5.801   5.930 -0.7174  0.7253 -0.2668
 7197TIP3    H221525   2.176   5.777   5.877 -1.1793 -0.6519  1.5105
 7198TIP3   OH221526   8.081   4.215   3.035 -0.3524  0.1290  0.7669
 7198TIP3    H121527   8.043   4.127   3.041 -1.2163  0.4386 -0.0228
 7198TIP3    H221528   8.005   4.273   3.038  0.1513  0.8080  0.2939
 7199TIP3   OH221529   0.502   3.243   5.449 -0.2119 -0.4639 -0.5518
 7199TIP3    H121530   0.500   3.286   5.534 -0.5500  2.6867 -2.0940
 7199TIP3    H221531   0.593   3.216   5.438 -0.0751 -0.4957  0.6034
 7200TIP3   OH221532   0.735   2.805   5.232 -0.2409  0.3112 -0.0728
 7200TIP3    H121533   0.676   2.861   5.181 -2.0184 -0.7089  0.8319
 7200TIP3    H221534   0.775   2.747   5.167 -0.7494  0.5373 -0.5975
 7201TIP3   OH221535   7.888   4.690   4.655  0.3232 -0.1465 -0.2989
 7201TIP3    H121536   7.940   4.631   4.709  0.0665 -1.5793 -1.5818
 7201TIP3    H221537   7.798   4.675   4.683  0.2224 -0.6498 -0.8788
 7202TIP3   OH221538   7.993   5.492   5.452 -0.8054  0.2440  0.8619
 7202TIP3    H121539   7.998   5.464   5.543  0.6853  0.5793  0.8934
 7202TIP3    H221540   7.918   5.551   5.449 -0.9183  0.1537  1.8544
 7203TIP3   OH221541   1.127   3.195   3.872  0.6692 -0.2934 -0.0706
 7203TIP3    H121542   1.128   3.155   3.785  0.9813 -0.9974  0.2467
 7203TIP3    H221543   1.040   3.174   3.906  0.8575 -0.7744  0.1227
 7204TIP3   OH221544   7.958   0.742   0.365 -0.7185  0.5128  0.6397
 7204TIP3    H121545   7.985   0.652   0.346  1.7169  0.5382  3.5442
 7204TIP3    H221546   7.977   0.791   0.285  4.1238 -0.3276  1.0959
 7205TIP3   OH221547   1.334   1.556   6.093  0.0244 -0.0982 -0.1877
 7205TIP3    H121548   1.328   1.552   6.189 -1.4769 -0.5982 -0.2881
 7205TIP3    H221549   1.427   1.546   6.075  0.3096 -0.1488  1.2209
 7206TIP3   OH221550   0.994   6.981   6.364  0.1384 -0.0108 -0.2210
 7206TIP3    H121551   1.040   7.058   6.397  0.8892  0.2023 -1.7299
 7206TIP3    H221552   0.911   6.981   6.412 -0.0940  2.0309 -0.5630
 7207TIP3   OH221553   0.059   4.020   6.627  0.1836 -0.3380  0.1181
 7207TIP3    H121554  -0.005   3.951   6.609 -0.3102  0.3113 -0.6604
 7207TIP3    H221555   0.052   4.036   6.721  0.7184 -1.7579  0.4023
 7208TIP3   OH221556   3.054   7.969   0.007  0.1072  0.0235 -0.1225
 7208TIP3    H121557   3.092   7.966   0.095  0.6696 -0.6425 -0.3827
 7208TIP3    H221558   3.118   8.018  -0.045 -0.6601  1.2132  0.0458
 7209TIP3   OH221559   1.588   2.807   5.979 -0.2274  0.9235 -0.5746
 7209TIP3    H121560   1.659   2.744   5.973 -1.8482 -0.8718 -1.4889
 7209TIP3    H221561   1.627   2.883   6.022  1.9864 -0.3584 -0.2318
 7210TIP3   OH221562   1.017   5.149   5.145  0.1974 -0.2390 -0.5886
 7210TIP3    H121563   0.997   5.100   5.065  2.0701 -1.3866 -0.3774
 7210TIP3    H221564   1.077   5.093   5.193 -2.1537 -0.2811  2.4333
 7211TIP3   OH221565   2.138   7.655   0.197 -0.1937  0.1377  0.1163
 7211TIP3    H121566   2.052   7.698   0.198  0.1885  0.9248 -0.5631
 7211TIP3    H221567   2.201   7.727   0.202  0.4687 -0.2631 -2.0580
 7212TIP3   OH221568   1.799   5.156   5.839 -0.0119 -0.4452  0.5080
 7212TIP3    H121569   1.765   5.085   5.786  0.6156 -0.5723  0.2700
 7212TIP3    H221570   1.760   5.143   5.925 -1.4003  0.0272 -0.0327
 7213TIP3   OH221571   8.446   3.270   4.381  0.4367  0.0660  0.1560
 7213TIP3    H121572   8.486   3.331   4.443 -1.9143  0.8615  0.9639
 7213TIP3    H221573   8.370   3.235   4.427  0.7935 -2.2206 -0.9363
 7214TIP3   OH221574   0.912   3.918   3.197 -0.4298 -0.2585 -0.2735
 7214TIP3    H121575   0.908   4.014   3.193 -2.1232 -0.3599 -1.4756
 7214TIP3    H221576   0.982   3.895   3.136  0.5482  0.2301  0.6346
 7215TIP3   OH221577   6.818   5.006   4.945  0.0517  0.3910 -0.2665
 7215TIP3    H121578   6.884   4.999   5.014  1.4884  1.9648 -1.4379
 7215TIP3    H221579   6.735   5.018   4.992  0.8199  0.1084  1.1922
 7216TIP3   OH221580   0.624   4.819   6.349 -0.1724  0.5072 -0.4600
 7216TIP3    H121581   0.635   4.914   6.357 -0.4856  0.4785  0.4585
 7216TIP3    H221582   0.564   4.797   6.421  0.9957 -0.5797  0.1902
 7217TIP3   OH221583   1.379   4.758   5.004 -0.0919 -0.1966 -0.1715
 7217TIP3    H121584   1.301   4.727   5.051 -0.9389  0.7794 -0.8886
 7217TIP3    H221585   1.402   4.841   5.047  0.6446 -0.5628  0.1413
 7218TIP3   OH221586   0.231   3.361   2.442  0.3081 -0.2113  0.2798
 7218TIP3    H121587   0.245   3.329   2.531 -0.4334  1.7702  1.1435
 7218TIP3    H221588   0.145   3.327   2.418  0.5824 -0.8921  0.2383
 7219TIP3   OH221589   1.396   4.267   5.579  0.5810  0.1153  0.2226
 7219TIP3    H121590   1.357   4.214   5.509  0.5707 -0.9400  1.0224
 7219TIP3    H221591   1.444   4.336   5.532 -1.9876  1.2653 -0.7795
 7220TIP3   OH221592   0.234   5.239   3.957  0.1798  0.4976 -0.3503
 7220TIP3    H121593   0.291   5.173   3.917  0.0358  1.2940 -1.8894
 7220TIP3    H221594   0.192   5.193   4.030  0.0157 -1.1482 -1.4467
 7221TIP3   OH221595   1.564   4.086   2.566  0.6468 -0.0702 -0.2677
 7221TIP3    H121596   1.468   4.091   2.572  0.6821 -0.1950  0.4508
 7221TIP3    H221597   1.579   4.025   2.494  0.1757 -0.4005 -0.0963
 7222TIP3   OH221598   0.018   3.257   6.165  0.4058 -0.1959  0.0917
 7222TIP3    H121599   0.005   3.327   6.228 -0.5967 -0.6000  0.3530
 7222TIP3    H221600   0.072   3.193   6.211  0.4107 -0.0859  0.2399
 7223TIP3   OH221601   1.328   6.844   3.359 -0.1407 -0.2012 -0.0379
 7223TIP3    H121602   1.343   6.773   3.297 -0.2995 -1.7033  1.6234
 7223TIP3    H221603   1.414   6.885   3.370 -0.3101  0.7852 -2.0416
 7224TIP3   OH221604   4.627   7.842   0.026 -0.0250  0.2709  0.4950
 7224TIP3    H121605   4.643   7.775   0.092 -0.9293  1.0539  1.5237
 7224TIP3    H221606   4.557   7.807  -0.029  0.0750  0.0322  0.5187
 7225TIP3   OH221607   7.665   3.758   4.389  0.3213  0.2832 -0.2263
 7225TIP3    H121608   7.676   3.842   4.345 -1.3663  0.3981 -0.4510
 7225TIP3    H221609   7.624   3.779   4.473 -1.5284 -0.4316 -0.9188
 7226TIP3   OH221610   0.448   3.384   5.986  0.1257  0.3533  0.3337
 7226TIP3    H121611   0.354   3.374   5.996  0.1137  1.2539  1.3177
 7226TIP3    H221612   0.463   3.478   5.995  1.0487  0.2954 -0.4806
 7227TIP3   OH221613   7.566   3.824   6.032  0.1092  0.2007 -0.0237
 7227TIP3    H121614   7.552   3.744   5.981  1.7561 -0.3042  0.3085
 7227TIP3    H221615   7.477   3.854   6.053 -0.5497 -0.7355 -1.3721
 7228TIP3   OH221616   4.973   5.503   0.365 -0.6510  0.0772  0.0120
 7228TIP3    H121617   5.009   5.590   0.381 -0.0229 -0.1883  0.0487
 7228TIP3    H221618   5.029   5.465   0.298 -0.4873 -0.5685  0.5055
 7229TIP3   OH221619   8.232   4.652   4.615  0.1366  0.2221  0.4099
 7229TIP3    H121620   8.251   4.594   4.541 -1.3947  0.6641 -0.3608
 7229TIP3    H221621   8.162   4.608   4.663 -0.4905  1.0476  0.2614
 7230TIP3   OH221622   1.338   4.046   6.765  0.2715 -0.1368  0.2470
 7230TIP3    H121623   1.377   4.012   6.685  0.9094 -0.3604  0.6511
 7230TIP3    H221624   1.413   4.066   6.822 -0.1726  0.1007  0.7521
 7231TIP3   OH221625   0.800   3.742   5.192 -0.5362  0.0384  0.7153
 7231TIP3    H121626   0.735   3.772   5.127  0.6903  1.0585 -0.0517
 7231TIP3    H221627   0.863   3.692   5.141 -0.4339 -0.5289  1.3922
 7232TIP3   OH221628   7.904   3.566   3.628  0.2752 -0.9786 -0.4798
 7232TIP3    H121629   7.893   3.543   3.720 -2.0851 -2.9612 -1.2047
 7232TIP3    H221630   7.872   3.656   3.622 -1.4646 -1.5259  0.2856
 7233TIP3   OH221631   4.398   1.063   0.084 -0.0620 -0.6127  0.2046
 7233TIP3    H121632   4.395   0.984   0.030 -1.8149 -0.8510  0.6422
 7233TIP3    H221633   4.404   1.031   0.174 -2.0447 -0.2699  0.4703
 7234TIP3   OH221634   3.588   6.600   4.314 -0.0970  0.0266  0.3821
 7234TIP3    H121635   3.668   6.628   4.269 -0.3836  0.5827  0.2126
 7234TIP3    H221636   3.557   6.525   4.262  0.1794 -0.0340  0.3027
 7235TIP3   OH221637   0.252   3.863   5.913 -0.2553  0.2438  0.3715
 7235TIP3    H121638   0.240   3.947   5.869  0.4549  0.7169  1.0540
 7235TIP3    H221639   0.290   3.886   5.998  1.3594 -0.8542 -0.0162
 7236TIP3   OH221640   1.663   1.962   6.242  0.0682 -0.0651 -0.2676
 7236TIP3    H121641   1.588   2.020   6.229  0.5185  0.3279 -1.2192
 7236TIP3    H221642   1.626   1.874   6.240 -0.8375  0.2065  2.7365
 7237TIP3   OH221643   4.686   7.380   0.821  0.3476 -0.3994 -0.6750
 7237TIP3    H121644   4.776   7.412   0.826 -0.0449  0.4014  1.6669
 7237TIP3    H221645   4.632   7.457   0.837 -0.6711 -1.5061  1.4250
 7238TIP3   OH221646   0.276   2.960   5.476  0.4806  0.1244 -0.5709
 7238TIP3    H121647   0.340   3.013   5.523  0.0646 -0.8682  1.1738
 7238TIP3    H221648   0.325   2.883   5.447  0.8405  0.9376 -2.1948
 7239TIP3   OH221649   2.014   3.585   4.380  0.3198  0.5507  0.5169
 7239TIP3    H121650   1.956   3.593   4.456 -0.3093 -0.2083  0.1321
 7239TIP3    H221651   2.073   3.513   4.403 -0.6969 -0.5497 -0.2134
 7240TIP3   OH221652   1.138   1.894   6.650 -0.0580 -0.1275  0.3224
 7240TIP3    H121653   1.157   1.837   6.723  2.4963  1.9159  1.3366
 7240TIP3    H221654   1.167   1.846   6.573  2.9388  0.1264  1.2474
 7241TIP3   OH221655   0.095   3.183   6.690 -0.5493 -0.5618 -0.2661
 7241TIP3    H121656   0.172   3.238   6.706 -0.9541 -0.8198  2.8936
 7241TIP3    H221657   0.021   3.238   6.712 -1.1097 -1.3766 -0.0837
 7242TIP3   OH221658   7.884   4.227   6.579  0.1136 -0.1785  0.3222
 7242TIP3    H121659   7.887   4.145   6.531  2.0666  0.2089 -0.2481
 7242TIP3    H221660   7.930   4.289   6.523 -0.2400  1.0135  1.3260
 7243TIP3   OH221661   7.912   4.076   3.325 -0.4065 -0.8020 -0.0577
 7243TIP3    H121662   7.890   4.044   3.238  0.6242  0.4454 -0.7871
 7243TIP3    H221663   7.927   4.170   3.314  0.3039 -0.7279  1.3405
 7244TIP3   OH221664   0.136   5.352   6.253  0.1956 -0.0056 -0.2720
 7244TIP3    H121665   0.154   5.359   6.159  1.0898 -1.5081 -0.2283
 7244TIP3    H221666   0.115   5.441   6.280  0.6251  0.5616 -1.7558
 7245TIP3   OH221667   0.500   4.323   5.764  0.1192  0.0521  0.2001
 7245TIP3    H121668   0.406   4.330   5.776  0.0507 -1.1232  0.4283
 7245TIP3    H221669   0.511   4.303   5.671  0.1764  0.6842  0.0675
 7246TIP3   OH221670   2.467   4.790   6.393 -0.4376 -0.0660  0.2874
 7246TIP3    H121671   2.531   4.770   6.462  0.8870  1.5266 -0.4499
 7246TIP3    H221672   2.487   4.728   6.323 -0.0542  0.0760  0.2713
 7247TIP3   OH221673   1.222   3.246   6.161  0.2305  0.2770  0.3565
 7247TIP3    H121674   1.258   3.172   6.111  1.8297  1.4336 -0.2462
 7247TIP3    H221675   1.143   3.211   6.202  1.3891 -1.9949  0.7082
 7248TIP3   OH221676   1.670   2.146   4.717  0.2232  0.2928 -0.3889
 7248TIP3    H121677   1.654   2.112   4.805 -0.5050  0.7488 -0.3362
 7248TIP3    H221678   1.765   2.156   4.712  0.5343 -2.4713 -0.6950
 7249TIP3   OH221679   0.504   4.234   5.496 -0.6253  0.7018 -0.3258
 7249TIP3    H121680   0.592   4.263   5.472  0.5390 -0.9428  1.7819
 7249TIP3    H221681   0.500   4.143   5.466 -1.9780  1.0758 -1.3090
 7250TIP3   OH221682   0.215   4.595   3.352 -0.0848  0.2972 -0.4130
 7250TIP3    H121683   0.184   4.672   3.400  0.3740  0.4859 -0.4170
 7250TIP3    H221684   0.135   4.552   3.322 -0.3635  0.3367  0.2710
 7251TIP3   OH221685   2.026   2.522   4.346 -0.1812 -0.1815 -0.7823
 7251TIP3    H121686   2.010   2.523   4.440  2.4706 -1.2342 -0.2597
 7251TIP3    H221687   2.012   2.613   4.318 -0.3789  0.2647  0.7437
 7252TIP3   OH221688   2.401   1.634   6.052  0.2457  0.1607 -0.2477
 7252TIP3    H121689   2.388   1.694   5.978 -0.3949  0.5787  0.1995
 7252TIP3    H221690   2.473   1.577   6.024  0.7003  0.9844 -0.7713
 7253TIP3   OH221691   2.498   2.114   5.772 -0.1535 -0.2992 -0.5234
 7253TIP3    H121692   2.407   2.136   5.789 -0.5827 -0.9020 -1.9936
 7253TIP3    H221693   2.505   2.021   5.792  0.3066 -0.1212  0.1943
 7254TIP3   OH221694   3.822   1.199   5.344 -0.2664 -0.0584  0.1571
 7254TIP3    H121695   3.896   1.258   5.334  0.6005 -1.0941  0.3112
 7254TIP3    H221696   3.760   1.226   5.277  0.6108  0.3010 -0.5173
 7255TIP3   OH221697   0.877   1.907   3.892 -0.7989  0.1182 -0.4107
 7255TIP3    H121698   0.936   1.864   3.954 -0.2959 -0.3622 -1.2178
 7255TIP3    H221699   0.877   1.999   3.919  4.5894  1.2618 -3.6430
 7256TIP3   OH221700   7.731   4.720   6.015 -0.0149 -0.0009 -0.4625
 7256TIP3    H121701   7.803   4.759   6.065 -0.7408  1.8797 -0.8238
 7256TIP3    H221702   7.712   4.638   6.059  1.4408  0.1466  0.4670
 7257TIP3   OH221703   7.387   0.382   0.804 -0.1412 -0.6036  0.1209
 7257TIP3    H121704   7.452   0.450   0.820  0.5701 -0.8857 -1.3869
 7257TIP3    H221705   7.410   0.312   0.865  1.0944 -0.7671 -0.5104
 7258TIP3   OH221706   0.579   5.055   6.459  0.4315  0.1320  0.1124
 7258TIP3    H121707   0.625   5.131   6.495 -1.7214  1.0714  0.9305
 7258TIP3    H221708   0.509   5.092   6.406 -1.1981 -1.2540  1.2305
 7259TIP3   OH221709   8.249   3.851   4.356 -0.1396  0.2730 -0.3061
 7259TIP3    H121710   8.188   3.778   4.368  0.1985  0.1715  0.7491
 7259TIP3    H221711   8.316   3.817   4.297  0.3304 -0.4575  0.6400
 7260TIP3   OH221712   3.482   4.710   6.419 -0.1119  0.5641  0.0102
 7260TIP3    H121713   3.388   4.700   6.404 -0.2607 -1.0547  1.8019
 7260TIP3    H221714   3.501   4.800   6.394 -1.7744  0.3617 -2.1475
 7261TIP3   OH221715   0.659   4.129   5.265  0.0338  0.6784  0.4251
 7261TIP3    H121716   0.704   4.209   5.236 -0.2082 -0.1400 -2.3726
 7261TIP3    H221717   0.729   4.066   5.280  0.1411  1.0053  1.3091
 7262TIP3   OH221718   6.357   1.107   0.770  0.2391 -0.0707 -0.0976
 7262TIP3    H121719   6.368   1.097   0.864 -0.9856 -0.4805  0.0108
 7262TIP3    H221720   6.441   1.079   0.733  0.3790 -0.8831  0.8074
 7263TIP3   OH221721   1.730   3.702   2.080  0.2167 -0.8562  0.2365
 7263TIP3    H121722   1.670   3.677   2.009 -0.4996  0.6902  0.2839
 7263TIP3    H221723   1.705   3.645   2.153 -2.0064  0.5706  0.6248
 7264TIP3   OH221724   7.567   3.276   3.944  0.3136  0.0403 -0.4111
 7264TIP3    H121725   7.539   3.278   3.852 -2.1596  1.0934  0.3249
 7264TIP3    H221726   7.532   3.193   3.977  0.0325  0.2957 -0.0686
 7265TIP3   OH221727   0.444   4.531   4.311 -0.1301  0.5725  0.0461
 7265TIP3    H121728   0.472   4.504   4.224 -0.4801 -0.9633  0.4043
 7265TIP3    H221729   0.523   4.528   4.364 -0.7112 -2.7369  0.8056
 7266TIP3   OH221730   0.225   1.090   5.891 -0.4829 -0.2065  0.2446
 7266TIP3    H121731   0.131   1.074   5.901 -0.4149 -0.0099  1.3592
 7266TIP3    H221732   0.246   1.151   5.962  0.3563  0.2752 -0.4139
 7267TIP3   OH221733   0.916   6.775   5.738 -0.2904 -0.2151 -0.3882
 7267TIP3    H121734   0.960   6.690   5.749 -0.3117 -0.4643 -2.0345
 7267TIP3    H221735   0.945   6.827   5.813  0.9265 -1.1822 -0.1672
 7268TIP3   OH221736   2.404   3.030   5.227 -0.1267  0.0160  0.1172
 7268TIP3    H121737   2.426   2.975   5.302 -0.6949  0.2832  0.4796
 7268TIP3    H221738   2.440   3.116   5.249  1.8675 -0.4952 -0.9963
 7269TIP3   OH221739   0.205   4.857   6.649 -0.0283  0.0053 -0.0061
 7269TIP3    H121740   0.231   4.876   6.559 -0.4404 -1.2144 -0.3912
 7269TIP3    H221741   0.230   4.935   6.699  0.5685  0.5159 -1.1056
 7270TIP3   OH221742   2.728   3.904   5.673  0.0828 -0.2164 -0.1390
 7270TIP3    H121743   2.736   3.946   5.758 -1.4189  0.4768 -0.3260
 7270TIP3    H221744   2.638   3.871   5.670  0.6444 -1.7755 -0.7638
 7271TIP3   OH221745   7.640   5.685   5.747 -0.2979 -0.0862 -0.0219
 7271TIP3    H121746   7.584   5.675   5.670  0.2604  0.3235 -0.4857
 7271TIP3    H221747   7.653   5.780   5.754  0.8096 -0.2190 -0.2560
 7272TIP3   OH221748   0.984   4.979   5.447  0.1410  0.5062 -0.5390
 7272TIP3    H121749   1.068   4.976   5.403  0.0122 -0.0241 -0.7527
 7272TIP3    H221750   0.920   4.962   5.378  0.0492 -2.2033  0.1690
 7273TIP3   OH221751   3.108   7.380   0.767 -0.3663 -0.7651 -0.0075
 7273TIP3    H121752   3.069   7.433   0.699 -0.0170 -1.1763 -0.5323
 7273TIP3    H221753   3.033   7.348   0.819 -0.6259 -0.4439 -0.1868
 7274TIP3   OH221754   5.594   7.474   1.884 -0.1810  0.4070 -0.0423
 7274TIP3    H121755   5.635   7.557   1.859  0.6760  0.8721  2.7232
 7274TIP3    H221756   5.624   7.412   1.818 -1.1854  2.3698 -2.4062
 7275TIP3   OH221757   7.349   4.386   6.076 -0.0921  0.0435  0.3301
 7275TIP3    H121758   7.357   4.347   5.989 -1.1737 -1.1394  0.7527
 7275TIP3    H221759   7.388   4.473   6.066  1.5614 -0.7963 -0.8407
 7276TIP3   OH221760   7.815   5.344   2.554 -0.3292 -0.2978  0.4590
 7276TIP3    H121761   7.742   5.293   2.519  0.1065 -0.0144 -0.9198
 7276TIP3    H221762   7.807   5.429   2.511  0.9872 -0.3704  0.0311
 7277TIP3   OH221763   7.426   0.902   0.750  0.1886 -0.3235 -0.0981
 7277TIP3    H121764   7.361   0.956   0.704 -0.2465  1.2362  2.2633
 7277TIP3    H221765   7.510   0.944   0.731  0.1469 -0.4284 -0.5128
 7278TIP3   OH221766   1.422   3.089   5.624 -0.0492  0.7771  0.2555
 7278TIP3    H121767   1.329   3.077   5.642  0.0843 -1.5891 -0.4178
 7278TIP3    H221768   1.425   3.159   5.558 -1.3166  0.9753  0.3993
 7279TIP3   OH221769   7.580   5.267   4.747  0.4953 -0.0992  0.3765
 7279TIP3    H121770   7.643   5.204   4.782  2.0289  1.3952  0.3612
 7279TIP3    H221771   7.591   5.263   4.652 -0.5802 -1.0029  0.2878
 7280TIP3   OH221772   2.980   1.904   6.383 -0.6949  0.1382  0.4808
 7280TIP3    H121773   2.935   1.820   6.379 -1.4290  0.4037  2.8540
 7280TIP3    H221774   3.070   1.883   6.409 -1.6191  0.2811  4.0104
 7281TIP3   OH221775   0.103   2.195   4.254 -0.6847  0.0906  0.3614
 7281TIP3    H121776   0.089   2.286   4.230  1.0290  0.0857 -0.7200
 7281TIP3    H221777   0.040   2.178   4.324 -1.0266  2.0852  0.5445
 7282TIP3   OH221778   8.261   3.764   3.658  0.3158 -0.2391 -0.0101
 7282TIP3    H121779   8.197   3.835   3.657  1.0631  0.4634  1.3514
 7282TIP3    H221780   8.324   3.789   3.591 -0.7279 -0.8686 -1.2669
 7283TIP3   OH221781   3.073   1.230   3.469 -0.1298  0.6321  0.2169
 7283TIP3    H121782   3.078   1.143   3.509 -0.8874  0.6756  0.4211
 7283TIP3    H221783   3.110   1.289   3.535 -0.2270  0.5471  0.3484
 7284TIP3   OH221784   1.268   1.076   6.302  0.4892  0.3389  0.0873
 7284TIP3    H121785   1.353   1.114   6.326  0.6866 -0.4872  0.7503
 7284TIP3    H221786   1.266   1.078   6.207  0.9379  1.0460  0.0918
 7285TIP3   OH221787   1.224   1.677   4.833  0.3928 -0.9651 -0.9043
 7285TIP3    H121788   1.272   1.689   4.916  0.3533 -0.8818 -0.8937
 7285TIP3    H221789   1.205   1.584   4.831 -0.7331 -0.7612 -0.1952
 7286TIP3   OH221790   2.465   6.613   0.469  0.3675  0.1187 -0.4243
 7286TIP3    H121791   2.545   6.652   0.504  0.1093  1.2262 -1.0461
 7286TIP3    H221792   2.418   6.686   0.430 -1.2643 -0.3897  0.5162
 7287TIP3   OH221793   7.496   0.843   0.152  0.6611  0.0710  0.5621
 7287TIP3    H121794   7.565   0.902   0.123  0.2968 -0.2756 -1.0492
 7287TIP3    H221795   7.529   0.755   0.131 -0.4232 -0.0725 -0.5975
 7288TIP3   OH221796   0.600   3.676   5.875  0.1198  0.5570  0.3402
 7288TIP3    H121797   0.552   3.735   5.817 -1.7274 -2.1123 -0.9880
 7288TIP3    H221798   0.647   3.617   5.816 -0.1418 -0.9187  1.5709
 7289TIP3   OH221799   2.361   7.336   0.333 -0.1340 -0.0863  0.1356
 7289TIP3    H121800   2.303   7.384   0.392 -1.9431 -1.3809 -0.5206
 7289TIP3    H221801   2.425   7.295   0.390  0.0711  1.2704  0.8968
 7290TIP3   OH221802   1.933   1.259   5.593 -0.2863 -0.1217 -0.2667
 7290TIP3    H121803   1.885   1.291   5.669 -1.1046 -1.0586 -0.3748
 7290TIP3    H221804   2.004   1.207   5.630  0.5476  1.1071 -0.1102
 7291TIP3   OH221805   2.114   1.604   6.597 -0.4034 -0.6056  0.6732
 7291TIP3    H121806   2.124   1.699   6.608 -1.6442 -0.4152  0.1360
 7291TIP3    H221807   2.063   1.576   6.673 -0.0897 -0.8362  0.8003
 7292TIP3   OH221808   4.981   1.060   0.622  0.2731  0.2001  0.3935
 7292TIP3    H121809   5.072   1.080   0.646  0.4953  0.8860 -0.9848
 7292TIP3    H221810   4.930   1.133   0.658  0.1984 -0.4332  1.5933
 7293TIP3   OH221811   2.201   2.709   4.551  0.3455  0.3540 -0.0793
 7293TIP3    H121812   2.175   2.800   4.562  2.8273  0.9085  1.6349
 7293TIP3    H221813   2.199   2.672   4.639 -0.3997 -1.2162 -0.7241
 7294TIP3   OH221814   8.439   4.976   6.096  0.1765  0.1615 -0.2234
 7294TIP3    H121815   8.512   4.999   6.039 -0.3803  0.8305 -0.6713
 7294TIP3    H221816   8.442   5.041   6.166  0.2777 -0.0873  0.0073
 7295TIP3   OH221817   0.907   4.189   4.662  0.0639 -0.3756  0.4404
 7295TIP3    H121818   0.900   4.206   4.756 -0.1036 -0.0956  0.3780
 7295TIP3    H221819   0.819   4.159   4.637  0.0316 -0.1829  0.3207
 7296TIP3   OH221820   1.219   3.703   5.500  0.5247  0.0483 -0.1259
 7296TIP3    H121821   1.272   3.775   5.534  0.8362  0.2420 -1.0000
 7296TIP3    H221822   1.157   3.745   5.441  1.4407 -0.5169 -1.5066
 7297TIP3   OH221823   1.600   4.729   4.022 -0.1944  0.0377 -0.0935
 7297TIP3    H121824   1.598   4.791   4.095  0.1410  1.2920 -1.1239
 7297TIP3    H221825   1.522   4.752   3.970 -0.4091 -0.8179 -0.1515
 7298TIP3   OH221826   4.039   2.192   4.346  1.0201  0.3158  0.4814
 7298TIP3    H121827   4.090   2.269   4.374  1.3831  0.3165 -0.1731
 7298TIP3    H221828   3.975   2.228   4.285  0.7243  0.2008  0.7254
 7299TIP3   OH221829   3.207   3.803   3.546 -0.7924 -0.5963  0.8167
 7299TIP3    H121830   3.145   3.731   3.529 -0.9048 -0.7601  1.8884
 7299TIP3    H221831   3.151   3.880   3.559 -0.7813 -0.7331  1.7314
 7300TIP3   OH221832   1.393   3.013   5.235 -0.4247 -0.2453 -0.0081
 7300TIP3    H121833   1.378   2.948   5.166 -1.7081 -1.2749  1.2279
 7300TIP3    H221834   1.379   2.965   5.317  0.6244  1.0837  0.9755
 7301TIP3   OH221835   2.663   5.948   5.378 -0.6438  0.4494  0.2863
 7301TIP3    H121836   2.572   5.931   5.352 -0.4087 -0.3089 -0.0778
 7301TIP3    H221837   2.657   6.013   5.448 -1.4864  0.1863  0.4598
 7302TIP3   OH221838   2.079   4.174   5.407 -0.3150 -0.3848 -0.8324
 7302TIP3    H121839   2.035   4.254   5.382 -0.3581 -0.3951 -0.7876
 7302TIP3    H221840   2.135   4.153   5.332 -1.0132 -0.8230 -1.2299
 7303TIP3   OH221841   4.223   2.868   4.078 -0.3071 -0.0975  0.2997
 7303TIP3    H121842   4.249   2.873   4.170 -1.3545 -0.5971  0.6317
 7303TIP3    H221843   4.129   2.885   4.079 -1.0275 -3.6959 -0.2568
 7304TIP3   OH221844   3.797   3.944   4.531  0.3936  0.3754 -0.1327
 7304TIP3    H121845   3.797   4.032   4.493 -0.1513  0.3498 -0.1848
 7304TIP3    H221846   3.705   3.918   4.532  0.4338  0.2596  0.9497
 7305TIP3   OH221847   2.789   4.732   3.901  0.0225 -0.7440  0.1543
 7305TIP3    H121848   2.837   4.814   3.898  0.1501 -0.8757 -1.8797
 7305TIP3    H221849   2.852   4.668   3.934  0.2489 -0.2576  0.6618
 7306TIP3   OH221850   2.986   5.988   4.864  0.6071 -0.4689 -0.1367
 7306TIP3    H121851   2.955   6.026   4.946 -0.9870 -3.5872  0.7546
 7306TIP3    H221852   2.917   6.009   4.800  0.0243 -1.2738  0.2159
 7307TIP3   OH221853   8.029   3.363   5.954 -0.2029  0.0109 -0.3457
 7307TIP3    H121854   7.936   3.368   5.979  0.0009 -1.2208  0.7253
 7307TIP3    H221855   8.029   3.310   5.875 -0.2812 -1.4270  0.5895
 7308TIP3   OH221856   5.768   6.799   0.255 -0.4134  0.6771 -0.0839
 7308TIP3    H121857   5.838   6.739   0.281 -1.0876 -0.2180 -0.3328
 7308TIP3    H221858   5.808   6.886   0.261  0.3089  0.2678  1.0881
 7309TIP3   OH221859   1.950   3.587   4.859  0.3642  0.6003  0.5088
 7309TIP3    H121860   1.893   3.625   4.926  2.3104  1.0957  1.9188
 7309TIP3    H221861   2.034   3.631   4.872  1.4741 -1.1732 -0.5941
 7310TIP3   OH221862   2.918   4.549   4.121 -0.4117 -0.3410  0.3310
 7310TIP3    H121863   2.957   4.631   4.151 -2.5139  0.4582  0.9224
 7310TIP3    H221864   2.893   4.504   4.202 -2.2767 -0.0597 -0.0723
 7311TIP3   OH221865   3.730   2.896   4.399  0.3317  0.3419 -0.3185
 7311TIP3    H121866   3.692   2.920   4.314 -3.5256  1.4591  1.6277
 7311TIP3    H221867   3.741   2.980   4.445 -0.5038 -0.4919  1.4342
 7312TIP3   OH221868   3.547   1.560   6.010 -0.0598  0.2616 -0.4430
 7312TIP3    H121869   3.590   1.618   5.947 -0.5333 -0.4451 -1.4351
 7312TIP3    H221870   3.619   1.520   6.058  0.3083  0.8719 -0.4821
 7313TIP3   OH221871   3.458   3.916   4.149 -0.3268 -0.1148  0.8454
 7313TIP3    H121872   3.448   3.986   4.083  2.5570 -0.1884  0.2843
 7313TIP3    H221873   3.463   3.963   4.232 -0.8615  0.1664  0.7279
 7314TIP3   OH221874   4.202   6.658   5.035 -0.0721 -0.3449 -0.0147
 7314TIP3    H121875   4.264   6.728   5.057 -0.7017  0.5134 -0.9037
 7314TIP3    H221876   4.188   6.668   4.941  0.1757 -1.9646 -0.2232
 7315TIP3   OH221877   0.575   2.589   0.202  0.1387  0.4695 -0.2142
 7315TIP3    H121878   0.552   2.505   0.243 -0.3368  0.9717  0.5671
 7315TIP3    H221879   0.610   2.642   0.274  0.6651  0.8559 -0.7555
 7316TIP3   OH221880   1.511   3.540   5.098  0.0072 -0.3995 -0.5836
 7316TIP3    H121881   1.555   3.467   5.053  0.2782 -1.0599  0.7100
 7316TIP3    H221882   1.503   3.608   5.032  2.8356 -0.3233 -0.9268
 7317TIP3   OH221883   2.435   4.681   4.277  0.1733 -0.0889  0.1716
 7317TIP3    H121884   2.388   4.743   4.221  1.2338  0.7872  0.2391
 7317TIP3    H221885   2.386   4.681   4.359 -0.6204 -0.3821 -0.2922
 7318TIP3   OH221886   3.215   4.768   5.274 -0.0695 -0.2400 -0.3942
 7318TIP3    H121887   3.241   4.859   5.259 -1.4924  0.3000  0.3353
 7318TIP3    H221888   3.154   4.772   5.347  1.1887 -2.0050  0.7964
 7319TIP3   OH221889   5.251   7.269   0.523 -0.1330  0.3810  0.2005
 7319TIP3    H121890   5.163   7.270   0.558  0.3859 -0.3022  1.5490
 7319TIP3    H221891   5.297   7.338   0.572 -0.5583  2.4730 -2.2368
 7320TIP3   OH221892   2.841   4.494   5.339 -0.0559 -0.0841  0.1720
 7320TIP3    H121893   2.804   4.473   5.254  0.9219  0.7436 -0.4687
 7320TIP3    H221894   2.766   4.502   5.397 -0.6338 -2.2295 -0.2485
 7321TIP3   OH221895   2.247   2.437   6.661  0.1311 -0.8164 -0.1210
 7321TIP3    H121896   2.156   2.408   6.652  0.2746 -1.5734  0.7926
 7321TIP3    H221897   2.295   2.388   6.595 -0.1885 -0.1008 -0.8942
 7322TIP3   OH221898   2.876   3.754   4.400 -0.0238  0.2938  0.1885
 7322TIP3    H121899   2.813   3.748   4.328 -2.6221 -0.7876  2.4356
 7322TIP3    H221900   2.909   3.665   4.411 -0.1887  0.3042  0.7923
 7323TIP3   OH221901   1.422   3.138   4.998 -0.0877  0.1507  0.6338
 7323TIP3    H121902   1.399   3.045   4.991 -0.0096  0.1446  0.4286
 7323TIP3    H221903   1.505   3.145   4.950 -0.2277  0.3732  0.4211
 7324TIP3   OH221904   3.437   5.775   4.269 -0.3407 -0.0929  0.0350
 7324TIP3    H121905   3.463   5.734   4.351 -0.4344 -0.4933 -0.1310
 7324TIP3    H221906   3.428   5.868   4.289  0.4150 -0.0677  0.2906
 7325TIP3   OH221907   0.853   4.387   6.109 -0.3599 -0.3394 -0.1020
 7325TIP3    H121908   0.808   4.303   6.118  1.8231 -1.7867 -2.0312
 7325TIP3    H221909   0.801   4.435   6.044 -0.0881 -1.3380 -1.0787
 7326TIP3   OH221910   3.708   2.882   5.000  0.5252 -0.5983 -0.1294
 7326TIP3    H121911   3.697   2.823   4.925  1.8926  0.0414 -0.8644
 7326TIP3    H221912   3.635   2.862   5.058 -1.0384 -0.5280 -2.0344
 7327TIP3   OH221913   0.873   4.651   4.990 -0.2751  0.0971  0.8374
 7327TIP3    H121914   0.952   4.597   4.989  0.1924  0.7930 -0.6014
 7327TIP3    H221915   0.802   4.590   5.007  0.2031 -1.0390 -1.1229
 7328TIP3   OH221916   1.088   5.349   2.380  0.6221  0.2999 -0.0953
 7328TIP3    H121917   1.088   5.354   2.475 -0.6394  0.3021 -0.0843
 7328TIP3    H221918   1.152   5.414   2.352  0.0201  1.2595  0.7114
 7329TIP3   OH221919   2.795   2.684   4.870 -0.2237 -0.0961 -0.1822
 7329TIP3    H121920   2.804   2.595   4.835 -0.4599  0.3855 -1.5149
 7329TIP3    H221921   2.832   2.740   4.802  2.0504  0.6823  1.6696
 7330TIP3   OH221922   2.741   2.453   4.602  0.0637 -0.7383  0.0436
 7330TIP3    H121923   2.685   2.528   4.581  1.3687  0.4646  0.7965
 7330TIP3    H221924   2.779   2.427   4.518  0.5384  0.2056 -0.0393
 7331TIP3   OH221925   1.033   2.849   3.236  0.0381  0.2576  0.1083
 7331TIP3    H121926   1.086   2.926   3.253 -0.4291  0.4542  0.7003
 7331TIP3    H221927   1.096   2.781   3.213  0.3587  1.1789 -1.8609
 7332TIP3   OH221928   0.742   4.682   3.833  0.4051  0.3905  0.0512
 7332TIP3    H121929   0.681   4.663   3.905  1.5811  0.7747  1.1766
 7332TIP3    H221930   0.699   4.751   3.783 -0.7635 -0.3983 -0.0404
 7333TIP3   OH221931   2.433   5.951   4.359 -0.1411 -0.1656  0.1000
 7333TIP3    H121932   2.470   6.039   4.370 -0.0819  0.1476 -2.1618
 7333TIP3    H221933   2.447   5.932   4.266 -1.7785 -1.8304  0.1760
 7334TIP3   OH221934   1.538   3.666   3.043 -0.3629 -0.1222  0.1787
 7334TIP3    H121935   1.555   3.716   3.123  2.4852  0.6151 -0.8436
 7334TIP3    H221936   1.495   3.729   2.984 -2.2550 -0.6035  0.9993
 7335TIP3   OH221937   1.600   3.255   3.600  0.0222  0.1444  0.2475
 7335TIP3    H121938   1.681   3.246   3.650 -0.5990 -0.8844  1.0779
 7335TIP3    H221939   1.536   3.287   3.664 -0.9217 -1.7234  0.2594
 7336TIP3   OH221940   1.722   3.747   5.105  0.2085 -0.4514  0.2609
 7336TIP3    H121941   1.802   3.796   5.084 -0.2023  0.4480  0.7205
 7336TIP3    H221942   1.658   3.778   5.041 -0.2866  0.2573  1.0787
 7337TIP3   OH221943   1.969   4.664   6.747  0.7701  0.1782  0.2642
 7337TIP3    H121944   2.060   4.640   6.768  0.4532 -0.1769  1.2454
 7337TIP3    H221945   1.922   4.654   6.830  0.5569  3.9365  0.6914
 7338TIP3   OH221946   2.208   1.726   4.687 -0.6585 -0.3753  0.3000
 7338TIP3    H121947   2.242   1.697   4.771 -2.0347 -0.2579  0.9149
 7338TIP3    H221948   2.203   1.822   4.695  2.2737 -0.0724 -1.1038
 7339TIP3   OH221949   3.612   3.571   5.173  0.5450 -0.1685 -0.1039
 7339TIP3    H121950   3.579   3.484   5.197  0.3790 -0.2097 -0.4805
 7339TIP3    H221951   3.641   3.561   5.083 -1.6437  0.7782 -0.9427
 7340TIP3   OH221952   3.482   3.161   6.914  0.1539 -0.5668  0.3166
 7340TIP3    H121953   3.436   3.244   6.927  0.1975 -0.3725 -0.7194
 7340TIP3    H221954   3.559   3.167   6.970 -0.4937 -0.4292  1.2008
 7341TIP3   OH221955   0.893   5.013   4.470 -0.3588  0.2875  0.3915
 7341TIP3    H121956   0.806   4.989   4.504  0.5366 -1.2763  1.6364
 7341TIP3    H221957   0.936   5.056   4.543 -1.2247  4.1510 -1.2253
 7342TIP3   OH221958   3.386   5.080   4.741 -0.1619  0.4166 -0.0921
 7342TIP3    H121959   3.383   4.985   4.750  1.2312  0.4627  1.1548
 7342TIP3    H221960   3.320   5.112   4.803  0.2122  0.2939  0.3747
 7343TIP3   OH221961   2.541   0.772   4.444 -0.4392 -0.4104  0.2940
 7343TIP3    H121962   2.618   0.771   4.387 -1.4934 -0.0993 -1.1802
 7343TIP3    H221963   2.573   0.745   4.530  1.2946 -0.3257 -0.3205
 7344TIP3   OH221964   2.477   3.741   6.234  0.2938  0.2787  0.6089
 7344TIP3    H121965   2.400   3.717   6.182  0.6275 -0.5118  0.4573
 7344TIP3    H221966   2.551   3.726   6.174  0.6014  0.5052  0.9312
 7345TIP3   OH221967   0.576   2.109   6.116  0.2444 -0.2874 -0.5708
 7345TIP3    H121968   0.645   2.051   6.085  0.9762  1.1700 -1.7294
 7345TIP3    H221969   0.604   2.197   6.090 -1.4742  0.4587 -0.0316
 7346TIP3   OH221970   1.647   4.190   3.493  0.7458  0.2214  0.3191
 7346TIP3    H121971   1.595   4.159   3.419  0.2704 -0.2699  0.8643
 7346TIP3    H221972   1.583   4.217   3.558  1.1515  1.9344  0.0376
 7347TIP3   OH221973   0.937   3.507   4.510  0.1417  0.0769 -0.0803
 7347TIP3    H121974   0.932   3.425   4.462  1.1541  0.3004 -0.5851
 7347TIP3    H221975   0.848   3.540   4.510 -0.2764 -1.0300  0.1439
 7348TIP3   OH221976   2.608   1.081   3.473  0.1109  0.4028  0.1680
 7348TIP3    H121977   2.682   1.022   3.488  1.4104  1.7641 -0.7210
 7348TIP3    H221978   2.536   1.023   3.449  1.8441 -0.7615 -2.5329
 7349TIP3   OH221979   1.810   3.798   6.020 -0.5149  0.5715  0.2690
 7349TIP3    H121980   1.876   3.751   6.072 -0.3991  0.2399 -0.1684
 7349TIP3    H221981   1.767   3.730   5.968 -0.3159  0.9489 -0.4075
 7350TIP3   OH221982   1.902   3.099   4.591  0.1738 -0.1520  0.4782
 7350TIP3    H121983   1.904   3.144   4.507 -0.1082  0.9965  1.0833
 7350TIP3    H221984   1.856   3.159   4.650  0.7912 -0.7394  1.5750
 7351TIP3   OH221985   2.320   3.169   5.911  0.1824 -0.1221 -0.3329
 7351TIP3    H121986   2.335   3.114   5.834 -0.3174 -0.7568  0.0205
 7351TIP3    H221987   2.302   3.107   5.982 -0.5534  0.5014  0.0334
 7352TIP3   OH221988   6.769   2.670   4.639 -0.1272  0.2475 -0.3757
 7352TIP3    H121989   6.735   2.760   4.638 -1.1824 -0.0977  1.5415
 7352TIP3    H221990   6.708   2.621   4.584 -0.9056  0.2570  0.4710
 7353TIP3   OH221991   1.408   3.691   2.725 -0.2242 -0.0178 -0.1476
 7353TIP3    H121992   1.502   3.705   2.711 -0.6175  1.9445 -0.9823
 7353TIP3    H221993   1.385   3.621   2.664  0.7875 -0.8505  0.4117
 7354TIP3   OH221994   2.593   6.291   6.084  0.1873  0.0283  0.2749
 7354TIP3    H121995   2.503   6.321   6.097 -0.4093 -2.0575  1.2812
 7354TIP3    H221996   2.598   6.271   5.991  0.0712  1.5686 -0.0676
 7355TIP3   OH221997   0.630   4.481   5.269  0.5555 -0.5500 -0.0628
 7355TIP3    H121998   0.601   4.515   5.184  0.1832 -1.1976 -0.1992
 7355TIP3    H221999   0.720   4.453   5.254  1.0264  0.7833  0.1698
 7356TIP3   OH222000   0.288   2.098   4.475  0.5732  0.4752 -0.5654
 7356TIP3    H122001   0.256   2.154   4.404  0.7209  0.7082 -0.4475
 7356TIP3    H222002   0.235   2.018   4.468 -1.1178  1.4431  0.5829
 7357TIP3   OH222003   2.345   5.404   5.456  0.0388 -0.1100 -0.0494
 7357TIP3    H122004   2.402   5.395   5.533  0.1571  1.6313  0.0840
 7357TIP3    H222005   2.297   5.321   5.452  1.7144 -1.1314  0.5350
 7358TIP3   OH222006   3.034   2.936   4.358 -0.0581 -0.1577 -0.3920
 7358TIP3    H122007   3.031   2.849   4.398  2.1001  0.4337  1.1527
 7358TIP3    H222008   2.982   2.991   4.417  0.2368  0.0099 -0.2881
 7359TIP3   OH222009   2.823   2.981   4.003  0.4832 -0.3043  0.4087
 7359TIP3    H122010   2.875   3.011   3.928 -2.3824  1.9509 -0.7725
 7359TIP3    H222011   2.869   3.018   4.079  0.7143  1.5577 -0.5891
 7360TIP3   OH222012   0.061   4.145   6.179 -0.7334  0.3792  0.1937
 7360TIP3    H122013   0.032   4.192   6.258 -0.8511  1.2543 -0.3664
 7360TIP3    H222014   0.044   4.053   6.200  0.2213  0.5024  1.6027
 7361TIP3   OH222015   1.635   5.083   3.833  0.8160  0.1551  0.1681
 7361TIP3    H122016   1.558   5.131   3.865  0.8046  0.6175 -0.5290
 7361TIP3    H222017   1.640   5.107   3.740  0.7433 -1.2831 -0.2140
 7362TIP3   OH222018   2.390   4.138   5.937 -0.6841  0.1708 -0.1462
 7362TIP3    H122019   2.435   4.139   6.022 -0.1613  0.4567 -0.4222
 7362TIP3    H222020   2.408   4.051   5.902 -0.9996  0.0106  0.0902
 7363TIP3   OH222021   2.717   3.253   5.079  0.3924 -0.2649  0.1760
 7363TIP3    H122022   2.754   3.196   5.012 -2.3063 -0.4233 -1.2920
 7363TIP3    H222023   2.719   3.340   5.040  0.9370  0.0155  0.8299
 7364TIP3   OH222024   1.880   4.697   4.275 -0.0185  0.2094 -0.3547
 7364TIP3    H122025   1.873   4.610   4.314  1.1134  0.5606  0.6996
 7364TIP3    H222026   1.795   4.737   4.291 -0.3944 -0.5439 -0.4497
 7365TIP3   OH222027   1.488   2.165   3.830  0.1379 -0.0174  0.0749
 7365TIP3    H122028   1.528   2.231   3.773  0.1935 -0.3122 -0.2307
 7365TIP3    H222029   1.404   2.204   3.857 -0.4306 -0.3566 -1.1542
 7366TIP3   OH222030   4.155   4.458   3.924  0.0590  0.4831 -0.6341
 7366TIP3    H122031   4.126   4.546   3.947  0.9312  1.0917 -1.8297
 7366TIP3    H222032   4.160   4.412   4.007  0.1653  1.7371  0.0633
 7367TIP3   OH222033   3.012   4.244   3.869  0.1247 -0.3634 -0.1582
 7367TIP3    H122034   3.107   4.257   3.866 -0.1624  1.8592 -0.2730
 7367TIP3    H222035   2.996   4.176   3.803  1.5387 -0.1614 -0.7377
 7368TIP3   OH222036   5.349   7.357   0.161 -0.7316 -0.0070  0.3031
 7368TIP3    H122037   5.435   7.393   0.181 -0.3644 -1.3185  1.1291
 7368TIP3    H222038   5.347   7.351   0.065 -0.2039  0.7240  0.2409
 7369TIP3   OH222039   2.207   0.928   4.866 -0.0494 -0.0154  1.1011
 7369TIP3    H122040   2.297   0.899   4.881  0.3923 -0.0831 -1.3311
 7369TIP3    H222041   2.216   1.011   4.820 -1.1204 -1.4736 -1.9197
 7370TIP3   OH222042   1.885   4.235   4.611 -0.7314  0.1679 -0.6350
 7370TIP3    H122043   1.980   4.228   4.602 -0.4839  1.8278  0.4879
 7370TIP3    H222044   1.854   4.145   4.603  0.7702 -0.2071 -2.6565
 7371TIP3   OH222045   2.673   5.444   4.482  0.3150 -0.3940 -1.0080
 7371TIP3    H122046   2.619   5.385   4.534  0.0650  0.4286 -0.3094
 7371TIP3    H222047   2.643   5.532   4.507 -0.8669  0.0131 -3.6570
 7372TIP3   OH222048   3.217   6.571   4.170  0.0089  0.1507  0.1370
 7372TIP3    H122049   3.186   6.565   4.080 -1.9199  0.5109  0.7448
 7372TIP3    H222050   3.208   6.664   4.192 -0.1067 -0.0396  0.8959
 7373TIP3   OH222051   3.243   4.568   3.757  0.1242 -0.3008 -0.0184
 7373TIP3    H122052   3.264   4.479   3.788 -0.5092  0.0638  1.4707
 7373TIP3    H222053   3.168   4.594   3.809  1.8839  2.1251  1.3817
 7374TIP3   OH222054   2.988   4.791   4.210 -0.1333 -0.3810 -0.6308
 7374TIP3    H122055   3.053   4.809   4.143  1.2394  1.3138  1.0772
 7374TIP3    H222056   2.955   4.878   4.235 -2.4689 -1.1654 -0.9009
 7375TIP3   OH222057   2.697   3.975   3.175 -0.0530  0.0311  0.5325
 7375TIP3    H122058   2.736   3.894   3.208 -0.0346  1.1963  3.6594
 7375TIP3    H222059   2.620   3.948   3.126  0.4660 -1.9052  0.7490
 7376TIP3   OH222060   2.474   4.715   4.763 -0.2699  0.3839 -0.4783
 7376TIP3    H122061   2.458   4.628   4.798 -2.0340 -0.0073 -2.2413
 7376TIP3    H222062   2.427   4.774   4.823 -1.4632 -0.1062 -0.9285
 7377TIP3   OH222063   3.412   2.266   4.400 -0.6146 -0.0140  0.6310
 7377TIP3    H122064   3.370   2.211   4.467 -0.7815  0.9905  1.3724
 7377TIP3    H222065   3.503   2.274   4.430 -0.4456 -0.3650  0.2118
 7378TIP3   OH222066   2.139   4.451   6.127  0.1338  0.0978  0.2081
 7378TIP3    H122067   2.173   4.390   6.061 -0.3490 -0.6385  0.6404
 7378TIP3    H222068   2.103   4.523   6.076 -1.1540 -0.9414 -0.3767
 7379TIP3   OH222069   2.880   4.240   4.882 -0.2159  0.0917 -0.0744
 7379TIP3    H122070   2.915   4.224   4.795  0.5448  2.5902 -0.2748
 7379TIP3    H222071   2.800   4.289   4.867 -0.2469  0.2575  0.6212
 7380TIP3   OH222072   1.219   3.566   3.645 -0.0952  0.0387  0.1219
 7380TIP3    H122073   1.143   3.562   3.702  0.8643  0.6380  1.4682
 7380TIP3    H222074   1.211   3.489   3.588 -1.9005  0.3258 -0.0322
 7381TIP3   OH222075   3.647   7.270   0.835 -0.1255 -0.2125  0.0893
 7381TIP3    H122076   3.686   7.336   0.777  0.0658  0.1864  0.6634
 7381TIP3    H222077   3.719   7.208   0.852 -0.4500 -0.8612 -0.8677
 7382TIP3   OH222078   3.194   4.012   6.287 -0.1494  0.2736 -0.0682
 7382TIP3    H122079   3.217   4.105   6.282  2.6234 -0.2729  1.1523
 7382TIP3    H222080   3.203   3.990   6.380  1.6881 -1.7430 -0.6696
 7383TIP3   OH222081   2.128   1.684   4.421 -0.6313  0.4552  0.1824
 7383TIP3    H122082   2.036   1.658   4.415 -0.3551 -0.5125  0.1538
 7383TIP3    H222083   2.153   1.667   4.512 -0.5542  0.9712  0.2598
 7384TIP3   OH222084   1.391   4.319   6.373  0.1841  0.7993 -0.1962
 7384TIP3    H122085   1.431   4.241   6.333  0.6146  0.8878  0.0534
 7384TIP3    H222086   1.342   4.360   6.302 -1.1240 -0.4145 -0.0152
 7385TIP3   OH222087   2.465   2.133   4.195  0.1889 -0.4598  0.1845
 7385TIP3    H122088   2.414   2.198   4.243  0.4818 -0.1376  0.0645
 7385TIP3    H222089   2.403   2.064   4.173 -0.3710  0.3006 -0.6497
 7386TIP3   OH222090   1.659   3.893   5.416 -0.0412 -0.2231  0.5653
 7386TIP3    H122091   1.710   3.938   5.483  0.9047 -1.2160  0.5378
 7386TIP3    H222092   1.719   3.886   5.341  0.1153 -2.2185  0.8583
 7387TIP3   OH222093   7.406   3.781   3.403  0.5700  0.3939 -0.4477
 7387TIP3    H122094   7.395   3.696   3.444 -2.0106  0.1514 -1.5483
 7387TIP3    H222095   7.361   3.842   3.461  0.8213  0.7162 -0.5893
 7388TIP3   OH222096   3.279   2.091   4.595 -0.3342 -0.6022  0.0261
 7388TIP3    H122097   3.318   2.097   4.683 -0.5143  1.7554 -0.0263
 7388TIP3    H222098   3.291   2.000   4.570 -0.3946 -1.3484  2.5642
 7389TIP3   OH222099   2.087   2.666   2.846 -0.3957 -0.6367 -0.3558
 7389TIP3    H122100   2.039   2.653   2.927  0.4117 -2.3089 -0.1219
 7389TIP3    H222101   2.137   2.746   2.860  0.0477 -1.1357  0.9468
 7390TIP3   OH222102   3.683   2.280   4.927  0.0446  0.1452 -1.5791
 7390TIP3    H122103   3.713   2.370   4.937 -2.3586  0.7837  0.4052
 7390TIP3    H222104   3.726   2.232   4.998 -2.8873  0.9137  0.8138
 7391TIP3   OH222105   2.373   4.820   2.992  0.0274  0.6918 -0.7559
 7391TIP3    H122106   2.284   4.818   3.026  0.0511 -1.7417 -0.7108
 7391TIP3    H222107   2.428   4.803   3.069  0.4099  0.4849 -1.0711
 7392TIP3   OH222108   1.553   3.390   6.872  0.1033  0.1370  0.0858
 7392TIP3    H122109   1.625   3.445   6.842 -0.6858  0.6049 -0.9741
 7392TIP3    H222110   1.489   3.451   6.909 -0.5632 -0.1033 -0.6527
 7393TIP3   OH222111   0.866   4.563   3.030 -0.4652 -0.0964 -0.6161
 7393TIP3    H122112   0.950   4.521   3.044 -0.5490  0.0239  0.3057
 7393TIP3    H222113   0.804   4.513   3.083 -0.7770  0.4547 -0.4485
 7394TIP3   OH222114   2.225   3.745   5.702  0.2643  0.1757  0.3762
 7394TIP3    H122115   2.156   3.687   5.670  1.7745 -0.1913 -2.2975
 7394TIP3    H222116   2.289   3.686   5.741  0.8564  0.1943 -0.5577
 7395TIP3   OH222117   0.687   3.841   3.937  0.2414  0.1424  0.1130
 7395TIP3    H122118   0.728   3.888   4.010  0.3722  0.9735 -0.4913
 7395TIP3    H222119   0.718   3.886   3.859 -0.5728 -0.2216 -0.4237
 7396TIP3   OH222120   7.178   1.646   0.055 -0.2715  0.3963  0.0652
 7396TIP3    H122121   7.247   1.580   0.055 -0.2277  0.4082 -2.4350
 7396TIP3    H222122   7.185   1.688   0.141  1.9791 -0.4852  0.3413
 7397TIP3   OH222123   0.398   2.818   0.498  0.2275  0.4992 -0.2429
 7397TIP3    H122124   0.458   2.746   0.481 -0.7367 -0.4214  0.2515
 7397TIP3    H222125   0.380   2.813   0.592 -0.3152  1.0278 -0.3155
 7398TIP3   OH222126   0.891   4.622   5.352 -0.1791 -0.4483 -0.2846
 7398TIP3    H122127   0.939   4.593   5.429 -1.2844  0.5197  0.7864
 7398TIP3    H222128   0.901   4.551   5.289  2.3459 -0.4163  0.0356
 7399TIP3   OH222129   3.065   2.399   4.686  0.1578 -0.3901 -0.1244
 7399TIP3    H122130   3.034   2.341   4.755 -0.0946  1.1359  1.0933
 7399TIP3    H222131   3.021   2.369   4.607  1.1478 -2.7304  0.1934
 7400TIP3   OH222132   2.762   5.558   1.906  0.0579  0.2656  0.2968
 7400TIP3    H122133   2.785   5.547   1.999  0.1728 -0.7437  0.1609
 7400TIP3    H222134   2.675   5.518   1.899 -0.6291  1.7327  0.2795
 7401TIP3   OH222135   0.814   4.216   4.915 -0.5708  0.1180 -0.6217
 7401TIP3    H122136   0.741   4.274   4.893 -1.2744 -0.4330  0.2182
 7401TIP3    H222137   0.854   4.257   4.992 -1.5952 -0.9376  0.5009
 7402TIP3   OH222138   1.284   3.616   4.035  0.8089 -0.4599 -0.0682
 7402TIP3    H122139   1.212   3.568   3.994  1.2617 -0.2584 -1.1342
 7402TIP3    H222140   1.293   3.695   3.981  0.8087  0.2697  0.9913
 7403TIP3   OH222141   3.623   1.251   5.963  0.4006 -0.1183 -0.1378
 7403TIP3    H122142   3.684   1.181   5.938  0.0120 -0.2127 -0.8111
 7403TIP3    H222143   3.585   1.281   5.881 -0.4890 -0.0787  0.2856
 7404TIP3   OH222144   1.889   3.499   3.411 -0.7054 -0.0473  0.1836
 7404TIP3    H122145   1.953   3.429   3.393  0.8595  1.5573 -0.5887
 7404TIP3    H222146   1.860   3.526   3.324  0.4197  1.8260  0.3753
 7405TIP3   OH222147   1.094   4.319   3.786  0.2504 -0.2524  0.0695
 7405TIP3    H122148   1.007   4.287   3.812  0.5508 -0.0179  1.3749
 7405TIP3    H222149   1.139   4.241   3.753  0.1715 -0.7368  1.0904
 7406TIP3   OH222150   3.045   6.423   1.833 -0.1014  0.2843  0.5521
 7406TIP3    H122151   3.085   6.443   1.748 -1.9104  0.7100 -0.2428
 7406TIP3    H222152   3.053   6.328   1.841 -0.5655  0.1506 -0.4557
 7407TIP3   OH222153   2.390   4.852   3.979  0.1118 -0.5671 -0.3253
 7407TIP3    H122154   2.294   4.849   3.977  0.1121  0.0487 -1.3162
 7407TIP3    H222155   2.416   4.760   3.973 -0.4559 -1.1097  3.8091
 7408TIP3   OH222156   3.307   3.549   6.504  0.6478  0.4721 -0.3265
 7408TIP3    H122157   3.362   3.474   6.527  0.1608  0.4348  0.7215
 7408TIP3    H222158   3.369   3.622   6.493  1.2250 -0.2561 -2.2560
 7409TIP3   OH222159   1.936   4.878   4.826 -0.3464 -0.1502  0.2585
 7409TIP3    H122160   1.916   4.786   4.810  0.7541 -1.2511  4.6692
 7409TIP3    H222161   1.978   4.908   4.745 -0.4854 -3.5693 -1.1456
 7410TIP3   OH222162   3.062   4.614   4.697  0.2353  0.4951 -0.1228
 7410TIP3    H122163   3.032   4.680   4.634 -0.4429 -0.2436 -0.5861
 7410TIP3    H222164   2.997   4.617   4.768 -0.9637 -1.0842 -1.1115
 7411TIP3   OH222165   0.901   3.017   4.000 -0.0603 -0.2129 -0.3533
 7411TIP3    H122166   0.850   2.947   4.040 -0.5834  0.0179 -0.6212
 7411TIP3    H222167   0.986   2.977   3.980 -0.5021 -0.8804 -0.8938
 7412TIP3   OH222168   3.139   4.584   2.851  0.1332 -0.2368  0.0124
 7412TIP3    H122169   3.198   4.632   2.793  0.3689 -0.9243 -0.3268
 7412TIP3    H222170   3.067   4.645   2.869 -0.1956 -0.1960 -1.4007
 7413TIP3   OH222171   1.115   3.974   5.803 -0.5973  0.0961  0.4123
 7413TIP3    H122172   1.169   3.949   5.728 -1.0309  0.3700  0.0099
 7413TIP3    H222173   1.179   3.995   5.872 -0.1828  0.6186 -0.1275
 7414TIP3   OH222174   2.721   2.148   4.284  0.2179 -0.2419 -0.3901
 7414TIP3    H122175   2.762   2.098   4.214  0.7806  0.5188 -0.6108
 7414TIP3    H222176   2.634   2.171   4.250  0.2870 -0.3369 -0.6252
 7415TIP3   OH222177   4.485   3.726   6.602  0.3684  0.2906  0.3674
 7415TIP3    H122178   4.495   3.783   6.678  1.2576 -0.3026  0.7002
 7415TIP3    H222179   4.390   3.720   6.589  0.2446  1.1749  0.8347
 7416TIP3   OH222180   3.027   3.334   6.381  0.7602 -0.2847 -0.7582
 7416TIP3    H122181   2.982   3.410   6.420  0.8018 -1.5413  1.8620
 7416TIP3    H222182   3.116   3.366   6.363  0.9277  0.1740  0.7924
 7417TIP3   OH222183   4.798   2.062   5.893  0.2662 -0.1913  0.0058
 7417TIP3    H122184   4.810   2.151   5.860  0.3404 -1.0771 -2.4641
 7417TIP3    H222185   4.851   2.058   5.973  0.9664  1.7028 -0.3531
 7418TIP3   OH222186   1.955   1.808   5.609 -0.1844 -0.3975  0.0267
 7418TIP3    H122187   1.930   1.809   5.702 -1.7296 -1.0777 -0.3612
 7418TIP3    H222188   1.885   1.760   5.566  0.8721 -0.6997 -1.4102
 7419TIP3   OH222189   1.970   5.085   5.015  0.1172 -0.1541 -0.5223
 7419TIP3    H122190   1.949   5.029   4.940 -0.5516 -0.7079  0.0601
 7419TIP3    H222191   1.933   5.170   4.993  0.5182 -0.1359 -1.1153
 7420TIP3   OH222192   3.350   3.972   3.389 -0.6602 -0.5166  0.2353
 7420TIP3    H122193   3.313   3.897   3.436  1.0372 -1.3490  0.2869
 7420TIP3    H222194   3.364   3.941   3.300 -0.2641 -0.1655  0.1709
 7421TIP3   OH222195   3.098   3.203   4.703  0.6847 -0.1990  0.0182
 7421TIP3    H122196   3.164   3.258   4.662  0.7149 -0.7282 -0.6476
 7421TIP3    H222197   3.124   3.113   4.683 -0.0958 -0.4204 -0.0465
 7422TIP3   OH222198   2.661   5.173   5.984  0.5618 -0.3821  0.0379
 7422TIP3    H122199   2.650   5.266   6.005 -2.0502 -0.4007 -1.0285
 7422TIP3    H222200   2.674   5.130   6.069 -0.8266  0.6474  0.7828
 7423TIP3   OH222201   4.748   1.533   3.290  0.0908  0.6323  0.1296
 7423TIP3    H122202   4.819   1.528   3.355  1.8255  0.1332 -1.7573
 7423TIP3    H222203   4.771   1.609   3.236 -1.3247  1.0281  0.0796
 7424TIP3   OH222204   2.021   4.167   5.690  0.6803  0.1912  0.0667
 7424TIP3    H122205   2.054   4.189   5.602 -0.6468  2.4739  0.0928
 7424TIP3    H222206   2.013   4.072   5.689 -0.2615  0.2267 -2.6882
 7425TIP3   OH222207   1.599   4.923   4.843 -0.1560 -0.1244 -0.5565
 7425TIP3    H122208   1.579   4.845   4.896 -2.4546  0.5620 -0.3747
 7425TIP3    H222209   1.571   4.899   4.755 -0.3863  0.3051 -0.5988
 7426TIP3   OH222210   2.184   3.937   4.275 -0.5457 -0.1790  0.0633
 7426TIP3    H122211   2.261   3.984   4.307 -0.3535 -1.5078  1.6193
 7426TIP3    H222212   2.170   3.971   4.187  1.8221  0.0828 -0.2424
 7427TIP3   OH222213   8.086   4.042   4.211 -0.2157 -0.1458 -0.4003
 7427TIP3    H122214   8.163   4.039   4.267  0.1139  0.2070 -0.8234
 7427TIP3    H222215   8.070   4.136   4.196 -0.2984 -0.2334 -0.8870
 7428TIP3   OH222216   0.674   6.667   4.881  0.3931  0.2974  0.2000
 7428TIP3    H122217   0.675   6.574   4.903 -1.5763  0.2991  0.4508
 7428TIP3    H222218   0.670   6.712   4.965 -1.6993  0.4775  0.0424
 7429TIP3   OH222219   1.663   5.734   6.061  0.0353 -0.1139 -0.0626
 7429TIP3    H122220   1.658   5.787   6.140 -1.0447 -0.1718 -0.0739
 7429TIP3    H222221   1.733   5.671   6.078  1.5047  1.4569 -0.1569
 7430TIP3   OH222222   1.602   5.359   4.962  0.4246  0.6649 -0.2588
 7430TIP3    H122223   1.512   5.344   4.991  0.4454  1.7775  0.4338
 7430TIP3    H222224   1.618   5.292   4.896  0.6254 -2.4450  2.8167
 7431TIP3   OH222225   4.342   4.493   5.968  0.0087  0.2952  0.1491
 7431TIP3    H122226   4.427   4.457   5.940  0.0600 -0.2560  1.0197
 7431TIP3    H222227   4.291   4.417   5.995 -0.4795  0.7077  0.3955
 7432TIP3   OH222228   1.868   2.100   3.544  0.2484 -0.1224 -0.1469
 7432TIP3    H122229   1.841   2.073   3.632 -1.5525  1.4876 -0.1675
 7432TIP3    H222230   1.811   2.051   3.485 -0.8635  1.2731 -0.2776
 7433TIP3   OH222231   2.898   4.513   4.382 -0.2220 -0.0471 -0.3846
 7433TIP3    H122232   2.880   4.606   4.395 -0.4877 -0.0678 -0.5924
 7433TIP3    H222233   2.992   4.505   4.392 -0.3131  0.0913  0.5871
 7434TIP3   OH222234   5.068   7.460   5.101 -0.1920  0.1828 -0.2562
 7434TIP3    H122235   5.005   7.389   5.110  0.3731 -0.0136  2.4499
 7434TIP3    H222236   5.057   7.513   5.180  1.2501  1.5876 -0.9605
 7435TIP3   OH222237   1.509   2.247   5.171  0.0321  0.1449  0.1737
 7435TIP3    H122238   1.422   2.241   5.131  0.6484 -0.5503 -1.1001
 7435TIP3    H222239   1.496   2.222   5.262 -1.2579  0.9041  0.2104
 7436TIP3   OH222240   2.824   3.513   4.930 -0.3247  0.2702  0.4298
 7436TIP3    H122241   2.793   3.599   4.901 -0.4536 -0.1824 -0.8342
 7436TIP3    H222242   2.904   3.531   4.979 -0.4694  1.1218  0.3612
 7437TIP3   OH222243   6.194   0.004   0.547  0.3995 -0.4816  0.4549
 7437TIP3    H122244   6.210   0.087   0.593 -0.1762  0.3821 -0.8498
 7437TIP3    H222245   6.271  -0.009   0.493 -0.5569  0.4949 -1.1910
 7438TIP3   OH222246   3.573   5.997   6.398  0.4143  0.1187  0.1067
 7438TIP3    H122247   3.537   5.960   6.478 -0.5924  0.4069 -0.2095
 7438TIP3    H222248   3.592   5.920   6.343  0.2417 -0.0361  0.2627
 7439TIP3   OH222249   1.909   4.458   4.457 -0.2928 -0.3568  0.2896
 7439TIP3    H122250   1.908   4.375   4.506  0.2728 -1.2817 -1.2436
 7439TIP3    H222251   1.875   4.435   4.371  0.3363  0.9163 -0.2994
 7440TIP3   OH222252   1.530   4.141   4.855  0.3804  0.0373 -0.3447
 7440TIP3    H122253   1.566   4.224   4.824 -1.0276  1.9027  2.7343
 7440TIP3    H222254   1.597   4.106   4.913  0.9176 -0.9621 -1.5419
 7441TIP3   OH222255   2.648   3.075   2.750 -0.1021 -0.5945  0.0015
 7441TIP3    H122256   2.707   3.094   2.677 -0.6578  0.6427 -0.1344
 7441TIP3    H222257   2.569   3.042   2.707 -0.8157  1.1108 -0.0385
 7442TIP3   OH222258   3.407   5.360   4.244 -0.0568  0.1974  0.3866
 7442TIP3    H122259   3.322   5.330   4.276  0.9088 -1.7830  1.2449
 7442TIP3    H222260   3.452   5.394   4.321  0.5039 -0.2228  0.2545
 7443TIP3   OH222261   2.521   4.032   3.834  0.3485 -0.2501  0.2956
 7443TIP3    H122262   2.521   3.991   3.921 -0.2512 -0.1680  0.3392
 7443TIP3    H222263   2.601   4.001   3.793  0.7280 -0.1459  0.9489
 7444TIP3   OH222264   2.858   5.579   5.566  0.6677 -0.1288 -0.5195
 7444TIP3    H122265   2.794   5.513   5.539  0.0299 -0.0012  0.6847
 7444TIP3    H222266   2.854   5.645   5.497 -3.4834  1.9296  1.4938
 7445TIP3   OH222267   4.801   3.290   3.565  0.8864 -0.6758 -0.2369
 7445TIP3    H122268   4.781   3.280   3.472  2.0831 -0.0833 -0.5793
 7445TIP3    H222269   4.725   3.335   3.601  0.8301 -0.0395 -1.1271
 7446TIP3   OH222270   0.351   4.161   4.471 -0.5577  0.1563 -0.0251
 7446TIP3    H122271   0.291   4.234   4.454 -1.4099 -0.4782  0.2747
 7446TIP3    H222272   0.316   4.118   4.549  0.4934  0.0002  0.3757
 7447TIP3   OH222273   0.996   3.063   5.871  0.1916  0.3267 -0.3103
 7447TIP3    H122274   0.907   3.027   5.865 -0.0392  0.6563  0.9620
 7447TIP3    H222275   1.033   3.021   5.948  0.6575  1.2318 -0.0425
 7448TIP3   OH222276   3.158   2.646   4.242  0.2923  0.1583  0.8606
 7448TIP3    H122277   3.103   2.690   4.178  0.8508  1.0424  0.9756
 7448TIP3    H222278   3.131   2.684   4.326 -0.2881 -0.8366  1.1273
 7449TIP3   OH222279   4.569   1.674   3.969 -0.3835 -0.0075  0.3577
 7449TIP3    H122280   4.558   1.699   4.060  0.6688  0.7152  0.2999
 7449TIP3    H222281   4.482   1.683   3.931 -0.8912 -0.6232  1.3600
 7450TIP3   OH222282   1.395   2.359   3.187  0.0869 -0.0240 -0.0635
 7450TIP3    H122283   1.453   2.432   3.166 -1.8970  1.4844 -0.4751
 7450TIP3    H222284   1.400   2.352   3.282  1.6467 -0.5124 -0.1752
 7451TIP3   OH222285   4.293   5.969   5.290 -0.0098 -0.3078  0.1429
 7451TIP3    H122286   4.380   5.991   5.324  0.0053 -2.8582  1.9428
 7451TIP3    H222287   4.244   6.051   5.295  1.4440  0.4944  1.8719
 7452TIP3   OH222288   2.765   4.004   6.333  0.0731  0.2905  0.0022
 7452TIP3    H122289   2.816   3.929   6.303 -0.4130 -0.2143  0.4095
 7452TIP3    H222290   2.829   4.073   6.347  0.3882  0.2954 -1.4505
 7453TIP3   OH222291   1.491   3.946   5.815 -0.0616 -0.6481 -0.1677
 7453TIP3    H122292   1.466   3.862   5.853  1.5305 -1.6422 -1.2279
 7453TIP3    H222293   1.582   3.958   5.841 -0.2216  0.6713 -0.1710
 7454TIP3   OH222294   7.964   5.393   5.010 -0.4912 -0.6705 -0.4326
 7454TIP3    H122295   7.958   5.308   5.052 -3.9858 -0.7852 -0.9580
 7454TIP3    H222296   7.966   5.374   4.916  0.1078 -0.2291 -0.5093
 7455TIP3   OH222297   3.074   6.035   5.600  0.2853  0.0879 -0.3691
 7455TIP3    H122298   3.010   6.044   5.670  0.9265 -0.4717  0.2949
 7455TIP3    H222299   3.079   5.941   5.585  0.1702  0.2030 -1.1581
 7456TIP3   OH222300   3.043   5.297   6.210  0.2464 -0.0313  0.3470
 7456TIP3    H122301   3.003   5.241   6.143 -1.2386  0.5525  0.7239
 7456TIP3    H222302   2.978   5.366   6.225  0.7394  0.0568  2.1279
 7457TIP3   OH222303   5.162   2.771   5.420  0.4149  0.3105  0.0561
 7457TIP3    H122304   5.256   2.764   5.407  0.1601 -1.0057 -1.3345
 7457TIP3    H222305   5.124   2.735   5.339 -1.2702 -0.5549  1.1887
 7458TIP3   OH222306   3.035   2.765   4.025 -0.5425 -0.4534  0.2333
 7458TIP3    H122307   2.978   2.841   4.011 -1.3897 -0.8653  1.3985
 7458TIP3    H222308   3.009   2.703   3.956 -0.3683  0.0059 -0.2498
 7459TIP3   OH222309   0.973   4.482   6.365 -0.1330  0.3253 -0.1901
 7459TIP3    H122310   1.017   4.565   6.342 -0.8952  0.5858 -0.7300
 7459TIP3    H222311   0.950   4.444   6.281  0.8866 -0.8228  0.0319
 7460TIP3   OH222312   2.084   5.143   5.767 -0.5498 -0.2331  0.3318
 7460TIP3    H122313   1.989   5.133   5.767 -0.6425  0.6247  1.0483
 7460TIP3    H222314   2.110   5.126   5.857  0.1710 -2.1949 -0.2198
 7461TIP3   OH222315   1.235   4.806   3.481 -0.4017  0.0580  0.0435
 7461TIP3    H122316   1.200   4.765   3.561 -1.6365  3.1958  1.1731
 7461TIP3    H222317   1.246   4.898   3.504 -1.5889  1.2012 -3.6585
 7462TIP3   OH222318   1.411   4.061   5.373 -0.3081 -0.4955 -0.2659
 7462TIP3    H122319   1.480   3.999   5.350  0.4642  0.9017 -1.8493
 7462TIP3    H222320   1.349   4.056   5.301  0.0522  0.9480 -0.7033
 7463TIP3   OH222321   0.274   5.780   4.537  1.0408 -0.6771 -0.2118
 7463TIP3    H122322   0.355   5.730   4.551  3.2801  2.8943  0.1270
 7463TIP3    H222323   0.270   5.795   4.443  1.9932  1.0528  0.0074
 7464TIP3   OH222324   1.400   4.606   6.142 -0.0363  0.3759 -0.4168
 7464TIP3    H122325   1.331   4.642   6.199 -0.5162 -0.0925 -0.6954
 7464TIP3    H222326   1.352   4.568   6.069  0.4926 -0.5500 -0.2770
 7465TIP3   OH222327   0.650   3.229   4.278 -0.1462 -0.0988  0.2672
 7465TIP3    H122328   0.631   3.140   4.308 -1.0567 -0.0683 -0.2331
 7465TIP3    H222329   0.570   3.278   4.294  0.6849  0.8960  1.4985
 7466TIP3   OH222330   2.279   1.405   5.522 -0.1078 -0.2900 -0.8009
 7466TIP3    H122331   2.293   1.457   5.601 -1.3982 -0.9722 -0.0974
 7466TIP3    H222332   2.220   1.459   5.468  0.4176 -0.0209 -1.1180
 7467TIP3   OH222333   3.521   1.164   3.854 -0.1011  0.0482 -0.4943
 7467TIP3    H122334   3.447   1.135   3.907 -0.2192  0.7928 -0.2425
 7467TIP3    H222335   3.483   1.230   3.795  0.7162  1.7769  0.8743
 7468TIP3   OH222336   4.993   2.474   3.832 -0.2738  0.3850 -0.3727
 7468TIP3    H122337   5.012   2.477   3.925  3.3378 -0.4843 -0.9880
 7468TIP3    H222338   4.936   2.397   3.821  2.1075 -1.6010  0.7338
 7469TIP3   OH222339   2.224   2.946   4.914  0.2568  0.2481  0.7241
 7469TIP3    H122340   2.189   2.948   5.003  1.7969 -0.0948  1.3568
 7469TIP3    H222341   2.303   2.999   4.918  0.7616 -0.4024 -0.2547
 7470TIP3   OH222342   0.388   2.100   5.293 -0.1107  0.3531  0.2222
 7470TIP3    H122343   0.337   2.135   5.366  0.0854  0.7306  0.1785
 7470TIP3    H222344   0.454   2.167   5.275  1.2005 -0.6930  1.1054
 7471TIP3   OH222345   0.386   4.777   3.752 -0.0363 -0.1372  0.1424
 7471TIP3    H122346   0.328   4.706   3.724 -0.5226 -0.4033  1.7805
 7471TIP3    H222347   0.385   4.773   3.848  3.0931 -0.4777  0.2139
 7472TIP3   OH222348   3.122   2.729   4.536  0.2577  0.1639 -0.0584
 7472TIP3    H122349   3.163   2.808   4.571  2.5502  0.0230 -2.2529
 7472TIP3    H222350   3.131   2.665   4.607 -0.0547  1.3498  1.0871
 7473TIP3   OH222351   2.803   1.927   4.958  0.1179  0.3924  0.6275
 7473TIP3    H122352   2.838   1.993   4.898  1.8845 -0.6719  0.4696
 7473TIP3    H222353   2.736   1.974   5.008 -0.7914  1.5192 -1.5473
 7474TIP3   OH222354   1.636   2.523   3.059  0.2766 -0.5741  0.5646
 7474TIP3    H122355   1.728   2.551   3.062 -0.1585  1.2601 -1.4482
 7474TIP3    H222356   1.633   2.462   2.985 -0.3275  0.3410 -0.1899
 7475TIP3   OH222357   2.329   1.212   4.971 -0.4091 -0.2859 -0.6175
 7475TIP3    H122358   2.331   1.282   4.905  2.8855  0.5614  0.2942
 7475TIP3    H222359   2.333   1.258   5.055 -0.5898 -1.4995  0.0579
 7476TIP3   OH222360   1.535   3.242   3.900  0.2105  0.0511  0.7999
 7476TIP3    H122361   1.493   3.159   3.879  1.6826 -0.7656  1.0505
 7476TIP3    H222362   1.480   3.280   3.968 -2.6355  1.0876 -1.9682
 7477TIP3   OH222363   1.466   4.662   3.746 -0.4711 -0.0464 -0.0561
 7477TIP3    H122364   1.419   4.583   3.719  0.1614  0.4765 -2.7641
 7477TIP3    H222365   1.397   4.727   3.760 -0.9216 -0.7814  1.2799
 7478TIP3   OH222366   3.627   5.111   2.160 -0.1050  0.0918 -0.4933
 7478TIP3    H122367   3.538   5.081   2.179  0.6683  0.2852  4.0649
 7478TIP3    H222368   3.623   5.206   2.173  0.6460  0.1910 -0.9608
 7479TIP3   OH222369   2.116   2.520   5.249 -0.3292 -0.0556 -0.2920
 7479TIP3    H122370   2.201   2.506   5.209 -0.7566  0.2392 -1.3150
 7479TIP3    H222371   2.053   2.500   5.180 -1.1018 -0.4905  0.5127
 7480TIP3   OH222372   0.107   2.939   5.702  0.0658  0.4465 -0.3322
 7480TIP3    H122373   0.078   3.024   5.735 -1.2779 -0.3598  0.6144
 7480TIP3    H222374   0.141   2.958   5.615 -1.5048  1.7365 -0.6873
 7481TIP3   OH222375   2.571   3.242   5.310  0.6294  0.0120  0.1964
 7481TIP3    H122376   2.519   3.317   5.280  1.9514  1.4323  1.3658
 7481TIP3    H222377   2.632   3.226   5.238  0.3499  0.0649 -0.0547
 7482TIP3   OH222378   1.888   3.158   6.150 -0.2705  0.2984 -0.2463
 7482TIP3    H122379   1.889   3.158   6.054 -0.4137  0.9181 -0.2536
 7482TIP3    H222380   1.946   3.231   6.174 -0.4195  0.2920  0.1312
 7483TIP3   OH222381   2.277   5.122   5.471 -0.1610 -0.3154 -0.1127
 7483TIP3    H122382   2.365   5.097   5.441 -0.1121  0.1177 -0.3372
 7483TIP3    H222383   2.283   5.118   5.567 -0.2627 -1.5133 -0.1507
 7484TIP3   OH222384   3.863   5.463   3.701 -0.0880 -0.3824  0.0823
 7484TIP3    H122385   3.951   5.430   3.686 -0.2561 -0.3918 -0.9098
 7484TIP3    H222386   3.806   5.400   3.658 -0.3688  1.6508 -2.6719
 7485TIP3   OH222387   3.900   1.696   4.376  0.1135  0.4915  0.4584
 7485TIP3    H122388   3.851   1.680   4.457  0.7359 -2.3062  0.3351
 7485TIP3    H222389   3.841   1.664   4.307  0.0172  1.9082 -0.1345
 7486TIP3   OH222390   5.010   5.597   3.914  0.5570 -0.8172  0.2528
 7486TIP3    H122391   4.992   5.522   3.858 -0.3274 -0.2511 -0.2332
 7486TIP3    H222392   4.948   5.589   3.986  0.7967 -0.8223  0.4594
 7487TIP3   OH222393   6.557   3.702   3.176 -0.8170  0.3783  0.8258
 7487TIP3    H122394   6.633   3.685   3.232  0.7491  2.0495 -0.7000
 7487TIP3    H222395   6.521   3.784   3.208 -1.3276  0.1488  0.8482
 7488TIP3   OH222396   3.294   5.296   3.166  0.8604 -0.4946 -0.4418
 7488TIP3    H122397   3.328   5.208   3.179  3.8344  0.4495 -1.4335
 7488TIP3    H222398   3.242   5.314   3.244  0.6008 -2.9268 -0.0215
 7489TIP3   OH222399   5.029   2.983   4.674 -0.5559 -0.5164  0.2326
 7489TIP3    H122400   5.045   2.973   4.768 -1.0366 -0.7772  0.2893
 7489TIP3    H222401   5.114   2.969   4.634 -0.4394 -0.8648  0.5996
 7490TIP3   OH222402   4.410   4.465   5.036  0.6938  0.3677 -0.5543
 7490TIP3    H122403   4.501   4.478   5.010  0.7859  0.9871  0.0648
 7490TIP3    H222404   4.414   4.406   5.112  0.4934 -0.5736 -1.2565
 7491TIP3   OH222405   3.166   3.947   6.587  0.2380 -0.1901  0.0581
 7491TIP3    H122406   3.257   3.919   6.593 -0.5174 -2.4074  1.7150
 7491TIP3    H222407   3.117   3.881   6.636 -2.1978  1.3022 -0.2818
 7492TIP3   OH222408   3.398   2.275   4.133  0.2536 -0.2282  0.0106
 7492TIP3    H122409   3.342   2.266   4.210 -0.3139  0.1272 -0.3595
 7492TIP3    H222410   3.376   2.200   4.077  0.3668 -0.2572  0.0042
 7493TIP3   OH222411   4.089   3.422   5.828  0.0485  1.0807  0.2006
 7493TIP3    H122412   4.175   3.455   5.802 -0.1480  1.1218 -0.4024
 7493TIP3    H222413   4.109   3.344   5.880  0.4677  1.3962  0.5196
 7494TIP3   OH222414   4.769   3.899   4.263  0.6561 -0.0269 -0.1872
 7494TIP3    H122415   4.778   3.979   4.315  2.2510 -0.0955 -0.3319
 7494TIP3    H222416   4.859   3.872   4.246  0.1685  0.2441 -3.4020
 7495TIP3   OH222417   4.432   0.894   4.625  0.0902 -0.3287  0.0926
 7495TIP3    H122418   4.513   0.927   4.585  0.8219 -0.7559  1.1795
 7495TIP3    H222419   4.362   0.923   4.567  0.9477  0.8995 -0.3339
 7496TIP3   OH222420   3.613   2.959   4.149 -0.2100  0.9841  0.0891
 7496TIP3    H122421   3.627   3.016   4.074 -0.8332 -0.1104 -0.8798
 7496TIP3    H222422   3.520   2.965   4.167 -0.7429 -1.5257 -1.5365
 7497TIP3   OH222423   3.884   3.409   3.963 -0.0113  0.0082  0.1722
 7497TIP3    H122424   3.963   3.405   3.908 -0.6339  0.3036 -0.7554
 7497TIP3    H222425   3.885   3.326   4.011  0.7412 -0.0964 -0.0077
 7498TIP3   OH222426   2.754   5.332   3.836  0.1111 -0.0073 -0.5924
 7498TIP3    H122427   2.797   5.387   3.901 -0.5728  0.3565 -0.4371
 7498TIP3    H222428   2.781   5.243   3.857  2.1356  0.3595 -1.5318
 7499TIP3   OH222429   6.910   2.970   3.611 -0.8432  0.2510  0.7248
 7499TIP3    H122430   6.996   2.931   3.600 -0.4580  1.5884 -1.4667
 7499TIP3    H222431   6.849   2.901   3.585 -0.3237  0.0289  0.0837
 7500TIP3   OH222432   4.514   5.399   4.053 -0.2395  0.1310  0.6993
 7500TIP3    H122433   4.571   5.471   4.024 -0.0269 -0.1886  0.3129
 7500TIP3    H222434   4.425   5.430   4.034 -0.1404  0.2314  0.3882
 7501TIP3   OH222435   4.007   5.852   3.622 -0.0741 -0.1206 -0.1541
 7501TIP3    H122436   4.097   5.876   3.644 -0.4354  0.2132  0.9910
 7501TIP3    H222437   3.955   5.928   3.645 -1.1772 -1.7745  3.1068
 7502TIP3   OH222438   3.438   4.596   4.741  0.4901  0.5871 -0.5925
 7502TIP3    H122439   3.389   4.673   4.769 -0.8785  0.0881 -1.5496
 7502TIP3    H222440   3.370   4.530   4.725  1.7241 -1.2903  1.6603
 7503TIP3   OH222441   3.821   2.810   5.468 -0.0671  0.3435  0.0472
 7503TIP3    H122442   3.743   2.757   5.484  1.0653 -0.7384  2.0939
 7503TIP3    H222443   3.883   2.784   5.536  1.8917  1.5882 -1.1972
 7504TIP3   OH222444   4.127   4.309   5.975 -0.0839  0.0084 -0.5328
 7504TIP3    H122445   4.044   4.316   6.024  0.4615 -0.2052  0.4410
 7504TIP3    H222446   4.106   4.343   5.888 -0.7322  1.7653  0.2669
 7505TIP3   OH222447   3.493   4.332   3.688  0.0297  0.2252 -0.5818
 7505TIP3    H122448   3.426   4.274   3.723 -0.2078  1.2735  0.7294
 7505TIP3    H222449   3.567   4.274   3.668  0.1250 -0.4108  1.5605
 7506TIP3   OH222450   3.535   3.668   4.036  0.3098 -0.2879 -0.0359
 7506TIP3    H122451   3.623   3.638   4.017  0.1869  0.4505 -1.8251
 7506TIP3    H222452   3.547   3.751   4.082  0.5341  0.0954 -0.7888
 7507TIP3   OH222453   3.443   6.527   4.034 -0.8798  0.4887  0.0191
 7507TIP3    H122454   3.390   6.545   4.112 -0.9105  1.3268 -0.1898
 7507TIP3    H222455   3.448   6.611   3.989 -0.1719  0.1935 -0.4587
 7508TIP3   OH222456   3.074   5.583   4.158  0.0516  0.4803 -0.2160
 7508TIP3    H122457   3.122   5.657   4.122  1.5661 -0.8051 -0.8621
 7508TIP3    H222458   3.103   5.577   4.249  1.9869 -0.9504 -0.8863
 7509TIP3   OH222459   5.033   5.141   3.857  0.4092  0.0500 -0.1942
 7509TIP3    H122460   5.079   5.223   3.871 -2.2254  1.5408  0.1125
 7509TIP3    H222461   5.024   5.103   3.944  0.2164  0.2128 -0.1450
 7510TIP3   OH222462   4.565   5.535   2.938 -0.0264 -0.1482  0.3400
 7510TIP3    H122463   4.658   5.547   2.953  0.2135  1.0991 -2.0248
 7510TIP3    H222464   4.558   5.502   2.849 -1.8291 -0.3102  0.5157
 7511TIP3   OH222465   4.460   5.143   1.750 -0.1087 -0.7441  0.1619
 7511TIP3    H122466   4.400   5.206   1.790  1.8624  0.1170  1.8575
 7511TIP3    H222467   4.459   5.068   1.809  0.2256 -0.8607  0.0240
 7512TIP3   OH222468   3.976   2.693   4.331 -0.1578  0.0203 -0.1620
 7512TIP3    H122469   3.961   2.762   4.266  0.4066  0.5201  0.2358
 7512TIP3    H222470   3.933   2.724   4.410  0.4996  0.1397  0.1532
 7513TIP3   OH222471   5.890   7.500   3.900 -0.1642  0.1960 -0.2988
 7513TIP3    H122472   5.826   7.437   3.866 -1.6437  1.0828  0.7572
 7513TIP3    H222473   5.844   7.584   3.898  0.3845  0.5960  2.0199
 7514TIP3   OH222474   3.278   3.369   4.567  0.5765 -0.4909 -0.0085
 7514TIP3    H122475   3.248   3.403   4.483  0.0993 -1.0562 -0.0706
 7514TIP3    H222476   3.359   3.417   4.585  0.3481  0.0807 -0.4858
 7515TIP3   OH222477   4.351   5.565   3.718 -0.1937  0.2751  0.1635
 7515TIP3    H122478   4.295   5.622   3.664  0.0333  0.3449  0.0017
 7515TIP3    H222479   4.423   5.541   3.660 -1.2277 -1.6714 -0.3762
 7516TIP3   OH222480   6.091   4.456   4.098  0.1110  0.9634 -0.2594
 7516TIP3    H122481   6.030   4.441   4.026  0.3930 -0.4063 -0.2380
 7516TIP3    H222482   6.083   4.377   4.153  2.1618  0.5871 -0.4646
 7517TIP3   OH222483   3.235   5.039   5.292 -0.3550  0.4184 -0.6272
 7517TIP3    H122484   3.272   5.110   5.344  0.2777 -0.3748  0.0354
 7517TIP3    H222485   3.153   5.074   5.258 -0.1923  1.3638 -0.0731
 7518TIP3   OH222486   1.868   4.675   3.892  0.5212 -0.5328 -0.4606
 7518TIP3    H122487   1.947   4.708   3.936 -0.2623  2.1837 -1.0154
 7518TIP3    H222488   1.800   4.678   3.960  0.2144 -0.0593 -0.7895
 7519TIP3   OH222489   3.311   2.334   3.656 -0.0053 -0.0532 -0.2288
 7519TIP3    H122490   3.330   2.427   3.668  0.3480 -0.5592  4.3232
 7519TIP3    H222491   3.394   2.290   3.674 -0.8709 -1.3720  0.6582
 7520TIP3   OH222492   2.667   5.422   4.182  0.2256  0.1581  0.1464
 7520TIP3    H122493   2.653   5.428   4.277  1.3881 -0.4086  0.3675
 7520TIP3    H222494   2.597   5.365   4.151  1.1890 -1.5586  1.0265
 7521TIP3   OH222495   3.036   7.166   3.526  0.3768  0.0800  0.1493
 7521TIP3    H122496   3.105   7.116   3.568  0.3859  0.9561  1.1853
 7521TIP3    H222497   3.038   7.137   3.435  2.3702  0.3790  0.0703
 7522TIP3   OH222498   1.451   3.706   3.783 -0.3002 -0.2789 -0.2139
 7522TIP3    H122499   1.397   3.768   3.734  0.7621 -0.4460 -1.6012
 7522TIP3    H222500   1.416   3.620   3.760 -1.2059 -0.2635  1.0328
 7523TIP3   OH222501   5.317   5.784   1.273  0.2263 -0.1189  0.2646
 7523TIP3    H122502   5.357   5.698   1.266 -0.2022 -0.3663  0.8959
 7523TIP3    H222503   5.392   5.844   1.281  0.5012 -0.5274  0.8385
 7524TIP3   OH222504   5.631   3.330   6.605  0.1170 -0.1117 -0.2499
 7524TIP3    H122505   5.607   3.238   6.594  0.7351 -0.3427  0.3232
 7524TIP3    H222506   5.698   3.345   6.539 -0.6479  0.1893 -0.9780
 7525TIP3   OH222507   2.967   5.333   5.383 -0.3141 -0.2235 -0.1888
 7525TIP3    H122508   3.018   5.313   5.304  0.6307 -0.3515  0.4611
 7525TIP3    H222509   2.932   5.421   5.366 -1.3330 -0.8394 -1.3846
 7526TIP3   OH222510   4.997   3.925   3.941 -0.1458 -0.0398 -0.4764
 7526TIP3    H122511   4.957   4.011   3.935  1.7464  0.6672 -3.6775
 7526TIP3    H222512   5.091   3.941   3.943  0.2104 -1.9824 -0.0481
 7527TIP3   OH222513   3.310   5.186   6.083 -0.0404 -0.0474 -0.0567
 7527TIP3    H122514   3.348   5.235   6.009 -0.0213  0.0719  0.0310
 7527TIP3    H222515   3.222   5.222   6.092 -0.0354 -0.0489 -0.0090
 7528TIP3   OH222516   5.376   1.659   4.889  0.2612 -0.0385  0.3816
 7528TIP3    H122517   5.427   1.630   4.814 -1.0271 -1.3299 -0.0139
 7528TIP3    H222518   5.321   1.730   4.855  0.9954  0.6292  0.5593
 7529TIP3   OH222519   6.950   5.643   2.687  0.0412  0.3667 -0.6727
 7529TIP3    H122520   6.931   5.621   2.596 -1.0252  1.7519 -0.8157
 7529TIP3    H222521   6.937   5.738   2.691 -0.0679  0.2932  0.9453
 7530TIP3   OH222522   3.925   4.731   3.280 -0.6062  0.3728 -0.3109
 7530TIP3    H122523   3.885   4.707   3.196  0.6529  1.1101 -1.1288
 7530TIP3    H222524   3.958   4.819   3.267 -0.3154  0.4605  0.9432
 7531TIP3   OH222525   3.503   3.859   4.466 -0.0884 -0.3748 -0.0254
 7531TIP3    H122526   3.526   3.937   4.417 -0.7001 -0.4543 -0.4329
 7531TIP3    H222527   3.559   3.790   4.429  1.0744  0.0498  0.9183
 7532TIP3   OH222528   4.263   1.914   5.422  0.1352  0.6251  0.3509
 7532TIP3    H122529   4.277   1.863   5.502  1.3640  0.5491  0.1024
 7532TIP3    H222530   4.253   1.849   5.353  0.9052  0.6941  0.1633
 7533TIP3   OH222531   2.355   5.581   3.703  0.0303 -0.1538  0.6015
 7533TIP3    H122532   2.415   5.562   3.776  0.4895 -0.1994  0.2092
 7533TIP3    H222533   2.270   5.548   3.734  0.3388 -0.6936  0.8950
 7534TIP3   OH222534   3.875   5.242   2.083 -0.5218  0.3226  0.1866
 7534TIP3    H122535   3.837   5.254   1.996  0.8735 -2.6461 -0.9233
 7534TIP3    H222536   3.817   5.181   2.127  1.3181 -2.0428 -0.5156
 7535TIP3   OH222537   4.797   1.543   4.033 -0.0750 -0.1974 -0.5018
 7535TIP3    H122538   4.837   1.493   3.962 -0.9216 -1.2661 -0.2340
 7535TIP3    H222539   4.730   1.596   3.990  1.2982  1.2517 -0.8858
 7536TIP3   OH222540   4.458   3.796   6.007 -0.8903 -0.2155  0.0237
 7536TIP3    H122541   4.430   3.881   6.043  1.1500  1.0619 -1.2879
 7536TIP3    H222542   4.495   3.750   6.082 -0.9060  0.5550  0.5167
 7537TIP3   OH222543   3.192   2.946   3.021 -0.2697  0.0994 -0.3135
 7537TIP3    H122544   3.226   2.972   3.107 -0.6011  1.2671 -0.5331
 7537TIP3    H222545   3.097   2.958   3.029 -0.4339 -1.0726 -0.4103
 7538TIP3   OH222546   2.632   3.460   3.880  0.5010  0.1116 -1.2136
 7538TIP3    H122547   2.594   3.539   3.919  1.4056  0.6834 -1.4708
 7538TIP3    H222548   2.626   3.394   3.949  2.4331  1.2099  0.0767
 7539TIP3   OH222549   4.224   3.737   5.138  0.1333 -0.2478 -0.3740
 7539TIP3    H122550   4.221   3.643   5.159  0.7058 -0.1099  0.3500
 7539TIP3    H222551   4.155   3.749   5.074 -1.5879 -0.7387  1.3328
 7540TIP3   OH222552   2.835   4.276   4.097 -0.1716  0.5921  0.2858
 7540TIP3    H122553   2.851   4.368   4.119 -0.7975  0.9497 -0.7138
 7540TIP3    H222554   2.884   4.261   4.016 -1.4467  0.5385 -0.5029
 7541TIP3   OH222555   2.050   4.871   5.176 -0.1084 -0.1494  0.5998
 7541TIP3    H122556   2.060   4.913   5.262 -2.1474 -1.5694  1.5712
 7541TIP3    H222557   2.037   4.943   5.115  2.4274  0.9570  1.2794
 7542TIP3   OH222558   2.995   2.328   5.133  0.0868  0.6066 -0.0084
 7542TIP3    H122559   3.001   2.423   5.143  0.6048  0.4667  0.9948
 7542TIP3    H222560   3.086   2.298   5.131 -0.0743  0.1444 -0.4615
 7543TIP3   OH222561   3.576   3.728   1.797 -0.3898 -0.0909  0.8047
 7543TIP3    H122562   3.641   3.739   1.728 -0.3476 -0.0110  0.8563
 7543TIP3    H222563   3.625   3.686   1.869 -1.0129 -2.4861 -0.1147
 7544TIP3   OH222564   4.631   5.442   5.184 -0.4098 -0.3537  0.2627
 7544TIP3    H122565   4.680   5.505   5.132  0.4668 -1.3338 -0.1250
 7544TIP3    H222566   4.562   5.411   5.125 -0.2576 -0.4484  0.1330
 7545TIP3   OH222567   3.927   4.154   5.239 -0.4873  0.0982 -0.4607
 7545TIP3    H122568   3.978   4.210   5.180 -0.4388 -1.6220 -2.1126
 7545TIP3    H222569   3.837   4.182   5.225 -0.2122  1.7878  0.9755
 7546TIP3   OH222570   3.725   3.249   3.538 -0.6757 -0.2845  0.4067
 7546TIP3    H122571   3.779   3.175   3.567  0.0331  0.2729  0.5377
 7546TIP3    H222572   3.715   3.303   3.617 -0.2001  0.3554  0.0314
 7547TIP3   OH222573   4.305   1.263   4.642  0.2705 -0.3490 -0.3510
 7547TIP3    H122574   4.321   1.351   4.676 -0.3846 -0.6064  0.6504
 7547TIP3    H222575   4.309   1.273   4.547 -0.5639  0.9102 -0.2643
 7548TIP3   OH222576   5.491   6.596   2.078  0.4276 -0.1859  0.0242
 7548TIP3    H122577   5.558   6.612   2.011  2.3701 -0.6290  1.8047
 7548TIP3    H222578   5.466   6.683   2.109 -0.9036  0.0514 -1.6432
 7549TIP3   OH222579   4.312   6.114   2.475  0.3896  0.4578 -0.3201
 7549TIP3    H122580   4.328   6.094   2.568 -1.5514 -1.2115 -0.3100
 7549TIP3    H222581   4.399   6.130   2.439  1.5399 -2.4549  1.0119
 7550TIP3   OH222582   5.047   3.237   4.341 -0.1081  0.1296 -0.1751
 7550TIP3    H122583   5.030   3.330   4.359 -0.5805 -0.2091  1.1362
 7550TIP3    H222584   5.104   3.238   4.264 -1.4232  1.4720 -1.1757
 7551TIP3   OH222585   4.219   3.934   3.720  0.3081  0.1821 -0.2316
 7551TIP3    H122586   4.184   3.927   3.809  1.2156 -1.2517  0.0381
 7551TIP3    H222587   4.247   4.025   3.712  0.7207  0.1932  1.1485
 7552TIP3   OH222588   3.525   4.538   2.650 -0.2649  0.2259  0.3259
 7552TIP3    H122589   3.483   4.491   2.578  0.7072 -0.6964  0.3572
 7552TIP3    H222590   3.459   4.601   2.679 -1.2984 -0.6053 -0.2061
 7553TIP3   OH222591   2.794   3.133   4.857  0.3710 -0.0333 -0.1099
 7553TIP3    H122592   2.770   3.176   4.775  0.3880  1.1553  0.4995
 7553TIP3    H222593   2.750   3.048   4.853 -1.6248  0.9877 -0.2812
 7554TIP3   OH222594   4.765   3.222   5.150  0.0320  0.1900  0.2927
 7554TIP3    H122595   4.843   3.200   5.201  1.1578 -0.1348 -1.5254
 7554TIP3    H222596   4.700   3.245   5.215  1.4212 -0.2697  1.8851
 7555TIP3   OH222597   3.149   5.558   3.696 -0.1354 -0.1825 -0.0739
 7555TIP3    H122598   3.106   5.612   3.763  0.4842 -1.7766  1.6351
 7555TIP3    H222599   3.077   5.522   3.645 -0.6897 -0.3255  0.8021
 7556TIP3   OH222600   5.465   3.360   4.886 -0.0336 -0.1218  0.4240
 7556TIP3    H122601   5.444   3.447   4.852  0.2992  0.3773  1.4674
 7556TIP3    H222602   5.384   3.310   4.877  0.2597 -0.2307 -1.7788
 7557TIP3   OH222603   4.476   4.111   5.837  0.5007  0.7950 -0.3446
 7557TIP3    H122604   4.526   4.076   5.763 -0.0188  0.0376 -0.3345
 7557TIP3    H222605   4.391   4.134   5.800  0.1477  0.1673  0.0811
 7558TIP3   OH222606   4.502   6.656   5.348  0.1904  0.0177  0.2066
 7558TIP3    H122607   4.565   6.598   5.391 -1.6085 -1.7162  0.6071
 7558TIP3    H222608   4.439   6.596   5.307 -2.1578  1.6696  1.2598
 7559TIP3   OH222609   6.216   6.019   5.152  0.0375 -0.6219 -0.6383
 7559TIP3    H122610   6.176   5.999   5.237  0.9459  0.2158 -0.0127
 7559TIP3    H222611   6.233   5.933   5.113 -0.1404 -1.0110  0.1319
 7560TIP3   OH222612   4.888   1.893   3.993 -0.3237  0.2064 -0.0853
 7560TIP3    H122613   4.815   1.938   3.950 -1.2686  0.1631  1.4300
 7560TIP3    H222614   4.958   1.958   3.995 -0.5948  0.5291 -0.8067
 7561TIP3   OH222615   3.493   4.961   2.974 -0.3331  0.1145  0.2161
 7561TIP3    H122616   3.434   4.912   2.917  0.1664  0.5347 -0.6772
 7561TIP3    H222617   3.572   4.907   2.979 -0.2141  0.2855  0.1651
 7562TIP3   OH222618   4.238   6.084   2.932  0.2775  1.2214 -0.0823
 7562TIP3    H122619   4.308   6.147   2.948  1.0393  0.6664 -1.1646
 7562TIP3    H222620   4.207   6.059   3.019  2.8538 -0.1098  0.5047
 7563TIP3   OH222621   2.887   4.770   4.541 -0.1082 -0.1389 -0.3192
 7563TIP3    H122622   2.851   4.759   4.629  0.9835  0.0374  0.1632
 7563TIP3    H222623   2.811   4.768   4.483 -0.8346 -0.2728  0.6277
 7564TIP3   OH222624   4.269   5.912   3.705 -0.5188  0.1471  0.5367
 7564TIP3    H122625   4.359   5.880   3.710 -0.2448  0.4721 -1.9548
 7564TIP3    H222626   4.278   6.004   3.681 -1.5784 -0.5994 -2.8760
 7565TIP3   OH222627   5.741   4.323   5.516 -0.3571 -0.1801 -0.4217
 7565TIP3    H122628   5.711   4.237   5.490 -1.3472 -0.0467  0.2586
 7565TIP3    H222629   5.672   4.383   5.488 -0.4946  0.1872  0.6688
 7566TIP3   OH222630   4.213   2.885   2.512  0.9004 -0.5768 -0.0436
 7566TIP3    H122631   4.243   2.820   2.450  0.0200 -0.9682 -0.0739
 7566TIP3    H222632   4.189   2.835   2.590 -0.0963 -0.3396 -0.1892
 7567TIP3   OH222633   3.049   2.445   6.479 -0.2671 -0.2047 -0.0906
 7567TIP3    H122634   2.959   2.452   6.512 -1.2053 -1.0846 -2.3768
 7567TIP3    H222635   3.057   2.518   6.417  0.3148 -0.6743 -0.5665
 7568TIP3   OH222636   5.649   3.840   2.775  0.8129  0.9794 -0.4442
 7568TIP3    H122637   5.684   3.759   2.738  1.1843  0.4542  0.9905
 7568TIP3    H222638   5.561   3.848   2.737  1.1007  0.3601 -1.2454
 7569TIP3   OH222639   3.912   5.778   5.824 -0.0898 -0.1971  0.0727
 7569TIP3    H122640   3.843   5.713   5.834 -0.9803  0.7432  0.1230
 7569TIP3    H222641   3.991   5.735   5.857 -0.2120 -2.0108 -1.9589
 7570TIP3   OH222642   3.140   4.175   3.397  0.0748 -0.0046 -0.1701
 7570TIP3    H122643   3.217   4.126   3.368 -0.3974 -0.1872 -1.1098
 7570TIP3    H222644   3.071   4.110   3.405  0.0881  0.1098  0.9852
 7571TIP3   OH222645   3.884   3.925   2.983  0.1008 -0.0865  0.4665
 7571TIP3    H122646   3.920   3.836   2.978 -0.1727 -0.2005  0.5441
 7571TIP3    H222647   3.866   3.938   3.076  0.2177  0.0807  0.4653
 7572TIP3   OH222648   2.620   1.445   3.902 -0.4835  0.0884 -0.0832
 7572TIP3    H122649   2.669   1.496   3.966 -1.6075  2.5157 -1.1123
 7572TIP3    H222650   2.539   1.420   3.948 -0.3503  0.0224  0.1168
 7573TIP3   OH222651   1.264   0.144   1.029  0.3731 -0.6257 -0.6298
 7573TIP3    H122652   1.247   0.130   0.936  0.0372 -0.9704 -0.5152
 7573TIP3    H222653   1.351   0.106   1.044 -0.6264 -2.8083 -0.2668
 7574TIP3   OH222654   5.183   2.755   2.840  0.5215 -0.1188  0.0789
 7574TIP3    H122655   5.259   2.771   2.784  0.6771 -1.7392 -0.1894
 7574TIP3    H222656   5.116   2.814   2.806  1.0598 -0.0624 -0.9117
 7575TIP3   OH222657   3.833   4.659   3.034  0.2563  0.1039 -0.6742
 7575TIP3    H122658   3.758   4.628   2.983  0.4040 -0.7955 -0.3519
 7575TIP3    H222659   3.900   4.678   2.968 -0.0005  0.2098 -0.9064
 7576TIP3   OH222660   2.209   3.823   4.546 -0.1642 -0.3169 -0.1030
 7576TIP3    H122661   2.196   3.868   4.463  1.0406  0.7360  0.2571
 7576TIP3    H222662   2.226   3.893   4.609 -0.7546 -1.1191  0.9791
 7577TIP3   OH222663   6.529   2.161   4.909 -0.0322 -0.1273 -0.1763
 7577TIP3    H122664   6.607   2.112   4.887  0.9357  0.9857  0.7122
 7577TIP3    H222665   6.477   2.101   4.963  0.8095 -0.4139  0.3190
 7578TIP3   OH222666   5.524   6.081   2.656  0.1240  0.1841  0.1188
 7578TIP3    H122667   5.574   6.103   2.578  0.2664 -1.1487 -0.1819
 7578TIP3    H222668   5.589   6.047   2.718 -0.3217 -1.0506 -0.0795
 7579TIP3   OH222669   2.550   2.456   4.293  0.3845 -0.2767  0.8907
 7579TIP3    H122670   2.535   2.486   4.383 -1.7311 -0.6438  0.6904
 7579TIP3    H222671   2.474   2.487   4.244 -0.4917 -3.4150  0.0944
 7580TIP3   OH222672   4.552   3.560   5.855  0.2775  0.0884 -0.1124
 7580TIP3    H122673   4.586   3.499   5.921  0.6872  0.3393 -0.0905
 7580TIP3    H222674   4.473   3.517   5.822  0.4247 -0.3435  0.0820
 7581TIP3   OH222675   1.687   5.590   3.136 -0.0364 -0.4069  0.2587
 7581TIP3    H122676   1.637   5.532   3.192 -0.2091 -0.7719 -0.2713
 7581TIP3    H222677   1.626   5.660   3.113 -0.3589 -0.9305 -0.5110
 7582TIP3   OH222678   4.365   4.034   3.942  0.1504 -0.4160  0.2513
 7582TIP3    H122679   4.391   4.109   3.995 -0.7128  0.6204 -0.7641
 7582TIP3    H222680   4.288   3.998   3.986 -1.7068  1.5718 -1.2592
 7583TIP3   OH222681   5.978   2.470   3.355  0.4079 -0.1412 -0.2920
 7583TIP3    H122682   5.919   2.398   3.333 -1.2484  1.2664 -0.4719
 7583TIP3    H222683   6.013   2.498   3.270 -2.2145  2.0392 -0.7122
 7584TIP3   OH222684   3.756   3.016   3.913  0.5431  0.0651 -0.4095
 7584TIP3    H122685   3.851   3.026   3.923  0.5273  0.7717 -0.9959
 7584TIP3    H222686   3.741   3.014   3.819 -0.2029  1.6150 -0.3298
 7585TIP3   OH222687   3.884   5.807   4.347  0.7913 -0.1717 -0.4801
 7585TIP3    H122688   3.961   5.768   4.388  0.3410  0.0847  0.6164
 7585TIP3    H222689   3.822   5.734   4.338  1.1579 -0.3855 -1.3924
 7586TIP3   OH222690   4.750   6.017   6.084  0.2714  0.1188 -0.1284
 7586TIP3    H122691   4.776   6.095   6.036 -1.2984  0.2755 -0.7483
 7586TIP3    H222692   4.801   5.946   6.045  0.3160  0.5329 -0.8223
 7587TIP3   OH222693   3.227   3.901   6.024  0.4993 -0.4730 -0.0543
 7587TIP3    H122694   3.320   3.919   6.007  0.8000 -0.9245  1.1324
 7587TIP3    H222695   3.221   3.892   6.119 -0.6319 -1.1770 -0.1894
 7588TIP3   OH222696   3.525   5.471   3.567  1.0141  0.1013  0.5002
 7588TIP3    H122697   3.441   5.427   3.584  0.2215  1.3286 -0.1569
 7588TIP3    H222698   3.518   5.555   3.612  0.9019  1.2485 -1.5805
 7589TIP3   OH222699   2.994   5.067   5.164  0.0582  0.3341 -0.3057
 7589TIP3    H122700   2.936   5.113   5.103  0.0574 -0.0026 -0.5647
 7589TIP3    H222701   2.935   5.013   5.217  0.1942 -0.6364 -1.1174
 7590TIP3   OH222702   6.274   5.622   1.758  0.7107 -0.6350  0.1659
 7590TIP3    H122703   6.359   5.621   1.715  0.3420 -1.8445 -0.5376
 7590TIP3    H222704   6.215   5.664   1.696  0.6078 -0.5688  0.3061
 7591TIP3   OH222705   4.187   6.728   4.746  0.4792  0.0019 -0.2833
 7591TIP3    H122706   4.145   6.805   4.708  1.5806  0.9381  0.3512
 7591TIP3    H222707   4.278   6.733   4.714  0.5674 -1.0091 -0.1973
 7592TIP3   OH222708   4.184   2.895   3.726  0.3596 -0.1348  0.9020
 7592TIP3    H122709   4.172   2.950   3.802 -1.1655 -0.7192  1.1123
 7592TIP3    H222710   4.138   2.813   3.748  1.3557 -0.9409  0.0420
 7593TIP3   OH222711   4.371   5.187   5.671  0.4856  0.1575  0.0795
 7593TIP3    H122712   4.332   5.118   5.619  1.5789 -0.6109  0.2687
 7593TIP3    H222713   4.358   5.267   5.619 -2.4834  0.1771  0.7298
 7594TIP3   OH222714   5.507   3.514   2.111  0.2572 -0.4156 -0.5265
 7594TIP3    H122715   5.548   3.433   2.080  1.2764 -0.4254  0.8116
 7594TIP3    H222716   5.450   3.486   2.183  0.9520  0.1092  0.2282
 7595TIP3   OH222717   4.794   3.954   6.572  0.2272  0.0814 -0.0436
 7595TIP3    H122718   4.882   3.978   6.543  0.4489  0.7635  1.1989
 7595TIP3    H222719   4.736   3.995   6.508  0.8241 -0.9712 -1.2878
 7596TIP3   OH222720   0.845   0.321   0.224  0.5398  0.2986 -0.6700
 7596TIP3    H122721   0.797   0.293   0.146  2.4130  1.3400 -2.2273
 7596TIP3    H222722   0.937   0.308   0.202  1.2563  3.4190  0.2285
 7597TIP3   OH222723   3.762   3.665   3.353 -0.2490  0.5882  0.4991
 7597TIP3    H122724   3.712   3.685   3.433 -2.0400  4.0690 -1.3572
 7597TIP3    H222725   3.708   3.601   3.307 -0.4176  0.4145  0.9350
 7598TIP3   OH222726   5.276   4.956   3.919 -0.6777 -0.0639 -0.0575
 7598TIP3    H122727   5.271   5.038   3.967  0.6358  0.0850 -0.1763
 7598TIP3    H222728   5.269   4.981   3.827  0.3870 -0.0126 -0.1318
 7599TIP3   OH222729   4.894   3.739   3.746 -0.1608 -0.5165 -0.2975
 7599TIP3    H122730   4.979   3.701   3.725  0.4021  0.3235  0.4595
 7599TIP3    H222731   4.913   3.809   3.808 -1.3063  0.3020 -0.8487
 7600TIP3   OH222732   5.283   2.273   5.179 -0.2887 -0.4640  0.6763
 7600TIP3    H122733   5.335   2.234   5.250 -1.0247 -0.3847  1.2654
 7600TIP3    H222734   5.251   2.197   5.129  0.2450 -0.5188  0.4159
 7601TIP3   OH222735   5.263   3.879   3.326 -0.0927  0.0975  0.3309
 7601TIP3    H122736   5.289   3.802   3.275 -0.8345  0.9285 -1.3505
 7601TIP3    H222737   5.168   3.874   3.329 -0.0397 -0.0963  1.9191
 7602TIP3   OH222738   5.933   3.838   4.836  0.0687  0.1150  0.4198
 7602TIP3    H122739   5.838   3.839   4.829  0.0668 -0.2097  0.3837
 7602TIP3    H222740   5.951   3.829   4.929  0.0719  1.1386  0.5207
 7603TIP3   OH222741   4.624   2.653   4.639 -0.0792 -0.0684  0.0418
 7603TIP3    H122742   4.589   2.607   4.716  2.3325 -2.7825 -0.4198
 7603TIP3    H222743   4.547   2.667   4.583 -1.2653 -1.4296  1.2710
 7604TIP3   OH222744   4.923   4.393   5.192  0.1174 -0.1869 -0.3046
 7604TIP3    H122745   4.994   4.452   5.216  0.4286 -0.5374 -0.3548
 7604TIP3    H222746   4.886   4.365   5.276  1.4995 -1.7734 -0.2014
 7605TIP3   OH222747   3.869   5.618   4.927 -0.0874 -0.0419 -0.0651
 7605TIP3    H122748   3.841   5.598   5.017 -1.8184  0.4050 -0.4874
 7605TIP3    H222749   3.793   5.660   4.888  1.3759  1.6300 -1.1315
 7606TIP3   OH222750   4.122   3.254   3.710  0.4010  0.3712  0.1347
 7606TIP3    H122751   4.074   3.336   3.700 -2.1354 -1.2784 -1.9504
 7606TIP3    H222752   4.208   3.271   3.674  0.3848  2.5289  1.0798
 7607TIP3   OH222753   5.026   4.118   6.519  0.1528 -0.1569 -0.4441
 7607TIP3    H122754   4.980   4.199   6.544 -0.3879 -0.8797  0.9162
 7607TIP3    H222755   5.069   4.141   6.436 -1.7651  0.8722 -1.2096
 7608TIP3   OH222756   2.591   2.160   4.525 -0.0856  0.8437  0.2840
 7608TIP3    H122757   2.640   2.192   4.449 -0.3371 -1.6568 -0.9601
 7608TIP3    H222758   2.658   2.134   4.589  0.2152 -1.0142 -0.7630
 7609TIP3   OH222759   2.660   3.158   4.232  0.0055  0.0763 -0.3043
 7609TIP3    H122760   2.585   3.171   4.290 -0.2822 -2.0042 -0.1577
 7609TIP3    H222761   2.675   3.243   4.192 -3.2056  0.2191 -1.2907
 7610TIP3   OH222762   4.326   3.607   3.050  0.4189  0.1730 -0.0518
 7610TIP3    H122763   4.370   3.553   3.114 -1.3937  0.0265  1.1140
 7610TIP3    H222764   4.276   3.546   2.996  1.8105  0.3071 -1.5416
 7611TIP3   OH222765   4.644   3.164   6.843 -0.2154  1.1808  0.6341
 7611TIP3    H122766   4.737   3.150   6.826 -0.7303 -1.7889 -0.1562
 7611TIP3    H222767   4.618   3.235   6.784  0.9175 -0.0337 -1.3981
 7612TIP3   OH222768   4.353   2.347   5.319 -0.0498  0.1756  0.4398
 7612TIP3    H122769   4.357   2.305   5.404  2.3834  2.7055  1.6390
 7612TIP3    H222770   4.401   2.288   5.260  3.3802  1.2302  2.0977
 7613TIP3   OH222771   3.973   2.699   4.816 -0.0490 -0.5158 -0.2574
 7613TIP3    H122772   4.001   2.715   4.906  1.0029 -0.6035 -0.5633
 7613TIP3    H222773   4.044   2.733   4.762 -0.7764 -0.2522 -1.0682
 7614TIP3   OH222774   2.836   4.901   5.328 -0.0967  0.5841  0.3433
 7614TIP3    H122775   2.891   4.835   5.369  0.5799  0.3052 -0.9893
 7614TIP3    H222776   2.747   4.868   5.340  0.3029 -1.3011 -1.4934
 7615TIP3   OH222777   3.903   4.633   1.993 -0.1746  0.0727 -0.1867
 7615TIP3    H122778   3.985   4.653   1.948  0.9689 -4.4909 -0.3362
 7615TIP3    H222779   3.921   4.653   2.085  1.0033 -0.6114 -0.2619
 7616TIP3   OH222780   4.209   1.345   3.419 -0.5123  0.4737 -0.0370
 7616TIP3    H122781   4.198   1.345   3.514  0.9765 -0.0499  0.1398
 7616TIP3    H222782   4.278   1.408   3.402 -1.5986  1.4632 -0.8932
 7617TIP3   OH222783   4.066   6.151   4.926 -0.1773 -0.4365 -0.2126
 7617TIP3    H122784   3.992   6.190   4.879  0.9318  0.1249 -1.5270
 7617TIP3    H222785   4.042   6.059   4.936 -1.8350  0.0952  0.9545
 7618TIP3   OH222786   4.042   3.953   1.508 -0.7528 -0.2665  0.0236
 7618TIP3    H122787   4.013   4.011   1.578  0.6704 -0.3700  0.7197
 7618TIP3    H222788   3.975   3.886   1.503 -1.1929  0.1030  0.8568
 7619TIP3   OH222789   4.676   7.040   2.932  0.0699  0.5880 -0.2659
 7619TIP3    H122790   4.745   6.978   2.957  0.8001 -0.0125 -3.5238
 7619TIP3    H222791   4.718   7.126   2.939  0.4734  0.3800 -0.1132
 7620TIP3   OH222792   5.651   3.905   3.995  0.3747 -0.3157  0.2460
 7620TIP3    H122793   5.740   3.906   3.960  0.1738 -1.5502 -0.3192
 7620TIP3    H222794   5.603   3.968   3.942  0.4908 -0.9428 -0.6072
 7621TIP3   OH222795   3.956   5.101   3.958 -0.4107  0.5825  0.3262
 7621TIP3    H122796   4.016   5.039   4.000 -0.5989  0.0378 -0.1995
 7621TIP3    H222797   4.005   5.183   3.955  0.4225  0.0738 -0.3577
 7622TIP3   OH222798   7.662   4.892   3.231  0.5301 -0.1496 -0.1983
 7622TIP3    H122799   7.587   4.900   3.173  0.2647 -1.5660 -0.0575
 7622TIP3    H222800   7.629   4.921   3.316  1.3918  3.6410 -1.0767
 7623TIP3   OH222801   6.164   4.902   4.793 -0.2159  0.5362  0.1510
 7623TIP3    H122802   6.097   4.894   4.860  1.6139 -0.3472  1.9038
 7623TIP3    H222803   6.184   4.812   4.767  1.8783  0.6485  1.2600
 7624TIP3   OH222804   4.401   5.956   4.872  0.3718  0.3821  0.4093
 7624TIP3    H122805   4.385   5.996   4.787  2.0005 -0.5037 -0.3373
 7624TIP3    H222806   4.495   5.935   4.872  0.3557  0.2011  2.3446
 7625TIP3   OH222807   3.066   6.130   2.173 -0.4601 -0.2682  0.2002
 7625TIP3    H122808   3.084   6.038   2.190  0.2491 -0.4820 -1.5179
 7625TIP3    H222809   3.150   6.174   2.188 -0.8831  0.1561  1.3549
 7626TIP3   OH222810   3.787   4.310   3.324 -0.3846  0.3979 -0.0724
 7626TIP3    H122811   3.691   4.313   3.319 -0.4385  0.0114  0.6628
 7626TIP3    H222812   3.815   4.303   3.233 -0.9578  2.8768 -0.4807
 7627TIP3   OH222813   5.107   5.146   3.465 -0.1564  0.1103  0.4822
 7627TIP3    H122814   5.100   5.064   3.515 -2.0454 -0.8462 -1.2497
 7627TIP3    H222815   5.171   5.127   3.397 -1.4902 -0.3467 -0.6592
 7628TIP3   OH222816   7.140   3.376   3.657 -0.3307 -0.2987  0.0335
 7628TIP3    H122817   7.161   3.440   3.725  0.1591  1.8050 -2.0322
 7628TIP3    H222818   7.159   3.291   3.697 -0.5707  0.8479  2.6818
 7629TIP3   OH222819   6.597   2.344   3.570 -0.2991  0.0030 -0.3347
 7629TIP3    H122820   6.685   2.356   3.534  0.6181 -0.3365  1.7177
 7629TIP3    H222821   6.573   2.429   3.606 -0.5847 -0.0643 -0.3607
 7630TIP3   OH222822   6.022   3.805   4.577 -0.2683  0.0690 -0.5783
 7630TIP3    H122823   6.023   3.822   4.671  1.6431  0.2488 -0.6068
 7630TIP3    H222824   5.990   3.886   4.538  0.8973  0.7228 -0.1964
 7631TIP3   OH222825   4.596   2.319   6.111 -0.0683 -0.2338 -0.7781
 7631TIP3    H122826   4.531   2.371   6.157 -1.9379 -1.2547 -2.2085
 7631TIP3    H222827   4.582   2.229   6.142  1.0336 -0.3857 -0.6822
 7632TIP3   OH222828   5.497   4.480   5.504 -0.1996  0.0295  0.1242
 7632TIP3    H122829   5.439   4.539   5.551 -1.0682 -0.3967 -0.4005
 7632TIP3    H222830   5.443   4.444   5.434  0.8017 -0.0769 -0.6102
 7633TIP3   OH222831   4.977   4.203   3.070 -0.1780  0.3542 -0.1305
 7633TIP3    H122832   4.883   4.212   3.084 -0.0461 -0.7644  1.5251
 7633TIP3    H222833   4.987   4.117   3.030 -0.0342  1.3270 -2.2654
 7634TIP3   OH222834   2.431   2.876   3.854 -0.1205  0.0689 -0.2965
 7634TIP3    H122835   2.445   2.781   3.848 -3.4419 -0.5004  0.3840
 7634TIP3    H222836   2.374   2.897   3.780  2.1369  1.9055 -1.5834
 7635TIP3   OH222837   3.957   2.978   5.085 -0.1746 -0.1229  0.0301
 7635TIP3    H122838   3.940   2.989   5.178  0.5277  2.3782 -0.0898
 7635TIP3    H222839   3.870   2.977   5.045 -0.4310  1.0732  0.5184
 7636TIP3   OH222840   3.926   1.889   3.238 -0.4894  0.4544 -0.4550
 7636TIP3    H122841   4.005   1.847   3.204  0.5505  1.0866  1.0828
 7636TIP3    H222842   3.869   1.816   3.263  0.3099 -0.0361 -0.0222
 7637TIP3   OH222843   3.190   4.769   2.146  0.1188  0.0604 -0.1541
 7637TIP3    H122844   3.172   4.819   2.066  1.0556  0.9530  0.1730
 7637TIP3    H222845   3.128   4.697   2.144  0.3011 -0.0722 -1.8303
 7638TIP3   OH222846   4.465   4.387   3.146 -0.2980 -0.0156  0.3535
 7638TIP3    H122847   4.471   4.445   3.222 -1.3311  0.1478  0.3292
 7638TIP3    H222848   4.429   4.443   3.076  0.5883 -0.1795 -0.2381
 7639TIP3   OH222849   3.186   5.383   3.419 -0.5539 -0.2102 -0.6161
 7639TIP3    H122850   3.136   5.302   3.414  2.8827 -2.4245 -0.6279
 7639TIP3    H222851   3.209   5.392   3.512  0.0317  0.1481 -0.7928
 7640TIP3   OH222852   3.073   2.187   4.445 -0.2261 -0.0877  0.1206
 7640TIP3    H122853   3.099   2.146   4.362 -0.1337 -0.8592  0.5291
 7640TIP3    H222854   3.148   2.176   4.502 -0.5563 -0.2039  0.5387
 7641TIP3   OH222855   3.187   4.933   6.602 -0.6809  0.1317 -0.3497
 7641TIP3    H122856   3.187   4.977   6.686 -1.7558 -1.1899  0.3572
 7641TIP3    H222857   3.118   4.976   6.552  0.2862  1.2439 -0.7397
 7642TIP3   OH222858   4.766   6.942   3.935  0.0864 -0.1505  0.3150
 7642TIP3    H122859   4.713   6.925   3.858 -0.2413 -0.2821  0.5711
 7642TIP3    H222860   4.771   6.857   3.980 -1.4163  0.3798  1.5119
 7643TIP3   OH222861   3.641   5.353   3.857  0.1875  0.1850 -0.2399
 7643TIP3    H122862   3.690   5.427   3.820 -0.6557  0.3956 -0.9616
 7643TIP3    H222863   3.625   5.295   3.782 -2.9077  1.3678 -0.5872
 7644TIP3   OH222864   5.516   5.481   3.793 -0.1885  0.5596  0.5886
 7644TIP3    H122865   5.450   5.498   3.726  0.0725 -0.7444 -0.0251
 7644TIP3    H222866   5.526   5.385   3.793  1.6737  0.7202  0.6684
 7645TIP3   OH222867   3.816   4.557   3.469  0.2764 -0.2439 -0.7524
 7645TIP3    H122868   3.821   4.477   3.417  2.9396 -0.9345  0.4738
 7645TIP3    H222869   3.857   4.624   3.415 -0.8940  0.0376 -1.3006
 7646TIP3   OH222870   1.513   2.930   0.151 -0.0897 -0.4088  0.0207
 7646TIP3    H122871   1.576   2.999   0.168 -0.9293  0.5224 -0.5726
 7646TIP3    H222872   1.428   2.972   0.163 -0.6609 -0.6246 -2.8747
 7647TIP3   OH222873   3.531   6.759   4.570 -0.4913  0.5856  0.9380
 7647TIP3    H122874   3.582   6.705   4.510  1.2317  0.7017  2.2480
 7647TIP3    H222875   3.597   6.806   4.621 -1.8861  0.3865  2.9805
 7648TIP3   OH222876   4.422   3.541   4.161  0.1399  0.4983 -0.2160
 7648TIP3    H122877   4.474   3.619   4.141  1.7884  0.0257  2.0288
 7648TIP3    H222878   4.442   3.480   4.090  0.9673  1.1114 -0.5211
 7649TIP3   OH222879   3.834   4.994   4.266 -0.5750  0.4906 -0.5059
 7649TIP3    H122880   3.909   5.049   4.289 -1.3109  1.8528 -1.3202
 7649TIP3    H222881   3.872   4.910   4.242  0.5714  0.6425  0.7014
 7650TIP3   OH222882   2.644   4.052   2.450 -0.5313 -0.2970  0.5664
 7650TIP3    H122883   2.553   4.049   2.479 -0.6067  1.2996  0.5704
 7650TIP3    H222884   2.646   3.998   2.371 -1.6213  0.1342  0.2306
 7651TIP3   OH222885   2.636   3.748   4.541 -0.3904  0.1725  0.4429
 7651TIP3    H122886   2.728   3.743   4.516 -0.2937  1.5480  0.5014
 7651TIP3    H222887   2.634   3.810   4.614 -1.4806  0.8928 -0.1850
 7652TIP3   OH222888   4.034   4.346   3.699  0.4239  0.8223  0.1038
 7652TIP3    H122889   3.991   4.268   3.732 -1.3589  2.4734  1.8436
 7652TIP3    H222890   4.076   4.385   3.775 -0.0518  2.3972 -0.4145
 7653TIP3   OH222891   4.870   5.950   3.926 -0.0052  0.5977  0.5864
 7653TIP3    H122892   4.853   5.954   3.832 -0.4497 -1.2028  0.5761
 7653TIP3    H222893   4.786   5.928   3.965  0.6605 -0.9070  1.2013
 7654TIP3   OH222894   5.741   3.686   3.568 -0.1016  0.3708  0.3658
 7654TIP3    H122895   5.714   3.775   3.591 -1.1965  0.4484 -1.1292
 7654TIP3    H222896   5.738   3.684   3.472 -1.6567 -1.7355  0.4190
 7655TIP3   OH222897   5.266   3.575   5.073 -0.0225 -0.0454  0.3009
 7655TIP3    H122898   5.312   3.563   5.157  1.5408 -0.9260 -0.6601
 7655TIP3    H222899   5.246   3.487   5.044 -0.9036  0.2811 -0.0787
 7656TIP3   OH222900   3.604   2.640   4.142  0.0481 -0.1827  0.4034
 7656TIP3    H122901   3.528   2.588   4.167 -1.0081 -0.5292 -3.2576
 7656TIP3    H222902   3.589   2.726   4.183 -3.0799  0.2192 -1.4079
 7657TIP3   OH222903   3.772   1.896   4.997  0.3076 -0.3371 -0.2251
 7657TIP3    H122904   3.780   1.987   5.025 -1.2639  0.1891 -1.3846
 7657TIP3    H222905   3.787   1.899   4.902 -2.7786 -0.7851 -0.7886
 7658TIP3   OH222906   3.496   1.603   3.732 -0.1407 -0.1494 -0.0190
 7658TIP3    H122907   3.453   1.517   3.728 -0.1036 -0.2473  1.4819
 7658TIP3    H222908   3.506   1.628   3.641 -2.4129 -0.6223 -0.4436
 7659TIP3   OH222909   3.409   3.254   4.889 -0.0882  0.3416  0.0158
 7659TIP3    H122910   3.386   3.342   4.861 -0.3005  0.6648  1.2044
 7659TIP3    H222911   3.332   3.222   4.935  0.8709  0.4538  1.7223
 7660TIP3   OH222912   5.309   3.813   4.644  0.2663  0.1466 -0.2847
 7660TIP3    H122913   5.218   3.841   4.647  0.0150 -0.6022 -0.8798
 7660TIP3    H222914   5.306   3.722   4.615  1.1349 -0.2761  0.9344
 7661TIP3   OH222915   2.812   1.545   4.090  0.2841 -0.2026  0.1869
 7661TIP3    H122916   2.873   1.529   4.018 -1.3981  0.0308 -1.3338
 7661TIP3    H222917   2.786   1.636   4.080 -1.3349 -0.6652 -0.0190
 7662TIP3   OH222918   3.157   3.842   3.902  0.2359 -0.3553 -0.0286
 7662TIP3    H122919   3.166   3.747   3.907 -0.9299 -0.4954 -0.4101
 7662TIP3    H222920   3.129   3.868   3.990  0.9365 -0.3161  0.1850
 7663TIP3   OH222921   4.301   2.977   2.813  0.6776 -0.2786  0.4248
 7663TIP3    H122922   4.266   3.036   2.747 -0.5612 -2.4705 -0.9539
 7663TIP3    H222923   4.225   2.925   2.841  1.4840 -0.3827  2.5088
 7664TIP3   OH222924   3.899   1.555   4.726  0.4456 -0.1842 -0.0477
 7664TIP3    H122925   3.977   1.599   4.760  2.6838 -2.9850 -1.3785
 7664TIP3    H222926   3.927   1.465   4.711 -3.6012 -1.7796  1.2635
 7665TIP3   OH222927   1.984   3.946   1.848  0.3511 -0.2462 -0.4583
 7665TIP3    H122928   1.954   3.862   1.882 -3.0761  0.0605 -2.4516
 7665TIP3    H222929   2.018   3.926   1.761 -0.6605  0.4207 -1.0167
 7666TIP3   OH222930   6.138   2.795   2.244 -0.0152  0.7965 -0.2306
 7666TIP3    H122931   6.171   2.884   2.251 -0.1369  0.6347  2.8054
 7666TIP3    H222932   6.043   2.804   2.250 -0.0259  0.4483  0.1495
 7667TIP3   OH222933   3.541   4.392   4.951 -0.3455  0.6287 -0.1182
 7667TIP3    H122934   3.479   4.428   4.888 -0.4588  1.4847  0.4726
 7667TIP3    H222935   3.619   4.446   4.941  0.4879 -0.7581 -1.2045
 7668TIP3   OH222936   4.682   4.104   3.802  0.3300  0.2084 -0.1478
 7668TIP3    H122937   4.704   4.119   3.894 -3.5329  1.4798  0.6684
 7668TIP3    H222938   4.626   4.026   3.803  1.1020 -0.3670 -1.5441
 7669TIP3   OH222939   3.393   3.380   3.903 -0.1261 -0.1434  0.4867
 7669TIP3    H122940   3.480   3.341   3.913 -0.9823 -2.2004  0.0680
 7669TIP3    H222941   3.333   3.317   3.944 -1.6951  0.0586 -1.4315
 7670TIP3   OH222942   5.880   2.905   5.867  0.0532  0.6422  0.1390
 7670TIP3    H122943   5.815   2.842   5.899  1.2578  0.1926  1.7261
 7670TIP3    H222944   5.902   2.874   5.779 -2.0544  0.9391 -0.5287
 7671TIP3   OH222945   4.611   2.198   4.574  0.0008 -0.5843 -0.1531
 7671TIP3    H122946   4.572   2.112   4.588 -2.3091  0.6568  1.2995
 7671TIP3    H222947   4.562   2.234   4.500  1.0244 -0.5271 -0.8153
 7672TIP3   OH222948   6.866   4.430   5.782  0.0944 -0.1968  0.0032
 7672TIP3    H122949   6.842   4.343   5.752 -0.0481 -0.7115  1.5918
 7672TIP3    H222950   6.859   4.485   5.704  0.0697 -1.5733 -0.9773
 7673TIP3   OH222951   4.212   4.051   6.038  0.1986  0.3281  0.0796
 7673TIP3    H122952   4.201   4.144   6.018  1.7388  0.2488 -1.2699
 7673TIP3    H222953   4.300   4.045   6.076 -0.7412 -0.2745  2.2120
 7674TIP3   OH222954   4.414   7.133   2.132 -0.1678 -0.1037  0.0357
 7674TIP3    H122955   4.458   7.049   2.119  1.4368  0.7161  0.0814
 7674TIP3    H222956   4.482   7.191   2.166 -1.5123  0.9438  1.0068
 7675TIP3   OH222957   3.867   5.317   4.335 -0.0527 -0.5521 -0.6890
 7675TIP3    H122958   3.805   5.295   4.264  1.0272  1.0593 -2.1606
 7675TIP3    H222959   3.945   5.265   4.315  0.8290  1.0900 -1.5886
 7676TIP3   OH222960   6.077   4.874   5.385  0.6067  0.9751  0.0765
 7676TIP3    H122961   6.000   4.916   5.424  1.2571  0.7165  1.6898
 7676TIP3    H222962   6.104   4.809   5.450  1.6793  0.4739 -0.8587
 7677TIP3   OH222963   7.340   2.854   5.929 -0.1228 -0.2679 -0.1921
 7677TIP3    H122964   7.334   2.932   5.983 -0.9022  0.5621 -1.4533
 7677TIP3    H222965   7.269   2.798   5.960  0.6666 -0.6355  0.9566
 7678TIP3   OH222966   5.971   3.556   5.914 -0.5634 -0.0920 -0.0360
 7678TIP3    H122967   6.061   3.538   5.888  0.2809  2.0854  1.3226
 7678TIP3    H222968   5.947   3.636   5.867 -0.9932  0.6139  1.3538
 7679TIP3   OH222969   3.476   3.945   5.999  0.0195  0.4735 -0.4507
 7679TIP3    H122970   3.468   3.870   5.940 -2.1670 -1.2205  1.9014
 7679TIP3    H222971   3.541   3.918   6.064 -0.1316  0.9947 -0.0780
 7680TIP3   OH222972   7.775   3.957   6.116  0.3777  0.1377 -0.6490
 7680TIP3    H122973   7.733   3.966   6.202  0.1797 -0.1640 -0.7133
 7680TIP3    H222974   7.729   3.884   6.075 -0.0348  0.7573 -1.3126
 7681TIP3   OH222975   4.932   3.728   5.445 -0.4054 -0.0800  0.6096
 7681TIP3    H122976   4.854   3.775   5.414  0.9198  1.0442 -1.1170
 7681TIP3    H222977   4.962   3.678   5.369  1.8253  1.2455  0.5648
 7682TIP3   OH222978   7.224   3.397   2.908 -0.2205  0.0000 -0.5845
 7682TIP3    H122979   7.258   3.317   2.867 -0.1043 -0.5843  0.6453
 7682TIP3    H222980   7.260   3.397   2.996 -0.4660  1.2640 -0.4716
 7683TIP3   OH222981   6.036   4.516   3.423  0.2842 -0.2653 -0.9334
 7683TIP3    H122982   6.028   4.428   3.460 -3.1340 -0.0259 -0.9277
 7683TIP3    H222983   6.044   4.501   3.329  0.2461 -0.6012 -0.8855
 7684TIP3   OH222984   7.405   3.424   2.197  0.4852 -0.1726 -0.2221
 7684TIP3    H122985   7.436   3.401   2.285  1.7876 -0.3742 -0.7220
 7684TIP3    H222986   7.318   3.384   2.191  0.3573 -0.0834  1.0040
 7685TIP3   OH222987   4.948   3.498   4.336  0.0126  0.2643  0.3929
 7685TIP3    H122988   4.914   3.445   4.264 -1.3863 -1.4242  2.2356
 7685TIP3    H222989   4.997   3.568   4.293  1.2319 -2.0474 -2.1216
 7686TIP3   OH222990   6.439   5.110   3.188  0.2169  0.0994 -0.1474
 7686TIP3    H122991   6.368   5.046   3.191 -0.4684  0.8179 -0.8425
 7686TIP3    H222992   6.495   5.080   3.116  1.2698 -1.1261  1.1520
 7687TIP3   OH222993   4.753   4.144   4.397  0.2832 -0.7027 -0.0830
 7687TIP3    H122994   4.741   4.224   4.345 -1.9482 -1.9188 -1.4882
 7687TIP3    H222995   4.668   4.129   4.439  0.4685 -2.7405 -0.3929
 7688TIP3   OH222996   2.943   5.020   4.431 -0.0553 -0.4698  0.5952
 7688TIP3    H122997   2.891   5.090   4.470  2.5211  0.1588  3.0916
 7688TIP3    H222998   2.929   4.945   4.489  1.5783 -0.3607  1.1498
 7689TIP3   OH222999   4.524   2.857   6.752 -0.3888  0.2234 -0.3853
 7689TIP3    H123000   4.486   2.807   6.679  0.4622  0.0451 -0.7198
 7689TIP3    H223001   4.468   2.838   6.827 -0.3722 -0.8349 -0.6334
 7690TIP3   OH223002   6.564   4.801   2.327  0.7988 -0.0779 -0.0827
 7690TIP3    H123003   6.512   4.768   2.401  0.5110  1.3390  0.3568
 7690TIP3    H223004   6.650   4.761   2.339  0.1272 -1.6221 -0.2362
 7691TIP3   OH223005   7.370   4.310   2.474 -0.7614 -0.2960 -0.0337
 7691TIP3    H123006   7.350   4.403   2.462 -0.9984 -0.0624  1.9609
 7691TIP3    H223007   7.456   4.298   2.434 -1.2890  0.4868 -1.4411
 7692TIP3   OH223008   7.119   6.048   1.961  0.9445 -0.1829 -0.5420
 7692TIP3    H123009   7.134   6.139   1.986  1.6493 -0.6214  0.6377
 7692TIP3    H223010   7.086   6.006   2.040 -1.2991 -0.5244 -1.6063
 7693TIP3   OH223011   0.937   4.159   0.767 -0.0260 -0.2804 -0.3108
 7693TIP3    H123012   0.943   4.186   0.675 -2.8676  2.3799  0.1985
 7693TIP3    H223013   0.930   4.241   0.815  0.8067 -1.6654  2.2564
 7694TIP3   OH223014   7.198   5.424   1.716  0.1756  0.4130  0.3412
 7694TIP3    H123015   7.197   5.403   1.810 -3.7428 -1.5118 -0.0431
 7694TIP3    H223016   7.255   5.358   1.677  0.8921  0.5122  1.2077
 7695TIP3   OH223017   4.416   4.523   2.529  0.5577 -0.2668 -0.4958
 7695TIP3    H123018   4.380   4.583   2.594  0.8147 -1.7872  1.0857
 7695TIP3    H223019   4.363   4.444   2.537  1.5517 -1.0073 -1.0758
 7696TIP3   OH223020   8.371   4.343   3.048 -0.3595  0.2150 -0.3396
 7696TIP3    H123021   8.421   4.327   2.968 -0.4234 -1.3401 -0.0978
 7696TIP3    H223022   8.280   4.330   3.022 -0.4511  0.6699 -0.2412
 7697TIP3   OH223023   8.500   4.767   3.668  0.7637 -0.4794 -0.3523
 7697TIP3    H123024   8.424   4.733   3.621  0.5586  0.8667 -0.9969
 7697TIP3    H223025   8.547   4.820   3.604  2.1663 -1.1628  0.0923
 7698TIP3   OH223026   6.237   6.322   3.908 -0.4682 -0.0864 -0.0681
 7698TIP3    H123027   6.229   6.384   3.980  0.6363 -2.4200  2.1359
 7698TIP3    H223028   6.164   6.261   3.921 -0.7928 -0.0095 -1.4558
 7699TIP3   OH223029   4.396   4.808   3.134  0.4007  0.1453  0.0578
 7699TIP3    H123030   4.414   4.755   3.211 -0.3518  1.1841  0.9643
 7699TIP3    H223031   4.355   4.887   3.168  0.3533  0.7644 -1.3809
 7700TIP3   OH223032   6.263   6.053   4.099 -0.2707  0.4887  0.5103
 7700TIP3    H123033   6.272   6.121   4.165  0.3150  0.0290  0.9056
 7700TIP3    H223034   6.345   6.057   4.049  0.2014 -0.5921  1.1758
 7701TIP3   OH223035   4.989   4.401   5.856 -0.4297  1.1506  0.3702
 7701TIP3    H123036   4.978   4.432   5.766 -1.2994  0.6076  0.2779
 7701TIP3    H223037   4.945   4.316   5.857  1.3371  0.2338  0.7873
 7702TIP3   OH223038   6.208   3.318   2.853  0.5217  0.8869 -0.1662
 7702TIP3    H123039   6.176   3.343   2.939  2.9513  1.6634  0.5378
 7702TIP3    H223040   6.162   3.236   2.833  0.4052  0.3620  2.1478
 7703TIP3   OH223041   5.623   4.753   5.126  0.1487 -0.3975  0.4464
 7703TIP3    H123042   5.602   4.801   5.046  0.4660 -0.3266  0.4026
 7703TIP3    H223043   5.660   4.670   5.095 -0.9019 -0.9038  0.5183
 7704TIP3   OH223044   6.872   6.352   3.031  0.1373  0.9201 -0.7947
 7704TIP3    H123045   6.845   6.444   3.025 -2.2591  0.4635  1.6507
 7704TIP3    H223046   6.791   6.303   3.017  0.7818 -0.7060  0.9539
 7705TIP3   OH223047   5.174   4.728   4.664 -0.4357  0.2080 -0.1854
 7705TIP3    H123048   5.092   4.710   4.711  0.5574 -0.9589  1.1548
 7705TIP3    H223049   5.174   4.666   4.591 -1.2522  0.9653 -0.8403
 7706TIP3   OH223050   5.617   3.858   2.481 -0.4922 -0.5652  0.0728
 7706TIP3    H123051   5.709   3.866   2.505 -0.6436 -0.9056  0.8205
 7706TIP3    H223052   5.617   3.804   2.402  0.0433  0.7746 -0.8501
 7707TIP3   OH223053   5.614   4.740   5.415  0.1085  0.0034  0.0441
 7707TIP3    H123054   5.622   4.750   5.320 -0.5727 -0.1003 -0.0279
 7707TIP3    H223055   5.638   4.649   5.433  0.4796  0.0921  0.0023
 7708TIP3   OH223056   7.759   6.783   1.503  0.1677  0.0239 -0.0306
 7708TIP3    H123057   7.783   6.841   1.576  0.4850  0.8564 -0.7899
 7708TIP3    H223058   7.712   6.840   1.442 -0.2705 -0.7171 -0.3934
 7709TIP3   OH223059   3.840   4.462   4.681 -0.0292 -0.3555  0.1923
 7709TIP3    H123060   3.793   4.504   4.609  0.6952 -0.1482 -0.1655
 7709TIP3    H223061   3.799   4.497   4.760  0.5514  1.0195 -0.0995
 7710TIP3   OH223062   1.949   5.922   2.016  0.3508  0.3671 -0.1580
 7710TIP3    H123063   1.999   5.862   2.072  0.9458  0.1099 -0.9666
 7710TIP3    H223064   2.004   5.999   2.008  1.8910 -0.9912 -3.3213
 7711TIP3   OH223065   1.309   6.923   3.002 -0.3223  0.0749  0.2318
 7711TIP3    H123066   1.247   6.980   3.048  0.6500  0.3922  1.1743
 7711TIP3    H223067   1.307   6.953   2.912  1.4260  2.7214  1.0414
 7712TIP3   OH223068   7.930   5.992   4.363  0.0155 -0.3593 -0.7481
 7712TIP3    H123069   8.003   6.033   4.409  0.6289 -0.8794 -1.2461
 7712TIP3    H223070   7.853   6.045   4.387  0.1670 -1.1281  1.5238
 7713TIP3   OH223071   7.089   6.470   2.515 -0.5530 -0.4263 -0.3294
 7713TIP3    H123072   7.176   6.493   2.546  0.0888 -1.6964 -1.1362
 7713TIP3    H223073   7.051   6.419   2.586  0.1763 -1.6662 -0.8053
 7714TIP3   OH223074   6.385   4.580   3.367  0.5531 -0.4314  0.6423
 7714TIP3    H123075   6.328   4.523   3.419  1.6334 -1.6145  0.5778
 7714TIP3    H223076   6.453   4.521   3.334  0.9071  0.6515 -0.5993
 7715TIP3   OH223077   5.893   5.406   3.290 -0.2266 -0.1623  0.1302
 7715TIP3    H123078   5.865   5.410   3.382  0.5683 -1.9071  0.4638
 7715TIP3    H223079   5.813   5.386   3.241 -0.4487 -0.3202  0.5582
 7716TIP3   OH223080   5.285   3.435   3.769  0.1532 -0.5143  0.2192
 7716TIP3    H123081   5.215   3.370   3.773  0.9269 -1.3758  0.0025
 7716TIP3    H223082   5.310   3.450   3.860  0.0930 -0.6610  0.2601
 7717TIP3   OH223083   5.947   3.126   5.372 -0.2204  0.3912 -0.3704
 7717TIP3    H123084   5.860   3.095   5.397  1.1553 -2.2057  1.5648
 7717TIP3    H223085   5.960   3.206   5.423 -0.4945 -0.6756  1.4497
 7718TIP3   OH223086   5.535   4.257   5.008 -0.3243  0.4605  0.4265
 7718TIP3    H123087   5.602   4.194   5.037  0.9144  0.5491 -2.1613
 7718TIP3    H223088   5.472   4.204   4.959  0.4621  1.1406 -1.3352
 7719TIP3   OH223089   5.372   1.088   6.526  0.0320 -0.1416  0.2081
 7719TIP3    H123090   5.321   1.034   6.586  0.7387 -0.6632  0.3450
 7719TIP3    H223091   5.306   1.129   6.470 -0.4974 -1.3506 -0.0754
 7720TIP3   OH223092   7.489   5.581   3.101 -0.2095  0.7012 -0.2000
 7720TIP3    H123093   7.503   5.492   3.134  0.3557  0.8808  0.0473
 7720TIP3    H223094   7.575   5.622   3.106  0.0178  0.5828 -2.3702
 7721TIP3   OH223095   6.848   4.082   3.803  0.0534  0.0001  0.5674
 7721TIP3    H123096   6.789   4.064   3.877 -1.1519 -0.1130 -0.4054
 7721TIP3    H223097   6.818   4.166   3.769 -0.0212 -0.4219 -0.4057
 7722TIP3   OH223098   7.611   4.878   1.964 -0.1634 -0.6496  0.4734
 7722TIP3    H123099   7.522   4.872   1.999 -0.0464  1.4280  1.1873
 7722TIP3    H223100   7.656   4.941   2.021  1.1220 -0.0295 -1.1606
 7723TIP3   OH223101   6.689   4.609   4.920 -0.5959  0.0433  0.0565
 7723TIP3    H123102   6.629   4.683   4.908 -2.5048 -1.3887  0.4867
 7723TIP3    H223103   6.632   4.535   4.938  1.3409 -1.3604  0.5808
 7724TIP3   OH223104   4.795   5.416   4.684  0.4082  0.3752  0.3744
 7724TIP3    H123105   4.843   5.499   4.695 -0.6532  1.1745 -0.7983
 7724TIP3    H223106   4.855   5.361   4.633  0.7443  0.7794  0.3223
 7725TIP3   OH223107   6.386   5.132   5.440  0.2596 -0.1601 -0.7584
 7725TIP3    H123108   6.398   5.214   5.392  0.2074 -0.3516 -1.1041
 7725TIP3    H223109   6.353   5.159   5.526 -1.9776  0.0586 -1.6629
 7726TIP3   OH223110   5.848   4.267   4.342 -0.3852 -0.6943  0.3130
 7726TIP3    H123111   5.830   4.225   4.258 -0.6584 -0.7194  0.3845
 7726TIP3    H223112   5.930   4.314   4.328 -0.2960 -0.9111  0.1101
 7727TIP3   OH223113   6.373   3.267   5.194  0.1585 -0.3942  0.1143
 7727TIP3    H123114   6.447   3.323   5.218  0.0904 -0.5668  0.7217
 7727TIP3    H223115   6.300   3.299   5.246  0.6518 -2.4620  2.1626
 7728TIP3   OH223116   5.216   5.007   5.245 -0.0130 -0.0108  0.2665
 7728TIP3    H123117   5.122   5.017   5.260 -0.1200  1.1772 -1.0262
 7728TIP3    H223118   5.234   4.915   5.262 -1.5985 -0.4520 -0.4140
 7729TIP3   OH223119   6.538   3.123   4.893 -0.1729 -0.0689  0.0635
 7729TIP3    H123120   6.599   3.129   4.966  0.7393 -2.0489 -0.5217
 7729TIP3    H223121   6.580   3.064   4.830 -1.9551 -0.1772 -1.0695
 7730TIP3   OH223122   4.622   5.142   2.841 -0.5057 -0.1929 -0.3937
 7730TIP3    H123123   4.572   5.204   2.895 -0.3183 -1.4089  1.1968
 7730TIP3    H223124   4.662   5.197   2.774  0.4703  1.5870  1.5643
 7731TIP3   OH223125   5.514   4.126   4.352 -0.2633 -0.2587 -0.7264
 7731TIP3    H123126   5.563   4.198   4.392 -1.9449  0.4983  0.0058
 7731TIP3    H223127   5.498   4.065   4.424 -4.1013  1.5433  0.0638
 7732TIP3   OH223128   6.252   4.048   1.223 -0.1840 -0.2593 -0.2189
 7732TIP3    H123129   6.255   4.081   1.312  2.5131 -0.9135 -0.0391
 7732TIP3    H223130   6.182   3.983   1.224  0.2490 -0.7143  1.5866
 7733TIP3   OH223131   7.332   2.569   4.093 -0.3136 -0.0221 -0.4770
 7733TIP3    H123132   7.344   2.597   4.003 -0.6762 -0.4016 -0.6442
 7733TIP3    H223133   7.241   2.539   4.098 -0.1678 -0.4205 -0.1019
 7734TIP3   OH223134   5.081   4.274   2.822 -0.3835  0.1220  0.2252
 7734TIP3    H123135   5.042   4.277   2.909 -0.8763  1.3155 -0.0311
 7734TIP3    H223136   5.010   4.246   2.764 -0.4699  0.8549 -0.0245
 7735TIP3   OH223137   6.652   5.563   2.189 -0.0321  0.0850 -0.1553
 7735TIP3    H123138   6.589   5.584   2.120 -0.0638  1.6713  0.3323
 7735TIP3    H223139   6.666   5.646   2.235 -0.1855 -0.9692  1.8903
 7736TIP3   OH223140   5.042   5.636   5.089 -0.4216 -0.3914  0.2958
 7736TIP3    H123141   4.950   5.630   5.066 -0.5210 -1.3015  0.9392
 7736TIP3    H223142   5.083   5.560   5.048  0.1284  0.2593 -0.3831
 7737TIP3   OH223143   4.399   5.166   2.485  0.6180  0.5619  0.0903
 7737TIP3    H123144   4.359   5.247   2.454  2.4539  1.8105  0.8831
 7737TIP3    H223145   4.482   5.194   2.524 -0.3987 -1.2065  3.8217
 7738TIP3   OH223146   0.201   4.598   3.681  0.2133 -0.2449  0.6208
 7738TIP3    H123147   0.127   4.658   3.687  1.6291  1.4408  1.8755
 7738TIP3    H223148   0.185   4.533   3.749  0.4120  0.7402  1.6311
 7739TIP3   OH223149   4.084   5.780   1.605 -0.1151 -0.0720 -0.1481
 7739TIP3    H123150   4.095   5.794   1.699 -2.6327 -1.4942  0.3997
 7739TIP3    H223151   4.161   5.729   1.579  0.1534 -0.4428  1.3378
 7740TIP3   OH223152   8.421   5.467   1.425 -0.2710 -0.1314  0.2571
 7740TIP3    H123153   8.426   5.533   1.356  0.4752  1.1016  1.4573
 7740TIP3    H223154   8.447   5.513   1.505 -2.5336 -1.1344  1.6410
 7741TIP3   OH223155   6.365   2.906   4.155  0.0833  0.3185  0.2167
 7741TIP3    H123156   6.355   2.976   4.220 -1.3945 -0.5524  0.9262
 7741TIP3    H223157   6.383   2.828   4.207 -1.1652 -0.3898 -0.4005
 7742TIP3   OH223158   4.556   4.857   5.138  0.0389  0.0951  0.1362
 7742TIP3    H123159   4.592   4.945   5.147  0.0883  0.1200 -0.2812
 7742TIP3    H223160   4.630   4.799   5.157  0.2525  0.1462 -0.5156
 7743TIP3   OH223161   5.219   1.826   3.370 -0.4713  0.2972  0.4003
 7743TIP3    H123162   5.255   1.855   3.286 -1.4355 -1.7859 -0.7739
 7743TIP3    H223163   5.140   1.878   3.381 -1.3551 -0.7341 -0.9236
 7744TIP3   OH223164   5.695   2.558   5.028 -0.1992 -0.1565 -0.3011
 7744TIP3    H123165   5.745   2.587   4.952 -0.1488  0.1307 -0.1605
 7744TIP3    H223166   5.643   2.485   4.996  0.2949 -0.4439 -0.4522
 7745TIP3   OH223167   5.589   4.712   5.999 -0.1483 -0.1451  0.2980
 7745TIP3    H123168   5.639   4.631   6.001  2.0134  1.1786  0.7612
 7745TIP3    H223169   5.599   4.744   5.909  0.9143  0.7723  0.7344
 7746TIP3   OH223170   6.964   4.950   4.495  0.8697 -0.0663 -0.4402
 7746TIP3    H123171   7.035   5.001   4.535  1.6960 -0.8210 -0.9218
 7746TIP3    H223172   6.889   4.966   4.551  1.2441  1.3000 -0.3105
 7747TIP3   OH223173   6.520   5.122   6.280 -0.4651  0.4565  0.0336
 7747TIP3    H123174   6.558   5.209   6.287  0.4429  0.1603 -1.0590
 7747TIP3    H223175   6.585   5.071   6.231 -1.7755 -0.3473 -0.9153
 7748TIP3   OH223176   8.489   2.706   2.307  0.1931 -0.0182 -0.0788
 7748TIP3    H123177   8.400   2.739   2.322 -0.2307 -1.0950 -0.2442
 7748TIP3    H223178   8.483   2.612   2.323  1.8595  0.2497  2.4064
 7749TIP3   OH223179   6.668   5.264   3.016 -0.1323 -0.0709 -0.0148
 7749TIP3    H123180   6.653   5.299   2.928  1.0620  1.8587  0.5186
 7749TIP3    H223181   6.655   5.170   3.007 -0.2651  0.1325 -2.2063
 7750TIP3   OH223182   0.453   4.176   1.415  0.2494  0.0947  0.3626
 7750TIP3    H123183   0.431   4.243   1.479 -1.0579 -0.3505  0.3995
 7750TIP3    H223184   0.368   4.140   1.388  0.9074 -1.3629  0.1648
 7751TIP3   OH223185   4.828   6.443   3.282 -0.1460 -0.1965 -0.0248
 7751TIP3    H123186   4.881   6.482   3.212 -0.0633 -0.5240 -0.1492
 7751TIP3    H223187   4.882   6.371   3.314 -0.5477 -0.5787 -0.2001
 7752TIP3   OH223188   5.166   6.456   4.121  0.2325 -0.0721 -0.0290
 7752TIP3    H123189   5.236   6.465   4.056  1.6340 -2.1617  1.1441
 7752TIP3    H223190   5.207   6.481   4.204 -0.5900 -0.7085  0.5700
 7753TIP3   OH223191   7.245   4.913   4.019  0.0198 -0.1829  0.0638
 7753TIP3    H123192   7.251   4.838   3.960  0.2803 -0.1143  0.0039
 7753TIP3    H223193   7.209   4.984   3.965  0.8274  0.0493 -0.1660
 7754TIP3   OH223194   4.600   3.284   5.378 -0.3741  0.1810  0.4339
 7754TIP3    H123195   4.537   3.351   5.351  0.8317  1.2917  0.3257
 7754TIP3    H223196   4.656   3.328   5.442  0.0966 -0.8863  0.7705
 7755TIP3   OH223197   4.861   4.435   2.153  0.0868 -0.7422 -0.8222
 7755TIP3    H123198   4.918   4.502   2.117  0.1897 -1.0254 -1.1970
 7755TIP3    H223199   4.772   4.465   2.130 -0.0414  0.6555  1.4064
 7756TIP3   OH223200   7.123   5.102   5.764 -0.1111 -0.6010 -0.6433
 7756TIP3    H123201   7.047   5.061   5.723 -0.5245  0.8862 -1.3870
 7756TIP3    H223202   7.115   5.195   5.742  0.5752 -0.0321  1.3558
 7757TIP3   OH223203   5.138   4.258   1.134 -0.0324  0.1962  0.0084
 7757TIP3    H123204   5.148   4.281   1.226 -0.5054 -0.1745  0.1560
 7757TIP3    H223205   5.173   4.169   1.128 -0.1851  0.1452 -0.1264
 7758TIP3   OH223206   5.048   2.520   6.438  0.0088  0.0068  0.3519
 7758TIP3    H123207   5.077   2.457   6.504  1.6466  1.2728  0.8799
 7758TIP3    H223208   5.020   2.596   6.489  0.8591  0.8197 -0.3875
 7759TIP3   OH223209   8.188   4.594   1.453 -0.5552 -0.9100 -0.0532
 7759TIP3    H123210   8.205   4.683   1.421  1.8958 -1.0706  0.6681
 7759TIP3    H223211   8.132   4.607   1.530  0.8758  0.1382  0.8418
 7760TIP3   OH223212   5.413   3.906   5.196 -0.1075  0.2473  0.1337
 7760TIP3    H123213   5.497   3.950   5.185 -0.7938  1.7717  0.8987
 7760TIP3    H223214   5.403   3.853   5.116  0.4409  1.9751 -1.1060
 7761TIP3   OH223215   5.486   6.937   3.824  0.1288 -0.2395  0.0989
 7761TIP3    H123216   5.462   6.894   3.906 -2.2207  3.3880  1.4301
 7761TIP3    H223217   5.410   6.924   3.768  0.9705 -1.0638 -0.8797
 7762TIP3   OH223218   3.778   5.341   0.382 -0.0256 -0.2081  0.1715
 7762TIP3    H123219   3.700   5.288   0.363 -0.0010 -0.1640 -0.0607
 7762TIP3    H223220   3.755   5.429   0.352  0.4227 -0.3742 -0.7105
 7763TIP3   OH223221   4.904   5.425   4.286  0.1926 -0.2158 -0.0805
 7763TIP3    H123222   4.834   5.369   4.322  2.2282 -3.0449 -0.3891
 7763TIP3    H223223   4.859   5.483   4.225 -2.4249  0.5141  2.3985
 7764TIP3   OH223224   5.131   4.304   4.896 -0.5990  0.3817 -0.1588
 7764TIP3    H123225   5.176   4.380   4.934  1.1203 -0.4154 -0.5171
 7764TIP3    H223226   5.050   4.339   4.860 -0.8871  1.6456  1.6844
 7765TIP3   OH223227   4.327   3.296   3.529  0.4601  0.1859  0.1172
 7765TIP3    H123228   4.376   3.378   3.518  0.8002  0.0538  0.6543
 7765TIP3    H223229   4.351   3.243   3.453  1.1641  0.1145  0.3890
 7766TIP3   OH223230   6.537   6.705   2.210 -0.5077  0.0233  0.4157
 7766TIP3    H123231   6.571   6.794   2.205 -0.1422 -0.0645  1.2637
 7766TIP3    H223232   6.530   6.677   2.119  1.5612  0.0910  0.2193
 7767TIP3   OH223233   6.035   3.200   3.614  0.0889  0.4357  0.1227
 7767TIP3    H123234   5.975   3.222   3.543  0.5086  1.3585  0.0474
 7767TIP3    H223235   6.121   3.200   3.574  0.2383  0.0555  0.4386
 7768TIP3   OH223236   5.509   4.178   3.584  0.4633 -0.3223  0.5197
 7768TIP3    H123237   5.503   4.153   3.492  2.7717  1.0459 -0.0506
 7768TIP3    H223238   5.430   4.231   3.600 -1.1570 -2.5238  0.0208
 7769TIP3   OH223239   6.248   5.263   3.067 -0.7634 -0.2324 -0.0529
 7769TIP3    H123240   6.260   5.354   3.091 -1.6500  0.2365 -1.3513
 7769TIP3    H223241   6.328   5.219   3.097  0.5822  1.3391 -1.2866
 7770TIP3   OH223242   7.918   4.806   4.018  0.4918 -0.2058  0.4203
 7770TIP3    H123243   7.964   4.734   4.061  0.3801 -0.9619 -0.7234
 7770TIP3    H223244   7.856   4.837   4.084  0.8471 -0.8627  1.0713
 7771TIP3   OH223245   5.919   5.243   5.966  0.3960  0.1983  0.9241
 7771TIP3    H123246   5.971   5.302   5.911  1.3192 -0.0585  1.5083
 7771TIP3    H223247   5.867   5.302   6.020  1.8195  0.5341  1.9891
 7772TIP3   OH223248   6.041   5.668   4.001 -0.1332  0.0615 -0.1739
 7772TIP3    H123249   5.963   5.621   3.971  0.0277  0.1824 -0.7811
 7772TIP3    H223250   6.087   5.692   3.921 -1.4643  3.4382  0.0111
 7773TIP3   OH223251   4.987   5.169   2.358 -0.0161 -0.2979 -0.3114
 7773TIP3    H123252   4.987   5.193   2.451  0.4948  2.1688 -0.9049
 7773TIP3    H223253   4.914   5.108   2.349  0.2671 -0.9929  1.8072
 7774TIP3   OH223254   2.653   3.655   4.259  0.2388 -0.0110 -0.4590
 7774TIP3    H123255   2.597   3.655   4.182  0.3010 -0.8812 -0.5057
 7774TIP3    H223256   2.604   3.606   4.325  0.1690  0.7548  0.0777
 7775TIP3   OH223257   8.201   4.354   1.860 -0.1820 -0.2445 -0.0051
 7775TIP3    H123258   8.226   4.357   1.768 -0.8822  2.5711 -0.1407
 7775TIP3    H223259   8.105   4.348   1.858 -0.2287  0.2902  0.5420
 7776TIP3   OH223260   5.229   3.657   4.224  0.3976 -0.6575  0.1426
 7776TIP3    H123261   5.305   3.667   4.282  0.2897 -1.6333  0.4493
 7776TIP3    H223262   5.185   3.742   4.229  2.0826  0.3040 -0.9280
 7777TIP3   OH223263   3.944   3.951   2.253 -0.5203  0.2174 -0.2753
 7777TIP3    H123264   3.884   3.934   2.181 -0.4676 -3.2020  0.4098
 7777TIP3    H223265   3.889   3.953   2.331 -0.0790 -0.2968  0.0535
 7778TIP3   OH223266   5.950   7.214   4.909  0.8808 -0.1341 -0.3210
 7778TIP3    H123267   5.922   7.124   4.889 -1.5586  0.3587  0.7440
 7778TIP3    H223268   5.988   7.246   4.827  1.8923 -2.1632 -0.6835
 7779TIP3   OH223269   5.682   5.758   2.572 -0.4595  0.6284 -0.3541
 7779TIP3    H123270   5.690   5.680   2.628 -0.2286  1.3324  0.6180
 7779TIP3    H223271   5.587   5.774   2.569 -0.4607  0.7160  0.0304
 7780TIP3   OH223272   8.034   5.102   4.510  0.2123  0.1607 -0.5838
 7780TIP3    H123273   8.125   5.105   4.480  0.5283  1.3701  0.4263
 7780TIP3    H223274   8.032   5.032   4.576  0.6646  0.8321  0.1527
 7781TIP3   OH223275   6.827   6.556   2.128  0.4294  0.1978 -0.6340
 7781TIP3    H123276   6.834   6.480   2.186  0.8627  0.2527 -0.6122
 7781TIP3    H223277   6.905   6.608   2.148 -1.1926  1.9764  1.2176
 7782TIP3   OH223278   4.240   3.865   4.367  0.1408 -0.3430 -0.1020
 7782TIP3    H123279   4.204   3.782   4.338 -0.8652 -0.3384  1.0990
 7782TIP3    H223280   4.335   3.856   4.356 -0.1861 -0.4349 -3.0899
 7783TIP3   OH223281   4.551   4.193   2.687 -0.0855 -0.6153  0.1434
 7783TIP3    H123282   4.464   4.232   2.690  0.7157  1.2160 -0.1207
 7783TIP3    H223283   4.561   4.166   2.595  0.1678  0.4244 -0.1353
 7784TIP3   OH223284   6.074   5.230   4.433 -0.1104 -0.0728 -0.2868
 7784TIP3    H123285   6.106   5.276   4.356 -0.4399 -1.4224 -1.2296
 7784TIP3    H223286   6.137   5.252   4.502 -0.0023  1.3973 -0.8271
 7785TIP3   OH223287   7.652   4.760   4.455 -0.3607  0.1200  0.1528
 7785TIP3    H123288   7.611   4.795   4.534  1.4779 -0.3815  1.3594
 7785TIP3    H223289   7.643   4.665   4.463 -0.7135  0.0921 -0.5433
 7786TIP3   OH223290   5.344   5.139   5.460 -0.2292 -0.0854  0.2829
 7786TIP3    H123291   5.319   5.108   5.373 -1.2209 -1.0245  0.8976
 7786TIP3    H223292   5.354   5.059   5.512 -1.9822  0.5628  1.6569
 7787TIP3   OH223293   6.105   5.086   5.705  0.1177  0.2165 -0.1640
 7787TIP3    H123294   6.029   5.129   5.666 -0.0282 -0.2946 -0.4494
 7787TIP3    H223295   6.178   5.143   5.685  0.1431 -0.3401 -1.7115
 7788TIP3   OH223296   5.540   4.509   2.328 -0.0284  0.5070 -0.2568
 7788TIP3    H123297   5.612   4.519   2.389 -0.8299  0.2547  0.7410
 7788TIP3    H223298   5.515   4.417   2.333 -1.4248  0.9138  0.5696
 7789TIP3   OH223299   5.371   3.795   4.931 -0.1061 -0.4131 -0.3785
 7789TIP3    H123300   5.312   3.723   4.956 -1.0201 -0.2774 -2.0630
 7789TIP3    H223301   5.342   3.820   4.844  2.2506 -0.0970 -1.1057
 7790TIP3   OH223302   5.292   3.178   3.186  0.3129 -0.0932 -0.3026
 7790TIP3    H123303   5.275   3.100   3.239  0.0144  0.0202 -0.2297
 7790TIP3    H223304   5.384   3.170   3.161  0.7952  0.4394  1.2062
 7791TIP3   OH223305   6.751   7.171   5.228  0.1659  0.4469 -0.2222
 7791TIP3    H123306   6.715   7.258   5.247 -1.5189 -0.0293 -1.1118
 7791TIP3    H223307   6.813   7.186   5.157  1.6742  1.2624  1.2364
 7792TIP3   OH223308   7.997   4.418   1.322  0.1039  0.3586  0.4414
 7792TIP3    H123309   8.080   4.456   1.349  0.7824 -0.5787 -0.3217
 7792TIP3    H223310   7.994   4.430   1.227 -0.4632  0.0496  0.4145
 7793TIP3   OH223311   6.074   2.808   3.505  0.5209 -0.2473 -0.8421
 7793TIP3    H123312   6.006   2.865   3.469  0.8606  0.2689 -0.6715
 7793TIP3    H223313   6.133   2.791   3.431  0.4637 -0.3144 -0.8723
 7794TIP3   OH223314   4.150   3.000   2.218  0.0676  0.4831  0.1264
 7794TIP3    H123315   4.224   3.059   2.226 -0.3583  0.9650  0.5078
 7794TIP3    H223316   4.073   3.054   2.238 -0.5114  0.3275 -1.5364
 7795TIP3   OH223317   6.909   4.181   5.636  0.2486  0.5919 -0.6962
 7795TIP3    H123318   6.893   4.109   5.697 -1.7161  1.2019 -0.4338
 7795TIP3    H223319   6.892   4.143   5.550 -0.2078  0.5754 -0.6031
 7796TIP3   OH223320   1.028   6.271   3.577 -0.0049 -0.0988  0.1936
 7796TIP3    H123321   1.104   6.268   3.635 -0.5214 -0.7635  0.8423
 7796TIP3    H223322   1.060   6.317   3.499  1.0558 -0.3483  0.4619
 7797TIP3   OH223323   8.059   5.418   5.725 -0.3174 -0.6433 -0.1066
 7797TIP3    H123324   8.028   5.332   5.753 -1.3206 -0.0407  0.6807
 7797TIP3    H223325   8.077   5.465   5.806  0.5882 -0.2261 -0.5369
 7798TIP3   OH223326   5.652   3.804   4.863  0.0399 -0.1387 -0.4747
 7798TIP3    H123327   5.650   3.716   4.827  0.4056 -0.9904  1.5327
 7798TIP3    H223328   5.569   3.813   4.909  1.3061 -0.5914  1.9544
 7799TIP3   OH223329   6.351   3.529   4.438 -0.2378 -0.4276  0.2028
 7799TIP3    H123330   6.444   3.512   4.450 -0.1808 -1.1244 -1.0807
 7799TIP3    H223331   6.315   3.534   4.527  1.0271 -0.1068  0.7002
 7800TIP3   OH223332   6.839   3.850   5.315 -0.3407  0.1508  0.2679
 7800TIP3    H123333   6.811   3.872   5.404 -1.7110 -0.2986 -0.0350
 7800TIP3    H223334   6.858   3.757   5.318  0.4157  0.3077  0.2927
 7801TIP3   OH223335   6.213   3.529   5.087  0.4056 -0.3736  0.5752
 7801TIP3    H123336   6.298   3.495   5.059  1.2291  0.6305  1.8102
 7801TIP3    H223337   6.160   3.531   5.006  2.1822  0.8435 -0.5813
 7802TIP3   OH223338   7.189   3.720   5.314 -0.5084  0.4918 -0.0028
 7802TIP3    H123339   7.141   3.746   5.393  1.2827  1.1999  0.8805
 7802TIP3    H223340   7.198   3.625   5.322 -1.3169  0.4150  0.0643
 7803TIP3   OH223341   5.075   2.668   3.342 -0.2670  0.2429 -0.1908
 7803TIP3    H123342   5.063   2.695   3.433  0.4359  0.3396 -0.1250
 7803TIP3    H223343   5.074   2.749   3.292 -0.3707  0.2114 -0.2408
 7804TIP3   OH223344   4.012   3.422   4.832  0.2142 -0.6636  0.0602
 7804TIP3    H123345   4.007   3.362   4.907  0.6373 -0.1196  0.5327
 7804TIP3    H223346   4.106   3.428   4.813  0.3257  1.0619  1.0171
 7805TIP3   OH223347   5.510   2.939   4.069 -0.1673  0.2624  0.0537
 7805TIP3    H123348   5.491   2.969   3.980 -0.2018  2.4835  0.7623
 7805TIP3    H223349   5.498   2.844   4.066  0.2676  0.2603 -2.4020
 7806TIP3   OH223350   4.803   6.630   2.829  0.3366 -0.5722  0.3321
 7806TIP3    H123351   4.742   6.694   2.793  2.5004  0.7748 -1.0255
 7806TIP3    H223352   4.836   6.583   2.752  0.2824 -1.9743  1.1443
 7807TIP3   OH223353   1.958   4.966   3.682  0.1668 -0.1391  0.0548
 7807TIP3    H123354   1.896   5.020   3.631 -0.9967 -0.8230  0.7307
 7807TIP3    H223355   1.926   4.877   3.671  1.5931 -0.6006 -0.3508
 7808TIP3   OH223356   7.501   4.132   3.295 -0.0223 -0.2165  0.3152
 7808TIP3    H123357   7.576   4.191   3.298 -0.9432  1.0540 -0.8092
 7808TIP3    H223358   7.472   4.126   3.386 -0.4574  1.8258  0.3512
 7809TIP3   OH223359   3.599   4.551   4.537 -0.1178 -0.7279 -0.4784
 7809TIP3    H123360   3.556   4.601   4.468  0.8936  0.2333 -0.4221
 7809TIP3    H223361   3.549   4.573   4.616  0.8375  0.8886 -0.2958
 7810TIP3   OH223362   6.595   7.559   2.367 -0.1946  0.1705  0.3108
 7810TIP3    H123363   6.635   7.602   2.443 -1.0070  1.1076  0.2217
 7810TIP3    H223364   6.644   7.477   2.357  0.4866  0.4441  1.3146
 7811TIP3   OH223365   6.989   5.431   3.776  0.4038  0.3570  0.0057
 7811TIP3    H123366   6.945   5.508   3.740  0.6205 -1.1230 -3.6512
 7811TIP3    H223367   7.077   5.462   3.800  0.3618  1.3607 -1.0969
 7812TIP3   OH223368   6.302   7.487   5.830  0.5065  0.3392  0.6153
 7812TIP3    H123369   6.346   7.448   5.754  1.6062 -0.0259  1.4272
 7812TIP3    H223370   6.271   7.572   5.799 -1.3377 -0.8687 -0.9953
 7813TIP3   OH223371   5.385   4.361   2.894 -0.6098 -0.3786  0.6876
 7813TIP3    H123372   5.426   4.326   2.815 -0.3574 -0.5619  0.8961
 7813TIP3    H223373   5.338   4.287   2.932 -0.0189 -0.5161  1.1656
 7814TIP3   OH223374   5.690   7.563   4.939  0.4266  0.5848 -0.1131
 7814TIP3    H123375   5.695   7.469   4.954 -0.9749  0.7186  1.2733
 7814TIP3    H223376   5.648   7.571   4.853 -0.4781 -0.0495  0.2578
 7815TIP3   OH223377   5.669   3.816   3.068  0.4690  0.2711  0.1983
 7815TIP3    H123378   5.679   3.807   2.973  0.0567  2.3733 -0.0725
 7815TIP3    H223379   5.752   3.855   3.096 -0.0435  1.1817  0.4610
 7816TIP3   OH223380   6.267   6.648   2.806 -0.3174  0.0404 -0.1569
 7816TIP3    H123381   6.321   6.716   2.767 -0.9104 -0.6607 -2.2674
 7816TIP3    H223382   6.188   6.646   2.753 -0.5173 -1.9540  0.1636
 7817TIP3   OH223383   7.988   5.154   2.634  0.1331  0.0005  0.5337
 7817TIP3    H123384   8.054   5.166   2.566 -2.2834  1.2604 -1.6279
 7817TIP3    H223385   7.931   5.230   2.627  0.2410  0.5678  4.5057
 7818TIP3   OH223386   6.869   3.117   4.917 -0.7192 -0.0194  0.1536
 7818TIP3    H123387   6.851   3.210   4.903  1.9641  0.2998 -1.5615
 7818TIP3    H223388   6.816   3.073   4.850 -0.6414  0.4003 -0.1880
 7819TIP3   OH223389   6.162   4.968   1.165  0.0116  0.1063 -0.3014
 7819TIP3    H123390   6.221   5.015   1.106 -1.5167  2.6514  0.1762
 7819TIP3    H223391   6.083   4.952   1.113 -1.2198  2.0755  0.9291
 7820TIP3   OH223392   4.834   4.313   5.495 -0.6335  0.2596 -0.4309
 7820TIP3    H123393   4.788   4.289   5.576  1.6014 -0.1151  0.7641
 7820TIP3    H223394   4.810   4.244   5.433  1.7271 -2.3937  1.4890
 7821TIP3   OH223395   7.364   4.966   5.650  0.3367  0.7888  0.0334
 7821TIP3    H123396   7.378   5.061   5.652  0.0528  0.8086  1.1071
 7821TIP3    H223397   7.270   4.955   5.668  0.2643  0.3263 -0.6103
 7822TIP3   OH223398   7.530   4.745   2.757  0.0502 -0.1257 -0.2554
 7822TIP3    H123399   7.511   4.748   2.663  1.4105  2.0943 -0.5034
 7822TIP3    H223400   7.625   4.738   2.762  0.2656  2.7222  0.9121
 7823TIP3   OH223401   3.808   2.525   6.150 -0.0448 -0.0186  0.1077
 7823TIP3    H123402   3.852   2.529   6.235  1.2483  0.1367 -0.5619
 7823TIP3    H223403   3.876   2.498   6.089 -1.5199 -2.6276 -0.4832
 7824TIP3   OH223404   6.408   3.533   5.583  0.1198 -0.1527 -0.0968
 7824TIP3    H123405   6.492   3.578   5.590  0.0834  0.0377 -0.9165
 7824TIP3    H223406   6.418   3.474   5.509 -0.7874  0.5500 -0.7960
 7825TIP3   OH223407   6.913   4.994   3.916 -0.4510 -0.1469 -0.2995
 7825TIP3    H123408   6.947   5.029   3.998  0.5193  0.5429 -0.9789
 7825TIP3    H223409   6.912   4.900   3.929 -0.9028 -0.0132  0.7232
 7826TIP3   OH223410   5.719   6.888   4.722  0.2648  0.5628 -0.1309
 7826TIP3    H123411   5.628   6.901   4.746 -0.0612 -0.3300 -0.8592
 7826TIP3    H223412   5.724   6.796   4.697  1.4479  0.5099  0.2755
 7827TIP3   OH223413   7.753   4.248   3.113 -0.0361  0.0958 -0.5456
 7827TIP3    H123414   7.692   4.322   3.112 -1.5982 -1.1087  1.0658
 7827TIP3    H223415   7.716   4.186   3.050  1.0756  0.5268 -1.6311
 7828TIP3   OH223416   5.695   5.196   5.819 -0.5297  0.0635  0.0907
 7828TIP3    H123417   5.693   5.203   5.724 -1.1210  1.3696  0.1822
 7828TIP3    H223418   5.788   5.198   5.842 -0.3717 -0.6098 -0.4761
 7829TIP3   OH223419   4.950   2.158   3.811 -0.0155 -0.0436  0.0543
 7829TIP3    H123420   5.008   2.166   3.887  1.1680  0.8270 -0.9221
 7829TIP3    H223421   4.867   2.195   3.840  0.8433  1.5870  0.5006
 7830TIP3   OH223422   7.672   3.349   5.925 -0.5699  0.2448 -0.1391
 7830TIP3    H123423   7.618   3.319   5.998 -0.1872  0.0165  0.0497
 7830TIP3    H223424   7.689   3.269   5.874 -0.4204  0.3223 -0.2095
 7831TIP3   OH223425   4.415   4.624   3.332  0.1223 -0.2500 -0.2603
 7831TIP3    H123426   4.324   4.603   3.310  0.4374 -2.0316  0.0619
 7831TIP3    H223427   4.418   4.623   3.427  0.7415 -1.4024 -0.2864
 7832TIP3   OH223428   4.583   6.086   3.768  0.0201 -0.5724  0.0804
 7832TIP3    H123429   4.599   6.139   3.690 -0.8556  0.5312  0.6440
 7832TIP3    H223430   4.548   6.147   3.832 -2.5943 -2.1265  0.1990
 7833TIP3   OH223431   7.068   5.925   2.211 -0.3155 -0.1528  0.3007
 7833TIP3    H123432   7.082   5.831   2.222 -1.9226 -0.4622 -0.0869
 7833TIP3    H223433   7.056   5.959   2.300 -3.1033 -0.9068  0.2487
 7834TIP3   OH223434   6.648   2.860   5.446  0.5772 -0.6787 -0.1145
 7834TIP3    H123435   6.735   2.851   5.406  0.4921 -2.1599  0.0033
 7834TIP3    H223436   6.589   2.817   5.384 -0.0439  0.1108 -0.0730
 7835TIP3   OH223437   6.352   6.827   3.862  0.0801  0.3756 -0.2330
 7835TIP3    H123438   6.403   6.884   3.920  0.6149 -1.1487  0.8112
 7835TIP3    H223439   6.414   6.800   3.795 -0.1932  1.0639 -0.7696
 7836TIP3   OH223440   5.076   4.640   5.240  0.0990 -0.2427  0.4812
 7836TIP3    H123441   5.046   4.715   5.292  2.8702  1.2313  0.0610
 7836TIP3    H223442   5.170   4.634   5.260  0.7738 -0.9596 -2.7126
 7837TIP3   OH223443   4.723   5.251   4.396 -0.0083  0.7264 -0.3962
 7837TIP3    H123444   4.716   5.171   4.343  1.2333  1.4076 -1.6187
 7837TIP3    H223445   4.726   5.219   4.486  0.0414 -0.5932 -0.8489
 7838TIP3   OH223446   6.403   4.045   5.382 -0.4809  0.4530  0.0588
 7838TIP3    H123447   6.485   3.999   5.361 -1.6513 -0.7302 -2.1426
 7838TIP3    H223448   6.431   4.121   5.433  2.1993  1.2563 -2.4481
 7839TIP3   OH223449   1.775   1.917   1.066  0.5523  0.2532  0.8702
 7839TIP3    H123450   1.715   1.846   1.042  1.9719 -0.9980  0.9769
 7839TIP3    H223451   1.741   1.949   1.150 -1.1437  0.9228 -0.0417
 7840TIP3   OH223452   6.793   5.072   2.431 -0.3883 -0.3246 -0.1838
 7840TIP3    H123453   6.822   5.029   2.350  1.8338  0.8420 -0.0481
 7840TIP3    H223454   6.749   5.152   2.401 -3.1219 -1.8147 -0.3616
 7841TIP3   OH223455   6.763   5.919   2.965 -0.3121 -0.4096  0.5765
 7841TIP3    H123456   6.674   5.951   2.955  0.4322  2.3643  2.2871
 7841TIP3    H223457   6.754   5.838   3.015 -1.8476  0.0589  1.0823
 7842TIP3   OH223458   5.690   6.578   2.872 -0.5428 -0.7968 -0.1119
 7842TIP3    H123459   5.666   6.608   2.959 -2.1947 -0.4632 -0.6697
 7842TIP3    H223460   5.658   6.487   2.868 -2.9268  0.0621 -1.3074
 7843TIP3   OH223461   7.284   5.644   4.273  0.4134 -0.3064  0.1649
 7843TIP3    H123462   7.289   5.738   4.254  1.6327 -0.2179  0.8778
 7843TIP3    H223463   7.195   5.619   4.248  0.6967  0.6173 -1.8684
 7844TIP3   OH223464   4.469   4.356   6.263  0.0444 -0.1670 -0.2843
 7844TIP3    H123465   4.548   4.356   6.210  0.4656 -0.4101  0.3364
 7844TIP3    H223466   4.428   4.441   6.245  0.2251 -0.2147 -0.9268
 7845TIP3   OH223467   3.335   5.390   2.919 -0.2641  0.1006 -0.4476
 7845TIP3    H123468   3.400   5.326   2.889 -0.3314 -0.5240  0.7022
 7845TIP3    H223469   3.313   5.361   3.007 -1.9603  0.4284 -0.7618
 7846TIP3   OH223470   5.142   3.964   5.237 -0.1009  0.3759  0.0376
 7846TIP3    H123471   5.115   3.879   5.273  1.0305 -0.0459 -0.0833
 7846TIP3    H223472   5.238   3.962   5.241 -0.0560  1.4801 -0.3598
 7847TIP3   OH223473   3.969   1.737   5.106  0.0187  0.6270 -0.2109
 7847TIP3    H123474   3.924   1.652   5.109 -0.8078  1.1139  4.4059
 7847TIP3    H223475   3.905   1.797   5.068 -0.3517 -0.2163 -0.9521
 7848TIP3   OH223476   8.203   4.468   5.747  0.3379 -0.1994 -0.1163
 7848TIP3    H123477   8.245   4.411   5.811  0.4604 -1.1065 -0.9966
 7848TIP3    H223478   8.117   4.486   5.783 -0.1053 -1.8125 -0.3186
 7849TIP3   OH223479   6.821   4.493   3.265  0.0694  0.0375 -0.2156
 7849TIP3    H123480   6.805   4.508   3.172  0.0262  1.1073 -0.0362
 7849TIP3    H223481   6.900   4.438   3.268  0.7711  1.0106 -0.8397
 7850TIP3   OH223482   5.433   3.852   6.179  0.6511 -0.0360  0.0356
 7850TIP3    H123483   5.377   3.898   6.242  0.1528  0.8603 -1.0464
 7850TIP3    H223484   5.489   3.921   6.142  0.2960 -0.3886 -1.1735
 7851TIP3   OH223485   3.881   4.954   3.689  0.2156  0.1494  0.2757
 7851TIP3    H123486   3.929   4.995   3.616  2.0671 -2.7029 -0.1845
 7851TIP3    H223487   3.904   5.007   3.765  2.2660  0.2173 -0.3598
 7852TIP3   OH223488   6.610   3.725   2.037  0.4322  0.6003 -0.5038
 7852TIP3    H123489   6.600   3.772   1.954  1.1787  0.8540 -0.4447
 7852TIP3    H223490   6.584   3.789   2.104 -2.2740 -0.2540 -0.6528
 7853TIP3   OH223491   5.871   3.268   3.395  0.2048  0.1217 -0.3286
 7853TIP3    H123492   5.796   3.307   3.440  1.4701 -1.0490  2.9378
 7853TIP3    H223493   5.857   3.289   3.302 -2.1961  3.1332  0.6258
 7854TIP3   OH223494   5.743   4.381   2.893  0.3672  0.5723 -0.5727
 7854TIP3    H123495   5.702   4.336   2.819  2.3741  1.1508 -2.0662
 7854TIP3    H223496   5.703   4.340   2.970 -0.9694 -0.7895 -1.9450
 7855TIP3   OH223497   4.260   6.432   1.566 -0.1921  0.4895  0.0882
 7855TIP3    H123498   4.191   6.368   1.579  0.7189 -0.2728  1.3271
 7855TIP3    H223499   4.215   6.515   1.556 -1.2853 -0.0163  0.7602
 7856TIP3   OH223500   5.181   3.288   5.038  0.5702 -0.0286  0.2545
 7856TIP3    H123501   5.207   3.235   5.113 -1.1295  0.3739  1.1428
 7856TIP3    H223502   5.215   3.240   4.962  1.9716 -0.6268  1.2360
 7857TIP3   OH223503   6.212   2.281   3.687 -0.0493 -0.0824 -0.0984
 7857TIP3    H123504   6.237   2.371   3.667 -0.5105 -0.4246 -2.3206
 7857TIP3    H223505   6.267   2.257   3.762  0.4503  1.8522  0.1777
 7858TIP3   OH223506   4.364   4.686   2.729 -0.1683  0.3750  0.2500
 7858TIP3    H123507   4.361   4.772   2.773 -0.9374  0.4589  0.0380
 7858TIP3    H223508   4.272   4.659   2.723  0.1238 -0.8181  1.0005
 7859TIP3   OH223509   5.612   4.129   1.661  0.2160 -0.5273  0.4930
 7859TIP3    H123510   5.616   4.187   1.585 -0.6009 -0.6135  0.3787
 7859TIP3    H223511   5.535   4.075   1.646  1.1152 -1.8290  0.4669
 7860TIP3   OH223512   5.373   3.694   3.159 -0.4707  0.4713  0.0019
 7860TIP3    H123513   5.324   3.701   3.077  0.0973  0.5873 -0.3347
 7860TIP3    H223514   5.459   3.731   3.138 -0.4184  0.7761  0.7342
 7861TIP3   OH223515   6.658   3.518   4.774 -0.0672  0.2070  0.3062
 7861TIP3    H123516   6.726   3.531   4.840  0.9626 -0.0565 -0.6870
 7861TIP3    H223517   6.634   3.607   4.747 -1.0469  0.3339  1.5931
 7862TIP3   OH223518   5.800   5.800   1.951  0.3931 -0.1438 -0.0199
 7862TIP3    H123519   5.748   5.756   1.883  0.3076 -0.9810  0.5739
 7862TIP3    H223520   5.877   5.745   1.961  0.3914 -0.0407  0.5781
 7863TIP3   OH223521   5.509   4.073   5.976 -0.2673  0.8455  0.9120
 7863TIP3    H123522   5.514   4.166   5.995  1.4623  0.6115  1.7304
 7863TIP3    H223523   5.420   4.059   5.943 -0.5680  2.7471  0.8958
 7864TIP3   OH223524   7.258   5.221   0.917 -0.7070 -0.6979  0.4367
 7864TIP3    H123525   7.288   5.132   0.898  0.1986 -0.2374 -0.3230
 7864TIP3    H223526   7.200   5.211   0.992 -0.6488 -1.9372  0.3280
 7865TIP3   OH223527   7.933   6.532   1.719 -0.4326 -0.0908 -0.5350
 7865TIP3    H123528   7.934   6.612   1.771 -1.8653  0.1958 -0.9345
 7865TIP3    H223529   7.945   6.462   1.783 -1.7638  0.2854  0.1506
 7866TIP3   OH223530   7.531   7.277   3.820 -0.2467  0.1686 -0.0768
 7866TIP3    H123531   7.494   7.311   3.738 -2.0094 -1.6982 -0.0865
 7866TIP3    H223532   7.603   7.219   3.792  0.9981  1.7204 -0.1622
 7867TIP3   OH223533   7.470   3.944   5.478 -0.2937  0.8164 -0.0263
 7867TIP3    H123534   7.395   3.925   5.535 -2.1075 -0.5581 -2.7875
 7867TIP3    H223535   7.442   3.917   5.391  3.8870 -0.8711 -0.9762
 7868TIP3   OH223536   7.763   4.808   1.604 -0.1064 -0.4901  0.0470
 7868TIP3    H123537   7.752   4.885   1.549  0.1721  0.9243  1.9399
 7868TIP3    H223538   7.704   4.743   1.567 -2.0418  1.3772 -0.1936
 7869TIP3   OH223539   5.445   4.805   4.637 -0.3435 -0.0636 -0.3413
 7869TIP3    H123540   5.456   4.739   4.568 -1.1964  0.0803 -0.6348
 7869TIP3    H223541   5.354   4.794   4.665 -1.3397  2.7638 -2.2665
 7870TIP3   OH223542   6.779   3.866   4.073 -0.0335  0.2354 -0.2580
 7870TIP3    H123543   6.874   3.856   4.062 -0.3931 -1.3326 -2.3109
 7870TIP3    H223544   6.751   3.781   4.108 -0.8825  0.0692 -1.3187
 7871TIP3   OH223545   7.105   5.607   4.736  0.4481 -0.4357 -0.5611
 7871TIP3    H123546   7.124   5.593   4.829 -1.1794 -0.2576 -0.1839
 7871TIP3    H223547   7.029   5.552   4.719  0.5401 -0.2104 -1.7110
 7872TIP3   OH223548   7.379   4.782   2.064 -0.3320  0.3120 -0.5181
 7872TIP3    H123549   7.424   4.698   2.079  0.6318  0.8359 -0.4070
 7872TIP3    H223550   7.298   4.775   2.114  0.5564  0.1261  0.9367
 7873TIP3   OH223551   1.180   4.337   3.405  0.3496 -0.1361  0.0526
 7873TIP3    H123552   1.200   4.358   3.314  1.4452 -1.2880  0.0090
 7873TIP3    H223553   1.192   4.242   3.411 -0.6617 -0.2040  1.1642
 7874TIP3   OH223554   1.136   4.700   2.991 -0.0405  0.3946  0.1294
 7874TIP3    H123555   1.187   4.649   2.927 -0.3465  1.8628 -1.3143
 7874TIP3    H223556   1.181   4.685   3.074  0.9822 -0.7220 -0.5977
 7875TIP3   OH223557   6.962   3.819   2.843  0.1269  0.1536  0.0465
 7875TIP3    H123558   6.886   3.877   2.853  1.2405  1.8394 -0.9486
 7875TIP3    H223559   6.984   3.824   2.750 -0.2706 -2.5975 -0.2430
 7876TIP3   OH223560   0.223   2.786   2.200  0.1119  0.4356  0.0730
 7876TIP3    H123561   0.135   2.753   2.216 -0.7121  2.5380 -0.0328
 7876TIP3    H223562   0.267   2.779   2.285 -0.2008 -0.4142  0.1750
 7877TIP3   OH223563   4.478   3.773   4.939  0.3955  0.3763 -0.2591
 7877TIP3    H123564   4.390   3.780   4.903 -0.2553  0.2592  1.2811
 7877TIP3    H223565   4.512   3.690   4.905 -0.8564 -0.5815  0.8130
 7878TIP3   OH223566   0.773   4.417   2.128 -0.4986 -0.3060  0.2982
 7878TIP3    H123567   0.738   4.345   2.074  0.0559 -0.6484  0.3909
 7878TIP3    H223568   0.709   4.427   2.198 -0.4709 -0.8592  0.4058
 7879TIP3   OH223569   8.064   3.575   4.189  0.2267  0.2319  0.4271
 7879TIP3    H123570   7.970   3.556   4.183  0.2262  0.1925  0.5532
 7879TIP3    H223571   8.085   3.618   4.107  0.4093 -1.1054 -0.2475
 7880TIP3   OH223572   0.726   4.366   3.139 -0.5359 -0.0701  0.3209
 7880TIP3    H123573   0.668   4.351   3.214 -2.9291  1.8058 -1.0692
 7880TIP3    H223574   0.666   4.375   3.064  1.6213  1.0710 -1.3161
 7881TIP3   OH223575   4.735   4.127   5.296 -0.0049 -0.1863  0.2138
 7881TIP3    H123576   4.686   4.184   5.235 -0.1811  0.2773  0.7790
 7881TIP3    H223577   4.770   4.058   5.241  0.0565  0.3730 -0.4639
 7882TIP3   OH223578   6.946   5.117   3.392 -0.1069 -0.1308 -0.3373
 7882TIP3    H123579   6.863   5.095   3.433  1.0074 -0.2055  1.9801
 7882TIP3    H223580   6.951   5.213   3.396  1.1686 -0.2579  2.1972
 7883TIP3   OH223581   7.733   6.661   2.935 -0.0133 -0.0113  0.0611
 7883TIP3    H123582   7.800   6.722   2.904 -0.9194  2.0070  1.9358
 7883TIP3    H223583   7.781   6.600   2.991  0.5112  0.5940  0.2894
 7884TIP3   OH223584   7.230   4.438   1.491 -0.2501 -0.1034  0.0148
 7884TIP3    H123585   7.237   4.375   1.563 -0.1492 -0.6957 -0.5011
 7884TIP3    H223586   7.157   4.495   1.516 -0.1439 -0.2348  0.6341
 7885TIP3   OH223587   0.809   6.911   2.218 -0.0486  0.2303 -0.2023
 7885TIP3    H123588   0.823   6.824   2.180 -1.5680 -0.2574  0.2985
 7885TIP3    H223589   0.824   6.971   2.146  1.2429 -0.4336 -0.5003
 7886TIP3   OH223590   2.000   4.378   2.681 -0.8119 -0.0220  0.2664
 7886TIP3    H123591   1.952   4.453   2.643 -1.4750 -0.4872  0.1748
 7886TIP3    H223592   2.087   4.383   2.642 -0.7008  0.9941  0.6334
 7887TIP3   OH223593   7.957   4.335   3.632  0.4896  0.3028 -0.3825
 7887TIP3    H123594   8.007   4.392   3.691 -0.4782  0.8977 -0.1198
 7887TIP3    H223595   7.977   4.368   3.545 -0.1615  1.1344 -0.2250
 7888TIP3   OH223596   6.836   3.152   3.258 -0.5683 -1.0230 -0.4405
 7888TIP3    H123597   6.868   3.237   3.231  1.6182 -2.2174 -1.7359
 7888TIP3    H223598   6.822   3.160   3.352  2.3283 -0.0674 -0.0553
 7889TIP3   OH223599   7.437   6.829   3.948  0.0263 -0.1383  0.5116
 7889TIP3    H123600   7.397   6.809   3.863 -2.9402 -0.0602  1.8273
 7889TIP3    H223601   7.424   6.750   4.000 -0.1071  0.5849  1.5871
 7890TIP3   OH223602   7.296   4.858   3.189 -0.3334 -0.3277 -0.4710
 7890TIP3    H123603   7.233   4.920   3.153  0.4032 -0.3484 -1.8461
 7890TIP3    H223604   7.374   4.870   3.135  0.7402 -0.5064  1.0307
 7891TIP3   OH223605   0.773   3.936   1.746 -0.2163  0.0834  0.4636
 7891TIP3    H123606   0.747   3.854   1.706 -0.4847 -0.3882  1.5670
 7891TIP3    H223607   0.694   3.989   1.747 -0.1204  0.2343  0.0406
 7892TIP3   OH223608   1.227   6.292   1.949  0.9620  0.4788 -0.1486
 7892TIP3    H123609   1.171   6.300   2.027 -0.0378  1.8921 -0.9785
 7892TIP3    H223610   1.307   6.340   1.971  0.5133  1.2267 -0.1255
 7893TIP3   OH223611   0.481   4.922   2.639 -0.1274 -0.1220 -0.4833
 7893TIP3    H123612   0.409   4.901   2.579  1.7473  2.3420 -3.7687
 7893TIP3    H223613   0.533   4.843   2.642 -0.7728 -0.5935 -1.3466
 7894TIP3   OH223614   7.236   6.455   1.770  0.4895  0.1245  0.0978
 7894TIP3    H123615   7.284   6.373   1.771 -0.2912 -0.3384  0.1888
 7894TIP3    H223616   7.254   6.492   1.683  1.3991  0.1983  0.3159
 7895TIP3   OH223617   7.827   6.215   0.869  0.0950  0.1693 -0.0150
 7895TIP3    H123618   7.866   6.155   0.932  1.8542  0.9127 -0.3527
 7895TIP3    H223619   7.840   6.172   0.784  1.1904  0.9253 -0.2378
 7896TIP3   OH223620   8.336   2.830   3.305 -0.0757  0.3432  0.6604
 7896TIP3    H123621   8.415   2.817   3.358 -0.2504 -2.5512  0.3076
 7896TIP3    H223622   8.368   2.831   3.214 -0.2098  1.4764  0.6178
 7897TIP3   OH223623   6.082   3.595   4.838 -0.7179  0.0540  0.5196
 7897TIP3    H123624   6.045   3.531   4.778  2.3340  0.5086 -1.9894
 7897TIP3    H223625   6.032   3.675   4.822 -1.4972 -0.4731  0.3141
 7898TIP3   OH223626   7.193   5.833   1.818  0.5842 -0.0625 -0.4614
 7898TIP3    H123627   7.151   5.903   1.869 -0.6812 -0.4301 -0.9741
 7898TIP3    H223628   7.200   5.870   1.730  0.5721 -0.3147 -0.5671
 7899TIP3   OH223629   7.040   3.542   2.068 -0.2892 -0.2003 -0.6660
 7899TIP3    H123630   7.110   3.492   2.110 -1.6074 -0.4668  1.3128
 7899TIP3    H223631   7.085   3.605   2.012  1.5094 -0.7092  0.1815
 7900TIP3   OH223632   7.526   5.028   4.073  0.4166 -0.1398 -0.9588
 7900TIP3    H123633   7.436   5.043   4.045  0.3539 -0.5168 -0.9679
 7900TIP3    H223634   7.523   4.943   4.117 -0.0167  1.5871  2.5030
 7901TIP3   OH223635   6.983   5.464   3.156  0.2875 -0.0889  0.6881
 7901TIP3    H123636   6.994   5.440   3.064 -1.0877 -1.2459  0.8156
 7901TIP3    H223637   6.978   5.560   3.155 -0.6840 -0.1370 -0.5594
 7902TIP3   OH223638   3.818   2.311   6.382 -0.1625  0.0447 -0.3759
 7902TIP3    H123639   3.763   2.244   6.423  0.3484  0.0827  0.4024
 7902TIP3    H223640   3.818   2.289   6.289 -1.2051 -0.1575 -0.3409
 7903TIP3   OH223641   5.262   3.952   3.901  0.7601 -0.3400  0.0266
 7903TIP3    H123642   5.333   4.008   3.870  0.8682 -0.0704  0.7688
 7903TIP3    H223643   5.305   3.870   3.926  0.8500 -0.0859  0.7215
 7904TIP3   OH223644   0.139   6.086   2.138  0.2508  0.0213  0.3345
 7904TIP3    H123645   0.143   6.006   2.190 -0.3119 -0.4126 -0.2707
 7904TIP3    H223646   0.066   6.136   2.175  0.5260  0.2057  0.6347
 7905TIP3   OH223647   8.035   5.294   3.323 -0.0714  0.5498  0.1840
 7905TIP3    H123648   8.088   5.304   3.244 -0.9034  1.5109 -0.2619
 7905TIP3    H223649   8.098   5.300   3.395  0.7471 -0.7746 -0.4118
 7906TIP3   OH223650   6.749   5.770   3.924 -0.2107 -0.6164  0.0814
 7906TIP3    H123651   6.717   5.791   4.012 -1.9180  0.2447 -0.7229
 7906TIP3    H223652   6.743   5.853   3.877 -2.5896 -1.8284 -1.8338
 7907TIP3   OH223653   1.001   5.899   1.879  0.1106  0.1423  0.2799
 7907TIP3    H123654   1.058   5.823   1.888  1.3258  1.0244  0.1902
 7907TIP3    H223655   1.025   5.956   1.952 -1.2395  0.1515  0.7232
 7908TIP3   OH223656   6.991   4.109   2.542  0.2648  0.0545 -0.0311
 7908TIP3    H123657   7.046   4.031   2.533 -1.4355 -0.9558 -1.9332
 7908TIP3    H223658   7.039   4.165   2.604  2.0321 -2.0094  0.5149
 7909TIP3   OH223659   0.046   4.353   1.769  0.1528 -0.1054  0.3168
 7909TIP3    H123660   0.052   4.442   1.804  1.1614 -0.0165 -0.0573
 7909TIP3    H223661  -0.032   4.354   1.714  0.3041  0.6158  0.1078
 7910TIP3   OH223662   8.447   4.275   1.254 -0.4403  0.1629 -0.1695
 7910TIP3    H123663   8.426   4.181   1.254  0.1419  0.0275 -0.3412
 7910TIP3    H223664   8.362   4.319   1.252 -0.7022 -0.3736 -1.3185
 7911TIP3   OH223665   1.990   6.431   1.420  0.9047 -0.5517  0.6276
 7911TIP3    H123666   1.957   6.481   1.495  0.5992 -1.0016  0.7961
 7911TIP3    H223667   1.926   6.360   1.409  0.7742 -0.2985 -0.2633
 7912TIP3   OH223668   6.952   4.713   3.935  0.0625 -0.9526 -0.6977
 7912TIP3    H123669   7.037   4.681   3.903  1.0950  0.8788  0.1235
 7912TIP3    H223670   6.965   4.725   4.029 -0.2854  1.8273 -0.9800
 7913TIP3   OH223671   6.796   3.701   2.494 -0.3483  0.7231 -0.4871
 7913TIP3    H123672   6.886   3.698   2.528 -0.9437  0.8753  1.1577
 7913TIP3    H223673   6.801   3.655   2.410  0.5293 -2.6402  1.2985
 7914TIP3   OH223674   0.387   3.326   4.216  0.1136 -0.1298 -0.1844
 7914TIP3    H123675   0.312   3.382   4.196 -0.2910 -0.2395  0.9890
 7914TIP3    H223676   0.364   3.241   4.178 -0.8002 -0.4310  1.0228
 7915TIP3   OH223677   0.449   1.714   3.607  0.0578  0.0324  0.0124
 7915TIP3    H123678   0.400   1.682   3.683  0.7806  0.5889  0.7309
 7915TIP3    H223679   0.512   1.777   3.644  0.9945 -0.3237 -0.9408
 7916TIP3   OH223680   8.034   2.578   1.560 -0.4725 -0.0215 -0.0950
 7916TIP3    H123681   8.122   2.616   1.565 -0.3214 -0.3694 -0.1294
 7916TIP3    H223682   8.048   2.484   1.562 -0.9321 -0.0679  1.3699
 7917TIP3   OH223683   7.653   2.539   4.066 -0.3151  0.4917  0.4485
 7917TIP3    H123684   7.561   2.565   4.073 -0.6540 -0.3410 -0.8009
 7917TIP3    H223685   7.650   2.445   4.047  0.8144  0.2784  1.2693
 7918TIP3   OH223686   1.798   3.850   4.130 -0.0263 -0.6945 -0.2312
 7918TIP3    H123687   1.726   3.790   4.110  0.0869 -1.2158  0.8629
 7918TIP3    H223688   1.875   3.794   4.135  0.2710 -0.2929 -0.3189
 7919TIP3   OH223689   8.382   3.420   2.558  0.1124 -0.5871 -0.2736
 7919TIP3    H123690   8.428   3.342   2.588 -0.8670 -0.8675  0.5146
 7919TIP3    H223691   8.333   3.450   2.635  2.0431  1.9705  0.0654
 7920TIP3   OH223692   6.152   4.700   1.235 -0.2208  0.1867 -0.1951
 7920TIP3    H123693   6.065   4.661   1.229 -0.3772  0.3340  0.9611
 7920TIP3    H223694   6.142   4.787   1.196  0.0287 -0.7282 -2.3849
 7921TIP3   OH223695   6.326   4.351   2.389 -0.0236  0.3506  0.2398
 7921TIP3    H123696   6.271   4.412   2.340 -0.4283 -0.7302 -0.6800
 7921TIP3    H223697   6.265   4.285   2.422  0.5771 -0.2679  0.1238
 7922TIP3   OH223698   7.833   4.672   2.200  0.3513  0.6378 -0.3405
 7922TIP3    H123699   7.786   4.649   2.120 -1.0476  2.2425 -0.0100
 7922TIP3    H223700   7.861   4.588   2.237 -0.7759 -0.2358 -1.4523
 7923TIP3   OH223701   1.592   2.896   3.619  0.6078 -0.2739  1.2153
 7923TIP3    H123702   1.685   2.894   3.596  0.5349 -0.0529  0.8903
 7923TIP3    H223703   1.550   2.939   3.544  0.2253 -0.5126  1.2898
 7924TIP3   OH223704   7.021   2.881   2.006 -0.0288 -0.5621  0.1014
 7924TIP3    H123705   7.082   2.953   1.990  1.7525 -1.9192  0.5394
 7924TIP3    H223706   6.944   2.901   1.953  1.4221  0.4218 -1.6682
 7925TIP3   OH223707   7.504   3.277   1.798 -0.0019 -0.5226 -0.6483
 7925TIP3    H123708   7.516   3.185   1.772  0.3421 -0.3380 -1.1479
 7925TIP3    H223709   7.564   3.326   1.742 -1.2210  0.1490 -1.3826
 7926TIP3   OH223710   0.099   3.883   2.433  0.3938  0.5813  0.4187
 7926TIP3    H123711   0.141   3.911   2.352  0.8986 -1.6606 -0.1441
 7926TIP3    H223712   0.173   3.864   2.492  0.1096 -0.5884  0.4065
 7927TIP3   OH223713   8.151   5.235   2.423 -0.2601 -0.1076  0.4287
 7927TIP3    H123714   8.233   5.211   2.466 -1.4658 -1.4203  2.0202
 7927TIP3    H223715   8.130   5.321   2.458  0.7631  0.5361 -0.4922
 7928TIP3   OH223716   1.004   3.739   3.415 -0.5445 -0.1921  0.0216
 7928TIP3    H123717   1.076   3.683   3.387  0.8215  1.7779 -0.4775
 7928TIP3    H223718   0.993   3.801   3.343 -2.1462  0.0870  0.4886
 7929TIP3   OH223719   6.323   5.069   4.965  1.0694  0.2367  0.0999
 7929TIP3    H123720   6.315   5.037   5.055  2.1813  0.9454  0.4482
 7929TIP3    H223721   6.262   5.014   4.916  3.9114 -3.3931  0.4373
 7930TIP3   OH223722   7.670   2.192   1.843  0.3354  0.3844  0.4321
 7930TIP3    H123723   7.632   2.273   1.808  2.1126  0.9062 -0.3593
 7930TIP3    H223724   7.655   2.127   1.775 -0.2343  0.2914  0.6487
 7931TIP3   OH223725   8.260   3.706   1.764 -0.1060 -0.0891  0.2452
 7931TIP3    H123726   8.343   3.752   1.771  0.0188 -0.6270  2.5365
 7931TIP3    H223727   8.252   3.686   1.671  2.1611  0.2681 -0.0552
 7932TIP3   OH223728   7.758   5.037   6.492 -0.1628 -0.0744 -0.4959
 7932TIP3    H123729   7.836   4.983   6.477  0.5720  1.0353 -0.7141
 7932TIP3    H223730   7.685   4.981   6.466  0.6071 -0.8837 -0.9449
 7933TIP3   OH223731   6.674   5.997   6.168  0.0077  0.3340  0.4278
 7933TIP3    H123732   6.756   6.040   6.191  1.2494 -2.4319  1.3480
 7933TIP3    H223733   6.675   5.993   6.072  1.3774 -0.4843  0.4641
 7934TIP3   OH223734   7.637   3.665   1.755  0.1539  0.2071  0.1042
 7934TIP3    H123735   7.559   3.631   1.799  1.0283  0.0417  1.5364
 7934TIP3    H223736   7.679   3.588   1.717  0.7655  0.0208  1.1609
 7935TIP3   OH223737   6.380   2.408   1.212 -0.0082  0.0350 -0.0554
 7935TIP3    H123738   6.424   2.339   1.163 -0.8701 -1.1728  0.8374
 7935TIP3    H223739   6.451   2.469   1.236  0.6586 -0.2107 -1.3761
 7936TIP3   OH223740   6.529   5.233   3.422 -0.1212 -0.0626 -0.3013
 7936TIP3    H123741   6.612   5.190   3.441 -0.0517  0.4267  0.5448
 7936TIP3    H223742   6.487   5.177   3.357  0.7190 -0.4928 -0.4814
 7937TIP3   OH223743   7.244   5.791   3.620  0.1162  0.4812 -0.1218
 7937TIP3    H123744   7.260   5.862   3.558  1.1967  0.2490 -0.1208
 7937TIP3    H223745   7.213   5.718   3.566  1.3187  0.1901 -0.4472
 7938TIP3   OH223746   7.267   5.148   3.290 -0.4910  0.3177 -0.0657
 7938TIP3    H123747   7.211   5.114   3.221 -2.7508  1.1752  1.2809
 7938TIP3    H223748   7.238   5.104   3.370  1.5006 -0.0374  0.5008
 7939TIP3   OH223749   7.731   3.076   2.251  0.7581  0.0898 -0.1781
 7939TIP3    H123750   7.765   3.138   2.315  1.0377  0.9894 -1.1725
 7939TIP3    H223751   7.721   3.128   2.171  0.3191 -0.9850 -0.8292
 7940TIP3   OH223752   5.806   5.560   3.940  0.2634 -0.7550  0.3409
 7940TIP3    H123753   5.776   5.548   4.030 -1.5148 -0.5213 -0.2009
 7940TIP3    H223754   5.757   5.495   3.889  1.4252 -1.0413 -0.4349
 7941TIP3   OH223755   6.841   4.144   1.175  0.3215  0.3072 -0.4168
 7941TIP3    H123756   6.871   4.054   1.188  0.5740  0.3123 -0.9286
 7941TIP3    H223757   6.781   4.139   1.101 -0.4185  0.4086  0.1729
 7942TIP3   OH223758   7.891   4.837   1.952  0.0110 -0.0964 -0.6323
 7942TIP3    H123759   7.880   4.840   2.047 -0.1106 -0.2510 -0.6401
 7942TIP3    H223760   7.802   4.824   1.919 -0.0653  0.8620 -0.8129
 7943TIP3   OH223761   7.321   5.762   2.363 -0.1096  0.4908 -0.2569
 7943TIP3    H123762   7.257   5.697   2.333 -1.1249  1.3646  0.0018
 7943TIP3    H223763   7.402   5.738   2.318 -1.1918  0.7819 -2.4242
 7944TIP3   OH223764   8.196   4.371   2.136 -0.5128  0.7728 -0.0273
 7944TIP3    H123765   8.256   4.441   2.162 -0.5060  0.5960  0.4371
 7944TIP3    H223766   8.191   4.378   2.041  0.8068  0.3406 -0.1505
 7945TIP3   OH223767   8.316   5.516   3.457 -0.8648  0.1997 -0.8984
 7945TIP3    H123768   8.328   5.461   3.380  2.1930  0.8389 -0.9493
 7945TIP3    H223769   8.380   5.587   3.446  1.9456 -1.4067  3.7281
 7946TIP3   OH223770   7.980   5.055   2.218  0.2619  0.3987  0.0921
 7946TIP3    H123771   7.964   4.976   2.269  2.7931 -0.1640  0.0512
 7946TIP3    H223772   8.041   5.107   2.271  2.1749  0.2388 -1.8919
 7947TIP3   OH223773   0.589   5.829   2.086 -0.1507 -0.1494  0.0400
 7947TIP3    H123774   0.560   5.784   2.165 -0.6580  0.8657  0.4438
 7947TIP3    H223775   0.510   5.868   2.050  0.0981 -0.5075 -0.9082
 7948TIP3   OH223776   0.150   6.161   1.535  0.0453 -0.3579  0.2715
 7948TIP3    H123777   0.124   6.206   1.454  1.2303 -0.9641 -0.4685
 7948TIP3    H223778   0.141   6.228   1.603  1.6330  0.9878 -0.7849
 7949TIP3   OH223779   7.002   5.300   2.357 -0.2994  0.7678  0.4253
 7949TIP3    H123780   7.044   5.372   2.310 -0.2001  1.0842  0.9816
 7949TIP3    H223781   6.909   5.321   2.354 -0.7398 -1.3711 -3.2085
 7950TIP3   OH223782   6.560   5.060   1.026  0.2112  0.2686 -0.1325
 7950TIP3    H123783   6.564   4.986   0.966  0.1395 -0.9411  1.3014
 7950TIP3    H223784   6.594   5.025   1.109  1.0640  2.0979  0.3299
 7951TIP3   OH223785   7.700   5.940   3.859 -0.1899  0.8248 -0.0476
 7951TIP3    H123786   7.721   5.997   3.932  2.4352  0.1862 -0.2241
 7951TIP3    H223787   7.770   5.874   3.859 -0.5846  0.3213 -2.6089
 7952TIP3   OH223788   0.129   7.762   0.831  0.1774 -0.1148 -0.4880
 7952TIP3    H123789   0.197   7.829   0.836  0.0866  0.0321 -1.1250
 7952TIP3    H223790   0.119   7.730   0.921 -0.3158  1.2478 -0.0560
 7953TIP3   OH223791   1.668   0.211   4.256  0.0163 -0.8239  0.2426
 7953TIP3    H123792   1.678   0.304   4.239  0.0940 -1.0341 -0.9269
 7953TIP3    H223793   1.725   0.193   4.331 -1.6744  0.4756  1.8700
 7954TIP3   OH223794   0.220   5.707   5.758 -0.6225  0.1802 -0.3534
 7954TIP3    H123795   0.309   5.676   5.739 -0.7441  1.0702 -2.5828
 7954TIP3    H223796   0.222   5.800   5.739 -1.9825  0.2516 -0.2171
 7955TIP3   OH223797   8.461   2.143   1.542  0.1037 -0.3931  0.3440
 7955TIP3    H123798   8.520   2.185   1.479  1.0405 -1.3108  0.5992
 7955TIP3    H223799   8.405   2.215   1.573  0.3781  0.2822 -0.6919
 7956TIP3   OH223800   7.446   6.190   4.311  0.1966 -0.4102  0.1674
 7956TIP3    H123801   7.461   6.129   4.239  1.6488 -0.9703  0.9176
 7956TIP3    H223802   7.352   6.184   4.328 -0.2301  0.0464 -1.9443
 7957TIP3   OH223803   6.343   4.275   6.397  0.2450  0.0759 -0.4444
 7957TIP3    H123804   6.296   4.245   6.475 -0.4528  1.2096 -0.4039
 7957TIP3    H223805   6.428   4.231   6.401 -0.3585 -1.0636  0.1363
 7958TIP3   OH223806   0.612   4.153   2.041  0.2115  0.2154  0.2864
 7958TIP3    H123807   0.565   4.227   2.002  2.2209  1.7762  0.7528
 7958TIP3    H223808   0.544   4.101   2.083 -1.2460  1.7666 -0.0964
 7959TIP3   OH223809   7.449   4.254   2.961 -0.4305 -0.3893 -0.3839
 7959TIP3    H123810   7.477   4.314   2.891  0.6220  0.5969  0.8456
 7959TIP3    H223811   7.392   4.191   2.918  0.9018 -0.3260 -2.3127
 7960TIP3   OH223812   6.015   4.918   2.227  0.2166  0.0701 -0.0468
 7960TIP3    H123813   5.949   4.950   2.289  0.7817  0.4674  0.3526
 7960TIP3    H223814   6.087   4.888   2.282  0.7130  0.3999 -0.5166
 7961TIP3   OH223815   7.933   2.753   2.063  0.0191 -0.3388  0.4287
 7961TIP3    H123816   7.944   2.738   2.157  1.1320 -1.7208  0.1011
 7961TIP3    H223817   7.968   2.674   2.022  0.7808  0.8081 -1.1926
 7962TIP3   OH223818   6.206   4.443   2.754  0.1656  0.5702 -0.2446
 7962TIP3    H123819   6.284   4.493   2.776 -0.0791  0.7557  0.2087
 7962TIP3    H223820   6.236   4.352   2.749  0.5438  0.7187 -0.7416
 7963TIP3   OH223821   6.661   4.846   3.476 -0.5104 -0.4607 -0.5216
 7963TIP3    H123822   6.722   4.788   3.521 -0.9352  0.5422  1.4039
 7963TIP3    H223823   6.678   4.831   3.383  2.4834 -0.3895 -0.0410
 7964TIP3   OH223824   1.251   1.292   1.714 -0.3912 -0.2713 -0.5070
 7964TIP3    H123825   1.244   1.214   1.658 -0.9807  0.9501 -2.1588
 7964TIP3    H223826   1.242   1.366   1.654  2.8709  1.1335  0.6625
 7965TIP3   OH223827   6.860   6.279   1.954  0.6514  0.3892  0.3233
 7965TIP3    H123828   6.948   6.306   1.982  0.8561  2.2122 -1.9187
 7965TIP3    H223829   6.805   6.355   1.975  0.0155  0.0890 -0.2783
 7966TIP3   OH223830   7.288   4.600   4.406 -0.2962 -0.0228 -0.3761
 7966TIP3    H123831   7.300   4.684   4.361 -1.2205 -0.7572 -2.0216
 7966TIP3    H223832   7.237   4.623   4.484 -0.2543  1.0035 -0.6390
 7967TIP3   OH223833   0.180   4.963   1.636  0.0004  0.3688  0.8771
 7967TIP3    H123834   0.167   4.869   1.623  0.5111  0.5173 -0.8105
 7967TIP3    H223835   0.246   4.987   1.571  0.6930  1.6868  2.0489
 7968TIP3   OH223836   0.676   4.243   2.731 -0.1738 -0.6285  0.3106
 7968TIP3    H123837   0.722   4.301   2.670 -1.7927  0.1389 -0.1991
 7968TIP3    H223838   0.705   4.155   2.708 -0.6858 -0.3338 -1.4950
 7969TIP3   OH223839   7.928   5.723   1.561  0.2355  0.1402  0.1012
 7969TIP3    H123840   7.955   5.744   1.472 -0.7855  2.3005  0.2660
 7969TIP3    H223841   7.907   5.808   1.601 -0.6791 -0.9113  1.9486
 7970TIP3   OH223842   7.797   3.584   3.093 -0.4285 -0.4381  0.2012
 7970TIP3    H123843   7.793   3.659   3.152  2.4837 -0.1330  0.1005
 7970TIP3    H223844   7.828   3.512   3.149  1.4583 -0.3648 -0.7159
 7971TIP3   OH223845   0.471   4.029   1.084 -0.1682 -0.6198  0.0294
 7971TIP3    H123846   0.406   4.055   1.149 -0.0613 -0.1378 -0.0582
 7971TIP3    H223847   0.433   4.053   1.000  0.5620  0.6321  0.0372
 7972TIP3   OH223848   4.590   6.197   2.707  0.7033 -0.2952  0.5891
 7972TIP3    H123849   4.670   6.245   2.726  1.0954  0.7841 -3.3946
 7972TIP3    H223850   4.528   6.265   2.678 -0.8954 -1.4099  1.3261
 7973TIP3   OH223851   6.200   3.121   4.975 -0.6374 -0.3486 -0.1647
 7973TIP3    H123852   6.266   3.173   5.022 -0.2276 -0.5250 -0.5520
 7973TIP3    H223853   6.221   3.132   4.883 -0.3417 -1.4859 -0.2392
 7974TIP3   OH223854   1.922   3.255   4.343  0.7468  0.0320  0.1714
 7974TIP3    H123855   1.940   3.223   4.255  0.1154 -0.3374  0.1685
 7974TIP3    H223856   1.839   3.302   4.335  0.5246 -0.2721  0.6301
 7975TIP3   OH223857   8.366   2.148   2.005  0.3954 -0.2709 -0.0232
 7975TIP3    H123858   8.425   2.219   1.979 -0.0199 -0.5152 -1.6720
 7975TIP3    H223859   8.417   2.068   1.990 -0.5956 -0.5208 -2.1698
 7976TIP3   OH223860   7.401   6.855   2.591 -0.6369 -0.4942 -0.1032
 7976TIP3    H123861   7.444   6.898   2.517  2.2155 -1.9618  0.6331
 7976TIP3    H223862   7.448   6.887   2.668 -2.0940 -0.7403  0.9128
 7977TIP3   OH223863   7.242   7.599   3.794 -0.3823  0.0074 -0.4862
 7977TIP3    H123864   7.301   7.664   3.756 -0.9471 -0.1858 -1.7159
 7977TIP3    H223865   7.284   7.574   3.876 -0.0336  1.7132 -0.1359
 7978TIP3   OH223866   6.691   4.625   3.822 -0.5704 -0.1270 -0.5867
 7978TIP3    H123867   6.739   4.641   3.741 -0.8741  1.3631 -0.4929
 7978TIP3    H223868   6.749   4.656   3.891 -1.4366  1.1952 -0.4346
 7979TIP3   OH223869   7.626   3.318   0.613  0.0612  0.0576 -0.0478
 7979TIP3    H123870   7.572   3.388   0.575 -0.5053 -1.3088 -1.8678
 7979TIP3    H223871   7.611   3.325   0.707 -1.7981  0.9411 -0.3709
 7980TIP3   OH223872   1.142   7.896   2.501  0.1535  0.1998  0.2925
 7980TIP3    H123873   1.194   7.816   2.512  1.2099  0.6074 -1.4840
 7980TIP3    H223874   1.101   7.886   2.415  2.4893  2.7509 -1.1970
 7981TIP3   OH223875   8.217   6.416   0.887  0.9142 -0.2425  0.4019
 7981TIP3    H123876   8.212   6.502   0.928  2.6804 -1.3448  3.0780
 7981TIP3    H223877   8.185   6.355   0.954 -3.2873 -1.4894 -2.4633
 7982TIP3   OH223878   7.187   5.679   3.361 -0.6626  0.2726 -0.7077
 7982TIP3    H123879   7.254   5.719   3.306  0.3361  0.2956  0.4883
 7982TIP3    H223880   7.121   5.747   3.373  1.2365  1.8073  1.6945
 7983TIP3   OH223881   6.753   3.377   1.114  0.3108  0.1207 -0.1346
 7983TIP3    H123882   6.799   3.457   1.139 -0.0335  0.3155 -0.1207
 7983TIP3    H223883   6.660   3.398   1.125  0.1289  0.3406 -1.9140
 7984TIP3   OH223884   5.242   5.291   6.664 -0.0560 -0.7471  0.0166
 7984TIP3    H123885   5.188   5.350   6.612 -0.8563 -2.0527 -0.6591
 7984TIP3    H223886   5.315   5.345   6.694 -1.0389  0.7024 -0.1666
 7985TIP3   OH223887   0.261   3.695   1.066  0.1783  0.3837  0.1367
 7985TIP3    H123888   0.287   3.779   1.102  0.8655  0.0287  0.4638
 7985TIP3    H223889   0.286   3.631   1.132  0.5809 -0.1771 -0.5512
 7986TIP3   OH223890   7.610   5.361   2.875 -0.3494  0.3625  0.5049
 7986TIP3    H123891   7.534   5.415   2.896 -0.0400 -0.0814  3.0141
 7986TIP3    H223892   7.577   5.292   2.818 -1.2563  1.7657 -0.6681
 7987TIP3   OH223893   0.451   3.350   4.513 -0.1100 -0.5604 -0.3143
 7987TIP3    H123894   0.461   3.297   4.592  0.9644 -0.1885 -0.1974
 7987TIP3    H223895   0.439   3.287   4.443  2.5299 -1.0331 -0.3854
 7988TIP3   OH223896   7.697   3.640   2.499  0.1874 -0.2450 -0.0721
 7988TIP3    H123897   7.610   3.606   2.476  0.1200 -1.0720  1.3335
 7988TIP3    H223898   7.749   3.627   2.420 -0.0757 -2.8859  0.1325
 7989TIP3   OH223899   7.738   2.462   2.560  0.2381  0.2590 -0.1992
 7989TIP3    H123900   7.666   2.525   2.570  0.0624 -0.2160  1.6831
 7989TIP3    H223901   7.767   2.444   2.649  3.0052  0.7487 -0.9509
 7990TIP3   OH223902   8.446   3.441   2.294  0.1311 -0.1330 -0.5870
 7990TIP3    H123903   8.432   3.413   2.384 -1.5626 -4.0378 -1.9547
 7990TIP3    H223904   8.431   3.535   2.295 -1.5116 -0.3810  2.8925
 7991TIP3   OH223905   0.319   3.932   3.788 -0.2257  0.4139  0.2349
 7991TIP3    H123906   0.272   4.015   3.781 -0.2824  0.3812  0.2315
 7991TIP3    H223907   0.400   3.946   3.738 -0.4895  0.2800 -0.2277
 7992TIP3   OH223908   6.832   4.486   4.085 -0.3082  0.6411 -0.0750
 7992TIP3    H123909   6.855   4.510   4.175 -3.0599  0.1977  0.7964
 7992TIP3    H223910   6.841   4.568   4.036  1.0777  0.9207  0.5925
 7993TIP3   OH223911   0.150   4.429   5.149 -0.1290 -0.6992  0.0758
 7993TIP3    H123912   0.200   4.424   5.230  1.5230 -0.5623 -0.8961
 7993TIP3    H223913   0.080   4.365   5.159  1.9710 -3.0375  0.3421
 7994TIP3   OH223914   7.843   2.843   5.565  0.8295 -0.2871 -0.5261
 7994TIP3    H123915   7.756   2.876   5.542  1.9203  2.2171 -1.2905
 7994TIP3    H223916   7.826   2.759   5.607 -1.8863 -0.3620 -1.6130
 7995TIP3   OH223917   0.031   6.851   4.500  0.7506 -0.1462  0.1036
 7995TIP3    H123918   0.120   6.884   4.484  0.7884 -0.5635 -0.5429
 7995TIP3    H223919   0.031   6.830   4.593  1.2501  0.1119  0.1678
 7996TIP3   OH223920   8.072   5.934   2.663 -0.6803 -0.0736  0.0499
 7996TIP3    H123921   8.119   5.918   2.582 -2.9017 -0.0206 -1.2781
 7996TIP3    H223922   8.126   5.997   2.710  0.6396 -0.1321 -1.3738
 7997TIP3   OH223923   8.297   5.611   2.718  0.4019 -0.6738  0.2670
 7997TIP3    H123924   8.355   5.679   2.684 -0.5556  0.1919  0.3420
 7997TIP3    H223925   8.264   5.646   2.801 -0.2724 -1.1236  0.1977
 7998TIP3   OH223926   7.091   2.901   4.029 -0.2607 -0.2743  0.4075
 7998TIP3    H123927   7.023   2.951   4.076 -0.7455  1.3677 -1.9759
 7998TIP3    H223928   7.045   2.826   3.992 -0.3863 -0.1975  0.4092
 7999TIP3   OH223929   8.367   2.272   1.133 -0.1793 -0.7064 -0.1607
 7999TIP3    H123930   8.290   2.215   1.130 -1.8373  1.3304  2.1274
 7999TIP3    H223931   8.332   2.360   1.141  2.3924  0.3737 -0.1803
 8000TIP3   OH223932   7.633   5.472   5.380 -0.4728 -0.1826  0.5635
 8000TIP3    H123933   7.539   5.485   5.394 -0.7155 -0.6082 -0.6277
 8000TIP3    H223934   7.662   5.548   5.330 -0.3393 -0.4040  0.2969
 8001TIP3   OH223935   7.864   3.097   1.021 -0.0677 -0.2924  0.2384
 8001TIP3    H123936   7.790   3.123   1.076  0.0198  1.0857 -0.2780
 8001TIP3    H223937   7.899   3.180   0.987 -0.8476 -1.1836 -2.8679
 8002TIP3   OH223938   7.542   3.069   4.696  0.0512 -0.5115  0.3595
 8002TIP3    H123939   7.572   3.159   4.707  0.5112 -0.6953  0.6247
 8002TIP3    H223940   7.582   3.022   4.769 -0.2425 -0.9152  0.2575
 8003TIP3   OH223941   0.554   3.786   5.386 -0.2584 -0.5014 -0.1557
 8003TIP3    H123942   0.646   3.765   5.371  0.2164  0.9220  0.6495
 8003TIP3    H223943   0.552   3.829   5.471 -1.5307  0.2992 -0.5652
 8004TIP3   OH223944   0.516   4.852   3.362  0.2631 -0.6824  0.6084
 8004TIP3    H123945   0.506   4.768   3.318  0.7389 -0.7119  0.5548
 8004TIP3    H223946   0.565   4.906   3.300 -0.7313 -0.1110  0.3178
 8005TIP3   OH223947   8.424   5.208   1.739 -0.1286  0.0710 -0.1932
 8005TIP3    H123948   8.458   5.297   1.733 -0.7134  0.2285 -1.2865
 8005TIP3    H223949   8.346   5.208   1.684 -0.1777 -1.0967 -0.1442
 8006TIP3   OH223950   7.003   5.286   1.159  0.2282 -0.2877  0.1178
 8006TIP3    H123951   6.930   5.236   1.122 -0.2259 -0.4112  1.1622
 8006TIP3    H223952   6.969   5.375   1.168  0.6723 -0.0244 -0.6883
 8007TIP3   OH223953   5.457   6.420   3.327 -0.5674  0.2943  0.4133
 8007TIP3    H123954   5.407   6.420   3.409 -2.0533 -0.5514 -0.4636
 8007TIP3    H223955   5.501   6.335   3.327 -0.9109  0.1121  0.1532
 8008TIP3   OH223956   6.103   5.197   3.463 -0.0386 -0.2017 -0.3046
 8008TIP3    H123957   6.194   5.210   3.491  0.6233 -1.0684 -1.9595
 8008TIP3    H223958   6.077   5.280   3.424  0.0399  0.0508  0.1786
 8009TIP3   OH223959   1.847   6.255   3.691 -0.1661  0.0399 -0.0765
 8009TIP3    H123960   1.912   6.325   3.680 -0.3297 -0.0477 -1.7624
 8009TIP3    H223961   1.763   6.301   3.695 -0.3929 -0.0883 -2.4324
 8010TIP3   OH223962   0.768   4.648   2.396  0.3437 -0.3648 -0.9348
 8010TIP3    H123963   0.713   4.682   2.467 -0.1242 -0.9479 -1.0196
 8010TIP3    H223964   0.835   4.716   2.383  0.0727  0.0156 -0.3456
 8011TIP3   OH223965   5.534   6.143   4.476 -0.2943  0.4443 -0.1898
 8011TIP3    H123966   5.577   6.194   4.407 -1.3136 -1.3313 -2.2251
 8011TIP3    H223967   5.443   6.172   4.474  0.0101  1.5495  1.5563
 8012TIP3   OH223968   2.673   7.897   6.818  0.4289 -0.1927 -0.5168
 8012TIP3    H123969   2.715   7.835   6.759 -0.4611 -0.4794 -0.8592
 8012TIP3    H223970   2.731   7.974   6.818 -0.4328  0.5175 -3.1432
 8013TIP3   OH223971   6.778   3.643   2.210  0.7395 -0.4887 -0.4986
 8013TIP3    H123972   6.831   3.722   2.209  0.2568 -0.1292  0.9049
 8013TIP3    H223973   6.707   3.661   2.148  0.1841  0.4950  0.4156
 8014TIP3   OH223974   4.542   3.251   3.682  0.4579  0.3596  0.5634
 8014TIP3    H123975   4.456   3.272   3.645  0.3995 -1.1966 -0.1900
 8014TIP3    H223976   4.566   3.168   3.642  1.5299 -0.1027  2.1220
 8015TIP3   OH223977   4.595   3.687   5.168 -0.5601 -0.6141  0.3000
 8015TIP3    H123978   4.550   3.737   5.099 -1.1734 -1.2588  0.2200
 8015TIP3    H223979   4.686   3.683   5.139 -0.7077 -0.4200 -0.2059
 8016TIP3   OH223980   5.307   4.088   4.959  0.3141  0.6936 -0.3890
 8016TIP3    H123981   5.229   4.141   4.939 -0.0700  0.5551  0.6887
 8016TIP3    H223982   5.272   4.004   4.988  0.8688  0.5876 -0.0166
 8017TIP3   OH223983   7.904   3.306   1.944  0.1066  0.5330  0.0874
 8017TIP3    H123984   7.966   3.257   1.997  0.7835  1.0396 -0.2171
 8017TIP3    H223985   7.955   3.380   1.911 -0.2033  0.0361 -1.5540
 8018TIP3   OH223986   8.105   5.435   2.635 -0.0449  0.7123 -0.0122
 8018TIP3    H123987   8.179   5.481   2.673  0.1145  0.2484  0.2434
 8018TIP3    H223988   8.048   5.504   2.602 -0.1474  1.1197  0.9946
 8019TIP3   OH223989   0.447   4.119   4.131 -0.0175 -0.2997  0.5193
 8019TIP3    H123990   0.438   4.025   4.112 -0.4666 -0.2885  0.6724
 8019TIP3    H223991   0.513   4.123   4.200  0.7371 -0.4319 -0.1888
 8020TIP3   OH223992   6.993   5.671   1.716  0.2826 -0.1951 -0.2579
 8020TIP3    H123993   7.026   5.598   1.663 -2.2748 -1.0038 -0.8255
 8020TIP3    H223994   7.071   5.709   1.756  2.2709  0.0531 -4.1240
 8021TIP3   OH223995   7.561   5.937   2.713 -0.1539 -0.4430 -1.0016
 8021TIP3    H123996   7.509   5.865   2.678 -0.7183  0.5309 -2.1774
 8021TIP3    H223997   7.638   5.894   2.750 -0.9640 -1.7441 -0.7531
 8022TIP3   OH223998   2.327   5.243   3.435 -0.0589 -0.4179  0.0228
 8022TIP3    H123999   2.313   5.192   3.515  0.2330  0.2051  0.4731
 8022TIP3    H224000   2.376   5.184   3.377  1.5585 -0.1615  1.0941
 8023TIP3   OH224001   6.858   5.843   1.257 -0.2649 -0.5362 -0.1027
 8023TIP3    H124002   6.925   5.828   1.189  0.0525  0.2612  0.0284
 8023TIP3    H224003   6.904   5.891   1.325 -1.3202  1.2752 -0.6384
 8024TIP3   OH224004   7.209   4.343   2.033 -0.0168  0.8060 -0.0415
 8024TIP3    H124005   7.117   4.336   2.008 -0.2069  2.2303  0.2078
 8024TIP3    H224006   7.247   4.399   1.965  0.1399  2.1642  1.1515
 8025TIP3   OH224007   8.375   5.204   2.567 -0.5151 -0.5444 -0.6575
 8025TIP3    H124008   8.443   5.143   2.538  0.3405  0.5073 -0.8638
 8025TIP3    H224009   8.418   5.259   2.632 -0.7670  1.0548 -1.8153
 8026TIP3   OH224010   0.104   6.317   3.261  0.0711  0.4975 -0.5401
 8026TIP3    H124011   0.100   6.411   3.277 -0.0206  0.5183 -0.6931
 8026TIP3    H224012   0.015   6.291   3.240  0.0165  0.3002 -0.0788
 8027TIP3   OH224013   6.676   5.582   3.293 -0.3998 -0.1726 -0.1967
 8027TIP3    H124014   6.652   5.663   3.338 -1.2049 -1.6238  2.0346
 8027TIP3    H224015   6.766   5.596   3.263 -0.5249  1.5188  0.1947
 8028TIP3   OH224016   6.241   5.555   3.152 -0.2295  0.0458  0.2147
 8028TIP3    H124017   6.203   5.525   3.235  0.1024  0.3631  0.4852
 8028TIP3    H224018   6.330   5.519   3.153  0.4998  1.8343  0.9870
 8029TIP3   OH224019   1.288   6.642   2.942 -0.3819  0.7708  0.2883
 8029TIP3    H124020   1.296   6.726   2.987  1.1225  0.6330  0.2748
 8029TIP3    H224021   1.374   6.602   2.949 -1.1016 -0.8194  0.3682
 8030TIP3   OH224022   1.062   5.057   2.379 -0.3104  0.2258  0.4424
 8030TIP3    H124023   0.981   5.095   2.413  0.1584  1.6137  0.0580
 8030TIP3    H224024   1.131   5.111   2.417  0.3931 -0.4060  0.0709
 8031TIP3   OH224025   6.655   3.635   4.182 -0.1024  0.2382  0.7828
 8031TIP3    H124026   6.680   3.545   4.166 -1.1905  0.3569 -1.8343
 8031TIP3    H224027   6.561   3.631   4.201  0.1132  0.6922  2.0020
 8032TIP3   OH224028   0.655   2.670   2.155 -0.1435  0.2542  0.0124
 8032TIP3    H124029   0.714   2.695   2.226 -1.0479  1.2194  0.4266
 8032TIP3    H224030   0.615   2.588   2.184 -2.2715  1.8462  1.6733
 8033TIP3   OH224031   5.574   4.422   4.776 -0.1768 -0.4663  0.2297
 8033TIP3    H124032   5.575   4.395   4.868 -0.3926 -0.9401  0.0939
 8033TIP3    H224033   5.504   4.488   4.771 -0.8228 -1.1519  0.2054
 8034TIP3   OH224034   5.222   4.248   3.240  0.3437  0.0437  0.4744
 8034TIP3    H124035   5.180   4.309   3.301  0.4939 -2.1585  2.9005
 8034TIP3    H224036   5.151   4.216   3.184  0.2546  2.3355 -0.7752
 8035TIP3   OH224037   0.063   2.633   2.967 -0.0614  0.0451 -0.2889
 8035TIP3    H124038   0.151   2.611   2.997  0.2252 -1.1549 -1.9646
 8035TIP3    H224039   0.006   2.571   3.012  0.0202  0.3423  0.2290
 8036TIP3   OH224040   0.322   2.396   4.160 -0.4154  0.2561 -0.0032
 8036TIP3    H124041   0.264   2.381   4.234 -1.5567  0.6635 -0.8053
 8036TIP3    H224042   0.323   2.491   4.148 -1.2590  0.1147 -1.3068
 8037TIP3   OH224043   1.390   2.299   1.581 -0.1978  0.1277 -0.6259
 8037TIP3    H124044   1.414   2.206   1.585 -0.2324  0.1184 -0.6299
 8037TIP3    H224045   1.447   2.342   1.644 -0.8433 -0.0428  0.0823
 8038TIP3   OH224046   6.785   3.082   2.060  0.5417 -0.0795 -0.0149
 8038TIP3    H124047   6.768   3.094   2.154  0.2081  1.4264 -0.2596
 8038TIP3    H224048   6.829   3.163   2.033 -0.8389  0.2010 -1.5061
 8039TIP3   OH224049   5.341   5.649   3.107 -0.3444  0.4134 -0.3861
 8039TIP3    H124050   5.432   5.655   3.134 -0.1810 -0.6197 -0.7056
 8039TIP3    H224051   5.336   5.570   3.054 -1.7448 -0.3915  0.9068
 8040TIP3   OH224052   0.581   6.017   0.896 -0.3311  0.3624  0.4111
 8040TIP3    H124053   0.655   5.957   0.887 -0.4869  0.0351  1.2602
 8040TIP3    H224054   0.614   6.087   0.953  0.1637  1.6085 -1.3438
 8041TIP3   OH224055   6.342   4.054   3.678 -0.4291 -0.7410 -0.0383
 8041TIP3    H124056   6.275   4.079   3.615  0.9502  1.0547 -0.8591
 8041TIP3    H224057   6.314   4.094   3.761  0.4593  1.5401 -0.7728
 8042TIP3   OH224058   8.283   5.137   3.441  0.3253  0.4337  0.6876
 8042TIP3    H124059   8.368   5.114   3.478  0.9440  3.1583  1.0497
 8042TIP3    H224060   8.302   5.207   3.379 -1.1900 -1.5892 -2.1737
 8043TIP3   OH224061   1.010   4.556   2.085 -0.3426  0.0192  0.1169
 8043TIP3    H124062   0.919   4.530   2.102 -0.3835 -0.5397 -0.8865
 8043TIP3    H224063   1.035   4.607   2.162 -1.9011  1.1954 -0.1158
 8044TIP3   OH224064   6.837   3.662   0.486  0.6353  0.2213 -0.4019
 8044TIP3    H124065   6.750   3.638   0.456 -0.8271  2.0920  2.1505
 8044TIP3    H224066   6.831   3.755   0.509  2.6648 -0.1225  1.8632
 8045TIP3   OH224067   0.919   7.105   5.736 -0.1578 -0.2623  0.2804
 8045TIP3    H124068   0.843   7.106   5.678 -0.4328 -1.6658  0.5959
 8045TIP3    H224069   0.988   7.151   5.687 -0.4458 -1.2425 -1.0607
 8046TIP3   OH224070   0.781   6.115   5.544 -0.0084  0.2342 -0.4671
 8046TIP3    H124071   0.849   6.170   5.504 -0.3855  1.1032  0.0883
 8046TIP3    H224072   0.729   6.084   5.470 -0.3484  1.3607 -0.7050
 8047TIP3   OH224073   7.696   5.179   5.904  0.1485 -0.2307 -0.1017
 8047TIP3    H124074   7.618   5.232   5.920 -0.2983 -0.1511 -2.3863
 8047TIP3    H224075   7.673   5.125   5.828  2.2203 -0.3865 -0.6439
 8048TIP3   OH224076   8.471   5.914   5.280  0.3682 -0.2064 -0.4287
 8048TIP3    H124077   8.411   5.839   5.278  0.9047 -0.6952  1.3034
 8048TIP3    H224078   8.418   5.986   5.313  0.0442  0.0265 -1.4238
 8049TIP3   OH224079   1.653   6.191   4.336  0.2454 -0.0399  0.1341
 8049TIP3    H124080   1.720   6.225   4.395 -0.3265 -1.5056  1.6665
 8049TIP3    H224081   1.574   6.188   4.389 -0.8540  0.8434 -1.4074
 8050TIP3   OH224082   7.631   0.990   0.603 -0.9772  0.4510  0.5008
 8050TIP3    H124083   7.702   1.039   0.562 -0.1933 -0.5570  0.6499
 8050TIP3    H224084   7.571   0.970   0.531 -0.6467  0.5086  0.2073
 8051TIP3   OH224085   7.666   6.214   3.985 -0.5804 -0.0693 -0.3979
 8051TIP3    H124086   7.595   6.154   3.960 -0.0347 -0.5824 -0.7175
 8051TIP3    H224087   7.648   6.294   3.935 -0.6325 -0.3818 -0.8775
 8052TIP3   OH224088   0.323   5.560   5.092  0.3779  0.0017 -0.1938
 8052TIP3    H124089   0.283   5.576   5.006  0.3529  1.6601  0.1025
 8052TIP3    H224090   0.413   5.592   5.082 -0.5094  3.2585  1.2946
 8053TIP3   OH224091   1.935   5.435   5.638 -0.3339 -0.3387 -0.0186
 8053TIP3    H124092   1.924   5.405   5.548  0.5516  0.7479 -0.4932
 8053TIP3    H224093   1.944   5.355   5.690  1.4690 -0.9139 -1.1909
 8054TIP3   OH224094   5.550   2.038   1.279  0.6980 -0.5502 -0.4701
 8054TIP3    H124095   5.467   1.995   1.260  0.7021  0.2289 -2.3490
 8054TIP3    H224096   5.616   1.971   1.263  0.4857 -0.9053  0.1469
 8055TIP3   OH224097   0.127   6.281   4.051  0.6835 -0.5998  0.4751
 8055TIP3    H124098   0.111   6.349   3.985 -2.1192  1.3875  3.0387
 8055TIP3    H224099   0.043   6.237   4.060  1.4978 -1.9695  1.5452
 8056TIP3   OH224100   1.902   5.336   5.381 -0.4998 -0.0253 -0.1009
 8056TIP3    H124101   1.821   5.351   5.332 -0.5660 -0.2739 -0.0678
 8056TIP3    H224102   1.969   5.382   5.330 -0.0752 -2.6408 -1.9641
 8057TIP3   OH224103   0.614   5.906   4.208  0.0898 -0.1038  0.0144
 8057TIP3    H124104   0.583   5.828   4.255  0.9652 -0.1091  0.5953
 8057TIP3    H224105   0.584   5.979   4.262  0.6376 -0.0906  0.2992
 8058TIP3   OH224106   0.669   3.144   3.605  0.2359 -0.1154  0.3834
 8058TIP3    H124107   0.589   3.129   3.555 -0.1966 -2.3492  1.6865
 8058TIP3    H224108   0.655   3.228   3.648 -1.3601 -0.4318  0.5149
 8059TIP3   OH224109   0.748   3.094   5.318  0.5376 -0.1744  0.3239
 8059TIP3    H124110   0.741   2.999   5.309 -0.8576 -0.1837  1.3726
 8059TIP3    H224111   0.742   3.126   5.228  0.7649 -1.0536 -0.0145
 8060TIP3   OH224112   6.590   6.254   5.486 -0.1707 -0.4985 -0.5309
 8060TIP3    H124113   6.574   6.230   5.394  0.1404 -1.1176 -0.4258
 8060TIP3    H224114   6.596   6.170   5.532  0.2267 -0.2035 -0.0373
 8061TIP3   OH224115   0.492   6.278   5.592  0.0324 -0.2186  0.5454
 8061TIP3    H124116   0.578   6.314   5.615 -0.6171  0.6956  1.5594
 8061TIP3    H224117   0.433   6.309   5.660 -1.5459  0.9415 -1.2948
 8062TIP3   OH224118   0.440   5.880   3.821 -1.1927  0.1169 -0.3025
 8062TIP3    H124119   0.526   5.866   3.860 -1.4570 -0.8362 -0.0564
 8062TIP3    H224120   0.441   5.972   3.794 -1.0315  0.8244  2.0128
 8063TIP3   OH224121   7.026   5.918   4.261 -0.0840  0.1438  0.0077
 8063TIP3    H124122   6.949   5.904   4.317  0.5084 -2.6562  0.2089
 8063TIP3    H224123   7.017   5.853   4.192  1.4455  0.6675 -0.7066
 8064TIP3   OH224124   7.022   0.271   0.269 -0.2775 -0.4631 -0.1086
 8064TIP3    H124125   7.040   0.314   0.353 -2.3960 -0.3125  0.2770
 8064TIP3    H224126   7.054   0.333   0.203  1.5091 -0.6357  0.5579
 8065TIP3   OH224127   1.513   4.113   3.243  0.5553 -0.0401  0.6879
 8065TIP3    H124128   1.583   4.051   3.223 -0.1845 -0.1170 -1.8375
 8065TIP3    H224129   1.534   4.190   3.191  0.0096  0.8075  1.7136
 8066TIP3   OH224130   2.238   6.488   6.843  0.4324 -0.5580  0.1376
 8066TIP3    H124131   2.305   6.506   6.778  0.2027  1.1425  0.3479
 8066TIP3    H224132   2.157   6.478   6.793  0.1621  1.2678  0.1807
 8067TIP3   OH224133   5.983   2.633   0.272  0.8909 -0.2291  0.2133
 8067TIP3    H124134   6.022   2.554   0.309  0.8400 -0.8323 -1.0029
 8067TIP3    H224135   6.003   2.628   0.179 -2.4338 -0.7738 -0.5250
 8068TIP3   OH224136   8.009   5.887   3.055  0.2613 -0.5207 -0.1422
 8068TIP3    H124137   7.998   5.812   3.114  1.3637 -1.3958 -1.0045
 8068TIP3    H224138   8.038   5.958   3.112  1.0906 -1.2902  0.4150
 8069TIP3   OH224139   0.911   4.562   4.691 -0.0714 -0.5416  0.4876
 8069TIP3    H124140   0.823   4.537   4.721 -0.0028  1.0717  2.1779
 8069TIP3    H224141   0.969   4.534   4.762  0.5961 -0.2655  0.0519
 8070TIP3   OH224142   7.632   4.406   2.293  0.4159 -0.2663 -0.1875
 8070TIP3    H124143   7.705   4.368   2.341  0.2849  1.0877  1.0954
 8070TIP3    H224144   7.672   4.445   2.215  1.0742  0.5626  0.5660
 8071TIP3   OH224145   1.486   7.879   6.722 -0.3121 -0.4591 -0.1489
 8071TIP3    H124146   1.556   7.814   6.708 -0.0611 -0.5782  1.4836
 8071TIP3    H224147   1.513   7.955   6.671  1.9553  0.1460  1.8723
 8072TIP3   OH224148   2.435   6.792   3.800  0.7251  0.2843  0.1898
 8072TIP3    H124149   2.523   6.757   3.797  1.1576  1.4141 -0.8378
 8072TIP3    H224150   2.379   6.717   3.821  1.9199 -0.4349  0.8272
 8073TIP3   OH224151   0.361   5.458   3.425  0.3007 -0.2387  0.1501
 8073TIP3    H124152   0.330   5.535   3.378  1.1127  1.1352  1.8098
 8073TIP3    H224153   0.447   5.483   3.458  0.6872 -1.9593  0.4820
 8074TIP3   OH224154   1.160   4.192   6.169 -0.3065  0.0868  0.2988
 8074TIP3    H124155   1.214   4.170   6.093 -2.0157  0.8991 -1.1874
 8074TIP3    H224156   1.087   4.130   6.166 -0.2148 -0.0922  1.4878
 8075TIP3   OH224157   1.782   3.007   6.463 -0.3197  0.0081 -0.1054
 8075TIP3    H124158   1.702   2.999   6.515 -0.4104  2.2888  0.1258
 8075TIP3    H224159   1.752   3.036   6.377  0.1135 -0.7535 -0.5144
 8076TIP3   OH224160   3.191   6.564   5.595  0.6785  0.1593  0.0777
 8076TIP3    H124161   3.177   6.658   5.599  0.5059  0.1206  0.4295
 8076TIP3    H224162   3.286   6.553   5.602  0.6950  0.3052  0.0822
 8077TIP3   OH224163   8.330   3.867   2.061 -0.1778 -0.3217  0.0785
 8077TIP3    H124164   8.397   3.846   1.996  0.5063 -2.3415  1.3817
 8077TIP3    H224165   8.357   3.819   2.139 -1.3832  1.4769  1.6429
 8078TIP3   OH224166  -0.004   4.425   4.826  0.0249 -0.2911 -0.2749
 8078TIP3    H124167   0.046   4.476   4.889  1.3467 -0.6614 -1.0115
 8078TIP3    H224168   0.017   4.334   4.846 -0.1246 -0.4395 -0.7682
 8079TIP3   OH224169   6.930   6.074   5.325 -0.3253 -0.4458 -0.2001
 8079TIP3    H124170   6.882   6.142   5.278 -0.0298  0.3683  0.6488
 8079TIP3    H224171   7.020   6.083   5.295 -0.3094 -0.5376 -0.1805
 8080TIP3   OH224172   0.710   6.410   5.707  0.5862 -0.0216  0.2504
 8080TIP3    H124173   0.673   6.471   5.770  2.4053  0.3767  0.9871
 8080TIP3    H224174   0.804   6.408   5.728  1.0673 -0.6455 -1.7973
 8081TIP3   OH224175   0.358   5.265   5.970 -0.4324 -0.5904  0.1949
 8081TIP3    H124176   0.317   5.352   5.977 -0.1482 -0.4676  0.3055
 8081TIP3    H224177   0.354   5.245   5.876  0.4122 -0.0197  0.0369
 8082TIP3   OH224178   6.407   2.650   1.522  0.0301 -0.3763  0.0233
 8082TIP3    H124179   6.474   2.711   1.553  0.6081  0.0415 -1.9546
 8082TIP3    H224180   6.440   2.563   1.546  0.6245 -0.0811  0.2678
 8083TIP3   OH224181   7.494   0.167   1.509 -0.5932  0.1630  0.2090
 8083TIP3    H124182   7.548   0.090   1.491 -0.4915 -0.0270  1.3086
 8083TIP3    H224183   7.406   0.142   1.479 -0.5203 -0.3146  0.3857
 8084TIP3   OH224184   3.879   3.593   6.003  0.6136  0.1151 -0.2011
 8084TIP3    H124185   3.947   3.529   6.022  0.5329 -0.1313 -0.7460
 8084TIP3    H224186   3.881   3.605   5.908  0.3877  0.6518 -0.1429
 8085TIP3   OH224187   4.220   0.399   6.331  0.0816  0.4890 -0.2763
 8085TIP3    H124188   4.292   0.376   6.389 -0.1742  0.1212 -0.1009
 8085TIP3    H224189   4.155   0.331   6.346 -0.9148  1.6188  0.6546
 8086TIP3   OH224190   1.012   6.255   5.856 -0.9842 -0.0279 -0.7440
 8086TIP3    H124191   0.957   6.182   5.827 -0.4958 -0.8053  0.2786
 8086TIP3    H224192   1.082   6.214   5.906 -0.4362  1.1103 -0.5652
 8087TIP3   OH224193   1.258   6.133   6.201  0.5786  0.0774 -0.6777
 8087TIP3    H124194   1.286   6.195   6.268  0.0552 -0.7617  0.3231
 8087TIP3    H224195   1.275   6.047   6.239 -0.4599 -0.4167 -1.3085
 8088TIP3   OH224196   8.415   5.546   6.559 -0.7058 -0.1313 -0.3828
 8088TIP3    H124197   8.396   5.519   6.649  0.3803 -1.2576 -0.4865
 8088TIP3    H224198   8.407   5.466   6.507  1.9721 -0.1876 -0.7828
 8089TIP3   OH224199   0.808   4.282   3.851 -0.2600 -0.4639 -0.0206
 8089TIP3    H124200   0.811   4.350   3.784 -1.2177 -0.5806 -0.1868
 8089TIP3    H224201   0.716   4.277   3.877 -0.4094 -2.4712 -0.8263
 8090TIP3   OH224202   6.557   1.019   0.628  0.7522  0.0000  0.0165
 8090TIP3    H124203   6.649   1.005   0.605  0.9471  0.7817  0.3000
 8090TIP3    H224204   6.525   0.933   0.654  1.5313 -0.1946  0.3417
 8091TIP3   OH224205   0.498   3.587   5.199 -0.0751  0.0750  0.1993
 8091TIP3    H124206   0.496   3.653   5.268  1.5287  1.2000 -0.7908
 8091TIP3    H224207   0.410   3.590   5.160 -0.2109  1.1627  0.5775
 8092TIP3   OH224208   0.919   6.256   4.298 -0.8961 -0.3290  0.1037
 8092TIP3    H124209   0.849   6.235   4.360 -1.3826 -3.1412 -1.3350
 8092TIP3    H224210   1.000   6.232   4.344 -1.0133  0.7473  0.8899
 8093TIP3   OH224211   7.103   3.962   5.165 -1.1070  0.6537 -0.2326
 8093TIP3    H124212   7.122   3.878   5.207 -1.2364  1.1219  0.7872
 8093TIP3    H224213   7.043   3.940   5.093 -0.7985 -0.1750 -0.2423
 8094TIP3   OH224214   7.460   6.414   2.058  0.6926 -0.1289  1.0033
 8094TIP3    H124215   7.465   6.362   2.138  0.4551  0.5391  1.4571
 8094TIP3    H224216   7.478   6.351   1.987 -0.1694 -0.9484  1.4940
 8095TIP3   OH224217  -0.000   4.747   5.885  0.0976  0.1482  0.9774
 8095TIP3    H124218   0.078   4.781   5.841  0.3692 -1.3260  0.2924
 8095TIP3    H224219  -0.023   4.814   5.950 -0.1261  2.2016 -1.1802
 8096TIP3   OH224220   8.154   5.032   4.918  0.1487 -0.0357 -0.2387
 8096TIP3    H124221   8.139   5.126   4.908  2.3577  0.2914 -0.6978
 8096TIP3    H224222   8.088   4.991   4.862 -2.0058  1.1686  1.3568
 8097TIP3   OH224223   2.778   6.406   6.815  0.0675 -0.5646 -0.5022
 8097TIP3    H124224   2.858   6.456   6.798  0.9592 -1.7746  0.0753
 8097TIP3    H224225   2.762   6.358   6.734 -0.3598  0.0532 -0.7899
 8098TIP3   OH224226   8.257   4.216   3.551 -1.1224  0.1701 -0.2916
 8098TIP3    H124227   8.344   4.194   3.517 -2.5950 -0.9135 -3.5832
 8098TIP3    H224228   8.209   4.133   3.550 -2.3446  0.8335  1.0392
 8099TIP3   OH224229   3.252   6.270   5.533 -0.3492  0.0419 -0.1073
 8099TIP3    H124230   3.199   6.209   5.583 -1.4223  1.0946  0.0647
 8099TIP3    H224231   3.287   6.331   5.598  0.1744  0.0185 -0.3590
 8100TIP3   OH224232   1.103   5.512   4.931  0.7837  0.4749 -0.0829
 8100TIP3    H124233   1.182   5.495   4.880  0.7784 -0.0205  0.0791
 8100TIP3    H224234   1.134   5.550   5.013  0.8100  0.9864 -0.3278
 8101TIP3   OH224235   1.458   5.512   3.898  0.0430 -0.2535 -0.4804
 8101TIP3    H124236   1.470   5.513   3.993 -1.6509 -0.8784 -0.2545
 8101TIP3    H224237   1.498   5.595   3.869  0.5857 -0.0630  0.7590
 8102TIP3   OH224238   7.736   5.241   3.133  0.0463  0.1925 -0.3123
 8102TIP3    H124239   7.752   5.275   3.221  0.8977 -1.4150  0.1705
 8102TIP3    H224240   7.641   5.232   3.127  0.0604 -0.8372  0.8751
 8103TIP3   OH224241   8.106   5.199   6.621 -0.6660 -0.1764  0.0126
 8103TIP3    H124242   8.029   5.178   6.568 -0.5955 -1.7524  0.5106
 8103TIP3    H224243   8.090   5.157   6.705  0.6433 -0.3353  0.2003
 8104TIP3   OH224244   0.881   5.946   4.641 -0.1430  0.1056 -0.2282
 8104TIP3    H124245   0.867   5.851   4.639 -1.5947  0.3164 -0.6021
 8104TIP3    H224246   0.967   5.958   4.602 -0.4084 -0.9848 -1.1756
 8105TIP3   OH224247   8.002   5.051   3.067  0.4185  0.2979 -0.0118
 8105TIP3    H124248   8.042   5.016   2.987 -0.4565  1.3061 -0.9158
 8105TIP3    H224249   8.064   5.029   3.136  2.6078  1.8659 -1.3843
 8106TIP3   OH224250   5.746   1.703   0.588 -0.0279  0.2339  0.0985
 8106TIP3    H124251   5.812   1.772   0.599  0.8068 -0.3089 -1.3273
 8106TIP3    H224252   5.742   1.689   0.493 -0.7761 -1.1011  0.3196
 8107TIP3   OH224253   6.024   1.052   0.184 -0.1195 -0.2292  0.1106
 8107TIP3    H124254   6.023   1.052   0.279 -2.1132  3.0640  0.1388
 8107TIP3    H224255   6.080   1.126   0.160  0.0804 -0.8108 -1.2823
 8108TIP3   OH224256   0.292   1.691   2.937  0.2671 -0.2776 -0.0855
 8108TIP3    H124257   0.324   1.631   2.869 -0.4177 -0.7662  0.0167
 8108TIP3    H224258   0.205   1.716   2.906  1.5558  2.7207 -1.4449
 8109TIP3   OH224259   1.572   3.706   4.046  0.4290  0.2138 -0.7864
 8109TIP3    H124260   1.500   3.662   4.090  0.4849 -2.3769 -3.2033
 8109TIP3    H224261   1.545   3.713   3.955  1.5463  2.8953 -0.9677
 8110TIP3   OH224262   0.968   7.219   6.706  0.1308  0.0872  0.0081
 8110TIP3    H124263   1.020   7.198   6.783 -1.0283 -1.9750  0.2615
 8110TIP3    H224264   0.913   7.292   6.733  1.0322  0.5721  0.5542
 8111TIP3   OH224265   2.425   6.944   6.554 -0.2654  0.2650 -0.0920
 8111TIP3    H124266   2.436   7.038   6.569  0.0581  0.1042  0.6927
 8111TIP3    H224267   2.460   6.903   6.633 -0.4534 -0.5146 -0.4128
 8112TIP3   OH224268   0.597   6.519   6.743  0.2792  0.8387  0.5105
 8112TIP3    H124269   0.653   6.465   6.687  0.0825  1.2613 -0.0937
 8112TIP3    H224270   0.628   6.608   6.730 -0.9867  1.1623 -0.3741
 8113TIP3   OH224271   8.403   6.276   3.684 -0.4289 -0.3170 -0.4049
 8113TIP3    H124272   8.471   6.208   3.679  0.0238  0.1206 -0.2720
 8113TIP3    H224273   8.451   6.355   3.707 -1.1810 -0.2811  1.0558
 8114TIP3   OH224274   7.477   6.819   4.525  0.0948 -0.1292 -0.0853
 8114TIP3    H124275   7.514   6.785   4.444 -1.0560 -0.1661 -0.6198
 8114TIP3    H224276   7.466   6.913   4.508 -2.1237 -0.4853 -0.7854
 8115TIP3   OH224277   8.057   2.460   0.569  0.2911  0.2507  0.1697
 8115TIP3    H124278   8.040   2.539   0.620  1.7749  1.2398 -0.8257
 8115TIP3    H224279   8.152   2.459   0.557  0.3511 -1.9601  0.5951
 8116TIP3   OH224280   6.575   5.433   5.716  0.2486 -0.0916 -0.6160
 8116TIP3    H124281   6.507   5.423   5.782 -1.8897  2.0973 -2.3758
 8116TIP3    H224282   6.644   5.482   5.761  0.3403 -1.5853  0.9377
 8117TIP3   OH224283   0.056   5.386   5.755 -0.2464  0.7883 -0.4110
 8117TIP3    H124284   0.105   5.433   5.822 -0.3390  1.7129 -0.9745
 8117TIP3    H224285   0.123   5.356   5.693 -0.2316  0.5963 -0.3014
 8118TIP3   OH224286   0.343   4.508   5.352  0.0796  0.4866  0.2530
 8118TIP3    H124287   0.355   4.597   5.382  0.2670  0.2505  0.8816
 8118TIP3    H224288   0.432   4.476   5.335  0.2087 -0.3970  2.4116
 8119TIP3   OH224289   7.185   4.995   3.517  0.1423  0.6366 -0.4158
 8119TIP3    H124290   7.096   5.019   3.491 -0.6647 -1.2495  0.5298
 8119TIP3    H224291   7.220   5.074   3.559 -1.5407  0.9956  0.3486
 8120TIP3   OH224292   1.766   6.093   6.221 -0.0807 -0.4273  0.2023
 8120TIP3    H124293   1.756   6.044   6.302 -4.5494 -1.5835 -0.8804
 8120TIP3    H224294   1.838   6.051   6.176  1.2672 -0.9225  2.7408
 8121TIP3   OH224295   5.088   2.054   0.413 -0.0315  0.0792 -0.1295
 8121TIP3    H124296   5.080   1.968   0.455 -0.1250 -0.4011 -1.0925
 8121TIP3    H224297   4.999   2.090   0.415  0.0497  0.2420  0.4653
 8122TIP3   OH224298   7.650   4.555   4.714  0.1369  0.3204  0.4708
 8122TIP3    H124299   7.669   4.490   4.782  1.3227 -0.2444 -0.4025
 8122TIP3    H224300   7.562   4.586   4.736  0.4544  0.0564  2.2028
 8123TIP3   OH224301   4.801   3.949   6.219 -0.4156 -0.4012  0.4766
 8123TIP3    H124302   4.798   3.940   6.124 -0.6818 -0.4941  0.4947
 8123TIP3    H224303   4.752   3.874   6.252  1.0433 -1.2719  0.7338
 8124TIP3   OH224304   8.245   0.421   1.126 -0.3249 -0.1814 -0.4733
 8124TIP3    H124305   8.320   0.477   1.108 -0.6081 -0.4448 -2.5231
 8124TIP3    H224306   8.283   0.334   1.141 -0.2663 -0.4876 -2.3268
 8125TIP3   OH224307   0.878   3.684   6.903 -0.2226 -0.0252 -0.0885
 8125TIP3    H124308   0.841   3.732   6.977 -1.2863 -0.2779 -0.4435
 8125TIP3    H224309   0.968   3.663   6.929 -0.5421  0.0334  1.0554
 8126TIP3   OH224310   1.576   5.146   6.911 -0.4408  0.0256 -0.0180
 8126TIP3    H124311   1.484   5.170   6.916 -0.0921  1.5390 -0.7196
 8126TIP3    H224312   1.623   5.228   6.921  0.8487 -0.7648  0.5933
 8127TIP3   OH224313   0.547   4.822   5.121 -0.3234 -0.6268 -0.1612
 8127TIP3    H124314   0.513   4.911   5.125 -1.5221 -1.1407  1.5324
 8127TIP3    H224315   0.469   4.766   5.125  0.4165 -1.7395 -1.2340
 8128TIP3   OH224316   7.612   5.204   6.679 -0.4776  0.5186  0.1312
 8128TIP3    H124317   7.643   5.286   6.643 -1.4998  1.2717  0.9245
 8128TIP3    H224318   7.625   5.140   6.609 -0.5913  1.5470 -0.8347
 8129TIP3   OH224319   5.537   1.842   0.125 -0.4570  0.2616 -0.1849
 8129TIP3    H124320   5.577   1.928   0.138 -0.6518  0.1487  1.3278
 8129TIP3    H224321   5.459   1.858   0.072  0.8004  0.6801 -1.9540
 8130TIP3   OH224322   8.230   5.331   5.364 -0.4124  0.1706 -0.1636
 8130TIP3    H124323   8.286   5.408   5.371 -1.6462  1.2057 -1.3010
 8130TIP3    H224324   8.143   5.363   5.390 -0.8746 -0.8952 -0.3793
 8131TIP3   OH224325   1.320   4.579   6.555  0.3000 -0.3711  0.5008
 8131TIP3    H124326   1.262   4.503   6.557  0.4800 -0.5817 -1.2006
 8131TIP3    H224327   1.407   4.543   6.543  0.5287  0.0364  0.9421
 8132TIP3   OH224328   0.473   5.615   5.848 -0.0740 -0.1479 -0.0657
 8132TIP3    H124329   0.530   5.676   5.894  0.1284 -0.5105  0.1686
 8132TIP3    H224330   0.524   5.534   5.843 -0.6682 -0.5534  0.3711
 8133TIP3   OH224331   1.719   5.595   2.838 -0.3607  0.3503 -0.0764
 8133TIP3    H124332   1.745   5.675   2.884  0.5923  0.0744 -0.1172
 8133TIP3    H224333   1.790   5.533   2.857 -0.7730 -0.2778 -0.5729
 8134TIP3   OH224334   0.074   5.607   5.515  0.3436 -0.0491  0.4645
 8134TIP3    H124335  -0.014   5.591   5.548 -0.3054  0.7521 -0.8549
 8134TIP3    H224336   0.124   5.632   5.593 -0.2565 -1.7588  1.4362
 8135TIP3   OH224337   7.765   4.342   5.807  0.3903  0.2588  0.1737
 8135TIP3    H124338   7.702   4.396   5.759  0.5976  0.6922  0.3843
 8135TIP3    H224339   7.813   4.404   5.861  0.5690 -0.1524  0.4883
 8136TIP3   OH224340   0.983   2.571   3.448  0.1756  0.3735  0.5295
 8136TIP3    H124341   0.893   2.581   3.419 -0.0755 -1.9376  0.3767
 8136TIP3    H224342   1.034   2.566   3.367  0.3748  1.1475  0.6067
 8137TIP3   OH224343   0.100   6.483   3.720  0.6930  0.3160  0.0795
 8137TIP3    H124344   0.129   6.558   3.773 -0.7159  1.9382 -1.3929
 8137TIP3    H224345   0.172   6.470   3.658  2.1895 -1.3633  2.0732
 8138TIP3   OH224346   1.224   5.650   3.702 -0.1521 -0.1163 -0.3723
 8138TIP3    H124347   1.178   5.571   3.730 -0.4399  0.2143  0.0823
 8138TIP3    H224348   1.234   5.640   3.608  2.6993 -2.2562  0.0900
 8139TIP3   OH224349   7.618   1.384   1.330  0.0421  0.2922 -0.6422
 8139TIP3    H124350   7.701   1.420   1.298  0.1987 -0.3334 -0.9591
 8139TIP3    H224351   7.599   1.312   1.270  0.9886 -1.7277  1.4195
 8140TIP3   OH224352   0.821   6.932   5.530  0.0604  0.2035 -0.1491
 8140TIP3    H124353   0.822   6.889   5.615 -1.5635  0.4061 -0.0111
 8140TIP3    H224354   0.905   6.910   5.491  0.9318  0.3266  1.6082
 8141TIP3   OH224355   1.418   3.415   4.500  0.1293 -0.1491  0.5142
 8141TIP3    H124356   1.374   3.403   4.584 -0.2642  0.2868  0.3713
 8141TIP3    H224357   1.352   3.394   4.435  0.8087 -1.7249  0.3235
 8142TIP3   OH224358   1.407   3.605   6.280  0.1796  0.2856  0.2055
 8142TIP3    H124359   1.335   3.662   6.305  0.5956  0.1038  1.9458
 8142TIP3    H224360   1.367   3.519   6.267 -0.0555  0.3869  0.2673
 8143TIP3   OH224361   5.284   7.608   4.502  0.3393  0.4638 -0.1531
 8143TIP3    H124362   5.190   7.629   4.508  0.2117  0.4523 -1.8196
 8143TIP3    H224363   5.328   7.692   4.511  0.1975  0.3902  1.2458
 8144TIP3   OH224364   1.045   4.413   4.933 -0.3328  0.6500  0.1799
 8144TIP3    H124365   1.130   4.370   4.931 -0.3472  0.6359 -0.0893
 8144TIP3    H224366   1.016   4.405   5.024  0.4745  1.6811  0.5406
 8145TIP3   OH224367   0.650   5.722   4.894  0.0718 -0.5384  0.4951
 8145TIP3    H124368   0.713   5.792   4.913  0.1875 -0.8219  1.1321
 8145TIP3    H224369   0.655   5.664   4.969 -0.8166 -0.6636  0.4518
 8146TIP3   OH224370   1.790   3.590   3.174 -0.0921 -0.0584 -1.0031
 8146TIP3    H124371   1.862   3.559   3.119  0.3590  2.4698 -1.9333
 8146TIP3    H224372   1.713   3.586   3.118 -0.1878 -0.2913 -0.8548
 8147TIP3   OH224373   1.716   6.809   4.783  0.1567  0.4700  0.0064
 8147TIP3    H124374   1.760   6.728   4.759  0.0452  0.4570 -0.1457
 8147TIP3    H224375   1.764   6.877   4.735 -0.4038  0.3895 -0.6704
 8148TIP3   OH224376   0.642   3.405   3.656  0.1139  0.3081 -0.7976
 8148TIP3    H124377   0.554   3.440   3.673  0.1943  0.1456 -0.0089
 8148TIP3    H224378   0.699   3.457   3.713  0.3677 -0.4393 -0.3708
 8149TIP3   OH224379   0.890   5.369   5.228  0.3234  0.2877 -0.6237
 8149TIP3    H124380   0.928   5.294   5.181  2.4043  0.7308  0.3264
 8149TIP3    H224381   0.824   5.330   5.285  0.6249 -0.6960 -0.9343
 8150TIP3   OH224382   8.056   6.363   6.002 -0.1865  0.5609  0.4035
 8150TIP3    H124383   8.072   6.456   6.021 -0.0327  0.7227 -0.4783
 8150TIP3    H224384   8.015   6.329   6.081 -0.7199  1.5044  0.5392
 8151TIP3   OH224385   7.731   1.369   0.637 -0.2785 -0.2200  0.1369
 8151TIP3    H124386   7.637   1.358   0.625 -0.6096  0.7018  1.7518
 8151TIP3    H224387   7.741   1.459   0.668  1.0809 -0.5229  0.6152
 8152TIP3   OH224388   0.163   6.033   5.097  0.1668  0.1251 -0.7225
 8152TIP3    H124389   0.103   5.992   5.159  0.3551  0.1857 -0.4977
 8152TIP3    H224390   0.107   6.083   5.038  0.1668  2.1938  0.9923
 8153TIP3   OH224391   1.068   5.280   5.909 -0.0633 -0.1392  0.0363
 8153TIP3    H124392   0.999   5.345   5.924  1.6178  2.1107 -1.6491
 8153TIP3    H224393   1.071   5.269   5.814  0.8151 -1.4262  0.1993
 8154TIP3   OH224394   0.386   5.278   6.401  1.0553 -0.4575  0.1359
 8154TIP3    H124395   0.394   5.352   6.341 -1.6436  0.2829  0.6462
 8154TIP3    H224396   0.352   5.207   6.348 -1.4739  0.2388  0.7526
 8155TIP3   OH224397   1.250   4.711   5.669 -0.2973  0.1300 -0.4922
 8155TIP3    H124398   1.243   4.804   5.647 -0.3865  0.7103  1.8724
 8155TIP3    H224399   1.214   4.705   5.758  0.3268 -2.0528 -0.3728
 8156TIP3   OH224400   5.238   1.649   0.031 -0.1965  0.1096 -0.2290
 8156TIP3    H124401   5.251   1.605   0.115  1.4084 -1.1272 -1.1009
 8156TIP3    H224402   5.180   1.590  -0.017  0.1959  0.0278 -0.5954
 8157TIP3   OH224403   6.160   0.410   0.131  0.2428 -0.2720  0.2990
 8157TIP3    H124404   6.125   0.435   0.046  1.9231 -1.1413 -0.6733
 8157TIP3    H224405   6.241   0.461   0.140 -0.4670  0.6227  1.8695
 8158TIP3   OH224406   0.279   4.633   4.754  0.0357  0.1645 -0.9337
 8158TIP3    H124407   0.231   4.695   4.698  1.4372 -0.2800 -2.6899
 8158TIP3    H224408   0.296   4.558   4.697  2.1811  0.0332 -0.1709
 8159TIP3   OH224409   0.718   6.646   4.608  0.3518 -0.2213 -0.7760
 8159TIP3    H124410   0.737   6.659   4.701 -0.2448 -0.8806 -0.5572
 8159TIP3    H224411   0.722   6.734   4.570 -0.9985  0.2707  0.1755
 8160TIP3   OH224412   0.646   4.532   4.524  0.0166  0.2576 -0.3214
 8160TIP3    H124413   0.638   4.571   4.610  1.6771 -3.1584  1.5112
 8160TIP3    H224414   0.729   4.566   4.489 -1.0931  2.3349 -1.0180
 8161TIP3   OH224415   0.210   7.054   3.392 -0.2351  0.1429  0.8040
 8161TIP3    H124416   0.124   7.021   3.417 -1.5799  1.9318 -1.1822
 8161TIP3    H224417   0.216   7.037   3.298  0.3017  2.6482  0.3354
 8162TIP3   OH224418   1.064   5.896   6.827 -0.3011  0.3154 -0.9175
 8162TIP3    H124419   1.140   5.839   6.843  0.2248  0.6994 -2.0053
 8162TIP3    H224420   1.078   5.930   6.739 -1.9390  0.0925 -1.2857
 8163TIP3   OH224421   8.115   5.559   5.177 -0.8249  0.6010 -0.1460
 8163TIP3    H124422   8.067   5.491   5.129  0.1712  0.2442 -0.6492
 8163TIP3    H224423   8.090   5.546   5.268 -0.0640 -0.9317 -0.1454
 8164TIP3   OH224424   3.595   5.880   3.374  0.6192 -0.1885 -0.6344
 8164TIP3    H124425   3.538   5.944   3.416  2.0982 -0.7159  2.3476
 8164TIP3    H224426   3.683   5.917   3.381  1.1459 -1.2804 -1.3236
 8165TIP3   OH224427   2.847   4.450   3.713  0.0020 -0.1398  0.1066
 8165TIP3    H124428   2.904   4.418   3.643 -0.0151  0.6724 -0.2912
 8165TIP3    H224429   2.882   4.411   3.793 -1.6561 -3.3279 -0.6522
 8166TIP3   OH224430   5.185   0.611   4.339 -0.5078 -0.4249 -0.1960
 8166TIP3    H124431   5.110   0.623   4.281 -0.5962 -1.7848 -0.3642
 8166TIP3    H224432   5.190   0.694   4.388 -1.6409 -0.0336 -0.7202
 8167TIP3   OH224433   2.923   4.103   1.897 -0.3946  0.4635 -0.1410
 8167TIP3    H124434   2.970   4.166   1.843  0.5866  1.0645  1.3897
 8167TIP3    H224435   2.959   4.114   1.985 -3.7085  1.2567  1.1970
 8168TIP3   OH224436   1.211   4.845   4.754  0.3019  0.8758  0.4177
 8168TIP3    H124437   1.271   4.789   4.804  1.2091  1.4090 -0.0631
 8168TIP3    H224438   1.160   4.892   4.821  0.2278  0.2231  0.8238
 8169TIP3   OH224439   0.341   5.864   6.693  0.3202 -0.2487  0.3172
 8169TIP3    H124440   0.290   5.788   6.721 -1.4427  0.5900 -0.5785
 8169TIP3    H224441   0.324   5.873   6.600  0.1757  1.4798  0.4793
 8170TIP3   OH224442   0.897   6.805   3.297  0.0598  0.2238 -0.3263
 8170TIP3    H124443   0.890   6.885   3.350  0.1674  0.8535 -1.2339
 8170TIP3    H224444   0.988   6.776   3.310 -0.1323 -0.0462  0.4179
 8171TIP3   OH224445   0.774   2.595   3.281 -0.2031 -0.2466  0.0949
 8171TIP3    H124446   0.824   2.562   3.207 -0.2935 -0.3762  0.0904
 8171TIP3    H224447   0.756   2.686   3.261  1.0715  0.1409  0.6439
 8172TIP3   OH224448   2.219   4.133   5.073  0.5187  0.1901 -0.1621
 8172TIP3    H124449   2.131   4.167   5.088  0.6634  0.9038 -0.8500
 8172TIP3    H224450   2.208   4.063   5.008  0.5128  0.6249 -0.6357
 8173TIP3   OH224451   3.755   5.644   2.643  0.6615 -0.4515  0.0095
 8173TIP3    H124452   3.667   5.628   2.608  0.6495 -1.2633  0.4019
 8173TIP3    H224453   3.756   5.597   2.726  0.8417  1.1198  0.9057
 8174TIP3   OH224454   2.391   6.630   4.039 -0.0916 -0.3637 -0.3768
 8174TIP3    H124455   2.378   6.568   3.968 -0.0363 -1.2497  0.3655
 8174TIP3    H224456   2.367   6.581   4.118  1.0186  0.1909  0.3300
 8175TIP3   OH224457   2.390   4.568   4.521  0.1666  0.3702  0.1541
 8175TIP3    H124458   2.476   4.527   4.528 -0.2104 -0.1525  1.9433
 8175TIP3    H224459   2.393   4.641   4.583 -0.3461  0.9243 -0.4744
 8176TIP3   OH224460   1.707   2.884   4.371  0.0272  0.5999  0.0884
 8176TIP3    H124461   1.747   2.872   4.457  1.3225  1.2906 -0.4037
 8176TIP3    H224462   1.615   2.903   4.390  0.4372  1.3964  1.3501
 8177TIP3   OH224463   7.882   3.209   4.899 -0.1445 -0.2988 -0.4747
 8177TIP3    H124464   7.884   3.250   4.986  1.1917 -1.0775 -0.1103
 8177TIP3    H224465   7.973   3.183   4.884 -0.0103  1.4597 -2.9109
 8178TIP3   OH224466   0.950   5.309   6.707 -0.0054 -0.6431  0.4514
 8178TIP3    H124467   0.898   5.341   6.634  2.1367  1.2310 -0.2914
 8178TIP3    H224468   0.979   5.222   6.680 -1.2686 -0.9613  0.1236
 8179TIP3   OH224469   3.559   5.942   5.812 -0.2333 -0.3419  0.0384
 8179TIP3    H124470   3.553   5.999   5.736 -2.8509 -0.0316  0.4146
 8179TIP3    H224471   3.580   5.856   5.776  2.1618  0.4984 -0.6697
 8180TIP3   OH224472   1.947   3.845   5.007  0.5677 -0.2298 -0.2684
 8180TIP3    H124473   1.975   3.895   5.084 -1.3437 -0.2789  0.4764
 8180TIP3    H224474   2.015   3.863   4.942  0.3154  2.7660  0.2152
 8181TIP3   OH224475   4.031   6.830   3.996  0.3035 -0.2467  0.1580
 8181TIP3    H124476   4.091   6.880   4.051  1.3358 -1.7302  0.4224
 8181TIP3    H224477   4.034   6.741   4.032 -2.3256 -0.2871  0.3860
 8182TIP3   OH224478   1.580   3.768   3.320  0.6585  0.4686 -0.5565
 8182TIP3    H124479   1.646   3.833   3.296  0.2473  0.1231 -2.7676
 8182TIP3    H224480   1.612   3.730   3.401  2.3389  1.4614 -0.7317
 8183TIP3   OH224481   3.042   5.346   4.791  0.1956 -0.0728 -0.2242
 8183TIP3    H124482   3.046   5.299   4.707 -0.1094  1.4034 -1.0902
 8183TIP3    H224483   2.957   5.390   4.790  0.4278  0.3979  0.6147
 8184TIP3   OH224484   2.257   2.757   4.292  0.2463 -0.2411  0.1530
 8184TIP3    H124485   2.340   2.805   4.300  0.5591 -0.5317 -1.2214
 8184TIP3    H224486   2.234   2.735   4.382  1.8933 -0.5235  0.5275
 8185TIP3   OH224487   1.179   5.272   4.659 -0.1275  0.1037 -0.1263
 8185TIP3    H124488   1.144   5.215   4.728 -0.5442  1.0631  0.4635
 8185TIP3    H224489   1.271   5.285   4.682  0.0991 -0.7159 -0.5308
 8186TIP3   OH224490   1.071   4.968   3.036 -0.2761 -0.1425  0.1757
 8186TIP3    H124491   1.099   4.877   3.031  0.0550 -0.0124 -0.2965
 8186TIP3    H224492   1.013   4.971   3.112 -1.5164 -1.0776 -0.7154
 8187TIP3   OH224493   3.558   6.877   4.264  0.2650  0.8373  0.6391
 8187TIP3    H124494   3.551   6.786   4.292 -0.7421  0.1005 -1.8872
 8187TIP3    H224495   3.647   6.885   4.231  1.8648  2.0303  4.9226
 8188TIP3   OH224496   6.110   4.972   4.548  0.1769 -0.2611 -0.1326
 8188TIP3    H124497   6.119   5.063   4.519 -1.2782 -0.5887 -1.6774
 8188TIP3    H224498   6.131   4.975   4.641 -2.5413  2.1819  0.4827
 8189TIP3   OH224499   2.283   4.462   5.336 -0.2970 -0.3282 -0.7581
 8189TIP3    H124500   2.187   4.462   5.344 -0.3083 -0.7942 -0.8634
 8189TIP3    H224501   2.301   4.528   5.269 -0.3613  1.7404  1.2086
 8190TIP3   OH224502   3.833   7.120   5.246  0.2643  0.5829  0.0510
 8190TIP3    H124503   3.811   7.062   5.173  2.7276 -0.7228  0.3046
 8190TIP3    H224504   3.805   7.207   5.217 -0.6269 -0.2368 -1.6088
 8191TIP3   OH224505   1.531   5.526   4.152 -0.4858  0.3072  0.3093
 8191TIP3    H124506   1.566   5.440   4.172 -1.8882 -0.0769  1.1945
 8191TIP3    H224507   1.571   5.585   4.215 -0.5297  0.0810  0.5459
 8192TIP3   OH224508   1.551   4.985   4.177 -0.2190 -0.5594  0.1766
 8192TIP3    H124509   1.561   5.015   4.086 -0.0546  1.0658  0.7210
 8192TIP3    H224510   1.463   5.014   4.202  0.1587 -0.0331  0.9011
 8193TIP3   OH224511   8.408   4.846   2.139 -0.2623 -0.1121 -0.2085
 8193TIP3    H124512   8.472   4.873   2.073  1.1755 -0.5601  0.9884
 8193TIP3    H224513   8.398   4.752   2.125 -0.3444 -0.1170 -0.1165
 8194TIP3   OH224514   2.450   5.048   3.255  0.3498  0.3590  0.1805
 8194TIP3    H124515   2.474   4.984   3.322  1.2631  1.5520  1.0100
 8194TIP3    H224516   2.509   5.030   3.182 -1.0358 -1.3269 -0.5748
 8195TIP3   OH224517   3.369   5.494   3.929  0.2409  0.7536  0.1640
 8195TIP3    H124518   3.457   5.456   3.926  0.6736  1.6588  1.1946
 8195TIP3    H224519   3.334   5.466   4.013 -1.0672 -0.9027 -0.8976
 8196TIP3   OH224520   1.066   4.284   2.494 -0.1377 -0.4075 -0.2034
 8196TIP3    H124521   1.041   4.192   2.493  0.4854 -0.5771 -2.2499
 8196TIP3    H224522   1.085   4.305   2.402  1.0892  1.3717  0.4224
 8197TIP3   OH224523   3.867   5.443   4.036 -0.3970 -0.3510  0.6970
 8197TIP3    H124524   3.818   5.471   4.113 -0.1252 -0.5159  0.9303
 8197TIP3    H224525   3.804   5.397   3.982 -0.5356 -0.4221  0.9215
 8198TIP3   OH224526   3.841   7.955   4.452  0.1471 -0.4101  0.2820
 8198TIP3    H124527   3.830   8.050   4.460  1.5437 -0.2711  0.7442
 8198TIP3    H224528   3.858   7.926   4.542 -1.4162 -1.2636  0.3085
 8199TIP3   OH224529   2.871   5.007   3.748 -0.3005 -0.3854 -0.3662
 8199TIP3    H124530   2.962   4.977   3.745 -0.4264 -0.9037  0.9487
 8199TIP3    H224531   2.865   5.059   3.827 -1.1307 -0.2820 -0.4913
 8200TIP3   OH224532   0.466   4.931   5.778  0.4900 -0.3776  0.4235
 8200TIP3    H124533   0.461   5.013   5.729 -0.6136 -1.3943 -1.1915
 8200TIP3    H224534   0.535   4.882   5.735 -0.6927 -1.3994 -0.3499
 8201TIP3   OH224535   5.257   6.073   3.436 -0.6048  0.4401 -0.2979
 8201TIP3    H124536   5.188   6.007   3.439 -1.1321  0.8836 -2.2064
 8201TIP3    H224537   5.337   6.023   3.420 -0.5036 -0.0371  1.5442
 8202TIP3   OH224538   1.331   4.500   5.255  0.4674  0.1374  0.0352
 8202TIP3    H124539   1.292   4.442   5.320  1.5154  0.3229  0.8264
 8202TIP3    H224540   1.329   4.449   5.174 -3.1859  0.8192 -0.4317
 8203TIP3   OH224541   2.959   6.467   2.372 -0.2055 -0.7102  0.2644
 8203TIP3    H124542   2.927   6.422   2.293  0.8185  1.1709 -1.2693
 8203TIP3    H224543   2.883   6.514   2.405  0.0039  0.7246 -1.2205
 8204TIP3   OH224544   1.255   4.493   3.668 -0.5853 -0.4552 -0.3884
 8204TIP3    H124545   1.191   4.449   3.723 -1.2533  0.0305 -0.7711
 8204TIP3    H224546   1.250   4.449   3.583 -0.7204 -0.1376 -0.5484
 8205TIP3   OH224547   3.474   7.659   4.473  0.0197 -0.3050 -0.0859
 8205TIP3    H124548   3.440   7.696   4.554  0.0750  0.7900 -0.5593
 8205TIP3    H224549   3.470   7.564   4.487 -1.1177 -0.1528  0.7262
 8206TIP3   OH224550   1.947   5.425   4.369 -0.4532  0.2745  0.5469
 8206TIP3    H124551   2.001   5.499   4.342  0.2666 -0.1308  0.8545
 8206TIP3    H224552   1.969   5.355   4.307 -0.3500 -0.0034  0.8927
 8207TIP3   OH224553   4.792   5.284   1.987  0.0485 -0.3170  0.2728
 8207TIP3    H124554   4.723   5.258   2.048 -0.6113 -2.3192 -1.2302
 8207TIP3    H224555   4.755   5.266   1.900  2.4455 -1.4970 -0.5708
 8208TIP3   OH224556   1.665   1.970   3.056  0.9525 -0.2704 -0.1271
 8208TIP3    H124557   1.574   1.945   3.039  0.7033 -0.4785  1.4980
 8208TIP3    H224558   1.694   2.010   2.973 -0.3551 -0.9255 -0.9205
 8209TIP3   OH224559   2.295   6.277   4.492 -0.2173  0.5805 -0.7433
 8209TIP3    H124560   2.311   6.320   4.576  0.8800 -1.0710 -0.0872
 8209TIP3    H224561   2.268   6.188   4.515  0.7189 -0.0876 -2.1326
 8210TIP3   OH224562   1.412   5.580   6.460 -0.1924  0.5560  0.3474
 8210TIP3    H124563   1.478   5.523   6.421 -0.4937  0.2135  0.3299
 8210TIP3    H224564   1.461   5.636   6.521  0.3566  1.4854 -0.9421
 8211TIP3   OH224565   6.132   0.074   3.922 -0.0290 -0.6219  0.2257
 8211TIP3    H124566   6.115   0.018   3.998 -0.8129 -1.0158 -0.2323
 8211TIP3    H224567   6.192   0.023   3.868  1.3431  0.0874  1.0648
 8212TIP3   OH224568   4.568   5.919   2.626  0.0277  0.3249 -0.5817
 8212TIP3    H124569   4.588   6.009   2.650 -1.4251  0.4424  0.2942
 8212TIP3    H224570   4.616   5.904   2.545  2.6679  0.8984  0.8526
 8213TIP3   OH224571   8.481   5.730   3.806  0.1728  0.3821 -0.5980
 8213TIP3    H124572   8.439   5.657   3.761  0.2418  0.3342 -0.5857
 8213TIP3    H224573   8.574   5.707   3.808  0.2706  0.7262 -1.0807
 8214TIP3   OH224574   1.495   5.614   2.676  0.4877  0.3228  0.4671
 8214TIP3    H124575   1.581   5.610   2.717  1.3706 -1.5612 -1.4550
 8214TIP3    H224576   1.495   5.695   2.625  0.7923  0.7678  1.1831
 8215TIP3   OH224577   4.555   0.217   2.432 -0.1636 -0.7232 -0.4050
 8215TIP3    H124578   4.476   0.238   2.381 -0.4006 -1.3555 -0.3070
 8215TIP3    H224579   4.550   0.275   2.508  0.2982  0.3713 -1.2000
 8216TIP3   OH224580   1.323   6.796   5.394  0.7357 -0.0083 -0.0961
 8216TIP3    H124581   1.368   6.816   5.476  0.6708 -1.5444  0.3149
 8216TIP3    H224582   1.392   6.787   5.329  0.6989  3.2556 -0.7017
 8217TIP3   OH224583   3.822   6.768   0.395 -0.2650 -0.1748  0.0014
 8217TIP3    H124584   3.851   6.687   0.438 -0.8857 -0.2922  0.2075
 8217TIP3    H224585   3.752   6.801   0.451 -0.1371  0.4177 -0.1793
 8218TIP3   OH224586   1.720   5.109   4.511 -0.2615  0.3086 -0.1230
 8218TIP3    H124587   1.779   5.173   4.550 -1.5711  1.2643  0.3433
 8218TIP3    H224588   1.775   5.033   4.492  1.7257  2.2174 -2.3493
 8219TIP3   OH224589   3.565   6.163   3.793  0.2998 -0.0291 -0.2291
 8219TIP3    H124590   3.475   6.135   3.774  0.5659 -0.2748 -1.1821
 8219TIP3    H224591   3.591   6.112   3.869 -0.0030 -0.7530 -0.6088
 8220TIP3   OH224592   1.559   3.011   6.651 -0.3673  0.1173  0.0622
 8220TIP3    H124593   1.510   2.949   6.596 -0.2482 -0.3956  0.5337
 8220TIP3    H224594   1.494   3.046   6.711 -0.4157  0.3898 -0.1462
 8221TIP3   OH224595   2.214   6.251   2.796  0.0473  0.1679  0.0541
 8221TIP3    H124596   2.199   6.161   2.824  0.5059 -0.3492 -1.2911
 8221TIP3    H224597   2.285   6.283   2.852  1.8555 -1.2743 -1.3406
 8222TIP3   OH224598   4.338   6.253   4.949  0.2717 -0.4250  0.1412
 8222TIP3    H124599   4.252   6.261   4.907  1.0685 -0.9546 -1.6435
 8222TIP3    H224600   4.361   6.161   4.938  0.7097 -0.4710  1.3736
 8223TIP3   OH224601   3.639   5.396   0.861  0.1227 -0.0104 -0.4038
 8223TIP3    H124602   3.716   5.372   0.913  0.8754  1.0702 -0.9816
 8223TIP3    H224603   3.579   5.435   0.924  0.5963  0.3320 -0.1562
 8224TIP3   OH224604   1.391   4.473   4.784  0.0949  0.1230  0.1118
 8224TIP3    H124605   1.454   4.413   4.743  0.2960  0.7633 -0.5294
 8224TIP3    H224606   1.333   4.499   4.712  0.0071  0.6947  0.3867
 8225TIP3   OH224607   2.246   4.499   6.810 -0.1151 -0.5158 -0.1959
 8225TIP3    H124608   2.324   4.474   6.760  0.4273 -0.7752  0.7869
 8225TIP3    H224609   2.223   4.420   6.859  0.8238  0.4952  1.9057
 8226TIP3   OH224610   7.109   5.435   2.776  0.4630  0.0719 -0.2232
 8226TIP3    H124611   7.087   5.521   2.740 -0.2854 -0.9120 -2.2522
 8226TIP3    H224612   7.031   5.410   2.826  0.8057  0.7101  0.6264
 8227TIP3   OH224613   1.698   4.241   3.982 -0.6196 -0.3831 -0.6876
 8227TIP3    H124614   1.707   4.323   3.933  1.1878 -0.3634 -0.3496
 8227TIP3    H224615   1.715   4.172   3.917 -0.5003 -0.4293 -0.6086
 8228TIP3   OH224616   3.552   5.762   2.865  0.0172  0.3256  0.1237
 8228TIP3    H124617   3.569   5.675   2.899  0.1945  0.1941 -0.2896
 8228TIP3    H224618   3.527   5.814   2.941  0.2100 -0.0111  0.4176
 8229TIP3   OH224619   1.746   5.124   3.568 -0.7225  0.1277  0.6708
 8229TIP3    H124620   1.738   5.217   3.548 -1.2284  0.0348  0.4354
 8229TIP3    H224621   1.698   5.080   3.498 -0.3331 -0.3191  0.6826
 8230TIP3   OH224622   2.863   4.932   2.489 -0.1510  0.3455 -0.2653
 8230TIP3    H124623   2.799   4.897   2.551 -0.6035  1.3249 -0.1511
 8230TIP3    H224624   2.861   4.871   2.415  0.2031 -0.6859  0.5689
 8231TIP3   OH224625   1.071   5.883   5.080 -0.2441 -0.2503  0.0545
 8231TIP3    H124626   1.038   5.805   5.125  0.8649  0.1516  1.6083
 8231TIP3    H224627   1.141   5.915   5.137  1.6994 -0.1364 -2.3080
 8232TIP3   OH224628   0.588   3.783   4.520  0.7078 -0.1270 -0.0041
 8232TIP3    H124629   0.617   3.873   4.533  1.4931 -0.1790 -1.3296
 8232TIP3    H224630   0.547   3.782   4.434 -0.9252 -0.6563  0.7352
 8233TIP3   OH224631   0.488   4.740   4.020  0.5012  0.2058  0.4810
 8233TIP3    H124632   0.507   4.647   4.007  0.3469  0.0698  1.2151
 8233TIP3    H224633   0.532   4.762   4.102  0.8020  0.8573  0.1420
 8234TIP3   OH224634   3.064   4.858   3.894  0.0759 -0.6309 -0.5387
 8234TIP3    H124635   3.082   4.927   3.958  0.3002 -0.6835 -0.5462
 8234TIP3    H224636   3.148   4.839   3.854 -0.1933 -0.0746 -1.3823
 8235TIP3   OH224637   2.160   4.129   3.832  0.3267  0.6827  0.7628
 8235TIP3    H124638   2.074   4.156   3.799  0.4626  0.6410  0.3646
 8235TIP3    H224639   2.194   4.071   3.763  0.9395  1.1933  0.6351
 8236TIP3   OH224640   1.250   6.765   5.779  0.2215 -0.2650  0.0191
 8236TIP3    H124641   1.268   6.738   5.869  0.1318 -1.7047 -0.3847
 8236TIP3    H224642   1.320   6.828   5.759 -0.0474  0.4407  1.2512
 8237TIP3   OH224643   0.204   5.807   4.266 -0.3315 -0.2368 -0.4914
 8237TIP3    H124644   0.278   5.845   4.218 -0.0541 -1.0416 -0.6997
 8237TIP3    H224645   0.133   5.870   4.253  0.6305  1.1340  0.6925
 8238TIP3   OH224646   0.984   5.442   4.560  0.1996 -0.3683 -0.0025
 8238TIP3    H124647   1.052   5.388   4.602 -0.0601  0.0016  0.8989
 8238TIP3    H224648   0.905   5.388   4.565 -0.2487  0.4290  1.6448
 8239TIP3   OH224649   0.883   5.196   4.248 -0.7503  0.2073 -0.6525
 8239TIP3    H124650   0.921   5.149   4.322 -0.6404  0.6877 -0.3993
 8239TIP3    H224651   0.947   5.264   4.227  0.2286 -1.2643 -2.5712
 8240TIP3   OH224652   2.678   5.055   5.724  0.4333 -0.4397 -0.0069
 8240TIP3    H124653   2.757   5.078   5.676 -0.8597  1.5677 -1.2711
 8240TIP3    H224654   2.679   5.112   5.801 -0.0289 -0.0085 -0.3120
 8241TIP3   OH224655   2.196   4.381   4.490 -0.1105  0.5800 -0.4986
 8241TIP3    H124656   2.269   4.441   4.475  3.1076 -2.0181  3.6207
 8241TIP3    H224657   2.181   4.384   4.584 -0.8991 -3.7699 -0.3801
 8242TIP3   OH224658   2.099   5.748   6.182 -0.1839 -0.4377 -0.7215
 8242TIP3    H124659   2.158   5.719   6.112  0.7116  1.1105 -0.6255
 8242TIP3    H224660   2.137   5.712   6.262 -0.2377 -0.7425 -0.8326
 8243TIP3   OH224661   0.722   3.903   4.978  0.6705  0.0661 -0.4128
 8243TIP3    H124662   0.768   3.986   4.986  1.2623 -0.2370 -0.6999
 8243TIP3    H224663   0.635   3.921   5.015  0.8399  0.7705 -0.3435
 8244TIP3   OH224664   0.424   5.424   3.112  0.3561  0.5257 -0.2921
 8244TIP3    H124665   0.400   5.516   3.117 -0.5198  0.2364  1.0436
 8244TIP3    H224666   0.500   5.415   3.170 -1.1134 -0.0572  1.6194
 8245TIP3   OH224667   1.700   4.189   5.325  0.0980 -0.3711  0.1631
 8245TIP3    H124668   1.664   4.154   5.406  1.5258  1.0137  1.4566
 8245TIP3    H224669   1.688   4.284   5.332 -1.0435 -0.3287 -1.9071
 8246TIP3   OH224670   2.260   3.583   4.656 -0.2436  0.3406  0.1628
 8246TIP3    H124671   2.251   3.659   4.599  1.1348  0.5863  0.2407
 8246TIP3    H224672   2.219   3.609   4.738 -2.2308 -0.0124 -0.7001
 8247TIP3   OH224673   2.739   3.832   3.893  0.3043  0.3196 -0.0218
 8247TIP3    H124674   2.746   3.900   3.960 -1.4114 -0.1709  0.6908
 8247TIP3    H224675   2.690   3.762   3.936 -0.2175 -0.2835 -1.5733
 8248TIP3   OH224676   2.632   4.442   4.472 -0.7075  0.0858  0.5419
 8248TIP3    H124677   2.720   4.479   4.470 -0.9989  0.7598  0.0967
 8248TIP3    H224678   2.600   4.450   4.382 -0.8974 -0.9617  0.5036
 8249TIP3   OH224679   2.490   4.665   2.771  0.2729  0.9106  0.0602
 8249TIP3    H124680   2.429   4.638   2.702  0.7255  0.1269 -0.0444
 8249TIP3    H224681   2.436   4.708   2.836 -0.3554  0.4573 -0.1602
 8250TIP3   OH224682   0.721   4.302   4.336  0.0031  0.7935  0.1053
 8250TIP3    H124683   0.762   4.361   4.273 -2.3399  1.5605 -0.7647
 8250TIP3    H224684   0.691   4.359   4.406 -1.1328  0.4882 -0.1252
 8251TIP3   OH224685   4.026   6.151   3.568 -0.2150 -0.8325 -0.6322
 8251TIP3    H124686   4.087   6.107   3.628 -0.9741 -0.4827  0.4166
 8251TIP3    H224687   3.995   6.227   3.617 -0.5320 -0.3032 -1.6353
 8252TIP3   OH224688   7.677   5.676   4.595  0.1412  0.1582 -0.3975
 8252TIP3    H124689   7.598   5.626   4.611 -0.0420  0.6560  0.2746
 8252TIP3    H224690   7.712   5.641   4.513  0.4719 -1.6353  0.4817
 8253TIP3   OH224691   5.377   0.290   3.567 -0.3377  0.0423  0.0900
 8253TIP3    H124692   5.467   0.257   3.566  0.0623  1.1078  0.0865
 8253TIP3    H224693   5.323   0.213   3.550  0.5960 -0.5314 -0.3353
 8254TIP3   OH224694   1.295   5.288   6.074  0.8817 -0.0454 -0.0127
 8254TIP3    H124695   1.223   5.257   6.019  1.2039 -0.9955  0.0904
 8254TIP3    H224696   1.252   5.330   6.149  0.4370 -0.2418 -0.1569
 8255TIP3   OH224697   1.382   4.817   5.286 -0.3057 -0.0272 -0.2021
 8255TIP3    H124698   1.384   4.857   5.374 -0.6545  2.4643 -1.2738
 8255TIP3    H224699   1.453   4.753   5.287  0.8648  1.2505  1.3338
 8256TIP3   OH224700   3.441   6.033   2.280 -0.1418 -0.1786  0.0938
 8256TIP3    H124701   3.530   6.047   2.312 -0.8177 -1.3358  2.5501
 8256TIP3    H224702   3.440   5.942   2.249 -0.4946 -0.2030  0.1718
 8257TIP3   OH224703   2.178   7.505   3.506 -0.4883  0.5103  0.0330
 8257TIP3    H124704   2.210   7.416   3.522 -0.8749  0.0858 -1.4694
 8257TIP3    H224705   2.257   7.556   3.486 -0.1956  0.6599  1.5412
 8258TIP3   OH224706   0.929   4.814   5.667  0.3139  0.4608  0.2951
 8258TIP3    H124707   0.834   4.804   5.673  0.1725  0.1170 -2.0761
 8258TIP3    H224708   0.943   4.870   5.590  2.1536 -2.9765 -2.0026
 8259TIP3   OH224709   1.064   5.970   5.520  0.8340  0.5800 -0.2465
 8259TIP3    H124710   1.137   5.991   5.578  1.0797  0.1402 -0.3964
 8259TIP3    H224711   1.049   6.050   5.470 -1.0600  1.8596  2.2079
 8260TIP3   OH224712   2.218   5.858   5.602 -0.3946  0.6107 -0.4293
 8260TIP3    H124713   2.277   5.930   5.578 -0.8426  1.0298 -0.2946
 8260TIP3    H224714   2.231   5.792   5.534  0.4883  0.5491 -0.2073
 8261TIP3   OH224715   3.225   7.470   2.847 -0.1105 -0.0153 -0.1317
 8261TIP3    H124716   3.236   7.432   2.760 -0.0397  0.8786 -0.5182
 8261TIP3    H224717   3.185   7.556   2.831  1.4113  0.8538  0.5848
 8262TIP3   OH224718   0.530   5.405   4.334 -0.1920 -0.4649 -0.6075
 8262TIP3    H124719   0.486   5.324   4.307 -0.0740 -0.8817  0.4365
 8262TIP3    H224720   0.550   5.392   4.427  3.6579 -1.0071 -1.4109
 8263TIP3   OH224721   2.561   6.208   4.661 -0.2006 -0.3363  0.3689
 8263TIP3    H124722   2.495   6.197   4.730 -1.5646 -0.7390 -0.9674
 8263TIP3    H224723   2.587   6.300   4.668 -0.2914 -0.3910  1.4568
 8264TIP3   OH224724   1.943   4.158   5.108  0.6948  0.3946  0.0916
 8264TIP3    H124725   1.890   4.207   5.172 -1.3931 -0.9819 -0.5265
 8264TIP3    H224726   1.883   4.140   5.036  2.1778 -0.7493 -0.8837
 8265TIP3   OH224727   1.272   6.052   5.254  0.3145 -0.5741  0.1890
 8265TIP3    H124728   1.317   6.007   5.326 -0.2274  0.1515  0.9924
 8265TIP3    H224729   1.206   6.106   5.298  0.0534 -0.0466 -0.8534
 8266TIP3   OH224730   3.458   6.294   4.475  0.2045  0.5961  0.2351
 8266TIP3    H124731   3.516   6.318   4.403 -1.8221  1.5730 -1.1283
 8266TIP3    H224732   3.498   6.217   4.514  1.4869  0.2086 -1.7745
 8267TIP3   OH224733   4.064   7.914   3.052 -0.4985  0.5296  0.1568
 8267TIP3    H124734   4.146   7.915   3.102  0.7118  0.4931 -1.7725
 8267TIP3    H224735   4.083   7.857   2.978 -2.3641  0.3446 -0.1805
 8268TIP3   OH224736   5.220   7.123   0.280  0.0037  0.4764 -0.2114
 8268TIP3    H124737   5.234   7.198   0.224  2.5642  0.7336  0.6749
 8268TIP3    H224738   5.210   7.160   0.368  0.0009 -0.1392  0.0518
 8269TIP3   OH224739   1.768   5.746   3.795 -0.1530 -0.2467  0.1760
 8269TIP3    H124740   1.801   5.816   3.738 -0.3029  0.1534  0.5811
 8269TIP3    H224741   1.673   5.752   3.788 -0.1701 -0.2272  0.4349
 8270TIP3   OH224742   1.615   5.977   5.422 -0.2014 -0.4190 -0.0887
 8270TIP3    H124743   1.636   5.887   5.449 -0.8255 -0.3096  0.7910
 8270TIP3    H224744   1.540   6.001   5.476  0.5280  0.9572  0.3358
 8271TIP3   OH224745   1.549   5.824   4.272  0.2719  0.1847 -0.2700
 8271TIP3    H124746   1.530   5.864   4.357 -0.0035 -1.0377  0.2527
 8271TIP3    H224747   1.617   5.759   4.290  1.1090  0.7764 -1.2087
 8272TIP3   OH224748   3.908   3.665   4.773 -0.6134 -0.0618  0.2393
 8272TIP3    H124749   3.920   3.708   4.688  0.0620 -2.7534 -1.0696
 8272TIP3    H224750   3.993   3.627   4.793 -0.9429  0.0168  1.8590
 8273TIP3   OH224751   1.427   5.000   5.975  0.7244  0.4278  0.1766
 8273TIP3    H124752   1.507   4.952   5.998  1.4243  1.6752  0.3700
 8273TIP3    H224753   1.458   5.072   5.920 -0.3780  0.3865 -0.5021
 8274TIP3   OH224754   0.172   5.950   3.027  0.0749  0.5914  0.5201
 8274TIP3    H124755   0.160   5.876   3.086  1.1317 -1.3971 -1.6977
 8274TIP3    H224756   0.203   6.021   3.084 -2.6819 -0.0680  2.9674
 8275TIP3   OH224757   1.513   3.654   5.359  0.1489 -0.0830  0.3388
 8275TIP3    H124758   1.561   3.646   5.277  0.6368 -0.6231  0.6782
 8275TIP3    H224759   1.543   3.738   5.396  1.1860 -0.6422  0.7776
 8276TIP3   OH224760   1.030   7.362   4.577 -0.0022 -0.4395  0.0082
 8276TIP3    H124761   1.022   7.445   4.625 -0.0673 -0.2909 -0.2564
 8276TIP3    H224762   1.043   7.296   4.645 -2.1756 -0.5200  0.3726
 8277TIP3   OH224763   0.017   4.119   5.907  0.4694  0.5860  0.0808
 8277TIP3    H124764   0.076   4.177   5.859 -0.2507 -0.2356 -1.8193
 8277TIP3    H224765   0.052   4.119   5.996  1.4432  2.6312 -0.2664
 8278TIP3   OH224766   1.508   5.710   4.628 -0.0340 -0.1645 -0.0813
 8278TIP3    H124767   1.462   5.665   4.556 -0.2090  0.5119 -0.3979
 8278TIP3    H224768   1.458   5.790   4.641 -0.3833 -0.5972  1.2471
 8279TIP3   OH224769   2.786   3.420   4.148 -0.2595 -0.7681  0.0689
 8279TIP3    H124770   2.748   3.499   4.188 -0.0090 -0.9036  0.5796
 8279TIP3    H224771   2.879   3.441   4.138 -0.1335 -1.1124  0.4948
 8280TIP3   OH224772   1.574   7.150   3.618  0.3964  0.2208  0.4949
 8280TIP3    H124773   1.607   7.239   3.605 -0.4706  0.5612  0.5850
 8280TIP3    H224774   1.508   7.138   3.549  2.1428 -1.1933 -0.9785
 8281TIP3   OH224775   0.705   4.918   4.914  0.2744  0.1018  0.1227
 8281TIP3    H124776   0.767   4.846   4.926 -0.5052 -0.1919  2.5786
 8281TIP3    H224777   0.628   4.893   4.964 -0.3269  2.2635  0.3411
 8282TIP3   OH224778   5.254   6.994   4.184  0.1170  0.0349  0.8306
 8282TIP3    H124779   5.298   7.076   4.161 -0.5269  0.3498  0.7123
 8282TIP3    H224780   5.161   7.015   4.180 -0.0364 -0.4556  1.7311
 8283TIP3   OH224781   1.792   5.388   3.471 -0.0882 -0.5782 -0.1377
 8283TIP3    H124782   1.754   5.476   3.478  1.3786 -0.0196  0.9356
 8283TIP3    H224783   1.867   5.398   3.412  2.1782 -0.3552  2.6708
 8284TIP3   OH224784   1.634   6.957   1.623 -0.0901 -0.1334 -0.6591
 8284TIP3    H124785   1.721   6.938   1.587  0.2031 -0.5823  0.2847
 8284TIP3    H224786   1.649   7.029   1.685 -0.3218 -0.5105 -0.1673
 8285TIP3   OH224787   0.339   4.188   3.315 -0.0386 -0.0053  0.3560
 8285TIP3    H124788   0.372   4.258   3.259 -0.5408 -0.4244 -0.4841
 8285TIP3    H224789   0.417   4.135   3.335  0.3526  0.8223  1.0550
 8286TIP3   OH224790   2.576   3.938   4.321 -0.7088 -0.1519  0.1942
 8286TIP3    H124791   2.508   3.995   4.357 -0.4447 -0.0449  0.5233
 8286TIP3    H224792   2.589   3.871   4.388  1.3336  1.2866  1.2930
 8287TIP3   OH224793   2.200   4.498   3.787  0.0285 -0.4621  0.8392
 8287TIP3    H124794   2.216   4.560   3.858 -2.6698 -0.1718  1.2548
 8287TIP3    H224795   2.279   4.444   3.783  0.5763  0.0991  3.4380
 8288TIP3   OH224796   1.070   4.842   4.310 -0.4414 -0.1428 -0.3369
 8288TIP3    H124797   0.999   4.791   4.270 -1.1750  1.4081 -1.0847
 8288TIP3    H224798   1.025   4.912   4.358  0.5581  0.3016 -0.0408
 8289TIP3   OH224799   0.191   6.708   3.859  0.1626 -0.1310 -0.2890
 8289TIP3    H124800   0.157   6.736   3.944  0.1780  0.5565 -0.5143
 8289TIP3    H224801   0.265   6.651   3.881 -0.6177 -0.9719  0.1825
 8290TIP3   OH224802   3.389   6.610   5.181  0.4524 -0.1158 -0.1605
 8290TIP3    H124803   3.439   6.597   5.101  0.4285 -0.5593 -0.1079
 8290TIP3    H224804   3.434   6.557   5.247 -0.1578 -0.6344 -0.1471
 8291TIP3   OH224805   1.297   5.123   3.128 -0.3847  0.7833 -0.6807
 8291TIP3    H124806   1.215   5.078   3.108 -0.1877  0.1817 -0.1708
 8291TIP3    H224807   1.364   5.072   3.081 -0.0778  0.1272  0.4459
 8292TIP3   OH224808   1.708   6.418   3.256 -0.0337 -0.0288  0.0364
 8292TIP3    H124809   1.708   6.473   3.178  1.6444  0.9885  0.7284
 8292TIP3    H224810   1.726   6.479   3.328  0.4381 -1.2699  0.9759
 8293TIP3   OH224811   3.654   4.882   2.280 -0.2879 -0.3844  0.1804
 8293TIP3    H124812   3.654   4.972   2.250  2.1493  0.5526  2.7510
 8293TIP3    H224813   3.747   4.859   2.286 -0.8539 -3.5800 -1.7997
 8294TIP3   OH224814   1.725   7.652   5.498  0.0476 -0.0841  0.2063
 8294TIP3    H124815   1.727   7.559   5.476  1.3856 -0.4657  1.8339
 8294TIP3    H224816   1.817   7.678   5.499 -0.2974  1.1257  0.2310
 8295TIP3   OH224817   1.719   5.892   3.456 -0.8131  0.0519 -0.0927
 8295TIP3    H124818   1.635   5.932   3.478 -0.2946  0.4808  1.1525
 8295TIP3    H224819   1.778   5.919   3.527  0.4008 -0.1616 -1.0017
 8296TIP3   OH224820   4.723   7.280   5.280 -0.4603  0.2601  0.0923
 8296TIP3    H124821   4.631   7.255   5.282 -0.7329  1.2661  0.6671
 8296TIP3    H224822   4.739   7.304   5.189 -0.9633  0.7853  0.1390
 8297TIP3   OH224823   1.934   6.334   5.231  0.0498  0.2500  0.2109
 8297TIP3    H124824   1.878   6.257   5.213  1.5278 -1.4137  2.4429
 8297TIP3    H224825   1.890   6.379   5.303 -0.3881  1.0714 -0.5596
 8298TIP3   OH224826   3.295   6.333   4.252  0.0079 -0.2910 -0.0335
 8298TIP3    H124827   3.299   6.348   4.346 -1.0327 -0.7428  0.0900
 8298TIP3    H224828   3.271   6.418   4.215  0.7204 -0.0380  0.0740
 8299TIP3   OH224829   1.741   4.968   5.085  0.4355  0.1714  0.7363
 8299TIP3    H124830   1.831   5.001   5.084  0.3635  0.3746 -1.3061
 8299TIP3    H224831   1.724   4.941   4.994 -2.0668  1.5008  0.7566
 8300TIP3   OH224832   2.426   5.106   3.903 -0.5285  0.1117 -0.3833
 8300TIP3    H124833   2.384   5.106   3.817 -0.2432  0.0736 -0.5215
 8300TIP3    H224834   2.414   5.017   3.935  1.8453 -0.6610 -1.5845
 8301TIP3   OH224835   1.247   6.139   5.919 -0.5242 -0.2083  0.0352
 8301TIP3    H124836   1.280   6.054   5.890  0.0310 -0.1117  0.3723
 8301TIP3    H224837   1.274   6.145   6.010 -0.3776  0.4203 -0.0499
 8302TIP3   OH224838   7.658   4.348   5.101 -0.1020 -0.4555  0.3357
 8302TIP3    H124839   7.716   4.346   5.177  0.0815 -1.5577  0.1781
 8302TIP3    H224840   7.605   4.268   5.110  2.5187 -2.6513 -2.7128
 8303TIP3   OH224841   1.735   7.638   3.892 -0.0986  0.1084  0.5921
 8303TIP3    H124842   1.812   7.624   3.947  1.0984 -0.2306 -1.0894
 8303TIP3    H224843   1.669   7.578   3.927  0.1366  0.9565  2.5310
 8304TIP3   OH224844   0.431   7.284   2.494 -0.1717  0.2845  0.4958
 8304TIP3    H124845   0.366   7.219   2.520 -0.5920 -0.1943 -1.6400
 8304TIP3    H224846   0.479   7.243   2.422 -0.3953  2.2971 -0.8382
 8305TIP3   OH224847   2.026   3.901   5.636  0.3750 -0.0554  0.0938
 8305TIP3    H124848   1.993   3.814   5.658 -0.7019  0.4062  0.3527
 8305TIP3    H224849   2.121   3.891   5.634  0.3086 -0.9647  1.2212
 8306TIP3   OH224850   8.212   5.780   2.444  0.0599 -0.3947 -0.2566
 8306TIP3    H124851   8.272   5.847   2.411  1.0187 -0.7073  0.8204
 8306TIP3    H224852   8.219   5.709   2.381 -0.0279  0.0248 -0.7404
 8307TIP3   OH224853   2.021   6.058   4.982 -0.3467 -0.3832 -0.4764
 8307TIP3    H124854   2.100   6.035   4.933  0.6139 -0.9696  1.3244
 8307TIP3    H224855   2.021   5.999   5.057 -2.4355 -0.2887 -0.3742
 8308TIP3   OH224856   4.019   6.553   4.105 -0.1855  0.4440 -0.2563
 8308TIP3    H124857   3.963   6.490   4.061 -0.5970 -0.4945  1.5954
 8308TIP3    H224858   4.084   6.500   4.151 -0.6990  1.3237  1.5500
 8309TIP3   OH224859   4.766   6.993   5.093 -0.1776  0.3721 -0.2147
 8309TIP3    H124860   4.801   6.905   5.105  0.3321  0.7949  1.4782
 8309TIP3    H224861   4.687   6.995   5.147 -0.3549  0.8657 -0.4869
 8310TIP3   OH224862   1.648   4.510   5.327  0.3309 -0.4279 -0.0997
 8310TIP3    H124863   1.633   4.549   5.413  1.7782 -0.6678  0.2753
 8310TIP3    H224864   1.564   4.519   5.282  0.3911  2.4121  0.2482
 8311TIP3   OH224865   3.075   6.936   5.381 -0.6279 -0.2376  0.3982
 8311TIP3    H124866   3.001   6.945   5.321  0.3975  2.2396 -0.5480
 8311TIP3    H224867   3.148   6.907   5.325 -0.1315  0.2973  0.7605
 8312TIP3   OH224868   5.629   0.090   5.011  0.1888  0.5230  0.2032
 8312TIP3    H124869   5.561   0.030   5.042  0.5171  0.3204  0.5245
 8312TIP3    H224870   5.669   0.124   5.091  0.1415  1.0170  0.0206
 8313TIP3   OH224871   3.002   5.378   5.798  0.7165  0.1681 -0.0545
 8313TIP3    H124872   2.986   5.447   5.863 -0.8489  1.4703 -1.7873
 8313TIP3    H224873   3.017   5.424   5.716  3.6653 -1.4424 -0.4827
 8314TIP3   OH224874   1.353   5.169   5.448  0.8815 -0.0505 -0.0914
 8314TIP3    H124875   1.417   5.099   5.462  0.6840  0.0569  1.4137
 8314TIP3    H224876   1.404   5.250   5.450  0.8870 -0.0480 -0.2855
 8315TIP3   OH224877   1.316   4.303   6.845  0.6208 -0.0870  0.4560
 8315TIP3    H124878   1.282   4.295   6.935  2.2720  2.2298  1.3396
 8315TIP3    H224879   1.293   4.220   6.803 -1.4767 -0.6389  2.5729
 8316TIP3   OH224880   0.901   2.956   4.968  0.1522 -0.2476 -0.1601
 8316TIP3    H124881   0.972   2.932   5.027  0.9592  0.2018 -0.9377
 8316TIP3    H224882   0.855   3.027   5.012 -1.1238 -1.9397  1.3128
 8317TIP3   OH224883   1.002   5.180   3.541  0.0486  0.0983  0.2243
 8317TIP3    H124884   0.944   5.128   3.596  2.3162  0.0582  2.7215
 8317TIP3    H224885   1.089   5.141   3.554  1.2333  2.3766 -0.5226
 8318TIP3   OH224886   2.747   7.035   2.650 -0.1417  0.4398  0.7920
 8318TIP3    H124887   2.824   7.044   2.593 -0.2684 -0.1989  0.5147
 8318TIP3    H224888   2.778   6.981   2.723 -0.8914 -1.7100 -0.4156
 8319TIP3   OH224889   1.190   5.026   4.073 -0.1455 -0.0735  0.5292
 8319TIP3    H124890   1.138   4.961   4.121 -0.6015 -0.0875  0.0267
 8319TIP3    H224891   1.125   5.090   4.044  0.0099 -0.4725 -0.7349
 8320TIP3   OH224892   2.589   6.705   3.379 -0.1163  0.2551 -0.0065
 8320TIP3    H124893   2.611   6.794   3.407 -1.8481 -0.1433  2.7689
 8320TIP3    H224894   2.640   6.649   3.436  0.8574 -0.5704 -1.6565
 8321TIP3   OH224895   4.870   6.919   2.634 -0.0013 -0.4730  0.2401
 8321TIP3    H124896   4.953   6.958   2.659  0.0296 -1.5475  1.8900
 8321TIP3    H224897   4.815   6.925   2.713 -0.7076 -1.7948 -0.1331
 8322TIP3   OH224898   2.400   7.895   2.672  0.2577  0.6895 -0.2234
 8322TIP3    H124899   2.321   7.947   2.657 -1.0071 -0.9187  0.6855
 8322TIP3    H224900   2.408   7.841   2.594  1.2298  1.7830 -0.8995
 8323TIP3   OH224901   4.154   6.987   6.143  0.3101 -0.4810 -0.3834
 8323TIP3    H124902   4.225   7.013   6.084  0.8278 -0.7368  0.1241
 8323TIP3    H224903   4.142   6.894   6.127  2.9823 -1.4336  2.5239
 8324TIP3   OH224904   0.071   2.085   0.082 -0.1880  0.3571 -0.0182
 8324TIP3    H124905  -0.012   2.059   0.043  0.5774 -1.7483 -0.2800
 8324TIP3    H224906   0.076   2.179   0.066 -3.1198  0.7730  1.1413
 8325TIP3   OH224907   1.195   5.015   5.293 -0.0939 -0.2674 -0.1652
 8325TIP3    H124908   1.257   5.076   5.333  0.6969 -0.8180 -0.5624
 8325TIP3    H224909   1.247   4.939   5.269 -1.2115 -1.4413  1.0152
 8326TIP3   OH224910   3.863   5.960   2.690  0.0073  0.2330  0.2340
 8326TIP3    H124911   3.795   5.998   2.746  0.7099 -0.2318  1.4324
 8326TIP3    H224912   3.826   5.877   2.660 -0.3577  0.4609  0.0563
 8327TIP3   OH224913   1.699   3.445   4.437 -0.5014 -0.3785 -0.2849
 8327TIP3    H124914   1.607   3.439   4.464 -1.8412  3.5506 -3.4843
 8327TIP3    H224915   1.735   3.513   4.493  0.5139 -1.9125  0.9586
 8328TIP3   OH224916   3.304   5.995   5.910  0.0234  0.0996  0.2586
 8328TIP3    H124917   3.282   5.922   5.968 -0.1725  0.5056  0.6919
 8328TIP3    H224918   3.386   5.968   5.868  0.4597  0.0503  1.1362
 8329TIP3   OH224919   3.200   4.974   2.908 -1.0060 -0.2354  0.0450
 8329TIP3    H124920   3.214   5.064   2.879  1.4248 -0.8337 -0.7409
 8329TIP3    H224921   3.140   4.938   2.843 -0.0115  0.0964 -1.0769
 8330TIP3   OH224922   3.461   0.083   2.506 -0.5689 -0.2724  0.0561
 8330TIP3    H124923   3.499   0.125   2.583 -0.4026 -1.0647  0.4074
 8330TIP3    H224924   3.473   0.147   2.436  1.1276 -0.3845  0.2380
 8331TIP3   OH224925   2.681   2.788   2.967  0.1610  0.0019 -0.2033
 8331TIP3    H124926   2.694   2.712   2.910  1.2165  0.6935 -0.9149
 8331TIP3    H224927   2.760   2.841   2.955  0.9042 -0.3467  2.7361
 8332TIP3   OH224928   1.387   4.681   6.937  0.0282 -0.1799  0.6849
 8332TIP3    H124929   1.425   4.627   6.868  0.0121 -1.5547  1.7461
 8332TIP3    H224930   1.452   4.749   6.952 -0.3234  0.6244 -1.2398
 8333TIP3   OH224931   1.471   5.249   4.602 -0.2367 -0.3376 -0.1442
 8333TIP3    H124932   1.516   5.324   4.563  0.8856 -1.0351 -0.2226
 8333TIP3    H224933   1.534   5.177   4.595 -1.3200 -1.3065 -0.1416
 8334TIP3   OH224934   3.301   6.794   4.916  0.8468 -0.1749 -0.0733
 8334TIP3    H124935   3.223   6.761   4.959  0.4522  0.7656 -0.0722
 8334TIP3    H224936   3.367   6.726   4.932  0.2649 -0.5850  0.6225
 8335TIP3   OH224937   2.528   4.063   2.779  0.3295 -0.0634  0.1622
 8335TIP3    H124938   2.479   4.052   2.861  0.8401  1.4241  0.6969
 8335TIP3    H224939   2.608   4.109   2.806  0.8287 -0.2012 -1.0720
 8336TIP3   OH224940   3.065   5.553   1.501  0.3607 -0.6196  0.2139
 8336TIP3    H124941   2.974   5.552   1.471  0.3734  0.1806  0.1392
 8336TIP3    H224942   3.116   5.566   1.421  0.6830 -3.0927 -0.0427
 8337TIP3   OH224943   2.417   4.635   5.857 -0.7191  0.5692 -0.0377
 8337TIP3    H124944   2.492   4.693   5.870 -1.4964  1.6680 -0.3678
 8337TIP3    H224945   2.402   4.635   5.763 -0.2967 -0.7296 -0.1153
 8338TIP3   OH224946   3.125   7.426   3.538  0.8448  0.0955  0.1952
 8338TIP3    H124947   3.082   7.341   3.540 -0.0095  0.5240  0.0812
 8338TIP3    H224948   3.095   7.471   3.617 -0.4832  1.1434 -0.8597
 8339TIP3   OH224949   1.138   4.506   6.070 -0.3313  0.3448 -0.5182
 8339TIP3    H124950   1.068   4.451   6.107 -0.1123  0.8860  0.7301
 8339TIP3    H224951   1.111   4.520   5.980 -1.9689  0.7188 -0.0025
 8340TIP3   OH224952   2.328   5.018   6.851 -0.3025  0.6561 -0.0470
 8340TIP3    H124953   2.269   4.945   6.868  0.6777  0.2225  1.5261
 8340TIP3    H224954   2.389   4.985   6.785 -0.7245  0.5385 -0.3826
 8341TIP3   OH224955   0.666   7.008   5.307 -0.1830  0.6751  0.4568
 8341TIP3    H124956   0.642   7.090   5.350 -2.3546 -0.4168  1.3942
 8341TIP3    H224957   0.694   6.950   5.379 -0.4865 -0.0309  0.0145
 8342TIP3   OH224958   1.393   5.149   3.945 -0.2710  0.2356 -0.3391
 8342TIP3    H124959   1.334   5.088   3.989  1.1010  0.2750  1.5852
 8342TIP3    H224960   1.347   5.232   3.946 -0.6359  0.0302  0.2238
 8343TIP3   OH224961   0.217   3.996   4.649  0.1052 -0.0592  0.4519
 8343TIP3    H124962   0.197   3.920   4.594  1.1986 -0.5261  0.6770
 8343TIP3    H224963   0.238   3.958   4.734 -0.5343  0.5870  0.8899
 8344TIP3   OH224964   4.567   7.015   5.283  0.6339  0.3300 -0.4349
 8344TIP3    H124965   4.583   6.990   5.374  3.4973 -0.8826 -1.2320
 8344TIP3    H224966   4.481   7.058   5.286  0.9899  1.0067  2.9419
 8345TIP3   OH224967   1.855   4.298   2.979  0.0706 -0.3090  0.5802
 8345TIP3    H124968   1.919   4.321   3.046  0.7699  0.9646 -0.5054
 8345TIP3    H224969   1.774   4.283   3.027  0.5587  0.5992  1.6988
 8346TIP3   OH224970   0.831   4.483   3.645  0.0713  0.2013 -0.1555
 8346TIP3    H124971   0.798   4.568   3.675  2.5932  1.4454 -0.7862
 8346TIP3    H224972   0.867   4.501   3.558 -0.7967 -1.8817 -0.9852
 8347TIP3   OH224973   0.707   5.371   4.077  0.1268 -0.2126  0.1638
 8347TIP3    H124974   0.625   5.420   4.086  1.3573  1.7904  0.7658
 8347TIP3    H224975   0.721   5.331   4.163 -1.5712 -2.8012 -0.7153
 8348TIP3   OH224976   0.444   1.690   0.032 -0.2251  0.1797 -0.5233
 8348TIP3    H124977   0.430   1.742  -0.047 -1.0231  1.3220  0.3687
 8348TIP3    H224978   0.356   1.679   0.070  0.2850  0.5982  0.8091
 8349TIP3   OH224979   1.921   5.882   5.636  0.0343  0.5720 -0.1198
 8349TIP3    H124980   1.980   5.810   5.657  0.0789  0.1364 -1.6735
 8349TIP3    H224981   1.845   5.869   5.693  0.2926 -0.3602  0.0191
 8350TIP3   OH224982   3.122   5.313   4.069  0.0637  0.5037 -0.3180
 8350TIP3    H124983   3.102   5.406   4.059  0.7585  0.6291 -0.6326
 8350TIP3    H224984   3.128   5.300   4.164  0.7713  0.9648 -0.2959
 8351TIP3   OH224985   0.834   6.189   4.019  0.0352  0.3577  0.4141
 8351TIP3    H124986   0.882   6.194   4.101 -2.3163  1.3654  1.7746
 8351TIP3    H224987   0.743   6.209   4.042 -0.4043  2.3952 -2.6890
 8352TIP3   OH224988   8.182   5.794   4.147 -0.2548  0.1304  0.2146
 8352TIP3    H124989   8.169   5.889   4.150 -0.4763  0.1236 -0.3992
 8352TIP3    H224990   8.268   5.783   4.107 -0.9308  0.0396 -1.2342
 8353TIP3   OH224991   3.099   6.597   3.878 -0.0762  0.0271  0.4765
 8353TIP3    H124992   3.112   6.690   3.899 -1.3053  0.4057 -0.3319
 8353TIP3    H224993   3.184   6.567   3.846  0.7704  0.4488  2.2871
 8354TIP3   OH224994   6.102   0.474   4.560 -0.2401 -0.0624 -0.8741
 8354TIP3    H124995   6.121   0.386   4.591  0.2125  0.1437 -0.5747
 8354TIP3    H224996   6.177   0.526   4.586  0.4237  0.0004 -2.8051
 8355TIP3   OH224997   2.806   7.100   5.008 -0.3089  0.1825  0.4513
 8355TIP3    H124998   2.859   7.137   4.937 -1.2507  0.2525 -0.2383
 8355TIP3    H224999   2.751   7.173   5.037  0.4679  0.2987  1.6399
 8356TIP3   OH225000   1.985   6.919   3.864  0.5575 -0.1719  0.3208
 8356TIP3    H125001   2.040   6.996   3.871 -0.5044  0.5641  0.6603
 8356TIP3    H225002   2.041   6.853   3.822  0.9851  1.2476 -1.3921
 8357TIP3   OH225003   1.818   2.926   3.946 -0.9868  0.4990  0.0851
 8357TIP3    H125004   1.731   2.938   3.983 -1.1316  1.1632 -0.4483
 8357TIP3    H225005   1.867   2.877   4.012 -1.9688 -0.4614  0.0984
 8358TIP3   OH225006   2.366   6.102   2.474  0.5786  0.2480  0.2809
 8358TIP3    H125007   2.349   6.053   2.555 -1.0076 -0.4746 -0.4550
 8358TIP3    H225008   2.280   6.108   2.431  1.3133  1.0089 -1.1301
 8359TIP3   OH225009   0.461   6.864   4.721  0.2493 -0.8069  0.3727
 8359TIP3    H125010   0.533   6.846   4.782  1.5017 -0.6731 -1.0367
 8359TIP3    H225011   0.472   6.801   4.650 -0.8082 -0.5304 -0.0532
 8360TIP3   OH225012   1.969   6.456   4.367  0.2602 -0.4965  0.0470
 8360TIP3    H125013   1.894   6.406   4.400  1.0134  0.0193  2.6501
 8360TIP3    H225014   1.955   6.460   4.272 -2.6315 -0.9945  0.3992
 8361TIP3   OH225015   1.986   3.398   4.674 -0.2056 -0.0096 -0.2904
 8361TIP3    H125016   1.982   3.466   4.742 -1.2768 -0.0077 -0.3452
 8361TIP3    H225017   1.920   3.425   4.610 -0.9284 -1.3204 -0.1103
 8362TIP3   OH225018   2.599   4.236   5.715  0.2221  0.2545  0.0154
 8362TIP3    H125019   2.521   4.220   5.663  0.5153  0.9615 -0.6585
 8362TIP3    H225020   2.623   4.150   5.750 -0.8796  0.0455  0.2765
 8363TIP3   OH225021   1.986   4.326   3.695 -0.3793 -0.9050  0.1209
 8363TIP3    H125022   1.905   4.375   3.712  0.2117  0.1772 -0.1723
 8363TIP3    H225023   2.056   4.388   3.713  0.3615 -1.1685 -1.7511
 8364TIP3   OH225024   4.007   4.766   5.568  0.5085 -0.2600 -0.5392
 8364TIP3    H125025   3.942   4.837   5.572  3.8129  2.8998 -0.8943
 8364TIP3    H225026   3.998   4.721   5.652 -1.9697  0.2840 -0.4711
 8365TIP3   OH225027   2.570   6.284   2.612 -0.4354 -0.1580  0.3215
 8365TIP3    H125028   2.507   6.227   2.569 -0.0309 -0.8709  0.6618
 8365TIP3    H225029   2.523   6.318   2.688 -1.3296  1.5314 -0.9641
 8366TIP3   OH225030   0.073   4.161   4.834 -0.1605  0.2615  0.1725
 8366TIP3    H125031   0.024   4.089   4.875  0.1514 -0.9927 -1.5790
 8366TIP3    H225032   0.134   4.117   4.775  0.9805  1.9338  0.0861
 8367TIP3   OH225033   1.457   3.786   4.964 -0.3486 -0.3955  0.2532
 8367TIP3    H125034   1.450   3.823   4.876 -0.1166  0.0847  0.4327
 8367TIP3    H225035   1.402   3.843   5.018  0.0756 -0.2605  0.5471
 8368TIP3   OH225036   1.340   5.575   4.440 -0.0788  0.5838  0.3229
 8368TIP3    H125037   1.349   5.530   4.356 -1.1958  0.5487  0.2113
 8368TIP3    H225038   1.249   5.604   4.441 -0.7053 -1.4098  2.5524
 8369TIP3   OH225039   4.056   5.597   2.939 -0.1555 -0.4123 -0.2039
 8369TIP3    H125040   4.089   5.507   2.930  0.0059 -0.3298 -0.4335
 8369TIP3    H225041   4.132   5.652   2.918 -0.0753 -0.2225  0.5854
 8370TIP3   OH225042   1.096   6.592   3.284 -0.7354 -0.8449  0.2526
 8370TIP3    H125043   1.189   6.604   3.266 -1.5193  0.7913 -3.1165
 8370TIP3    H225044   1.078   6.501   3.260 -0.8762  0.1296 -3.8009
 8371TIP3   OH225045   2.248   4.485   2.486  0.5261 -0.9613  0.4001
 8371TIP3    H125046   2.258   4.398   2.448  1.0193 -0.0068 -1.7229
 8371TIP3    H225047   2.244   4.544   2.411  0.9103  0.9233  1.8184
 8372TIP3   OH225048   0.623   4.529   4.956  0.0426 -0.7516  0.1988
 8372TIP3    H125049   0.635   4.581   4.877  0.3913  1.0789  1.4292
 8372TIP3    H225050   0.534   4.494   4.948 -0.3826  0.4299 -0.4194
 8373TIP3   OH225051   1.360   5.973   1.832 -0.8311  0.1178 -0.2250
 8373TIP3    H125052   1.281   6.027   1.824 -0.1801  0.9967 -0.8422
 8373TIP3    H225053   1.413   5.998   1.756  0.7353  0.6861  1.0380
 8374TIP3   OH225054   2.459   5.296   4.614 -0.1732 -0.0571 -0.1434
 8374TIP3    H125055   2.389   5.263   4.671  0.8614 -1.2609  0.4687
 8374TIP3    H225056   2.450   5.247   4.533  1.0624 -1.5757  0.5927
 8375TIP3   OH225057   8.260   5.270   5.100  0.4389 -0.4318  0.1252
 8375TIP3    H125058   8.257   5.320   5.182 -1.6040  0.0428 -0.2211
 8375TIP3    H225059   8.273   5.180   5.128 -2.2072 -0.5545  1.1096
 8376TIP3   OH225060   0.821   0.427   0.617  0.5457 -0.3556 -0.0027
 8376TIP3    H125061   0.820   0.522   0.628 -0.8767 -0.3417 -0.1368
 8376TIP3    H225062   0.823   0.392   0.706 -2.5871 -0.1995  0.1828
 8377TIP3   OH225063   8.154   4.759   4.997 -0.5360 -0.3757  0.1791
 8377TIP3    H125064   8.170   4.848   4.965 -1.2279  0.1489  1.2731
 8377TIP3    H225065   8.241   4.726   5.018 -0.3250  0.2569  0.3269
 8378TIP3   OH225066   3.560   5.258   5.137  0.2021  0.3495  0.1190
 8378TIP3    H125067   3.544   5.325   5.070 -2.3819 -0.4845 -0.1729
 8378TIP3    H225068   3.515   5.291   5.215  0.6456 -0.1095  0.5738
 8379TIP3   OH225069   1.474   6.885   4.695  0.0733 -0.2859 -0.2822
 8379TIP3    H125070   1.501   6.938   4.620  0.0374  1.1730  0.7372
 8379TIP3    H225071   1.556   6.854   4.733  0.1102 -0.5184 -0.5445
 8380TIP3   OH225072   4.433   7.196   3.616 -0.1372 -0.1154  0.8050
 8380TIP3    H125073   4.436   7.292   3.612  2.1092 -0.2093 -0.0340
 8380TIP3    H225074   4.434   7.176   3.710 -0.0621  0.6581  0.9731
 8381TIP3   OH225075   5.131   6.538   4.510 -0.4660  0.1420 -0.7870
 8381TIP3    H125076   5.146   6.609   4.448  0.6547  1.3569  0.8645
 8381TIP3    H225077   5.217   6.501   4.526 -0.7237 -0.0534  0.1808
 8382TIP3   OH225078   1.976   5.725   5.383 -0.0951  0.6955  0.2923
 8382TIP3    H125079   1.965   5.814   5.415  0.5855  1.3884 -1.3453
 8382TIP3    H225080   2.059   5.695   5.421 -1.5763 -0.1885  2.9146
 8383TIP3   OH225081   3.001   6.378   2.666 -0.2189  0.2801 -0.1158
 8383TIP3    H125082   3.030   6.424   2.745 -0.2783  0.4855 -0.2129
 8383TIP3    H225083   2.965   6.447   2.610 -0.7501  0.0476 -0.0606
 8384TIP3   OH225084   3.187   4.475   4.418  0.2174 -0.5073 -0.1461
 8384TIP3    H125085   3.246   4.534   4.464 -1.3543  0.7951  0.2506
 8384TIP3    H225086   3.230   4.389   4.423  2.6267  0.6288 -0.9218
 8385TIP3   OH225087   3.355   5.755   3.876  0.2833  0.4406  0.3813
 8385TIP3    H125088   3.292   5.768   3.947 -1.3652  1.3301 -1.2292
 8385TIP3    H225089   3.363   5.659   3.868 -1.0071  0.3294  0.4533
 8386TIP3   OH225090   2.900   5.355   4.405  0.3773 -0.4853 -0.2129
 8386TIP3    H125091   2.964   5.425   4.419  0.3664 -0.3482 -0.8428
 8386TIP3    H225092   2.819   5.388   4.444  0.3136 -0.0537 -0.7096
 8387TIP3   OH225093   4.046   6.994   3.248  0.9550  0.5817  0.2739
 8387TIP3    H125094   4.065   7.087   3.265  0.5248  0.3656  2.0169
 8387TIP3    H225095   3.998   6.965   3.326 -1.2584 -0.4279 -1.4255
 8388TIP3   OH225096   6.542   0.023   4.217 -0.3535  0.0391  0.1502
 8388TIP3    H125097   6.635  -0.000   4.218 -0.1323  0.9425  0.9464
 8388TIP3    H225098   6.517   0.025   4.309 -0.8208  1.1407  0.0003
 8389TIP3   OH225099   5.698   4.885   3.956 -0.4758  0.5327  0.4365
 8389TIP3    H125100   5.755   4.939   4.012 -0.5231 -0.6547  1.6522
 8389TIP3    H225101   5.747   4.875   3.875  0.9700 -0.2625  1.3745
 8390TIP3   OH225102   1.965   5.728   3.973  0.1901 -0.1823 -0.2409
 8390TIP3    H125103   1.987   5.820   3.965 -1.1412  0.1550 -0.0708
 8390TIP3    H225104   1.892   5.715   3.912 -0.3601 -0.8595  0.5466
 8391TIP3   OH225105   3.892   5.867   2.365 -0.0598  0.0899  0.2550
 8391TIP3    H125106   3.893   5.785   2.415  0.3669 -0.0267  0.0568
 8391TIP3    H225107   3.983   5.897   2.366 -0.1034  0.2394 -0.2092
 8392TIP3   OH225108   5.769   6.258   2.565  0.0145  0.2113 -0.1261
 8392TIP3    H125109   5.749   6.313   2.490  0.7787  1.3649  0.5118
 8392TIP3    H225110   5.841   6.202   2.535  2.0868  2.4358  0.5297
 8393TIP3   OH225111   4.733   5.388   0.577 -0.7778  0.3717  0.3062
 8393TIP3    H125112   4.770   5.408   0.664  1.8821 -1.8466 -0.2370
 8393TIP3    H225113   4.649   5.345   0.596  0.3862 -1.2913  1.8705
 8394TIP3   OH225114   4.237   6.795   5.388  0.4191  0.0531 -0.2718
 8394TIP3    H125115   4.167   6.771   5.328 -0.5080  1.0964  0.3750
 8394TIP3    H225116   4.274   6.711   5.416 -0.3029 -0.4891 -0.9279
 8395TIP3   OH225117   2.816   5.551   1.631 -0.6785  0.6556 -0.6080
 8395TIP3    H125118   2.769   5.537   1.713 -1.4219 -1.4920 -1.3627
 8395TIP3    H225119   2.890   5.606   1.654 -0.8185 -0.0130  1.5226
 8396TIP3   OH225120   3.797   7.280   4.717  0.3306 -0.6635 -0.3651
 8396TIP3    H125121   3.840   7.364   4.733 -2.3904  0.9803 -1.4715
 8396TIP3    H225122   3.773   7.249   4.804  1.4640 -0.3961  0.0601
 8397TIP3   OH225123   3.819   7.650   4.762 -0.2529 -0.6752 -0.1327
 8397TIP3    H125124   3.837   7.739   4.791  2.0629 -0.8683 -0.8474
 8397TIP3    H225125   3.854   7.646   4.673 -1.4000 -1.9516 -0.5394
 8398TIP3   OH225126   4.115   6.065   1.975 -0.1961 -0.1559  0.3184
 8398TIP3    H125127   4.039   6.023   2.016 -1.6706 -0.9225 -3.0833
 8398TIP3    H225128   4.152   5.997   1.918  0.3020  1.6457 -1.5436
 8399TIP3   OH225129   6.571   5.504   3.623 -0.7820  0.1687  0.0652
 8399TIP3    H125130   6.481   5.472   3.636 -0.5002 -0.7422 -0.1403
 8399TIP3    H225131   6.587   5.491   3.530  0.5531 -2.3798  0.5985
 8400TIP3   OH225132   2.734   5.040   4.221  0.0248 -0.1841 -0.0359
 8400TIP3    H125133   2.809   5.085   4.259 -0.5289 -0.3867  1.3125
 8400TIP3    H225134   2.724   4.961   4.274 -1.7366  0.3292  0.4222
 8401TIP3   OH225135   1.108   5.250   3.951  0.1126  0.2300 -0.2806
 8401TIP3    H125136   1.013   5.256   3.951 -0.1503 -2.7896 -1.9521
 8401TIP3    H225137   1.135   5.297   3.872  0.1903  2.7324  1.1973
 8402TIP3   OH225138   2.771   4.782   3.250  0.5105  0.1280 -0.1997
 8402TIP3    H125139   2.858   4.741   3.253 -0.4378 -1.8129  2.2332
 8402TIP3    H225140   2.763   4.827   3.333 -0.6979  0.5586 -0.5459
 8403TIP3   OH225141   4.353   7.509   4.452 -0.2730  0.4045 -0.5692
 8403TIP3    H125142   4.408   7.497   4.375 -0.8361 -1.0294 -0.7795
 8403TIP3    H225143   4.274   7.551   4.419 -0.0648  0.7790 -0.5891
 8404TIP3   OH225144   4.735   6.696   3.407  0.1998  0.1909 -0.2474
 8404TIP3    H125145   4.743   6.627   3.341 -0.6722 -1.1361  0.9977
 8404TIP3    H225146   4.810   6.682   3.465  0.3770  0.6993 -0.3513
 8405TIP3   OH225147   5.236   7.342   3.925  0.0211 -0.2118  0.4096
 8405TIP3    H125148   5.169   7.277   3.903  1.2373 -0.9285 -1.2498
 8405TIP3    H225149   5.193   7.427   3.910 -0.5801 -0.6558 -0.3960
 8406TIP3   OH225150   3.892   5.718   1.411  0.1998 -0.3186  0.2958
 8406TIP3    H125151   3.821   5.780   1.425 -1.4816 -2.4393  1.3145
 8406TIP3    H225152   3.952   5.732   1.485 -0.0794  0.1784  0.4298
 8407TIP3   OH225153   4.391   7.463   3.643  0.1472  0.6514 -0.8678
 8407TIP3    H125154   4.301   7.473   3.676 -0.6431  0.7856 -2.9883
 8407TIP3    H225155   4.434   7.545   3.665 -0.2815  0.6323  0.0680
 8408TIP3   OH225156   4.183   7.375   2.506  0.3617  0.4386 -0.1615
 8408TIP3    H125157   4.278   7.371   2.513  0.7005  0.0943 -3.7847
 8408TIP3    H225158   4.158   7.454   2.553  2.5449  1.0161  0.0583
 8409TIP3   OH225159   0.248   5.427   4.155 -0.2804  0.3966  0.0051
 8409TIP3    H125160   0.219   5.359   4.093 -2.7032  0.9544  0.4470
 8409TIP3    H225161   0.310   5.383   4.212 -0.2039 -0.8909 -1.0441
 8410TIP3   OH225162   4.860   7.781   1.583 -0.0806 -0.3660 -0.3690
 8410TIP3    H125163   4.925   7.716   1.610 -1.0816 -1.7175 -1.1927
 8410TIP3    H225164   4.826   7.748   1.499 -1.3559  0.6698 -0.2704
 8411TIP3   OH225165   4.619   5.482   2.647 -0.5044  0.3580 -1.0688
 8411TIP3    H125166   4.625   5.397   2.603  0.4343  0.2554 -0.7554
 8411TIP3    H225167   4.539   5.521   2.613 -0.8001 -0.5456 -1.4125
 8412TIP3   OH225168   4.856   4.633   2.745 -0.3590  0.8108 -0.4799
 8412TIP3    H125169   4.808   4.716   2.737  0.6704  1.3356 -1.3834
 8412TIP3    H225170   4.820   4.577   2.678 -0.8584  0.6242 -0.0576
 8413TIP3   OH225171   3.029   5.747   3.866  0.4880  0.2592 -0.3796
 8413TIP3    H125172   3.039   5.842   3.874  0.7299  0.1258  1.0068
 8413TIP3    H225173   3.014   5.717   3.955 -1.6350 -0.7824 -1.0699
 8414TIP3   OH225174   3.211   4.323   2.862  0.4267  0.0642 -0.4735
 8414TIP3    H125175   3.174   4.261   2.925 -0.3205 -0.2789 -1.2392
 8414TIP3    H225176   3.190   4.409   2.898  0.4576 -0.1250  0.0049
 8415TIP3   OH225177   2.024   5.684   4.478  0.6212  0.3145 -0.3066
 8415TIP3    H125178   2.100   5.655   4.429 -0.0341  0.2351 -1.3024
 8415TIP3    H225179   2.047   5.670   4.570  1.8260  0.3729 -0.5947
 8416TIP3   OH225180   2.743   4.017   4.087  0.3621  0.3248 -0.1441
 8416TIP3    H125181   2.773   4.108   4.088 -2.1054  1.1897 -0.3132
 8416TIP3    H225182   2.700   4.005   4.172  1.9952 -1.1559  0.4826
 8417TIP3   OH225183   4.462   6.614   3.450  0.5298  0.3523  0.2449
 8417TIP3    H125184   4.546   6.654   3.428  0.8653  0.7131  2.0592
 8417TIP3    H225185   4.464   6.607   3.546 -1.0473 -0.6515  0.2160
 8418TIP3   OH225186   3.999   6.187   2.495 -0.3106 -0.2072  0.0892
 8418TIP3    H125187   4.076   6.131   2.486  2.7843  3.2758  2.8718
 8418TIP3    H225188   3.969   6.173   2.585 -0.2762  1.5281  0.4010
 8419TIP3   OH225189   2.983   5.190   2.468  0.8100 -0.1949  0.3338
 8419TIP3    H125190   2.914   5.125   2.457  0.0171  0.7278 -0.1711
 8419TIP3    H225191   3.064   5.142   2.450  0.3350 -1.3504  1.2198
 8420TIP3   OH225192   2.912   4.354   2.333  0.2255  0.7455 -0.2987
 8420TIP3    H125193   2.973   4.347   2.407  0.9319  0.7059 -0.8837
 8420TIP3    H225194   2.831   4.388   2.372  0.2125 -0.4244  0.6965
 8421TIP3   OH225195   3.642   6.445   1.434 -0.0570  0.1743 -0.6674
 8421TIP3    H125196   3.612   6.403   1.514 -1.4187  0.8238 -0.8245
 8421TIP3    H225197   3.581   6.517   1.420  1.8678  1.8711 -0.7198
 8422TIP3   OH225198   2.032   7.659   4.310 -0.1732  0.5076 -0.6558
 8422TIP3    H125199   1.945   7.688   4.336 -0.1647  0.3067 -0.4024
 8422TIP3    H225200   2.017   7.580   4.258 -0.0634 -0.3889  0.6339
 8423TIP3   OH225201   4.719   5.064   2.303  0.2863  0.3391 -0.1171
 8423TIP3    H125202   4.713   4.969   2.304  0.9054  0.2918 -0.8665
 8423TIP3    H225203   4.650   5.092   2.242 -0.4619  0.4208  0.7516
 8424TIP3   OH225204   3.128   6.025   4.301 -0.4399  0.7301  0.0205
 8424TIP3    H125205   3.210   6.070   4.322  0.3274 -1.3577  1.5742
 8424TIP3    H225206   3.060   6.079   4.342  0.2397  1.7896 -0.2137
 8425TIP3   OH225207   5.450   6.876   3.512 -0.0735 -0.1676 -0.2221
 8425TIP3    H125208   5.542   6.850   3.525 -0.1088 -1.6662 -2.5848
 8425TIP3    H225209   5.451   6.971   3.522  1.5871 -0.2565  0.6921
 8426TIP3   OH225210   3.190   5.130   4.934 -0.1010  0.1949  0.3616
 8426TIP3    H125211   3.144   5.046   4.938 -0.4548  0.4471  2.3592
 8426TIP3    H225212   3.122   5.193   4.910  0.0004  0.0332 -0.3647
 8427TIP3   OH225213   3.891   7.557   4.205  0.4020 -0.0955 -0.0757
 8427TIP3    H125214   3.926   7.504   4.133  2.1221  2.4885 -1.2230
 8427TIP3    H225215   3.798   7.566   4.185  0.6222 -0.4516 -1.3029
 8428TIP3   OH225216   3.766   4.927   1.523  0.2636  0.0165 -0.3259
 8428TIP3    H125217   3.855   4.895   1.507 -0.0100 -0.8335 -0.1888
 8428TIP3    H225218   3.736   4.875   1.597 -0.8682 -0.6937 -1.2778
 8429TIP3   OH225219   4.755   7.361   5.567 -0.2199 -0.8890 -0.0665
 8429TIP3    H125220   4.738   7.367   5.473 -0.3963 -2.6268 -0.1744
 8429TIP3    H225221   4.683   7.408   5.608 -0.3938 -0.5230 -0.7928
 8430TIP3   OH225222   3.767   7.832   3.465 -0.5069  0.3110 -0.4954
 8430TIP3    H125223   3.676   7.807   3.451 -0.3784 -1.5505  1.5996
 8430TIP3    H225224   3.818   7.759   3.429  0.0240 -0.3634  1.5587
 8431TIP3   OH225225   3.734   7.500   2.364 -0.2928  0.0223  0.5765
 8431TIP3    H125226   3.735   7.413   2.325  1.3658 -1.1222  3.0403
 8431TIP3    H225227   3.769   7.558   2.296 -1.0564 -1.2654 -0.9490
 8432TIP3   OH225228   4.378   5.017   4.243 -0.4677  0.4271  0.8631
 8432TIP3    H125229   4.469   5.032   4.217 -0.4067 -1.3562  0.0278
 8432TIP3    H225230   4.379   5.031   4.338  1.4761 -3.0813  1.4605
 8433TIP3   OH225231   3.420   5.034   3.230  0.0819 -0.0791 -0.7869
 8433TIP3    H125232   3.333   5.005   3.203  0.1180 -0.9807  0.0305
 8433TIP3    H225233   3.477   5.010   3.157 -0.5643  1.7395 -1.9037
 8434TIP3   OH225234   4.467   6.680   2.435  0.5145  0.7933 -0.2074
 8434TIP3    H125235   4.558   6.675   2.462  0.2635  0.3092  0.5612
 8434TIP3    H225236   4.453   6.600   2.384  0.5973  1.0121 -0.5765
 8435TIP3   OH225237   3.357   5.536   5.768  0.1019 -0.2344 -0.3793
 8435TIP3    H125238   3.311   5.525   5.852  0.3333  1.6355  0.0144
 8435TIP3    H225239   3.288   5.556   5.705  0.0220 -0.7732 -0.4637
 8436TIP3   OH225240   4.170   5.304   2.881 -0.6701 -0.1135  0.0698
 8436TIP3    H125241   4.167   5.223   2.831  2.2552 -0.5409  0.5271
 8436TIP3    H225242   4.258   5.307   2.918 -1.0506  2.7755  0.8934
 8437TIP3   OH225243   4.654   6.186   2.145 -0.1857 -0.2590  0.4071
 8437TIP3    H125244   4.647   6.206   2.052 -0.3732 -0.7757  0.3089
 8437TIP3    H225245   4.720   6.247   2.178 -0.0099 -0.1780 -0.0946
 8438TIP3   OH225246   4.141   5.943   2.321  0.0593 -0.6191 -0.2426
 8438TIP3    H125247   4.194   5.922   2.244  0.7504  1.3986 -0.3453
 8438TIP3    H225248   4.202   5.986   2.381 -0.5637 -1.8358  1.2764
 8439TIP3   OH225249   2.321   5.306   4.916 -0.3196  0.0540  0.0017
 8439TIP3    H125250   2.228   5.318   4.902 -0.5146 -0.7292  0.5914
 8439TIP3    H225251   2.327   5.257   4.998  0.6298  0.7072  0.3355
 8440TIP3   OH225252   4.480   5.842   1.473  0.1050 -0.2302  0.2837
 8440TIP3    H125253   4.472   5.751   1.502  3.1393 -0.3373  0.9378
 8440TIP3    H225254   4.399   5.858   1.424  0.0112 -3.6367 -0.8455
 8441TIP3   OH225255   4.183   5.670   2.331 -0.0007  0.0252 -0.0631
 8441TIP3    H125256   4.208   5.735   2.397 -1.4351 -0.5499  1.0922
 8441TIP3    H225257   4.099   5.637   2.362 -0.6219 -0.3724 -2.1248
 8442TIP3   OH225258   3.872   7.330   3.269  0.3572  0.9222  0.2679
 8442TIP3    H125259   3.937   7.308   3.335 -0.2218  0.3274  0.6353
 8442TIP3    H225260   3.809   7.258   3.271  1.2372 -0.0015 -2.1106
 8443TIP3   OH225261   3.885   6.985   2.451  0.7415 -0.1894  0.4154
 8443TIP3    H125262   3.797   7.013   2.474  0.1843 -0.5729 -1.1621
 8443TIP3    H225263   3.932   7.066   2.432  0.5282 -0.0283  0.5725
 8444TIP3   OH225264   4.089   5.038   2.106 -0.5294 -0.2754 -0.6706
 8444TIP3    H125265   4.066   5.020   2.015 -2.0633  0.1682 -0.3719
 8444TIP3    H225266   4.075   5.132   2.116  3.6568  0.5131 -1.1192
 8445TIP3   OH225267   4.877   5.543   2.539  0.0358 -0.6386 -0.2604
 8445TIP3    H125268   4.878   5.492   2.458  0.5225  0.8387 -1.1938
 8445TIP3    H225269   4.786   5.542   2.567 -0.1787 -0.9351 -0.9675
 8446TIP3   OH225270   5.185   5.212   2.645 -0.0748 -0.0350 -0.0136
 8446TIP3    H125271   5.246   5.194   2.574 -2.3698 -0.8912 -1.8413
 8446TIP3    H225272   5.212   5.154   2.717  1.4399 -0.1392 -0.6661
 8447TIP3   OH225273   3.516   5.212   2.825  0.1962 -0.7539  0.0720
 8447TIP3    H125274   3.610   5.205   2.808 -0.2351 -2.5716 -1.7379
 8447TIP3    H225275   3.492   5.130   2.867  0.1842  1.4797  4.6791
 8448TIP3   OH225276   2.927   4.740   1.969 -0.5188  0.0782 -0.2207
 8448TIP3    H125277   2.872   4.680   1.917 -2.6305  1.1925  0.6374
 8448TIP3    H225278   2.921   4.824   1.923  4.7734 -0.9130 -3.0549
 8449TIP3   OH225279   2.897   3.785   2.090 -0.4407 -0.5653 -0.1072
 8449TIP3    H125280   2.902   3.761   2.183 -1.7415 -1.8797 -0.3504
 8449TIP3    H225281   2.978   3.833   2.073  0.2725 -1.1715  1.4693
 8450TIP3   OH225282   2.674   6.545   2.796 -0.9859  0.1421  0.2972
 8450TIP3    H125283   2.693   6.591   2.877  0.4051 -2.0000  1.2356
 8450TIP3    H225284   2.752   6.557   2.742 -0.7058 -0.9193  0.4595
 8451TIP3   OH225285   3.877   5.368   0.982 -0.1427 -0.6057 -0.3606
 8451TIP3    H125286   3.891   5.431   1.052 -0.8309  0.8537 -1.5216
 8451TIP3    H225287   3.946   5.302   0.994 -0.6087 -0.6937  2.0257
 8452TIP3   OH225288   5.228   4.665   3.575  0.4298 -0.0665  0.1592
 8452TIP3    H125289   5.203   4.622   3.656  0.3133  0.4926  0.4231
 8452TIP3    H225290   5.322   4.647   3.567  0.1908 -1.1807 -0.2364
 8453TIP3   OH225291   4.489   5.896   4.400  0.0195  0.5316 -0.2444
 8453TIP3    H125292   4.500   5.808   4.437 -0.8799  0.1899 -0.7760
 8453TIP3    H225293   4.415   5.888   4.341 -0.0719  1.6604 -0.2925
 8454TIP3   OH225294   3.989   5.805   1.181  0.7348  0.4748  0.1096
 8454TIP3    H125295   3.906   5.801   1.133  0.9221  0.4473 -0.2111
 8454TIP3    H225296   3.966   5.780   1.270  0.7352 -1.3663 -0.3935
 8455TIP3   OH225297   4.674   6.275   5.881  0.0642  0.1216 -0.7737
 8455TIP3    H125298   4.638   6.306   5.798  0.8038  1.2248 -0.7010
 8455TIP3    H225299   4.758   6.234   5.857 -0.8857 -1.8003 -0.8625
 8456TIP3   OH225300   2.494   7.646   6.000 -0.1046  0.6084 -0.7624
 8456TIP3    H125301   2.407   7.679   5.978 -1.1562 -2.2215 -1.1048
 8456TIP3    H225302   2.497   7.559   5.959  2.2454 -0.0132  0.6655
 8457TIP3   OH225303   2.356   3.588   2.543  0.5835  0.3340 -0.2685
 8457TIP3    H125304   2.434   3.536   2.566  0.4065 -0.2742 -1.0107
 8457TIP3    H225305   2.374   3.675   2.578  0.4423 -0.4809  1.9325
 8458TIP3   OH225306   3.270   3.537   2.672  0.1321  0.2962  0.7906
 8458TIP3    H125307   3.326   3.597   2.721  0.6076 -0.3189  0.9971
 8458TIP3    H225308   3.325   3.504   2.602 -0.4439  0.9022  0.0405
 8459TIP3   OH225309   4.131   5.130   5.210 -0.3201  0.9478  0.1297
 8459TIP3    H125310   4.190   5.055   5.210 -0.1514  1.0811  0.8195
 8459TIP3    H225311   4.044   5.092   5.214 -0.3313  0.7223 -1.7235
 8460TIP3   OH225312   3.501   4.200   3.294  0.2717  0.3217  0.0135
 8460TIP3    H125313   3.471   4.134   3.358 -0.0706  0.0024 -0.4734
 8460TIP3    H225314   3.527   4.149   3.218  0.0609  0.7488 -0.3475
 8461TIP3   OH225315   5.680   7.071   3.671 -0.4313 -0.3724  0.0112
 8461TIP3    H125316   5.713   6.990   3.632  1.3428 -0.4209  1.5398
 8461TIP3    H225317   5.608   7.043   3.727  0.2077 -0.9095  0.5739
 8462TIP3   OH225318   6.435   0.973   1.026 -0.5068 -0.3782  0.5055
 8462TIP3    H125319   6.374   1.025   1.077 -0.8251 -0.7685  0.5217
 8462TIP3    H225320   6.469   0.908   1.087 -1.4853 -1.3490  0.0258
 8463TIP3   OH225321   4.435   6.478   2.673 -0.5020  0.7705  0.0385
 8463TIP3    H125322   4.346   6.464   2.704 -0.5166 -1.8809 -1.0885
 8463TIP3    H225323   4.425   6.533   2.595 -1.1633  0.3919 -0.1446
 8464TIP3   OH225324   4.979   4.950   3.236 -0.6270 -0.1678 -0.3661
 8464TIP3    H125325   5.020   4.881   3.288 -0.9051  1.3494  1.9161
 8464TIP3    H225326   4.934   4.903   3.165 -1.0580 -2.3398  1.3010
 8465TIP3   OH225327   0.320   5.136   4.541 -0.9052  0.1937 -0.1432
 8465TIP3    H125328   0.365   5.056   4.514  2.2160  1.6643  0.4897
 8465TIP3    H225329   0.292   5.118   4.631 -0.3016 -0.2701 -0.0407
 8466TIP3   OH225330   2.017   4.890   4.166  0.8347  0.1000  0.4864
 8466TIP3    H125331   1.966   4.828   4.218  0.2247 -0.2013 -0.4484
 8466TIP3    H225332   1.953   4.926   4.104  2.1913 -1.8366 -2.1013
 8467TIP3   OH225333   4.476   7.460   4.201 -0.2972  0.0267  0.1197
 8467TIP3    H125334   4.563   7.451   4.239 -0.8615 -0.8337  1.2353
 8467TIP3    H225335   4.491   7.500   4.115  1.1948 -0.1932  0.2699
 8468TIP3   OH225336   5.826   6.062   4.600 -0.5483  0.8129  0.4000
 8468TIP3    H125337   5.800   5.978   4.562 -0.4019  0.1474  1.7279
 8468TIP3    H225338   5.877   6.105   4.532 -1.5032  0.2687 -0.6677
 8469TIP3   OH225339   5.325   7.866   5.672 -0.1893  0.3486 -0.0419
 8469TIP3    H125340   5.371   7.851   5.590 -1.3762 -0.0751 -0.6293
 8469TIP3    H225341   5.288   7.953   5.664 -0.7675  0.0886 -0.1667
 8470TIP3   OH225342   3.757   7.025   3.099 -0.1195  0.1522 -0.0885
 8470TIP3    H125343   3.839   7.000   3.057 -0.3350 -0.0812 -0.3716
 8470TIP3    H225344   3.700   7.052   3.028 -0.3092  0.2580  0.1031
 8471TIP3   OH225345   5.578   5.680   3.247 -0.2092 -0.3077 -0.0752
 8471TIP3    H125346   5.600   5.593   3.216 -2.4064 -0.8011 -0.3658
 8471TIP3    H225347   5.596   5.677   3.341  0.2145 -0.9000 -0.1717
 8472TIP3   OH225348   6.235   6.705   1.570 -0.2023 -0.0165 -0.4524
 8472TIP3    H125349   6.158   6.758   1.591  0.4833  0.9668 -0.3756
 8472TIP3    H225350   6.299   6.768   1.538 -0.2949 -1.1465 -3.0005
 8473TIP3   OH225351   2.805   6.900   0.963  0.2552 -0.2407 -0.0676
 8473TIP3    H125352   2.848   6.815   0.952 -0.5959 -0.6000 -0.7660
 8473TIP3    H225353   2.871   6.964   0.937  0.0795 -0.8338 -2.1191
 8474TIP3   OH225354   3.742   7.897   2.639 -0.4042  0.0273  0.3435
 8474TIP3    H125355   3.804   7.930   2.704 -0.0476 -0.7700  0.4112
 8474TIP3    H225356   3.697   7.975   2.607 -0.4029  0.4517  1.3607
 8475TIP3   OH225357   4.223   7.384   4.140 -0.2340 -0.0302  0.1542
 8475TIP3    H125358   4.314   7.398   4.169  0.8150 -0.5416 -2.7489
 8475TIP3    H225359   4.183   7.471   4.143  0.5525  0.3209  0.7530
 8476TIP3   OH225360   1.969   6.250   3.306 -0.2233 -0.4812  0.3095
 8476TIP3    H125361   1.880   6.279   3.289 -0.3319 -1.2731 -0.4752
 8476TIP3    H225362   1.992   6.291   3.390 -0.7256  1.0502 -0.2846
 8477TIP3   OH225363   3.909   5.952   3.951  0.1263 -0.4824  0.0290
 8477TIP3    H125364   3.936   5.861   3.961 -1.9774 -1.1234  0.1880
 8477TIP3    H225365   3.880   5.959   3.860  0.4806  0.0929 -0.0437
 8478TIP3   OH225366   2.419   5.906   4.072  0.5824 -0.5684  0.7204
 8478TIP3    H125367   2.339   5.858   4.094  1.0547 -1.1814  1.1406
 8478TIP3    H225368   2.458   5.856   4.001  0.6305 -0.3112  0.5652
 8479TIP3   OH225369   6.750   0.074   3.897 -0.1707  0.2979  0.6858
 8479TIP3    H125370   6.673   0.121   3.927 -0.5034  1.3672 -1.7479
 8479TIP3    H225371   6.716  -0.007   3.860  0.1138 -0.3533  1.8107
 8480TIP3   OH225372   4.926   6.649   4.948 -0.7398  0.3652  0.0004
 8480TIP3    H125373   4.953   6.560   4.924 -1.5511 -0.2266  1.1981
 8480TIP3    H225374   4.965   6.662   5.035 -0.1216  1.4138 -0.4330
 8481TIP3   OH225375   2.633   6.257   5.169  0.5436 -0.3148  0.1270
 8481TIP3    H125376   2.625   6.345   5.130  1.9359 -0.8506 -1.4123
 8481TIP3    H225377   2.648   6.273   5.262 -3.7112  0.9954  0.6977
 8482TIP3   OH225378   5.577   6.182   3.522 -0.6765 -0.0487 -0.1606
 8482TIP3    H125379   5.601   6.148   3.609 -1.1292 -0.2835 -0.1226
 8482TIP3    H225380   5.503   6.127   3.495  1.0375 -1.6230 -1.7846
 8483TIP3   OH225381   4.991   6.929   4.806  0.4156  0.5816  0.2692
 8483TIP3    H125382   4.952   6.855   4.853  0.0697  0.9519  0.5756
 8483TIP3    H225383   4.933   7.002   4.825 -1.0025  0.2655 -2.5753
 8484TIP3   OH225384   2.745   6.455   4.649 -0.0810 -0.2339  0.7517
 8484TIP3    H125385   2.777   6.527   4.595 -0.6195  0.4826  1.3634
 8484TIP3    H225386   2.666   6.490   4.690  0.2182 -0.8319  1.8513
 8485TIP3   OH225387   2.792   5.649   6.835  0.3022  0.2790  0.2552
 8485TIP3    H125388   2.862   5.585   6.821  0.4294  0.2427  1.0351
 8485TIP3    H225389   2.808   5.717   6.769 -0.3429 -0.9177 -1.1508
 8486TIP3   OH225390   2.595   4.847   1.814 -0.4122 -0.0747  0.5133
 8486TIP3    H125391   2.560   4.836   1.725  0.8354 -1.9646  0.2250
 8486TIP3    H225392   2.576   4.764   1.858  0.4842  0.2131  1.4741
 8487TIP3   OH225393   3.279   6.324   2.888 -0.0728 -0.1404 -0.1806
 8487TIP3    H125394   3.368   6.357   2.882 -0.3783  0.6071 -0.6594
 8487TIP3    H225395   3.232   6.368   2.817 -1.1317  0.4633  0.8806
 8488TIP3   OH225396   3.864   5.993   1.823 -0.4355 -0.5076 -0.3742
 8488TIP3    H125397   3.841   6.016   1.913 -1.0971  0.6154 -0.8192
 8488TIP3    H225398   3.928   5.923   1.832  0.6968  0.6717  0.9932
 8489TIP3   OH225399   3.247   5.297   1.943  0.2008 -0.3591  0.5383
 8489TIP3    H125400   3.341   5.316   1.940  0.6842 -2.7180 -1.2030
 8489TIP3    H225401   3.218   5.309   1.853 -1.3475  1.0544  1.2051
 8490TIP3   OH225402   5.505   6.312   2.430 -0.3760  0.0003 -0.7347
 8490TIP3    H125403   5.433   6.369   2.405 -0.8486 -0.1220  0.3119
 8490TIP3    H225404   5.524   6.337   2.521  0.2190 -0.6694 -0.6715
 8491TIP3   OH225405   2.481   5.376   3.905 -0.9020  0.2128 -0.4415
 8491TIP3    H125406   2.433   5.295   3.889 -0.9203  0.1713 -0.1754
 8491TIP3    H225407   2.564   5.364   3.859 -0.2231 -0.6340  0.9802
 8492TIP3   OH225408   4.667   5.929   2.203  0.9435 -0.5423  0.3443
 8492TIP3    H125409   4.711   5.883   2.132 -0.7120  0.3205 -1.2910
 8492TIP3    H225410   4.651   6.017   2.168  0.7607  0.1318  2.0565
 8493TIP3   OH225411   4.911   5.765   6.048  0.1427 -0.1724  0.2300
 8493TIP3    H125412   4.951   5.717   6.120  1.4527 -1.5638 -1.3824
 8493TIP3    H225413   4.824   5.726   6.038  0.6087 -1.1507 -0.0531
 8494TIP3   OH225414   4.846   5.749   1.538 -0.2569 -0.1543 -0.4151
 8494TIP3    H125415   4.829   5.812   1.468 -0.3388 -1.0696 -1.2276
 8494TIP3    H225416   4.763   5.704   1.550 -0.1893 -0.1344  0.1388
 8495TIP3   OH225417   8.489   5.063   4.987 -0.0848  0.1788 -0.1572
 8495TIP3    H125418   8.432   5.060   4.910 -0.8569  1.7997  0.3273
 8495TIP3    H225419   8.434   5.033   5.059 -0.1022  1.0277  0.1847
 8496TIP3   OH225420   4.025   6.256   1.246 -0.6742  0.6284  0.3186
 8496TIP3    H125421   4.025   6.287   1.155 -2.2705  0.2861  0.1896
 8496TIP3    H225422   4.111   6.282   1.279  0.2160  0.1265 -1.4912
 8497TIP3   OH225423   2.808   4.992   1.896  0.0922 -0.7056  0.3925
 8497TIP3    H125424   2.735   4.949   1.852 -0.4964  1.6166 -0.9421
 8497TIP3    H225425   2.777   5.007   1.985 -1.2317  0.6108 -0.2713
 8498TIP3   OH225426   4.092   6.863   1.975 -1.0391 -0.6814  0.2697
 8498TIP3    H125427   4.154   6.790   1.967 -2.2339 -1.5707 -1.1029
 8498TIP3    H225428   4.125   6.913   2.049  0.5555 -1.8890  0.4277
 8499TIP3   OH225429   3.263   6.646   3.294 -0.3428  0.4065 -0.4587
 8499TIP3    H125430   3.245   6.733   3.330 -1.3928  0.1908 -0.4523
 8499TIP3    H225431   3.348   6.622   3.331 -0.1286  1.3437 -0.3099
 8500TIP3   OH225432   1.983   6.008   0.696 -0.4305 -0.1393  0.0198
 8500TIP3    H125433   2.058   5.985   0.751 -0.0639 -1.1959 -0.9088
 8500TIP3    H225434   1.991   6.103   0.685  0.1754 -0.0947  0.7866
 8501TIP3   OH225435   5.631   0.302   3.415 -0.2605 -0.2992  0.2374
 8501TIP3    H125436   5.664   0.379   3.369  2.8724 -0.5902  1.8629
 8501TIP3    H225437   5.662   0.228   3.364 -1.9787 -0.5192 -0.4954
 8502TIP3   OH225438   2.621   3.032   3.710 -0.3640  0.4322 -1.0619
 8502TIP3    H125439   2.637   2.960   3.771  1.0634  1.1802 -0.5251
 8502TIP3    H225440   2.534   3.014   3.674 -1.0830 -0.2106  0.9238
 8503TIP3   OH225441   0.904   4.519   4.383 -0.3155 -0.0645 -0.1113
 8503TIP3    H125442   0.934   4.582   4.448  1.4985 -0.3516 -0.6459
 8503TIP3    H225443   0.951   4.438   4.404 -0.9168 -0.6058 -0.8106
 8504TIP3   OH225444   2.648   6.522   5.090 -0.0844 -0.3228 -0.3647
 8504TIP3    H125445   2.736   6.553   5.113  1.3115 -2.2319 -2.8708
 8504TIP3    H225446   2.593   6.600   5.096  2.2950  1.5161 -1.3362
 8505TIP3   OH225447   7.786   0.921   4.772 -0.6711 -0.1473  0.1206
 8505TIP3    H125448   7.851   0.884   4.832 -0.5901  0.5384  0.4609
 8505TIP3    H225449   7.716   0.855   4.769 -0.0692 -0.7848 -0.0693
 8506TIP3   OH225450   3.595   7.426   3.324  0.3557 -0.0004 -0.2962
 8506TIP3    H125451   3.672   7.395   3.371 -0.7570 -1.2127  0.7791
 8506TIP3    H225452   3.570   7.352   3.269  0.2537  0.5671 -1.0168
 8507TIP3   OH225453   8.040   4.081   1.476  0.4608 -0.1030  0.2123
 8507TIP3    H125454   7.996   3.997   1.484  0.0281  0.1731  0.7338
 8507TIP3    H225455   8.044   4.098   1.382  0.5604 -0.7096  0.1084
 8508TIP3   OH225456   4.347   7.882   2.791 -0.2708  0.0112  0.3851
 8508TIP3    H125457   4.353   7.952   2.855 -0.4942  2.0185 -1.7110
 8508TIP3    H225458   4.424   7.893   2.735  1.4408 -3.4323  1.9225
 8509TIP3   OH225459   3.289   4.726   2.695 -0.0947 -0.0046  0.1934
 8509TIP3    H125460   3.317   4.817   2.706  1.4637 -0.2460 -1.7167
 8509TIP3    H225461   3.248   4.724   2.609 -0.8388 -0.9518  0.5679
 8510TIP3   OH225462   0.557   3.954   3.639  0.3611 -0.1525  0.2217
 8510TIP3    H125463   0.543   3.895   3.566  1.2459 -0.9824  0.7112
 8510TIP3    H225464   0.618   4.020   3.606 -0.0155  0.0423 -0.0859
 8511TIP3   OH225465   5.182   5.266   4.774 -0.0129 -0.0739 -0.2546
 8511TIP3    H125466   5.139   5.328   4.715 -0.8525 -0.2758  0.1464
 8511TIP3    H225467   5.139   5.183   4.757  0.4518 -0.3504 -0.0948
 8512TIP3   OH225468   4.850   5.163   3.355  1.0639 -0.3852  0.0776
 8512TIP3    H125469   4.872   5.088   3.299 -0.4007 -0.6405 -0.1723
 8512TIP3    H225470   4.879   5.138   3.442  1.1784 -0.9716 -0.1283
 8513TIP3   OH225471   3.943   5.640   2.085  0.0278  0.6379 -0.3273
 8513TIP3    H125472   3.870   5.599   2.038 -0.3417  0.1426  0.6716
 8513TIP3    H225473   3.907   5.663   2.170  0.2571  2.9658 -0.8184
 8514TIP3   OH225474   2.233   5.644   5.417  0.1721 -0.2857  0.6482
 8514TIP3    H125475   2.246   5.624   5.324  1.1565 -0.8250  0.8948
 8514TIP3    H225476   2.285   5.578   5.463  2.1785  1.8219  1.4984
 8515TIP3   OH225477   5.549   5.882   4.109 -0.5550  0.0285  0.1222
 8515TIP3    H125478   5.548   5.882   4.204  0.7149 -0.6251  0.1471
 8515TIP3    H225479   5.483   5.947   4.084 -0.6574  0.4414  1.4414
 8516TIP3   OH225480   3.585   6.304   4.042  0.3954 -0.1726 -0.2787
 8516TIP3    H125481   3.525   6.378   4.043  0.8657  0.2079  0.8289
 8516TIP3    H225482   3.565   6.257   3.961 -1.6057 -0.2280  0.2255
 8517TIP3   OH225483   2.732   5.136   5.033  0.0710  0.1333 -0.3107
 8517TIP3    H125484   2.767   5.075   4.969  0.7177  0.0138  0.1438
 8517TIP3    H225485   2.647   5.099   5.058 -0.4681  0.5284 -1.5659
 8518TIP3   OH225486   3.716   6.381   3.439 -0.6359 -0.3347  0.1962
 8518TIP3    H125487   3.802   6.381   3.397 -0.4136 -1.2766  0.6450
 8518TIP3    H225488   3.655   6.361   3.367 -0.4539  0.0869 -0.0736
 8519TIP3   OH225489   5.037   6.202   4.188 -0.2295 -0.7853 -0.5118
 8519TIP3    H125490   5.069   6.292   4.190 -2.6059  0.0749  0.2145
 8519TIP3    H225491   4.979   6.199   4.112  0.3261 -1.8834 -0.8961
 8520TIP3   OH225492   6.936   1.105   0.689 -0.2234  0.1648  0.0437
 8520TIP3    H125493   6.917   1.027   0.742 -0.6175  1.4020  1.7676
 8520TIP3    H225494   6.899   1.177   0.739  0.3384  1.4916 -1.4328
 8521TIP3   OH225495   1.178   4.538   4.616  0.4817 -0.2332 -0.3277
 8521TIP3    H125496   1.149   4.456   4.576  0.7737  0.1106 -1.2528
 8521TIP3    H225497   1.098   4.580   4.646  0.1692 -0.0262 -1.4411
 8522TIP3   OH225498   1.239   5.256   4.387  0.2741  0.6439 -0.8227
 8522TIP3    H125499   1.160   5.302   4.360  0.6567  2.0597  0.4214
 8522TIP3    H225500   1.235   5.253   4.482  1.0193 -0.5335 -0.8178
 8523TIP3   OH225501   3.932   4.845   4.538 -1.0607 -0.6648 -0.6510
 8523TIP3    H125502   3.923   4.855   4.444  0.1216 -1.0936 -0.8083
 8523TIP3    H225503   4.004   4.784   4.550  1.0500  1.9806  0.5949
 8524TIP3   OH225504   6.035   7.467   2.741 -0.1248  0.0427  0.3904
 8524TIP3    H125505   6.096   7.402   2.774  0.3835  0.7583  0.8861
 8524TIP3    H225506   6.077   7.551   2.761 -1.3334  0.5410  0.8674
 8525TIP3   OH225507   6.553   6.032   4.048 -0.4725 -0.6099 -0.3825
 8525TIP3    H125508   6.577   6.115   4.089  2.3137 -0.8365 -1.4324
 8525TIP3    H225509   6.600   5.966   4.100  0.3207 -1.1939 -1.8210
 8526TIP3   OH225510   4.306   5.336   1.894  0.1026  0.7895  0.0444
 8526TIP3    H125511   4.373   5.403   1.903  0.2657  0.4255  1.8147
 8526TIP3    H225512   4.255   5.343   1.975  0.8122 -1.9385  0.7716
 8527TIP3   OH225513   5.225   6.466   2.569 -0.0240 -0.3409 -0.5899
 8527TIP3    H125514   5.312   6.446   2.604  0.4080  0.8888 -0.9470
 8527TIP3    H225515   5.224   6.423   2.483 -0.2886 -1.5332  0.0034
 8528TIP3   OH225516   3.341   4.828   3.724  0.0714 -0.0286  0.6953
 8528TIP3    H125517   3.319   4.740   3.695  0.0196  0.4872 -0.8641
 8528TIP3    H225518   3.434   4.839   3.701 -0.2935  0.8215 -0.4192
 8529TIP3   OH225519   4.706   5.647   4.994  0.3222 -0.3018  0.3279
 8529TIP3    H125520   4.688   5.666   4.902 -0.1569 -1.2534  0.2218
 8529TIP3    H225521   4.661   5.716   5.042  1.8385  1.0884 -0.1963
 8530TIP3   OH225522   3.784   5.288   5.919  0.0774  0.3676 -0.4734
 8530TIP3    H125523   3.843   5.339   5.862 -0.6271  0.4739 -1.1211
 8530TIP3    H225524   3.704   5.341   5.924  0.0004  0.1810  0.3268
 8531TIP3   OH225525   5.193   5.807   4.607  0.6518  0.0776 -0.0533
 8531TIP3    H125526   5.219   5.813   4.515 -0.0406  0.6099 -0.2171
 8531TIP3    H225527   5.249   5.737   4.643  1.4208  0.3493 -0.6963
 8532TIP3   OH225528   7.462   5.613   6.032 -0.2959 -0.1312  0.5986
 8532TIP3    H125529   7.533   5.654   5.983 -0.8065 -0.6415 -0.5863
 8532TIP3    H225530   7.472   5.519   6.015 -0.5062 -0.3117  1.4330
 8533TIP3   OH225531   2.770   5.660   1.188 -0.0047 -0.1400  0.0903
 8533TIP3    H125532   2.864   5.676   1.190 -0.0415  0.0039  2.2707
 8533TIP3    H225533   2.735   5.733   1.136  0.9678  0.5326  0.3529
 8534TIP3   OH225534   3.052   4.314   2.564  0.1886 -0.4498  0.1464
 8534TIP3    H125535   3.131   4.273   2.528 -0.0353  0.6379 -1.6606
 8534TIP3    H225536   3.077   4.341   2.653  1.5660 -0.9265 -0.0837
 8535TIP3   OH225537   3.059   4.979   2.668  0.0907  0.3820  0.2688
 8535TIP3    H125538   3.065   5.070   2.638  1.0511  0.0331 -0.6042
 8535TIP3    H225539   2.983   4.944   2.621  0.1931  0.5015  0.0134
 8536TIP3   OH225540   3.310   6.489   3.734 -0.1892 -0.0534 -0.5405
 8536TIP3    H125541   3.315   6.432   3.812  1.0059  1.1067  0.2556
 8536TIP3    H225542   3.324   6.429   3.661  5.4362 -0.3162  0.4719
 8537TIP3   OH225543   4.715   6.037   4.281  0.1894 -0.1910  0.0009
 8537TIP3    H125544   4.694   6.126   4.253  1.8841 -0.0947 -0.9984
 8537TIP3    H225545   4.643   6.013   4.339 -1.2863  1.1047 -1.2566
 8538TIP3   OH225546   4.465   6.397   4.299 -0.0307 -0.2366 -0.4057
 8538TIP3    H125547   4.472   6.354   4.384  0.5787  0.5907 -0.0305
 8538TIP3    H225548   4.536   6.358   4.247  1.3532  1.2098  0.3431
 8539TIP3   OH225549   2.442   2.069   6.854 -0.7582  0.0119  0.1454
 8539TIP3    H125550   2.465   2.027   6.937 -1.1295 -0.2923  0.0904
 8539TIP3    H225551   2.526   2.075   6.807 -0.5923 -0.0536  0.4320
 8540TIP3   OH225552   5.073   6.044   2.453  0.0661  0.5465 -0.0024
 8540TIP3    H125553   5.063   5.952   2.426  1.9693  0.5932 -0.9245
 8540TIP3    H225554   5.045   6.045   2.544  0.8025 -1.1054  0.2571
 8541TIP3   OH225555   4.535   5.833   3.699 -0.4611  0.1976 -0.7400
 8541TIP3    H125556   4.566   5.924   3.700  0.1656 -0.0126  1.1572
 8541TIP3    H225557   4.589   5.790   3.632  1.5491  0.4688  0.6738
 8542TIP3   OH225558   6.029   0.264   3.189  0.0868  0.2445  0.3608
 8542TIP3    H125559   6.010   0.172   3.208  3.6078 -0.8731 -1.1701
 8542TIP3    H225560   5.978   0.284   3.111  1.1597 -1.1395 -0.7037
 8543TIP3   OH225561   5.038   6.295   3.424  0.3427  0.2597  0.0736
 8543TIP3    H125562   5.091   6.216   3.429  0.5963  0.2545 -2.0436
 8543TIP3    H225563   5.101   6.367   3.432  0.3034  0.2477  0.4841
 8544TIP3   OH225564   6.273   0.434   2.950  0.1547 -0.2398 -0.0917
 8544TIP3    H125565   6.205   0.384   2.904  2.5507 -0.4862 -3.5588
 8544TIP3    H225566   6.247   0.525   2.940  0.3248 -0.3325 -1.4298
 8545TIP3   OH225567   3.791   7.593   2.612 -0.2351  0.9150 -0.1947
 8545TIP3    H125568   3.751   7.678   2.596 -2.2521  0.0809  0.1695
 8545TIP3    H225569   3.774   7.543   2.532  1.0198  0.8746 -0.4432
 8546TIP3   OH225570   3.851   6.366   3.982  0.4586  0.2354  0.2366
 8546TIP3    H125571   3.758   6.346   3.994  0.6465 -0.5079  0.4656
 8546TIP3    H225572   3.859   6.389   3.889  0.5503 -2.5354 -0.4909
 8547TIP3   OH225573   4.015   5.137   3.505 -0.1753 -0.1791  0.2505
 8547TIP3    H125574   4.035   5.226   3.537  0.9069 -0.3338  0.0082
 8547TIP3    H225575   3.975   5.151   3.419 -1.9058  0.1724  1.0801
 8548TIP3   OH225576   5.620   6.238   0.094 -0.0486  0.2863  0.2313
 8548TIP3    H125577   5.611   6.281   0.009  1.0987 -1.5616 -0.8412
 8548TIP3    H225578   5.655   6.306   0.152 -1.6154  1.7858 -0.5402
 8549TIP3   OH225579   4.386   4.558   2.976 -0.2754  0.2482 -0.4145
 8549TIP3    H125580   4.405   4.633   3.032 -0.4918  0.2698 -0.3713
 8549TIP3    H225581   4.379   4.596   2.888  0.3928  0.1693 -0.5079
 8550TIP3   OH225582   3.868   5.977   3.404 -0.0846 -0.0562 -0.5687
 8550TIP3    H125583   3.881   6.051   3.464 -0.9643 -0.9619  0.7788
 8550TIP3    H225584   3.918   5.905   3.443 -1.1032 -0.8075 -0.6240
 8551TIP3   OH225585   4.267   7.498   4.721  0.0005 -0.1200 -0.2369
 8551TIP3    H125586   4.173   7.481   4.711 -0.1544  0.9470 -0.6856
 8551TIP3    H225587   4.297   7.516   4.632  0.1084  2.1218  0.2251
 8552TIP3   OH225588   4.123   5.366   3.589  0.7399  0.2063 -0.0585
 8552TIP3    H125589   4.213   5.333   3.584  0.4523 -0.8706  1.5629
 8552TIP3    H225590   4.132   5.461   3.576  2.6875  0.8159  4.6320
 8553TIP3   OH225591   3.678   7.840   5.455 -0.7401 -0.1272  0.2258
 8553TIP3    H125592   3.711   7.925   5.426 -1.2756  0.4541  1.2928
 8553TIP3    H225593   3.638   7.857   5.541 -0.2237 -1.5926  0.7755
 8554TIP3   OH225594   4.595   5.126   5.124  0.1295  0.3150 -0.1622
 8554TIP3    H125595   4.512   5.168   5.101 -0.1335  1.2221  2.2921
 8554TIP3    H225596   4.658   5.160   5.061 -1.0817  0.6265 -1.2199
 8555TIP3   OH225597   4.510   5.519   3.500  0.5546  0.1011  0.1052
 8555TIP3    H125598   4.589   5.477   3.468  0.7453  0.7411 -0.2681
 8555TIP3    H225599   4.470   5.559   3.423 -1.3177 -2.0961 -0.1229
 8556TIP3   OH225600   3.061   5.374   2.845 -0.9467  0.3085  0.4691
 8556TIP3    H125601   3.037   5.309   2.910 -0.0106 -0.3616  0.1503
 8556TIP3    H225602   3.127   5.429   2.889  1.7034 -1.7776 -0.7586
 8557TIP3   OH225603   3.488   7.050   3.837  0.5795 -0.3493 -0.0182
 8557TIP3    H125604   3.396   7.078   3.840 -0.8483 -4.2172 -3.2232
 8557TIP3    H225605   3.519   7.080   3.751  1.5621 -1.2201  0.0349
 8558TIP3   OH225606   5.852   6.475   1.395  0.2341 -0.1449 -0.2837
 8558TIP3    H125607   5.927   6.416   1.407  0.8029  0.7925  0.8642
 8558TIP3    H225608   5.790   6.425   1.343  1.4775 -1.1038 -0.8707
 8559TIP3   OH225609   5.436   5.490   4.241 -0.0030 -0.0173  0.4222
 8559TIP3    H125610   5.342   5.486   4.262  0.1522  3.0955  2.0175
 8559TIP3    H225611   5.442   5.555   4.171  0.8495 -0.9446 -0.3646
 8560TIP3   OH225612   3.798   3.791   1.445 -0.1197  0.3749  0.1341
 8560TIP3    H125613   3.708   3.799   1.412  0.0017 -1.0245 -0.5579
 8560TIP3    H225614   3.795   3.716   1.504  0.6596  0.1539 -0.1124
 8561TIP3   OH225615   4.306   7.583   3.069 -0.6879 -0.2851  0.2835
 8561TIP3    H125616   4.308   7.501   3.019  0.1607  0.1796 -0.4803
 8561TIP3    H225617   4.216   7.591   3.100 -0.9774 -1.0976 -0.3358
 8562TIP3   OH225618   1.329   4.979   4.374  0.7911 -0.4266  0.1076
 8562TIP3    H125619   1.297   5.070   4.378 -0.7676 -0.9809  0.5516
 8562TIP3    H225620   1.259   4.931   4.329  1.1694 -1.5916  0.7488
 8563TIP3   OH225621   3.914   6.560   3.130  0.5646  0.3442  0.4518
 8563TIP3    H125622   3.879   6.538   3.043 -0.9620  0.0013  1.1354
 8563TIP3    H225623   3.964   6.483   3.156  0.9316  0.4003 -0.0721
 8564TIP3   OH225624   2.222   7.236   3.552 -0.1548 -0.2109  0.2011
 8564TIP3    H125625   2.288   7.176   3.587 -0.7388 -0.7095  0.4347
 8564TIP3    H225626   2.171   7.184   3.490  0.1132  0.3610 -0.5218
 8565TIP3   OH225627   3.857   6.581   3.648  0.5900 -0.5781  0.0185
 8565TIP3    H125628   3.815   6.496   3.645 -2.5827  0.8532  1.3632
 8565TIP3    H225629   3.870   6.606   3.557  0.8084 -2.1169 -0.3789
 8566TIP3   OH225630   6.929   6.093   5.600  0.5205  0.4735  0.0178
 8566TIP3    H125631   6.955   6.101   5.508 -2.4801  1.4541 -0.8212
 8566TIP3    H225632   6.858   6.028   5.599  0.5715  0.3646  1.6705
 8567TIP3   OH225633   3.877   7.401   5.052 -0.0176 -0.1658 -0.0713
 8567TIP3    H125634   3.932   7.459   5.106 -1.9788  2.0143 -0.3099
 8567TIP3    H225635   3.798   7.389   5.104  0.2179 -2.3749 -0.2067
 8568TIP3   OH225636   4.817   7.868   3.658 -0.8645  0.2953 -0.5665
 8568TIP3    H125637   4.775   7.898   3.738 -0.8124 -2.2134  0.4603
 8568TIP3    H225638   4.747   7.823   3.610 -0.1313 -1.0772 -0.3742
 8569TIP3   OH225639   3.729   7.782   3.112  0.1706 -0.1590  0.0441
 8569TIP3    H125640   3.779   7.746   3.185  0.6225  0.8823  0.2550
 8569TIP3    H225641   3.769   7.867   3.095 -0.7056  0.1253 -0.6355
 8570TIP3   OH225642   2.205   7.230   2.728 -0.1178 -0.1109 -0.1855
 8570TIP3    H125643   2.174   7.305   2.677 -0.3713  1.2922  1.9523
 8570TIP3    H225644   2.214   7.159   2.664 -2.8234  0.8717 -1.7370
 8571TIP3   OH225645   2.324   1.807   0.027 -0.2477 -0.0726 -0.1643
 8571TIP3    H125646   2.384   1.801   0.102  0.2903 -1.0646 -0.6493
 8571TIP3    H225647   2.238   1.817   0.066  0.2136  1.1954  0.5574
 8572TIP3   OH225648   6.455   0.125   3.298 -0.1879  0.2582 -0.3947
 8572TIP3    H125649   6.527   0.116   3.235  1.3623  0.6029  1.2830
 8572TIP3    H225650   6.453   0.218   3.319 -1.2023  0.2638 -0.5094
 8573TIP3   OH225651   0.827   5.221   3.884  0.4624 -0.1715  0.1511
 8573TIP3    H125652   0.818   5.277   3.807 -2.5792 -0.0985  0.5115
 8573TIP3    H225653   0.773   5.262   3.951 -1.6568 -3.3337  0.5068
 8574TIP3   OH225654   4.143   4.412   2.374 -0.0868  0.2121 -0.1024
 8574TIP3    H125655   4.080   4.384   2.308 -0.9258 -0.1764  0.8479
 8574TIP3    H225656   4.208   4.342   2.377 -0.6173 -0.2756  0.2189
 8575TIP3   OH225657   3.783   6.314   3.693  0.2985 -0.1251 -0.4153
 8575TIP3    H125658   3.712   6.272   3.743 -0.9628  2.6967  0.2792
 8575TIP3    H225659   3.766   6.289   3.603 -1.2345 -0.0403 -0.1794
 8576TIP3   OH225660   5.177   6.786   3.507  0.0877 -0.2453  0.2393
 8576TIP3    H125661   5.266   6.813   3.529 -0.0486 -0.2172  0.7750
 8576TIP3    H225662   5.177   6.776   3.412  0.3759  0.8171  0.1191
 8577TIP3   OH225663   3.051   3.653   1.307 -0.6645 -0.0894 -0.1558
 8577TIP3    H125664   3.007   3.679   1.226 -1.8544  1.1974  0.8701
 8577TIP3    H225665   3.142   3.678   1.295 -1.3996  2.9095  0.0394
 8578TIP3   OH225666   3.951   5.589   2.459  0.1109  0.3709  0.1305
 8578TIP3    H125667   3.884   5.607   2.526 -2.6244 -0.8119 -2.1778
 8578TIP3    H225668   3.977   5.498   2.475  0.2151  0.4169  0.2234
 8579TIP3   OH225669   5.540   5.260   4.196  0.0559 -0.7154  0.2665
 8579TIP3    H125670   5.501   5.346   4.208  1.3011 -0.2679  1.2014
 8579TIP3    H225671   5.634   5.277   4.194  0.4039 -2.2767  2.3353
 8580TIP3   OH225672   2.868   5.140   3.988  0.0119 -0.0263 -0.3307
 8580TIP3    H125673   2.830   5.088   4.059  0.3386 -1.6046 -1.2757
 8580TIP3    H225674   2.960   5.153   4.014 -0.1314  0.2934  0.0212
 8581TIP3   OH225675   2.861   6.648   5.209 -0.2661  0.1512  0.2230
 8581TIP3    H125676   2.851   6.676   5.300 -2.7599 -1.2793  0.4162
 8581TIP3    H225677   2.852   6.729   5.159  0.3034  0.8243  1.1780
 8582TIP3   OH225678   3.677   6.112   2.902 -0.2807 -0.4522  0.3177
 8582TIP3    H125679   3.741   6.134   2.971  0.7615 -1.8272 -0.1846
 8582TIP3    H225680   3.630   6.036   2.937  0.4498 -1.3394 -0.5799
 8583TIP3   OH225681   4.211   4.215   0.707 -0.1320 -0.0493  0.0570
 8583TIP3    H125682   4.121   4.244   0.720  0.0561  0.3110  0.5704
 8583TIP3    H225683   4.248   4.213   0.795 -0.1508 -1.8542  0.0373
 8584TIP3   OH225684   3.689   5.930   1.171 -0.0309  0.0721  0.5011
 8584TIP3    H125685   3.608   5.938   1.222 -0.5807 -1.5899 -0.0519
 8584TIP3    H225686   3.758   5.950   1.233 -0.8780  1.8375  0.9027
 8585TIP3   OH225687   1.980   2.497   4.617 -0.1503  0.0998 -0.5097
 8585TIP3    H125688   2.024   2.540   4.690 -1.7200 -0.2979  0.6982
 8585TIP3    H225689   1.888   2.521   4.626 -0.6483 -1.4098 -1.3167
 8586TIP3   OH225690   5.806   5.539   2.220  0.0222 -0.4760 -0.4248
 8586TIP3    H125691   5.806   5.635   2.222 -0.4825 -0.4561 -1.1834
 8586TIP3    H225692   5.725   5.516   2.175  0.3517 -1.2529 -0.6258
 8587TIP3   OH225693   5.077   7.652   2.111  0.2478  0.0850  0.2821
 8587TIP3    H125694   5.105   7.569   2.149 -1.1945 -0.9004 -0.7582
 8587TIP3    H225695   5.049   7.705   2.186 -1.6523 -1.4754  0.7080
 8588TIP3   OH225696   3.316   4.819   5.695 -0.1230 -0.2983  0.2529
 8588TIP3    H125697   3.306   4.724   5.688  2.0850 -0.5021 -0.3628
 8588TIP3    H225698   3.349   4.845   5.609 -0.6093  1.0209  0.4620
 8589TIP3   OH225699   3.494   5.596   3.330 -0.5472 -0.3758  0.1105
 8589TIP3    H125700   3.472   5.682   3.365 -1.8513 -1.5995  2.4099
 8589TIP3    H225701   3.513   5.543   3.407  1.6410 -1.7989 -1.3441
 8590TIP3   OH225702   4.691   6.472   5.305  0.3384  0.1297  0.1359
 8590TIP3    H125703   4.655   6.427   5.229 -2.0267  3.3582 -0.7846
 8590TIP3    H225704   4.681   6.409   5.377  1.0050 -2.3140 -1.8706
 8591TIP3   OH225705   3.031   4.300   5.457 -0.1103  0.1427 -0.4491
 8591TIP3    H125706   2.962   4.364   5.438 -0.5638 -0.1386  0.2358
 8591TIP3    H225707   3.004   4.222   5.409 -0.2529  0.0428 -0.2069
 8592TIP3   OH225708   4.381   6.166   6.471 -0.0996 -0.5045 -0.0423
 8592TIP3    H125709   4.436   6.171   6.393  0.7271 -1.2492  0.4821
 8592TIP3    H225710   4.351   6.075   6.475 -0.5342 -0.3545  0.2410
 8593TIP3   OH225711   5.200   6.076   3.086  0.4087 -0.0886  0.3413
 8593TIP3    H125712   5.268   6.103   3.147  1.3712 -1.2956 -0.1950
 8593TIP3    H225713   5.240   6.086   2.999 -0.6092  0.6413 -0.0627
 8594TIP3   OH225714   5.118   4.726   5.866 -0.1809 -0.8861  0.3682
 8594TIP3    H125715   5.038   4.691   5.906  0.0409 -0.5023  1.1654
 8594TIP3    H225716   5.189   4.698   5.924 -0.0261  1.0676  1.1700
 8595TIP3   OH225717   5.664   6.299   2.840  0.6029 -0.6031 -0.2151
 8595TIP3    H125718   5.708   6.282   2.756  0.6392  1.0862 -0.5538
 8595TIP3    H225719   5.695   6.230   2.898  0.8287 -1.6026 -1.5083
 8596TIP3   OH225720   4.867   6.310   3.678 -0.2124  0.2764  0.1957
 8596TIP3    H125721   4.804   6.376   3.647  1.0165  1.0477 -0.6700
 8596TIP3    H225722   4.910   6.278   3.599  1.4562  0.7525  0.8914
 8597TIP3   OH225723   6.778   6.628   3.198  0.3181  0.1448  0.2436
 8597TIP3    H125724   6.762   6.715   3.235 -0.4387  0.7470 -1.4173
 8597TIP3    H225725   6.714   6.571   3.240 -0.4020  0.7726  0.0049
 8598TIP3   OH225726   4.122   5.814   1.891  0.0160  0.0040  0.0057
 8598TIP3    H125727   4.056   5.778   1.952 -0.6469 -1.1724 -1.3823
 8598TIP3    H225728   4.202   5.765   1.911 -0.1584 -0.2705  0.0425
 8599TIP3   OH225729   5.225   7.092   1.691 -0.7262 -0.1424 -0.4737
 8599TIP3    H125730   5.274   7.171   1.671  2.4355 -1.8055  0.3681
 8599TIP3    H225731   5.156   7.120   1.751  0.9631  1.7871  0.5882
 8600TIP3   OH225732   7.116   0.308   3.206 -0.3697 -0.7414  0.1235
 8600TIP3    H125733   7.064   0.332   3.129  1.2617  0.0109 -0.7687
 8600TIP3    H225734   7.070   0.234   3.244 -1.7601 -0.4688 -0.9996
 8601TIP3   OH225735   6.769   7.347   2.353  0.7801  0.4261  0.7401
 8601TIP3    H125736   6.817   7.390   2.282  1.2462 -1.5164 -0.1576
 8601TIP3    H225737   6.838   7.310   2.409  0.3697 -0.4148  0.6947
 8602TIP3   OH225738   7.875   4.546   4.414  0.7366 -0.3563  0.1551
 8602TIP3    H125739   7.887   4.602   4.491 -2.7069 -0.4825  0.8486
 8602TIP3    H225740   7.810   4.481   4.440 -0.1310 -0.7110 -2.6855
 8603TIP3   OH225741   5.941   7.546   2.150  0.0030  0.2467 -0.3590
 8603TIP3    H125742   6.010   7.479   2.148 -0.0680  0.1710 -0.3050
 8603TIP3    H225743   5.921   7.556   2.243 -0.4110 -0.0936 -0.4059
 8604TIP3   OH225744   4.188   5.754   4.000 -0.0265  0.0227 -0.1637
 8604TIP3    H125745   4.227   5.818   3.941 -0.2782  0.9002  0.6193
 8604TIP3    H225746   4.106   5.729   3.957  1.0072 -1.2852 -1.4510
 8605TIP3   OH225747   5.746   5.725   1.081 -0.0493 -0.1023  0.6696
 8605TIP3    H125748   5.754   5.797   1.019  0.9824 -0.6554  0.1546
 8605TIP3    H225749   5.798   5.654   1.043  0.5349 -0.4777  2.1329
 8606TIP3   OH225750   5.638   7.548   2.873  0.1803  0.1122 -0.3069
 8606TIP3    H125751   5.691   7.524   2.798  0.5921  0.0940 -0.0113
 8606TIP3    H225752   5.693   7.609   2.923  1.0038 -2.0025  1.4334
 8607TIP3   OH225753   3.229   4.410   4.709 -0.3519  0.6715  0.0696
 8607TIP3    H125754   3.166   4.482   4.702 -0.7754  0.4287  1.3110
 8607TIP3    H225755   3.175   4.331   4.715  0.1119  0.2187 -1.4011
 8608TIP3   OH225756   6.196   6.483   4.118  0.0148 -0.2222 -0.3094
 8608TIP3    H125757   6.162   6.490   4.208  0.7475 -1.3718  0.0581
 8608TIP3    H225758   6.157   6.558   4.072  0.2968  0.8635  1.1761
 8609TIP3   OH225759   5.176   5.403   5.017  0.0455 -0.0449  0.0548
 8609TIP3    H125760   5.176   5.354   4.935  0.1326  1.1853 -0.6929
 8609TIP3    H225761   5.145   5.341   5.083 -2.5983 -0.2961 -1.3564
 8610TIP3   OH225762   8.016   7.701   4.017  0.5206  0.1443  0.2136
 8610TIP3    H125763   8.023   7.795   4.001  0.8222 -0.0927 -1.0903
 8610TIP3    H225764   8.103   7.667   3.998  0.1654 -0.5280 -0.2143
 8611TIP3   OH225765   3.168   6.875   3.948  0.4484  0.2147  0.2269
 8611TIP3    H125766   3.229   6.871   4.023  0.8122 -0.7639 -0.1176
 8611TIP3    H225767   3.089   6.917   3.984  1.3916  1.7086  0.6249
 8612TIP3   OH225768   0.123   3.476   2.102  0.2915 -0.3078 -0.1302
 8612TIP3    H125769   0.194   3.415   2.082  0.7502  0.9714 -2.5354
 8612TIP3    H225770   0.086   3.443   2.184  0.9060 -3.4539 -1.0551
 8613TIP3   OH225771   6.535   6.585   3.015  0.2460 -0.6555  0.1908
 8613TIP3    H125772   6.595   6.515   3.041 -0.6426 -1.6459 -0.4187
 8613TIP3    H225773   6.484   6.548   2.943 -0.3598  0.5506 -0.0095
 8614TIP3   OH225774   5.056   7.110   3.851 -0.0463  0.1533 -0.4428
 8614TIP3    H125775   5.026   7.064   3.930  0.5776  1.0951  0.3617
 8614TIP3    H225776   4.976   7.143   3.810 -0.2163  1.6956  1.0837
 8615TIP3   OH225777   6.275   0.008   0.875 -0.1024  0.5400  0.0186
 8615TIP3    H125778   6.332   0.061   0.818  1.1143 -1.3001 -0.5144
 8615TIP3    H225779   6.328  -0.068   0.898 -1.5011  0.0085  1.5467
 8616TIP3   OH225780   6.094   6.816   4.341  0.1718 -0.2085  0.5970
 8616TIP3    H125781   6.038   6.890   4.317 -0.3900 -0.7563  0.2053
 8616TIP3    H225782   6.131   6.841   4.426 -1.2852 -0.1690  1.2457
 8617TIP3   OH225783   6.472   7.464   3.467  0.2357  0.4922 -0.1623
 8617TIP3    H125784   6.410   7.448   3.396  0.7445  0.9698 -0.7150
 8617TIP3    H225785   6.523   7.383   3.473 -0.2424  0.2039  0.1066
 8618TIP3   OH225786   6.485   5.549   2.646  0.2299  0.0927 -0.2784
 8618TIP3    H125787   6.442   5.485   2.590  0.0468 -1.2384  1.3497
 8618TIP3    H225788   6.537   5.498   2.707 -0.0318  1.4559  1.1423
 8619TIP3   OH225789   4.878   7.529   4.654 -0.6499 -0.0069  0.7656
 8619TIP3    H125790   4.903   7.490   4.570 -1.3608  0.6534  0.2301
 8619TIP3    H225791   4.952   7.512   4.712 -0.0585 -0.2915 -0.0631
 8620TIP3   OH225792   6.363   7.574   4.857  0.2907 -0.0103  0.1440
 8620TIP3    H125793   6.425   7.593   4.928  2.0262  0.2773 -1.3897
 8620TIP3    H225794   6.401   7.617   4.780 -1.1692 -0.9136 -1.1214
 8621TIP3   OH225795   0.554   1.850   5.059 -0.3989 -0.2226 -0.3171
 8621TIP3    H125796   0.619   1.858   4.989  1.4247  2.7162  1.6327
 8621TIP3    H225797   0.486   1.914   5.037 -0.4903 -0.2432 -0.0973
 8622TIP3   OH225798   6.573   4.081   3.504  0.3497 -0.0440  0.1237
 8622TIP3    H125799   6.519   4.060   3.579 -1.1801  0.1428 -0.9134
 8622TIP3    H225800   6.623   4.158   3.531  0.8682 -0.8254  1.4377
 8623TIP3   OH225801   5.941   4.832   3.717  0.1569 -0.0852 -0.1416
 8623TIP3    H125802   6.001   4.906   3.729 -0.4892  0.2145  1.3949
 8623TIP3    H225803   5.997   4.754   3.723  0.7115  0.2483 -0.9221
 8624TIP3   OH225804   5.273   6.228   3.738 -0.5480  0.1632 -0.3622
 8624TIP3    H125805   5.268   6.306   3.682 -1.9546  1.2911  1.2580
 8624TIP3    H225806   5.354   6.239   3.788 -0.5235  0.3795 -0.4494
 8625TIP3   OH225807   5.869   7.488   3.054  0.2117  0.2536  1.2349
 8625TIP3    H125808   5.780   7.479   3.088  0.1235 -0.9580  0.6985
 8625TIP3    H225809   5.858   7.501   2.960  0.6102  0.0693  1.1630
 8626TIP3   OH225810   5.713   7.711   3.878 -0.4968 -0.4113  0.0428
 8626TIP3    H125811   5.701   7.805   3.866  0.1400 -0.4780 -1.1707
 8626TIP3    H225812   5.653   7.671   3.816  0.3801 -0.7879 -0.5711
 8627TIP3   OH225813   6.286   5.252   4.593 -0.1368  0.1415 -0.0827
 8627TIP3    H125814   6.340   5.280   4.518 -0.3602  1.1590  0.1241
 8627TIP3    H225815   6.334   5.284   4.669 -0.3748 -0.0927  0.1616
 8628TIP3   OH225816   5.290   6.113   4.123 -0.4180  0.0027 -0.3639
 8628TIP3    H125817   5.286   6.019   4.107  0.2221 -0.5300  2.2428
 8628TIP3    H225818   5.213   6.132   4.176 -0.3506  0.8668 -0.5641
 8629TIP3   OH225819   5.395   6.701   3.096 -0.1764 -0.3235  0.0418
 8629TIP3    H125820   5.358   6.787   3.113  0.4229 -0.7382  3.6779
 8629TIP3    H225821   5.488   6.717   3.081  0.0239 -0.3935  1.2157
 8630TIP3   OH225822   5.175   5.108   6.087 -0.1837 -0.3244  0.3895
 8630TIP3    H125823   5.163   5.018   6.116 -0.3675  0.1692  1.8551
 8630TIP3    H225824   5.254   5.138   6.132  0.2680  0.0379 -0.6133
 8631TIP3   OH225825   6.641   5.819   4.179 -0.2370 -0.7316 -0.3176
 8631TIP3    H125826   6.708   5.818   4.246  0.1759  0.7235 -0.6731
 8631TIP3    H225827   6.566   5.774   4.218 -0.3693  1.0192  1.5208
 8632TIP3   OH225828   5.790   5.376   0.674 -0.1834 -0.4522 -0.9451
 8632TIP3    H125829   5.791   5.372   0.769 -0.4735 -2.9140 -1.0247
 8632TIP3    H225830   5.719   5.437   0.654 -0.3098 -0.1387  0.4057
 8633TIP3   OH225831   2.376   5.483   1.975  0.1016 -0.0111  0.5986
 8633TIP3    H125832   2.360   5.504   2.067  1.1692  0.1271  0.7598
 8633TIP3    H225833   2.301   5.518   1.928  0.5119  1.6682  1.1831
 8634TIP3   OH225834   7.959   0.064   2.112  0.4341  0.3470  0.0116
 8634TIP3    H125835   8.041   0.057   2.062  0.0621 -0.0034 -0.5482
 8634TIP3    H225836   7.988   0.070   2.203  1.0926  0.3641 -0.1932
 8635TIP3   OH225837   5.656   6.797   3.080  0.0518  0.4367 -0.2114
 8635TIP3    H125838   5.744   6.823   3.109 -0.1268  1.4277 -0.5500
 8635TIP3    H225839   5.606   6.879   3.077 -0.9240 -0.1314  0.0957
 8636TIP3   OH225840   6.310   5.636   4.587  0.5005 -0.0927  0.0050
 8636TIP3    H125841   6.308   5.566   4.653  1.1821 -1.2864 -1.2183
 8636TIP3    H225842   6.226   5.629   4.542  1.0112 -0.8488 -0.8449
 8637TIP3   OH225843   7.408   5.980   2.946  0.2552  0.4361 -0.2041
 8637TIP3    H125844   7.487   5.977   2.999 -0.9763 -3.0914  1.5785
 8637TIP3    H225845   7.439   5.970   2.856  1.8665 -0.2860  0.4143
 8638TIP3   OH225846   0.955   0.032   3.211 -0.1626  0.3190  0.4586
 8638TIP3    H125847   0.934  -0.042   3.154  1.9468 -1.9446  2.4701
 8638TIP3    H225848   1.042   0.059   3.184  0.2959  0.1054  1.6929
 8639TIP3   OH225849   3.427   7.776   3.517  0.2372 -0.5034  0.0565
 8639TIP3    H125850   3.404   7.683   3.506  0.4418 -0.3022 -2.1510
 8639TIP3    H225851   3.424   7.813   3.429  0.3028  1.5757  0.8980
 8640TIP3   OH225852   3.715   5.279   1.814  0.9247 -0.0607  0.0455
 8640TIP3    H125853   3.627   5.318   1.811  0.6750 -0.5936  0.2872
 8640TIP3    H225854   3.731   5.250   1.724  1.2168  0.8305 -0.1872
 8641TIP3   OH225855   5.973   7.569   4.163  0.3237  0.1565 -0.3113
 8641TIP3    H125856   5.915   7.501   4.128  0.4897  0.3776 -1.0300
 8641TIP3    H225857   5.915   7.636   4.197  0.0558 -2.0758  4.0399
 8642TIP3   OH225858   6.718   6.848   4.925  0.2326  0.5412 -0.1014
 8642TIP3    H125859   6.649   6.830   4.861 -0.9187  2.0108  0.7025
 8642TIP3    H225860   6.700   6.937   4.955  1.3494  0.2270  1.5408
 8643TIP3   OH225861   5.871   7.783   1.596  0.5184  0.5573 -0.4250
 8643TIP3    H125862   5.962   7.807   1.610  0.1765  1.2575  0.6644
 8643TIP3    H225863   5.833   7.778   1.684 -0.4371  0.0457 -0.8534
 8644TIP3   OH225864   4.205   7.133   1.783 -0.2036 -0.4379 -0.2508
 8644TIP3    H125865   4.266   7.059   1.775 -1.2217 -1.5050  1.5070
 8644TIP3    H225866   4.128   7.106   1.732  0.7641  0.9431 -2.5417
 8645TIP3   OH225867   5.033   6.843   3.990  0.3879  0.2131 -0.2922
 8645TIP3    H125868   4.979   6.876   3.917  1.1838 -0.0640 -1.0146
 8645TIP3    H225869   5.103   6.794   3.947  1.2614  0.6360  0.6491
 8646TIP3   OH225870   6.653   7.090   2.951  0.0796  0.0100  0.0005
 8646TIP3    H125871   6.739   7.071   2.989 -0.6097 -0.7546  1.2277
 8646TIP3    H225872   6.615   7.004   2.934  0.3373  0.3368 -2.4087
 8647TIP3   OH225873   5.061   6.472   3.786  0.1827  0.1095  0.1956
 8647TIP3    H125874   5.080   6.433   3.871  1.2986  1.4834  0.6198
 8647TIP3    H225875   5.000   6.412   3.744  0.6524 -1.2633  1.4296
 8648TIP3   OH225876   5.224   5.855   4.066  0.1319 -0.2520  0.1603
 8648TIP3    H125877   5.133   5.833   4.049  0.4778  0.0496 -2.2437
 8648TIP3    H225878   5.273   5.783   4.025  1.0458  1.2275 -1.4141
 8649TIP3   OH225879   8.098   3.533   4.988 -0.0526  0.0296 -0.5179
 8649TIP3    H125880   8.086   3.627   4.975  0.3384 -0.0343 -1.3536
 8649TIP3    H225881   8.168   3.508   4.927  2.3689 -0.1428  2.1734
 8650TIP3   OH225882   6.676   6.078   2.135  0.1319  0.0172  0.7093
 8650TIP3    H125883   6.766   6.091   2.104  0.9296 -0.8160  2.5757
 8650TIP3    H225884   6.623   6.080   2.056  1.9026 -0.3721 -0.5258
 8651TIP3   OH225885   7.786   6.473   3.965  0.4189  1.0321 -0.2649
 8651TIP3    H125886   7.713   6.484   3.904 -1.3612  0.3471  1.6750
 8651TIP3    H225887   7.750   6.421   4.036  2.2499  2.3460  1.6939
 8652TIP3   OH225888   5.834   5.432   3.570 -0.5264 -0.2364  0.3008
 8652TIP3    H125889   5.781   5.380   3.630 -0.8983  0.0632  0.2297
 8652TIP3    H225890   5.847   5.515   3.615 -0.0815 -0.3264  0.3381
 8653TIP3   OH225891   3.769   5.986   5.033  0.0159  0.0649 -0.1708
 8653TIP3    H125892   3.859   5.953   5.029  0.8405  2.4196 -2.1457
 8653TIP3    H225893   3.766   6.038   5.113  0.7451  0.8605 -0.6512
 8654TIP3   OH225894   6.411   4.750   3.581 -0.1828  0.2800 -0.4168
 8654TIP3    H125895   6.482   4.809   3.556  2.0589 -1.7304  0.9442
 8654TIP3    H225896   6.397   4.696   3.504 -0.9095  1.3366 -1.0220
 8655TIP3   OH225897   6.692   6.713   2.466 -0.1938 -0.3900 -0.2496
 8655TIP3    H125898   6.633   6.699   2.391 -1.9718  0.8706  0.8880
 8655TIP3    H225899   6.708   6.807   2.466  2.2635 -0.7675 -0.8232
 8656TIP3   OH225900   4.952   6.676   4.184  0.3005 -0.0853  0.0644
 8656TIP3    H125901   5.041   6.641   4.187  0.2410 -0.2240  0.2501
 8656TIP3    H225902   4.954   6.742   4.115  0.9470  1.0428  1.1577
 8657TIP3   OH225903   4.112   5.991   3.155 -0.1201  0.0762 -0.2404
 8657TIP3    H125904   4.048   5.940   3.106  0.5623 -0.0724 -0.9727
 8657TIP3    H225905   4.129   5.939   3.233  1.6096 -1.4839 -1.6336
 8658TIP3   OH225906   6.116   4.806   3.485  0.4715  0.2715 -0.0506
 8658TIP3    H125907   6.121   4.711   3.490  1.3460  0.2838 -0.6450
 8658TIP3    H225908   6.028   4.827   3.519 -0.7097 -0.9180 -2.2742
 8659TIP3   OH225909   4.151   6.113   0.173  0.1056  0.5096 -0.6243
 8659TIP3    H125910   4.244   6.108   0.148  0.0966 -0.5317 -0.4656
 8659TIP3    H225911   4.104   6.110   0.090  0.2055  0.7942 -0.6919
 8660TIP3   OH225912   5.702   5.165   6.477  0.2831 -0.0703 -0.3862
 8660TIP3    H125913   5.671   5.075   6.479  0.4740 -0.1305 -0.1714
 8660TIP3    H225914   5.734   5.181   6.565 -1.4407  0.7919  0.1189
 8661TIP3   OH225915   0.116   6.581   3.005 -0.3927  0.0255  0.0130
 8661TIP3    H125916   0.170   6.508   3.035 -1.4413  0.0294  2.0364
 8661TIP3    H225917   0.032   6.541   2.984 -1.0771  0.6651  1.4486
 8662TIP3   OH225918   0.632   6.792   2.424 -0.1975 -0.2470 -0.3889
 8662TIP3    H125919   0.577   6.869   2.439  1.2975  0.5994  0.9170
 8662TIP3    H225920   0.683   6.814   2.346  1.3807  0.8148  0.8834
 8663TIP3   OH225921   5.452   6.256   3.953  0.6273 -0.3863  0.3751
 8663TIP3    H125922   5.399   6.231   4.029 -0.0232  0.8454  0.3270
 8663TIP3    H225923   5.505   6.329   3.984  1.6339 -1.0101  0.1475
 8664TIP3   OH225924   5.027   7.733   0.726 -0.0144 -0.2187 -0.0192
 8664TIP3    H125925   5.013   7.825   0.705  1.1816 -0.0739 -0.1981
 8664TIP3    H225926   5.121   7.719   0.712  0.3950 -0.7016  2.9464
 8665TIP3   OH225927   5.962   5.189   3.134 -0.2114 -0.2564  0.1767
 8665TIP3    H125928   5.910   5.243   3.194 -0.1140  2.1914 -1.8550
 8665TIP3    H225929   6.051   5.225   3.142 -0.0349 -0.4848 -0.7798
 8666TIP3   OH225930   6.681   6.576   1.897 -0.3912 -0.3595 -0.0204
 8666TIP3    H125931   6.604   6.524   1.920 -0.0681 -0.9593 -0.2947
 8666TIP3    H225932   6.736   6.573   1.976 -0.7543  0.2644  0.2581
 8667TIP3   OH225933   7.149   6.890   4.901  0.4464  0.1674  0.6218
 8667TIP3    H125934   7.079   6.920   4.844 -0.0990 -1.1456  0.5809
 8667TIP3    H225935   7.168   6.965   4.958  0.8122  1.4037 -1.0823
 8668TIP3   OH225936   4.309   6.475   5.223  0.1625 -0.5878 -0.2080
 8668TIP3    H125937   4.365   6.430   5.160  0.1173 -0.7397 -0.1406
 8668TIP3    H225938   4.266   6.544   5.173 -0.4003 -1.1485 -0.4931
 8669TIP3   OH225939   5.505   5.111   4.565  0.2567  0.1527 -0.7087
 8669TIP3    H125940   5.476   5.044   4.627  0.2572 -0.7072 -1.6321
 8669TIP3    H225941   5.489   5.073   4.479  1.6807  0.7313 -1.2393
 8670TIP3   OH225942   4.695   5.011   4.246 -0.1956  0.2644 -0.4821
 8670TIP3    H125943   4.774   4.957   4.243 -1.4257 -1.7664  2.1614
 8670TIP3    H225944   4.645   4.985   4.169  0.3153 -0.6298 -0.5158
 8671TIP3   OH225945   6.026   5.596   5.504 -0.4076 -0.3840  0.7054
 8671TIP3    H125946   5.934   5.576   5.523 -0.7523 -0.7072 -1.2569
 8671TIP3    H225947   6.058   5.637   5.585 -2.0493 -0.9832  1.6966
 8672TIP3   OH225948   6.808   4.654   2.353  0.2717 -0.1478 -0.2021
 8672TIP3    H125949   6.853   4.614   2.279  1.2937 -0.1882  0.4270
 8672TIP3    H225950   6.870   4.646   2.426  0.0913  1.6919  0.1698
 8673TIP3   OH225951   7.637   4.172   2.670 -0.0108 -0.0553  0.3031
 8673TIP3    H125952   7.583   4.247   2.647 -1.8829 -1.2303  0.8131
 8673TIP3    H225953   7.598   4.099   2.623 -0.5064 -1.4242  2.7620
 8674TIP3   OH225954   7.999   6.880   3.385 -0.2117  0.1748  0.0781
 8674TIP3    H125955   8.044   6.831   3.453 -0.1097 -1.0134 -0.8180
 8674TIP3    H225956   8.065   6.892   3.316  0.0519  2.4338  0.6815
 8675TIP3   OH225957   5.924   5.333   2.335 -0.1913 -0.0795 -0.2112
 8675TIP3    H125958   5.882   5.413   2.302  0.2859 -0.0656 -0.7955
 8675TIP3    H225959   5.987   5.309   2.267 -1.1907 -1.6530 -0.6153
 8676TIP3   OH225960   4.624   4.387   2.859 -0.0567 -0.1860  0.3749
 8676TIP3    H125961   4.535   4.423   2.851  1.4041  3.1998 -1.7926
 8676TIP3    H225962   4.620   4.304   2.811 -1.7431  0.5917 -0.9114
 8677TIP3   OH225963   6.554   6.544   0.667 -0.5239  0.3267 -0.2580
 8677TIP3    H125964   6.560   6.621   0.611 -2.1741  1.5511  1.1883
 8677TIP3    H225965   6.509   6.575   0.746  1.3624 -1.4307  1.5950
 8678TIP3   OH225966   4.023   5.075   2.660 -0.0719 -0.1214  0.0498
 8678TIP3    H125967   4.099   5.025   2.630 -0.0328  0.8328 -1.4696
 8678TIP3    H225968   3.965   5.009   2.699  1.0482 -0.9959  0.2757
 8679TIP3   OH225969   6.814   0.148   2.440 -0.3786  0.3603  0.1659
 8679TIP3    H125970   6.755   0.154   2.515  0.9198  0.1871  1.2186
 8679TIP3    H225971   6.898   0.121   2.477 -0.6185 -3.3346 -1.7950
 8680TIP3   OH225972   6.042   6.905   5.737 -0.4477  0.4606 -0.7031
 8680TIP3    H125973   6.093   6.982   5.714  0.5202  0.6720  1.9832
 8680TIP3    H225974   5.957   6.939   5.764  0.2484  0.6643  1.2536
 8681TIP3   OH225975   7.740   7.082   0.207 -0.0988  0.1046 -0.6837
 8681TIP3    H125976   7.773   7.027   0.277 -1.3754  2.8547  2.2296
 8681TIP3    H225977   7.646   7.063   0.204  0.1917 -1.1358 -2.7715
 8682TIP3   OH225978   6.348   6.694   4.714 -0.3497 -0.0236  0.1678
 8682TIP3    H125979   6.414   6.626   4.700 -0.5590  0.0337 -1.1942
 8682TIP3    H225980   6.396   6.776   4.706 -0.3484 -0.0011  0.4243
 8683TIP3   OH225981   6.509   6.482   2.709 -0.2506  0.0212  0.2653
 8683TIP3    H125982   6.507   6.440   2.623  1.2389  1.6439 -0.6011
 8683TIP3    H225983   6.422   6.523   2.717  0.4966  2.0924 -1.6494
 8684TIP3   OH225984   5.462   6.412   2.701  0.0740  0.1674  0.6111
 8684TIP3    H125985   5.525   6.350   2.738 -2.1286 -2.0906  0.7253
 8684TIP3    H225986   5.430   6.462   2.776  1.2584  0.9025  0.6354
 8685TIP3   OH225987   6.033   5.897   4.156  0.2977 -0.1103 -0.0239
 8685TIP3    H125988   6.039   5.819   4.100 -1.2878  0.0691 -0.4489
 8685TIP3    H225989   6.107   5.951   4.128  0.1369 -0.4914 -1.2334
 8686TIP3   OH225990   6.981   5.252   4.132  0.3113 -0.5257 -0.2084
 8686TIP3    H125991   7.046   5.271   4.064  1.2345 -1.2392  0.4512
 8686TIP3    H225992   7.006   5.166   4.165 -0.4379 -0.4139  0.6750
 8687TIP3   OH225993   7.386   0.311   3.140 -0.1967 -0.1048  0.5935
 8687TIP3    H125994   7.382   0.392   3.091  0.4072 -1.4680 -1.7766
 8687TIP3    H225995   7.306   0.311   3.193 -1.1445  1.1518 -0.8135
 8688TIP3   OH225996   6.104   7.265   5.207 -0.3235 -0.2769 -0.3562
 8688TIP3    H125997   6.140   7.317   5.135  0.3729 -1.8630 -1.1781
 8688TIP3    H225998   6.034   7.320   5.243 -1.8935 -0.1743 -3.3981
 8689TIP3   OH225999   5.614   5.690   1.730 -0.4850  0.6877  0.5297
 8689TIP3    H126000   5.647   5.604   1.705  0.5717  0.5680  2.2188
 8689TIP3    H226001   5.525   5.675   1.760  0.1711 -0.0583  2.1488
 8690TIP3   OH226002   6.096   7.333   4.695  0.1740 -1.3217 -0.4180
 8690TIP3    H126003   6.075   7.394   4.624  3.0889  2.0312  1.4087
 8690TIP3    H226004   6.175   7.288   4.665  1.1281 -0.2533  0.4440
 8691TIP3   OH226005   4.244   5.840   4.254 -0.0078 -0.1049 -0.3383
 8691TIP3    H126006   4.219   5.795   4.173  2.2168 -0.4643 -0.8531
 8691TIP3    H226007   4.228   5.775   4.323  1.3038 -0.9905 -0.8645
 8692TIP3   OH226008   4.333   7.182   5.326 -0.0149  0.3065  0.8679
 8692TIP3    H126009   4.362   7.267   5.359 -0.4664  0.4977  0.7772
 8692TIP3    H226010   4.246   7.170   5.363 -1.0916  1.1370 -1.3050
 8693TIP3   OH226011   7.506   5.874   0.297 -0.5685 -0.3111  0.1756
 8693TIP3    H126012   7.482   5.838   0.382  0.9955 -0.6729  0.4833
 8693TIP3    H226013   7.503   5.799   0.237 -1.6303 -0.0648 -0.0877
 8694TIP3   OH226014   6.053   0.513   2.036 -0.0454  0.0189  0.5786
 8694TIP3    H126015   6.116   0.499   2.107 -0.0371  0.8882  0.7537
 8694TIP3    H226016   6.107   0.540   1.961 -0.2016  0.6593  0.6988
 8695TIP3   OH226017   4.767   6.651   4.423 -0.0067 -0.5480  0.1264
 8695TIP3    H126018   4.838   6.645   4.359  0.2009  0.1887  0.2781
 8695TIP3    H226019   4.808   6.627   4.506 -0.2423 -1.3681  0.0043
 8696TIP3   OH226020   7.076   1.068   3.587  0.3179 -0.2126  0.4186
 8696TIP3    H126021   7.009   1.003   3.565  1.6792 -1.0497 -1.4064
 8696TIP3    H226022   7.092   1.114   3.504  0.1088  1.7876  1.4546
 8697TIP3   OH226023   5.904   6.080   2.973 -0.1489  0.2516 -0.2061
 8697TIP3    H126024   5.983   6.121   3.009  0.0464  0.0101 -0.3534
 8697TIP3    H226025   5.880   6.014   3.037  1.6937 -1.9644 -1.7029
 8698TIP3   OH226026   5.201   4.015   3.623 -0.1350  0.1630 -0.1382
 8698TIP3    H126027   5.229   3.983   3.537  0.6994 -1.0263  0.5651
 8698TIP3    H226028   5.236   3.951   3.685 -0.1232  1.3967  1.1480
 8699TIP3   OH226029   5.564   6.068   3.795  0.3971  0.3248 -0.4103
 8699TIP3    H126030   5.493   6.120   3.834  0.4617 -0.0437  0.2058
 8699TIP3    H226031   5.533   5.978   3.801  0.5871  0.2308 -0.8472
 8700TIP3   OH226032   7.888   0.326   2.005 -0.2158  0.3727  0.7864
 8700TIP3    H126033   7.861   0.332   1.913 -0.3745  1.1909  0.8836
 8700TIP3    H226034   7.893   0.232   2.022  0.3456  0.2143 -0.2155
 8701TIP3   OH226035   5.241   4.314   5.456  0.6032 -0.3936  0.0599
 8701TIP3    H126036   5.279   4.262   5.526  2.1196  0.4857 -0.0998
 8701TIP3    H226037   5.195   4.385   5.500 -0.2959 -1.0514  0.2198
 8702TIP3   OH226038   5.764   6.231   2.050  0.0170  0.3144 -0.0823
 8702TIP3    H126039   5.818   6.179   1.990 -0.5811  0.4224 -0.7168
 8702TIP3    H226040   5.701   6.168   2.085  0.0253  0.3659  0.0244
 8703TIP3   OH226041   6.058   5.978   4.761  0.2060  0.1773  0.1931
 8703TIP3    H126042   6.012   6.030   4.694  1.8379  1.6609  0.2003
 8703TIP3    H226043   6.020   5.891   4.752  0.6303  0.2323 -2.9551
 8704TIP3   OH226044   5.481   5.193   3.791 -0.1098 -0.5880 -0.0967
 8704TIP3    H126045   5.470   5.125   3.725  2.3393  0.7017 -1.9554
 8704TIP3    H226046   5.417   5.173   3.858 -2.6678 -1.9814 -2.8525
 8705TIP3   OH226047   5.772   5.830   4.469 -0.2918 -0.0558  0.3667
 8705TIP3    H126048   5.788   5.737   4.484 -0.6937 -0.4533 -1.4822
 8705TIP3    H226049   5.678   5.835   4.448 -0.5232  0.9303  1.5851
 8706TIP3   OH226050   2.823   5.825   3.226  0.1803  0.2293  0.4234
 8706TIP3    H126051   2.917   5.838   3.240  0.3002  0.6005 -0.7230
 8706TIP3    H226052   2.815   5.732   3.204  0.5016  0.6105 -1.3356
 8707TIP3   OH226053   8.504   6.915   3.458 -0.2895 -0.4887  0.3537
 8707TIP3    H126054   8.471   6.898   3.370  1.1431 -1.5264  0.0120
 8707TIP3    H226055   8.479   6.837   3.508 -1.3099  0.1983  0.9429
 8708TIP3   OH226056   4.420   4.599   3.625 -0.7587  0.8267  0.0262
 8708TIP3    H126057   4.340   4.617   3.675 -1.7762 -2.3383 -0.3262
 8708TIP3    H226058   4.448   4.513   3.656 -0.9906 -0.9058 -4.2207
 8709TIP3   OH226059   5.813   5.124   4.492 -0.4271  0.0525 -0.4767
 8709TIP3    H126060   5.768   5.148   4.411  0.7727 -0.8833 -1.4505
 8709TIP3    H226061   5.898   5.169   4.486 -0.8506  1.0556  0.8919
 8710TIP3   OH226062   6.612   5.589   2.929 -0.1147 -0.6272 -0.8685
 8710TIP3    H126063   6.570   5.540   3.000  0.2060 -0.6650 -0.7073
 8710TIP3    H226064   6.578   5.678   2.939 -0.4459 -0.7393 -0.9653
 8711TIP3   OH226065   7.853   6.535   1.470  0.2414  0.2321 -0.4221
 8711TIP3    H126066   7.885   6.532   1.560  1.2885 -0.2357 -0.8021
 8711TIP3    H226067   7.822   6.625   1.458 -0.7591  0.0366  0.6925
 8712TIP3   OH226068   4.077   5.256   4.564 -0.0714  0.0047  0.5287
 8712TIP3    H126069   3.990   5.227   4.537 -0.5123  2.0735 -0.3293
 8712TIP3    H226070   4.061   5.329   4.624  1.0678  0.1640  0.6569
 8713TIP3   OH226071   4.234   6.454   3.421  0.2725  0.3363  0.1787
 8713TIP3    H126072   4.281   6.375   3.396 -0.3190  0.6163 -1.8884
 8713TIP3    H226073   4.298   6.524   3.412  0.4943  0.2420  0.9770
 8714TIP3   OH226074   5.301   6.109   5.420 -0.2802  0.2395  0.0603
 8714TIP3    H126075   5.282   6.137   5.330  3.2160  1.5044 -0.3633
 8714TIP3    H226076   5.243   6.162   5.474 -1.2039  0.7153 -1.3614
 8715TIP3   OH226077   6.983   7.012   4.707 -0.2389  0.2931  0.6274
 8715TIP3    H126078   6.960   6.934   4.657  0.7090  1.0608 -1.0690
 8715TIP3    H226079   6.902   7.062   4.713 -0.8252 -0.7645  1.6366
 8716TIP3   OH226080   5.072   4.725   3.980  0.2871  0.9235 -0.4073
 8716TIP3    H126081   5.099   4.816   3.964  2.8960  0.5923  1.7445
 8716TIP3    H226082   5.084   4.713   4.074  0.4014 -1.7811 -0.7409
 8717TIP3   OH226083   4.871   6.779   5.659  0.3776 -0.2619  0.0468
 8717TIP3    H126084   4.796   6.790   5.602  0.3684 -0.0572  0.0956
 8717TIP3    H226085   4.929   6.852   5.637  0.4198 -0.2397  0.2257
 8718TIP3   OH226086   5.265   6.224   5.175  0.0094 -0.2484 -0.1495
 8718TIP3    H126087   5.285   6.203   5.084 -1.3146 -0.8435 -0.3121
 8718TIP3    H226088   5.279   6.318   5.183  2.0957 -0.5174 -0.4492
 8719TIP3   OH226089   4.537   7.280   5.898  0.1718 -0.3651 -0.4199
 8719TIP3    H126090   4.602   7.217   5.868  0.6905 -0.1258  0.1862
 8719TIP3    H226091   4.559   7.361   5.853  0.1467 -0.3450 -0.3965
 8720TIP3   OH226092   6.837   4.393   2.680  0.3979 -0.2217  0.5594
 8720TIP3    H126093   6.855   4.359   2.768 -0.7065 -0.1710  0.8153
 8720TIP3    H226094   6.786   4.324   2.638 -1.2820  0.8104  0.8479
 8721TIP3   OH226095   6.510   0.457   4.380  0.4390  0.6353 -0.0636
 8721TIP3    H126096   6.432   0.509   4.400  0.8091  1.2566 -0.2310
 8721TIP3    H226097   6.580   0.499   4.431  0.7439  0.3180 -0.2200
 8722TIP3   OH226098   4.290   3.852   1.902 -0.0401 -0.0289  0.0153
 8722TIP3    H126099   4.256   3.882   1.986 -0.7772  0.1094 -0.3234
 8722TIP3    H226100   4.212   3.834   1.850  0.4097 -0.9034 -0.3641
 8723TIP3   OH226101   6.659   6.240   4.178 -0.4881  0.0161  0.6901
 8723TIP3    H126102   6.737   6.265   4.128 -0.2367  0.5887  1.3715
 8723TIP3    H226103   6.688   6.239   4.269 -1.2847  0.2329  0.9484
 8724TIP3   OH226104   8.425   0.220   5.648  0.3724  0.1899 -0.8003
 8724TIP3    H126105   8.506   0.199   5.695 -1.1490 -3.9822  0.1254
 8724TIP3    H226106   8.385   0.290   5.699  1.7980  0.0171  0.6035
 8725TIP3   OH226107   5.754   5.870   2.291  0.4529 -0.5729 -0.4477
 8725TIP3    H126108   5.746   5.823   2.374  1.3401  0.1359  0.0487
 8725TIP3    H226109   5.716   5.956   2.308 -0.8100 -0.9542 -1.2422
 8726TIP3   OH226110   5.231   6.770   4.351  0.3998  0.1810  0.1852
 8726TIP3    H126111   5.326   6.767   4.356  0.4332  1.5194  0.4554
 8726TIP3    H226112   5.212   6.836   4.284 -0.3192 -2.6086 -2.4616
 8727TIP3   OH226113   5.105   6.958   2.374  0.6087  0.3843  0.2079
 8727TIP3    H126114   5.119   6.890   2.440  0.1317  0.4053  0.3337
 8727TIP3    H226115   5.178   7.020   2.387  2.1292 -1.0619 -1.1528
 8728TIP3   OH226116   7.151   5.410   4.328  0.1561 -0.2309  0.6054
 8728TIP3    H126117   7.223   5.373   4.276 -0.4291  0.0473 -0.4271
 8728TIP3    H226118   7.076   5.353   4.310  0.1894 -0.6897  1.9110
 8729TIP3   OH226119   6.430   6.705   3.243  0.2537  0.1904 -0.3362
 8729TIP3    H126120   6.467   6.694   3.156  1.1231  1.4974 -0.1435
 8729TIP3    H226121   6.468   6.633   3.294  0.0189 -0.3647 -0.9423
 8730TIP3   OH226122   5.597   6.375   6.729 -0.0798  0.0132  0.4276
 8730TIP3    H126123   5.533   6.312   6.762 -1.3630  1.1567  0.1473
 8730TIP3    H226124   5.581   6.379   6.635  0.9617 -0.3070  0.2250
 8731TIP3   OH226125   4.725   6.691   4.033 -0.4054 -0.5072 -0.4660
 8731TIP3    H126126   4.654   6.703   4.096 -0.5903  0.0726 -0.7812
 8731TIP3    H226127   4.798   6.660   4.085 -1.1227 -1.8893 -0.2597
 8732TIP3   OH226128   6.498   6.017   2.851  1.1792  0.7442 -0.4992
 8732TIP3    H126129   6.452   6.015   2.767  0.4026  0.5163 -0.0708
 8732TIP3    H226130   6.437   5.978   2.914  2.3469 -0.5445 -0.1122
 8733TIP3   OH226131   6.903   5.790   5.455  0.1589  0.2080  0.6543
 8733TIP3    H126132   6.873   5.859   5.395  2.1244 -0.7018 -1.4332
 8733TIP3    H226133   6.822   5.746   5.482 -0.7427  0.2416 -1.8327
 8734TIP3   OH226134   7.370   5.800   3.198 -0.3647  0.6257 -0.5489
 8734TIP3    H126135   7.437   5.739   3.168 -0.1597  0.7867 -0.4195
 8734TIP3    H226136   7.330   5.835   3.118  0.4102  1.3117 -0.6412
 8735TIP3   OH226137   4.875   5.688   6.531 -0.1813  0.0158  0.0332
 8735TIP3    H126138   4.823   5.724   6.459  0.1171  0.4856  0.0469
 8735TIP3    H226139   4.915   5.609   6.495 -0.2058  0.1317 -0.2496
 8736TIP3   OH226140   3.752   5.968   3.716  0.0614  0.1496  0.2372
 8736TIP3    H126141   3.691   5.896   3.705 -0.2607  0.9398 -3.5570
 8736TIP3    H226142   3.697   6.047   3.719  0.7229  0.6428 -0.4290
 8737TIP3   OH226143   1.456   0.508   0.343 -0.1730  0.0458  0.2757
 8737TIP3    H126144   1.509   0.486   0.266 -0.2645  2.2374 -0.4649
 8737TIP3    H226145   1.372   0.536   0.306 -0.3903  0.6274  1.1994
 8738TIP3   OH226146   6.448   6.274   4.835  0.3642 -0.2183  0.2335
 8738TIP3    H126147   6.358   6.280   4.868 -0.5896  0.3012 -2.3625
 8738TIP3    H226148   6.475   6.365   4.823  0.9216 -0.3984  0.1096
 8739TIP3   OH226149   7.950   6.167   2.449  0.1793 -0.1456 -0.2033
 8739TIP3    H126150   7.918   6.244   2.402 -2.3893 -1.5525 -0.8576
 8739TIP3    H226151   7.931   6.186   2.541 -0.3589  0.0429 -0.3513
 8740TIP3   OH226152   5.296   5.822   5.144 -0.4547 -0.0818 -0.1948
 8740TIP3    H126153   5.331   5.788   5.227 -1.0761  0.6636  0.3678
 8740TIP3    H226154   5.208   5.786   5.139 -0.1215 -0.8099 -0.9428
 8741TIP3   OH226155   1.072   3.832   0.023  0.3209  0.0145  0.0808
 8741TIP3    H126156   1.096   3.865  -0.063  0.7668 -1.1157 -0.2325
 8741TIP3    H226157   1.146   3.778   0.050  0.4689  0.8665  1.4581
 8742TIP3   OH226158   3.254   1.822   4.116 -0.3200  0.4780  0.8565
 8742TIP3    H126159   3.228   1.910   4.143 -1.5022  0.3381  0.2340
 8742TIP3    H226160   3.189   1.797   4.049 -0.5091 -1.1868  1.6183
 8743TIP3   OH226161   5.958   5.915   5.976 -0.3522 -0.3349  0.7334
 8743TIP3    H126162   5.986   5.968   6.051 -0.0971 -0.5306  0.7725
 8743TIP3    H226163   5.890   5.969   5.934  0.0767  0.1360  0.6328
 8744TIP3   OH226164   1.271   1.567   2.795  0.2741 -1.0959 -0.3109
 8744TIP3    H126165   1.292   1.632   2.728  0.9665 -1.5434 -0.5279
 8744TIP3    H226166   1.311   1.602   2.875  0.3210 -1.0615 -0.3489
 8745TIP3   OH226167   4.943   6.665   3.595 -0.2364  0.4477  0.1866
 8745TIP3    H126168   5.012   6.692   3.534 -1.2144 -1.0146 -1.6093
 8745TIP3    H226169   4.989   6.614   3.662  0.3599 -1.2314 -1.4471
 8746TIP3   OH226170   6.155   6.603   3.378  0.2149  0.8130 -0.0255
 8746TIP3    H126171   6.104   6.527   3.349 -2.1705  2.2227  0.3765
 8746TIP3    H226172   6.214   6.621   3.305 -1.7517  0.8016 -1.6617
 8747TIP3   OH226173   6.607   4.938   5.404 -0.6203 -0.4831  0.6238
 8747TIP3    H126174   6.515   4.932   5.429 -0.7011  0.5872  0.5867
 8747TIP3    H226175   6.642   5.009   5.457  0.6178 -2.0047  1.8969
 8748TIP3   OH226176   6.280   6.260   4.390  0.4948 -0.7029 -0.1149
 8748TIP3    H126177   6.327   6.339   4.362  0.5512 -0.9254 -0.6596
 8748TIP3    H226178   6.346   6.205   4.431  0.5212 -0.6118 -0.0336
 8749TIP3   OH226179   8.450   2.084   4.478  0.5737 -0.1841  0.7668
 8749TIP3    H126180   8.483   2.039   4.556  0.6044 -0.4853  0.5815
 8749TIP3    H226181   8.436   2.174   4.506  3.1194  0.3668  0.4369
 8750TIP3   OH226182   1.088   0.379   2.846 -0.3903  0.2251  0.5709
 8750TIP3    H126183   1.119   0.400   2.935  0.8372  0.7056  0.0348
 8750TIP3    H226184   1.154   0.319   2.812 -2.4276 -2.4018  1.0676
 8751TIP3   OH226185   7.175   5.998   2.663  0.0350  0.0421  0.2447
 8751TIP3    H126186   7.081   5.984   2.670  0.1963 -0.3027  1.8723
 8751TIP3    H226187   7.208   5.920   2.617 -0.2876 -0.4779  0.8968
 8752TIP3   OH226188   7.888   4.869   4.316 -0.1093  0.0321 -0.6583
 8752TIP3    H126189   7.830   4.815   4.369 -0.2438 -0.2318 -1.0762
 8752TIP3    H226190   7.852   4.957   4.324 -0.3991 -0.0832 -0.6796
 8753TIP3   OH226191   3.850   6.716   2.550  0.0562 -0.9759 -0.1785
 8753TIP3    H126192   3.867   6.775   2.477  0.9829 -1.4611 -0.3665
 8753TIP3    H226193   3.813   6.638   2.510 -0.8823 -0.6398  0.0368
 8754TIP3   OH226194   8.300   6.058   3.161 -0.1224  0.6500  0.6388
 8754TIP3    H126195   8.274   6.149   3.147 -0.1014  0.6358  0.5094
 8754TIP3    H226196   8.233   6.023   3.220  0.2982  0.9657  1.3040
 8755TIP3   OH226197   5.901   7.473   1.839 -0.2860 -0.2418 -0.2203
 8755TIP3    H126198   5.966   7.485   1.770 -0.8078  1.4370 -0.4237
 8755TIP3    H226199   5.883   7.561   1.872  1.3445 -1.1545  3.3705
 8756TIP3   OH226200   8.155   7.047   1.239 -0.7857 -0.3326 -0.5859
 8756TIP3    H126201   8.175   7.104   1.314  0.4823 -1.0788 -0.3421
 8756TIP3    H226202   8.145   7.107   1.165  0.1393  0.2440 -0.2466
 8757TIP3   OH226203   3.881   7.062   2.831  0.0385  0.8175  0.9817
 8757TIP3    H126204   3.962   7.035   2.789 -0.7271 -0.0267  0.0219
 8757TIP3    H226205   3.854   7.141   2.784 -1.3815 -0.7360 -0.8482
 8758TIP3   OH226206   0.379   0.040   5.298 -0.7152 -0.4791  0.1236
 8758TIP3    H126207   0.391  -0.037   5.241 -0.1841 -0.4148  0.1478
 8758TIP3    H226208   0.355   0.110   5.238 -0.0140 -0.3767 -0.0465
 8759TIP3   OH226209   6.759   5.750   5.017  0.2246 -0.5907 -0.2716
 8759TIP3    H126210   6.769   5.656   4.999 -0.1138 -1.0355  1.7440
 8759TIP3    H226211   6.848   5.785   5.006  1.0443 -1.7545  2.1236
 8760TIP3   OH226212   6.504   6.416   3.941 -0.2189  0.4589 -0.1454
 8760TIP3    H126213   6.429   6.361   3.918  2.0296 -2.5985 -0.6525
 8760TIP3    H226214   6.485   6.501   3.903 -2.0756 -1.1161 -2.9508
 8761TIP3   OH226215   6.597   7.325   2.038  0.3229  0.3664 -0.4879
 8761TIP3    H126216   6.555   7.411   2.049  1.1492  0.6118  0.9377
 8761TIP3    H226217   6.524   7.264   2.029 -0.3618  0.8148  1.6823
 8762TIP3   OH226218   6.015   5.921   2.310  0.4010  0.2124  1.2868
 8762TIP3    H126219   5.924   5.894   2.299  0.2251  0.7896  1.3084
 8762TIP3    H226220   6.025   5.934   2.404  1.2522 -2.4251  1.6122
 8763TIP3   OH226221   6.631   7.469   3.764  0.1086 -0.4459  0.2178
 8763TIP3    H126222   6.538   7.484   3.747  0.2653 -0.4108 -0.6505
 8763TIP3    H226223   6.675   7.500   3.685  0.9479  0.5119  1.0545
 8764TIP3   OH226224   5.300   7.188   6.729  0.1376  0.4424 -0.4430
 8764TIP3    H126225   5.324   7.129   6.800 -0.7070 -0.4923 -0.9333
 8764TIP3    H226226   5.346   7.269   6.750  0.6531 -0.1193  0.6666
 8765TIP3   OH226227   5.527   5.856   4.392  0.6045  0.3600  0.4331
 8765TIP3    H126228   5.434   5.836   4.385  0.8082 -0.1778 -1.0391
 8765TIP3    H226229   5.531   5.951   4.387  0.1914  0.3374 -0.5781
 8766TIP3   OH226230   6.703   7.034   1.537 -0.2277  0.1477  0.6829
 8766TIP3    H126231   6.676   7.126   1.548  0.0269  0.4305 -0.9914
 8766TIP3    H226232   6.797   7.039   1.519 -0.3981 -0.3756 -0.3742
 8767TIP3   OH226233   5.417   5.238   3.337 -0.1482  0.4333  0.6511
 8767TIP3    H126234   5.496   5.220   3.285 -0.1569  0.6715  0.5563
 8767TIP3    H226235   5.374   5.153   3.345  0.3909  0.2040  1.1518
 8768TIP3   OH226236   3.617   4.469   2.969  0.1989 -0.0296  0.4468
 8768TIP3    H126237   3.636   4.440   2.880 -0.5987 -1.3103  0.6913
 8768TIP3    H226238   3.526   4.500   2.966  0.6429  1.3391  0.4756
 8769TIP3   OH226239   6.561   4.881   4.060  0.3547 -0.0719  0.5035
 8769TIP3    H126240   6.637   4.831   4.088  0.5288  0.3238  0.7368
 8769TIP3    H226241   6.597   4.952   4.006 -0.1073 -2.0738 -2.6107
 8770TIP3   OH226242   7.321   5.649   1.576 -0.3169  0.4027  0.1150
 8770TIP3    H126243   7.287   5.579   1.632 -0.8307  1.6714  1.4255
 8770TIP3    H226244   7.403   5.675   1.618 -0.6303  1.2564  0.2035
 8771TIP3   OH226245   5.047   5.874   3.447 -0.7329  1.0232  0.0110
 8771TIP3    H126246   5.045   5.799   3.506  0.9066  0.9604  0.0090
 8771TIP3    H226247   5.077   5.838   3.363 -5.0002  0.7089 -1.5389
 8772TIP3   OH226248   8.203   0.149   3.054  0.0745 -0.1309  0.2779
 8772TIP3    H126249   8.222   0.236   3.088  2.2908 -0.6636  0.4859
 8772TIP3    H226250   8.206   0.159   2.959 -0.2776  0.1397  0.2944
 8773TIP3   OH226251   4.940   4.173   4.595  0.3881 -0.3927  0.2385
 8773TIP3    H126252   4.909   4.253   4.639  0.0924  0.4073 -1.3946
 8773TIP3    H226253   4.877   4.159   4.524  1.2811 -1.2509 -0.3896
 8774TIP3   OH226254   5.411   7.541   4.983 -0.5068 -0.9752 -0.4848
 8774TIP3    H126255   5.409   7.480   4.910 -1.2787 -1.4927 -0.0363
 8774TIP3    H226256   5.484   7.601   4.963  0.2346 -2.0211 -0.9361
 8775TIP3   OH226257   4.134   6.972   4.214 -0.4689 -0.0704 -0.3627
 8775TIP3    H126258   4.123   7.045   4.275 -1.1561  0.0492 -0.6192
 8775TIP3    H226259   4.113   6.894   4.265 -1.8796  0.0999 -0.6613
 8776TIP3   OH226260   4.140   5.699   4.452  0.2036 -0.0358  0.8231
 8776TIP3    H126261   4.168   5.713   4.543  0.2507  1.5163  0.5761
 8776TIP3    H226262   4.157   5.606   4.437 -0.1040 -0.3980  2.5087
 8777TIP3   OH226263   8.181   3.682   0.049  0.3625  0.1092  0.1955
 8777TIP3    H126264   8.220   3.769   0.056  2.4322 -0.8989  1.5965
 8777TIP3    H226265   8.231   3.638  -0.020 -0.3847 -0.1518 -0.1998
 8778TIP3   OH226266   5.643   6.604   3.469 -0.1845 -0.1425 -0.2719
 8778TIP3    H126267   5.724   6.555   3.485 -0.4096 -0.1910  0.7691
 8778TIP3    H226268   5.604   6.561   3.393  0.4437 -0.5401 -0.3723
 8779TIP3   OH226269   4.439   6.935   2.514  0.4577 -0.0763 -0.3556
 8779TIP3    H126270   4.428   6.847   2.477  1.1739 -0.1511 -0.3993
 8779TIP3    H226271   4.508   6.974   2.462  2.6983 -0.7952  1.9728
 8780TIP3   OH226272   2.899   5.199   2.993  0.1722 -0.1949  0.0420
 8780TIP3    H126273   2.845   5.124   2.969 -0.0024  0.4133 -1.5239
 8780TIP3    H226274   2.859   5.232   3.074 -0.7023 -0.8298 -0.1189
 8781TIP3   OH226275   7.978   0.685   2.914  0.0722 -0.2500  0.1961
 8781TIP3    H126276   7.909   0.749   2.900  0.8241  0.6497  0.5184
 8781TIP3    H226277   8.043   0.731   2.967  0.7569 -1.1898  0.1929
 8782TIP3   OH226278   6.739   0.574   5.032 -0.0200  0.3703 -0.2475
 8782TIP3    H126279   6.781   0.658   5.012  1.4429  0.1691  1.7801
 8782TIP3    H226280   6.726   0.576   5.127  0.9977 -2.1212 -0.0110
 8783TIP3   OH226281   6.053   7.349   3.229  0.4390 -0.3946 -0.3778
 8783TIP3    H126282   6.008   7.386   3.305  0.1231 -1.5791  0.0202
 8783TIP3    H226283   6.008   7.387   3.154 -0.2768 -0.4562  0.0177
 8784TIP3   OH226284   2.995   7.153   3.219  0.3714 -0.1324  0.0271
 8784TIP3    H126285   2.917   7.106   3.248 -0.1024  0.5574 -0.0961
 8784TIP3    H226286   2.961   7.228   3.169  1.1444 -0.7524 -1.4810
 8785TIP3   OH226287   8.099   0.004   4.054  0.1882 -0.1237 -0.0736
 8785TIP3    H126288   8.051   0.087   4.056 -1.1820 -0.9339  1.3987
 8785TIP3    H226289   8.054  -0.047   3.987  0.2107 -0.1865 -0.0395
 8786TIP3   OH226290   5.846   7.240   2.323  0.0648  0.5774 -0.3292
 8786TIP3    H126291   5.772   7.192   2.359  0.2249  0.5472 -0.0396
 8786TIP3    H226292   5.817   7.267   2.236  0.0389 -0.2128 -0.5773
 8787TIP3   OH226293   5.267   5.204   4.062  0.1812  0.5077 -0.6003
 8787TIP3    H126294   5.331   5.246   4.118  0.5196 -0.8713  0.0602
 8787TIP3    H226295   5.194   5.265   4.059  1.3298  1.9001 -1.0121
 8788TIP3   OH226296   7.098   4.802   2.957  0.1944  0.2029  0.1845
 8788TIP3    H126297   7.101   4.869   3.025  0.2499 -0.5749  0.9682
 8788TIP3    H226298   7.131   4.845   2.878 -2.4583  1.9184 -0.0513
 8789TIP3   OH226299   6.966   5.225   2.937 -0.8482  0.4160  0.0666
 8789TIP3    H126300   6.893   5.281   2.963 -2.1323 -1.3998  0.5346
 8789TIP3    H226301   6.943   5.194   2.850 -0.9302 -0.5974  0.4374
 8790TIP3   OH226302   5.628   4.957   3.090 -0.4453 -0.3493  0.0968
 8790TIP3    H126303   5.703   4.900   3.073 -0.0986 -0.7919  2.7999
 8790TIP3    H226304   5.555   4.897   3.102 -0.9393  0.0064 -1.1415
 8791TIP3   OH226305   5.874   6.311   2.306 -0.4674 -0.1955 -0.0369
 8791TIP3    H126306   5.814   6.299   2.233  0.0667 -0.1881 -0.4792
 8791TIP3    H226307   5.954   6.264   2.280  0.0541  0.5850  0.1312
 8792TIP3   OH226308   5.295   6.916   2.868 -0.0704 -0.1230 -0.5736
 8792TIP3    H126309   5.390   6.932   2.861  0.1122 -0.7788  0.2373
 8792TIP3    H226310   5.280   6.910   2.962 -0.8282 -0.5859 -0.7271
 8793TIP3   OH226311   3.560   5.555   3.075 -0.3747 -0.3979 -0.3579
 8793TIP3    H126312   3.543   5.561   3.169  2.1595 -2.7212  0.3068
 8793TIP3    H226313   3.496   5.491   3.043 -0.4008 -0.5740  0.0395
 8794TIP3   OH226314   7.383   5.305   4.122  0.3344 -0.2315 -0.1522
 8794TIP3    H126315   7.447   5.363   4.164  0.3994 -1.0290  0.8843
 8794TIP3    H226316   7.395   5.221   4.167  0.3990 -1.1092 -1.7921
 8795TIP3   OH226317   5.038   7.541   3.338  0.5768 -0.2790  0.3183
 8795TIP3    H126318   4.984   7.606   3.293  1.0266  0.0913  0.3180
 8795TIP3    H226319   5.127   7.574   3.331  0.8105 -0.9086  0.3021
 8796TIP3   OH226320   5.244   5.898   0.910  0.1294 -0.3159 -0.6405
 8796TIP3    H126321   5.200   5.903   0.994  0.8116  0.4745 -0.3256
 8796TIP3    H226322   5.177   5.922   0.846 -0.5234 -1.4027 -0.3795
 8797TIP3   OH226323   5.063   3.453   1.626  0.3709 -0.8070  0.4611
 8797TIP3    H126324   5.019   3.535   1.646  0.3127 -0.9486  0.9199
 8797TIP3    H226325   5.129   3.444   1.696  0.6517 -0.9452  0.1811
 8798TIP3   OH226326   4.267   6.193   3.667 -0.5887  0.4799  0.1681
 8798TIP3    H126327   4.203   6.264   3.657 -0.2360  0.7651 -0.0782
 8798TIP3    H226328   4.350   6.238   3.684 -0.7667  0.0659  2.2229
 8799TIP3   OH226329   6.407   6.993   2.482  0.5809 -0.1554 -0.1544
 8799TIP3    H126330   6.403   6.931   2.555  1.1523  0.3008  0.2670
 8799TIP3    H226331   6.494   6.982   2.445  0.3931 -0.1851 -0.6003
 8800TIP3   OH226332   5.253   6.714   6.329  0.0855 -0.0593  0.6172
 8800TIP3    H126333   5.211   6.756   6.253  1.0572  0.9440  0.6096
 8800TIP3    H226334   5.250   6.781   6.397 -1.3014 -1.1648  1.6722
 8801TIP3   OH226335   6.119   5.074   3.827  0.0373 -0.1050  0.3179
 8801TIP3    H126336   6.124   5.161   3.788  0.7720  0.1416  0.9534
 8801TIP3    H226337   6.208   5.040   3.821  0.2038  0.0122  1.9600
 8802TIP3   OH226338   5.387   6.826   1.182  0.4117  0.9712  0.3844
 8802TIP3    H126339   5.301   6.789   1.200  1.0616 -0.6059  0.2662
 8802TIP3    H226340   5.395   6.825   1.086  0.5783  1.0709  0.3956
 8803TIP3   OH226341   7.678   6.156   6.892  0.3875 -0.1290  0.2740
 8803TIP3    H126342   7.679   6.239   6.940 -2.0619 -0.6430  1.2808
 8803TIP3    H226343   7.733   6.172   6.815 -0.1600  2.4837  0.3883
 8804TIP3   OH226344   6.188   7.201   4.132 -0.2064 -0.4281  0.1437
 8804TIP3    H126345   6.138   7.230   4.208 -2.5830 -3.4049 -0.2228
 8804TIP3    H226346   6.127   7.149   4.081  1.5371  1.0019 -3.5523
 8805TIP3   OH226347   5.726   6.398   0.286 -0.0125 -0.7129  0.0527
 8805TIP3    H126348   5.690   6.464   0.345  0.3046  0.9848 -1.6127
 8805TIP3    H226349   5.818   6.421   0.277 -0.1315 -0.7159 -1.3705
 8806TIP3   OH226350   8.362   7.170   3.273  0.1435  0.0478 -0.4324
 8806TIP3    H126351   8.452   7.201   3.283  0.4882 -0.9937 -0.2692
 8806TIP3    H226352   8.313   7.218   3.340  0.8966 -0.6434  0.6387
 8807TIP3   OH226353   8.283   0.664   5.460 -0.4362 -0.3206 -0.3573
 8807TIP3    H126354   8.241   0.592   5.412 -0.6643 -0.2735 -0.2297
 8807TIP3    H226355   8.353   0.622   5.509 -1.2561 -0.6228  0.5673
 8808TIP3   OH226356   1.485   5.739   1.193  0.8537  0.0698  0.0195
 8808TIP3    H126357   1.420   5.670   1.199  1.0501  0.0048  1.4525
 8808TIP3    H226358   1.475   5.773   1.103 -0.8789 -0.1905  0.0883
 8809TIP3   OH226359   6.046   6.088   4.420  0.0624 -0.0883 -0.3745
 8809TIP3    H126360   6.133   6.128   4.412 -0.0863 -0.0715 -2.0045
 8809TIP3    H226361   6.050   6.011   4.363 -0.6943 -0.6035  0.2652
 8810TIP3   OH226362   6.999   5.722   4.073 -0.0100 -0.0888 -0.1215
 8810TIP3    H126363   6.907   5.732   4.048 -0.8599 -1.9332  2.1334
 8810TIP3    H226364   7.048   5.735   3.991 -2.4033 -1.4113 -1.8087
 8811TIP3   OH226365   1.013   0.432   3.253  0.1318 -0.2460 -0.3252
 8811TIP3    H126366   1.065   0.364   3.295  0.4133 -1.2379 -2.2297
 8811TIP3    H226367   1.068   0.464   3.182 -0.6564  0.8339 -0.4724
 8812TIP3   OH226368   7.285   4.990   1.844  0.1470  0.2152  0.4525
 8812TIP3    H126369   7.275   4.899   1.815  1.1491  0.4377 -0.5989
 8812TIP3    H226370   7.308   4.983   1.937 -0.8647 -0.5652  0.6539
 8813TIP3   OH226371   0.944   1.026   4.600  0.2821 -0.2299 -0.1004
 8813TIP3    H126372   1.035   1.029   4.573  0.8190 -0.3327  1.6243
 8813TIP3    H226373   0.935   0.942   4.646  0.2252  1.2510  2.7306
 8814TIP3   OH226374   7.372   3.935   1.614  0.0911 -0.5023 -0.0250
 8814TIP3    H126375   7.463   3.938   1.642  0.0266 -0.5090  0.1852
 8814TIP3    H226376   7.324   3.983   1.682 -0.0442 -0.3811 -0.2040
 8815TIP3   OH226377   0.579   5.471   1.567  0.5023  0.5245  0.2025
 8815TIP3    H126378   0.553   5.481   1.659 -0.7201  1.8813 -0.2689
 8815TIP3    H226379   0.576   5.377   1.552 -1.8983  0.4762  0.8348
 8816TIP3   OH226380   0.374   7.107   0.543  0.2616 -0.1134 -0.2369
 8816TIP3    H126381   0.365   7.092   0.449 -0.9210  0.1050 -0.1644
 8816TIP3    H226382   0.360   7.201   0.555  0.9422 -0.0470  0.1062
 8817TIP3   OH226383   7.936   6.707   3.873  0.2699  0.0295  0.2899
 8817TIP3    H126384   7.915   6.652   3.797  1.4006  2.4916 -1.8871
 8817TIP3    H226385   7.923   6.650   3.948 -1.3886 -2.3477 -1.7179
 8818TIP3   OH226386   7.359   6.174   1.843  0.1998 -0.1121 -0.3985
 8818TIP3    H126387   7.311   6.101   1.882 -0.1634  1.0441  1.4214
 8818TIP3    H226388   7.390   6.141   1.759  0.1505 -2.3898  0.4462
 8819TIP3   OH226389   5.395   5.986   2.401 -0.6609 -0.2001  0.2314
 8819TIP3    H126390   5.322   6.046   2.415 -0.7558 -0.7403  2.1712
 8819TIP3    H226391   5.397   5.932   2.480 -0.8681 -3.0667 -1.6809
 8820TIP3   OH226392   0.729   5.702   1.870 -0.3671  0.1453  0.0655
 8820TIP3    H126393   0.689   5.733   1.952  0.3477  0.1619  0.4062
 8820TIP3    H226394   0.808   5.656   1.898  0.6287  1.3736 -0.7333
 8821TIP3   OH226395   1.881   0.873   2.398  0.2966 -0.3835 -0.7329
 8821TIP3    H126396   1.812   0.891   2.462  0.5402  0.2008 -0.6307
 8821TIP3    H226397   1.898   0.779   2.407 -0.7555 -0.6102 -1.0309
 8822TIP3   OH226398   6.609   5.086   3.872  0.6886 -0.2265 -0.0420
 8822TIP3    H126399   6.704   5.087   3.862  0.8827 -0.6707  1.6712
 8822TIP3    H226400   6.591   5.155   3.935 -0.0227 -0.9456  0.5375
 8823TIP3   OH226401   8.159   5.881   1.910 -0.4140  0.4586 -0.3074
 8823TIP3    H126402   8.219   5.815   1.944 -2.0741 -0.1334  1.5770
 8823TIP3    H226403   8.214   5.955   1.887  1.2221 -0.7631 -0.3871
 8824TIP3   OH226404   5.266   7.744   3.613  0.0046  0.0135 -0.4735
 8824TIP3    H126405   5.172   7.728   3.622 -0.2423  0.0508 -2.6508
 8824TIP3    H226406   5.276   7.837   3.634  0.0520 -0.7177  2.9084
 8825TIP3   OH226407   7.127   7.706   2.410 -0.3778 -0.4488 -0.2231
 8825TIP3    H126408   7.047   7.718   2.358 -0.2479 -0.4851 -0.4339
 8825TIP3    H226409   7.162   7.621   2.382 -0.8721 -0.9562  0.6990
 8826TIP3   OH226410   7.317   6.181   2.509 -0.5795 -0.1645 -0.5397
 8826TIP3    H126411   7.267   6.119   2.563  0.0194 -0.8523 -0.7683
 8826TIP3    H226412   7.336   6.133   2.428 -2.2196  1.1693 -1.7345
 8827TIP3   OH226413   8.469   7.173   0.818  0.0259  0.9247  0.4157
 8827TIP3    H126414   8.468   7.120   0.738 -0.0867  0.3561  0.7913
 8827TIP3    H226415   8.427   7.255   0.792 -1.2081  0.2492  0.2291
 8828TIP3   OH226416   7.760   6.181   3.303  0.2620  0.4105 -0.6008
 8828TIP3    H126417   7.717   6.232   3.371  2.9801  0.4529  1.1140
 8828TIP3    H226418   7.738   6.090   3.325 -0.5483  0.5332 -0.8716
 8829TIP3   OH226419   4.411   2.630   5.034  0.8760  0.6418 -0.5298
 8829TIP3    H126420   4.323   2.608   5.003  1.2069 -0.4606 -0.6784
 8829TIP3    H226421   4.410   2.726   5.039 -0.1818  0.6681 -0.9699
 8830TIP3   OH226422   6.422   7.168   0.868  0.0185 -0.0117  0.0686
 8830TIP3    H126423   6.373   7.145   0.789 -1.0627  2.0489  0.1075
 8830TIP3    H226424   6.513   7.168   0.841 -0.1906 -1.2552 -0.6848
 8831TIP3   OH226425   3.277   0.948   6.007 -0.6632 -0.0083 -0.5177
 8831TIP3    H126426   3.359   0.943   5.958 -0.0219  0.9422  0.4461
 8831TIP3    H226427   3.246   1.037   5.993 -0.8947  0.0147  0.1361
 8832TIP3   OH226428   0.117   5.899   2.654  0.1742 -0.4386  0.6234
 8832TIP3    H126429   0.100   5.981   2.609  0.5152 -0.2234  0.8854
 8832TIP3    H226430   0.088   5.831   2.593 -0.3357 -0.1190  0.5090
 8833TIP3   OH226431   7.500   6.840   0.770 -0.4868 -0.2317 -0.3222
 8833TIP3    H126432   7.406   6.822   0.779 -0.4859 -1.4823 -2.2819
 8833TIP3    H226433   7.520   6.812   0.680  2.0781 -1.4904  0.5962
 8834TIP3   OH226434   1.633   1.290   4.780  0.4184  0.6600  0.4020
 8834TIP3    H126435   1.686   1.311   4.858  1.0695 -1.8066  0.6646
 8834TIP3    H226436   1.697   1.281   4.710  0.0144  1.0149 -0.0070
 8835TIP3   OH226437   6.856   6.947   3.728  0.2745  0.4267 -0.2818
 8835TIP3    H126438   6.949   6.943   3.703  0.1281  0.1544 -0.7975
 8835TIP3    H226439   6.832   7.038   3.716  0.5970  0.5921  0.3000
 8836TIP3   OH226440   8.307   5.990   2.144 -0.1820  0.0494 -0.5011
 8836TIP3    H126441   8.258   6.051   2.199 -0.2594  0.1170 -0.6447
 8836TIP3    H226442   8.320   6.036   2.061  2.3579  1.0547  0.3957
 8837TIP3   OH226443   7.262   6.496   3.443  0.1385  0.2176 -0.5457
 8837TIP3    H126444   7.221   6.570   3.398 -1.7206 -0.6413 -0.2779
 8837TIP3    H226445   7.345   6.484   3.397  0.1647  2.0378 -1.0194
 8838TIP3   OH226446   7.167   6.075   3.037 -0.5996 -0.0919 -0.1231
 8838TIP3    H126447   7.254   6.045   3.010 -0.4066  1.2835 -1.0973
 8838TIP3    H226448   7.107   6.010   3.001 -0.1207  0.1339 -1.3673
 8839TIP3   OH226449   1.171   0.018   3.065 -0.6928 -0.0688  0.1737
 8839TIP3    H126450   1.247   0.006   3.121 -1.2614  0.7767  1.1364
 8839TIP3    H226451   1.207   0.026   2.977  0.2545 -0.5971  0.5073
 8840TIP3   OH226452   7.789   7.051   1.194 -0.0751 -0.2136 -0.0071
 8840TIP3    H126453   7.852   7.087   1.132 -0.2941 -0.2991 -0.2833
 8840TIP3    H226454   7.808   6.957   1.196  0.4386 -0.0960  0.6440
 8841TIP3   OH226455   6.674   7.209   3.476  0.5010  0.2417 -0.7089
 8841TIP3    H126456   6.644   7.207   3.567  1.7471  0.0633 -0.2922
 8841TIP3    H226457   6.691   7.117   3.454 -1.5012  0.0816 -1.7191
 8842TIP3   OH226458   8.090   7.298   1.348 -0.6201 -0.1750  0.2725
 8842TIP3    H126459   7.997   7.306   1.327 -0.8564  0.3316  1.4561
 8842TIP3    H226460   8.126   7.384   1.328 -0.0309 -0.8994 -1.9033
 8843TIP3   OH226461   7.940   0.716   4.923  0.3523 -0.6331 -0.2359
 8843TIP3    H126462   7.864   0.672   4.885 -0.3790 -0.0242  0.5130
 8843TIP3    H226463   8.008   0.709   4.856  0.2035 -2.7744 -0.1867
 8844TIP3   OH226464   7.578   3.850   2.136  0.3267  0.0547  0.3619
 8844TIP3    H126465   7.669   3.839   2.164  0.1732  0.4504  1.0155
 8844TIP3    H226466   7.572   3.941   2.108 -0.2679  0.4705  1.8096
 8845TIP3   OH226467   6.674   5.764   2.590 -0.1321  0.2324  0.3148
 8845TIP3    H126468   6.640   5.686   2.633 -1.5616  0.6915  0.0524
 8845TIP3    H226469   6.750   5.734   2.541 -1.2708 -1.2007 -0.6155
 8846TIP3   OH226470   7.355   5.689   2.662 -0.0447 -0.2713  0.0061
 8846TIP3    H126471   7.400   5.605   2.659 -1.6800 -1.2999  2.4387
 8846TIP3    H226472   7.307   5.693   2.580 -1.8771 -2.8786  0.8710
 8847TIP3   OH226473   6.847   7.258   1.938  0.9850  0.1634 -0.3186
 8847TIP3    H126474   6.767   7.286   1.983  0.9722  1.1136 -0.9252
 8847TIP3    H226475   6.889   7.340   1.910  1.2853 -0.4013 -1.5292
 8848TIP3   OH226476   3.447   0.609   4.788  0.1860  0.2624  0.5666
 8848TIP3    H126477   3.524   0.663   4.808  0.9783 -0.7400  0.2584
 8848TIP3    H226478   3.394   0.614   4.867  0.1834  1.6027  0.4908
 8849TIP3   OH226479   7.921   5.543   2.096  0.4470  0.3412  0.1701
 8849TIP3    H126480   7.992   5.480   2.112 -0.7238 -0.7329  1.2289
 8849TIP3    H226481   7.959   5.607   2.037  2.4440  0.0021  1.0465
 8850TIP3   OH226482   8.470   8.044   2.747 -0.1546  0.0339 -0.2701
 8850TIP3    H126483   8.546   7.988   2.735 -0.1456 -0.4263  1.7781
 8850TIP3    H226484   8.395   7.986   2.736 -0.2262  0.4077 -1.8958
 8851TIP3   OH226485   8.136   5.735   1.053 -0.1352 -0.1326  0.7223
 8851TIP3    H126486   8.110   5.708   0.965  0.9716  0.3912  0.2174
 8851TIP3    H226487   8.176   5.657   1.091 -1.4562 -0.6335  1.1185
 8852TIP3   OH226488   1.307   0.044   3.726  0.1863 -0.3978 -0.3898
 8852TIP3    H126489   1.264  -0.038   3.701 -0.4965 -0.7264  1.7239
 8852TIP3    H226490   1.360   0.020   3.803 -0.3190  1.2250  0.4810
 8853TIP3   OH226491   4.660   5.710   4.676  0.1862 -0.0576 -0.6542
 8853TIP3    H126492   4.730   5.687   4.615 -0.0864 -0.5473 -0.7911
 8853TIP3    H226493   4.580   5.698   4.625 -0.1563 -2.3561  0.3582
 8854TIP3   OH226494   0.120   5.896   1.556 -0.5669  0.3244  0.1226
 8854TIP3    H126495   0.065   5.856   1.624  0.1809  1.3467  1.3683
 8854TIP3    H226496   0.109   5.991   1.571 -0.9031  0.5714 -1.6107
 8855TIP3   OH226497   0.846   7.007   3.463 -0.2616  0.1942 -0.1891
 8855TIP3    H126498   0.830   7.101   3.463  3.6105  0.9178 -1.2602
 8855TIP3    H226499   0.875   6.988   3.553 -0.1615  0.1915 -0.2219
 8856TIP3   OH226500   1.327   7.438   2.056 -0.2943 -0.3480 -0.5476
 8856TIP3    H126501   1.296   7.522   2.022  1.3224  0.3510 -0.3480
 8856TIP3    H226502   1.422   7.442   2.047 -0.2316 -2.4823 -1.2640
 8857TIP3   OH226503   8.129   2.873   0.102 -0.3361  0.0504 -0.1226
 8857TIP3    H126504   8.196   2.817   0.141  0.5336  0.9026 -0.3951
 8857TIP3    H226505   8.048   2.821   0.110  0.2460 -0.7638  0.6657
 8858TIP3   OH226506   8.243   6.902   2.124 -0.4312  0.1010 -0.0256
 8858TIP3    H126507   8.185   6.947   2.186 -1.1482 -1.1404  0.2378
 8858TIP3    H226508   8.187   6.834   2.085  1.2451 -2.1523  1.3899
 8859TIP3   OH226509   7.184   6.487   1.246 -0.4335  0.3547 -0.3176
 8859TIP3    H126510   7.102   6.470   1.294 -0.6405 -1.8829 -1.4010
 8859TIP3    H226511   7.253   6.467   1.309 -0.6899  2.2570  0.6074
 8860TIP3   OH226512   7.727   5.493   1.729 -0.2683  0.3610  0.7862
 8860TIP3    H126513   7.819   5.502   1.755  0.5175 -0.9537 -1.4162
 8860TIP3    H226514   7.698   5.411   1.770  0.8948 -1.5708 -2.0734
 8861TIP3   OH226515   1.502   7.206   0.171  0.1049  0.4650  0.0166
 8861TIP3    H126516   1.412   7.191   0.199 -0.2112 -0.0132 -1.1992
 8861TIP3    H226517   1.549   7.126   0.196 -0.2033 -0.0118 -0.8897
 8862TIP3   OH226518   0.757   7.377   2.837 -0.5428 -0.1418  0.5130
 8862TIP3    H126519   0.742   7.341   2.924 -0.9254 -0.1984  0.4262
 8862TIP3    H226520   0.672   7.369   2.793 -0.0068 -1.3426 -0.3189
 8863TIP3   OH226521   7.478   5.349   1.134  0.0850  0.6713 -0.3162
 8863TIP3    H126522   7.419   5.324   1.205  1.4346 -1.3914  0.1361
 8863TIP3    H226523   7.444   5.302   1.058  1.5174 -1.1176  0.1092
 8864TIP3   OH226524   0.036   4.896   2.755 -0.1175  0.2214  0.5182
 8864TIP3    H126525   0.066   4.987   2.757 -1.2791  0.6204  0.0788
 8864TIP3    H226526   0.012   4.877   2.845  1.8658 -0.2609  0.9780
 8865TIP3   OH226527   5.476   7.259   3.774 -0.2075  0.2173 -0.8637
 8865TIP3    H126528   5.391   7.300   3.787 -0.1582  0.0344  0.0285
 8865TIP3    H226529   5.459   7.165   3.779 -0.0792  0.1593 -1.4475
 8866TIP3   OH226530   5.916   4.361   0.595 -0.3707 -0.3353 -0.2023
 8866TIP3    H126531   5.827   4.391   0.578  0.5052  1.8183 -1.2086
 8866TIP3    H226532   5.936   4.394   0.683 -0.3211 -0.2338 -0.2523
 8867TIP3   OH226533   6.957   6.605   1.631 -0.0514 -0.3592 -0.3529
 8867TIP3    H126534   6.878   6.654   1.655 -0.7975 -1.8616  0.3319
 8867TIP3    H226535   7.021   6.628   1.698  0.2018  1.0782 -1.0620
 8868TIP3   OH226536   6.894   3.577   2.995  0.0298 -0.2451  0.3317
 8868TIP3    H126537   6.818   3.633   2.983  0.3739  0.6218  1.9933
 8868TIP3    H226538   6.958   3.607   2.931  0.1517  1.1750  1.1045
 8869TIP3   OH226539   5.498   5.584   1.254  0.2199  0.1155  0.3612
 8869TIP3    H126540   5.564   5.559   1.318  1.9643  1.0006 -1.0439
 8869TIP3    H226541   5.544   5.586   1.170 -1.2748  1.9220 -0.4822
 8870TIP3   OH226542   0.490   4.429   4.048 -0.0461 -0.2591 -0.3575
 8870TIP3    H126543   0.501   4.335   4.062  1.3182 -0.1734 -0.7114
 8870TIP3    H226544   0.410   4.437   3.997 -1.1653 -1.0925  1.2408
 8871TIP3   OH226545   0.368   6.243   5.165  0.2940  0.6664  0.1439
 8871TIP3    H126546   0.322   6.326   5.158  0.4373  0.8327  1.1450
 8871TIP3    H226547   0.304   6.177   5.136 -0.6336  0.8744  1.7107
 8872TIP3   OH226548   0.373   6.413   1.483 -0.2198  0.0125  0.1549
 8872TIP3    H126549   0.383   6.324   1.518 -0.1361 -0.3753 -0.8332
 8872TIP3    H226550   0.292   6.409   1.432  0.4823  0.1330 -0.9834
 8873TIP3   OH226551   0.845   0.300   5.021 -0.3475 -0.0179 -0.1351
 8873TIP3    H126552   0.905   0.238   5.063 -0.9281 -1.7531 -1.8053
 8873TIP3    H226553   0.880   0.386   5.044  1.2039 -0.9635  1.1824
 8874TIP3   OH226554   7.822   6.672   3.604 -0.1957 -0.2599  0.7788
 8874TIP3    H126555   7.747   6.722   3.572  0.1192 -0.0726  0.3353
 8874TIP3    H226556   7.898   6.716   3.567  0.0414 -1.5622 -0.3253
 8875TIP3   OH226557   6.617   6.894   3.414  0.5515 -0.2841 -0.2577
 8875TIP3    H126558   6.543   6.861   3.362  0.0803  0.5058 -0.1097
 8875TIP3    H226559   6.644   6.820   3.467 -0.3615 -0.4872 -0.0661
 8876TIP3   OH226560   0.415   5.926   2.552  0.9125  0.2874  0.1458
 8876TIP3    H126561   0.381   5.974   2.627  0.4489 -0.6672  0.5485
 8876TIP3    H226562   0.479   5.865   2.589  2.8793  1.8486 -0.5699
 8877TIP3   OH226563   7.426   7.431   2.248 -0.3805  0.1140 -0.3345
 8877TIP3    H126564   7.439   7.428   2.342  0.0193 -1.0182 -0.4128
 8877TIP3    H226565   7.421   7.339   2.222 -1.7579  0.4181 -1.2421
 8878TIP3   OH226566   1.150   6.974   4.664 -0.4682 -0.4443  0.0104
 8878TIP3    H126567   1.233   6.987   4.618 -1.1019  0.9447 -0.7862
 8878TIP3    H226568   1.094   6.928   4.601 -0.3587 -1.2155  0.4788
 8879TIP3   OH226569   0.403   6.434   1.781  0.6479  0.4299 -0.0742
 8879TIP3    H126570   0.364   6.492   1.847 -1.4976 -0.3649 -0.5878
 8879TIP3    H226571   0.400   6.486   1.700 -1.8353 -0.5567 -0.6621
 8880TIP3   OH226572   7.969   7.580   1.841  0.2962  0.2881 -0.0246
 8880TIP3    H126573   7.988   7.545   1.755 -4.2862  0.0599 -1.1015
 8880TIP3    H226574   8.005   7.669   1.840  2.5264 -0.5986 -1.1681
 8881TIP3   OH226575   7.983   3.196   1.693 -0.1272  0.0110  0.6571
 8881TIP3    H126576   7.995   3.285   1.660  1.5937  0.4207  2.3339
 8881TIP3    H226577   7.942   3.207   1.779 -2.5969 -0.9619 -0.3307
 8882TIP3   OH226578   4.997   6.835   2.144 -0.2754  0.2744  0.1241
 8882TIP3    H126579   5.060   6.842   2.072  0.8274 -1.0241  0.9448
 8882TIP3    H226580   5.035   6.888   2.214  0.5705 -1.5480  1.0673
 8883TIP3   OH226581   8.067   6.499   1.266 -0.3576  0.1756 -0.2398
 8883TIP3    H126582   7.991   6.489   1.324 -0.7317 -0.6469 -0.8483
 8883TIP3    H226583   8.101   6.586   1.286  0.1792 -0.5146  1.9742
 8884TIP3   OH226584   6.413   5.289   4.353 -0.2346 -0.2573  0.1698
 8884TIP3    H126585   6.482   5.355   4.351  0.6528 -1.1744  0.2614
 8884TIP3    H226586   6.373   5.293   4.266 -0.8160  1.0368  0.4701
 8885TIP3   OH226587   7.269   5.981   1.588 -0.0407 -0.1358 -0.4933
 8885TIP3    H126588   7.274   6.069   1.550 -0.1762 -0.6706 -1.8047
 8885TIP3    H226589   7.286   5.923   1.514 -0.8720 -1.2402  0.1720
 8886TIP3   OH226590   0.590   6.397   4.869 -0.2271  0.0906 -0.4682
 8886TIP3    H126591   0.664   6.357   4.824 -0.6517  0.4485 -1.5022
 8886TIP3    H226592   0.531   6.323   4.888 -0.0965 -0.0469 -0.6006
 8887TIP3   OH226593   6.968   5.996   2.437 -0.3190  0.2023 -0.1493
 8887TIP3    H126594   6.934   6.082   2.465  1.1733  0.5137  0.7344
 8887TIP3    H226595   6.948   5.938   2.510 -0.2895  0.0522 -0.2622
 8888TIP3   OH226596   7.223   7.397   1.363  0.0718 -0.3207  0.1828
 8888TIP3    H126597   7.136   7.357   1.371 -0.6652  1.1628 -0.1274
 8888TIP3    H226598   7.229   7.421   1.270  1.1913 -1.2356  0.0133
 8889TIP3   OH226599   0.596   4.894   0.538 -0.1889 -0.7733 -0.0542
 8889TIP3    H126600   0.636   4.851   0.462  0.9236 -1.5608  0.9563
 8889TIP3    H226601   0.514   4.929   0.505  0.9323  0.1083 -1.9721
 8890TIP3   OH226602   6.892   5.735   3.183 -0.2752 -0.0643 -0.3687
 8890TIP3    H126603   6.918   5.775   3.266 -0.6254  0.7474 -0.6489
 8890TIP3    H226604   6.941   5.784   3.117 -0.0355 -0.6765 -0.6413
 8891TIP3   OH226605   7.956   5.968   4.095 -0.2953  0.5983 -0.3927
 8891TIP3    H126606   7.943   6.008   4.180 -2.5367  0.3606 -0.6067
 8891TIP3    H226607   7.958   6.042   4.033  0.3107  0.6955 -0.2617
 8892TIP3   OH226608   0.144  -0.014   3.302 -0.7460  0.2676 -0.1564
 8892TIP3    H126609   0.074  -0.011   3.367 -0.4634 -0.7611  0.2030
 8892TIP3    H226610   0.113   0.043   3.231 -0.9308  1.6099  0.9793
 8893TIP3   OH226611   7.753   5.622   3.018 -0.0487  0.3295 -0.2026
 8893TIP3    H126612   7.714   5.539   2.991 -1.7679  0.9466  0.2910
 8893TIP3    H226613   7.760   5.672   2.937  0.2336 -0.0016 -0.3826
 8894TIP3   OH226614   0.973   7.179   2.589 -0.5152 -0.4403 -0.1467
 8894TIP3    H126615   0.955   7.247   2.524  0.9316  0.3642  0.2849
 8894TIP3    H226616   1.062   7.151   2.571 -1.0427 -2.1348 -0.2184
 8895TIP3   OH226617   4.794   7.220   3.983  0.1795 -0.3641 -0.1862
 8895TIP3    H126618   4.783   7.133   3.946 -0.0593 -0.5263  0.2594
 8895TIP3    H226619   4.763   7.211   4.073 -0.9694  0.4761 -0.4910
 8896TIP3   OH226620   1.894   0.252   0.699 -0.2549  0.0473  0.1569
 8896TIP3    H126621   1.915   0.196   0.774  0.1412  0.1168  0.0984
 8896TIP3    H226622   1.976   0.258   0.650 -0.2169  0.9041  0.3140
 8897TIP3   OH226623   5.371   5.855   3.788  0.2788  0.3010  0.0948
 8897TIP3    H126624   5.284   5.893   3.774  0.3970 -0.2724 -2.4083
 8897TIP3    H226625   5.379   5.788   3.721  2.1832 -0.5113  1.0978
 8898TIP3   OH226626   1.078   0.764   2.133 -0.7943  0.1399 -0.2001
 8898TIP3    H126627   1.108   0.717   2.211 -2.0262  2.2121  1.5902
 8898TIP3    H226628   1.001   0.716   2.104  0.7000 -1.6803 -1.2158
 8899TIP3   OH226629   0.401   7.013   1.932  0.5267 -0.2298  0.0099
 8899TIP3    H126630   0.474   6.955   1.954  1.3200  0.3502 -1.0738
 8899TIP3    H226631   0.401   7.079   2.001  1.0629 -0.1989 -0.0185
 8900TIP3   OH226632   7.634   3.951   1.714 -0.2908  0.1075  0.1417
 8900TIP3    H126633   7.722   3.979   1.740  0.0828 -0.1284 -0.8481
 8900TIP3    H226634   7.635   3.856   1.725 -1.0051  0.2739  1.8421
 8901TIP3   OH226635   2.648   0.384   4.470  0.1863  0.0354 -0.2471
 8901TIP3    H126636   2.724   0.425   4.428  1.0717 -1.8531 -0.5442
 8901TIP3    H226637   2.684   0.338   4.546 -0.7885 -0.1756  0.1034
 8902TIP3   OH226638   8.489   6.761   1.985 -0.0653 -0.0022  0.0502
 8902TIP3    H126639   8.472   6.667   1.984  2.4863 -0.5174  1.0680
 8902TIP3    H226640   8.420   6.797   2.041 -0.4449 -1.3938  0.5045
 8903TIP3   OH226641   1.219   2.463   1.809  0.2460  0.3719 -0.0098
 8903TIP3    H126642   1.271   2.389   1.777  0.7728  0.3694  0.8514
 8903TIP3    H226643   1.157   2.480   1.738  0.0054 -1.0045 -0.1399
 8904TIP3   OH226644   7.337   5.708   1.153 -0.0796  0.1741  0.4363
 8904TIP3    H126645   7.377   5.674   1.073  0.0819  0.4367  0.4046
 8904TIP3    H226646   7.388   5.786   1.174 -0.5007  0.4450  0.4644
 8905TIP3   OH226647   0.858   0.306   3.786  0.2089  0.8377  0.5701
 8905TIP3    H126648   0.789   0.293   3.851 -0.5169  0.6411 -0.2377
 8905TIP3    H226649   0.835   0.387   3.741 -0.1188  0.1731 -0.4693
 8906TIP3   OH226650   0.035   6.606   1.531  0.2276  0.3308 -0.8506
 8906TIP3    H126651   0.042   6.672   1.600  0.1478 -0.4629 -0.0744
 8906TIP3    H226652   0.057   6.523   1.574 -2.2594 -0.5290 -1.1655
 8907TIP3   OH226653   5.809   5.851   1.531 -0.5192  0.4760 -0.5622
 8907TIP3    H126654   5.845   5.808   1.454 -1.1467 -2.0227  0.4885
 8907TIP3    H226655   5.814   5.785   1.600  0.1007  2.6728  1.5772
 8908TIP3   OH226656   7.699   4.017   2.976  1.0715  0.0323  0.4562
 8908TIP3    H126657   7.609   3.986   2.989  0.8014  0.1995 -0.8779
 8908TIP3    H226658   7.725   3.979   2.891  1.7303  1.1895  0.1278
 8909TIP3   OH226659   6.734   7.237   0.279  0.0605 -0.2024 -0.1714
 8909TIP3    H126660   6.739   7.326   0.245 -2.2820 -0.1927 -0.5371
 8909TIP3    H226661   6.823   7.203   0.270  1.4080  2.6841  1.6058
 8910TIP3   OH226662   7.236   6.385   2.289 -0.3048  0.1686  0.2063
 8910TIP3    H126663   7.319   6.380   2.335 -0.0878  1.6529 -0.0110
 8910TIP3    H226664   7.174   6.418   2.353 -0.3340  0.7634 -0.1225
 8911TIP3   OH226665   8.460   7.808   2.055 -0.2636  0.3493  0.0864
 8911TIP3    H126666   8.513   7.764   2.121  1.5277  1.7451 -0.3838
 8911TIP3    H226667   8.396   7.859   2.105  0.0137  0.0960  0.6975
 8912TIP3   OH226668   5.902   6.581   2.353  0.0810  0.2181 -0.4601
 8912TIP3    H126669   5.893   6.487   2.340  1.4766 -0.0286  0.3257
 8912TIP3    H226670   5.918   6.616   2.265  2.0755 -0.5935 -0.4512
 8913TIP3   OH226671   7.783   5.895   3.302  0.3076  0.4917 -0.5126
 8913TIP3    H126672   7.839   5.818   3.296 -0.1549  0.1312 -0.2205
 8913TIP3    H226673   7.711   5.868   3.359  0.4085  1.2997  0.0049
 8914TIP3   OH226674   6.803   6.724   5.333  0.6400 -0.5023  0.5599
 8914TIP3    H126675   6.748   6.731   5.255 -1.9685  1.9962  2.4899
 8914TIP3    H226676   6.881   6.776   5.312 -0.0404  0.1684 -0.3674
 8915TIP3   OH226677   4.525   7.719   3.705 -0.3281  0.6012  0.0450
 8915TIP3    H126678   4.537   7.806   3.743 -1.1853  1.1358 -0.8704
 8915TIP3    H226679   4.543   7.731   3.612  2.8188 -0.9132  0.4134
 8916TIP3   OH226680   7.389   6.766   3.688  0.1339  0.0132  0.2552
 8916TIP3    H126681   7.391   6.672   3.670 -1.9537  0.2329 -1.2302
 8916TIP3    H226682   7.418   6.807   3.607  1.2825  0.6690  0.9772
 8917TIP3   OH226683   2.949   3.094   6.094  0.6491 -0.3373 -0.1207
 8917TIP3    H126684   2.876   3.073   6.036  0.0025  0.5958  0.3489
 8917TIP3    H226685   3.002   3.157   6.045  0.6825 -0.3557 -0.1088
 8918TIP3   OH226686   6.308   6.811   4.184  0.2028  0.3487  0.7725
 8918TIP3    H126687   6.229   6.812   4.237 -1.0494  2.1712 -1.0496
 8918TIP3    H226688   6.277   6.790   4.096  2.1598 -2.0304  0.5870
 8919TIP3   OH226689   6.065   0.313   2.810 -0.5839  0.0660  0.1577
 8919TIP3    H126690   6.052   0.365   2.731  0.2480 -0.1586 -0.1311
 8919TIP3    H226691   5.977   0.301   2.846 -1.1771 -1.3075 -1.6626
 8920TIP3   OH226692   7.912   7.277   2.921 -0.2628  0.1503  0.5661
 8920TIP3    H126693   7.822   7.296   2.894  0.2405  1.1273 -0.4659
 8920TIP3    H226694   7.944   7.359   2.959  1.1004  0.6855 -1.6417
 8921TIP3   OH226695   7.980   6.690   2.328  0.0790  0.0892  0.3028
 8921TIP3    H126696   8.069   6.691   2.364 -0.8751 -0.4180  2.7225
 8921TIP3    H226697   7.930   6.748   2.385 -1.2411  0.1128 -0.8526
 8922TIP3   OH226698   6.979   7.050   1.987  0.5597  0.1093  0.1710
 8922TIP3    H126699   6.927   6.980   1.948  1.5876 -0.5570  0.0054
 8922TIP3    H226700   6.924   7.128   1.977  0.3002 -0.2732 -1.5046
 8923TIP3   OH226701   0.339   6.171   3.542 -0.0018 -0.1052  0.3240
 8923TIP3    H126702   0.396   6.094   3.537 -2.2045 -1.7303 -0.1546
 8923TIP3    H226703   0.260   6.146   3.495  0.6451  3.7739 -3.0794
 8924TIP3   OH226704   7.159   7.120   4.465 -0.4011 -0.4310  0.5972
 8924TIP3    H126705   7.206   7.202   4.478  0.8399 -1.3805  2.2307
 8924TIP3    H226706   7.112   7.106   4.547 -0.3825 -1.4879  0.4311
 8925TIP3   OH226707   5.579   4.544   0.178 -0.0556  0.1958  0.2635
 8925TIP3    H126708   5.645   4.614   0.173 -0.9226  1.1520  1.6238
 8925TIP3    H226709   5.541   4.540   0.090 -0.9281  2.3956  0.5040
 8926TIP3   OH226710   7.137   7.766   3.188  0.3965  0.5911  0.1875
 8926TIP3    H126711   7.150   7.702   3.257 -0.2323  0.7886  0.4976
 8926TIP3    H226712   7.083   7.834   3.228 -0.0813  0.6431 -0.5305
 8927TIP3   OH226713   8.389   3.295   1.334  0.7669  0.0157 -0.1902
 8927TIP3    H126714   8.391   3.253   1.420 -0.0747 -1.2082 -0.7396
 8927TIP3    H226715   8.380   3.222   1.272  1.6976  0.8466 -1.3472
 8928TIP3   OH226716   7.477   5.955   3.699 -0.5696  0.4542  0.0343
 8928TIP3    H126717   7.566   5.966   3.730 -0.4922 -1.5710  0.5948
 8928TIP3    H226718   7.429   5.916   3.773 -1.2643 -0.9035 -1.0831
 8929TIP3   OH226719   8.159   5.432   3.079 -0.9072  0.0848 -0.0151
 8929TIP3    H126720   8.153   5.398   2.990 -1.5123 -0.7258  0.3292
 8929TIP3    H226721   8.156   5.527   3.069  3.3253  0.2101 -1.1805
 8930TIP3   OH226722   1.314   6.237   2.560  0.0794 -0.2321  0.5395
 8930TIP3    H126723   1.264   6.293   2.620 -0.2097  0.4504 -0.3293
 8930TIP3    H226724   1.248   6.196   2.505  0.4368  0.2051 -0.2150
 8931TIP3   OH226725   0.248   5.499   1.381 -0.0038 -0.2414 -0.5190
 8931TIP3    H126726   0.230   5.550   1.460 -1.0851  0.1306 -1.0075
 8931TIP3    H226727   0.243   5.408   1.410  0.9362 -0.0925  0.1325
 8932TIP3   OH226728   1.064   6.540   5.804  0.5028  0.1925 -0.2370
 8932TIP3    H126729   1.051   6.446   5.815  1.4329  0.2018  1.1090
 8932TIP3    H226730   1.156   6.549   5.781  0.3000  0.7367 -0.8426
 8933TIP3   OH226731   5.637   6.486   3.871 -0.0133 -0.3650  0.0743
 8933TIP3    H126732   5.702   6.538   3.918  0.5418 -1.3248  0.3730
 8933TIP3    H226733   5.685   6.410   3.839 -0.4489  0.1212 -1.7969
 8934TIP3   OH226734   8.308   0.186   4.115  0.3047 -0.1438 -0.1561
 8934TIP3    H126735   8.251   0.110   4.103  1.4317 -0.8851 -0.8297
 8934TIP3    H226736   8.309   0.229   4.030  1.6902 -0.7886 -0.4721
 8935TIP3   OH226737   0.570   5.956   3.514  0.2500  0.9703 -0.3853
 8935TIP3    H126738   0.613   5.872   3.496  0.4334  1.2737 -1.3784
 8935TIP3    H226739   0.635   6.008   3.561  0.1912  0.6187  0.0908
 8936TIP3   OH226740   7.177   4.443   2.842  0.0630 -0.3466  0.1380
 8936TIP3    H126741   7.201   4.490   2.922 -0.4572  1.0584 -0.5229
 8936TIP3    H226742   7.099   4.393   2.867  0.4000 -0.5843  0.7386
 8937TIP3   OH226743   3.187   6.992   3.677  0.0252 -0.2864  0.1760
 8937TIP3    H126744   3.206   6.910   3.632  0.7104  0.2794 -0.5891
 8937TIP3    H226745   3.189   6.970   3.770 -1.6872 -1.5298 -0.0627
 8938TIP3   OH226746   1.138   0.254   4.181 -0.1550  0.2528  0.0992
 8938TIP3    H126747   1.212   0.194   4.178 -0.3943 -0.0766  0.6512
 8938TIP3    H226748   1.086   0.223   4.256 -1.1459  0.1166 -0.6441
 8939TIP3   OH226749   0.618   5.358   3.521  0.4810  0.3609 -0.1384
 8939TIP3    H126750   0.674   5.397   3.587 -0.3312  0.7741  0.3091
 8939TIP3    H226751   0.568   5.291   3.568  1.2570 -0.6375 -0.7219
 8940TIP3   OH226752   8.288   6.954   2.865 -0.5521  0.2375 -0.0040
 8940TIP3    H126753   8.310   6.875   2.915  1.6424  0.8364 -0.0130
 8940TIP3    H226754   8.239   6.921   2.790  0.4652 -1.1431 -0.0746
 8941TIP3   OH226755   5.715   4.791   5.742 -0.4358  0.0174 -0.1161
 8941TIP3    H126756   5.788   4.792   5.804 -0.3498 -1.0874 -0.1843
 8941TIP3    H226757   5.728   4.710   5.692  0.4332  1.7178 -2.7228
 8942TIP3   OH226758   4.629   3.073   6.544 -0.0993  0.8732 -0.5917
 8942TIP3    H126759   4.597   3.017   6.615 -2.1059  0.9787 -1.3748
 8942TIP3    H226760   4.653   3.155   6.587 -0.1941  0.5364  0.1190
 8943TIP3   OH226761   6.576   6.645   1.416 -0.3167 -0.2943  0.3632
 8943TIP3    H126762   6.507   6.703   1.383 -2.3346 -2.8170 -0.1166
 8943TIP3    H226763   6.593   6.585   1.342  0.5931 -1.2527  1.3384
 8944TIP3   OH226764   7.814   2.018   2.048 -0.0772  0.2186  0.6912
 8944TIP3    H126765   7.743   2.060   1.998  0.1910 -0.2637 -0.1035
 8944TIP3    H226766   7.797   1.924   2.039  0.0361  0.1241  1.4249
 8945TIP3   OH226767   8.065   0.352   3.503 -0.0963 -0.1533 -0.3932
 8945TIP3    H126768   8.076   0.261   3.474  0.4678  0.0694 -0.8876
 8945TIP3    H226769   7.972   0.360   3.523 -0.0447 -1.0080  0.2179
 8946TIP3   OH226770   1.445   6.021   3.144 -0.1912 -0.4259  0.0205
 8946TIP3    H126771   1.360   6.042   3.183 -0.4380 -0.4065 -0.5148
 8946TIP3    H226772   1.506   6.081   3.186 -0.7326  0.7513 -0.8153
 8947TIP3   OH226773   7.964   6.035   1.030 -0.7794  0.4193 -0.0186
 8947TIP3    H126774   7.904   5.974   1.073  0.0930 -0.9556 -0.7359
 8947TIP3    H226775   8.002   5.985   0.958 -0.4916  1.9840 -0.9888
 8948TIP3   OH226776   7.045   6.945   2.925 -0.0166  0.0481  0.5585
 8948TIP3    H126777   7.081   6.870   2.878  1.3864  0.7075  0.5477
 8948TIP3    H226778   7.022   6.911   3.011 -0.0640 -0.5572  0.3076
 8949TIP3   OH226779   1.748   6.110   2.844  0.1861 -0.2147 -0.0760
 8949TIP3    H126780   1.812   6.181   2.836 -0.9752  0.7098 -1.1496
 8949TIP3    H226781   1.698   6.113   2.763 -1.8088 -0.3925  1.1302
 8950TIP3   OH226782   2.530   5.715   1.487  0.1243  0.5533  0.7891
 8950TIP3    H126783   2.554   5.640   1.541  1.0587 -0.1582 -0.5829
 8950TIP3    H226784   2.600   5.721   1.421 -0.2953  2.2011  0.4599
 8951TIP3   OH226785   6.852   5.890   1.754  0.2814  0.6038 -0.6551
 8951TIP3    H126786   6.888   5.803   1.769  0.2701  0.6894 -0.1234
 8951TIP3    H226787   6.902   5.925   1.680  0.5981  0.3253 -0.5725
 8952TIP3   OH226788   0.981   6.007   0.319 -0.4142  0.1490 -0.7651
 8952TIP3    H126789   1.014   5.919   0.302  1.9763  0.7058  0.7773
 8952TIP3    H226790   0.978   6.049   0.233  2.3001 -0.1768 -1.0706
 8953TIP3   OH226791   0.364   4.345   1.602  0.1702 -0.1963  0.5541
 8953TIP3    H126792   0.386   4.426   1.647  1.4574 -0.8835  1.1874
 8953TIP3    H226793   0.293   4.306   1.654 -0.1905  0.3295  0.4576
 8954TIP3   OH226794   8.358   6.901   4.272  0.2046 -0.5444  0.5625
 8954TIP3    H126795   8.408   6.915   4.193 -0.5408 -1.0443 -0.0070
 8954TIP3    H226796   8.423   6.890   4.341  0.8686 -1.0511 -0.1442
 8955TIP3   OH226797   0.113   5.720   2.106  0.2141  0.0320  0.0214
 8955TIP3    H126798   0.143   5.761   2.187 -1.8483  0.6238  0.5042
 8955TIP3    H226799   0.194   5.702   2.057  1.3988  0.7584  1.6724
 8956TIP3   OH226800   5.448   4.685   6.878 -0.0808 -0.5415  0.3142
 8956TIP3    H126801   5.359   4.663   6.853 -0.2013 -1.4311  1.5236
 8956TIP3    H226802   5.471   4.760   6.822 -1.7912  0.0833  0.4407
 8957TIP3   OH226803   0.191   5.857   2.322 -0.3929 -0.2074 -0.1856
 8957TIP3    H126804   0.130   5.797   2.365  0.5105 -0.7000  0.4001
 8957TIP3    H226805   0.258   5.875   2.387 -0.4249  1.1060 -0.5028
 8958TIP3   OH226806   0.633   6.506   2.291 -0.3523 -0.3234  0.2864
 8958TIP3    H126807   0.627   6.531   2.384 -3.4994  0.1315  0.0362
 8958TIP3    H226808   0.691   6.430   2.290 -0.5280 -0.5325  2.6935
 8959TIP3   OH226809   7.142   6.314   2.029  0.2421  0.4056 -0.1053
 8959TIP3    H126810   7.170   6.369   1.955 -0.8432  0.8257 -0.2051
 8959TIP3    H226811   7.186   6.353   2.105  0.1642  0.8961 -0.3060
 8960TIP3   OH226812   0.705   1.741   4.500 -0.1015 -0.4606 -0.3934
 8960TIP3    H126813   0.666   1.684   4.434  1.2028 -0.8206 -0.8648
 8960TIP3    H226814   0.789   1.700   4.521  0.8167  1.2382 -0.6768
 8961TIP3   OH226815   2.893   0.306   4.672 -0.3889 -0.2784 -0.0672
 8961TIP3    H126816   2.944   0.386   4.686  0.8649 -1.3805  1.8316
 8961TIP3    H226817   2.958   0.239   4.653 -1.3769 -1.0688 -0.7154
 8962TIP3   OH226818   1.760   0.116   3.948  0.1574 -0.3726  0.0020
 8962TIP3    H126819   1.726   0.120   4.038  0.7557  4.1076  0.1295
 8962TIP3    H226820   1.698   0.169   3.897  2.0322  0.4558 -1.4537
 8963TIP3   OH226821   0.715   6.115   2.167 -0.2576  0.1376 -0.0963
 8963TIP3    H126822   0.668   6.037   2.135 -0.4378  0.2803 -0.1808
 8963TIP3    H226823   0.675   6.188   2.119  0.0072  0.2667 -0.1191
 8964TIP3   OH226824   6.754   6.419   3.630  0.2501 -0.0658 -0.0555
 8964TIP3    H126825   6.767   6.416   3.535 -0.2686  0.5234 -0.1477
 8964TIP3    H226826   6.790   6.504   3.656 -0.9847  0.4404  0.0551
 8965TIP3   OH226827   6.835   6.657   3.727 -0.6968  0.3526 -0.1161
 8965TIP3    H126828   6.839   6.753   3.719 -1.0038  0.3502 -0.3348
 8965TIP3    H226829   6.876   6.638   3.811 -0.2328  0.6408 -0.2797
 8966TIP3   OH226830   7.936   7.389   4.169 -0.2977  0.0092  0.9242
 8966TIP3    H126831   7.917   7.296   4.171 -0.9074  0.0852 -0.5757
 8966TIP3    H226832   7.853   7.431   4.192 -0.6267  0.2206 -0.5955
 8967TIP3   OH226833   6.107   7.536   1.662 -0.4900 -0.0959  0.0613
 8967TIP3    H126834   6.138   7.606   1.720  0.0183  0.7200 -1.1554
 8967TIP3    H226835   6.174   7.530   1.594  0.2746 -2.9144  1.0291
 8968TIP3   OH226836   6.581   7.448   2.748  0.7578 -0.2514  0.4251
 8968TIP3    H126837   6.562   7.383   2.680 -1.7732 -1.0501  1.8298
 8968TIP3    H226838   6.591   7.530   2.700  0.4564 -1.0607 -1.0532
 8969TIP3   OH226839   4.347   7.493   6.690  0.0982 -0.2206  0.1427
 8969TIP3    H126840   4.340   7.580   6.652 -0.3685  0.6696  2.2078
 8969TIP3    H226841   4.282   7.441   6.643 -0.8109  0.9752  0.0651
 8970TIP3   OH226842   7.467   5.115   2.775 -0.4719  0.2245  0.3104
 8970TIP3    H126843   7.388   5.125   2.828 -1.7096  0.2364 -1.4809
 8970TIP3    H226844   7.435   5.102   2.686  1.5356 -0.8447 -0.2991
 8971TIP3   OH226845   1.036   0.497   4.366  0.0661  0.5950 -0.2025
 8971TIP3    H126846   1.091   0.480   4.289 -1.1967 -0.6175 -0.8585
 8971TIP3    H226847   1.013   0.410   4.398 -0.0388  1.0981  1.1228
 8972TIP3   OH226848   2.834   4.805   2.255 -0.4554  0.3696 -0.0604
 8972TIP3    H126849   2.768   4.740   2.231  0.4280 -0.0956 -1.2715
 8972TIP3    H226850   2.911   4.782   2.203 -0.1530  2.4410 -0.5683
 8973TIP3   OH226851   6.427   3.982   4.803 -0.4139 -0.3655  0.1928
 8973TIP3    H126852   6.445   3.905   4.750  0.8924  0.2160 -0.2317
 8973TIP3    H226853   6.354   4.026   4.759 -1.7314 -1.8012  0.9161
 8974TIP3   OH226854   5.310   4.965   3.350  0.1603  0.3245 -0.1203
 8974TIP3    H126855   5.385   4.909   3.330  0.3982  0.4196  0.5121
 8974TIP3    H226856   5.234   4.909   3.335  0.3695  0.0958 -0.3273
 8975TIP3   OH226857   0.840   5.817   2.234  0.0575 -0.8757 -0.0164
 8975TIP3    H126858   0.862   5.743   2.177 -0.6485 -0.3768 -0.9595
 8975TIP3    H226859   0.787   5.875   2.179  0.0952  0.0450  0.8903
 8976TIP3   OH226860   0.080   5.929   1.278 -0.3233 -0.1146 -0.2041
 8976TIP3    H126861   0.098   5.915   1.371 -2.0463 -1.6075 -0.0699
 8976TIP3    H226862  -0.010   5.961   1.276  0.2007  1.3138 -1.2738
 8977TIP3   OH226863   2.563   7.024   1.602 -0.0635  0.5151 -0.7358
 8977TIP3    H126864   2.517   7.088   1.658 -0.0624 -0.1404  0.0249
 8977TIP3    H226865   2.655   7.034   1.626 -0.0383  0.3882 -0.7838
 8978TIP3   OH226866   8.323   6.210   5.036  0.5271  0.1479  0.3086
 8978TIP3    H126867   8.322   6.208   4.941 -0.2846  0.3620  0.3068
 8978TIP3    H226868   8.287   6.125   5.062  2.8115 -0.8104  0.4464
 8979TIP3   OH226869   6.646   6.462   1.014  0.2470  0.0324 -0.1133
 8979TIP3    H126870   6.687   6.430   1.095 -0.3159 -0.1499  0.0996
 8979TIP3    H226871   6.659   6.391   0.951 -0.0762 -0.1888  0.0645
 8980TIP3   OH226872   6.870   5.415   2.104  0.2684 -0.0249  0.0441
 8980TIP3    H126873   6.946   5.455   2.147 -0.9702 -1.7438  4.0186
 8980TIP3    H226874   6.795   5.455   2.147 -1.0274 -2.5868  0.2243
 8981TIP3   OH226875   0.292   6.935   4.443 -0.2387 -0.3301  0.2235
 8981TIP3    H126876   0.374   6.985   4.440  1.0506 -2.4577 -1.5650
 8981TIP3    H226877   0.305   6.873   4.515  0.3462 -1.7025 -1.0607
 8982TIP3   OH226878   8.189   6.707   2.969  0.4478 -0.9193  0.0243
 8982TIP3    H126879   8.114   6.684   3.024  0.4998 -2.1861 -0.4089
 8982TIP3    H226880   8.207   6.627   2.920  2.1137 -0.6267  0.1581
 8983TIP3   OH226881   7.555   5.631   2.275  0.3870  0.4466  0.4625
 8983TIP3    H126882   7.559   5.637   2.180 -0.9470 -0.3936  0.3345
 8983TIP3    H226883   7.633   5.582   2.300  1.8587  2.5030 -0.0005
 8984TIP3   OH226884   4.139   3.686   5.644 -0.2790  0.2065  0.4629
 8984TIP3    H126885   4.185   3.760   5.685  0.2877  1.2501 -1.9537
 8984TIP3    H226886   4.209   3.631   5.609 -0.7751 -0.1913  0.0935
 8985TIP3   OH226887   0.054   3.962   3.069  0.6948  0.0798  0.5418
 8985TIP3    H126888   0.012   4.032   3.019  1.5724  0.1550 -0.1058
 8985TIP3    H226889  -0.018   3.920   3.117  0.0789  1.0470  0.4855
 8986TIP3   OH226890   8.138   6.235   1.643  0.4139 -0.0847 -0.0788
 8986TIP3    H126891   8.077   6.265   1.710 -0.8190 -1.3354 -0.6258
 8986TIP3    H226892   8.167   6.315   1.599 -1.7277  0.4305 -0.5824
 8987TIP3   OH226893   0.333   6.487   3.579 -0.1117 -0.2803 -0.1845
 8987TIP3    H126894   0.309   6.502   3.487 -0.1361 -0.4849 -0.2116
 8987TIP3    H226895   0.346   6.393   3.585 -0.5853 -0.3219  0.1382
 8988TIP3   OH226896   6.827   5.297   5.925 -0.2778  0.1494 -0.3711
 8988TIP3    H126897   6.910   5.307   5.878 -0.4351 -1.8453 -1.1167
 8988TIP3    H226898   6.785   5.383   5.918  0.6697  0.4994 -2.0094
 8989TIP3   OH226899   0.050   6.247   5.451  0.2427 -0.1343  0.7268
 8989TIP3    H126900   0.128   6.198   5.426  1.5764  1.6720  1.2306
 8989TIP3    H226901   0.081   6.314   5.512 -1.7372  0.4641  1.1406
 8990TIP3   OH226902   0.139   6.137   4.454 -0.6710 -0.2841 -0.1085
 8990TIP3    H126903   0.182   6.106   4.534 -1.5262  1.0252  0.8978
 8990TIP3    H226904   0.116   6.228   4.474 -1.4799 -0.1436 -1.6159
 8991TIP3   OH226905   2.324   0.583   3.770 -0.4663  0.4357 -0.3713
 8991TIP3    H126906   2.397   0.522   3.758 -0.7036  0.3749 -1.6106
 8991TIP3    H226907   2.320   0.597   3.864 -0.1518 -1.1651 -0.0947
 8992TIP3   OH226908   2.282   5.448   4.074  0.0875 -0.4597  0.1045
 8992TIP3    H126909   2.210   5.468   4.015 -0.8262  1.5489  1.8480
 8992TIP3    H226910   2.359   5.443   4.018 -0.9443  0.2774 -1.3927
 8993TIP3   OH226911   1.287   7.477   4.762  0.3553 -0.5134  0.0325
 8993TIP3    H126912   1.196   7.507   4.764  0.1557 -0.9691 -1.6776
 8993TIP3    H226913   1.328   7.521   4.837 -0.9883  0.5887  0.1479
 8994TIP3   OH226914   0.123   6.962   4.124 -0.0478 -0.1569  0.4086
 8994TIP3    H126915   0.169   7.043   4.148 -0.8487  0.2675  0.5717
 8994TIP3    H226916   0.169   6.893   4.171  1.0933  0.1138 -0.3105
 8995TIP3   OH226917   0.737   7.748   2.529 -0.9610 -0.3874 -0.1085
 8995TIP3    H126918   0.672   7.729   2.597 -0.5372 -1.5065 -0.0116
 8995TIP3    H226919   0.734   7.671   2.471 -0.1096 -0.1923 -0.4063
 8996TIP3   OH226920   1.079   7.616   1.432 -0.6329 -0.1193  0.0691
 8996TIP3    H126921   1.146   7.684   1.442 -1.2540  0.4049  0.7110
 8996TIP3    H226922   1.120   7.550   1.376  0.4608  0.1447  0.5515
 8997TIP3   OH226923   4.305   1.254   5.834 -0.6741 -0.0672 -0.7387
 8997TIP3    H126924   4.314   1.159   5.841 -0.9927 -0.1266 -1.1127
 8997TIP3    H226925   4.330   1.273   5.744 -2.0634  0.0293 -1.1201
 8998TIP3   OH226926   6.688   5.810   4.718 -0.3209  0.2398  0.1034
 8998TIP3    H126927   6.614   5.822   4.778 -0.0256  0.2396  0.4679
 8998TIP3    H226928   6.762   5.851   4.763 -0.4374  1.6695 -0.9561
 8999TIP3   OH226929   7.128   6.130   5.100  0.6678 -0.9696  0.4511
 8999TIP3    H126930   7.193   6.176   5.047  0.2480 -0.0385  0.7500
 8999TIP3    H226931   7.173   6.114   5.184 -0.2823  1.8346  1.5435
 9000TIP3   OH226932   5.979   6.453   4.924  0.3682 -0.5238 -0.4688
 9000TIP3    H126933   6.008   6.532   4.879 -0.6197  0.5371  0.6972
 9000TIP3    H226934   5.949   6.395   4.854 -1.1091  1.0872 -1.2157
 9001TIP3   OH226935   3.561   6.355   6.470 -0.0227  0.3438 -0.3130
 9001TIP3    H126936   3.508   6.353   6.390  1.5428 -0.4059 -1.3690
 9001TIP3    H226937   3.640   6.404   6.445  0.9383 -0.7700  0.4526
 9002TIP3   OH226938   0.427   4.362   3.061 -0.2362  0.5465 -0.1528
 9002TIP3    H126939   0.339   4.394   3.041 -0.7832 -0.8347  0.0179
 9002TIP3    H226940   0.452   4.310   2.984 -0.1438 -0.2607  0.4237
 9003TIP3   OH226941   3.852   0.578   4.158 -0.0070  0.1868 -0.2038
 9003TIP3    H126942   3.904   0.499   4.172  1.1136  0.7011 -1.3360
 9003TIP3    H226943   3.909   0.649   4.188 -0.0778  0.7552 -1.4073
 9004TIP3   OH226944   2.321   6.387   3.309  0.3121  0.3896  0.5381
 9004TIP3    H126945   2.262   6.347   3.372 -1.8973  1.7549 -0.6229
 9004TIP3    H226946   2.318   6.330   3.232 -0.8002  1.3527 -0.1396
 9005TIP3   OH226947   1.095   7.265   5.548  0.5139  0.0567  0.2469
 9005TIP3    H126948   1.146   7.334   5.591 -0.1096 -0.1577  1.3489
 9005TIP3    H226949   1.125   7.266   5.457  1.9279  0.4536  0.7045
 9006TIP3   OH226950   6.774   6.243   3.383 -0.1142  0.2010 -0.1135
 9006TIP3    H126951   6.813   6.182   3.321 -0.1207  1.5212 -1.4611
 9006TIP3    H226952   6.717   6.189   3.437  0.1794 -1.0473 -1.0190
 9007TIP3   OH226953   0.323   8.013   4.791 -0.2943 -0.0032 -0.2146
 9007TIP3    H126954   0.270   7.960   4.732 -0.1244 -0.7003  0.2655
 9007TIP3    H226955   0.261   8.044   4.858  0.0075 -1.2655  0.6553
 9008TIP3   OH226956   2.173   6.024   4.344  0.4027 -0.2438  0.2403
 9008TIP3    H126957   2.143   6.009   4.434  0.5951 -0.8439  0.2064
 9008TIP3    H226958   2.268   6.022   4.349  0.4054 -1.1173 -0.1142
 9009TIP3   OH226959   2.523   2.793   5.852 -0.4498 -0.3711 -0.3562
 9009TIP3    H126960   2.455   2.735   5.818 -1.2739  0.1090  0.4820
 9009TIP3    H226961   2.478   2.854   5.910  0.9464 -1.1749  1.6226
 9010TIP3   OH226962   0.727   5.038   2.787  0.3538 -0.5184  0.1520
 9010TIP3    H126963   0.812   5.080   2.784  0.2168 -0.1876  0.7337
 9010TIP3    H226964   0.735   4.963   2.729  0.2191  1.0089 -1.9004
 9011TIP3   OH226965   7.331   6.353   4.530  0.2727  0.6027  0.2654
 9011TIP3    H126966   7.371   6.434   4.562  3.6902 -0.9906  0.1663
 9011TIP3    H226967   7.373   6.337   4.446 -0.6521 -1.1123  0.1120
 9012TIP3   OH226968   1.223   6.402   3.968  0.0820  0.2612  0.3954
 9012TIP3    H126969   1.309   6.389   3.928  0.0039 -2.0250  0.9049
 9012TIP3    H226970   1.163   6.410   3.893  0.4702 -0.0074  0.0514
 9013TIP3   OH226971   3.336   2.802   6.084  0.0120  0.2373  0.7909
 9013TIP3    H126972   3.410   2.862   6.082  0.8924 -0.8160  1.1677
 9013TIP3    H226973   3.375   2.715   6.075 -1.0124 -0.4536  2.7722
 9014TIP3   OH226974   1.477   7.475   4.297  0.1535 -0.0647 -0.2286
 9014TIP3    H126975   1.427   7.401   4.332  1.2100 -0.2642  0.9084
 9014TIP3    H226976   1.539   7.434   4.236 -0.3279  0.0603 -0.8031
 9015TIP3   OH226977   1.309   6.224   4.854 -0.2977 -0.1568  0.4044
 9015TIP3    H126978   1.228   6.228   4.904 -0.3894  3.8611  0.1437
 9015TIP3    H226979   1.297   6.289   4.785  1.5546 -2.4651 -2.1717
 9016TIP3   OH226980   1.727   6.557   4.044  0.5596 -0.3644 -0.7745
 9016TIP3    H126981   1.808   6.509   4.031  0.3250 -0.6248 -1.2702
 9016TIP3    H226982   1.670   6.495   4.090  0.4984 -0.3165 -0.7856
 9017TIP3   OH226983   0.382   6.162   3.807 -0.5061  0.1469 -0.2531
 9017TIP3    H126984   0.407   6.191   3.720  1.0651  0.2180  0.2171
 9017TIP3    H226985   0.286   6.167   3.807 -0.3908  2.8218 -1.0364
 9018TIP3   OH226986   0.864   5.245   6.391  0.2784 -0.3056  0.3061
 9018TIP3    H126987   0.840   5.336   6.376  0.0991 -0.1734  1.3502
 9018TIP3    H226988   0.912   5.219   6.312 -2.0703 -0.1529 -1.2428
 9019TIP3   OH226989   2.452   6.896   4.230  0.3944 -0.2893  0.3685
 9019TIP3    H126990   2.395   6.880   4.155  1.9267  1.9674 -1.3733
 9019TIP3    H226991   2.435   6.824   4.290  0.0301 -2.8723 -2.7048
 9020TIP3   OH226992   0.776   5.787   3.742 -0.3776 -0.0974  0.0727
 9020TIP3    H126993   0.783   5.727   3.816 -0.4417 -0.1767  0.0153
 9020TIP3    H226994   0.737   5.866   3.779 -0.4386 -0.1476  0.1185
 9021TIP3   OH226995   1.039   7.614   4.143 -0.3553 -0.4607  0.2034
 9021TIP3    H126996   1.077   7.532   4.172  0.7701 -0.1368 -0.3338
 9021TIP3    H226997   0.960   7.625   4.197  0.0662 -1.3529  1.0042
 9022TIP3   OH226998   0.773   5.275   4.679  0.3059  0.4538 -0.3178
 9022TIP3    H126999   0.806   5.328   4.752 -1.2875  0.5615  0.3461
 9022TIP3    H227000   0.692   5.319   4.652  0.5715  0.0845 -1.7857
 9023TIP3   OH227001   1.012   6.268   5.429 -0.4228 -0.6216  0.0430
 9023TIP3    H127002   1.068   6.314   5.492 -1.3101 -1.0529  1.1490
 9023TIP3    H227003   1.006   6.329   5.355 -1.8118  1.1934  1.6121
 9024TIP3   OH227004   4.115   7.116   4.448 -0.6588 -0.1633 -0.1190
 9024TIP3    H127005   4.203   7.148   4.428 -0.5635  0.4502  1.2449
 9024TIP3    H227006   4.067   7.194   4.475 -0.9407 -0.8572  1.4495
 9025TIP3   OH227007   2.966   6.865   2.837  0.6793  0.0131 -0.3822
 9025TIP3    H127008   3.004   6.781   2.865  0.2736 -0.3761 -0.9736
 9025TIP3    H227009   3.031   6.902   2.777  0.0197 -0.7833 -1.6093
 9026TIP3   OH227010   4.505   0.352   3.739 -0.0981 -0.0958  0.4717
 9026TIP3    H127011   4.499   0.337   3.833  0.6237  3.8794  1.2417
 9026TIP3    H227012   4.436   0.416   3.720  1.6306  1.3934 -1.1063
 9027TIP3   OH227013   2.935   7.858   2.959 -0.1813 -0.2809  0.1351
 9027TIP3    H127014   2.930   7.764   2.978  2.3458 -0.2467  1.1976
 9027TIP3    H227015   2.945   7.899   3.045  0.7072  0.7791 -0.4600
 9028TIP3   OH227016   2.076   7.109   3.307 -0.2140  0.2773  0.6660
 9028TIP3    H127017   2.029   7.071   3.382 -0.2967 -0.3963  0.2817
 9028TIP3    H227018   2.016   7.176   3.274 -0.3738  0.2684  0.9289
 9029TIP3   OH227019   1.348   7.836   3.746 -0.6227  0.0777 -0.3391
 9029TIP3    H127020   1.289   7.799   3.811 -0.6686 -0.2133 -0.5433
 9029TIP3    H227021   1.358   7.766   3.681 -0.6393  0.3896 -0.6822
 9030TIP3   OH227022   7.647   7.708   4.359  0.1829 -0.4417  0.1343
 9030TIP3    H127023   7.694   7.738   4.282  0.4171 -3.0627 -0.7778
 9030TIP3    H227024   7.640   7.613   4.348 -0.8720 -0.7054  2.7226
 9031TIP3   OH227025   4.272   1.980   5.027 -0.3243  0.2905 -0.2725
 9031TIP3    H127026   4.316   1.903   5.063 -0.8184 -0.3988 -1.1162
 9031TIP3    H227027   4.342   2.044   5.015  0.3966 -0.6588 -1.2374
 9032TIP3   OH227028   2.728   6.154   4.178 -0.2570  0.6949  0.1457
 9032TIP3    H127029   2.800   6.205   4.215  0.0274  1.6158 -1.6372
 9032TIP3    H227030   2.659   6.159   4.243  0.4451  1.7834  0.8174
 9033TIP3   OH227031   2.384   7.406   1.921 -0.9174 -0.0696 -0.3639
 9033TIP3    H127032   2.342   7.343   1.980 -0.9575  0.3680  0.0884
 9033TIP3    H227033   2.352   7.384   1.834  0.3386 -1.6897 -0.4265
 9034TIP3   OH227034   2.681   6.721   3.957 -0.7979  0.3898 -0.0978
 9034TIP3    H127035   2.739   6.695   4.028 -0.9909 -1.7522 -0.6982
 9034TIP3    H227036   2.593   6.721   3.996 -0.7515  0.5221  0.0057
 9035TIP3   OH227037   3.848   7.630   2.140 -0.3423  0.2534  0.4637
 9035TIP3    H127038   3.902   7.553   2.123  0.2867  0.7970 -0.0459
 9035TIP3    H227039   3.874   7.692   2.072 -1.2297  0.7152  0.5465
 9036TIP3   OH227040   2.670   0.269   4.004 -0.0654  0.0089  0.1022
 9036TIP3    H127041   2.614   0.290   4.078 -2.1758 -1.2482 -1.0723
 9036TIP3    H227042   2.625   0.308   3.928  1.2380 -0.0370 -0.7095
 9037TIP3   OH227043   1.695   7.594   3.400 -0.2786 -0.0217  0.6694
 9037TIP3    H127044   1.682   7.683   3.366 -2.5163 -0.4764  0.2503
 9037TIP3    H227045   1.790   7.582   3.400 -0.0300  1.6657 -1.0971
 9038TIP3   OH227046   3.249   6.163   4.945 -0.0595 -0.2338  0.0007
 9038TIP3    H127047   3.219   6.254   4.948  0.6051  0.0196 -0.6985
 9038TIP3    H227048   3.174   6.113   4.914 -1.0293 -0.2072  2.2540
 9039TIP3   OH227049   3.807   1.127   3.868  0.1068 -0.1355  0.0972
 9039TIP3    H127050   3.863   1.138   3.791  0.8709  0.3817  0.7150
 9039TIP3    H227051   3.718   1.122   3.833  0.5697 -1.5259 -0.9525
 9040TIP3   OH227052   4.397   0.979   0.602 -0.0109  0.4368  0.5056
 9040TIP3    H127053   4.446   1.058   0.628  0.4117 -0.0609  1.2477
 9040TIP3    H227054   4.440   0.908   0.650  1.9936 -0.8116 -2.8989
 9041TIP3   OH227055   1.308   7.075   4.847  0.0529 -0.3060 -0.2155
 9041TIP3    H127056   1.285   7.036   4.762  1.2386 -1.7068  0.0738
 9041TIP3    H227057   1.373   7.142   4.826  0.3553 -0.6608 -0.4234
 9042TIP3   OH227058   3.535   7.173   4.286 -0.3108 -0.2190 -0.1988
 9042TIP3    H127059   3.564   7.119   4.212  0.2859 -0.1909  0.0134
 9042TIP3    H227060   3.616   7.205   4.326 -0.6500  0.7394 -0.2486
 9043TIP3   OH227061   1.449   5.724   5.295 -0.1554 -1.1790  0.3835
 9043TIP3    H127062   1.356   5.741   5.309 -0.1582  1.0020 -1.9621
 9043TIP3    H227063   1.490   5.740   5.380 -1.3963  1.8882  0.4483
 9044TIP3   OH227064   4.302   1.038   4.812 -0.1783  0.0890  0.3576
 9044TIP3    H127065   4.330   1.113   4.759 -0.9836  0.5182  0.5359
 9044TIP3    H227066   4.370   0.972   4.798 -1.0340 -0.2960 -2.2827
 9045TIP3   OH227067   7.602   6.434   4.185  0.1308  0.9665  0.0225
 9045TIP3    H127068   7.552   6.479   4.117  0.9274 -0.1603 -1.3327
 9045TIP3    H227069   7.563   6.347   4.192 -1.5301  1.8590  2.7803
 9046TIP3   OH227070   3.235   6.269   3.886 -0.0921  0.2006  0.2576
 9046TIP3    H127071   3.165   6.218   3.845 -0.4253 -0.5412  1.7209
 9046TIP3    H227072   3.211   6.274   3.978  2.5841 -1.4889  1.1201
 9047TIP3   OH227073   2.509   7.613   2.951 -0.2105 -0.2905 -0.2150
 9047TIP3    H127074   2.442   7.545   2.941  0.1938 -0.7756  0.3658
 9047TIP3    H227075   2.461   7.689   2.983 -0.4710 -0.6728  0.3118
 9048TIP3   OH227076   5.475   2.140   2.998  0.2855 -0.5474 -0.1868
 9048TIP3    H127077   5.565   2.166   3.016 -0.7536  3.6251 -0.5224
 9048TIP3    H227078   5.474   2.120   2.904  0.6969  0.1811 -0.3497
 9049TIP3   OH227079   1.796   6.583   4.995 -0.2144 -0.6389 -0.1229
 9049TIP3    H127080   1.785   6.507   5.053  0.8462 -0.0612  0.8517
 9049TIP3    H227081   1.715   6.586   4.944 -1.6575 -0.5051  2.1048
 9050TIP3   OH227082   0.278   5.516   2.565  0.0166  0.1571  0.1071
 9050TIP3    H127083   0.267   5.461   2.642 -1.7029 -1.9040 -1.5634
 9050TIP3    H227084   0.338   5.467   2.508 -1.6867 -0.1710 -1.4774
 9051TIP3   OH227085   2.218   4.592   2.726  0.7599  0.3310 -0.0329
 9051TIP3    H127086   2.232   4.563   2.636  0.7233  0.1000  0.0333
 9051TIP3    H227087   2.193   4.512   2.773  1.6532  0.2760  0.3670
 9052TIP3   OH227088   2.912   6.713   2.155  0.3555  0.4664 -0.3440
 9052TIP3    H127089   2.948   6.625   2.159  0.2074  0.4618  1.4051
 9052TIP3    H227090   2.981   6.765   2.113  1.1820 -0.1354  0.2620
 9053TIP3   OH227091   1.238   6.210   1.318  0.0246  0.4765  0.4754
 9053TIP3    H127092   1.225   6.121   1.351 -1.2591  1.0059  1.4493
 9053TIP3    H227093   1.313   6.203   1.259  0.2224 -1.1605  0.8922
 9054TIP3   OH227094   3.310   6.800   1.799 -0.3643  0.2092 -0.1327
 9054TIP3    H127095   3.250   6.845   1.739  0.1526  0.6712 -0.3050
 9054TIP3    H227096   3.364   6.869   1.837 -1.4778  0.0469  1.7856
 9055TIP3   OH227097   2.544   5.983   2.279 -0.1922  0.2042  0.0238
 9055TIP3    H127098   2.491   6.013   2.352 -1.0708 -0.4873 -0.3184
 9055TIP3    H227099   2.547   6.058   2.219  2.0044  1.3798  1.5426
 9056TIP3   OH227100   1.854   6.615   3.694  0.0272 -0.2716  0.3690
 9056TIP3    H127101   1.777   6.565   3.666  0.5459 -1.0337  0.2734
 9056TIP3    H227102   1.825   6.706   3.697 -0.9153 -0.5754  0.4711
 9057TIP3   OH227103   2.908   0.798   4.810  0.3772 -0.2278  0.2609
 9057TIP3    H127104   2.947   0.884   4.799  1.3680 -0.7635 -0.5117
 9057TIP3    H227105   2.850   0.807   4.886  1.7234  0.6759  1.1980
 9058TIP3   OH227106   7.095   2.272   4.079  0.1058  0.6816  0.1560
 9058TIP3    H127107   7.057   2.350   4.118  1.4849  1.0214  0.8304
 9058TIP3    H227108   7.190   2.284   4.087  0.3382 -0.9884  0.1556
 9059TIP3   OH227109   2.271   7.964   1.300  0.0504 -0.2259 -0.8294
 9059TIP3    H127110   2.188   8.011   1.289  0.4804  0.5146 -0.8782
 9059TIP3    H227111   2.282   7.915   1.218  0.9572  1.7004 -1.8768
 9060TIP3   OH227112   2.046   1.467   5.827  0.5252 -0.5658 -0.3063
 9060TIP3    H127113   2.048   1.517   5.908  0.1048 -1.1923  0.0957
 9060TIP3    H227114   2.115   1.505   5.773  0.0262  0.6262 -0.1164
 9061TIP3   OH227115   0.960   6.717   1.719  0.1121  0.0364 -0.0058
 9061TIP3    H127116   0.920   6.773   1.652  0.7498  1.5189  0.8159
 9061TIP3    H227117   0.887   6.666   1.753 -0.1655 -0.9915 -2.0490
 9062TIP3   OH227118   0.679   7.176   4.008 -0.4713 -0.5329  0.5924
 9062TIP3    H127119   0.600   7.204   4.054 -0.1819 -0.7080  1.1994
 9062TIP3    H227120   0.684   7.234   3.932  1.5834  3.0145  3.2319
 9063TIP3   OH227121   2.102   6.528   6.110  0.1194  0.1334  0.0081
 9063TIP3    H127122   2.026   6.584   6.124  0.9260  0.4670  3.8295
 9063TIP3    H227123   2.067   6.439   6.108 -0.7567  0.4996 -2.3542
 9064TIP3   OH227124   2.856   5.506   4.015 -0.2760 -0.2946  0.2794
 9064TIP3    H127125   2.791   5.489   4.083  0.4036 -0.0738  0.9931
 9064TIP3    H227126   2.938   5.519   4.063  0.4968 -1.5415 -0.6453
 9065TIP3   OH227127   8.209   6.469   4.351 -0.6243  0.1883  0.3183
 9065TIP3    H127128   8.163   6.405   4.297  1.4759 -0.2344 -1.0398
 9065TIP3    H227129   8.161   6.551   4.337 -0.3202  0.0252 -1.9743
 9066TIP3   OH227130   1.909   6.711   4.586  0.0497 -0.4742  0.3146
 9066TIP3    H127131   1.986   6.654   4.581  0.5208  0.2433 -0.6811
 9066TIP3    H227132   1.865   6.700   4.501  0.6398  1.3278 -0.2525
 9067TIP3   OH227133   3.281   7.400   3.091 -0.4408  0.1390  0.0609
 9067TIP3    H127134   3.353   7.462   3.102  0.9069 -1.5266  0.8366
 9067TIP3    H227135   3.249   7.416   3.002 -0.3746  2.1785  0.3706
 9068TIP3   OH227136   2.551   6.550   4.812 -0.0634 -0.0644  0.3795
 9068TIP3    H127137   2.597   6.521   4.891 -0.8253  2.1220  1.6676
 9068TIP3    H227138   2.542   6.644   4.822 -3.0432 -0.1584 -0.7864
 9069TIP3   OH227139   6.083   1.704   3.676 -0.1296 -0.1712 -0.1090
 9069TIP3    H127140   5.991   1.730   3.683 -0.6106 -2.0750  1.0147
 9069TIP3    H227141   6.129   1.785   3.658 -2.0131  0.8492 -0.4916
 9070TIP3   OH227142   7.655   4.867   3.634 -0.0602  0.2845  0.6928
 9070TIP3    H127143   7.635   4.940   3.575  0.1446  0.0592  0.3475
 9070TIP3    H227144   7.696   4.909   3.710 -0.8746  0.6371  0.9511
 9071TIP3   OH227145   3.491   6.868   2.446 -0.0960  0.2974  0.5610
 9071TIP3    H127146   3.474   6.888   2.354 -2.1708 -0.5704  0.7300
 9071TIP3    H227147   3.538   6.944   2.479 -0.9281  1.4058 -0.7629
 9072TIP3   OH227148   0.129   7.192   4.356  0.7392  0.4293 -0.0671
 9072TIP3    H127149   0.077   7.239   4.420 -0.4985  0.4458 -1.0661
 9072TIP3    H227150   0.158   7.113   4.402  0.2463  0.6553  0.6412
 9073TIP3   OH227151   0.926   3.835   4.809 -0.4067 -0.2863  0.7775
 9073TIP3    H127152   0.854   3.836   4.873  0.2116 -0.6694  1.4797
 9073TIP3    H227153   0.939   3.743   4.789 -2.1727 -0.0580 -1.7136
 9074TIP3   OH227154   5.667   5.753   3.499  0.8675  0.4290 -0.3890
 9074TIP3    H127155   5.630   5.795   3.578  2.7869 -1.1740  1.4242
 9074TIP3    H227156   5.649   5.815   3.429 -2.3796  1.1431  1.0027
 9075TIP3   OH227157   1.623   7.287   3.869  0.2928  0.2133 -0.5607
 9075TIP3    H127158   1.638   7.193   3.855 -2.1469 -0.3025 -0.1030
 9075TIP3    H227159   1.648   7.328   3.787  1.0494 -0.8877 -0.8901
 9076TIP3   OH227160   1.358   7.491   5.361  0.2693 -0.2777  0.7670
 9076TIP3    H127161   1.424   7.501   5.292 -0.0219  0.4159  0.5846
 9076TIP3    H227162   1.367   7.400   5.390  0.4625 -0.5460 -0.1176
 9077TIP3   OH227163   8.215   6.735   1.628  0.2417 -0.1428 -0.0539
 9077TIP3    H127164   8.148   6.712   1.692  1.7928 -1.2204  1.2335
 9077TIP3    H227165   8.253   6.817   1.661 -0.4354  0.4629 -0.7755
 9078TIP3   OH227166   1.512   6.576   4.912  0.3894 -0.5203 -0.4045
 9078TIP3    H127167   1.452   6.647   4.889  1.7829  0.4023 -1.2254
 9078TIP3    H227168   1.478   6.543   4.995 -0.9570  0.3389 -0.5977
 9079TIP3   OH227169   7.523   6.529   4.637 -0.3746  0.0841 -0.3675
 9079TIP3    H127170   7.518   6.618   4.602  1.9416  0.6381  0.6155
 9079TIP3    H227171   7.614   6.503   4.624 -1.1518 -2.3640 -1.1367
 9080TIP3   OH227172   0.949   6.716   4.294  0.0514  0.0033  0.0931
 9080TIP3    H127173   0.991   6.631   4.281  0.3012 -0.1779  1.8872
 9080TIP3    H227174   0.857   6.700   4.273  0.4648 -0.1592 -1.6690
 9081TIP3   OH227175   0.653   6.885   4.460  0.5688  0.3193  0.1060
 9081TIP3    H127176   0.656   6.825   4.386  0.2473 -0.9211  1.0723
 9081TIP3    H227177   0.618   6.966   4.425  2.3867  0.4285 -1.5442
 9082TIP3   OH227178   0.346   6.502   4.279  0.0678 -0.2741  0.3587
 9082TIP3    H127179   0.313   6.444   4.349 -1.6470  0.0013 -0.1883
 9082TIP3    H227180   0.414   6.553   4.321 -0.9624 -0.0969  1.8732
 9083TIP3   OH227181   1.301   6.974   4.440  0.1748 -0.7954  0.2793
 9083TIP3    H127182   1.372   6.995   4.379  0.0886  2.2661  1.1413
 9083TIP3    H227183   1.229   6.946   4.384  1.2703 -1.5360 -0.7797
 9084TIP3   OH227184   1.243   4.811   3.764  0.0769 -0.0142  0.3382
 9084TIP3    H127185   1.244   4.903   3.791  0.6385  0.1277 -0.1529
 9084TIP3    H227186   1.157   4.779   3.789  1.0279 -0.2393  3.5332
 9085TIP3   OH227187   1.376   6.159   3.460 -0.1540  1.3090  0.2321
 9085TIP3    H127188   1.401   6.211   3.383 -1.1008  1.1167 -0.2151
 9085TIP3    H227189   1.419   6.075   3.447  0.9978  1.8123  0.7198
 9086TIP3   OH227190   8.474   7.387   4.465 -0.2049  0.2333 -0.3915
 9086TIP3    H127191   8.423   7.436   4.529  0.4796  2.2659 -1.3452
 9086TIP3    H227192   8.428   7.399   4.382  0.3150 -0.2274 -0.7580
 9087TIP3   OH227193   0.756   6.134   4.487 -0.2318  0.1530 -0.2751
 9087TIP3    H127194   0.690   6.111   4.552 -0.0434  2.7647  0.9416
 9087TIP3    H227195   0.837   6.095   4.520 -0.0321  1.9076  1.4115
 9088TIP3   OH227196   2.494   5.844   3.041 -0.4628 -0.1063 -0.3791
 9088TIP3    H127197   2.534   5.841   3.128  1.0806  0.2403 -1.0614
 9088TIP3    H227198   2.404   5.871   3.057 -0.2877 -0.3917  1.1470
 9089TIP3   OH227199   3.929   0.867   3.942 -1.0772  0.2277 -0.1736
 9089TIP3    H127200   3.946   0.952   3.902 -0.6736 -0.4521 -1.4586
 9089TIP3    H227201   3.840   0.844   3.915 -0.8717 -0.1486 -0.5427
 9090TIP3   OH227202   0.653   7.294   3.073 -0.4990 -0.8559 -0.2189
 9090TIP3    H127203   0.699   7.334   3.147 -0.3112  2.7141 -2.1580
 9090TIP3    H227204   0.561   7.317   3.088 -0.8274 -2.3389  0.1846
 9091TIP3   OH227205   2.319   6.924   2.125 -0.0457  0.2006  0.0127
 9091TIP3    H127206   2.231   6.890   2.109  0.4240 -0.2291 -1.8373
 9091TIP3    H227207   2.339   6.898   2.215 -1.0779 -1.3573 -0.1849
 9092TIP3   OH227208   2.709   6.063   3.211 -0.5030 -0.3953 -0.0835
 9092TIP3    H127209   2.723   5.969   3.195  0.6217 -0.3056  0.3615
 9092TIP3    H227210   2.727   6.104   3.126  1.7629 -0.3091  0.4002
 9093TIP3   OH227211   5.075   0.746   5.642  0.1428 -0.3426 -0.0138
 9093TIP3    H127212   5.007   0.712   5.700 -0.6038 -0.2287 -0.8115
 9093TIP3    H227213   5.041   0.829   5.610 -0.4263 -1.3933 -2.2786
 9094TIP3   OH227214   2.239   5.530   4.341 -0.6295  0.4166  0.5578
 9094TIP3    H127215   2.246   5.530   4.245  1.5357  0.9569  0.6806
 9094TIP3    H227216   2.272   5.444   4.367 -1.5452  0.1369  0.8111
 9095TIP3   OH227217   2.897   7.424   4.088  0.0472  0.6283  0.1888
 9095TIP3    H127218   2.992   7.431   4.096  0.2843  0.1104 -2.0064
 9095TIP3    H227219   2.880   7.330   4.085 -0.5236  0.7284  0.3153
 9096TIP3   OH227220   1.412   6.617   1.366  0.1089  0.0533  0.0148
 9096TIP3    H127221   1.351   6.690   1.373 -0.1370 -0.2585  1.2170
 9096TIP3    H227222   1.360   6.540   1.387 -0.3108 -0.8351 -3.8593
 9097TIP3   OH227223   4.018   0.452   6.059  0.1617  0.3391 -0.0925
 9097TIP3    H127224   4.037   0.359   6.051 -0.1412  0.2053  0.6803
 9097TIP3    H227225   3.956   0.458   6.132  1.1219  1.2506  0.6795
 9098TIP3   OH227226   3.125   0.601   5.277 -0.0683  0.4344  0.6960
 9098TIP3    H127227   3.212   0.631   5.302  0.6202  0.1065 -1.1871
 9098TIP3    H227228   3.134   0.507   5.263 -0.4125  0.5954 -0.6959
 9099TIP3   OH227229   3.261   6.440   1.360 -0.1063 -0.0583 -0.7647
 9099TIP3    H127230   3.337   6.473   1.313 -0.1589  0.2263 -0.6508
 9099TIP3    H227231   3.283   6.349   1.381 -0.1254 -0.2094 -1.4148
 9100TIP3   OH227232   2.897   7.369   2.768  0.1943  0.7758  0.3571
 9100TIP3    H127233   2.917   7.299   2.705  2.0216  1.6092 -0.0390
 9100TIP3    H227234   2.819   7.412   2.733 -0.1645 -0.2462 -0.0996
 9101TIP3   OH227235   0.951   6.722   5.067  0.2065  0.2426 -0.9999
 9101TIP3    H127236   0.861   6.755   5.073 -0.2302 -1.0214 -0.5313
 9101TIP3    H227237   0.973   6.731   4.974  0.0783  1.7931 -0.9026
 9102TIP3   OH227238   1.033   6.189   5.008 -0.2466 -0.2296 -0.1532
 9102TIP3    H127239   1.053   6.109   5.057  2.6965  1.2018  1.0680
 9102TIP3    H227240   0.963   6.231   5.058 -0.1380 -0.8514  0.5263
 9103TIP3   OH227241   0.451   7.168   4.678 -0.0420  0.1662 -0.3055
 9103TIP3    H127242   0.442   7.073   4.687  1.0835  0.0221 -0.6518
 9103TIP3    H227243   0.546   7.183   4.677 -0.2151  1.2716 -0.4982
 9104TIP3   OH227244   4.370   0.465   3.255 -0.0907 -0.5242 -0.3088
 9104TIP3    H127245   4.287   0.507   3.277 -0.0172 -0.6384  0.1830
 9104TIP3    H227246   4.389   0.409   3.330  0.3321 -0.6505 -0.5106
 9105TIP3   OH227247   2.990   5.453   2.575  0.0555  0.2257 -0.0083
 9105TIP3    H127248   2.999   5.430   2.667 -1.4670 -0.1924  0.0575
 9105TIP3    H227249   2.977   5.369   2.530 -1.7300  0.6057 -0.2560
 9106TIP3   OH227250   4.188   0.515   3.979  0.4336  0.2038  0.0437
 9106TIP3    H127251   4.141   0.493   4.060  1.0363  1.0598  0.6367
 9106TIP3    H227252   4.205   0.431   3.937 -1.5445 -0.1425 -0.1436
 9107TIP3   OH227253   3.876   0.181   2.129  0.0989  0.5418 -0.4120
 9107TIP3    H127254   3.878   0.253   2.066  2.4738 -1.3460 -2.5885
 9107TIP3    H227255   3.824   0.113   2.086  1.5569 -0.6842 -0.2976
 9108TIP3   OH227256   1.433   6.148   1.140 -0.4033  0.1354 -0.3650
 9108TIP3    H127257   1.502   6.083   1.153 -0.4341 -0.5461 -3.3773
 9108TIP3    H227258   1.477   6.220   1.093 -1.2325  0.6922 -0.2961
 9109TIP3   OH227259   0.516   0.400   3.446  0.2620  0.3038  1.0321
 9109TIP3    H127260   0.594   0.382   3.395  1.0421  1.4253  1.7855
 9109TIP3    H227261   0.513   0.496   3.452 -0.5500  0.2363  1.9276
 9110TIP3   OH227262   1.330   4.349   3.922 -0.7912 -0.8199 -0.4369
 9110TIP3    H127263   1.336   4.409   3.997 -0.9360 -2.3397  0.8129
 9110TIP3    H227264   1.239   4.354   3.894 -0.6628 -0.0040 -0.7295
 9111TIP3   OH227265   1.996   5.858   1.558 -0.2357 -0.0410  0.3150
 9111TIP3    H127266   2.041   5.780   1.525  0.1124  0.0429  0.5799
 9111TIP3    H227267   1.915   5.825   1.596  0.1110 -0.3303  0.8147
 9112TIP3   OH227268   2.479   6.639   2.598  0.5179  0.2301  0.5756
 9112TIP3    H127269   2.400   6.591   2.574 -0.5194  1.9527  0.5201
 9112TIP3    H227270   2.506   6.600   2.681  0.3476 -1.2268 -0.0355
 9113TIP3   OH227271   7.786   5.071   6.125  0.0650 -0.7365  0.1318
 9113TIP3    H127272   7.748   5.096   6.041 -0.6411  0.9099  0.9224
 9113TIP3    H227273   7.717   5.023   6.169 -0.3414  0.3491  0.6796
 9114TIP3   OH227274   2.101   5.398   2.789 -0.6358  0.5550 -0.5106
 9114TIP3    H127275   2.136   5.323   2.837 -2.1901  0.2443  0.1700
 9114TIP3    H227276   2.106   5.372   2.697 -0.9359 -0.2874 -0.2911
 9115TIP3   OH227277   3.041   5.167   3.406  0.3156  0.2676 -0.7383
 9115TIP3    H127278   3.066   5.114   3.481 -2.3580  0.2942  0.2162
 9115TIP3    H227279   3.053   5.110   3.330  1.7216 -0.2041 -0.1715
 9116TIP3   OH227280   4.107   7.318   3.745 -0.0885 -0.3181  0.2197
 9116TIP3    H127281   4.150   7.233   3.743 -0.5317 -0.5998  1.8274
 9116TIP3    H227282   4.063   7.320   3.830  0.5803  1.8383  0.5418
 9117TIP3   OH227283   1.806   7.886   4.895  0.0227 -0.4966 -0.3077
 9117TIP3    H127284   1.716   7.883   4.863 -0.2352  3.9390 -0.3013
 9117TIP3    H227285   1.859   7.863   4.819 -0.9702  0.7139 -1.3818
 9118TIP3   OH227286   1.303   6.650   3.547  0.1025  0.3846  0.3609
 9118TIP3    H127287   1.208   6.640   3.549  0.0792  0.7350  1.6664
 9118TIP3    H227288   1.322   6.685   3.460 -0.9265 -0.0571 -0.0451
 9119TIP3   OH227289   0.784   5.496   2.480  0.3998  0.1443 -0.3109
 9119TIP3    H127290   0.794   5.534   2.567  0.4092 -2.6548  0.9766
 9119TIP3    H227291   0.799   5.569   2.420 -2.3739  2.7791  2.0331
 9120TIP3   OH227292   0.123   6.040   3.430 -0.5276  0.0788  0.0874
 9120TIP3    H127293   0.089   5.955   3.405 -1.4695  0.3507  0.4019
 9120TIP3    H227294   0.063   6.103   3.388 -1.7409  0.5400  2.4413
 9121TIP3   OH227295   5.156   0.815   6.559  0.3944  0.3763  0.2097
 9121TIP3    H127296   5.147   0.721   6.576 -0.5223  0.5205  0.5708
 9121TIP3    H227297   5.222   0.845   6.621  1.4527 -0.2188 -0.6161
 9122TIP3   OH227298   1.351   6.918   2.469 -0.1171 -0.2354 -0.5372
 9122TIP3    H127299   1.378   6.831   2.497 -1.6494 -0.6650 -0.3803
 9122TIP3    H227300   1.272   6.904   2.417  1.1105  0.8222 -2.7480
 9123TIP3   OH227301   2.400   7.957   4.746  0.3242 -0.4330  0.5456
 9123TIP3    H127302   2.388   7.940   4.652  0.1359  2.1362  0.0471
 9123TIP3    H227303   2.493   7.973   4.756  0.3513 -0.7578  0.8010
 9124TIP3   OH227304   8.389   7.682   1.358 -0.1496 -0.1432  0.4935
 9124TIP3    H127305   8.394   7.761   1.413  0.4542  0.9466 -1.0780
 9124TIP3    H227306   8.295   7.671   1.342 -0.3902 -0.8424  2.2288
 9125TIP3   OH227307   4.513   0.560   5.365 -0.1745 -0.1896  0.4390
 9125TIP3    H127308   4.467   0.620   5.306 -0.7069  0.4938  1.5339
 9125TIP3    H227309   4.590   0.531   5.315  0.8376  2.4706  0.3997
 9126TIP3   OH227310   5.341   0.578   6.842  0.6552 -0.0176  0.0377
 9126TIP3    H127311   5.351   0.483   6.847 -1.1683 -0.3586 -1.7857
 9126TIP3    H227312   5.349   0.608   6.933  0.5687 -2.0010  0.7267
 9127TIP3   OH227313   1.395   5.567   4.845 -0.6454  0.1517  0.3606
 9127TIP3    H127314   1.417   5.591   4.755 -0.6993 -1.5803 -0.1336
 9127TIP3    H227315   1.474   5.588   4.895 -0.8188  1.6831  0.0457
 9128TIP3   OH227316   1.529   7.997   4.524 -0.0132  0.3682 -0.0823
 9128TIP3    H127317   1.600   8.004   4.460  1.4411 -0.3776  1.4186
 9128TIP3    H227318   1.454   7.967   4.472  1.8597 -2.9421 -1.0261
 9129TIP3   OH227319   1.058   7.572   3.217 -0.5101  0.4640 -0.0331
 9129TIP3    H127320   1.098   7.503   3.164 -0.9030  0.5766 -0.4739
 9129TIP3    H227321   0.984   7.603   3.165 -0.1735  1.4033  0.0406
 9130TIP3   OH227322   1.884   7.440   5.289  0.1199  0.6137  0.0732
 9130TIP3    H127323   1.975   7.431   5.261 -0.1133  0.6657 -0.6973
 9130TIP3    H227324   1.891   7.473   5.379  0.8592  2.0892 -0.5041
 9131TIP3   OH227325   0.551   6.613   1.476  0.0386 -0.0091  1.0826
 9131TIP3    H127326   0.637   6.595   1.437 -0.8922 -0.1817 -0.9239
 9131TIP3    H227327   0.501   6.533   1.464 -0.6361  0.3121  1.6656
 9132TIP3   OH227328   2.850   5.481   3.614  0.1778 -0.1032  0.1199
 9132TIP3    H127329   2.783   5.428   3.572 -2.0062  1.1923  1.9039
 9132TIP3    H227330   2.852   5.451   3.704  0.8985  0.9610  0.4735
 9133TIP3   OH227331   1.539   6.647   3.691  0.2426 -0.5639  0.2023
 9133TIP3    H127332   1.528   6.686   3.778  0.9090  1.6098 -0.6575
 9133TIP3    H227333   1.455   6.659   3.648  0.0896 -1.1330  0.3340
 9134TIP3   OH227334   1.409   8.019   3.450 -0.0344  0.0869  0.2364
 9134TIP3    H127335   1.365   7.938   3.476  0.6644 -0.0817  0.8954
 9134TIP3    H227336   1.487   8.023   3.505 -0.0802  1.2209  0.2220
 9135TIP3   OH227337   1.256   5.358   3.754 -0.1699 -0.2144 -0.0294
 9135TIP3    H127338   1.327   5.389   3.811 -0.0218  0.2867 -0.4803
 9135TIP3    H227339   1.292   5.364   3.666 -0.8584  0.2735 -0.2803
 9136TIP3   OH227340   6.792   0.329   2.211 -0.0047  0.2262 -0.0354
 9136TIP3    H127341   6.773   0.264   2.279 -1.2247  2.0714  1.4582
 9136TIP3    H227342   6.745   0.408   2.240  1.5097  1.7984 -1.7384
 9137TIP3   OH227343   1.516   6.053   1.614 -0.1977  0.2448 -0.0355
 9137TIP3    H127344   1.565   6.115   1.561 -0.0148 -0.5367 -0.7876
 9137TIP3    H227345   1.492   5.983   1.554  0.4509 -0.9086  1.0182
 9138TIP3   OH227346   1.234   7.820   4.475  0.5010  0.5105 -0.2444
 9138TIP3    H127347   1.190   7.770   4.407 -1.1667 -1.1296  1.9375
 9138TIP3    H227348   1.306   7.764   4.504 -0.4258  0.0060  1.1437
 9139TIP3   OH227349   2.644   5.413   5.619 -0.5612 -0.4369  0.2606
 9139TIP3    H127350   2.609   5.328   5.644  0.6562 -0.6882  1.1593
 9139TIP3    H227351   2.625   5.470   5.693 -0.5528 -0.1494  0.0441
 9140TIP3   OH227352   0.335   6.138   5.441  0.3665  0.6328  0.3889
 9140TIP3    H127353   0.386   6.188   5.503  2.4990 -2.5618  1.3285
 9140TIP3    H227354   0.366   6.166   5.355  1.0107  1.4152  0.8811
 9141TIP3   OH227355   0.459   5.472   3.787 -0.0609 -0.5301  0.1518
 9141TIP3    H127356   0.446   5.377   3.784  0.6222 -0.6067 -0.7671
 9141TIP3    H227357   0.490   5.494   3.699  1.3640  0.3086  0.8521
 9142TIP3   OH227358   0.971   6.516   5.273 -0.1544 -0.3567 -0.1055
 9142TIP3    H127359   0.968   6.580   5.201  1.6568 -1.3980 -1.1546
 9142TIP3    H227360   0.979   6.569   5.352  1.2656  0.7394 -0.9526
 9143TIP3   OH227361   2.764   6.697   3.034  0.4178 -0.5102 -0.2857
 9143TIP3    H127362   2.761   6.779   2.985  1.5488 -0.5235 -0.3912
 9143TIP3    H227363   2.845   6.702   3.085  0.1058 -1.2308  0.2987
 9144TIP3   OH227364   1.605   7.368   3.195 -0.2781  0.2674  0.1451
 9144TIP3    H127365   1.532   7.338   3.140 -1.4261  0.9288  1.2973
 9144TIP3    H227366   1.582   7.458   3.218  1.7880  1.1176 -0.9738
 9145TIP3   OH227367   4.828   2.365   4.926  0.6165  0.0684 -0.5774
 9145TIP3    H127368   4.848   2.447   4.972  2.1468 -1.6740  1.9787
 9145TIP3    H227369   4.785   2.393   4.846 -0.6289  3.3092  1.1276
 9146TIP3   OH227370   5.802   0.183   2.950 -0.3616  0.0256 -0.6769
 9146TIP3    H127371   5.812   0.120   2.878 -0.5372 -0.3000 -0.4167
 9146TIP3    H227372   5.781   0.129   3.026  1.4430  0.2143 -0.0139
 9147TIP3   OH227373   2.537   7.542   2.677  0.7189 -0.3607 -0.2243
 9147TIP3    H127374   2.559   7.459   2.634 -0.7337 -0.3047 -1.1209
 9147TIP3    H227375   2.522   7.518   2.769  1.6996 -0.8537 -0.1885
 9148TIP3   OH227376   4.639   7.995   4.673  0.3725  0.5266 -0.2989
 9148TIP3    H127377   4.594   7.914   4.700  0.0851  0.8632  0.2396
 9148TIP3    H227378   4.713   7.964   4.620  0.2986 -0.0957 -0.0514
 9149TIP3   OH227379   2.421   7.907   0.944 -0.4089  0.0299 -0.3148
 9149TIP3    H127380   2.416   7.851   1.020 -0.7967  0.4866  0.0012
 9149TIP3    H227381   2.330   7.921   0.918 -0.3539  0.9544 -0.0536
 9150TIP3   OH227382   1.852   3.507   4.074 -0.6513 -0.4979  0.3140
 9150TIP3    H127383   1.926   3.510   4.134  1.4061  1.2415 -2.2144
 9150TIP3    H227384   1.817   3.596   4.075  0.0361 -0.1828 -1.7896
 9151TIP3   OH227385   2.357   7.397   2.249 -0.3181  0.0647 -0.6196
 9151TIP3    H127386   2.326   7.389   2.340  3.4190 -0.2573  0.7369
 9151TIP3    H227387   2.313   7.326   2.203 -1.3836 -0.5322  1.2421
 9152TIP3   OH227388   0.649   6.802   5.129 -0.0044 -0.1317  0.0025
 9152TIP3    H127389   0.567   6.763   5.158  0.6787 -1.6154  0.0234
 9152TIP3    H227390   0.666   6.873   5.191 -0.5520 -0.7241  0.8371
 9153TIP3   OH227391   4.952   0.115   4.683 -0.4832  0.4657 -0.1604
 9153TIP3    H127392   5.011   0.089   4.612  0.4541 -0.1289  0.8153
 9153TIP3    H227393   4.902   0.035   4.702  0.1155  0.2813  0.6558
 9154TIP3   OH227394   4.803   0.041   5.058  0.0180 -0.4816 -0.0977
 9154TIP3    H127395   4.747  -0.031   5.029  0.3554 -0.9183  0.3170
 9154TIP3    H227396   4.743   0.102   5.100 -0.1311 -1.0424  0.5283
 9155TIP3   OH227397   2.434   7.188   3.937  0.1532  0.1378 -0.7771
 9155TIP3    H127398   2.350   7.234   3.923 -0.2642 -0.8137 -1.4413
 9155TIP3    H227399   2.493   7.226   3.872 -0.5479 -1.1339 -2.1974
 9156TIP3   OH227400   3.334   6.456   2.647  0.0227 -0.3369  0.1866
 9156TIP3    H127401   3.275   6.432   2.576  1.2215 -0.8605 -0.6430
 9156TIP3    H227402   3.402   6.509   2.605  1.1762 -1.3165  0.7999
 9157TIP3   OH227403   2.238   6.384   5.054 -0.2837 -0.3410  0.3495
 9157TIP3    H127404   2.233   6.418   5.143  0.4631  1.6043 -0.3352
 9157TIP3    H227405   2.167   6.428   5.007  1.4217  1.2370 -0.8291
 9158TIP3   OH227406   1.836   7.531   2.105  0.3469  0.8036 -0.5142
 9158TIP3    H127407   1.746   7.521   2.134  0.6429 -1.9445 -0.4419
 9158TIP3    H227408   1.878   7.582   2.175  0.1094 -2.4814  2.1833
 9159TIP3   OH227409   1.634   7.987   5.092 -0.2662 -0.2227  0.1469
 9159TIP3    H127410   1.705   7.963   5.032 -0.6202  0.6606 -0.6369
 9159TIP3    H227411   1.664   7.957   5.178  1.5995  1.2093  0.0294
 9160TIP3   OH227412   6.662   0.055   3.089 -0.8445  0.3291 -0.4745
 9160TIP3    H127413   6.659   0.144   3.053  0.0516  2.2385  3.8458
 9160TIP3    H227414   6.742   0.017   3.053 -1.0448  1.3539 -2.0591
 9161TIP3   OH227415   2.632   6.510   2.053  0.1813 -0.4003  0.1477
 9161TIP3    H127416   2.641   6.598   2.090  1.3343 -0.2783 -0.3789
 9161TIP3    H227417   2.538   6.495   2.047 -0.0503  1.5087 -1.4293
 9162TIP3   OH227418   0.971   5.633   5.174  0.3530 -0.1339  0.2479
 9162TIP3    H127419   0.935   5.546   5.161  0.7714 -0.4264  1.0153
 9162TIP3    H227420   0.914   5.673   5.240  2.2840 -1.1582  2.6490
 9163TIP3   OH227421   1.633   6.437   5.198 -0.2937 -0.3274  0.2015
 9163TIP3    H127422   1.539   6.445   5.179 -0.0772 -1.9886 -1.6605
 9163TIP3    H227423   1.646   6.344   5.213  1.0466 -0.0701  0.6639
 9164TIP3   OH227424   5.964   0.762   5.482  0.4268 -0.1940 -0.5120
 9164TIP3    H127425   5.941   0.692   5.422 -0.3683 -0.1565 -0.2590
 9164TIP3    H227426   5.907   0.835   5.456 -1.6974 -0.9489  1.8236
 9165TIP3   OH227427   2.122   4.375   4.173  0.3479 -0.0246  0.0689
 9165TIP3    H127428   2.148   4.379   4.265  1.0994  1.9441 -0.1997
 9165TIP3    H227429   2.031   4.404   4.172 -0.0727 -1.3062  0.3310
 9166TIP3   OH227430   1.856   7.443   4.357  0.7634  0.3556 -0.2184
 9166TIP3    H127431   1.778   7.439   4.301  0.4882  1.2199  0.0990
 9166TIP3    H227432   1.846   7.524   4.407  1.6439  0.2397  0.1573
 9167TIP3   OH227433   1.193   6.333   4.405 -0.0882  0.0459  0.0028
 9167TIP3    H127434   1.237   6.292   4.331 -0.7396 -0.1926 -0.2585
 9167TIP3    H227435   1.181   6.424   4.379 -1.0309 -0.2194 -0.5215
 9168TIP3   OH227436   1.141   5.747   3.358  0.3567  0.3971  0.4077
 9168TIP3    H127437   1.112   5.662   3.326 -0.5329  0.1185  1.8966
 9168TIP3    H227438   1.092   5.760   3.439  0.0071  2.6083 -0.1055
 9169TIP3   OH227439   3.611   7.100   2.479  0.8496 -0.0258 -0.3941
 9169TIP3    H127440   3.583   7.183   2.517  0.2999 -0.8291  0.9937
 9169TIP3    H227441   3.605   7.113   2.385 -0.7059  1.0247 -0.1678
 9170TIP3   OH227442   2.380   6.427   1.448  0.2215  0.1143  0.3178
 9170TIP3    H127443   2.345   6.498   1.502 -0.6024 -1.2521  1.5984
 9170TIP3    H227444   2.463   6.403   1.489  0.2196 -0.0598  0.2208
 9171TIP3   OH227445   2.787   6.239   3.705 -0.2442 -0.0570  0.5633
 9171TIP3    H127446   2.795   6.329   3.735  2.2171 -0.5278  1.5007
 9171TIP3    H227447   2.773   6.188   3.785  0.0727 -0.6638  0.2405
 9172TIP3   OH227448   2.064   6.602   5.221  0.5867  0.3508  0.1587
 9172TIP3    H127449   1.999   6.668   5.197 -0.6190 -0.2407  1.6983
 9172TIP3    H227450   2.016   6.519   5.215  1.9111 -0.3591 -1.1470
 9173TIP3   OH227451   0.125   7.692   3.476  0.2495 -0.3537 -0.5473
 9173TIP3    H127452   0.113   7.685   3.381  1.7269  0.4496 -0.8076
 9173TIP3    H227453   0.130   7.786   3.492  0.8007 -0.5160  0.2277
 9174TIP3   OH227454   2.326   4.018   3.634 -0.0874  0.1083 -0.4072
 9174TIP3    H127455   2.367   4.074   3.568 -0.4620  0.9373  0.0619
 9174TIP3    H227456   2.360   4.050   3.717 -0.0393 -0.5883 -0.1554
 9175TIP3   OH227457   1.702   4.764   3.681  0.4038 -0.2807  0.8407
 9175TIP3    H127458   1.752   4.751   3.761 -0.1390 -0.8275  1.0924
 9175TIP3    H227459   1.617   4.725   3.699  0.1858 -0.1575  0.0953
 9176TIP3   OH227460   1.689   3.606   3.536  0.5613  0.0999  0.1273
 9176TIP3    H127461   1.729   3.660   3.604  0.2783  1.0854 -0.4677
 9176TIP3    H227462   1.762   3.560   3.495  0.9439  0.8917 -0.0894
 9177TIP3   OH227463   3.558   7.389   4.019 -0.3332 -0.1711  0.6341
 9177TIP3    H127464   3.515   7.389   3.934  0.4130  1.6518  0.2415
 9177TIP3    H227465   3.599   7.302   4.025  0.1691 -0.0767 -1.1522
 9178TIP3   OH227466   0.124   7.324   4.093  0.4960 -0.2765 -0.0513
 9178TIP3    H127467   0.032   7.318   4.068  0.7746 -1.8047 -0.7766
 9178TIP3    H227468   0.129   7.283   4.180  1.0013 -3.1526 -1.3902
 9179TIP3   OH227469   1.532   4.481   6.829  0.1968 -0.3683  1.5592
 9179TIP3    H127470   1.462   4.417   6.821  0.3264 -0.5151  1.6027
 9179TIP3    H227471   1.567   4.490   6.740 -0.1807  0.0448  1.4545
 9180TIP3   OH227472   2.422   6.256   4.002 -0.0028 -0.3866 -0.3946
 9180TIP3    H127473   2.395   6.315   3.932 -2.4485 -0.2466  0.6116
 9180TIP3    H227474   2.348   6.196   4.013  0.1947 -0.2181  2.2436
 9181TIP3   OH227475   3.991   6.106   4.516 -0.1082 -0.3694 -0.1272
 9181TIP3    H127476   3.961   6.068   4.434  0.2487 -0.3898 -0.2518
 9181TIP3    H227477   3.911   6.129   4.563 -0.3143  0.1166 -0.7075
 9182TIP3   OH227478   2.702   7.582   1.734 -0.3058  0.5887  0.0426
 9182TIP3    H127479   2.739   7.497   1.755  0.3966  0.6420 -0.9354
 9182TIP3    H227480   2.659   7.611   1.815  1.5850  0.4304  1.1174
 9183TIP3   OH227481   3.158   7.691   3.813 -0.5674 -0.0924 -0.4437
 9183TIP3    H127482   3.233   7.682   3.871 -0.2464 -0.3359 -0.8972
 9183TIP3    H227483   3.195   7.723   3.730 -0.8367 -1.1188 -0.9625
 9184TIP3   OH227484   3.038   6.669   4.966 -0.2641  0.3984  0.5562
 9184TIP3    H127485   2.978   6.736   4.934 -0.3312 -0.6020 -1.5004
 9184TIP3    H227486   3.004   6.645   5.052 -3.2213 -0.5766 -0.7861
 9185TIP3   OH227487   7.198   0.655   5.235  0.5080 -0.2296  0.4464
 9185TIP3    H127488   7.206   0.561   5.248  2.6168 -0.4085 -1.6592
 9185TIP3    H227489   7.285   0.690   5.257 -0.0567  1.1315  0.5761
 9186TIP3   OH227490   3.325   3.046   2.804 -0.6752  0.0722  0.0998
 9186TIP3    H127491   3.362   3.120   2.851  0.3603 -1.0011  0.9930
 9186TIP3    H227492   3.259   3.010   2.864 -2.2721  1.1615 -0.9445
 9187TIP3   OH227493   1.902   5.293   4.600  0.0883 -0.3570 -0.1978
 9187TIP3    H127494   1.908   5.349   4.523  2.2486 -2.1349 -1.3836
 9187TIP3    H227495   1.873   5.351   4.671  0.3423  1.7868 -1.8224
 9188TIP3   OH227496   2.369   6.918   6.147  0.6925 -0.3543  0.2538
 9188TIP3    H127497   2.354   6.847   6.084 -1.4852 -0.8044  1.2098
 9188TIP3    H227498   2.392   6.874   6.228  1.2037  0.1173  0.3667
 9189TIP3   OH227499   2.735   6.962   4.231 -0.3969 -0.3777  0.7010
 9189TIP3    H127500   2.639   6.960   4.236 -0.3913 -0.5241  0.7617
 9189TIP3    H227501   2.763   6.980   4.321 -0.3779  0.1286  0.5976
 9190TIP3   OH227502   4.570   7.676   3.088 -0.4348  0.7435 -0.1829
 9190TIP3    H127503   4.610   7.657   3.172 -1.7229 -0.5717  0.1510
 9190TIP3    H227504   4.477   7.657   3.100 -0.3595 -1.3391 -2.4108
 9191TIP3   OH227505   2.325   7.166   3.186 -0.1949 -0.0109 -0.4585
 9191TIP3    H127506   2.387   7.094   3.200  0.0005  0.1567 -0.4663
 9191TIP3    H227507   2.239   7.123   3.185 -0.0191 -0.3665 -1.3656
 9192TIP3   OH227508   5.231   6.936   3.175 -0.5073  0.0710  0.4611
 9192TIP3    H127509   5.155   6.990   3.197 -1.0334 -0.7346  0.6190
 9192TIP3    H227510   5.306   6.986   3.209 -0.9261  1.0252  0.0132
 9193TIP3   OH227511   8.096   0.921   3.845 -0.3985 -0.3915 -0.1387
 9193TIP3    H127512   8.182   0.934   3.884  0.0626  1.2388 -1.6441
 9193TIP3    H227513   8.041   0.893   3.918  0.1909  3.5807  2.0001
 9194TIP3   OH227514   4.141   7.849   3.417 -0.2799  0.2625  0.4433
 9194TIP3    H127515   4.155   7.762   3.380 -0.3778  0.7229 -0.6703
 9194TIP3    H227516   4.145   7.835   3.512 -1.4286 -1.1562  0.3015
 9195TIP3   OH227517   6.479   0.716   3.121  0.1704  0.0715  0.1807
 9195TIP3    H127518   6.406   0.700   3.181 -0.8210  1.0968 -0.7141
 9195TIP3    H227519   6.440   0.709   3.034  1.5857 -1.3885 -0.3592
 9196TIP3   OH227520   6.363   0.995   3.097  0.0584 -0.0142 -0.2124
 9196TIP3    H127521   6.404   0.988   3.183  0.0498  0.1156 -0.1962
 9196TIP3    H227522   6.294   0.929   3.097  1.1284 -1.1317 -0.7442
 9197TIP3   OH227523   3.526   6.450   2.952  0.6266 -0.3418  0.4404
 9197TIP3    H127524   3.531   6.388   3.024 -2.9912  0.3475  1.4223
 9197TIP3    H227525   3.549   6.534   2.991 -0.2353 -0.1494  0.5508
 9198TIP3   OH227526   4.774   2.058   4.830  0.2872 -0.6673  0.0670
 9198TIP3    H127527   4.764   2.146   4.866 -2.0807 -1.2318  0.9045
 9198TIP3    H227528   4.868   2.047   4.819  0.6572  1.7333  0.5202
 9199TIP3   OH227529   5.105   7.845   4.667  0.0602  0.8078 -0.1247
 9199TIP3    H127530   5.128   7.813   4.754 -0.0017  0.5857 -0.1911
 9199TIP3    H227531   5.184   7.891   4.636  0.4826 -0.1233 -0.4344
 9200TIP3   OH227532   4.316   7.916   3.208  0.2558 -0.1532 -0.2019
 9200TIP3    H127533   4.396   7.904   3.259  0.9169 -0.9919 -1.4137
 9200TIP3    H227534   4.246   7.919   3.274  1.2479  0.3061  0.8476
 9201TIP3   OH227535   6.512   2.661   3.343 -0.0160 -0.3884 -0.3680
 9201TIP3    H127536   6.515   2.652   3.248  1.3066 -2.7352 -0.1286
 9201TIP3    H227537   6.522   2.755   3.358 -0.0233 -0.0204 -2.5383
 9202TIP3   OH227538   4.916   1.269   3.469 -0.3481 -0.3372 -0.7388
 9202TIP3    H127539   5.008   1.273   3.496 -0.0539  0.4806 -1.8727
 9202TIP3    H227540   4.914   1.203   3.401 -0.5747 -0.2374 -0.8285
 9203TIP3   OH227541   2.913   6.643   2.635 -0.0475 -0.1448 -0.4921
 9203TIP3    H127542   2.966   6.639   2.714 -0.0225  0.7330 -0.4592
 9203TIP3    H227543   2.962   6.700   2.576 -0.1133 -0.7152 -1.1105
 9204TIP3   OH227544   4.635   7.937   3.836  0.3481  0.4115  0.3315
 9204TIP3    H127545   4.566   8.003   3.828  0.2288  0.3944  1.2051
 9204TIP3    H227546   4.672   7.951   3.923  0.2925 -0.6947  0.5466
 9205TIP3   OH227547   6.497   7.321   3.009  0.5479 -0.1213 -0.0982
 9205TIP3    H127548   6.520   7.358   2.924  2.0144 -0.3849  0.1817
 9205TIP3    H227549   6.554   7.246   3.020  1.5954  0.9006  1.8765
 9206TIP3   OH227550   6.893   0.374   3.049 -0.2546  0.1274  0.4294
 9206TIP3    H127551   6.866   0.429   3.123  3.2127  4.4241 -1.2795
 9206TIP3    H227552   6.834   0.399   2.978  0.1730  0.3146  0.1393
 9207TIP3   OH227553   7.560   1.703   3.180  0.0436  0.3890 -0.4191
 9207TIP3    H127554   7.535   1.793   3.160  0.8849  0.4909 -1.0054
 9207TIP3    H227555   7.583   1.665   3.096  2.5436  0.4898  0.1759
 9208TIP3   OH227556   7.083   0.917   4.009  0.1713 -0.2469 -0.0394
 9208TIP3    H127557   7.017   0.909   3.940  0.8708 -1.1741 -0.6144
 9208TIP3    H227558   7.032   0.929   4.089 -0.7139 -1.2653 -0.4308
 9209TIP3   OH227559   2.333   7.954   3.276 -0.2264 -0.0209 -0.3485
 9209TIP3    H127560   2.372   7.999   3.202  1.8849 -0.9587  0.1361
 9209TIP3    H227561   2.380   7.870   3.280 -0.3234 -0.0042  1.9920
 9210TIP3   OH227562   4.155   7.150   4.883  0.1297  0.7791  0.1584
 9210TIP3    H127563   4.142   7.126   4.974 -1.4272 -1.4524 -0.6138
 9210TIP3    H227564   4.240   7.114   4.860  0.4345  1.1706  0.6780
 9211TIP3   OH227565   6.747   0.710   2.727  0.3405 -0.1224 -0.1613
 9211TIP3    H127566   6.841   0.726   2.712  0.4561  0.9791  1.5980
 9211TIP3    H227567   6.741   0.690   2.821 -1.1479 -0.5059 -0.3335
 9212TIP3   OH227568   4.812   0.874   3.900 -0.3464  0.0742  1.0677
 9212TIP3    H127569   4.855   0.959   3.909 -0.8128  0.1956  2.2282
 9212TIP3    H227570   4.756   0.883   3.823  1.9237 -0.1895 -0.6693
 9213TIP3   OH227571   5.988   0.257   4.785  0.0853  0.0636 -0.3908
 9213TIP3    H127572   5.916   0.314   4.811 -0.7327 -1.0866 -0.0890
 9213TIP3    H227573   5.980   0.180   4.842  1.2604 -0.2870 -0.6789
 9214TIP3   OH227574   2.925   7.882   3.933 -0.4699  0.0958 -0.2068
 9214TIP3    H127575   2.966   7.943   3.994 -2.9400  0.0256  1.5978
 9214TIP3    H227576   2.982   7.805   3.933 -0.7408 -0.1249  2.4801
 9215TIP3   OH227577   2.506   6.810   4.885 -0.7857  0.5278  0.2776
 9215TIP3    H127578   2.480   6.781   4.973  2.4180  0.2276  1.1878
 9215TIP3    H227579   2.510   6.906   4.892  1.0498  0.4271  0.9829
 9216TIP3   OH227580   6.083   1.549   5.085 -0.4588 -0.4128  0.6659
 9216TIP3    H127581   6.025   1.590   5.149 -1.4501  0.0049 -0.5069
 9216TIP3    H227582   6.164   1.534   5.134 -1.5782 -1.1357  2.3610
 9217TIP3   OH227583   7.493   7.242   3.012 -1.0073  0.0928 -0.2239
 9217TIP3    H127584   7.419   7.303   3.015 -0.7918  0.3243  0.5135
 9217TIP3    H227585   7.567   7.295   2.985 -0.3456  0.6711  2.5333
 9218TIP3   OH227586   1.399   6.628   4.539 -0.0968 -0.0635 -0.1423
 9218TIP3    H127587   1.400   6.709   4.591 -0.3747 -0.5855  0.6799
 9218TIP3    H227588   1.441   6.653   4.456 -0.5886  1.0345 -0.0696
 9219TIP3   OH227589   5.961   0.352   1.506 -0.1103  0.0122  0.7341
 9219TIP3    H127590   5.935   0.444   1.504  1.7051  0.5632  1.0385
 9219TIP3    H227591   5.931   0.320   1.591 -0.0658  0.5472  0.9534
 9220TIP3   OH227592   6.830   2.126   4.861 -0.1030  0.1088  0.6263
 9220TIP3    H127593   6.828   2.161   4.772 -3.1556 -1.1378  0.1337
 9220TIP3    H227594   6.879   2.190   4.912  0.6007  1.4594 -1.7044
 9221TIP3   OH227595   6.328   0.698   4.385 -0.3182 -0.1173  1.1881
 9221TIP3    H127596   6.317   0.722   4.477  1.4420 -1.2561  1.7101
 9221TIP3    H227597   6.396   0.757   4.353 -2.4315  1.7524  0.0052
 9222TIP3   OH227598   4.929   6.912   2.963  0.4967 -0.0700  0.0205
 9222TIP3    H127599   4.988   6.970   2.915  1.2057 -0.1243  0.8089
 9222TIP3    H227600   4.950   6.928   3.055 -0.2490 -0.5919  0.2857
 9223TIP3   OH227601   4.992   0.835   3.318  0.0005  0.3285  0.0842
 9223TIP3    H127602   5.056   0.877   3.376  0.2928  0.1322 -0.0950
 9223TIP3    H227603   5.034   0.753   3.292 -0.0121  0.5537 -0.6448
 9224TIP3   OH227604   2.436   7.887   3.741  0.4686 -0.6332  0.5289
 9224TIP3    H127605   2.437   7.978   3.768  2.6066 -0.7353  0.8414
 9224TIP3    H227606   2.354   7.877   3.693  0.0916  1.3724  0.7387
 9225TIP3   OH227607   3.284   7.175   4.184 -0.0166 -0.2273 -0.2108
 9225TIP3    H127608   3.371   7.165   4.224  0.1602 -1.3021 -0.8617
 9225TIP3    H227609   3.226   7.122   4.238 -0.0701 -0.3934 -0.4312
 9226TIP3   OH227610   3.513   6.863   3.517 -0.5294 -0.0363 -0.3013
 9226TIP3    H127611   3.427   6.823   3.528  0.6698 -2.4188  0.7850
 9226TIP3    H227612   3.565   6.829   3.590  2.0474 -0.6255 -2.3429
 9227TIP3   OH227613   4.822   5.039   1.506  0.0345 -0.0521  1.1030
 9227TIP3    H127614   4.756   4.985   1.463  0.1490  0.8068 -0.1775
 9227TIP3    H227615   4.847   5.104   1.440  1.0371  0.5884  2.0905
 9228TIP3   OH227616   4.441   6.746   3.205  0.0834  0.2145 -0.0369
 9228TIP3    H127617   4.488   6.673   3.246 -0.2791  0.8818  1.6276
 9228TIP3    H227618   4.393   6.787   3.278 -0.6797  1.3646 -1.1701
 9229TIP3   OH227619   5.073   6.201   5.602  0.2211 -0.1106 -0.4589
 9229TIP3    H127620   5.093   6.295   5.607 -2.0334  0.3940 -0.3037
 9229TIP3    H227621   4.997   6.190   5.659 -0.4388 -1.7875 -1.6287
 9230TIP3   OH227622   1.966   7.572   3.333 -0.5137 -0.1062  0.7484
 9230TIP3    H127623   1.991   7.641   3.272  0.1314 -0.0336  1.0855
 9230TIP3    H227624   2.045   7.556   3.385 -0.4341 -1.6064  0.1921
 9231TIP3   OH227625   3.158   7.746   2.761 -0.5291  0.0559  0.0302
 9231TIP3    H127626   3.113   7.772   2.841 -0.5516 -0.6988  0.2625
 9231TIP3    H227627   3.247   7.780   2.771 -0.3720 -0.5170  0.6293
 9232TIP3   OH227628   1.831   7.380   2.874  0.0732  0.0603  0.3125
 9232TIP3    H127629   1.760   7.436   2.904 -0.0009 -1.2318  2.6588
 9232TIP3    H227630   1.896   7.384   2.943  2.2878  1.1409 -1.7674
 9233TIP3   OH227631   4.462   7.184   1.465  0.1363 -0.0097  0.3037
 9233TIP3    H127632   4.478   7.108   1.521  1.4133  0.1122  0.1251
 9233TIP3    H227633   4.409   7.243   1.519  1.0123 -0.0753  1.2539
 9234TIP3   OH227634   5.475   6.461   5.754 -0.5760  0.8035  0.4083
 9234TIP3    H127635   5.478   6.410   5.673  1.1694  0.9967  0.3182
 9234TIP3    H227636   5.477   6.395   5.823  1.3562  0.6945  0.2902
 9235TIP3   OH227637   3.223   5.376   1.643  0.2461 -0.1492 -0.2090
 9235TIP3    H127638   3.161   5.445   1.668 -1.2184 -1.3489 -0.5101
 9235TIP3    H227639   3.192   5.345   1.559  1.0508 -1.0299 -0.1873
 9236TIP3   OH227640   5.856   0.577   4.544  0.1522  0.0540  0.0428
 9236TIP3    H127641   5.872   0.647   4.481 -0.6027 -1.4829 -1.9145
 9236TIP3    H227642   5.942   0.536   4.555 -0.1396 -1.1645 -1.8728
 9237TIP3   OH227643   7.367   0.973   4.059  0.1850  0.1038  0.2984
 9237TIP3    H127644   7.276   0.990   4.034  1.0823  3.4791 -1.0246
 9237TIP3    H227645   7.397   1.055   4.097  2.6561 -1.0052  0.8375
 9238TIP3   OH227646   4.954   0.952   4.171 -0.1924 -0.4920 -0.0264
 9238TIP3    H127647   4.861   0.963   4.186  0.1153  0.3273  1.3290
 9238TIP3    H227648   4.964   0.859   4.149 -1.4136 -0.4073 -0.9503
 9239TIP3   OH227649   5.129   0.249   3.125  0.2726 -0.5178 -0.3383
 9239TIP3    H127650   5.101   0.318   3.186  0.1823 -0.0116 -0.9416
 9239TIP3    H227651   5.201   0.288   3.076  0.8375 -1.1852 -0.0516
 9240TIP3   OH227652   5.181   6.634   3.272 -0.2056  0.1876 -0.3307
 9240TIP3    H127653   5.254   6.628   3.210 -0.0200  0.6670 -0.1628
 9240TIP3    H227654   5.103   6.621   3.219 -0.1681  2.4464 -1.0119
 9241TIP3   OH227655   4.200   6.394   4.238  0.1717 -0.6003 -0.6961
 9241TIP3    H127656   4.184   6.303   4.215 -0.6996 -0.6938  0.2366
 9241TIP3    H227657   4.295   6.404   4.234  0.3116 -1.6985 -0.2615
 9242TIP3   OH227658   4.038   7.389   3.035 -0.2055  0.1746  0.0517
 9242TIP3    H127659   3.989   7.452   2.983  0.2161  1.3801  1.0834
 9242TIP3    H227660   3.984   7.376   3.113  0.8855  1.1793  0.9894
 9243TIP3   OH227661   6.083   2.712   4.435 -0.0027  0.1643  0.0837
 9243TIP3    H127662   6.071   2.770   4.359 -0.2510 -0.6103 -0.4726
 9243TIP3    H227663   6.170   2.735   4.468  0.1977  0.3687 -0.5660
 9244TIP3   OH227664   5.437   1.763   2.838  0.0995 -0.2010  0.0586
 9244TIP3    H127665   5.499   1.690   2.843 -0.4232 -0.6772 -0.3977
 9244TIP3    H227666   5.360   1.734   2.886 -0.9545 -0.8206 -1.9215
 9245TIP3   OH227667   4.712   0.251   3.104 -0.4086  0.0929  0.4516
 9245TIP3    H127668   4.618   0.262   3.115 -0.5282  0.0351 -0.4790
 9245TIP3    H227669   4.737   0.316   3.038  0.3816  0.8332  1.4709
 9246TIP3   OH227670   5.272   6.703   5.879  0.0469  0.1772  0.2455
 9246TIP3    H127671   5.287   6.761   5.805 -0.9507 -1.0606 -0.9578
 9246TIP3    H227672   5.345   6.640   5.875 -0.6891 -0.6353 -0.4307
 9247TIP3   OH227673   3.712   1.423   3.931  0.0322  0.2808  0.4795
 9247TIP3    H127674   3.717   1.415   3.836  1.7045 -0.9080  0.6457
 9247TIP3    H227675   3.795   1.463   3.957 -0.4256  0.6433  1.4380
 9248TIP3   OH227676   6.728   1.387   1.879 -0.0659  0.2534  0.2969
 9248TIP3    H127677   6.705   1.308   1.830 -2.6969  1.1051  0.0422
 9248TIP3    H227678   6.710   1.459   1.818 -0.5327  1.1768  1.4985
 9249TIP3   OH227679   3.063   6.234   4.111  0.1436  0.5817  0.4758
 9249TIP3    H127680   3.003   6.305   4.134  1.4896  1.6790  0.6405
 9249TIP3    H227681   3.132   6.238   4.177  0.1502 -1.0035  0.5854
 9250TIP3   OH227682   3.487   6.602   2.501  0.6359  0.1320 -0.4271
 9250TIP3    H127683   3.470   6.585   2.409 -2.8028  1.5808 -0.1272
 9250TIP3    H227684   3.503   6.696   2.506  0.2418  0.1523  0.5247
 9251TIP3   OH227685   2.789   5.831   2.224  0.2367  0.1691 -0.8040
 9251TIP3    H127686   2.852   5.875   2.280  0.2349 -2.2556  1.1771
 9251TIP3    H227687   2.708   5.880   2.236  0.7477  0.9043 -0.2993
 9252TIP3   OH227688   5.329   0.223   2.485  0.5535  0.2586  0.3750
 9252TIP3    H127689   5.247   0.261   2.517  0.7245  0.6130  0.3947
 9252TIP3    H227690   5.316   0.213   2.390  0.0484 -0.7900  0.5466
 9253TIP3   OH227691   6.138   0.972   3.428  0.4071  0.1535  0.9407
 9253TIP3    H127692   6.057   0.923   3.409  1.1302 -1.0467  0.8892
 9253TIP3    H227693   6.117   1.021   3.508 -0.8446  1.0045  0.1171
 9254TIP3   OH227694   4.595   6.578   3.797  0.4907 -0.0938  0.4853
 9254TIP3    H127695   4.666   6.615   3.849  0.0146  2.3165 -0.4895
 9254TIP3    H227696   4.516   6.595   3.849  0.2056  0.7693 -0.2256
 9255TIP3   OH227697   6.532   0.191   3.995 -0.1178 -0.0086 -0.9730
 9255TIP3    H127698   6.508   0.127   4.062 -0.1772 -0.4492 -1.4106
 9255TIP3    H227699   6.499   0.274   4.028  0.2916 -0.1433 -0.2265
 9256TIP3   OH227700   3.833   7.560   0.989  0.3972  0.3314 -0.3310
 9256TIP3    H127701   3.805   7.502   0.918  1.1360  0.7532 -0.9788
 9256TIP3    H227702   3.878   7.632   0.945  1.6680  0.1394  0.6088
 9257TIP3   OH227703   6.067   0.585   3.996 -0.7935 -0.2602  0.0411
 9257TIP3    H127704   6.068   0.504   3.945 -1.2800 -0.7366  0.7705
 9257TIP3    H227705   6.089   0.557   4.085 -0.5791  0.4674  0.2182
 9258TIP3   OH227706   4.572   6.941   3.728 -0.4979  0.3698 -0.2137
 9258TIP3    H127707   4.531   6.966   3.645 -1.8979  4.0751  1.4833
 9258TIP3    H227708   4.499   6.914   3.784  0.2456 -0.5158  0.3516
 9259TIP3   OH227709   2.665   7.916   3.354  0.6710 -0.1069 -0.9994
 9259TIP3    H127710   2.718   7.908   3.433  2.1127 -0.4764 -2.0026
 9259TIP3    H227711   2.674   7.831   3.310 -0.9419 -0.2692 -1.0714
 9260TIP3   OH227712   7.564   0.965   3.516 -0.6715 -0.1539  0.1232
 9260TIP3    H127713   7.482   0.964   3.565 -0.9758  1.9546 -0.3036
 9260TIP3    H227714   7.631   0.991   3.580 -0.7293  0.5575 -0.1093
 9261TIP3   OH227715   6.759   2.763   3.521  0.1561  0.1486 -0.0211
 9261TIP3    H127716   6.805   2.708   3.458 -2.6717 -1.9330 -0.3629
 9261TIP3    H227717   6.685   2.799   3.472  0.3008  1.9170  1.0100
 9262TIP3   OH227718   5.299   0.012   3.004 -0.0371 -0.3343  0.1787
 9262TIP3    H127719   5.360  -0.053   2.970  0.8588 -0.3593  1.7894
 9262TIP3    H227720   5.306   0.085   2.943 -1.0605 -1.7146 -1.6554
 9263TIP3   OH227721   4.882   6.231   4.816  0.1650 -0.1950 -0.3764
 9263TIP3    H127722   4.940   6.181   4.873  0.3349 -0.2149 -0.5664
 9263TIP3    H227723   4.817   6.168   4.786 -0.2024 -0.0782  0.1706
 9264TIP3   OH227724   5.550   7.433   1.197 -0.5178  0.1964  0.0111
 9264TIP3    H127725   5.528   7.359   1.140  0.1410 -0.4587  0.6058
 9264TIP3    H227726   5.500   7.417   1.277 -0.4553  0.4490  0.1000
 9265TIP3   OH227727   3.570   6.730   3.047  0.1076  0.2149  0.2402
 9265TIP3    H127728   3.623   6.739   3.126  0.8222 -0.1009 -0.1905
 9265TIP3    H227729   3.634   6.736   2.975 -0.2243 -1.6231 -0.2489
 9266TIP3   OH227730   1.760   7.836   3.296  1.2176  0.1213 -0.7320
 9266TIP3    H127731   1.712   7.802   3.220  1.1713  0.5547 -0.9002
 9266TIP3    H227732   1.842   7.869   3.259  1.7026 -0.7359 -0.4257
 9267TIP3   OH227733   5.491   0.549   1.526 -0.3124  0.2109  0.5484
 9267TIP3    H127734   5.465   0.524   1.438  3.0000 -1.8038  0.0548
 9267TIP3    H227735   5.432   0.500   1.584 -1.0039 -0.2169 -0.5170
 9268TIP3   OH227736   4.846   7.235   2.978  0.2517 -0.3229  0.0325
 9268TIP3    H127737   4.911   7.194   3.035  1.1744  1.4082  0.2385
 9268TIP3    H227738   4.834   7.323   3.013 -0.1723  0.3122 -1.6335
 9269TIP3   OH227739   6.894   0.121   3.255  0.0409 -0.6704 -0.3140
 9269TIP3    H127740   6.823   0.106   3.193 -0.3931  0.5146 -0.1153
 9269TIP3    H227741   6.880   0.056   3.324 -1.1575 -0.1095 -0.0126
 9270TIP3   OH227742   8.423   0.042   2.204 -0.5342  0.1043 -0.0305
 9270TIP3    H127743   8.472   0.041   2.122  0.7664  0.2560  0.7305
 9270TIP3    H227744   8.388  -0.047   2.212 -2.4483  0.6711 -1.7855
 9271TIP3   OH227745   3.263   7.176   3.329  0.3316 -0.5989  0.1515
 9271TIP3    H127746   3.174   7.179   3.294  0.0039 -0.3510  0.9885
 9271TIP3    H227747   3.319   7.202   3.256 -0.1004 -2.7320 -1.0008
 9272TIP3   OH227748   5.643   1.008   2.241 -0.1620 -0.3408  0.0933
 9272TIP3    H127749   5.663   1.051   2.324 -1.8790  0.7074 -0.0030
 9272TIP3    H227750   5.696   0.928   2.241  1.9331  1.0255  0.9568
 9273TIP3   OH227751   4.247   6.941   5.663  0.1313 -0.5061  0.4356
 9273TIP3    H127752   4.151   6.939   5.664  0.1450 -1.0603  0.3720
 9273TIP3    H227753   4.270   6.921   5.573  0.3113 -0.4760  0.4762
 9274TIP3   OH227754   4.371   6.730   2.887 -0.3692  0.9174  0.5797
 9274TIP3    H127755   4.325   6.727   2.803 -0.5950 -0.5177  0.7440
 9274TIP3    H227756   4.463   6.744   2.863 -0.4253  0.4638  0.0896
 9275TIP3   OH227757   4.827   1.790   1.226 -0.0087 -0.5459 -0.3236
 9275TIP3    H127758   4.870   1.722   1.174  0.7271 -0.2463 -0.1151
 9275TIP3    H227759   4.868   1.872   1.196  0.5873 -0.3934  0.8940
 9276TIP3   OH227760   2.314   6.658   3.013  0.0271 -0.1685  0.1766
 9276TIP3    H127761   2.339   6.735   2.961  0.1907 -1.2552 -1.3659
 9276TIP3    H227762   2.394   6.606   3.019  0.1796  0.2488  2.0814
 9277TIP3   OH227763   5.228   7.415   4.312  0.9710  0.5531  0.6559
 9277TIP3    H127764   5.149   7.399   4.363  0.5562 -0.4261 -0.2621
 9277TIP3    H227765   5.261   7.499   4.344 -1.0301  1.5059  0.3290
 9278TIP3   OH227766   6.346   2.088   5.138  0.1719  0.0949  0.1293
 9278TIP3    H127767   6.287   2.161   5.157  1.2735  1.1617 -0.4880
 9278TIP3    H227768   6.291   2.024   5.093 -0.8143  0.5230  0.7133
 9279TIP3   OH227769   5.878   0.854   2.027 -0.1639 -0.2745  0.0874
 9279TIP3    H127770   5.860   0.943   1.997 -1.4906  0.3361  2.5288
 9279TIP3    H227771   5.811   0.838   2.094 -0.4124 -3.4020 -0.8573
 9280TIP3   OH227772   6.378   1.075   3.413 -0.3549  0.1244 -0.2806
 9280TIP3    H127773   6.294   1.029   3.408  0.5116 -2.0006  2.9895
 9280TIP3    H227774   6.443   1.005   3.419  1.3673  1.7750  0.7772
 9281TIP3   OH227775   7.746   0.823   4.008  0.1498  0.5285  0.1328
 9281TIP3    H127776   7.743   0.914   4.035 -0.0751  0.7385 -0.5936
 9281TIP3    H227777   7.667   0.784   4.045 -0.3866  0.9190 -0.5866
 9282TIP3   OH227778   6.232   2.367   5.083 -0.2531 -0.4989  0.0521
 9282TIP3    H127779   6.204   2.357   4.992  1.0751 -1.6472 -0.2504
 9282TIP3    H227780   6.155   2.403   5.128 -1.0583 -0.3206 -1.4249
 9283TIP3   OH227781   3.164   7.417   4.119  0.7988  0.0390  0.1065
 9283TIP3    H127782   3.197   7.492   4.168 -1.3834 -0.7049  2.8126
 9283TIP3    H227783   3.215   7.343   4.152  1.6971  0.0301 -1.2615
 9284TIP3   OH227784   3.696   0.254   3.745 -0.5199  0.3503  0.4088
 9284TIP3    H127785   3.734   0.342   3.747  3.2508 -1.1961  1.7592
 9284TIP3    H227786   3.725   0.214   3.827 -1.1386 -2.5275 -0.7310
 9285TIP3   OH227787   4.826   2.166   4.206  0.1800  0.1421  0.3147
 9285TIP3    H127788   4.733   2.181   4.188  0.7343  2.8605 -0.4820
 9285TIP3    H227789   4.863   2.140   4.122  0.0758 -1.4198  0.7358
 9286TIP3   OH227790   0.891   6.677   2.068  0.2277  0.0990 -0.6838
 9286TIP3    H127791   0.881   6.636   1.982  1.2606  0.2294 -0.8730
 9286TIP3    H227792   0.979   6.653   2.096  0.3257  1.0242 -0.1743
 9287TIP3   OH227793   5.389   0.517   1.262  0.2000  0.7563 -0.1747
 9287TIP3    H127794   5.429   0.575   1.197  0.2433  0.7788 -0.1288
 9287TIP3    H227795   5.390   0.430   1.221  1.1937  0.5749  0.2061
 9288TIP3   OH227796   6.308   0.041   1.843 -0.4229 -0.3443 -0.3570
 9288TIP3    H127797   6.238  -0.024   1.845  1.0282 -1.9307  2.5640
 9288TIP3    H227798   6.305   0.081   1.930  1.5056  0.4306 -0.6346
 9289TIP3   OH227799   6.408   1.323   3.331  0.1464  0.4502  0.2015
 9289TIP3    H127800   6.384   1.234   3.355  0.5307  0.3074  0.0582
 9289TIP3    H227801   6.389   1.329   3.238 -0.8974  0.8573  0.4326
 9290TIP3   OH227802   3.127   6.192   3.066  0.6312  0.6728 -0.5534
 9290TIP3    H127803   3.159   6.253   2.999  1.4646  1.2073  0.3323
 9290TIP3    H227804   3.137   6.105   3.026  1.7481  0.9445 -0.8715
 9291TIP3   OH227805   5.687   0.115   4.360 -0.1322 -0.4270 -0.0688
 9291TIP3    H127806   5.595   0.133   4.379  0.0279 -2.2348  2.7610
 9291TIP3    H227807   5.735   0.154   4.434  1.0466 -2.5567  0.3342
 9292TIP3   OH227808   3.245   7.470   5.631 -0.4970 -0.0550  0.2494
 9292TIP3    H127809   3.195   7.440   5.555 -2.2563 -1.1198  1.7685
 9292TIP3    H227810   3.334   7.483   5.598 -1.7689  2.0343 -2.5535
 9293TIP3   OH227811   2.826   7.339   3.084  0.0239 -0.7888 -0.7656
 9293TIP3    H127812   2.743   7.343   3.131  0.4771  1.9620 -0.0900
 9293TIP3    H227813   2.802   7.347   2.991 -0.4932 -0.7032 -0.6222
 9294TIP3   OH227814   4.751   0.480   5.251  0.1444  0.1229  0.0724
 9294TIP3    H127815   4.773   0.387   5.256 -0.1623  0.1163  1.2625
 9294TIP3    H227816   4.835   0.525   5.257  0.2208 -0.0473  0.2652
 9295TIP3   OH227817   4.658   6.581   4.950  0.2209  0.3328 -0.1219
 9295TIP3    H127818   4.641   6.571   4.856 -0.3255 -0.0037  0.0134
 9295TIP3    H227819   4.753   6.594   4.955  0.2850  0.1273 -0.7036
 9296TIP3   OH227820   6.946   0.443   4.334 -0.0794  0.6842  0.0030
 9296TIP3    H127821   6.876   0.501   4.303  0.7496  0.8791 -1.5968
 9296TIP3    H227822   6.950   0.374   4.268  0.7982  0.3256  0.4310
 9297TIP3   OH227823   4.636   7.881   6.584 -0.1295 -0.8311  0.1837
 9297TIP3    H127824   4.562   7.822   6.578 -0.9944  0.0961  1.3969
 9297TIP3    H227825   4.640   7.925   6.499 -1.2147 -0.6041  0.2497
 9298TIP3   OH227826   4.739   5.005   3.800  0.2042  0.1566 -0.0998
 9298TIP3    H127827   4.834   5.018   3.796  0.0970  0.9722 -0.1716
 9298TIP3    H227828   4.723   4.929   3.744  0.8676 -0.2788  0.2917
 9299TIP3   OH227829   2.032   7.971   6.056 -0.5316 -0.1767 -0.4691
 9299TIP3    H127830   2.076   7.941   6.136 -0.4570 -0.3510 -0.5763
 9299TIP3    H227831   2.092   7.947   5.986 -1.0309 -0.8830 -0.6636
 9300TIP3   OH227832   2.675   7.393   4.948  0.6794 -0.1890 -0.3527
 9300TIP3    H127833   2.624   7.409   4.868  0.5801  1.0596 -0.0534
 9300TIP3    H227834   2.610   7.387   5.017  0.7964 -0.7682 -0.2962
 9301TIP3   OH227835   6.802   0.154   5.672  0.0818 -0.1911  0.5564
 9301TIP3    H127836   6.851   0.233   5.697 -0.4553  0.7776 -1.3826
 9301TIP3    H227837   6.716   0.166   5.711  0.2593 -0.2156  0.9586
 9302TIP3   OH227838   2.326   7.134   1.393  0.1946  0.7052  0.4842
 9302TIP3    H127839   2.393   7.136   1.325 -0.4734  2.1838 -0.1780
 9302TIP3    H227840   2.336   7.049   1.435  2.2884  0.8016  0.2192
 9303TIP3   OH227841   8.137   0.622   4.735 -0.4004 -0.6333 -0.8925
 9303TIP3    H127842   8.158   0.558   4.667  1.1853 -1.7422  0.6268
 9303TIP3    H227843   8.176   0.587   4.815  0.8514  2.4178 -0.0929
 9304TIP3   OH227844   0.352   1.924   0.847 -0.3675 -0.4795 -0.0118
 9304TIP3    H127845   0.444   1.915   0.873 -0.4965  0.6729  0.8936
 9304TIP3    H227846   0.344   2.015   0.821 -1.3228 -0.5121  0.1722
 9305TIP3   OH227847   2.627   7.940   2.792 -0.2715 -1.2374  0.0734
 9305TIP3    H127848   2.552   7.899   2.749 -0.4728 -0.6713 -0.1143
 9305TIP3    H227849   2.701   7.886   2.766 -0.7530 -2.4371  1.1160
 9306TIP3   OH227850   7.098   0.325   3.465  0.2254  0.1413  0.0753
 9306TIP3    H127851   7.120   0.337   3.373  1.1812  0.1040  0.2919
 9306TIP3    H227852   7.021   0.267   3.465  0.4589 -0.1656 -0.6777
 9307TIP3   OH227853   4.951   7.392   2.489  0.3558 -0.3873  0.5951
 9307TIP3    H127854   4.904   7.472   2.464 -0.7689 -1.1881  0.1268
 9307TIP3    H227855   4.911   7.366   2.571  0.5564 -0.6137  0.6208
 9308TIP3   OH227856   7.702   1.082   4.098  0.2928 -0.3308 -0.4289
 9308TIP3    H127857   7.772   1.128   4.145  1.0586 -0.7342 -1.1601
 9308TIP3    H227858   7.623   1.132   4.119  1.2671  1.9567 -2.0148
 9309TIP3   OH227859   2.114   7.666   2.759 -0.1308 -0.1608  0.0286
 9309TIP3    H127860   2.027   7.642   2.728 -0.5349 -0.2872  1.2488
 9309TIP3    H227861   2.100   7.746   2.809  0.6827  0.6567 -1.0295
 9310TIP3   OH227862   4.950   0.006   3.441 -0.0661  0.8867 -0.2458
 9310TIP3    H127863   5.015  -0.038   3.386  0.7570  1.4881  0.2187
 9310TIP3    H227864   4.916   0.077   3.387 -0.7071  0.2513 -0.6691
 9311TIP3   OH227865   7.995   0.725   4.011 -0.1896  0.1890  0.3274
 9311TIP3    H127866   8.035   0.763   4.090  0.5299 -0.3099  0.2088
 9311TIP3    H227867   7.901   0.739   4.023 -0.1030 -0.0714  1.3721
 9312TIP3   OH227868   8.216   0.351   4.349  0.1784  0.0363  0.2889
 9312TIP3    H127869   8.244   0.289   4.282  0.8382 -1.1429  1.6270
 9312TIP3    H227870   8.210   0.435   4.303  1.2916 -0.6161 -1.0833
 9313TIP3   OH227871   6.104   5.572   4.446 -0.1575  0.1628 -0.5536
 9313TIP3    H127872   6.090   5.549   4.354  0.4120 -0.0365 -0.5905
 9313TIP3    H227873   6.016   5.573   4.484 -0.5085  1.2770 -1.3389
 9314TIP3   OH227874   3.600   6.628   2.019  0.1020  0.2979 -0.2193
 9314TIP3    H127875   3.693   6.626   1.996 -0.4202  0.5030 -2.4479
 9314TIP3    H227876   3.587   6.713   2.061  1.2648 -0.4415  1.6877
 9315TIP3   OH227877   4.252   6.445   2.426  0.4153  0.7440  0.0365
 9315TIP3    H127878   4.164   6.431   2.390  0.7253  0.6809 -0.6971
 9315TIP3    H227879   4.288   6.358   2.438  0.7419  0.7931 -0.5683
 9316TIP3   OH227880   8.152   2.387   4.073  0.0804 -0.2009  0.1835
 9316TIP3    H127881   8.139   2.317   4.009 -1.0373  0.4686 -0.3225
 9316TIP3    H227882   8.072   2.389   4.125  0.3452  0.3172  0.5905
 9317TIP3   OH227883   3.412   6.439   5.991  0.3178  0.2602  0.4351
 9317TIP3    H127884   3.364   6.515   5.959  0.8233  0.9979  1.4378
 9317TIP3    H227885   3.394   6.371   5.925 -1.4483  0.7481  0.3698
 9318TIP3   OH227886   4.453   7.513   3.346 -0.2037  0.1187  0.4704
 9318TIP3    H127887   4.499   7.458   3.410 -1.7561  0.2253  1.7088
 9318TIP3    H227888   4.477   7.602   3.368  2.5113 -0.0246 -1.6935
 9319TIP3   OH227889   7.048   0.111   2.610 -0.1966 -0.4323  0.5566
 9319TIP3    H127890   7.016   0.020   2.614  0.3640 -0.5889  1.9017
 9319TIP3    H227891   7.018   0.150   2.692  2.4066 -0.3833  1.5563
 9320TIP3   OH227892   5.584   6.262   4.951 -0.0203  0.3738 -0.0115
 9320TIP3    H127893   5.567   6.187   4.893  0.1721  0.4646 -0.1876
 9320TIP3    H227894   5.565   6.229   5.039  0.2249  0.0702 -0.0715
 9321TIP3   OH227895   2.686   7.663   3.173 -0.2964  0.1980  0.0492
 9321TIP3    H127896   2.683   7.633   3.082 -0.1281  1.4746 -0.3826
 9321TIP3    H227897   2.777   7.690   3.187 -0.1346 -0.7456  0.8436
 9322TIP3   OH227898   7.557   0.304   3.750 -0.6840 -0.0025 -0.1407
 9322TIP3    H127899   7.531   0.386   3.793  1.8313  0.6780  0.1343
 9322TIP3    H227900   7.482   0.282   3.695 -2.3000  1.3004  1.4503
 9323TIP3   OH227901   6.099   6.703   5.366  0.3827 -0.0884  0.9406
 9323TIP3    H127902   6.015   6.750   5.366 -0.1741 -1.0774  1.1698
 9323TIP3    H227903   6.151   6.749   5.300 -0.8026 -0.2695 -0.1555
 9324TIP3   OH227904   4.419   6.081   0.792 -0.1028 -0.4849 -0.0191
 9324TIP3    H127905   4.491   6.138   0.819 -2.3321  0.8956  3.3783
 9324TIP3    H227906   4.453   5.992   0.806  1.3514  0.1117  0.3573
 9325TIP3   OH227907   1.934   7.969   2.478  0.1741 -0.1899  0.2485
 9325TIP3    H127908   1.843   7.954   2.503  0.3733 -0.8366  0.5786
 9325TIP3    H227909   1.928   8.026   2.401 -0.5432 -1.1715 -0.4282
 9326TIP3   OH227910   7.145   1.753   4.645  0.1683 -0.0731 -0.0062
 9326TIP3    H127911   7.188   1.712   4.570  0.8368 -3.2631  2.0433
 9326TIP3    H227912   7.217   1.788   4.697 -0.2084  0.7178 -0.0040
 9327TIP3   OH227913   5.164   7.707   4.933  0.7117 -0.0211  0.1044
 9327TIP3    H127914   5.121   7.639   4.882  0.0215 -0.3961  1.1532
 9327TIP3    H227915   5.250   7.672   4.954  1.2303  0.3831 -1.2935
 9328TIP3   OH227916   5.564   6.993   2.808 -0.3635 -0.6892 -0.2386
 9328TIP3    H127917   5.605   7.023   2.889 -1.5038  2.4023 -0.7528
 9328TIP3    H227918   5.631   6.939   2.766  1.8675  1.2778  0.6753
 9329TIP3   OH227919   4.153   7.007   2.193  0.5512  0.0199 -0.1716
 9329TIP3    H127920   4.135   7.083   2.249 -0.9917  0.8505 -1.7511
 9329TIP3    H227921   4.243   7.021   2.162  1.4247 -0.4446  2.0255
 9330TIP3   OH227922   3.555   5.942   3.088 -0.0743 -0.4740 -0.1731
 9330TIP3    H127923   3.512   6.021   3.121 -0.9738 -0.8567 -0.4010
 9330TIP3    H227924   3.557   5.883   3.163 -0.8505 -0.8216 -0.4168
 9331TIP3   OH227925   2.504   5.184   4.148 -0.6517  0.0900 -0.3812
 9331TIP3    H127926   2.593   5.148   4.145 -0.8396 -0.3979 -0.1102
 9331TIP3    H227927   2.467   5.164   4.062 -0.4638  0.3946 -0.5362
 9332TIP3   OH227928   4.089   6.940   2.684 -0.0199 -0.0822  0.5927
 9332TIP3    H127929   4.159   6.882   2.654 -0.0143 -0.2612  0.9468
 9332TIP3    H227930   4.017   6.924   2.623  0.6933  1.0797 -0.5885
 9333TIP3   OH227931   3.993   6.585   6.304 -0.5799 -0.2089 -0.0426
 9333TIP3    H127932   4.000   6.578   6.399 -0.8363 -3.5270 -0.1894
 9333TIP3    H227933   4.082   6.602   6.275 -0.1284 -1.2440  0.6904
 9334TIP3   OH227934   5.940   7.001   4.188 -0.3798  0.5134 -0.1889
 9334TIP3    H127935   5.973   7.091   4.197 -0.3200  0.4726  0.0003
 9334TIP3    H227936   5.880   7.005   4.113 -2.2150  1.2326  1.2894
 9335TIP3   OH227937   3.618   6.301   3.178  0.4220 -0.3821  0.4639
 9335TIP3    H127938   3.692   6.240   3.178  0.2314 -0.6655  3.1060
 9335TIP3    H227939   3.542   6.246   3.195 -0.0290  0.2970  0.6340
 9336TIP3   OH227940   3.740   7.613   3.843  0.1170  0.2629  0.0973
 9336TIP3    H127941   3.653   7.576   3.828 -0.6695  2.9111 -2.2647
 9336TIP3    H227942   3.733   7.660   3.926 -0.5104 -0.1245  0.2602
 9337TIP3   OH227943   4.159   0.106   3.722  0.0782  0.3576 -0.0697
 9337TIP3    H127944   4.075   0.071   3.753 -0.9961  1.3741 -1.7876
 9337TIP3    H227945   4.219   0.031   3.726 -0.3287  0.1354  3.1821
 9338TIP3   OH227946   3.718   7.314   4.457  0.2405  0.2939 -0.0392
 9338TIP3    H127947   3.755   7.401   4.443 -0.4571  0.6149  0.0870
 9338TIP3    H227948   3.726   7.298   4.551  2.7758 -0.8815 -0.4251
 9339TIP3   OH227949   7.776   1.477   2.455  0.0698 -0.0295 -0.8656
 9339TIP3    H127950   7.782   1.568   2.483 -0.2920 -0.1998 -0.2518
 9339TIP3    H227951   7.704   1.440   2.505  1.8288 -1.3461  0.7889
 9340TIP3   OH227952   7.315   0.279   3.644  0.1016  0.8620  0.5847
 9340TIP3    H127953   7.296   0.186   3.660  1.3098  0.4733 -0.2458
 9340TIP3    H227954   7.244   0.308   3.586  0.5693  0.0755 -0.3800
 9341TIP3   OH227955   6.977   7.266   2.559  0.4192 -0.0538  0.5411
 9341TIP3    H127956   7.051   7.206   2.568  0.3573 -0.0258  1.2518
 9341TIP3    H227957   6.923   7.249   2.636 -1.6204 -1.8666 -1.2242
 9342TIP3   OH227958   4.164   7.159   4.004  0.4093 -0.3581  0.0307
 9342TIP3    H127959   4.206   7.234   4.044  0.4687  0.9103 -2.3119
 9342TIP3    H227960   4.167   7.090   4.070  0.2569  1.7311  2.2445
 9343TIP3   OH227961   7.363   1.520   2.368  0.2436 -0.4238 -0.2129
 9343TIP3    H127962   7.356   1.557   2.280 -0.7363 -0.3894 -0.1257
 9343TIP3    H227963   7.322   1.586   2.425 -1.2985 -1.5249 -0.0280
 9344TIP3   OH227964   4.337   7.103   2.737 -0.4463 -0.5553 -0.0121
 9344TIP3    H127965   4.242   7.095   2.735 -0.6441  1.6350 -1.5095
 9344TIP3    H227966   4.368   7.032   2.680 -1.2523 -0.3764 -0.6871
 9345TIP3   OH227967   7.864   2.878   2.642  0.5831  0.2163 -0.2188
 9345TIP3    H127968   7.955   2.908   2.636  0.2085  1.1412 -1.3711
 9345TIP3    H227969   7.828   2.892   2.554 -0.2515 -1.5285 -0.1877
 9346TIP3   OH227970   6.850   7.064   2.238 -0.4355 -0.0288 -0.5136
 9346TIP3    H127971   6.920   7.002   2.222 -0.3342  0.2886 -1.3442
 9346TIP3    H227972   6.891   7.150   2.228 -0.7376  0.1658 -0.1002
 9347TIP3   OH227973   6.878   6.859   4.501 -0.4008 -0.3171 -0.3019
 9347TIP3    H127974   6.797   6.909   4.493 -1.0416 -1.5510 -1.5147
 9347TIP3    H227975   6.854   6.769   4.482  1.1229 -0.8131  0.0151
 9348TIP3   OH227976   4.490   6.329   3.716  0.5510  0.1109 -0.2449
 9348TIP3    H127977   4.526   6.403   3.765 -0.0820  0.0064  0.3732
 9348TIP3    H227978   4.541   6.329   3.634  1.8087  0.1096  0.5171
 9349TIP3   OH227979   6.919   0.042   3.662  0.3936 -0.4207 -0.0543
 9349TIP3    H127980   6.852   0.052   3.730  0.5702 -1.8515  0.3590
 9349TIP3    H227981   6.870   0.045   3.580 -0.0530 -0.4424  0.2064
 9350TIP3   OH227982   7.711   6.474   2.499  0.1149 -0.0399 -0.1971
 9350TIP3    H127983   7.654   6.477   2.422 -0.9033  0.0149  0.5367
 9350TIP3    H227984   7.665   6.418   2.561  0.5959  0.4509  0.6196
 9351TIP3   OH227985   4.553   7.353   3.135  0.3465  0.0171  0.8794
 9351TIP3    H127986   4.636   7.391   3.165  0.1239 -1.3971  3.4513
 9351TIP3    H227987   4.488   7.420   3.152  0.8019  0.7272 -0.1530
 9352TIP3   OH227988   8.032   0.861   2.577  0.0995 -0.3650  0.2674
 9352TIP3    H127989   8.101   0.894   2.635  0.0140  0.2134  0.0430
 9352TIP3    H227990   7.950   0.893   2.616 -0.0280 -0.8968  0.4336
 9353TIP3   OH227991   4.593   6.848   5.520 -0.4373  0.3600 -0.3066
 9353TIP3    H127992   4.553   6.840   5.607  0.5979  1.6743  0.3091
 9353TIP3    H227993   4.553   6.778   5.469 -3.0679  1.2525  0.4614
 9354TIP3   OH227994   7.186   0.348   2.519  0.2018  0.7124 -0.5151
 9354TIP3    H127995   7.169   0.256   2.541  0.9393  0.4530 -0.9863
 9354TIP3    H227996   7.125   0.398   2.572  0.9329  0.0330  0.9878
 9355TIP3   OH227997   7.317   0.325   5.404 -0.4717 -0.0760  0.1844
 9355TIP3    H127998   7.246   0.315   5.468  0.7978  1.6164  1.9073
 9355TIP3    H227999   7.397   0.320   5.456  0.6362 -0.3068 -1.5201
 9356TIP3   OH228000   0.417   0.940   2.348 -0.0288  0.3930 -0.5627
 9356TIP3    H128001   0.433   0.847   2.328  0.8506  0.3709  0.1784
 9356TIP3    H228002   0.497   0.968   2.392 -1.1447  0.9376  1.1604
 9357TIP3   OH228003   7.175   6.055   3.951 -0.0653 -0.0706  0.0440
 9357TIP3    H128004   7.151   6.075   4.042  3.5602  0.9265  0.8486
 9357TIP3    H228005   7.177   6.140   3.907  2.7242  0.0297  0.2539
 9358TIP3   OH228006   4.969   6.142   5.359  0.4105 -0.3554 -0.3107
 9358TIP3    H128007   4.894   6.199   5.377  1.1401  0.2121  0.9862
 9358TIP3    H228008   5.035   6.167   5.424  1.5049 -1.2695 -1.0447
 9359TIP3   OH228009   0.319   0.283   2.571 -0.8515 -0.0350  0.4348
 9359TIP3    H128010   0.309   0.192   2.543 -2.1105  0.7486 -1.8355
 9359TIP3    H228011   0.413   0.295   2.580 -0.7129 -1.8043  1.6830
 9360TIP3   OH228012   1.381   1.178   3.295  0.0060  0.2739  0.2619
 9360TIP3    H128013   1.469   1.166   3.331  0.8166 -1.4047 -2.1576
 9360TIP3    H228014   1.325   1.183   3.372  2.1364  0.7408  1.8402
 9361TIP3   OH228015   5.560   7.677   3.315 -0.0876  0.3472  0.5122
 9361TIP3    H128016   5.550   7.739   3.243  1.9653 -1.9609 -1.8810
 9361TIP3    H228017   5.484   7.619   3.307  0.1903  0.0327  0.1181
 9362TIP3   OH228018   6.265   7.123   0.643 -0.5850 -0.0464  0.1442
 9362TIP3    H128019   6.197   7.186   0.618 -0.3724  0.4539  0.8210
 9362TIP3    H228020   6.304   7.096   0.560 -1.0461  0.2985 -0.1872
 9363TIP3   OH228021   4.992   7.522   4.131 -0.2753  0.7862 -0.7237
 9363TIP3    H128022   5.006   7.581   4.057  0.7860  0.2425 -0.9607
 9363TIP3    H228023   4.925   7.461   4.101  1.1780 -0.3219 -1.7632
 9364TIP3   OH228024   5.283   7.082   3.688 -0.2789 -0.4018  0.2975
 9364TIP3    H128025   5.267   7.116   3.600  0.8033 -0.2701  0.1548
 9364TIP3    H228026   5.199   7.092   3.733 -0.1433  1.9164  0.0803
 9365TIP3   OH228027   7.204   1.935   5.020  0.4261  0.2067  0.4700
 9365TIP3    H128028   7.142   1.863   5.010  1.3724 -0.3803 -1.4641
 9365TIP3    H228029   7.149   2.011   5.043 -0.8161 -0.6551  0.4087
 9366TIP3   OH228030   5.387   6.421   4.613 -0.5620  0.0621  0.0054
 9366TIP3    H128031   5.409   6.437   4.704  0.4661 -1.9842  0.1368
 9366TIP3    H228032   5.447   6.477   4.564 -1.5736  1.6774  0.5736
 9367TIP3   OH228033   5.800   7.090   4.562 -0.3636  0.3968 -0.1575
 9367TIP3    H128034   5.795   7.169   4.616 -1.4886  0.3335 -0.1485
 9367TIP3    H228035   5.786   7.019   4.624  0.6357  0.1807 -0.1682
 9368TIP3   OH228036   7.176   2.211   4.750  0.5807 -0.2567 -0.3158
 9368TIP3    H128037   7.107   2.146   4.738  1.1458 -0.6304 -1.5444
 9368TIP3    H228038   7.251   2.177   4.702  1.4929  0.3655  0.6295
 9369TIP3   OH228039   1.693   0.788   4.089  0.0462  0.0983 -0.1333
 9369TIP3    H128040   1.635   0.738   4.031  0.3087  1.3971 -1.5616
 9369TIP3    H228041   1.682   0.879   4.062  0.0224  0.7603  2.0378
 9370TIP3   OH228042   4.218   5.842   3.367  0.2071  0.1593  0.4094
 9370TIP3    H128043   4.159   5.775   3.400 -0.9541  0.8309 -0.2572
 9370TIP3    H228044   4.273   5.797   3.303 -0.2754 -0.2394  0.2756
 9371TIP3   OH228045   0.253   1.904   3.196  0.0575  0.0510  0.2152
 9371TIP3    H128046   0.252   1.829   3.256 -2.4220  1.1969  1.7203
 9371TIP3    H228047   0.170   1.898   3.149  0.9991  0.4304 -1.5356
 9372TIP3   OH228048   6.015   6.898   3.759 -0.7993 -0.0556 -0.4264
 9372TIP3    H128049   6.017   6.825   3.698  0.6669 -0.2759 -0.1242
 9372TIP3    H228050   6.082   6.877   3.824 -0.7829  1.2617 -0.0017
 9373TIP3   OH228051   5.359   7.912   4.545  0.0413 -0.5371 -0.4983
 9373TIP3    H128052   5.367   8.000   4.583 -2.7766 -0.3531 -0.1584
 9373TIP3    H228053   5.341   7.927   4.452 -1.2269 -0.7072 -0.2895
 9374TIP3   OH228054   5.741   7.651   3.547 -0.2187  0.5079  0.4793
 9374TIP3    H128055   5.688   7.649   3.627 -0.4501 -3.2941  0.2888
 9374TIP3    H228056   5.680   7.682   3.480 -1.4945 -1.3510  0.7591
 9375TIP3   OH228057   4.846   7.324   2.721  0.3219  0.0482  0.1659
 9375TIP3    H128058   4.872   7.259   2.786 -1.7409 -0.6941  0.2840
 9375TIP3    H228059   4.751   7.316   2.716  0.1549  2.3003 -0.6310
 9376TIP3   OH228060   3.389   6.986   1.192  0.0011  0.5119 -0.3580
 9376TIP3    H128061   3.365   7.026   1.108 -2.4216  1.8469  0.9030
 9376TIP3    H228062   3.314   6.931   1.214  1.8293 -2.0791 -0.3895
 9377TIP3   OH228063   8.315   0.272   2.108 -0.5358  0.6895 -0.0835
 9377TIP3    H128064   8.360   0.319   2.179  0.3148  0.5066 -0.5017
 9377TIP3    H228065   8.316   0.180   2.136 -2.6477  0.9431  0.9763
 9378TIP3   OH228066   5.823   0.920   1.614 -0.8251 -0.1683  0.4828
 9378TIP3    H128067   5.788   0.886   1.532 -0.0938 -1.1890  0.5840
 9378TIP3    H228068   5.835   0.842   1.669  1.9435  0.0990  0.3244
 9379TIP3   OH228069   0.519   0.347   3.734  0.8176 -0.6964 -0.1141
 9379TIP3    H128070   0.514   0.317   3.643  1.0873  1.4329 -0.8534
 9379TIP3    H228071   0.445   0.407   3.743  1.4365 -0.0674  0.7548
 9380TIP3   OH228072   7.278   0.984   3.366  0.7332  0.4416 -0.0274
 9380TIP3    H128073   7.321   1.068   3.380  0.6495  0.4390  0.2347
 9380TIP3    H228074   7.337   0.920   3.407  1.5304  0.2180 -1.4890
 9381TIP3   OH228075   4.369   1.378   1.565 -0.6766 -0.0064 -0.5603
 9381TIP3    H128076   4.455   1.344   1.589 -0.8513  0.1206  0.2932
 9381TIP3    H228077   4.374   1.395   1.471  0.6578  1.2349 -0.2906
 9382TIP3   OH228078   6.109   7.029   5.348  0.5183 -0.7565  0.2685
 9382TIP3    H128079   6.074   7.091   5.284  0.5831 -0.4146  0.5580
 9382TIP3    H228080   6.183   6.987   5.304  0.4044 -0.7043  0.0299
 9383TIP3   OH228081   8.210   0.579   3.559  0.1672 -0.5058  0.4462
 9383TIP3    H128082   8.130   0.546   3.518  0.4003  1.3816 -1.5881
 9383TIP3    H228083   8.270   0.505   3.558 -0.2010 -0.7996 -1.6418
 9384TIP3   OH228084   7.409   0.554   4.858  0.0292 -0.2480 -0.6166
 9384TIP3    H128085   7.405   0.580   4.766 -3.4578  0.0363 -0.4775
 9384TIP3    H228086   7.360   0.472   4.862  1.3593 -1.0045  0.7693
 9385TIP3   OH228087   2.643   6.085   3.933 -0.1455  0.0391 -0.2007
 9385TIP3    H128088   2.693   6.093   4.014  0.4835  0.6327 -0.6418
 9385TIP3    H228089   2.564   6.137   3.949 -0.2389 -0.2218  0.1956
 9386TIP3   OH228090   7.199   0.125   4.679 -0.0647 -0.2997 -0.0590
 9386TIP3    H128091   7.199   0.199   4.741 -1.2825 -0.4823  0.1624
 9386TIP3    H228092   7.291   0.115   4.655  0.2320  0.7263  0.5910
 9387TIP3   OH228093   8.012   1.873   4.054  0.1231 -0.4988  0.3750
 9387TIP3    H128094   8.034   1.849   3.964 -2.3721  0.8216 -0.6318
 9387TIP3    H228095   8.006   1.968   4.052 -1.8554 -0.5710  1.4467
 9388TIP3   OH228096   6.651   7.668   5.442  0.1390 -0.4875 -0.1545
 9388TIP3    H128097   6.623   7.663   5.533 -0.4220 -0.1789 -0.3082
 9388TIP3    H228098   6.615   7.589   5.401 -0.2126 -0.2641 -0.2740
 9389TIP3   OH228099   7.545   0.018   3.279  0.3456  0.0662  0.1766
 9389TIP3    H128100   7.475   0.082   3.290  1.4135  1.1531  0.7833
 9389TIP3    H228101   7.507  -0.064   3.312 -0.8896  0.4675 -0.2072
 9390TIP3   OH228102   6.819   7.773   3.195  0.1181 -0.4053  0.6087
 9390TIP3    H128103   6.876   7.835   3.151 -0.6913 -1.8205 -2.6079
 9390TIP3    H228104   6.735   7.782   3.150 -0.7362 -1.9430  1.8545
 9391TIP3   OH228105   3.216   6.210   0.614  0.0866  0.2185 -0.2150
 9391TIP3    H128106   3.291   6.164   0.653  0.2243 -1.4670 -2.3358
 9391TIP3    H228107   3.194   6.279   0.677  2.5388 -0.1416  1.1026
 9392TIP3   OH228108   1.388   0.393   4.941 -0.3160  0.3340 -0.4145
 9392TIP3    H128109   1.483   0.384   4.948 -0.0809  1.8154 -1.4395
 9392TIP3    H228110   1.366   0.461   5.005 -0.4698  1.1149 -1.2880
 9393TIP3   OH228111   2.054   6.040   5.872  0.0007 -0.1428  0.1563
 9393TIP3    H128112   1.980   6.089   5.837  0.5551  0.0014 -0.8087
 9393TIP3    H228113   2.082   5.983   5.800  0.4617 -0.6249  0.7061
 9394TIP3   OH228114   6.847   0.892   1.215 -0.8441  0.0484 -0.0357
 9394TIP3    H128115   6.874   0.891   1.124 -1.8142  0.1210 -0.3351
 9394TIP3    H228116   6.920   0.932   1.262 -0.2733 -0.1432 -0.7550
 9395TIP3   OH228117   5.459   6.529   4.094  0.4202 -0.0267 -0.0057
 9395TIP3    H128118   5.451   6.625   4.095 -0.4066 -0.0947  0.6196
 9395TIP3    H228119   5.504   6.510   4.012  0.8900  0.9216  0.0266
 9396TIP3   OH228120   5.014   0.050   2.650 -0.1973  0.4985 -0.7733
 9396TIP3    H128121   5.022   0.128   2.596 -2.5362  0.4135 -1.2579
 9396TIP3    H228122   4.959   0.077   2.724  0.7226 -0.1294  0.1594
 9397TIP3   OH228123   6.781   1.006   2.899  0.0389  0.1304 -0.4242
 9397TIP3    H128124   6.818   0.966   2.977 -1.0047 -0.2211 -0.0939
 9397TIP3    H228125   6.694   1.036   2.926 -0.3951 -0.1346 -1.4824
 9398TIP3   OH228126   5.738   7.329   3.768 -0.3082  0.3188 -0.2047
 9398TIP3    H128127   5.753   7.243   3.728 -2.0962 -0.3517  0.5260
 9398TIP3    H228128   5.643   7.336   3.775 -0.1610  2.1903  0.1336
 9399TIP3   OH228129   3.874   6.667   3.388  1.0673 -0.0441  0.0390
 9399TIP3    H128130   3.888   6.613   3.311  2.6540  0.9947 -0.4365
 9399TIP3    H228131   3.797   6.719   3.368  0.6601 -0.7608 -0.2706
 9400TIP3   OH228132   4.358   7.874   1.198  0.1595  0.0466  0.7165
 9400TIP3    H128133   4.412   7.860   1.276  1.1328  0.9662  0.2271
 9400TIP3    H228134   4.321   7.961   1.209  0.7358  0.4061 -0.0906
 9401TIP3   OH228135   8.174   3.499   3.610 -0.0596 -0.3882  0.5015
 9401TIP3    H128136   8.192   3.585   3.648  0.6969 -0.1994 -0.2629
 9401TIP3    H228137   8.080   3.500   3.592 -0.1003  0.1871  0.7168
 9402TIP3   OH228138   8.302   0.175   2.409  0.0418 -0.4534  0.5327
 9402TIP3    H128139   8.313   0.105   2.473 -0.3205 -0.7873  0.2362
 9402TIP3    H228140   8.365   0.154   2.340 -1.2582 -1.4432 -0.3721
 9403TIP3   OH228141   4.837   0.193   2.791  0.0304 -0.4315  0.1251
 9403TIP3    H128142   4.756   0.150   2.819 -0.5213  0.4639 -0.0747
 9403TIP3    H228143   4.852   0.261   2.857  0.5334 -0.4866  0.0705
 9404TIP3   OH228144   5.757   5.253   3.803 -0.1776 -0.1119  0.3216
 9404TIP3    H128145   5.803   5.223   3.882  0.7595 -0.5282 -0.3812
 9404TIP3    H228146   5.669   5.215   3.811  0.2918 -1.1659  0.5640
 9405TIP3   OH228147   5.372   7.824   2.188  0.0413 -0.3130  0.1727
 9405TIP3    H128148   5.291   7.806   2.236  0.9199 -1.7014  1.1703
 9405TIP3    H228149   5.342   7.857   2.103 -1.6211 -2.7119 -0.2279
 9406TIP3   OH228150   6.142   0.071   2.382  0.5599  0.0346 -0.1094
 9406TIP3    H128151   6.096   0.000   2.338 -1.4680  0.5212  1.1724
 9406TIP3    H228152   6.230   0.069   2.345  0.0667 -2.1195 -1.2373
 9407TIP3   OH228153   5.790   7.541   2.627  0.0675 -0.1283  0.2017
 9407TIP3    H128154   5.865   7.483   2.640  0.0408  0.0881  1.3782
 9407TIP3    H228155   5.730   7.490   2.572  1.1985 -0.1868 -1.0019
 9408TIP3   OH228156   8.122   1.551   3.470  0.0978 -0.0412 -0.3560
 9408TIP3    H128157   8.105   1.627   3.414 -1.3821 -1.2055 -1.5140
 9408TIP3    H228158   8.193   1.504   3.427 -2.2595 -1.9269 -2.3129
 9409TIP3   OH228159   7.910   1.687   3.569 -0.3782 -0.1266  0.3850
 9409TIP3    H128160   7.979   1.622   3.559  0.0071  0.5044 -1.2733
 9409TIP3    H228161   7.847   1.647   3.628  0.2589 -1.6626  0.0435
 9410TIP3   OH228162   4.915   5.653   4.573  0.0518  0.1644 -1.2973
 9410TIP3    H128163   4.921   5.670   4.479  3.0602 -0.8096 -1.3182
 9410TIP3    H228164   4.977   5.715   4.613 -1.3430  0.7122  0.0944
 9411TIP3   OH228165   8.443   1.957   2.696  0.0007 -0.2124 -0.2763
 9411TIP3    H128166   8.396   1.966   2.779 -0.3123 -1.2134 -0.3372
 9411TIP3    H228167   8.524   1.912   2.719  0.3637  0.3965 -0.3628
 9412TIP3   OH228168   0.474   0.026   4.014  0.4803 -0.1328 -0.0651
 9412TIP3    H128169   0.379   0.019   4.016  0.4228  0.6150 -0.0165
 9412TIP3    H228170   0.500   0.028   4.107  0.5229 -0.0452 -0.0793
 9413TIP3   OH228171   5.805   7.403   3.405 -0.3527 -0.0044  0.4060
 9413TIP3    H128172   5.787   7.491   3.436 -1.2688 -0.4035  1.0223
 9413TIP3    H228173   5.774   7.346   3.475  2.2389 -0.7575  0.9710
 9414TIP3   OH228174   6.077   7.062   3.512 -0.2173  0.1162  0.0214
 9414TIP3    H128175   6.048   7.006   3.584  0.2173 -0.9124 -0.5919
 9414TIP3    H228176   6.116   7.138   3.555 -1.3979  0.2631  0.8587
 9415TIP3   OH228177   8.346   1.804   4.464  0.0351 -0.3122  0.3785
 9415TIP3    H128178   8.411   1.874   4.453  0.0026 -0.1482  1.1995
 9415TIP3    H228179   8.263   1.844   4.436 -0.0439  0.0921  1.1800
 9416TIP3   OH228180   7.529   4.423   2.779 -0.2695  0.5913  0.4512
 9416TIP3    H128181   7.593   4.476   2.828  0.4763  2.0050 -1.9513
 9416TIP3    H228182   7.476   4.487   2.732 -1.5840 -0.7027  0.1372
 9417TIP3   OH228183   4.594   7.291   2.315 -0.0631  0.0018 -0.2122
 9417TIP3    H128184   4.648   7.365   2.287  1.6850 -1.2488 -0.2192
 9417TIP3    H228185   4.553   7.321   2.396  0.7128  0.9505 -0.1537
 9418TIP3   OH228186   7.252   1.435   2.015 -0.5483 -0.2026  0.2358
 9418TIP3    H128187   7.228   1.382   2.091  1.9202 -0.9543  0.5512
 9418TIP3    H228188   7.268   1.522   2.050  0.1308 -0.4350  0.5042
 9419TIP3   OH228189   8.349   0.760   4.144 -0.1939 -0.3128 -0.4198
 9419TIP3    H128190   8.339   0.770   4.049 -1.7695  1.1622 -0.1116
 9419TIP3    H228191   8.335   0.848   4.179 -1.1478 -1.1325  1.3100
 9420TIP3   OH228192   7.865   2.425   2.810  0.0256 -0.1677  0.3167
 9420TIP3    H128193   7.923   2.501   2.816 -1.1387  0.7474  0.2817
 9420TIP3    H228194   7.843   2.404   2.901  0.5441 -0.6099  0.3368
 9421TIP3   OH228195   4.015   6.164   4.089  0.0991  0.0548 -0.3569
 9421TIP3    H128196   3.983   6.098   4.028  0.8405  1.1140 -1.9395
 9421TIP3    H228197   3.948   6.232   4.089  0.3656  0.3216 -0.4385
 9422TIP3   OH228198   6.937   2.439   3.668 -0.0398 -0.1626  0.2928
 9422TIP3    H128199   7.007   2.376   3.680 -2.0121 -2.6589 -0.9632
 9422TIP3    H228200   6.908   2.428   3.578 -1.2445  1.7009  0.4026
 9423TIP3   OH228201   1.397   0.039   2.474 -0.8745  0.0313  0.8818
 9423TIP3    H128202   1.362   0.115   2.521 -2.3471  0.3718 -0.6987
 9423TIP3    H228203   1.320  -0.012   2.451  0.1716 -2.4039  2.6190
 9424TIP3   OH228204   8.420   0.677   2.895  0.1317  0.1505  0.1547
 9424TIP3    H128205   8.359   0.612   2.860  0.3882 -0.2976  0.5275
 9424TIP3    H228206   8.383   0.702   2.979 -1.8382  3.1348 -1.5178
 9425TIP3   OH228207   5.139   7.043   5.153  0.1020  0.1269 -0.5587
 9425TIP3    H128208   5.183   6.967   5.191  1.5868  0.8345 -0.8498
 9425TIP3    H228209   5.087   7.079   5.225  2.3084  1.0172  0.6142
 9426TIP3   OH228210   4.988   7.174   5.335 -0.9788 -0.1934 -0.2296
 9426TIP3    H128211   5.026   7.238   5.395  0.5544  0.7912 -2.1802
 9426TIP3    H228212   4.895   7.197   5.332 -0.8840  0.4029  0.9562
 9427TIP3   OH228213   1.165   0.236   3.377  0.2715  0.3476  0.2977
 9427TIP3    H128214   1.115   0.156   3.358  1.9465 -0.8259  0.7380
 9427TIP3    H228215   1.136   0.262   3.464  1.2704 -1.0225  1.0693
 9428TIP3   OH228216   8.376   1.432   1.840  0.1746 -0.3725  0.2497
 9428TIP3    H128217   8.409   1.380   1.914  0.7918 -0.5475 -0.1400
 9428TIP3    H228218   8.385   1.374   1.764  0.2650  0.0755 -0.0880
 9429TIP3   OH228219   7.490   1.277   2.479 -0.3292 -0.0568 -0.0232
 9429TIP3    H128220   7.550   1.254   2.408  0.3535 -0.0770  0.5488
 9429TIP3    H228221   7.452   1.361   2.453  1.6538  1.0753  0.6487
 9430TIP3   OH228222   0.843   0.060   2.894 -0.1485 -0.0076  0.0571
 9430TIP3    H128223   0.752   0.091   2.888 -0.8805 -2.2699 -0.9629
 9430TIP3    H228224   0.888   0.105   2.823  0.2102  3.2091  2.2100
 9431TIP3   OH228225   0.629   0.815   2.485 -0.0016  0.0432 -0.2804
 9431TIP3    H128226   0.577   0.832   2.563 -0.8014 -0.4623 -0.6912
 9431TIP3    H228227   0.627   0.719   2.476 -2.6228  0.2555 -2.7127
 9432TIP3   OH228228   4.577   6.448   2.905  0.0384 -0.0908 -0.2797
 9432TIP3    H128229   4.660   6.495   2.897 -0.2141  0.6280  1.2353
 9432TIP3    H228230   4.523   6.484   2.835  0.8547 -0.2754 -1.0230
 9433TIP3   OH228231   1.637   3.545   6.091 -0.1933  0.4514 -0.3061
 9433TIP3    H128232   1.560   3.576   6.139 -0.7437  0.0813 -0.9277
 9433TIP3    H228233   1.678   3.481   6.149  0.2486  1.4354  0.4695
 9434TIP3   OH228234   7.274   7.161   2.578  0.4622  0.1443  0.0908
 9434TIP3    H128235   7.298   7.161   2.485  1.3117 -0.1466  0.3009
 9434TIP3    H228236   7.341   7.108   2.619 -1.0383 -1.3737  0.6047
 9435TIP3   OH228237   3.080   7.499   3.246  0.1313 -0.5206 -0.2352
 9435TIP3    H128238   3.118   7.488   3.333  0.2862 -1.1402 -0.3795
 9435TIP3    H228239   3.151   7.476   3.185  0.1005  0.1482 -0.5290
 9436TIP3   OH228240   1.532   5.827   4.929 -0.0189  0.9434 -0.2086
 9436TIP3    H128241   1.482   5.818   4.848  1.9334  0.7519 -1.4165
 9436TIP3    H228242   1.510   5.914   4.961 -0.8700  0.9852 -0.9001
 9437TIP3   OH228243   1.491   1.197   2.998  0.0000  0.2983 -0.2579
 9437TIP3    H128244   1.512   1.215   2.907  0.3508 -0.2464 -0.2867
 9437TIP3    H228245   1.575   1.173   3.037 -0.0313  1.1499  0.3606
 9438TIP3   OH228246   7.956   3.342   4.422 -0.2059 -0.4908  0.0720
 9438TIP3    H128247   7.873   3.359   4.466 -0.4627 -1.1615 -0.1471
 9438TIP3    H228248   8.016   3.407   4.459 -1.5012  1.8474 -1.8019
 9439TIP3   OH228249   6.011   7.981   2.532  0.3060 -0.1608  0.5078
 9439TIP3    H128250   6.044   7.989   2.621  2.3676 -2.2566 -0.0366
 9439TIP3    H228251   6.078   7.931   2.485 -1.3374 -0.2111 -1.8998
 9440TIP3   OH228252   4.965   7.793   2.575 -0.3304 -0.8742  0.5393
 9440TIP3    H128253   4.950   7.876   2.620  0.7687 -0.3411 -0.0483
 9440TIP3    H228254   4.982   7.730   2.645  0.3932 -0.2628  0.9250
 9441TIP3   OH228255   3.857   7.630   3.311  0.8246  0.5533  0.0601
 9441TIP3    H128256   3.953   7.621   3.306  0.6646 -1.6674  0.3907
 9441TIP3    H228257   3.825   7.540   3.308 -1.2136  1.2234  1.1312
 9442TIP3   OH228258   7.334   0.216   1.030 -0.1501 -0.0484  0.0211
 9442TIP3    H128259   7.382   0.228   1.112  1.7925  0.2491 -1.1234
 9442TIP3    H228260   7.261   0.277   1.037 -1.2568 -1.5628  2.4214
 9443TIP3   OH228261   0.135   0.140   2.398 -0.7664  0.0844 -0.0718
 9443TIP3    H128262   0.210   0.091   2.432  0.2106  1.1375 -0.6568
 9443TIP3    H228263   0.104   0.089   2.323 -0.3396 -0.1081 -0.1162
 9444TIP3   OH228264   5.835   6.633   4.722  0.3760  0.2050 -0.4875
 9444TIP3    H128265   5.921   6.609   4.689 -0.1463  1.9732 -3.2697
 9444TIP3    H228266   5.780   6.556   4.705  1.6742 -1.5667  2.7822
 9445TIP3   OH228267   8.128   2.170   3.675 -0.3433  0.0299 -0.1675
 9445TIP3    H128268   8.066   2.179   3.603 -0.6164 -0.0899  0.0503
 9445TIP3    H228269   8.214   2.183   3.635 -0.5656  1.0917 -0.2993
 9446TIP3   OH228270   7.932   0.134   3.677 -0.5634 -0.1701  0.1057
 9446TIP3    H128271   7.846   0.175   3.692 -0.0518  1.2861 -0.7813
 9446TIP3    H228272   7.918   0.079   3.600 -0.8055 -0.2560  0.2088
 9447TIP3   OH228273   5.021   7.085   6.846  0.3273 -0.4266 -0.2070
 9447TIP3    H128274   5.113   7.070   6.867  1.2254 -1.8192 -4.6412
 9447TIP3    H228275   4.988   6.999   6.818 -2.1262  0.1981  0.6399
 9448TIP3   OH228276   5.001   7.347   4.479 -0.0391 -0.2450 -0.6036
 9448TIP3    H128277   4.948   7.271   4.454  0.9076 -1.0544 -0.2164
 9448TIP3    H228278   5.064   7.311   4.542 -1.6851  1.4974  2.1365
 9449TIP3   OH228279   5.433   7.863   5.386  0.0979 -0.1555 -0.2848
 9449TIP3    H128280   5.435   7.936   5.325  0.8487 -0.1312 -0.2407
 9449TIP3    H228281   5.431   7.785   5.330 -0.7927 -0.1025 -0.3305
 9450TIP3   OH228282   5.291   6.795   5.110  0.3670 -0.1461 -0.5282
 9450TIP3    H128283   5.271   6.844   5.030 -2.2223  1.2903  0.9220
 9450TIP3    H228284   5.284   6.703   5.084  0.2191  0.2967 -2.1200
 9451TIP3   OH228285   8.318   1.258   5.852  0.3260  0.2655  0.4102
 9451TIP3    H128286   8.254   1.214   5.795  1.4644 -1.3194  0.3024
 9451TIP3    H228287   8.350   1.331   5.800 -0.6732  0.4839  0.0849
 9452TIP3   OH228288   4.855   7.896   4.521 -0.2144  0.0182 -0.2314
 9452TIP3    H128289   4.874   7.822   4.464  1.1139  0.6803 -0.6562
 9452TIP3    H228290   4.931   7.903   4.579 -1.5640 -0.6775  1.6717
 9453TIP3   OH228291   3.440   7.067   4.526  0.3321  0.4051 -0.5043
 9453TIP3    H128292   3.484   6.982   4.519 -0.3281  0.0390 -0.3187
 9453TIP3    H228293   3.457   7.111   4.443  1.1238  0.3078 -0.3967
 9454TIP3   OH228294   4.972   6.984   3.578 -0.0443  0.7017  0.1102
 9454TIP3    H128295   5.031   6.908   3.578  0.1528  0.8332  1.8562
 9454TIP3    H228296   4.912   6.967   3.506  0.7606 -0.5217 -0.2994
 9455TIP3   OH228297   6.359   6.413   3.408 -0.5597  0.8463  0.5145
 9455TIP3    H128298   6.314   6.349   3.352 -1.6996 -0.1771  2.4944
 9455TIP3    H228299   6.291   6.477   3.430 -0.2521  1.0051  1.0156
 9456TIP3   OH228300   7.140   0.283   5.618  0.0647 -0.0269 -0.3208
 9456TIP3    H128301   7.166   0.210   5.675 -0.7589 -1.9937 -2.3896
 9456TIP3    H228302   7.073   0.329   5.669 -0.6742 -1.7540  0.3126
 9457TIP3   OH228303   4.425   6.853   4.423 -0.3899  0.6245  0.1419
 9457TIP3    H128304   4.438   6.778   4.480  0.5423  1.1237  0.6014
 9457TIP3    H228305   4.446   6.929   4.478 -1.9518  1.2724 -0.1107
 9458TIP3   OH228306   5.555   7.471   5.679  0.1785 -0.3501  0.2679
 9458TIP3    H128307   5.473   7.508   5.646 -0.1228  0.9971  2.4356
 9458TIP3    H228308   5.554   7.379   5.650 -1.0884  0.2101 -1.5044
 9459TIP3   OH228309   7.096   6.416   3.826 -0.1571 -0.4733  0.3217
 9459TIP3    H128310   7.041   6.488   3.856  0.1291  0.0059 -0.2878
 9459TIP3    H228311   7.068   6.401   3.735  1.3094  0.3474 -0.2734
 9460TIP3   OH228312   6.028   6.797   1.875 -0.0008 -0.2185  0.3562
 9460TIP3    H128313   5.958   6.858   1.899  0.3159 -0.4084  1.8577
 9460TIP3    H228314   6.050   6.820   1.785 -1.1392  0.6715  0.2898
 9461TIP3   OH228315   2.242   0.486   3.107 -0.0914  0.2353  0.1695
 9461TIP3    H128316   2.264   0.553   3.042  0.0340  0.1157  0.0879
 9461TIP3    H228317   2.149   0.470   3.095 -0.7332  2.3370  1.9930
 9462TIP3   OH228318   7.303   7.464   4.171  0.5276  0.1291 -0.5801
 9462TIP3    H128319   7.387   7.455   4.126 -0.7064 -2.0483 -2.5659
 9462TIP3    H228320   7.256   7.532   4.122  1.0063  1.1639  0.3738
 9463TIP3   OH228321   7.845   0.609   2.194 -0.1305  0.3692 -0.0713
 9463TIP3    H128322   7.904   0.552   2.145 -0.0803  0.1761  0.2174
 9463TIP3    H228323   7.800   0.551   2.255 -0.2535  0.5983  0.0570
 9464TIP3   OH228324   8.246   0.192   3.351  0.6640  0.3468  0.2685
 9464TIP3    H128325   8.232   0.275   3.306 -0.9216 -0.4950 -0.8794
 9464TIP3    H228326   8.205   0.127   3.293 -1.8709 -0.7336  3.1211
 9465TIP3   OH228327   4.909   7.319   3.762  0.3411 -0.5958 -0.3923
 9465TIP3    H128328   4.910   7.309   3.857 -1.0082  2.3900 -0.0177
 9465TIP3    H228329   4.829   7.368   3.744  0.7574 -0.8047 -3.0502
 9466TIP3   OH228330   7.928   0.776   3.365 -0.2861  0.5899 -0.3519
 9466TIP3    H128331   7.850   0.814   3.325  0.5868  3.4819  0.5686
 9466TIP3    H228332   7.900   0.749   3.452 -0.6391  0.1918 -0.5904
 9467TIP3   OH228333   6.491   1.606   3.253  0.1500  0.6769  0.4807
 9467TIP3    H128334   6.556   1.669   3.222 -0.4428  0.9335 -0.2595
 9467TIP3    H228335   6.541   1.545   3.308  1.2225  0.3062 -0.8665
 9468TIP3   OH228336   5.321   6.560   2.874  0.1175  0.3817  0.6962
 9468TIP3    H128337   5.346   6.604   2.955 -0.1209  0.1315  0.9074
 9468TIP3    H228338   5.234   6.596   2.853 -0.2288 -0.2335  1.0540
 9469TIP3   OH228339   7.606   6.755   3.452  0.1558 -0.4185  0.0695
 9469TIP3    H128340   7.615   6.722   3.363  2.6736  1.2639 -0.3625
 9469TIP3    H228341   7.566   6.842   3.443  0.0937 -0.3866  0.5902
 9470TIP3   OH228342   8.063   1.102   3.150  0.0040 -0.1894  0.0679
 9470TIP3    H128343   8.101   1.028   3.197  0.6434  0.2711  0.2765
 9470TIP3    H228344   8.097   1.179   3.195  0.1780  0.2461 -0.8134
 9471TIP3   OH228345   6.898   7.144   3.096  0.3710  0.1044  0.2064
 9471TIP3    H128346   6.882   7.219   3.152  2.3637 -0.2363  1.2827
 9471TIP3    H228347   6.937   7.180   3.016 -2.7674  0.6237 -1.1718
 9472TIP3   OH228348   5.515   7.925   3.167 -0.1371  0.0947 -0.0432
 9472TIP3    H128349   5.596   7.970   3.141 -0.5757  0.9404  0.0357
 9472TIP3    H228350   5.445   7.978   3.130 -0.6165 -2.5857 -3.2388
 9473TIP3   OH228351   8.509   0.164   4.372 -0.9327 -0.0381  0.4103
 9473TIP3    H128352   8.455   0.185   4.296  1.2746 -0.7482 -1.4170
 9473TIP3    H228353   8.504   0.069   4.380 -0.3538 -0.0629  0.5168
 9474TIP3   OH228354   6.273   6.959   4.506  0.0316  0.0608 -0.2109
 9474TIP3    H128355   6.304   7.047   4.485  0.1366  0.1358  0.2621
 9474TIP3    H228356   6.312   6.939   4.591  0.1429 -0.5065 -0.3920
 9475TIP3   OH228357   5.862   6.230   6.729  0.2866 -0.2086 -0.5407
 9475TIP3    H128358   5.847   6.162   6.794 -0.6871 -2.1957 -2.7821
 9475TIP3    H228359   5.787   6.289   6.737 -1.4930 -2.2221 -2.0063
 9476TIP3   OH228360   2.803   5.792   0.315  0.3233  0.2809  0.3981
 9476TIP3    H128361   2.748   5.747   0.379  1.3461 -0.7005  0.6082
 9476TIP3    H228362   2.782   5.749   0.232  2.8404 -2.1465  0.9121
 9477TIP3   OH228363   5.033   6.020   4.654  0.2312 -0.5251  0.5120
 9477TIP3    H128364   4.993   5.978   4.730  1.2224  1.3098  2.0671
 9477TIP3    H228365   5.109   5.966   4.635  0.7377 -0.2383  1.6673
 9478TIP3   OH228366   8.221   0.114   4.684 -0.0933 -0.1387 -0.3622
 9478TIP3    H128367   8.221   0.208   4.665  0.2030  0.0691  0.6321
 9478TIP3    H228368   8.170   0.106   4.764  0.0560 -0.8113 -0.3339
 9479TIP3   OH228369   1.919   7.417   5.575 -0.1550  0.4882  0.1514
 9479TIP3    H128370   1.952   7.336   5.538 -1.6058 -0.2985  0.5190
 9479TIP3    H228371   1.980   7.437   5.646  1.5759  1.0262 -1.4506
 9480TIP3   OH228372   4.502   7.620   3.952 -0.2304  0.3609 -0.0256
 9480TIP3    H128373   4.515   7.651   3.862  1.6386 -1.1466 -0.2970
 9480TIP3    H228374   4.543   7.686   4.007 -0.2625  0.6447 -0.3390
 9481TIP3   OH228375   7.926   7.046   3.086  0.2582 -0.0156 -0.2409
 9481TIP3    H128376   7.945   7.132   3.049  0.4293 -0.6477 -1.6878
 9481TIP3    H228377   8.012   7.006   3.099  0.1872  0.1323  0.6532
 9482TIP3   OH228378   4.720   7.296   4.807 -0.2149  0.3051 -0.1810
 9482TIP3    H128379   4.702   7.345   4.726  0.7142 -1.1109 -1.2528
 9482TIP3    H228380   4.649   7.231   4.812 -0.4548  0.5977  0.3245
 9483TIP3   OH228381   3.765   6.000   4.188 -0.5900 -0.1723  0.3265
 9483TIP3    H128382   3.823   6.003   4.112 -0.1927 -2.7718  0.4826
 9483TIP3    H228383   3.799   5.927   4.241 -3.2487 -0.9340  1.0251
 9484TIP3   OH228384   5.107   7.044   2.720  0.4688  0.3526  0.5509
 9484TIP3    H128385   5.186   6.996   2.744  0.4622 -0.8412 -1.7023
 9484TIP3    H228386   5.139   7.128   2.688  1.1696 -1.3711 -3.5863
 9485TIP3   OH228387   5.074   0.346   2.536  0.1976  0.7455 -0.5042
 9485TIP3    H128388   4.992   0.336   2.486  0.1040 -0.6742 -0.0967
 9485TIP3    H228389   5.073   0.437   2.565 -0.9049  0.9378 -1.0819
 9486TIP3   OH228390   4.446   6.746   1.377 -0.5517  0.3822  0.4119
 9486TIP3    H128391   4.511   6.798   1.330 -0.7951 -1.4004 -1.9778
 9486TIP3    H228392   4.498   6.681   1.425 -0.4442  0.5968  0.5887
 9487TIP3   OH228393   7.788   6.363   2.861 -0.5581 -0.1873  0.1958
 9487TIP3    H128394   7.721   6.411   2.812 -0.6810  0.5011  1.0190
 9487TIP3    H228395   7.871   6.394   2.825 -0.6858 -1.3819 -1.1408
 9488TIP3   OH228396   4.719   5.541   1.679  0.5293 -0.2160 -0.0044
 9488TIP3    H128397   4.719   5.447   1.699  0.2980 -0.0986  0.5737
 9488TIP3    H228398   4.678   5.581   1.756  0.9745  0.3926 -0.0853
 9489TIP3   OH228399   6.660   0.067   3.543 -0.5583  0.5885  0.5044
 9489TIP3    H128400   6.675  -0.026   3.524  0.7528  0.0179  4.0310
 9489TIP3    H228401   6.566   0.079   3.527 -1.0585 -1.7243  1.4187
 9490TIP3   OH228402   2.026   7.830   3.168  0.1892  0.0033 -0.5530
 9490TIP3    H128403   2.073   7.797   3.092 -0.1254 -0.2776 -0.6264
 9490TIP3    H228404   2.049   7.923   3.172  1.8541 -0.4166  0.2216
 9491TIP3   OH228405   4.773   6.768   1.806 -0.2831 -0.2179 -0.5021
 9491TIP3    H128406   4.793   6.761   1.712 -3.4964  0.8694 -1.3176
 9491TIP3    H228407   4.831   6.837   1.838 -0.5509  0.7716 -2.1193
 9492TIP3   OH228408   6.545   7.846   2.023 -0.0022 -0.4586  0.9662
 9492TIP3    H128409   6.515   7.928   2.060  2.5206  0.3364  1.3384
 9492TIP3    H228410   6.553   7.863   1.929  0.1439 -0.4072  0.9886
 9493TIP3   OH228411   5.563   7.083   4.166 -0.2855 -0.2175 -0.1924
 9493TIP3    H128412   5.517   7.166   4.175  0.3468  0.0007  1.2219
 9493TIP3    H228413   5.591   7.061   4.255 -2.1726 -2.9493 -0.1886
 9494TIP3   OH228414   5.344   7.332   1.692  0.5481 -0.1708 -0.4417
 9494TIP3    H128415   5.430   7.340   1.650  0.0103  1.6691 -1.2235
 9494TIP3    H228416   5.325   7.420   1.724 -0.3647 -0.9170  1.1117
 9495TIP3   OH228417   3.685   6.428   5.707  0.4733 -0.0186  0.2930
 9495TIP3    H128418   3.743   6.451   5.780 -0.5765 -0.6967  1.3651
 9495TIP3    H228419   3.730   6.357   5.662  0.0716 -1.1612  1.6686
 9496TIP3   OH228420   5.231   7.651   4.124  0.5144 -0.1478 -0.7309
 9496TIP3    H128421   5.272   7.663   4.039 -0.9979  2.1484 -1.1948
 9496TIP3    H228422   5.192   7.564   4.121  2.5159 -1.0410 -1.4640
 9497TIP3   OH228423   1.407   0.035   5.054  0.0390 -0.2563  0.0770
 9497TIP3    H128424   1.353   0.065   5.127 -1.0665 -1.3555 -0.2535
 9497TIP3    H228425   1.428   0.115   5.005  1.3092  0.5591  1.9184
 9498TIP3   OH228426   4.485   6.959   6.311 -0.0719  0.3797 -0.6106
 9498TIP3    H128427   4.443   6.997   6.388  0.5926  0.9701 -0.5262
 9498TIP3    H228428   4.450   7.009   6.237 -0.2758  0.2000 -0.6336
 9499TIP3   OH228429   5.174   7.817   1.911  0.3739  0.0958  0.0482
 9499TIP3    H128430   5.136   7.761   1.978  0.2838 -1.1795 -1.0405
 9499TIP3    H228431   5.101   7.870   1.880 -0.2431 -1.3516 -1.0446
 9500TIP3   OH228432   2.540   1.108   1.538  0.5828 -0.4151  0.2192
 9500TIP3    H128433   2.616   1.094   1.482  0.3059  0.2986 -0.3383
 9500TIP3    H228434   2.542   1.202   1.558  1.6535 -0.9412  2.8080
 9501TIP3   OH228435   8.198   7.919   2.663 -0.0771  0.6869 -0.0299
 9501TIP3    H128436   8.179   7.905   2.756 -2.2380 -0.8475 -0.6531
 9501TIP3    H228437   8.163   7.842   2.619  2.3550  0.6347 -1.9870
 9502TIP3   OH228438   5.206   5.704   2.808  0.3330 -0.0306  0.2719
 9502TIP3    H128439   5.209   5.698   2.903  2.8805 -0.6942  0.1968
 9502TIP3    H228440   5.192   5.614   2.779 -0.7195  0.2126  0.0224
 9503TIP3   OH228441   1.346   0.882   1.075  0.2625  0.0884  0.6887
 9503TIP3    H128442   1.430   0.905   1.036  0.3184  0.4360  1.0146
 9503TIP3    H228443   1.293   0.852   1.001  0.1717  1.2999  0.2478
 9504TIP3   OH228444   6.824   6.722   4.156 -0.3721 -0.1507  0.1039
 9504TIP3    H128445   6.730   6.724   4.173 -0.1223 -0.2931  1.5327
 9504TIP3    H228446   6.845   6.810   4.124 -0.9290 -0.0376  0.0479
 9505TIP3   OH228447   5.443   2.326   2.595  0.2901 -0.7333 -0.4156
 9505TIP3    H128448   5.529   2.290   2.573  0.1746 -2.8381  2.4010
 9505TIP3    H228449   5.460   2.388   2.666 -0.5534 -1.4761  0.4507
 9506TIP3   OH228450   1.673   0.326   3.759  0.0048 -0.2023 -0.1537
 9506TIP3    H128451   1.599   0.291   3.709 -0.5189  1.4866 -0.5947
 9506TIP3    H228452   1.695   0.408   3.715  0.6797  0.4342  1.3495
 9507TIP3   OH228453   5.571   7.585   4.471  0.3514 -0.0477  0.1381
 9507TIP3    H128454   5.649   7.569   4.418  1.0207  0.4911  0.9298
 9507TIP3    H228455   5.502   7.534   4.429  0.7973  0.5906 -1.3881
 9508TIP3   OH228456   1.862   0.825   1.786 -0.0102 -0.4215 -0.3838
 9508TIP3    H128457   1.846   0.919   1.791 -1.3760 -0.7270  1.5491
 9508TIP3    H228458   1.776   0.787   1.765  0.2308 -1.3293  0.2303
 9509TIP3   OH228459   1.415   1.134   4.839  0.5404 -0.1575 -0.3803
 9509TIP3    H128460   1.479   1.205   4.832  1.9712 -1.3278  0.6116
 9509TIP3    H228461   1.418   1.092   4.753 -1.0077  1.5181 -1.3037
 9510TIP3   OH228462   5.165   6.436   4.892  0.1609  0.5407 -0.2814
 9510TIP3    H128463   5.143   6.343   4.888  0.3064  0.4465  0.9259
 9510TIP3    H228464   5.261   6.437   4.893  0.2274  0.8514 -3.3341
 9511TIP3   OH228465   6.514   5.915   4.936 -0.1315 -0.0470  0.3082
 9511TIP3    H128466   6.521   5.916   5.031 -0.2662  0.1161  0.3180
 9511TIP3    H228467   6.421   5.905   4.918  0.0974 -2.0737  0.1787
 9512TIP3   OH228468   5.614   7.958   3.748 -0.8086  0.4604  0.0528
 9512TIP3    H128469   5.694   8.008   3.764 -0.3190 -0.0767 -0.7032
 9512TIP3    H228470   5.602   7.963   3.653 -0.0568 -1.9509 -0.1801
 9513TIP3   OH228471   6.582   7.768   4.431 -0.3286 -0.1957 -0.0004
 9513TIP3    H128472   6.626   7.714   4.365  0.0681 -0.4148  0.4402
 9513TIP3    H228473   6.490   7.767   4.406 -0.6022 -2.5626  1.0411
 9514TIP3   OH228474   7.753   7.214   4.452 -0.3139 -0.1038  0.4339
 9514TIP3    H128475   7.712   7.157   4.518 -0.4834  1.1044  1.3950
 9514TIP3    H228476   7.799   7.281   4.503  1.7139 -0.6180 -0.6460
 9515TIP3   OH228477   1.546  -0.009   3.474 -0.3159  0.4437  0.4316
 9515TIP3    H128478   1.564   0.029   3.560  1.2419  1.8254 -0.4911
 9515TIP3    H228479   1.587   0.050   3.412 -1.2286 -0.6711 -1.2727
 9516TIP3   OH228480   4.951   7.780   5.061 -0.5578 -0.4006  0.4151
 9516TIP3    H128481   5.032   7.770   5.010 -1.7589 -0.6236 -1.5108
 9516TIP3    H228482   4.882   7.749   5.002 -2.3768  2.5160  0.8994
 9517TIP3   OH228483   0.639   0.011   2.311  0.5277 -0.3973 -0.9317
 9517TIP3    H128484   0.629  -0.074   2.352  1.1936 -0.3082 -0.5783
 9517TIP3    H228485   0.618   0.074   2.380  2.0413 -0.2383 -0.5902
 9518TIP3   OH228486   7.468   7.298   3.547 -0.1623 -0.2030 -0.1001
 9518TIP3    H128487   7.423   7.234   3.492  0.3881 -0.3470 -0.3950
 9518TIP3    H228488   7.561   7.288   3.524 -0.2793  2.2413 -1.7676
 9519TIP3   OH228489   5.347   5.693   0.521 -0.1161 -0.3666  0.0897
 9519TIP3    H128490   5.281   5.707   0.453  1.1784 -0.6221 -1.2573
 9519TIP3    H228491   5.299   5.701   0.604 -1.9439 -1.2048 -0.8635
 9520TIP3   OH228492   7.230   7.335   0.155  0.5207 -0.3020  0.0227
 9520TIP3    H128493   7.151   7.294   0.189  0.6528 -0.4286  0.1748
 9520TIP3    H228494   7.199   7.392   0.084  0.5552 -2.1627 -1.5272
 9521TIP3   OH228495   8.175   6.445   2.801 -0.1756  0.0242 -0.5065
 9521TIP3    H128496   8.235   6.428   2.728 -0.9619  0.0901 -1.1749
 9521TIP3    H228497   8.088   6.446   2.761 -0.4333  2.4754  0.0299
 9522TIP3   OH228498   6.828   6.629   5.865 -0.1326  0.2132  0.2747
 9522TIP3    H128499   6.795   6.583   5.942  0.8797  0.9095  1.1221
 9522TIP3    H228500   6.892   6.691   5.899  0.2305  0.6114 -1.1108
 9523TIP3   OH228501   0.919   1.864   3.428  0.0876  0.2728  0.7051
 9523TIP3    H128502   0.842   1.834   3.380  0.9705  0.1414 -0.6438
 9523TIP3    H228503   0.927   1.802   3.501 -0.2811 -0.5353  0.0672
 9524TIP3   OH228504   5.540   7.363   3.514  0.3874 -0.3955 -0.5393
 9524TIP3    H128505   5.541   7.312   3.595  0.0781 -1.9001 -1.4653
 9524TIP3    H228506   5.448   7.368   3.490  0.4753  0.0774 -0.7862
 9525TIP3   OH228507   7.171   6.719   3.309  0.0748 -0.5771  0.5260
 9525TIP3    H128508   7.154   6.696   3.218 -0.4450 -0.5211  0.6063
 9525TIP3    H228509   7.134   6.807   3.319 -2.0407 -1.5119  1.4069
 9526TIP3   OH228510   5.226   6.643   3.903  0.0620 -0.3466 -0.9528
 9526TIP3    H128511   5.153   6.600   3.859  0.4452 -0.9131 -1.0375
 9526TIP3    H228512   5.298   6.641   3.840  0.8457 -1.8659 -0.0254
 9527TIP3   OH228513   7.379   6.426   3.040  0.3843  0.0783 -0.2823
 9527TIP3    H128514   7.301   6.374   3.021  0.3145 -0.0971  0.4737
 9527TIP3    H228515   7.452   6.370   3.013  0.2057  0.7999 -2.3004
 9528TIP3   OH228516   0.382   2.571   3.419 -0.8275 -0.0653  0.2458
 9528TIP3    H128517   0.290   2.595   3.408 -0.6235  0.3005 -0.6921
 9528TIP3    H228518   0.400   2.510   3.347 -0.8326 -1.5997  1.5196
 9529TIP3   OH228519   6.954   6.741   2.491  0.1260 -0.1812  0.6405
 9529TIP3    H128520   6.860   6.722   2.479  0.1714  0.6947 -1.4435
 9529TIP3    H228521   6.995   6.655   2.497 -0.5046 -0.6572 -1.2958
 9530TIP3   OH228522   7.654   5.595   2.014  0.3712 -0.3354 -0.4870
 9530TIP3    H128523   7.743   5.567   2.035  0.3050 -0.6982 -0.6776
 9530TIP3    H228524   7.604   5.513   2.006 -0.3154 -0.0868  1.0803
 9531TIP3   OH228525   1.031   0.099   2.674 -0.2355  0.2900  0.6795
 9531TIP3    H128526   1.094   0.169   2.686 -0.5140  0.8520 -1.0419
 9531TIP3    H228527   1.058   0.056   2.593 -1.6642  0.1026  0.2988
 9532TIP3   OH228528   0.145   1.615   5.285 -0.2080  0.3179 -0.3151
 9532TIP3    H128529   0.060   1.582   5.257 -0.2323  0.4682 -0.4160
 9532TIP3    H228530   0.157   1.697   5.237  0.5597 -0.3408 -1.2776
 9533TIP3   OH228531   2.414   1.919   2.767 -0.4160 -0.4732 -0.6800
 9533TIP3    H128532   2.458   1.834   2.767  0.3149 -0.1111  0.6342
 9533TIP3    H228533   2.354   1.915   2.693 -0.2985 -2.0880 -0.7082
 9534TIP3   OH228534   0.066   1.503   4.987  0.3119 -0.6731 -0.3170
 9534TIP3    H128535   0.030   1.417   4.966  1.1118 -0.5281 -2.3799
 9534TIP3    H228536   0.143   1.484   5.042 -0.0777 -1.2171  0.0444
 9535TIP3   OH228537   7.088   6.869   4.018 -0.4374  0.2216  0.1503
 9535TIP3    H128538   7.054   6.948   3.976 -2.5787 -0.3215  0.8132
 9535TIP3    H228539   7.164   6.899   4.069 -0.2165  1.5394 -0.9386
 9536TIP3   OH228540   8.364   6.360   2.581  0.0410 -0.0399  0.1704
 9536TIP3    H128541   8.375   6.265   2.581  2.4479  0.2031  0.1459
 9536TIP3    H228542   8.436   6.393   2.526 -0.8508  1.7878  0.0401
 9537TIP3   OH228543   5.119   7.792   2.341 -0.0460 -0.2651 -0.3023
 9537TIP3    H128544   5.136   7.879   2.377 -1.2071  0.1514 -0.7407
 9537TIP3    H228545   5.066   7.748   2.406  0.7005 -0.7166  0.0028
 9538TIP3   OH228546   5.552   7.655   4.116  0.1734  0.2991  0.3162
 9538TIP3    H128547   5.622   7.619   4.062  1.8907  3.1447  0.5517
 9538TIP3    H228548   5.493   7.698   4.055  1.4828  2.4788  0.5318
 9539TIP3   OH228549   0.109   2.986   6.302  0.0729  0.5917 -0.5796
 9539TIP3    H128550   0.048   2.944   6.242  0.4787  1.7850 -1.8474
 9539TIP3    H228551   0.085   2.952   6.389  0.5297 -2.3919 -1.5758
 9540TIP3   OH228552   7.735   1.065   3.706 -0.0881  0.2525  0.0386
 9540TIP3    H128553   7.801   1.094   3.643 -0.9069  0.4047 -0.7635
 9540TIP3    H228554   7.783   1.011   3.768  0.5590 -0.7511 -1.3133
 9541TIP3   OH228555   6.582   6.307   2.902 -0.2642  0.2192  0.5860
 9541TIP3    H128556   6.581   6.219   2.865  1.7600  0.1613  0.6435
 9541TIP3    H228557   6.557   6.364   2.830  0.3795 -0.2166  0.0104
 9542TIP3   OH228558   6.389   6.165   1.848  0.6805  0.5566 -0.6569
 9542TIP3    H128559   6.364   6.153   1.940  1.5975 -0.6182 -0.5488
 9542TIP3    H228560   6.484   6.155   1.847  0.7037  0.8591 -1.6870
 9543TIP3   OH228561   5.285   6.498   3.541 -0.6067 -0.4189  0.2574
 9543TIP3    H128562   5.355   6.527   3.600 -1.8095  1.0456  0.9934
 9543TIP3    H228563   5.278   6.568   3.476 -1.4073 -0.5557  0.1934
 9544TIP3   OH228564   5.111   7.550   1.539 -0.6918  0.0096 -0.1312
 9544TIP3    H128565   5.193   7.575   1.580 -1.1229  0.6529  0.3482
 9544TIP3    H228566   5.086   7.468   1.581 -0.8912  0.4244  0.5738
 9545TIP3   OH228567   6.816   7.307   4.432 -0.2277  0.0746 -0.1277
 9545TIP3    H128568   6.860   7.390   4.417 -0.8455 -0.0215 -2.6088
 9545TIP3    H228569   6.859   7.245   4.373 -1.1760 -0.8831  0.1691
 9546TIP3   OH228570   7.263   5.257   2.916 -0.1977 -0.4685  0.3666
 9546TIP3    H128571   7.253   5.303   2.833  1.2505 -1.2791 -0.2632
 9546TIP3    H228572   7.176   5.263   2.957 -0.7520  0.4580 -0.9162
 9547TIP3   OH228573   6.196   6.251   0.530 -0.5097  0.1674 -0.4176
 9547TIP3    H128574   6.285   6.271   0.559 -0.2402 -0.0023 -1.1238
 9547TIP3    H228575   6.184   6.303   0.451 -0.4965 -0.9443 -1.1714
 9548TIP3   OH228576   7.600   6.847   1.844  0.1407  0.1049 -0.3339
 9548TIP3    H128577   7.643   6.765   1.867  0.4322  0.3661  0.0630
 9548TIP3    H228578   7.665   6.894   1.791  0.5125  0.6730  0.6030
 9549TIP3   OH228579   5.020   6.606   5.813  0.0431  0.1779  0.2432
 9549TIP3    H128580   5.091   6.661   5.843  0.3193  0.7026 -1.3117
 9549TIP3    H228581   4.962   6.665   5.765  0.0336 -0.7604 -0.9311
 9550TIP3   OH228582   1.279   1.829   3.510 -0.3361  0.2411 -0.2715
 9550TIP3    H128583   1.321   1.915   3.513  0.6664 -0.2823  1.1145
 9550TIP3    H228584   1.195   1.842   3.553 -1.0712  0.9817 -1.8724
 9551TIP3   OH228585   6.695   5.810   0.774 -0.1887 -0.0988 -0.2897
 9551TIP3    H128586   6.694   5.774   0.863 -0.4178 -1.8783 -0.9862
 9551TIP3    H228587   6.773   5.865   0.772  0.7233 -1.3293  0.5316
 9552TIP3   OH228588   4.615   4.469   2.079 -0.6798  0.6272 -0.6589
 9552TIP3    H128589   4.543   4.470   2.143 -0.5834 -2.2562 -0.4544
 9552TIP3    H228590   4.571   4.450   1.996 -0.4743  1.6523 -1.0028
 9553TIP3   OH228591   5.310   6.086   1.698 -0.1649 -0.3769  0.5708
 9553TIP3    H128592   5.346   6.105   1.785  1.3212  1.3431 -0.3807
 9553TIP3    H228593   5.386   6.062   1.645 -0.8875 -0.1630 -0.5741
 9554TIP3   OH228594   3.757   6.368   1.204  0.3148 -0.2691  0.0209
 9554TIP3    H128595   3.842   6.328   1.226  0.8052  0.7071 -0.0943
 9554TIP3    H228596   3.714   6.381   1.289  0.4238 -0.4413  0.1036
 9555TIP3   OH228597   5.950   7.889   0.070  0.2691 -0.9296  0.6406
 9555TIP3    H128598   5.892   7.813   0.069 -0.2628 -0.5234  0.9487
 9555TIP3    H228599   5.995   7.885   0.154  0.0384 -0.7443  0.7713
 9556TIP3   OH228600   6.709   6.461   5.688 -0.3216  0.1401 -0.1311
 9556TIP3    H128601   6.739   6.381   5.730 -1.9008 -0.0984  0.5794
 9556TIP3    H228602   6.742   6.532   5.743  0.9696 -0.0070 -0.6920
 9557TIP3   OH228603   2.657   2.926   0.225  0.0609 -0.1158 -0.3795
 9557TIP3    H128604   2.731   2.883   0.182  0.4835  0.7717 -0.5486
 9557TIP3    H228605   2.660   2.895   0.315  0.4267 -0.3473 -0.4689
 9558TIP3   OH228606   1.174   0.993   5.797 -0.4528 -0.0446  0.1715
 9558TIP3    H128607   1.091   0.995   5.749  0.2759 -0.4999 -1.1351
 9558TIP3    H228608   1.222   0.920   5.759  0.6220  0.3309  0.7825
 9559TIP3   OH228609   1.553   1.479   5.904  0.4253  0.0873  0.1187
 9559TIP3    H128610   1.604   1.400   5.917 -1.4412 -1.0840  0.5113
 9559TIP3    H228611   1.504   1.464   5.823  0.6643  1.1765 -0.2448
 9560TIP3   OH228612   5.987   4.718   0.854  0.1895  0.1166 -0.3571
 9560TIP3    H128613   5.960   4.765   0.932  0.8209 -0.0693 -0.0179
 9560TIP3    H228614   6.033   4.783   0.801  3.7830 -0.7732  1.5063
 9561TIP3   OH228615   4.156   4.368   0.203 -0.4792 -0.4771 -0.2023
 9561TIP3    H128616   4.086   4.340   0.261  0.9141 -1.7000  0.9430
 9561TIP3    H228617   4.236   4.350   0.252  0.6493  0.7636 -1.5327
 9562TIP3   OH228618   6.831   7.596   5.000 -0.0036  0.3622  0.0853
 9562TIP3    H128619   6.917   7.569   4.968 -0.3678 -0.7720  0.0209
 9562TIP3    H228620   6.835   7.691   5.005  0.7822  0.4087 -1.2715
 9563TIP3   OH228621   1.031   4.902   4.990 -0.2915  0.1392 -0.0399
 9563TIP3    H128622   0.958   4.843   4.969  0.3862 -0.4258 -0.8371
 9563TIP3    H228623   1.078   4.858   5.061  0.5368 -0.5697 -1.0093
 9564TIP3   OH228624   3.921   5.267   0.136 -0.3161  0.5239  0.0554
 9564TIP3    H128625   3.900   5.286   0.227 -2.3724  1.4962 -0.5837
 9564TIP3    H228626   3.837   5.274   0.090  1.0873  2.5934 -2.3363
 9565TIP3   OH228627   3.599   3.781   0.813 -0.0649  0.4007 -0.1819
 9565TIP3    H128628   3.666   3.721   0.847  0.0507  0.0077 -1.1049
 9565TIP3    H228629   3.645   3.833   0.748 -0.9136 -0.6039 -1.6018
 9566TIP3   OH228630   3.298   3.305   6.191  0.1352 -0.3584  0.5800
 9566TIP3    H128631   3.375   3.294   6.136 -0.4716 -0.6207 -0.2233
 9566TIP3    H228632   3.256   3.219   6.192 -0.2213 -0.1827  0.8941
 9567TIP3   OH228633   5.217   6.209   1.103  0.4594  0.0556  0.2145
 9567TIP3    H128634   5.130   6.249   1.107 -0.0945 -1.0914 -0.1018
 9567TIP3    H228635   5.237   6.204   1.009  0.6131 -0.2486  0.2650
 9568TIP3   OH228636   4.284   6.375   0.101  0.2159  0.6465 -0.1280
 9568TIP3    H128637   4.200   6.362   0.145  0.2310 -0.2148 -0.3440
 9568TIP3    H228638   4.337   6.421   0.165 -0.1557  0.4724  0.3114
 9569TIP3   OH228639   3.990   4.284   0.877 -0.0066 -0.0094 -0.3337
 9569TIP3    H128640   3.995   4.198   0.918  0.6355 -0.4297 -1.2703
 9569TIP3    H228641   3.901   4.315   0.895  0.0031 -0.5486  0.6321
 9570TIP3   OH228642   3.849   3.723   0.902  0.1736 -0.0880 -0.0693
 9570TIP3    H128643   3.867   3.681   0.986  1.1605 -1.4565 -0.9248
 9570TIP3    H228644   3.917   3.791   0.894 -0.0467  0.1783  0.3309
 9571TIP3   OH228645   1.404   2.628   6.454 -0.2025  0.0912 -0.2789
 9571TIP3    H128646   1.428   2.677   6.375 -0.9283  0.0782 -0.5185
 9571TIP3    H228647   1.318   2.591   6.434  0.6674 -1.9270 -0.3758
 9572TIP3   OH228648   2.710   3.378   0.276  0.2141  0.1228  0.4085
 9572TIP3    H128649   2.616   3.361   0.281 -0.0756  0.8515 -1.9924
 9572TIP3    H228650   2.717   3.474   0.281  0.8718  0.0511  0.9176
 9573TIP3   OH228651   3.698   1.491   2.314  0.5757  0.1379  0.3216
 9573TIP3    H128652   3.766   1.443   2.267  1.1982  0.8308  0.5032
 9573TIP3    H228653   3.729   1.492   2.405  0.2725  0.3712  0.4205
 9574TIP3   OH228654   6.300   5.354   0.468  0.2024  0.4696 -0.0019
 9574TIP3    H128655   6.383   5.333   0.426 -0.4721  0.9675 -1.6044
 9574TIP3    H228656   6.321   5.427   0.527  0.7129  1.2550 -1.1382
 9575TIP3   OH228657   3.587   7.281   1.107  0.3112 -0.5243 -0.3710
 9575TIP3    H128658   3.509   7.337   1.101 -0.4217 -1.5572 -0.6596
 9575TIP3    H228659   3.604   7.255   1.017  0.1061 -1.4919 -0.1296
 9576TIP3   OH228660   3.246   1.006   5.653 -0.2885  0.3189 -0.3744
 9576TIP3    H128661   3.323   1.061   5.670 -0.6573  0.5347  0.6728
 9576TIP3    H228662   3.280   0.917   5.650 -0.3729  0.1048  3.1073
 9577TIP3   OH228663   3.863   3.437   0.122  0.1093  0.1629 -0.7154
 9577TIP3    H128664   3.816   3.356   0.101 -1.4007  0.4514  1.3805
 9577TIP3    H228665   3.833   3.500   0.056 -1.7988  0.0781  0.0332
 9578TIP3   OH228666   4.029   3.961   0.750  0.9016 -0.2469  0.0828
 9578TIP3    H128667   4.092   4.033   0.745  0.8832 -0.3856 -2.4715
 9578TIP3    H228668   4.081   3.887   0.781  1.2654  0.4547  1.1843
 9579TIP3   OH228669   1.900   1.256   5.898  0.2600 -0.3056  0.4293
 9579TIP3    H128670   1.967   1.317   5.868  0.4676  0.0236  1.5534
 9579TIP3    H228671   1.948   1.180   5.930  0.0556 -0.4561  0.3830
 9580TIP3   OH228672   4.382   1.823   2.331 -0.6529  0.4439 -0.1213
 9580TIP3    H128673   4.296   1.815   2.372 -0.4253  1.7540  0.6624
 9580TIP3    H228674   4.444   1.802   2.401 -0.2541  2.8290  0.3068
 9581TIP3   OH228675   6.362   3.349   0.552 -0.3015 -0.4898  0.3916
 9581TIP3    H128676   6.372   3.271   0.608 -0.6329 -0.2737  0.7595
 9581TIP3    H228677   6.354   3.421   0.614  1.2466 -0.0026  0.0297
 9582TIP3   OH228678   5.930   5.606   1.612  0.6226 -0.0423 -0.0629
 9582TIP3    H128679   5.956   5.591   1.703  2.3242 -1.3183 -0.7409
 9582TIP3    H228680   5.976   5.686   1.586  0.6126 -0.0121  0.0129
 9583TIP3   OH228681   6.091   3.958   0.387  0.0755 -0.1408  0.2506
 9583TIP3    H128682   6.125   3.869   0.398  0.4612  0.1263  1.2911
 9583TIP3    H228683   6.115   4.003   0.468 -2.1820  0.2586  0.7394
 9584TIP3   OH228684   6.112   1.760   1.693  0.1602  0.1466  0.4204
 9584TIP3    H128685   6.186   1.708   1.726 -0.0347  0.1012  0.7839
 9584TIP3    H228686   6.094   1.723   1.606  3.1282  2.7033 -1.3820
 9585TIP3   OH228687   6.320   2.783   0.036  0.3230  0.1842  0.2898
 9585TIP3    H128688   6.332   2.831   0.118 -2.3233  1.0758  0.2080
 9585TIP3    H228689   6.316   2.691   0.061  1.1731  0.3198  0.9432
 9586TIP3   OH228690   3.763   1.082   6.195  0.4108 -0.3151  0.5516
 9586TIP3    H128691   3.798   1.084   6.106 -0.2226 -2.6279  0.2186
 9586TIP3    H228692   3.827   1.032   6.246 -0.2242 -0.7573  0.9303
 9587TIP3   OH228693   3.588   4.389   1.964  0.0410 -0.1276  0.5266
 9587TIP3    H128694   3.560   4.469   2.009  1.5868  1.8221 -1.8722
 9587TIP3    H228695   3.611   4.329   2.035  1.0864  2.3621  2.3808
 9588TIP3   OH228696   5.705   5.333   0.128 -0.5942  0.3106  0.2080
 9588TIP3    H128697   5.640   5.401   0.143 -2.3375 -1.7458  2.1406
 9588TIP3    H228698   5.755   5.329   0.209  0.2924  0.0865 -0.3419
 9589TIP3   OH228699   3.277   1.249   6.351  0.1331  0.4452 -0.0399
 9589TIP3    H128700   3.362   1.230   6.311  0.0827 -0.5260  0.2962
 9589TIP3    H228701   3.224   1.172   6.333 -1.5034  2.0569 -2.4109
 9590TIP3   OH228702   5.674   3.407   1.811 -0.4253  0.8193  0.4036
 9590TIP3    H128703   5.711   3.352   1.743 -1.6273  0.2674  0.1803
 9590TIP3    H228704   5.750   3.450   1.851  0.5532 -1.1204  0.6993
 9591TIP3   OH228705   6.945   5.038   0.250  0.3768  0.1138 -0.3538
 9591TIP3    H128706   7.014   5.045   0.183  0.2133  0.8146 -0.4535
 9591TIP3    H228707   6.992   5.027   0.332  0.6186  0.6075 -0.4202
 9592TIP3   OH228708   4.246   1.559   5.927  0.1407 -0.0180  0.4482
 9592TIP3    H128709   4.295   1.547   5.845 -0.6077  0.8066 -0.1303
 9592TIP3    H228710   4.297   1.623   5.977  0.8317 -0.8547  0.8247
 9593TIP3   OH228711   5.288   4.195   1.379 -0.0790  0.0288  0.0897
 9593TIP3    H128712   5.381   4.173   1.367 -0.2766 -0.4134 -0.6669
 9593TIP3    H228713   5.287   4.252   1.455  0.7726 -0.3064  0.3620
 9594TIP3   OH228714   5.470   1.855   4.674  0.0743 -0.1167  0.1244
 9594TIP3    H128715   5.456   1.897   4.759 -0.2028 -0.5494  0.2949
 9594TIP3    H228716   5.541   1.905   4.633  0.2819  0.0240  0.6572
 9595TIP3   OH228717   8.285   4.492   1.211  0.7107  0.5067 -0.2360
 9595TIP3    H128718   8.334   4.543   1.147  0.1456  0.9225 -0.3432
 9595TIP3    H228719   8.251   4.557   1.272 -1.3081  0.4326 -1.2418
 9596TIP3   OH228720   8.342   6.153   4.754  0.0091  0.4703  0.1587
 9596TIP3    H128721   8.287   6.082   4.720 -1.5750 -0.0559  3.6286
 9596TIP3    H228722   8.316   6.230   4.703 -2.5779 -0.1995  0.4108
 9597TIP3   OH228723   4.797   4.809   0.943  0.0884  0.0464 -0.1631
 9597TIP3    H128724   4.758   4.802   1.030 -0.3055 -1.2732 -0.4269
 9597TIP3    H228725   4.881   4.852   0.958 -0.7585  1.4597  0.6244
 9598TIP3   OH228726   6.930   4.390   1.276 -0.1626 -0.0342  0.1640
 9598TIP3    H128727   6.980   4.408   1.197 -0.4672  0.6684  0.1296
 9598TIP3    H228728   6.880   4.311   1.255  0.7898 -0.6370  0.1395
 9599TIP3   OH228729   2.417   2.173   6.225  0.4713 -0.5446  0.6092
 9599TIP3    H128730   2.484   2.226   6.183  1.3624 -0.2455  2.3654
 9599TIP3    H228731   2.371   2.131   6.153 -1.5163  4.0276 -0.9817
 9600TIP3   OH228732   0.205   6.237   6.616  0.1220 -0.4658  0.1939
 9600TIP3    H128733   0.192   6.329   6.596  3.5734 -0.0641 -0.4321
 9600TIP3    H228734   0.228   6.197   6.532  1.0027 -1.4261  0.8769
 9601TIP3   OH228735   3.531   1.441   6.914 -0.1400 -0.7343 -0.7077
 9601TIP3    H128736   3.534   1.345   6.917 -0.8157 -0.7321  0.3912
 9601TIP3    H228737   3.481   1.462   6.836  1.1476 -1.2514 -1.6912
 9602TIP3   OH228738   8.341   6.789   3.864  0.5320  0.1385 -0.4816
 9602TIP3    H128739   8.419   6.806   3.916  0.4608  0.2483 -0.4110
 9602TIP3    H228740   8.327   6.869   3.813  1.7938 -0.7151 -2.2190
 9603TIP3   OH228741   2.453   2.645   6.669  0.0619  0.0941 -0.6643
 9603TIP3    H128742   2.378   2.609   6.621  0.1496  0.3244 -0.9783
 9603TIP3    H228743   2.481   2.574   6.726 -1.4775  0.5812  0.7345
 9604TIP3   OH228744   5.529   5.138  -0.017 -0.3193  0.1623 -0.4897
 9604TIP3    H128745   5.465   5.110   0.048 -0.1420 -0.0816 -0.4217
 9604TIP3    H228746   5.589   5.195   0.031  0.0412 -0.3305 -0.3457
 9605TIP3   OH228747   0.319   3.271   1.127 -0.8504  0.0912  0.1360
 9605TIP3    H128748   0.388   3.301   1.069 -1.6119  0.6933 -0.4577
 9605TIP3    H228749   0.267   3.211   1.074  0.1943 -1.7083  1.0748
 9606TIP3   OH228750   5.850   1.370   6.649  0.0040 -0.4115  0.0662
 9606TIP3    H128751   5.760   1.336   6.647  0.1033 -0.7010  0.4709
 9606TIP3    H228752   5.845   1.448   6.704 -0.2575  0.3347 -0.9968
 9607TIP3   OH228753   3.165   7.686   4.297 -0.8546 -0.2835 -0.3119
 9607TIP3    H128754   3.074   7.660   4.305 -1.2259  0.4453 -1.9746
 9607TIP3    H228755   3.180   7.745   4.371 -0.7398 -3.0458  1.9320
 9608TIP3   OH228756   3.113   1.094   4.556  0.0221 -0.0579  0.1982
 9608TIP3    H128757   3.159   1.011   4.545 -0.6844 -0.2145 -1.9377
 9608TIP3    H228758   3.023   1.070   4.574 -0.0485  0.2327  0.2387
 9609TIP3   OH228759   5.732   5.794   0.591  0.2334  0.1386  0.0475
 9609TIP3    H128760   5.674   5.797   0.667  0.6861  2.7657  0.3269
 9609TIP3    H228761   5.802   5.733   0.616 -0.4122 -0.1412  1.1643
 9610TIP3   OH228762   5.744   0.354   6.341 -0.2377 -0.1617  0.2059
 9610TIP3    H128763   5.720   0.375   6.251 -2.8100 -0.5543  0.7698
 9610TIP3    H228764   5.736   0.437   6.388 -0.0348 -0.2028  0.3157
 9611TIP3   OH228765   0.996   7.918   6.456 -0.5585  0.3361  0.2368
 9611TIP3    H128766   0.933   7.883   6.519  1.7067 -0.6532  2.0044
 9611TIP3    H228767   1.049   7.979   6.507  1.5125 -0.7205 -0.6095
 9612TIP3   OH228768   3.373   1.787   5.575  0.0308  0.3461 -0.3663
 9612TIP3    H128769   3.309   1.854   5.549 -0.7297 -0.7174 -1.2578
 9612TIP3    H228770   3.456   1.818   5.537  0.3467  2.3897  1.8689
 9613TIP3   OH228771   3.428   0.811   6.348  0.4119  0.7661 -0.3273
 9613TIP3    H128772   3.483   0.817   6.270 -0.3426 -1.9406 -1.1412
 9613TIP3    H228773   3.488   0.788   6.418  1.0248  2.7616 -0.1647
 9614TIP3   OH228774   5.982   3.904   0.908  0.5787  0.6443 -0.0766
 9614TIP3    H128775   6.012   3.952   0.831  0.2786 -0.0039 -0.5987
 9614TIP3    H228776   6.044   3.832   0.918 -0.6151 -0.5292 -0.9854
 9615TIP3   OH228777   5.515   7.437   2.492  0.2179  0.1117 -0.1829
 9615TIP3    H128778   5.498   7.531   2.481 -1.6737 -0.1981  0.0085
 9615TIP3    H228779   5.472   7.396   2.417  1.4025 -0.5745 -0.4956
 9616TIP3   OH228780   2.801   3.721   6.896 -0.0313  0.7656 -0.2256
 9616TIP3    H128781   2.713   3.698   6.924  0.0577  0.2327 -0.3797
 9616TIP3    H228782   2.795   3.729   6.801  0.1709  0.3461 -0.2764
 9617TIP3   OH228783   2.360   7.020   3.633 -0.5860 -0.3500  0.7709
 9617TIP3    H128784   2.347   6.959   3.561 -0.4703 -0.1778  0.6043
 9617TIP3    H228785   2.393   6.965   3.705  2.3842 -0.0536 -0.2717
 9618TIP3   OH228786   2.957   1.634   6.264 -0.3386 -0.2043  0.3997
 9618TIP3    H128787   2.865   1.610   6.277  0.3487 -2.0966  2.0852
 9618TIP3    H228788   2.975   1.611   6.173 -1.1598 -1.1305  0.4590
 9619TIP3   OH228789   8.272   6.037   1.513  0.5868  0.3545  0.6671
 9619TIP3    H128790   8.235   6.123   1.533 -0.2626 -0.3664  2.2173
 9619TIP3    H228791   8.257   5.984   1.592  1.6438 -1.0459 -0.0324
 9620TIP3   OH228792   2.286   1.884   6.338  0.3804 -0.4475 -0.3500
 9620TIP3    H128793   2.272   1.917   6.249  0.2478 -0.0301 -0.1733
 9620TIP3    H228794   2.300   1.962   6.391  1.1405 -0.7352 -0.1217
 9621TIP3   OH228795   4.202   2.493   4.884 -0.3389 -0.5567  0.3009
 9621TIP3    H128796   4.121   2.489   4.935 -2.5531  4.1067 -2.5386
 9621TIP3    H228797   4.179   2.456   4.799  0.7290  0.0619 -0.2715
 9622TIP3   OH228798   3.310   0.721   5.616  0.2720  0.4253  0.6266
 9622TIP3    H128799   3.334   0.685   5.531  0.6463 -0.5069  1.1258
 9622TIP3    H228800   3.375   0.685   5.676 -0.7182  0.1219  1.5072
 9623TIP3   OH228801   7.244   5.506   0.827 -0.3267 -0.3906 -0.5748
 9623TIP3    H128802   7.316   5.556   0.865 -1.1571  0.0331  0.4724
 9623TIP3    H228803   7.224   5.440   0.894 -0.5087 -0.8945 -1.1246
 9624TIP3   OH228804   5.095   2.547   6.804  0.7399  0.2627  0.4887
 9624TIP3    H128805   5.048   2.496   6.738  0.7034 -0.6948  1.2446
 9624TIP3    H228806   5.117   2.629   6.759 -3.2016  1.5217  0.6303
 9625TIP3   OH228807   5.148   6.859   0.373 -0.0921  0.4521 -0.6895
 9625TIP3    H128808   5.061   6.871   0.334  0.3045  1.2566 -1.3618
 9625TIP3    H228809   5.199   6.931   0.337  0.7184  0.2692  0.1020
 9626TIP3   OH228810   2.528   1.874   6.586 -0.2516  0.3558 -0.1184
 9626TIP3    H128811   2.511   1.793   6.538 -1.2639  0.7126 -0.3842
 9626TIP3    H228812   2.563   1.845   6.670 -1.4507 -0.3983  0.1353
 9627TIP3   OH228813   4.293   5.013   1.150  0.5249  0.4118 -0.7414
 9627TIP3    H128814   4.377   5.048   1.178  0.2908  0.3258  0.0937
 9627TIP3    H228815   4.314   4.927   1.113  0.7650  0.2450 -0.2223
 9628TIP3   OH228816   4.728   1.669   5.195 -0.3632  0.1723 -0.4762
 9628TIP3    H128817   4.658   1.679   5.260 -0.0999  0.7577 -0.2807
 9628TIP3    H228818   4.808   1.664   5.247 -0.0151  1.9881 -0.8074
 9629TIP3   OH228819   7.696   2.886   1.067  0.2205 -0.1522 -0.2777
 9629TIP3    H128820   7.721   2.851   1.153 -0.4813  1.5250  0.6289
 9629TIP3    H228821   7.743   2.968   1.060 -1.8274  1.0573 -0.3054
 9630TIP3   OH228822   7.339   4.213   0.713 -0.1166 -0.0252 -0.0556
 9630TIP3    H128823   7.399   4.143   0.739  0.8311  0.8118  0.0374
 9630TIP3    H228824   7.308   4.187   0.627 -1.1445 -1.4403  0.7112
 9631TIP3   OH228825   6.239   4.798   1.678 -0.8521 -0.3913 -0.3162
 9631TIP3    H128826   6.277   4.797   1.766  0.7236  0.9654 -0.9345
 9631TIP3    H228827   6.163   4.855   1.685 -0.2937  0.3220  0.0174
 9632TIP3   OH228828   6.665   4.712   1.341 -0.3605 -0.3272 -0.3340
 9632TIP3    H128829   6.648   4.713   1.247 -0.5147  1.9135 -0.3194
 9632TIP3    H228830   6.584   4.746   1.380 -0.3740 -1.4384  0.6193
 9633TIP3   OH228831   6.637   2.914   0.821  0.1845 -0.4120 -0.3735
 9633TIP3    H128832   6.644   2.969   0.899  0.9968  0.2317 -0.8932
 9633TIP3    H228833   6.653   2.974   0.748 -2.2283 -0.6732 -1.1487
 9634TIP3   OH228834   8.247   5.333   0.171  0.0624 -0.4932 -0.3023
 9634TIP3    H128835   8.169   5.283   0.195 -0.8637 -0.1935 -2.5864
 9634TIP3    H228836   8.217   5.424   0.170  1.0770 -0.1201  1.2002
 9635TIP3   OH228837   6.883   4.113   1.471  0.0157 -0.2714 -0.4433
 9635TIP3    H128838   6.803   4.127   1.522 -0.4479 -0.8323 -1.0077
 9635TIP3    H228839   6.854   4.115   1.380  0.5647 -0.9954 -0.6398
 9636TIP3   OH228840   6.305   2.343   0.135 -0.1575 -0.5044  0.1116
 9636TIP3    H128841   6.341   2.273   0.190 -1.8776 -0.7551  0.9363
 9636TIP3    H228842   6.361   2.418   0.153 -0.5269 -0.6633  1.9994
 9637TIP3   OH228843   5.881   7.242   2.865 -0.0928  0.1476  0.3851
 9637TIP3    H128844   5.825   7.250   2.788 -0.3018 -1.2463  0.3902
 9637TIP3    H228845   5.964   7.281   2.838  0.3998 -1.8892 -1.1376
 9638TIP3   OH228846   5.158   4.541   1.858  0.0751  0.3977  0.4659
 9638TIP3    H128847   5.222   4.611   1.868 -1.3388  1.5100  1.9923
 9638TIP3    H228848   5.101   4.549   1.934 -1.6409 -0.8315 -0.6468
 9639TIP3   OH228849   6.451   4.160   0.117 -0.9766 -0.4670 -0.2658
 9639TIP3    H128850   6.501   4.182   0.195 -0.9525 -1.7150  0.0857
 9639TIP3    H228851   6.393   4.089   0.145 -1.5691 -0.3466 -1.1647
 9640TIP3   OH228852   6.380   3.095   0.711 -0.2518  0.8487 -0.1233
 9640TIP3    H128853   6.308   3.037   0.734  0.4351 -0.3514 -0.9246
 9640TIP3    H228854   6.400   3.142   0.792 -2.2291  1.5333 -0.0184
 9641TIP3   OH228855   5.099   0.694   4.721 -0.0051 -0.3232  0.1687
 9641TIP3    H128856   5.067   0.613   4.760 -1.9099  0.2059 -0.2433
 9641TIP3    H228857   5.037   0.714   4.652  1.4458  0.5611 -0.9171
 9642TIP3   OH228858   5.423   4.750   1.517  0.2144  0.4558 -0.0449
 9642TIP3    H128859   5.392   4.820   1.574 -0.7829  0.7155 -0.8870
 9642TIP3    H228860   5.451   4.795   1.437 -0.2882 -0.0951 -0.5336
 9643TIP3   OH228861   6.082   5.192   0.945 -0.1772  0.5324  0.1277
 9643TIP3    H128862   6.176   5.208   0.951  0.1123 -0.2168 -1.8947
 9643TIP3    H228863   6.069   5.163   0.855 -1.9796 -1.8242  1.1027
 9644TIP3   OH228864   3.868   0.715   5.957 -0.0732  0.1058  0.5020
 9644TIP3    H128865   3.854   0.624   5.983 -1.3489  0.0098 -0.4888
 9644TIP3    H228866   3.917   0.753   6.030 -0.1136 -1.1974  1.2260
 9645TIP3   OH228867   4.591   1.591   5.897  0.0334 -0.4575 -0.1733
 9645TIP3    H128868   4.577   1.627   5.809 -1.2304  1.1199  0.6368
 9645TIP3    H228869   4.658   1.647   5.936 -0.3598 -0.3310  0.3292
 9646TIP3   OH228870   3.643   2.606   5.810  0.1056  0.0557  0.1840
 9646TIP3    H128871   3.652   2.542   5.739 -0.9053 -0.0566  0.1455
 9646TIP3    H228872   3.703   2.676   5.787 -0.7095  0.3350 -1.1423
 9647TIP3   OH228873   0.999   5.112   2.806  0.4732  0.4766  0.4278
 9647TIP3    H128874   1.025   5.072   2.889 -1.8345 -1.5159  0.2397
 9647TIP3    H228875   1.066   5.085   2.744  0.1757 -1.2593  0.8262
 9648TIP3   OH228876   3.277   1.328   5.661  0.2163  0.2808 -0.3190
 9648TIP3    H128877   3.223   1.312   5.739  0.3201 -0.2630 -0.3631
 9648TIP3    H228878   3.296   1.422   5.666  0.3165  0.2325  0.3683
 9649TIP3   OH228879   5.293   6.144   1.977  0.1693 -0.0248  0.4823
 9649TIP3    H128880   5.248   6.152   2.061 -0.9519  0.7341 -0.1700
 9649TIP3    H228881   5.380   6.180   1.992  0.3786 -0.9871  1.6250
 9650TIP3   OH228882   1.213   7.723   6.521 -0.0510 -0.0740 -0.3118
 9650TIP3    H128883   1.158   7.763   6.454 -1.5601 -1.2788  0.1483
 9650TIP3    H228884   1.153   7.664   6.568  1.3160 -0.3369  1.1402
 9651TIP3   OH228885   7.977   6.835   1.275  0.1506 -0.2938 -0.2185
 9651TIP3    H128886   7.970   6.811   1.367 -2.0651  3.1763  0.6229
 9651TIP3    H228887   8.040   6.907   1.273 -0.5381  0.3132 -1.2211
 9652TIP3   OH228888   1.277   6.619   4.122  0.0104 -0.5845 -0.2010
 9652TIP3    H128889   1.250   6.539   4.076  0.2952 -1.3353  0.9300
 9652TIP3    H228890   1.233   6.614   4.207  0.3696  0.2568  0.0378
 9653TIP3   OH228891   6.956   3.982   0.847 -0.2179  0.2682 -0.0117
 9653TIP3    H128892   7.036   3.981   0.900  0.6750 -0.0261 -1.3341
 9653TIP3    H228893   6.889   3.945   0.904  0.6456  0.3124  1.0468
 9654TIP3   OH228894   2.128   3.798   5.943 -0.5265 -0.4290  0.2824
 9654TIP3    H128895   2.036   3.819   5.931 -0.7205 -1.1150  0.5676
 9654TIP3    H228896   2.161   3.781   5.855 -0.4678  0.6276  0.0888
 9655TIP3   OH228897   4.780   1.149   6.143 -0.1226  0.4788  0.1302
 9655TIP3    H128898   4.739   1.084   6.199  2.0724 -0.7251  0.4256
 9655TIP3    H228899   4.717   1.165   6.073 -1.6294 -0.2637  1.3034
 9656TIP3   OH228900   2.370   2.938   6.055  0.4097 -0.1688 -0.2893
 9656TIP3    H128901   2.394   2.982   6.137 -0.7562  0.1707 -0.1199
 9656TIP3    H228902   2.303   2.874   6.081  0.5536 -0.5541 -0.8636
 9657TIP3   OH228903   1.423   7.241   5.437 -0.2377  0.1514  0.3670
 9657TIP3    H128904   1.418   7.171   5.373  4.0180 -0.1446  0.1953
 9657TIP3    H228905   1.443   7.197   5.520 -0.2037  0.9536  0.7911
 9658TIP3   OH228906   1.779   7.127   6.508 -0.1318  0.0422  0.0284
 9658TIP3    H128907   1.754   7.068   6.579 -0.6438  0.6040  0.3227
 9658TIP3    H228908   1.707   7.121   6.445  0.0724 -0.0566 -0.1969
 9659TIP3   OH228909   7.884   6.827   2.792  0.0988 -0.3658 -0.4400
 9659TIP3    H128910   7.860   6.838   2.700  3.2407 -0.8151 -1.3585
 9659TIP3    H228911   7.907   6.916   2.822  0.4739 -0.4493 -0.4850
 9660TIP3   OH228912   5.995   4.124   0.693  0.3469  0.4034 -0.4974
 9660TIP3    H128913   5.915   4.074   0.676 -0.5326  1.8085 -0.6411
 9660TIP3    H228914   5.974   4.213   0.661  1.1407  1.3598  1.5627
 9661TIP3   OH228915   0.779   7.947   6.297  0.3566  0.5804 -0.5995
 9661TIP3    H128916   0.874   7.949   6.309  0.5833  1.6272 -2.3975
 9661TIP3    H228917   0.743   7.987   6.376  1.3055 -1.3390  0.8603
 9662TIP3   OH228918   7.829   4.010   0.546  0.6742 -0.0677 -0.2721
 9662TIP3    H128919   7.769   4.070   0.502 -0.9531  0.0848  2.0370
 9662TIP3    H228920   7.801   3.923   0.518 -2.1805 -0.1400  2.4822
 9663TIP3   OH228921   6.097   3.909   2.884  0.0953  0.3043  0.2529
 9663TIP3    H128922   6.040   3.936   2.956  1.6077  0.1318  1.5491
 9663TIP3    H228923   6.127   3.822   2.909  0.7629  0.3119 -0.5101
 9664TIP3   OH228924   4.213   4.715   6.076  0.6275  0.5947 -0.1672
 9664TIP3    H128925   4.272   4.695   6.149 -0.9052  0.6062  1.1055
 9664TIP3    H228926   4.258   4.681   5.999  1.6640 -0.6456  0.9480
 9665TIP3   OH228927   0.125   3.104   1.049 -0.3038 -0.1642  0.2571
 9665TIP3    H128928   0.090   3.034   0.993  1.7775 -1.0851  0.0732
 9665TIP3    H228929   0.093   3.083   1.137 -1.5845 -0.0545 -0.1655
 9666TIP3   OH228930   3.344   4.473   5.956 -0.0563  0.5310  0.3586
 9666TIP3    H128931   3.318   4.381   5.954 -0.2817  0.5984  0.2526
 9666TIP3    H228932   3.409   4.481   5.885 -0.5758  0.6184 -0.1126
 9667TIP3   OH228933   6.130   5.414   0.758 -0.5697 -0.5270  0.3006
 9667TIP3    H128934   6.212   5.374   0.732  0.7523  1.8560  0.6941
 9667TIP3    H228935   6.155   5.487   0.814 -2.9655  0.0355  0.7033
 9668TIP3   OH228936   4.274   0.786   6.704 -0.6924  0.8060  0.3936
 9668TIP3    H128937   4.354   0.808   6.752 -0.4606  0.2537  0.2671
 9668TIP3    H228938   4.296   0.798   6.612 -0.8672  1.0037  0.3769
 9669TIP3   OH228939   4.042   1.396   5.879  0.5099  0.2525  0.0613
 9669TIP3    H128940   4.105   1.459   5.914  1.2834 -0.6927  0.4050
 9669TIP3    H228941   4.095   1.319   5.857 -0.4963 -0.4668  0.1282
 9670TIP3   OH228942   5.375   6.695   1.745  0.4110  0.7219 -0.4429
 9670TIP3    H128943   5.390   6.600   1.748  0.9369  0.8123  0.0175
 9670TIP3    H228944   5.403   6.721   1.658  0.2994  0.4585 -0.5590
 9671TIP3   OH228945   5.136   3.979   0.807  0.0691 -0.6280 -0.0844
 9671TIP3    H128946   5.113   3.888   0.823 -0.6712 -0.8941 -2.4698
 9671TIP3    H228947   5.217   3.992   0.857  0.1996 -2.6014  0.2618
 9672TIP3   OH228948   7.243   2.921   1.535 -0.5197 -0.0095  0.4311
 9672TIP3    H128949   7.311   2.980   1.502 -0.7035 -0.9459 -1.6936
 9672TIP3    H228950   7.203   2.969   1.608  1.4199  1.1630  0.7560
 9673TIP3   OH228951   5.221   5.615   1.048  0.2395 -0.0196 -0.0876
 9673TIP3    H128952   5.168   5.695   1.051 -0.5373 -0.5646  1.0945
 9673TIP3    H228953   5.188   5.561   1.120  0.9750 -1.2768 -0.6667
 9674TIP3   OH228954   5.061   5.778   0.381 -0.0077 -0.0359  0.6738
 9674TIP3    H128955   4.976   5.801   0.343  0.7077  0.5957 -0.5814
 9674TIP3    H228956   5.066   5.827   0.463 -0.5668  0.4656  0.4095
 9675TIP3   OH228957   6.980   4.348   0.565  0.6024 -0.1656  0.3943
 9675TIP3    H128958   6.935   4.294   0.630  2.2642 -1.6495  0.3466
 9675TIP3    H228959   6.943   4.322   0.481 -0.9970  1.2069  0.6414
 9676TIP3   OH228960   2.277   2.599   5.507 -0.1303 -0.1616  0.5160
 9676TIP3    H128961   2.212   2.615   5.440 -0.4900 -0.7984  0.7087
 9676TIP3    H228962   2.361   2.612   5.463 -0.4006  1.5773  0.5082
 9677TIP3   OH228963   3.729   2.498   5.582 -0.3303 -0.7751  0.1580
 9677TIP3    H128964   3.818   2.479   5.613  0.2983 -0.6590 -1.5190
 9677TIP3    H228965   3.734   2.487   5.487 -1.6779  0.9308 -0.1442
 9678TIP3   OH228966   5.339   4.700   2.001 -0.1070  0.2610  0.2145
 9678TIP3    H128967   5.284   4.712   2.079 -1.3612 -1.2745 -0.4057
 9678TIP3    H228968   5.420   4.746   2.021 -0.6319  0.3477  2.2033
 9679TIP3   OH228969   2.080   7.585   4.649 -0.1568 -0.2677 -0.2786
 9679TIP3    H128970   2.026   7.517   4.688 -2.2412  0.5747 -1.6190
 9679TIP3    H228971   2.136   7.539   4.586  0.3208 -1.0715  0.7207
 9680TIP3   OH228972   6.563   4.335   0.300 -0.3545  0.8010  0.1519
 9680TIP3    H128973   6.655   4.312   0.309 -0.5757 -0.1195  0.0788
 9680TIP3    H228974   6.564   4.421   0.258  0.4622  0.6717 -0.1016
 9681TIP3   OH228975   6.145   5.945   0.008 -0.0789 -0.5732  0.3658
 9681TIP3    H128976   6.204   5.884   0.053 -1.1234 -1.8784 -0.0126
 9681TIP3    H228977   6.061   5.900   0.008 -0.6970  0.5969 -0.5192
 9682TIP3   OH228978   0.881   7.338   4.226 -0.4490  0.3566 -0.4940
 9682TIP3    H128979   0.816   7.358   4.293 -0.6907  0.0454 -0.6344
 9682TIP3    H228980   0.830   7.317   4.148 -0.1943 -0.4132 -0.4587
 9683TIP3   OH228981   4.588   0.357   6.233 -0.3915 -0.2187  0.2509
 9683TIP3    H128982   4.671   0.395   6.260  0.0336 -1.3566  0.5760
 9683TIP3    H228983   4.601   0.262   6.240 -1.8591 -0.4004  0.7365
 9684TIP3   OH228984   6.323   4.790   0.710 -0.3075  0.4205 -0.2168
 9684TIP3    H128985   6.241   4.838   0.702 -0.0770  0.5664 -1.7240
 9684TIP3    H228986   6.365   4.798   0.624  0.9241 -0.3024  0.3028
 9685TIP3   OH228987   2.370   1.282   5.950  0.3533  0.0889  0.0635
 9685TIP3    H128988   2.278   1.306   5.952  0.7879  1.9683 -0.8988
 9685TIP3    H228989   2.394   1.270   6.042 -0.3314  1.7595  0.4732
 9686TIP3   OH228990   2.961   1.887   6.765  0.1448 -0.1763  0.3670
 9686TIP3    H128991   2.990   1.817   6.824  1.4134  1.3926  1.6384
 9686TIP3    H228992   3.028   1.955   6.773  0.0624  0.3274 -2.4665
 9687TIP3   OH228993   8.392   5.377   0.566  0.7638  0.2052  0.1178
 9687TIP3    H128994   8.374   5.325   0.488  0.3041  1.9773 -0.9852
 9687TIP3    H228995   8.462   5.437   0.540 -1.1413  2.5505  0.2505
 9688TIP3   OH228996   8.277   5.987   0.994 -0.7287 -0.0531 -0.1890
 9688TIP3    H128997   8.307   6.029   1.075  1.7532 -1.2433 -0.4407
 9688TIP3    H228998   8.225   5.913   1.024  0.5489 -0.7525  0.3409
 9689TIP3   OH228999   6.366   5.581   0.586 -0.1858 -0.2720  0.1793
 9689TIP3    H129000   6.307   5.623   0.523 -0.2079 -0.9918 -0.2864
 9689TIP3    H229001   6.450   5.626   0.574 -0.3141 -0.0858 -0.0242
 9690TIP3   OH229002   4.719   5.488   0.310  0.0409 -0.1462 -0.1457
 9690TIP3    H129003   4.728   5.453   0.399 -1.9810  1.6748  0.8023
 9690TIP3    H229004   4.807   5.519   0.288  0.3081  0.4594  1.6745
 9691TIP3   OH229005   2.161   0.974   5.958  0.1200  0.3181 -0.4855
 9691TIP3    H129006   2.253   0.963   5.935  0.5070 -0.1495  1.2338
 9691TIP3    H229007   2.116   0.978   5.874  1.6222 -0.2112 -1.3367
 9692TIP3   OH229008   5.586   2.039   0.489  0.2569 -0.3073  0.7107
 9692TIP3    H129009   5.532   1.974   0.533 -1.1348 -0.4618 -1.1886
 9692TIP3    H229010   5.539   2.122   0.500 -0.5680 -0.5103 -1.2860
 9693TIP3   OH229011   5.133   4.124   0.421 -0.4128  0.4307  0.4807
 9693TIP3    H129012   5.151   4.199   0.365 -0.9960 -0.2070 -0.5897
 9693TIP3    H229013   5.174   4.050   0.377  0.1132  0.1057  1.4957
 9694TIP3   OH229014   7.124   3.729   1.881  0.3661  0.2235 -0.0795
 9694TIP3    H129015   7.212   3.758   1.858  0.7349 -2.0927 -1.8352
 9694TIP3    H229016   7.065   3.791   1.838  1.1489 -0.2159 -1.8389
 9695TIP3   OH229017   5.293   0.085   6.184 -0.4364 -0.7217  0.1520
 9695TIP3    H129018   5.280   0.002   6.230 -0.9335 -0.1335  1.0854
 9695TIP3    H229019   5.388   0.095   6.178 -0.3701 -0.7561  1.1350
 9696TIP3   OH229020   6.777   3.534   1.479  0.5515  0.4701 -0.4032
 9696TIP3    H129021   6.871   3.516   1.482  0.3224 -0.7624 -0.2533
 9696TIP3    H229022   6.768   3.604   1.415  1.5998  0.7388 -0.2638
 9697TIP3   OH229023   6.435   6.440   1.229  0.1279 -0.4362  0.6165
 9697TIP3    H129024   6.351   6.484   1.224  1.1114  1.5193  0.6656
 9697TIP3    H229025   6.482   6.469   1.151  0.8984 -1.1656  0.8019
 9698TIP3   OH229026   5.517   0.133   5.904  0.1156 -0.2475  0.1943
 9698TIP3    H129027   5.462   0.212   5.912 -0.3800 -0.4386 -1.2184
 9698TIP3    H229028   5.606   0.166   5.903  0.1023  0.0467  2.9474
 9699TIP3   OH229029   3.808   1.438   6.057 -0.7601 -0.2798 -0.5775
 9699TIP3    H129030   3.878   1.422   5.993 -1.5488 -5.2485 -0.3849
 9699TIP3    H229031   3.742   1.372   6.038 -2.9516  0.8141  2.7505
 9700TIP3   OH229032   6.838   4.308   1.685  0.0712  0.3709  0.6418
 9700TIP3    H129033   6.883   4.258   1.617  0.2073  0.1594  0.8846
 9700TIP3    H229034   6.775   4.363   1.638  0.1027  0.1598  0.3549
 9701TIP3   OH229035   6.277   3.891   1.675 -0.9156  0.0438 -0.1819
 9701TIP3    H129036   6.315   3.837   1.606  0.4496  0.0898  0.5330
 9701TIP3    H229037   6.202   3.839   1.706 -0.8511 -0.4992 -0.9114
 9702TIP3   OH229038   7.379   3.692   0.685 -0.2016  0.3797 -0.2581
 9702TIP3    H129039   7.395   3.710   0.592 -1.5795 -0.1425 -0.6012
 9702TIP3    H229040   7.361   3.598   0.689 -0.7395  0.5076  0.4467
 9703TIP3   OH229041   7.828   5.815   1.124  0.2843  0.2720 -0.0457
 9703TIP3    H129042   7.835   5.793   1.031  0.8011 -0.5116  0.1663
 9703TIP3    H229043   7.782   5.740   1.163 -1.8238  1.5516 -0.0057
 9704TIP3   OH229044   0.846   6.631   6.571  0.4770 -0.7127  0.6233
 9704TIP3    H129045   0.807   6.716   6.587  0.1586 -1.2161  2.6669
 9704TIP3    H229046   0.939   6.649   6.554  0.3425  0.0497  0.7153
 9705TIP3   OH229047   7.292   4.682   1.343 -0.3372  0.4448  0.6686
 9705TIP3    H129048   7.312   4.602   1.391  0.2631  0.3559  0.2726
 9705TIP3    H229049   7.286   4.655   1.252  1.7579  1.1722  0.2975
 9706TIP3   OH229050   4.976   4.032   1.911  0.5465  0.5701  0.1290
 9706TIP3    H129051   5.057   3.982   1.915  0.4231  0.4486  1.5386
 9706TIP3    H229052   4.907   3.968   1.931  0.2252  0.9176  0.1465
 9707TIP3   OH229053   4.016   2.426   6.001 -0.0140  0.0014 -0.1266
 9707TIP3    H129054   4.091   2.368   5.993  1.1481  1.6695 -1.7750
 9707TIP3    H229055   4.048   2.511   5.970 -2.1032  1.1519  0.7482
 9708TIP3   OH229056   2.562   7.281   6.335 -0.5606  0.6340  0.2720
 9708TIP3    H129057   2.476   7.253   6.303 -0.8842  0.2646  1.4344
 9708TIP3    H229058   2.610   7.199   6.349  1.0209  0.9161 -3.1226
 9709TIP3   OH229059   5.303   6.420   0.489 -0.1216  0.0175 -0.0525
 9709TIP3    H129060   5.352   6.502   0.484  0.1914 -0.2205 -1.0317
 9709TIP3    H229061   5.367   6.355   0.517 -0.2427 -0.0009  0.1867
 9710TIP3   OH229062   4.494   5.176   0.533 -0.3881  0.2416 -0.1127
 9710TIP3    H129063   4.425   5.172   0.599 -0.6732 -1.0185 -0.4609
 9710TIP3    H229064   4.496   5.088   0.496  1.2889  0.3051 -0.2245
 9711TIP3   OH229065   6.397   5.895   0.962  0.2204  0.1540 -0.1351
 9711TIP3    H129066   6.453   5.949   0.906 -1.8372  2.0007 -0.4879
 9711TIP3    H229067   6.351   5.957   1.017 -0.1416 -1.4546  1.4118
 9712TIP3   OH229068   6.526   7.269   2.522 -0.0514  0.2707 -0.5188
 9712TIP3    H129069   6.497   7.178   2.514  0.7572 -0.2842  2.4738
 9712TIP3    H229070   6.600   7.276   2.462  0.9164 -1.5238  0.4358
 9713TIP3   OH229071   7.281   7.011   0.694  0.4714 -0.2609  0.5817
 9713TIP3    H129072   7.258   6.921   0.718 -0.8417 -0.3091 -0.8136
 9713TIP3    H229073   7.337   7.002   0.617 -0.0376  0.1518  0.1675
 9714TIP3   OH229074   3.017   1.514   5.996  0.1197 -0.8366 -0.1822
 9714TIP3    H129075   3.111   1.500   6.006  0.1441 -1.9704 -1.8655
 9714TIP3    H229076   2.980   1.427   5.985 -1.0501 -0.3478 -0.2169
 9715TIP3   OH229077   1.452   0.873   4.996  0.3536 -0.6428  0.0737
 9715TIP3    H129078   1.437   0.920   4.914  1.4916 -2.1760 -1.0561
 9715TIP3    H229079   1.365   0.857   5.031 -0.0715  1.7822  0.1970
 9716TIP3   OH229080   3.138   1.687   6.634 -0.2864  0.0103  0.1288
 9716TIP3    H129081   3.177   1.758   6.584 -0.2209 -0.0089  0.1529
 9716TIP3    H229082   3.124   1.617   6.570 -0.0700 -0.0666  0.1670
 9717TIP3   OH229083   7.526   4.547   0.759  0.0835 -0.8059  0.1612
 9717TIP3    H129084   7.494   4.520   0.846  1.9532  2.3384  1.9114
 9717TIP3    H229085   7.492   4.636   0.748  2.0712 -0.1758 -1.1452
 9718TIP3   OH229086   6.248   1.462   5.808  0.1485  0.2843  0.7509
 9718TIP3    H129087   6.266   1.519   5.733  2.2073 -0.8247  0.3768
 9718TIP3    H229088   6.153   1.447   5.804  0.4025 -0.8532 -2.4511
 9719TIP3   OH229089   6.315   6.029   1.613  0.1074 -0.3517 -0.1312
 9719TIP3    H129090   6.313   6.107   1.557  0.2376 -0.2697 -0.0215
 9719TIP3    H229091   6.315   6.063   1.702 -0.7348 -0.4941 -0.0669
 9720TIP3   OH229092   3.527   0.962   5.463 -0.2008 -0.6074 -0.0459
 9720TIP3    H129093   3.593   0.972   5.394 -1.4702 -0.0500 -1.2075
 9720TIP3    H229094   3.571   0.911   5.531  1.7760  0.6593 -0.3176
 9721TIP3   OH229095   2.416   1.017   5.871 -0.1246  0.1107  0.2601
 9721TIP3    H129096   2.497   1.014   5.821  1.0735  1.2737  2.0323
 9721TIP3    H229097   2.406   1.110   5.893 -1.7712 -0.0774  0.3156
 9722TIP3   OH229098   3.661   2.485   6.556  0.8540 -0.3972 -0.1491
 9722TIP3    H129099   3.628   2.572   6.580  1.8821  0.0143 -0.2096
 9722TIP3    H229100   3.661   2.484   6.461 -0.9858 -1.1787 -0.1725
 9723TIP3   OH229101   4.077   1.084   6.111 -0.1399  0.1801 -0.2220
 9723TIP3    H129102   4.159   1.052   6.149 -0.2667  0.6495  0.4625
 9723TIP3    H229103   4.084   1.063   6.018 -0.1621 -1.7020  0.1760
 9724TIP3   OH229104   7.348   0.903   5.871 -0.6819  0.4854 -0.0897
 9724TIP3    H129105   7.320   0.829   5.923 -0.0137 -0.2787 -0.8101
 9724TIP3    H229106   7.267   0.942   5.839 -1.0510  0.4071  0.7615
 9725TIP3   OH229107   3.622   4.521   0.060  0.1371 -0.3388  0.0793
 9725TIP3    H129108   3.701   4.561   0.024 -0.0178  0.0031  0.1079
 9725TIP3    H229109   3.600   4.576   0.135  0.2702 -0.8510  0.4963
 9726TIP3   OH229110   8.219   6.363   0.143  0.4511  0.0995  0.8250
 9726TIP3    H129111   8.134   6.380   0.183 -1.1218 -0.9184 -1.9892
 9726TIP3    H229112   8.255   6.290   0.194  0.3038  1.4158  2.8979
 9727TIP3   OH229113   6.535   0.232   5.771 -0.2082  0.0011 -0.7836
 9727TIP3    H129114   6.465   0.290   5.744 -0.5108  0.3786  0.7669
 9727TIP3    H229115   6.529   0.230   5.867 -1.3748 -4.0134 -0.8560
 9728TIP3   OH229116   0.851   4.788   0.746  0.0073  0.0886 -0.0079
 9728TIP3    H129117   0.892   4.791   0.833 -0.1516  1.4584  0.0318
 9728TIP3    H229118   0.885   4.708   0.706  1.5274  0.4044  0.6059
 9729TIP3   OH229119   7.044   2.528   0.859 -0.2104  0.2284  0.0212
 9729TIP3    H129120   7.079   2.480   0.784 -0.1417  0.5986 -0.1835
 9729TIP3    H229121   6.973   2.581   0.822 -1.5552 -1.1411  0.5629
 9730TIP3   OH229122   5.038   1.982   5.480 -0.2655  0.5897  0.1081
 9730TIP3    H129123   5.015   2.071   5.505  0.0195  0.3839  1.1061
 9730TIP3    H229124   5.053   1.987   5.386 -0.9479  1.4502  0.0396
 9731TIP3   OH229125   6.152   2.297   6.541  0.6177  0.4613  0.0265
 9731TIP3    H129126   6.126   2.364   6.479 -0.4890  0.5015  0.5184
 9731TIP3    H229127   6.071   2.249   6.561  1.4458 -1.2602 -0.6002
 9732TIP3   OH229128   7.357   5.288   1.385 -0.0337  0.0663 -0.5397
 9732TIP3    H129129   7.291   5.290   1.454 -0.0251  0.1380 -0.5329
 9732TIP3    H229130   7.434   5.328   1.426  0.2144 -0.6120 -0.3375
 9733TIP3   OH229131   7.251   4.983   2.461 -0.9339  0.0081  0.5350
 9733TIP3    H129132   7.295   4.898   2.458 -2.1956 -0.7251  1.9352
 9733TIP3    H229133   7.260   5.018   2.373  0.7934 -0.9644  0.3052
 9734TIP3   OH229134   0.451   5.857   0.458  0.1050 -0.0851  0.3332
 9734TIP3    H129135   0.455   5.948   0.490  1.9578  1.2392 -3.3597
 9734TIP3    H229136   0.373   5.855   0.403 -0.2723 -0.9187  0.8980
 9735TIP3   OH229137   6.401   4.951   0.166 -0.3237 -0.5559  0.0132
 9735TIP3    H129138   6.487   4.944   0.124  0.3344  2.2648  0.8309
 9735TIP3    H229139   6.391   4.868   0.212  2.9827 -0.0904  1.7466
 9736TIP3   OH229140   3.341   7.460   5.893  0.8013  0.0280  0.5721
 9736TIP3    H129141   3.280   7.480   5.822  2.8110 -1.7684 -1.7419
 9736TIP3    H229142   3.408   7.529   5.887  0.7404  0.1279  1.0142
 9737TIP3   OH229143   2.754   7.877   4.353 -0.0285  0.7254  0.2036
 9737TIP3    H129144   2.820   7.946   4.346  1.9753 -1.2548 -1.2573
 9737TIP3    H229145   2.788   7.818   4.420 -0.6423  0.0293 -0.0849
 9738TIP3   OH229146   0.537   5.513   1.920 -0.4896  0.4552 -0.1198
 9738TIP3    H129147   0.611   5.567   1.891  0.6249 -1.6435 -1.3164
 9738TIP3    H229148   0.577   5.447   1.976 -1.4631 -0.6943 -0.7650
 9739TIP3   OH229149   6.220   0.468   6.130  0.5497  0.1310 -0.1344
 9739TIP3    H129150   6.235   0.557   6.162 -2.3132  0.2061  1.1220
 9739TIP3    H229151   6.235   0.412   6.207  1.6825 -0.4406 -0.7539
 9740TIP3   OH229152   6.605   1.664   6.488 -0.0241 -0.1218  0.4496
 9740TIP3    H129153   6.676   1.694   6.431  0.2576  1.4380  1.5976
 9740TIP3    H229154   6.650   1.622   6.561 -0.2832  0.7395  1.1075
 9741TIP3   OH229155   0.827   4.975   0.061 -0.1802 -0.1277  0.1101
 9741TIP3    H129156   0.839   4.936   0.147  1.1718  1.6683  0.7735
 9741TIP3    H229157   0.736   5.005   0.060  0.4897  2.1152  1.9152
 9742TIP3   OH229158   7.262   7.123   1.945 -0.4081  0.3827  0.4947
 9742TIP3    H129159   7.251   7.193   1.881  1.0309 -0.2011 -0.4074
 9742TIP3    H229160   7.173   7.103   1.974 -1.1722  0.0523 -1.9702
 9743TIP3   OH229161   5.097   1.490   4.604  0.1321 -0.0726 -0.0888
 9743TIP3    H129162   5.033   1.526   4.666 -0.8611  0.8608 -1.5995
 9743TIP3    H229163   5.163   1.448   4.659 -0.3496  1.3318  1.6325
 9744TIP3   OH229164   6.473   5.033   2.565  0.6659  0.0161  0.3352
 9744TIP3    H129165   6.475   5.012   2.658  2.3433 -1.9175 -0.1153
 9744TIP3    H229166   6.485   4.949   2.520  1.4456  1.1226 -1.6116
 9745TIP3   OH229167   5.425   1.223   3.603  0.1431 -0.4380  0.2408
 9745TIP3    H129168   5.428   1.251   3.694 -1.3333 -0.2144  0.2339
 9745TIP3    H229169   5.438   1.303   3.552 -0.3804 -0.3461  0.2492
 9746TIP3   OH229170   6.448   0.535   6.651 -0.5497  0.0654  0.8507
 9746TIP3    H129171   6.407   0.568   6.572  1.2428 -0.4424 -0.3284
 9746TIP3    H229172   6.443   0.607   6.713 -1.3813  0.6994  0.0567
 9747TIP3   OH229173   0.553   4.859   0.846  0.0628  0.1383 -0.5037
 9747TIP3    H129174   0.561   4.768   0.877 -0.4882 -0.5645 -2.4021
 9747TIP3    H229175   0.471   4.890   0.884 -0.2664 -0.4897 -0.7057
 9748TIP3   OH229176   5.989   0.395   6.910  0.0091 -0.1722 -0.8281
 9748TIP3    H129177   6.023   0.338   6.841 -2.2036 -0.6520 -1.5416
 9748TIP3    H229178   5.914   0.439   6.870  0.8148  2.2090  0.1618
 9749TIP3   OH229179   7.963   4.576   1.656  0.2826  0.1050  0.6767
 9749TIP3    H129180   7.923   4.493   1.629  0.4374  0.5440 -0.9196
 9749TIP3    H229181   7.888   4.630   1.683  0.1964 -0.5976  1.9030
 9750TIP3   OH229182   3.286   7.493   6.422 -0.0224  0.3686  0.5081
 9750TIP3    H129183   3.328   7.512   6.338 -1.3310 -0.9327 -0.4691
 9750TIP3    H229184   3.357   7.495   6.485  1.2730 -0.3511 -0.8944
 9751TIP3   OH229185   1.933   7.465   4.951  0.1734 -0.5230  0.1129
 9751TIP3    H129186   1.848   7.487   4.913  0.7785  0.9540 -0.3968
 9751TIP3    H229187   1.917   7.466   5.046 -1.0785 -3.2019 -0.0251
 9752TIP3   OH229188   1.908   6.042   1.146 -0.0997 -0.2624  0.8690
 9752TIP3    H129189   1.992   6.088   1.143 -1.4235  2.2218 -0.1666
 9752TIP3    H229190   1.928   5.953   1.118  1.7878  1.0019 -2.0642
 9753TIP3   OH229191   0.282   6.122   0.415  0.1224 -0.0811  0.4433
 9753TIP3    H129192   0.326   6.115   0.499 -0.6195 -0.4623  0.8088
 9753TIP3    H229193   0.208   6.061   0.422 -1.3386  1.6579  0.4061
 9754TIP3   OH229194   6.056   1.178   6.788 -0.1160  0.0719 -0.1054
 9754TIP3    H129195   6.003   1.235   6.732 -0.1337 -0.5204 -0.7043
 9754TIP3    H229196   6.146   1.194   6.760 -0.1957 -0.9558 -1.0122
 9755TIP3   OH229197   7.501   2.298   4.014  0.0586  0.1646  0.4827
 9755TIP3    H129198   7.469   2.381   3.977 -1.2188 -0.1987  0.7417
 9755TIP3    H229199   7.496   2.236   3.941 -0.9409 -0.1645  0.8150
 9756TIP3   OH229200   5.846   4.015   0.261  0.7347  0.1871  0.3775
 9756TIP3    H129201   5.922   3.987   0.313  2.5972  0.0799 -2.3293
 9756TIP3    H229202   5.864   4.106   0.239  0.7231 -0.2070 -1.3450
 9757TIP3   OH229203   8.199   6.319   0.604 -0.1514  0.5200 -0.3538
 9757TIP3    H129204   8.227   6.356   0.688  0.2530  0.3750 -0.4209
 9757TIP3    H229205   8.188   6.225   0.622 -0.8598  0.6180 -0.2632
 9758TIP3   OH229206   0.553   6.291   0.362  0.0141  0.1950 -0.1711
 9758TIP3    H129207   0.585   6.298   0.452  0.4232 -0.6578 -0.2449
 9758TIP3    H229208   0.461   6.267   0.372 -0.4419  1.9446  0.0321
 9759TIP3   OH229209   4.834   2.223   6.736  0.2423 -0.0699 -0.2916
 9759TIP3    H129210   4.830   2.133   6.770 -1.0676  0.6287  1.4727
 9759TIP3    H229211   4.764   2.228   6.671  0.1557 -0.2465 -0.2118
 9760TIP3   OH229212   0.319   4.963   0.931 -0.0555 -0.5378 -0.0719
 9760TIP3    H129213   0.336   5.030   0.865  0.0036 -0.3104  0.1745
 9760TIP3    H229214   0.308   5.011   1.013  0.4864 -0.8599  0.1957
 9761TIP3   OH229215   1.896   7.751   5.780  0.0028 -0.4362  0.4424
 9761TIP3    H129216   1.967   7.690   5.761  0.9376  0.7261  0.1470
 9761TIP3    H229217   1.909   7.823   5.717 -0.5070  0.5192  1.4159
 9762TIP3   OH229218   4.402   1.738   6.803  0.1432  0.0714 -0.0956
 9762TIP3    H129219   4.404   1.767   6.894 -0.5714 -0.5996  0.1430
 9762TIP3    H229220   4.493   1.746   6.774  0.3910  0.2309  0.6939
 9763TIP3   OH229221   4.294   2.158   6.833 -0.1584 -0.7089 -0.0743
 9763TIP3    H129222   4.246   2.181   6.912  0.2335 -1.7372  0.4770
 9763TIP3    H229223   4.298   2.239   6.782 -0.9971 -0.2126  0.6487
 9764TIP3   OH229224   6.875   2.946   6.148 -0.0791  0.5543  0.1035
 9764TIP3    H129225   6.903   3.016   6.207 -1.2158 -0.4862  1.9428
 9764TIP3    H229226   6.780   2.955   6.143  0.0394  0.9326 -2.0051
 9765TIP3   OH229227   6.762   0.159   6.621 -0.3181 -0.0263  0.7985
 9765TIP3    H129228   6.730   0.233   6.673 -0.4392 -0.8134  1.8735
 9765TIP3    H229229   6.832   0.121   6.674 -0.2551 -0.6798  0.2630
 9766TIP3   OH229230   5.147   1.445   6.525 -0.0096 -0.6267  0.2937
 9766TIP3    H129231   5.182   1.361   6.494 -0.9627 -1.3398  1.1359
 9766TIP3    H229232   5.092   1.476   6.454  1.0038 -0.3009 -0.3632
 9767TIP3   OH229233   3.248   6.198   6.640 -0.1882  0.2654 -0.0583
 9767TIP3    H129234   3.306   6.131   6.605 -1.2614 -0.0771 -1.2221
 9767TIP3    H229235   3.259   6.192   6.735  1.1684 -0.2296 -0.2397
 9768TIP3   OH229236   2.548   7.958   0.697 -0.2790 -0.4564  0.4303
 9768TIP3    H129237   2.500   7.943   0.779 -1.1498  0.8043  0.1571
 9768TIP3    H229238   2.495   8.021   0.649  0.6440 -0.5723 -0.7606
 9769TIP3   OH229239   1.288   6.142   0.056 -0.1319 -0.0766 -0.0851
 9769TIP3    H129240   1.266   6.176   0.143 -0.4583 -1.4463  0.3943
 9769TIP3    H229241   1.204   6.138   0.010  0.1148  1.1093 -0.6284
 9770TIP3   OH229242   0.399   6.102   1.622  0.5896  0.3027 -0.2551
 9770TIP3    H129243   0.444   6.021   1.597 -0.0320 -0.8381  2.1110
 9770TIP3    H229244   0.307   6.085   1.602  0.6946  1.1245 -1.4407
 9771TIP3   OH229245   1.489   7.252   4.783 -0.1083  0.2219 -0.2289
 9771TIP3    H129246   1.423   7.321   4.782  1.1454  1.4402 -0.2310
 9771TIP3    H229247   1.529   7.257   4.696  2.3352  1.8199  0.9323
 9772TIP3   OH229248   7.021   1.401   5.830 -0.1215  0.4455  0.1007
 9772TIP3    H129249   7.014   1.465   5.900  0.8174  0.8663 -0.1890
 9772TIP3    H229250   6.990   1.447   5.752  1.3525  0.8407 -0.2758
 9773TIP3   OH229251   6.855   0.587   6.547 -0.3908  0.2301  0.2152
 9773TIP3    H129252   6.845   0.647   6.474  0.1326  0.9239  0.7078
 9773TIP3    H229253   6.920   0.523   6.518 -0.3163  0.4007  0.0159
 9774TIP3   OH229254   5.850   1.785   6.702 -0.2107  0.2603 -0.3564
 9774TIP3    H129255   5.819   1.831   6.624 -0.7211  0.6520  0.0698
 9774TIP3    H229256   5.926   1.736   6.673 -0.3848  0.4267 -1.0969
 9775TIP3   OH229257   3.304   1.442   6.078 -0.0954  0.6728 -0.0243
 9775TIP3    H129258   3.320   1.421   6.170 -2.5225  0.3975  0.3838
 9775TIP3    H229259   3.382   1.489   6.049  0.6739  0.7975  2.1925
 9776TIP3   OH229260   4.665   2.052   4.009  0.2667 -0.2899 -0.1799
 9776TIP3    H129261   4.580   2.026   3.976  1.0463 -0.5973 -1.9780
 9776TIP3    H229262   4.670   2.013   4.096 -0.9342 -1.2829 -0.5488
 9777TIP3   OH229263   6.789   5.278   0.184 -0.0934  0.0416 -0.1389
 9777TIP3    H129264   6.718   5.269   0.247  1.2941  0.8738  1.5695
 9777TIP3    H229265   6.847   5.204   0.203  0.5869  0.5841 -0.1108
 9778TIP3   OH229266   4.652   1.025   6.366  0.2124  0.3729 -0.2741
 9778TIP3    H129267   4.569   1.019   6.319  0.2662 -0.2312 -0.2915
 9778TIP3    H229268   4.631   1.077   6.444 -0.0520  0.7004 -0.5614
 9779TIP3   OH229269   0.576   3.894   0.324 -0.3176  0.1740 -0.2850
 9779TIP3    H129270   0.631   3.824   0.289  1.1845  0.0968  2.1003
 9779TIP3    H229271   0.499   3.895   0.267  0.1387 -2.6845 -1.0245
 9780TIP3   OH229272   7.503   4.092   0.018  0.4731  0.2942  0.4670
 9780TIP3    H129273   7.519   4.172   0.068  3.3665  0.9865 -1.3969
 9780TIP3    H229274   7.434   4.115  -0.043  0.3861  0.9599  0.8131
 9781TIP3   OH229275   3.476   0.325   6.273 -0.4887 -0.6015 -0.2116
 9781TIP3    H129276   3.402   0.383   6.290 -1.6488 -1.9760 -0.5567
 9781TIP3    H229277   3.437   0.240   6.254  1.1446 -1.1611 -1.1647
 9782TIP3   OH229278   6.410   0.975   6.558 -0.1201 -0.3508 -0.0773
 9782TIP3    H129279   6.396   0.908   6.625  0.7485 -0.3124  0.1460
 9782TIP3    H229280   6.474   1.035   6.597  0.4354 -0.3617 -0.9536
 9783TIP3   OH229281   4.039   1.140   6.434  0.1475  0.2634  0.2748
 9783TIP3    H129282   4.069   1.143   6.343 -1.7776  2.7349 -0.3458
 9783TIP3    H229283   4.063   1.226   6.469 -1.3051  0.2405  1.3621
 9784TIP3   OH229284   1.232   7.897   5.558 -0.4104 -0.2760  0.3066
 9784TIP3    H129285   1.277   7.839   5.621 -1.0627 -0.6744  0.4170
 9784TIP3    H229286   1.166   7.941   5.611 -0.2141  0.2326  0.1240
 9785TIP3   OH229287   6.942   3.353   0.881  0.1450 -0.0887  0.6920
 9785TIP3    H129288   6.879   3.336   0.951  2.4788 -0.5281  2.7797
 9785TIP3    H229289   6.926   3.444   0.856 -1.3299 -0.2060  1.1527
 9786TIP3   OH229290   1.797   6.894   6.364  0.0805  0.3592 -0.6303
 9786TIP3    H129291   1.811   6.963   6.428 -1.1113 -0.2679  0.3110
 9786TIP3    H229292   1.724   6.924   6.310 -0.8717 -0.4340  0.1910
 9787TIP3   OH229293   7.085   4.778   0.300  0.5538  0.1880  0.6350
 9787TIP3    H129294   7.072   4.713   0.369  1.4494 -0.6679 -0.0002
 9787TIP3    H229295   7.102   4.860   0.348 -0.4170 -0.0650  1.4323
 9788TIP3   OH229296   6.975   3.678   6.343  0.3293 -0.1798  0.0949
 9788TIP3    H129297   7.053   3.734   6.345  0.2348  0.0385 -1.7375
 9788TIP3    H229298   6.915   3.723   6.284 -0.5356 -1.2046  0.1882
 9789TIP3   OH229299   7.440   4.393   0.529  0.1882  0.1075 -0.0797
 9789TIP3    H129300   7.438   4.479   0.572 -0.6739 -0.4026  0.9160
 9789TIP3    H229301   7.422   4.331   0.600 -0.1779 -0.8233 -0.9884
 9790TIP3   OH229302   3.192   0.677   6.064  0.6740 -0.4077 -0.1783
 9790TIP3    H129303   3.226   0.762   6.094  0.2251 -0.2137 -0.2188
 9790TIP3    H229304   3.254   0.650   5.996  1.0914 -0.3460  0.1712
 9791TIP3   OH229305   7.250   4.383   1.199 -0.1379 -0.2636  0.0749
 9791TIP3    H129306   7.275   4.293   1.178 -3.2660 -0.6221 -2.5755
 9791TIP3    H229307   7.238   4.383   1.294  1.7663 -2.1269  0.3476
 9792TIP3   OH229308   0.206   6.798   1.155 -0.4623  0.6157  0.8073
 9792TIP3    H129309   0.150   6.741   1.208 -2.2727  0.1604 -1.5019
 9792TIP3    H229310   0.151   6.875   1.138  0.0777  0.7308 -0.4270
 9793TIP3   OH229311   2.381   7.184   5.653  0.3309 -0.1172  0.1745
 9793TIP3    H129312   2.331   7.265   5.665 -0.7677 -0.7654  0.0856
 9793TIP3    H229313   2.326   7.116   5.694  0.4446 -1.0749 -1.2282
 9794TIP3   OH229314   7.061   1.155   5.929  0.4963 -0.4466 -0.1747
 9794TIP3    H129315   7.115   1.115   5.860  1.6495  0.3774  0.2411
 9794TIP3    H229316   7.033   1.238   5.891 -0.1185 -0.6679 -0.2121
 9795TIP3   OH229317   0.024   3.826   1.872  0.1919  0.1162 -0.4412
 9795TIP3    H129318   0.013   3.918   1.845 -0.9260  0.0217 -0.3387
 9795TIP3    H229319   0.110   3.802   1.838  0.8767  1.4640  0.2944
 9796TIP3   OH229320   4.877   0.200   5.550 -0.2394 -0.5166  0.2580
 9796TIP3    H129321   4.793   0.231   5.516  0.0164 -0.3795 -0.2450
 9796TIP3    H229322   4.878   0.107   5.529 -1.5941 -1.1917  2.9456
 9797TIP3   OH229323   7.210   5.984   0.687  0.2272  0.5296  0.0519
 9797TIP3    H129324   7.182   6.020   0.772 -1.7697  0.2204 -0.4549
 9797TIP3    H229325   7.180   5.893   0.689  1.7074  0.0325 -0.2969
 9798TIP3   OH229326   3.823   0.828   4.595  0.1986 -0.5990  0.3908
 9798TIP3    H129327   3.766   0.787   4.530 -0.2287 -0.5488  0.7301
 9798TIP3    H229328   3.889   0.761   4.614  0.6631 -0.4055 -0.5121
 9799TIP3   OH229329   2.876   7.530   6.876  0.2166  0.3278 -0.2386
 9799TIP3    H129330   2.790   7.499   6.904 -0.4488  1.6308 -0.7600
 9799TIP3    H229331   2.911   7.460   6.821  0.3559 -1.0627  1.5780
 9800TIP3   OH229332   6.521   1.639   5.846 -0.0657  0.1474  0.1667
 9800TIP3    H129333   6.564   1.557   5.871 -1.6552 -0.6996  0.1526
 9800TIP3    H229334   6.513   1.688   5.928 -0.5116 -0.3697  0.4305
 9801TIP3   OH229335   7.296   3.479   5.303 -0.1906  0.4476 -0.3124
 9801TIP3    H129336   7.290   3.411   5.370  1.2646  2.3071  1.7767
 9801TIP3    H229337   7.378   3.461   5.257  0.1445  0.7178  0.1758
 9802TIP3   OH229338   8.423   4.542   0.953 -0.0708 -0.0193 -0.0983
 9802TIP3    H129339   8.330   4.520   0.946  0.3409 -1.1741 -2.0214
 9802TIP3    H229340   8.444   4.588   0.872  1.2978 -0.7636 -0.1875
 9803TIP3   OH229341   4.823   0.734   6.763  0.0246 -0.7817  0.1529
 9803TIP3    H129342   4.776   0.724   6.681 -1.3146 -2.5996  1.1181
 9803TIP3    H229343   4.791   0.817   6.799 -1.3037 -1.2543  0.0690
 9804TIP3   OH229344   0.662   6.964   0.540 -0.1068  0.2319 -0.0807
 9804TIP3    H129345   0.726   7.032   0.519  0.0544 -0.2076 -1.0216
 9804TIP3    H229346   0.581   6.994   0.498 -0.3663  0.4734  0.5802
 9805TIP3   OH229347   5.845   3.260   0.412  0.1239  0.3022  0.3819
 9805TIP3    H129348   5.864   3.353   0.401  2.5036 -0.1382  0.5219
 9805TIP3    H229349   5.912   3.228   0.473 -0.2282 -1.6292 -0.1970
 9806TIP3   OH229350   0.392   5.178   0.726 -0.3008 -0.0126  0.5702
 9806TIP3    H129351   0.435   5.244   0.672 -0.1330 -1.4067 -1.0243
 9806TIP3    H229352   0.331   5.134   0.667 -1.3655 -0.4194  1.9335
 9807TIP3   OH229353   7.456   4.529   1.022 -0.2117  0.0578 -0.4921
 9807TIP3    H129354   7.434   4.485   1.104  1.4022  0.6689  0.3017
 9807TIP3    H229355   7.414   4.615   1.029  0.4974  0.3725  0.0224
 9808TIP3   OH229356   1.508   5.841   0.935 -0.1792 -0.0767  0.5046
 9808TIP3    H129357   1.478   5.802   0.853  0.4075 -0.0567  0.2790
 9808TIP3    H229358   1.575   5.905   0.908 -1.1696  1.1234  0.8616
 9809TIP3   OH229359   6.919   4.328   4.777  0.3211 -0.1056  0.3720
 9809TIP3    H129360   6.831   4.289   4.779 -0.5298  1.7800  1.0941
 9809TIP3    H229361   6.964   4.281   4.707 -2.4350  1.2510 -2.4334
 9810TIP3   OH229362   5.277   5.701   0.185  0.3239 -0.1432 -0.1339
 9810TIP3    H129363   5.207   5.731   0.243  0.3203  0.1224 -0.2773
 9810TIP3    H229364   5.245   5.721   0.097  0.6178  0.0468 -0.1954
 9811TIP3   OH229365   4.882  -0.001   6.785 -0.0609 -0.3841 -0.0806
 9811TIP3    H129366   4.901   0.087   6.753  0.1728 -0.5034 -0.2677
 9811TIP3    H229367   4.825   0.014   6.861  0.9693 -0.0092  0.6362
 9812TIP3   OH229368   2.622   7.455   3.987  0.1112 -0.2222 -0.5864
 9812TIP3    H129369   2.708   7.447   4.028 -0.6503 -1.9497  0.7289
 9812TIP3    H229370   2.587   7.538   4.021  0.3992 -0.5544  0.5356
 9813TIP3   OH229371   7.465   5.478   0.528  0.1157  0.1813  0.2979
 9813TIP3    H129372   7.430   5.430   0.603  0.1956  0.3491  0.4415
 9813TIP3    H229373   7.537   5.424   0.496 -0.2902 -0.1866 -0.0202
 9814TIP3   OH229374   6.605   3.084   5.158 -0.5625  0.2402 -0.3565
 9814TIP3    H129375   6.677   3.122   5.209 -0.0669 -0.1497 -0.7639
 9814TIP3    H229376   6.528   3.132   5.187 -0.0460  1.0848 -0.3644
 9815TIP3   OH229377   5.140   0.308   4.781  0.3508 -0.5099 -0.0006
 9815TIP3    H129378   5.182   0.335   4.699 -0.1212 -0.4296 -0.2152
 9815TIP3    H229379   5.071   0.247   4.754  0.1100 -0.3848  0.3254
 9816TIP3   OH229380   5.433   0.534   6.169  0.1040 -0.4829 -0.4023
 9816TIP3    H129381   5.421   0.563   6.259 -0.8375  0.4715 -0.8224
 9816TIP3    H229382   5.513   0.578   6.140 -0.6641  0.7560 -0.6536
 9817TIP3   OH229383   1.467   6.497   6.129  0.2489 -0.2147  0.1121
 9817TIP3    H129384   1.480   6.412   6.087 -0.1657 -0.4190  0.3887
 9817TIP3    H229385   1.415   6.477   6.207 -0.0439  0.3276  0.0550
 9818TIP3   OH229386   5.281   1.129   5.397 -0.1275 -0.3896  0.0986
 9818TIP3    H129387   5.374   1.114   5.378  0.1925  2.4923 -0.9015
 9818TIP3    H229388   5.281   1.162   5.487 -0.0707  0.2876 -0.1407
 9819TIP3   OH229389   8.384   4.721   0.429  0.6273  0.2822 -0.2183
 9819TIP3    H129390   8.420   4.723   0.518 -0.1623 -1.4793  0.1642
 9819TIP3    H229391   8.324   4.646   0.429  0.0563  0.7119 -2.0267
 9820TIP3   OH229392   0.708   3.068  -0.003  0.1072 -0.2512  0.0923
 9820TIP3    H129393   0.648   3.135  -0.037 -0.5940 -0.1204  1.5403
 9820TIP3    H229394   0.684   3.059   0.089  0.4937 -2.1914  0.0234
 9821TIP3   OH229395   7.565   4.498   0.284 -0.1496 -0.3437 -0.3361
 9821TIP3    H129396   7.542   4.585   0.251  0.9580  1.2186  2.7604
 9821TIP3    H229397   7.493   4.475   0.343  0.0808 -1.0238 -0.3177
 9822TIP3   OH229398   0.622   5.687   0.338  0.2589 -0.1779  0.0145
 9822TIP3    H129399   0.566   5.716   0.410 -2.6098 -0.4809 -2.0096
 9822TIP3    H229400   0.641   5.767   0.289 -0.7249 -0.4561 -0.8460
 9823TIP3   OH229401   4.175   1.395   5.502 -0.4582  0.3702  0.4290
 9823TIP3    H129402   4.123   1.341   5.562 -0.1709 -0.2053  0.1681
 9823TIP3    H229403   4.114   1.418   5.432 -1.3183  2.5853  1.8384
 9824TIP3   OH229404   3.831   1.476   5.028 -0.0434  0.2199  0.2462
 9824TIP3    H129405   3.798   1.449   4.943  0.3117 -0.1267  0.2215
 9824TIP3    H229406   3.901   1.414   5.049  0.2640  0.6514  0.5264
 9825TIP3   OH229407   8.069   0.883   5.751  0.6564  0.2716 -0.3920
 9825TIP3    H129408   8.127   0.955   5.728  1.4106 -0.3636 -0.5053
 9825TIP3    H229409   7.982   0.922   5.756  0.5619  0.5794 -3.5570
 9826TIP3   OH229410   7.176   5.077   0.077 -0.0586 -0.5178 -0.6136
 9826TIP3    H129411   7.190   5.128  -0.003  0.0010  0.1546 -0.1751
 9826TIP3    H229412   7.227   5.123   0.144 -1.7397  0.0867  0.2694
 9827TIP3   OH229413   6.857   7.707   1.320  0.3594 -0.3246  0.1070
 9827TIP3    H129414   6.829   7.721   1.410  2.1895 -0.5556  0.7416
 9827TIP3    H229415   6.836   7.788   1.275  0.3956  0.1849  0.9985
 9828TIP3   OH229416   4.640   0.689   6.533 -0.0686 -0.1026 -0.4172
 9828TIP3    H129417   4.696   0.721   6.462 -2.0584  2.0518 -1.0835
 9828TIP3    H229418   4.553   0.724   6.512 -0.6923  0.6495  3.1444
 9829TIP3   OH229419   5.956   2.936   6.945  0.2949 -0.1147 -0.2794
 9829TIP3    H129420   5.944   2.843   6.927 -0.8297 -0.0049 -0.0865
 9829TIP3    H229421   6.006   2.968   6.870 -1.3851 -0.3825 -1.5381
 9830TIP3   OH229422   2.023   7.325   5.827  0.0483  0.3786 -0.5952
 9830TIP3    H129423   2.053   7.416   5.816  1.6235 -0.1555 -0.7524
 9830TIP3    H229424   2.100   7.278   5.857 -0.6305 -1.0309 -1.0514
 9831TIP3   OH229425   0.285   4.014   2.146  0.1277  0.4284 -0.2312
 9831TIP3    H129426   0.218   3.946   2.138  1.3285 -0.7061 -0.8493
 9831TIP3    H229427   0.262   4.078   2.079  0.5902 -0.7876 -1.5869
 9832TIP3   OH229428   3.341   0.607   6.940 -0.7544 -0.2557 -0.1941
 9832TIP3    H129429   3.353   0.639   6.850 -1.2032  1.0608  0.2034
 9832TIP3    H229430   3.411   0.542   6.952 -0.1801  0.1606 -1.2117
 9833TIP3   OH229431   5.783   0.490   6.771  0.2739  0.0341  0.1301
 9833TIP3    H129432   5.754   0.579   6.789  1.0816  0.4279 -0.4633
 9833TIP3    H229433   5.719   0.456   6.708  1.5753  1.2240 -1.9157
 9834TIP3   OH229434   5.799   0.239   4.572 -0.2509  0.0875  0.3400
 9834TIP3    H129435   5.886   0.243   4.613 -0.4495 -0.1996  0.7855
 9834TIP3    H229436   5.738   0.253   4.643 -0.6170 -0.8943  0.2301
 9835TIP3   OH229437   6.629   2.595   6.725  0.2048 -0.3293 -0.2243
 9835TIP3    H129438   6.558   2.547   6.683  0.8806 -0.3253 -1.4029
 9835TIP3    H229439   6.647   2.668   6.665  0.2399  0.4870  0.7761
 9836TIP3   OH229440   0.917   1.732   2.863 -0.1357 -0.5122 -0.1699
 9836TIP3    H129441   0.934   1.804   2.802  0.9681 -0.2737  0.3965
 9836TIP3    H229442   0.829   1.702   2.842 -1.2234  2.0212  0.6137
 9837TIP3   OH229443   7.355   3.771   1.394 -0.1883 -0.7640  0.1841
 9837TIP3    H129444   7.373   3.704   1.459  1.6716  0.2051  0.7095
 9837TIP3    H229445   7.357   3.854   1.443  0.5033 -0.0907 -0.9489
 9838TIP3   OH229446   1.351   3.881   2.279  0.4296 -0.1391  0.2584
 9838TIP3    H129447   1.398   3.888   2.196  0.2537 -0.7790  0.1066
 9838TIP3    H229448   1.409   3.828   2.335 -0.2784 -1.2656 -0.0550
 9839TIP3   OH229449   5.452   1.890   5.788  0.4841 -0.8808 -0.9805
 9839TIP3    H129450   5.399   1.902   5.709  0.4115  1.6303 -0.5753
 9839TIP3    H229451   5.533   1.850   5.756  0.8127  0.9149 -2.4803
 9840TIP3   OH229452   2.342   7.386   4.483  0.6152  0.0176  0.1757
 9840TIP3    H129453   2.256   7.349   4.468  0.7580 -0.2147 -0.0635
 9840TIP3    H229454   2.402   7.327   4.439  0.7973  0.8460 -0.6985
 9841TIP3   OH229455   2.862   7.244   6.773 -0.0859  0.3277 -0.4912
 9841TIP3    H129456   2.886   7.300   6.700 -0.0277  1.8918  0.7077
 9841TIP3    H229457   2.803   7.178   6.734 -1.0610  1.8839 -1.6947
 9842TIP3   OH229458   4.823   1.728   5.949 -0.7470 -0.4870  0.1181
 9842TIP3    H129459   4.866   1.798   5.900 -1.0790  1.6839  2.7992
 9842TIP3    H229460   4.880   1.652   5.938  0.7535  0.7824 -1.0940
 9843TIP3   OH229461   0.931   1.818   2.487 -0.3294 -0.4941  0.1436
 9843TIP3    H129462   0.946   1.872   2.565 -2.3297 -0.7635  0.7508
 9843TIP3    H229463   0.955   1.873   2.413  1.0275 -0.0261  0.9361
 9844TIP3   OH229464   0.190   4.187   0.224 -0.0106 -0.0658 -0.0302
 9844TIP3    H129465   0.277   4.191   0.184 -0.7421 -2.4886 -1.9581
 9844TIP3    H229466   0.130   4.215   0.155 -0.8045  1.6467  1.3083
 9845TIP3   OH229467   7.719   3.580   0.421 -0.2345 -0.0697  0.1387
 9845TIP3    H129468   7.777   3.528   0.365  0.4953 -0.4323  1.2207
 9845TIP3    H229469   7.746   3.671   0.406 -0.5782 -0.0956 -0.6937
 9846TIP3   OH229470   7.850   5.422   0.797 -0.7656  0.4089 -0.1974
 9846TIP3    H129471   7.834   5.329   0.784 -1.5872  0.3416  1.1503
 9846TIP3    H229472   7.844   5.434   0.892  1.4140  1.4656 -0.1482
 9847TIP3   OH229473   4.048   7.490   5.545 -0.6197  0.1863 -0.2755
 9847TIP3    H129474   4.043   7.395   5.559  1.3266 -0.0332 -1.0466
 9847TIP3    H229475   4.095   7.500   5.463  0.7126  1.8712  0.6711
 9848TIP3   OH229476   4.419   1.177   6.125  0.1153 -0.5854 -0.3150
 9848TIP3    H129477   4.399   1.177   6.032  0.4284  2.0367 -0.4338
 9848TIP3    H229478   4.440   1.269   6.145 -0.0329 -1.0815  2.3434
 9849TIP3   OH229479   4.029   2.285   6.542  0.4266  0.0092 -0.8199
 9849TIP3    H129480   4.097   2.347   6.514 -1.1156  1.2904 -1.8302
 9849TIP3    H229481   3.952   2.310   6.491 -0.9605 -1.0748  0.7036
 9850TIP3   OH229482   3.857   1.698   6.647  0.0653  0.1837 -0.4958
 9850TIP3    H129483   3.854   1.652   6.731  1.8543 -0.3827 -0.7342
 9850TIP3    H229484   3.841   1.631   6.581  0.8132  0.2355 -0.7339
 9851TIP3   OH229485   3.706   0.009   6.850 -0.0378  0.4099  0.7589
 9851TIP3    H129486   3.666   0.067   6.915  0.3573 -0.4615  1.8004
 9851TIP3    H229487   3.790  -0.015   6.888 -0.3676 -1.1652  0.5358
 9852TIP3   OH229488   6.407   2.902   6.369  0.3293  0.4156  0.1524
 9852TIP3    H129489   6.454   2.963   6.313  0.7847  0.7158  0.8507
 9852TIP3    H229490   6.410   2.819   6.322  0.6558  0.6803 -0.2959
 9853TIP3   OH229491   2.204   6.241   1.334  0.8146 -0.0242 -0.3359
 9853TIP3    H129492   2.128   6.293   1.359  1.1980  0.2422  0.2877
 9853TIP3    H229493   2.278   6.299   1.347  1.1741 -0.4532 -0.4359
 9854TIP3   OH229494   7.306   5.280   0.649  0.0279 -0.3267 -0.0343
 9854TIP3    H129495   7.271   5.302   0.735  2.3252  1.3999  0.5100
 9854TIP3    H229496   7.233   5.292   0.589 -1.8324 -2.3318  1.7483
 9855TIP3   OH229497   8.206   3.194   5.153  0.6229 -0.2524  0.0687
 9855TIP3    H129498   8.298   3.199   5.181  0.4343  0.4615  0.5622
 9855TIP3    H229499   8.170   3.121   5.203  0.6477  0.1385  0.6688
 9856TIP3   OH229500   5.140   1.956   6.875  0.0076  0.4911  0.0872
 9856TIP3    H129501   5.200   2.031   6.873 -0.1493  0.7296  2.6882
 9856TIP3    H229502   5.067   1.983   6.820  0.1180  2.1173  0.7135
 9857TIP3   OH229503   8.080   6.934   0.485 -0.3053  0.1551  0.7441
 9857TIP3    H129504   8.091   6.867   0.552  0.3817 -0.0237  0.4547
 9857TIP3    H229505   7.997   6.912   0.442 -0.1498 -0.4203  0.7434
 9858TIP3   OH229506   1.152   2.548   6.390 -0.2430 -0.1799 -0.1887
 9858TIP3    H129507   1.062   2.580   6.393  0.5753  2.3258 -1.1993
 9858TIP3    H229508   1.162   2.512   6.302 -0.3973 -0.9415  0.0994
 9859TIP3   OH229509   4.615   0.016   5.683 -0.0066  0.4577  0.2075
 9859TIP3    H129510   4.536   0.008   5.631  0.2815 -1.3063  0.0197
 9859TIP3    H229511   4.686  -0.011   5.624  0.7463  1.8988  0.4085
 9860TIP3   OH229512   5.506   3.453   5.254 -0.6153 -0.0891 -0.4127
 9860TIP3    H129513   5.534   3.480   5.342  0.0708 -1.8621 -0.0672
 9860TIP3    H229514   5.584   3.463   5.200 -0.1764 -1.9554 -0.1439
 9861TIP3   OH229515   0.081   4.339   1.022 -0.1499  0.1854  0.0266
 9861TIP3    H129516   0.037   4.422   1.005  1.0727  0.8608  0.0425
 9861TIP3    H229517   0.034   4.301   1.095 -1.8207  0.0215 -1.1036
 9862TIP3   OH229518   8.453   6.202   0.471  0.2671  0.4952  0.2079
 9862TIP3    H129519   8.420   6.199   0.561 -1.5694 -2.0054 -0.4708
 9862TIP3    H229520   8.460   6.295   0.451  0.6685  1.0950  2.9073
 9863TIP3   OH229521   2.460   3.923   0.075 -0.6053 -0.5582 -0.2932
 9863TIP3    H129522   2.405   3.893   0.147 -0.0076 -0.3595  0.2465
 9863TIP3    H229523   2.485   3.843   0.029 -0.4712 -0.7350  0.0886
 9864TIP3   OH229524   0.993   5.424   0.615 -0.0016  0.2858 -0.2927
 9864TIP3    H129525   0.925   5.364   0.587  0.3171 -0.4556  0.5018
 9864TIP3    H229526   1.075   5.382   0.589  0.2042  0.6813 -0.3013
 9865TIP3   OH229527   7.209   3.756   0.075  0.2102  0.2552 -0.2599
 9865TIP3    H129528   7.186   3.818   0.006  0.3486  0.2979 -0.2663
 9865TIP3    H229529   7.280   3.798   0.123 -0.8268  0.8559  0.7722
 9866TIP3   OH229530   2.977   7.931   6.530  0.2403 -0.3923 -0.2715
 9866TIP3    H129531   2.909   7.878   6.571 -0.1712  0.8207  0.6534
 9866TIP3    H229532   2.989   7.893   6.443  1.5049 -3.3595  1.1421
 9867TIP3   OH229533   6.182   1.823   6.325  0.1790 -0.1775 -0.1028
 9867TIP3    H129534   6.154   1.787   6.241 -0.7832  0.3578 -0.0240
 9867TIP3    H229535   6.270   1.858   6.308  0.0439 -0.1923 -0.8554
 9868TIP3   OH229536   5.793   2.998   0.686 -0.0212  0.1225  0.0940
 9868TIP3    H129537   5.716   2.942   0.682 -1.5525  2.2922 -2.6004
 9868TIP3    H229538   5.848   2.967   0.614 -0.5192  1.5420 -0.9156
 9869TIP3   OH229539   6.364   3.710   0.210  0.1927  0.8265 -0.0615
 9869TIP3    H129540   6.324   3.789   0.174  2.6836  1.9668 -0.4434
 9869TIP3    H229541   6.423   3.680   0.140  0.4367 -0.4709  0.6897
 9870TIP3   OH229542   1.249   5.450   0.851 -0.6516 -0.5319  0.2484
 9870TIP3    H129543   1.316   5.385   0.874  0.5036  0.9434  1.1613
 9870TIP3    H229544   1.187   5.447   0.924 -0.4761 -0.4568  0.4021
 9871TIP3   OH229545   8.071   5.520   1.254  0.0603 -0.0042  0.2685
 9871TIP3    H129546   8.068   5.608   1.291  0.6351  0.8614 -1.7007
 9871TIP3    H229547   8.162   5.506   1.231 -0.5211  0.0886 -2.2200
 9872TIP3   OH229548   7.503   4.774   0.215  0.5690  0.1242 -0.8956
 9872TIP3    H129549   7.472   4.764   0.305  0.7103 -1.3120 -0.9865
 9872TIP3    H229550   7.505   4.868   0.200 -0.0058  0.3537  0.4140
 9873TIP3   OH229551   7.267   1.647   6.402 -0.1588  0.3237  0.5879
 9873TIP3    H129552   7.357   1.674   6.386  0.3298 -0.6883  1.5546
 9873TIP3    H229553   7.223   1.725   6.434  0.9908  0.2225  2.4568
 9874TIP3   OH229554   6.057   2.891   6.071  0.4593 -0.0480 -1.1409
 9874TIP3    H129555   5.986   2.916   6.130  0.6185  2.2903 -1.8961
 9874TIP3    H229556   6.016   2.891   5.984  0.9692 -0.4959 -1.3861
 9875TIP3   OH229557   7.718   6.073   0.237  0.1297  0.0323  0.1527
 9875TIP3    H129558   7.653   6.006   0.261 -0.4629  1.0326  1.4293
 9875TIP3    H229559   7.668   6.155   0.235  0.9033  0.4747 -1.1249
 9876TIP3   OH229560   5.721   3.086   5.548  0.2459 -0.7056  0.0269
 9876TIP3    H129561   5.758   2.998   5.540  1.3510 -0.3436  1.0071
 9876TIP3    H229562   5.748   3.116   5.635  1.1360  1.1618 -0.8520
 9877TIP3   OH229563   0.267   7.429   1.346  0.1594  0.5015  0.2952
 9877TIP3    H129564   0.214   7.373   1.403 -1.7580  0.7276 -1.2093
 9877TIP3    H229565   0.355   7.391   1.350 -0.5636 -1.1322  1.2069
 9878TIP3   OH229566   0.624   5.255   2.032 -0.6884  0.4784  0.1968
 9878TIP3    H129567   0.529   5.262   2.041 -0.4696  2.9128  1.1758
 9878TIP3    H229568   0.658   5.311   2.102  1.4605 -0.5158 -0.0289
 9879TIP3   OH229569   8.108   4.629   0.377 -0.7877 -0.3513 -0.1751
 9879TIP3    H129570   8.035   4.657   0.432 -1.6432 -2.0690 -0.4140
 9879TIP3    H229571   8.118   4.535   0.396  0.1486 -0.5391 -1.5269
 9880TIP3   OH229572   7.244   2.772   6.635 -0.3921 -0.4212  0.2619
 9880TIP3    H129573   7.177   2.709   6.663 -2.2411  1.3183 -0.1804
 9880TIP3    H229574   7.246   2.838   6.703  0.0691  0.1505 -0.2988
 9881TIP3   OH229575   6.135   1.378   6.263  0.1515 -0.3246  0.6496
 9881TIP3    H129576   6.215   1.410   6.222  1.4009 -3.5323  0.4532
 9881TIP3    H229577   6.149   1.392   6.357 -0.4539  2.0719  0.4122
 9882TIP3   OH229578   0.237   6.380   1.100  0.2882  0.2919 -0.8150
 9882TIP3    H129579   0.306   6.446   1.094 -0.4161  1.0170 -1.0223
 9882TIP3    H229580   0.283   6.297   1.086  1.3384  0.6410  0.4314
 9883TIP3   OH229581   7.934   4.034   2.077  0.2225  0.0784 -0.5278
 9883TIP3    H129582   8.017   4.080   2.092 -1.3632  3.8309 -2.7544
 9883TIP3    H229583   7.939   4.005   1.986 -0.3050 -1.1224 -0.1915
 9884TIP3   OH229584   5.705   1.828   5.700 -0.0875 -0.1728  0.3304
 9884TIP3    H129585   5.782   1.774   5.684 -0.8729 -1.0571 -0.4660
 9884TIP3    H229586   5.724   1.910   5.653  0.0415 -0.6695 -0.4909
 9885TIP3   OH229587   6.934   4.538   2.135  0.4246 -0.2189 -0.5616
 9885TIP3    H129588   6.928   4.443   2.148 -1.6708  0.1514  1.5273
 9885TIP3    H229589   6.879   4.555   2.059  0.4744 -0.6136 -0.6900
 9886TIP3   OH229590   0.481   3.119   6.746 -0.4641 -0.2594 -0.3050
 9886TIP3    H129591   0.563   3.154   6.780 -1.3467 -0.1131  1.7921
 9886TIP3    H229592   0.492   3.119   6.651  1.5228  0.7914 -0.1065
 9887TIP3   OH229593   7.530   3.668   6.611 -0.2263  0.0339  0.0688
 9887TIP3    H129594   7.613   3.654   6.564 -0.2942 -1.5771  0.3879
 9887TIP3    H229595   7.511   3.583   6.650 -2.6127  0.0598 -0.9418
 9888TIP3   OH229596   7.538   1.496   6.063 -0.5091 -0.0732  0.7937
 9888TIP3    H129597   7.580   1.411   6.048  1.3477  0.9120  0.1254
 9888TIP3    H229598   7.609   1.552   6.096 -0.4093  2.5442 -3.4290
 9889TIP3   OH229599   7.460   3.245   3.688  0.2520  0.1516 -0.7067
 9889TIP3    H129600   7.374   3.203   3.691  1.2148 -1.7871 -0.0629
 9889TIP3    H229601   7.475   3.263   3.595 -1.2137  1.3278 -0.7432
 9890TIP3   OH229602   5.790   6.742   1.121  0.1974  0.6987 -0.5740
 9890TIP3    H129603   5.782   6.741   1.026  0.4727 -0.6530 -0.6019
 9890TIP3    H229604   5.708   6.781   1.152 -1.1649 -1.4879 -1.2760
 9891TIP3   OH229605   0.932   6.239   1.069 -0.3542  0.7689  0.0026
 9891TIP3    H129606   0.972   6.314   1.026  0.1873  0.5473  0.1091
 9891TIP3    H229607   0.958   6.163   1.016 -1.0402  0.6701 -0.2047
 9892TIP3   OH229608   1.862   5.813   0.288 -0.2241 -0.1511 -0.3686
 9892TIP3    H129609   1.905   5.742   0.241 -0.2933 -0.4030 -0.0564
 9892TIP3    H229610   1.771   5.809   0.259 -1.1687 -2.7507  2.5874
 9893TIP3   OH229611   8.217   1.465   5.504  0.4153 -0.1832 -0.0718
 9893TIP3    H129612   8.257   1.520   5.436  1.4007 -1.7774 -0.8181
 9893TIP3    H229613   8.269   1.384   5.503 -0.6078 -0.8776  1.4333
 9894TIP3   OH229614   1.998   5.388   0.211 -0.0998 -0.2761  0.6052
 9894TIP3    H129615   1.949   5.309   0.234  0.1603 -0.4804  0.4597
 9894TIP3    H229616   2.073   5.388   0.270  0.4741 -0.7091 -0.1238
 9895TIP3   OH229617   0.591   7.816   0.952  0.2756 -0.0379  0.3261
 9895TIP3    H129618   0.514   7.873   0.946 -0.2436 -0.8898 -1.7445
 9895TIP3    H229619   0.567   7.738   0.903  2.1785 -0.6669  0.3379
 9896TIP3   OH229620   5.520   6.920   5.207 -0.1689 -0.0180 -0.5318
 9896TIP3    H129621   5.494   7.008   5.235 -0.7182 -0.6134  0.9112
 9896TIP3    H229622   5.438   6.880   5.177  0.2131  0.2053 -1.9128
 9897TIP3   OH229623   6.027   0.097   4.358  0.2131  0.5054  0.2088
 9897TIP3    H129624   5.981   0.175   4.327  0.1110  0.2188 -0.3728
 9897TIP3    H229625   6.119   0.122   4.358  0.3014  0.2468 -1.1566
 9898TIP3   OH229626   7.915   3.090   6.237  0.0792  0.4513 -0.0413
 9898TIP3    H129627   7.921   3.021   6.303  1.3216  0.6922  0.1184
 9898TIP3    H229628   7.830   3.130   6.251  0.2717  0.3946  1.3110
 9899TIP3   OH229629   1.375   5.275   0.064 -0.8284 -0.5371 -1.0731
 9899TIP3    H129630   1.337   5.252   0.148 -3.0968 -2.7936 -2.6430
 9899TIP3    H229631   1.460   5.231   0.062 -1.0914 -1.0786 -0.2656
 9900TIP3   OH229632   7.573   2.363   6.860  0.5818  0.2157 -0.7704
 9900TIP3    H129633   7.666   2.372   6.840  0.2382  1.1983 -1.9959
 9900TIP3    H229634   7.535   2.325   6.780 -0.2766  1.0804 -0.7919
 9901TIP3   OH229635   0.449   1.585   5.052  0.0066  0.0454  0.1480
 9901TIP3    H129636   0.532   1.548   5.022  1.1101  2.1528  0.5621
 9901TIP3    H229637   0.471   1.672   5.086 -2.1539  0.1127  1.5114
 9902TIP3   OH229638   2.451   5.799   0.379 -0.2417  0.3564 -0.2449
 9902TIP3    H129639   2.377   5.857   0.362 -0.0922  1.0658  1.4329
 9902TIP3    H229640   2.424   5.749   0.457  0.3843 -0.5089 -0.5850
 9903TIP3   OH229641   7.309   1.324   6.068 -0.2317 -0.0973  0.4155
 9903TIP3    H129642   7.344   1.249   6.115 -0.6891  0.0912  1.0604
 9903TIP3    H229643   7.229   1.292   6.027 -1.3021  0.4465  2.0223
 9904TIP3   OH229644   1.006   2.598   6.651  0.7608 -0.5258  0.4300
 9904TIP3    H129645   1.005   2.516   6.601 -1.5379 -0.7532  0.7676
 9904TIP3    H229646   1.000   2.570   6.742 -0.2493  0.0089  0.5361
 9905TIP3   OH229647   6.494   2.212   5.760  0.1768  0.4690  0.3669
 9905TIP3    H129648   6.428   2.281   5.769 -0.1162  0.0116  2.0089
 9905TIP3    H229649   6.458   2.153   5.695  0.1558  1.5581 -0.6215
 9906TIP3   OH229650   7.309   3.013   4.565  0.3143  0.0714 -0.4677
 9906TIP3    H129651   7.393   3.040   4.602 -0.7095  1.1815  1.1009
 9906TIP3    H229652   7.244   3.061   4.616 -1.2969 -1.0951 -1.3899
 9907TIP3   OH229653   0.708   0.541   3.714  0.5721  0.2511  0.3197
 9907TIP3    H129654   0.749   0.502   3.637  1.6330 -1.0944  1.5488
 9907TIP3    H229655   0.633   0.484   3.732  0.7054  0.1899  0.6735
 9908TIP3   OH229656   5.338   7.603   5.516 -0.0455  0.1503  0.0147
 9908TIP3    H129657   5.323   7.656   5.437  0.7119 -0.1345 -0.3200
 9908TIP3    H229658   5.359   7.516   5.483 -0.1685 -0.0801  0.5467
 9909TIP3   OH229659   0.715   6.174   0.177  0.2050 -0.0735  0.5656
 9909TIP3    H129660   0.680   6.178   0.088  1.5017  1.7374  0.0977
 9909TIP3    H229661   0.658   6.232   0.228  0.2849 -0.0357  0.6118
 9910TIP3   OH229662   4.213   7.936   5.876  0.1212 -0.3861 -0.1620
 9910TIP3    H129663   4.143   7.919   5.813  1.3445  1.0703 -2.0233
 9910TIP3    H229664   4.252   7.850   5.893 -0.4602 -0.8554 -1.1441
 9911TIP3   OH229665   7.401   2.649   5.217  0.5977  0.2106  0.5362
 9911TIP3    H129666   7.396   2.581   5.284  0.2433 -3.2310 -2.7738
 9911TIP3    H229667   7.332   2.626   5.155  1.4752  2.7385 -1.4527
 9912TIP3   OH229668   0.784   1.053   3.569 -0.2204  0.4612 -0.2942
 9912TIP3    H129669   0.704   1.102   3.551 -1.1411 -1.0563 -0.4316
 9912TIP3    H229670   0.812   1.082   3.656 -0.8386  1.0842 -0.3019
 9913TIP3   OH229671   6.443   3.971   4.292  0.5859 -0.2507  0.2876
 9913TIP3    H129672   6.406   3.932   4.371 -1.8151  0.0334 -0.6509
 9913TIP3    H229673   6.435   4.065   4.305 -1.4928 -0.2102 -1.0003
 9914TIP3   OH229674   3.085   6.065   0.375  0.3709 -0.0251  0.4622
 9914TIP3    H129675   3.029   6.015   0.434 -1.5217  1.6746  0.1425
 9914TIP3    H229676   3.125   6.132   0.432 -0.7705  1.0548  0.0160
 9915TIP3   OH229677   7.394   1.102   5.411 -0.2729  0.8176  0.0959
 9915TIP3    H129678   7.482   1.067   5.424  0.1973  1.8713 -0.2182
 9915TIP3    H229679   7.374   1.149   5.492 -0.9209 -0.1817  0.5328
 9916TIP3   OH229680   6.610   1.336   5.639  0.3128 -0.2910  0.0397
 9916TIP3    H129681   6.561   1.309   5.717 -0.2459 -2.0022 -0.8633
 9916TIP3    H229682   6.677   1.395   5.672 -1.7841  1.4012  1.4380
 9917TIP3   OH229683   7.857   1.911   6.028 -0.0963 -0.1949  0.2487
 9917TIP3    H129684   7.820   1.980   5.972  1.1141 -0.3578 -0.7744
 9917TIP3    H229685   7.898   1.959   6.100  0.1526  0.1250 -0.1018
 9918TIP3   OH229686   8.459   6.320   1.645 -0.2679  0.0327  0.2237
 9918TIP3    H129687   8.496   6.359   1.723 -0.9140  1.4386 -0.1476
 9918TIP3    H229688   8.390   6.381   1.618 -1.1902 -1.2759 -0.4799
 9919TIP3   OH229689   6.249   0.677   3.296  0.0695 -0.3441  0.4651
 9919TIP3    H129690   6.218   0.588   3.279  1.4676 -0.3223 -2.5839
 9919TIP3    H229691   6.182   0.733   3.257 -0.2091 -0.0796  1.3160
 9920TIP3   OH229692   7.432   2.008   6.850 -0.2758 -0.0162 -0.6388
 9920TIP3    H129693   7.449   2.057   6.930 -1.0340  0.7860 -0.9625
 9920TIP3    H229694   7.351   2.045   6.815 -0.2539 -0.7313 -1.4873
 9921TIP3   OH229695   7.059   0.602   3.446 -0.0482 -0.1583  0.2277
 9921TIP3    H129696   7.150   0.632   3.448 -0.2512  0.3755  2.2151
 9921TIP3    H229697   7.065   0.507   3.433  0.8022 -0.1786  0.7405
 9922TIP3   OH229698   0.953   6.531   0.457 -0.2212  0.2019  0.0737
 9922TIP3    H129699   0.891   6.590   0.500 -0.7080 -0.5009  0.3360
 9922TIP3    H229700   0.919   6.522   0.368 -1.3082 -1.3401  0.6394
 9923TIP3   OH229701   7.915   2.748   5.186  0.2348  0.3164 -0.1770
 9923TIP3    H129702   7.917   2.843   5.197  1.4115  0.3732 -0.7539
 9923TIP3    H229703   7.823   2.728   5.169  0.3535  1.7082 -2.8065
 9924TIP3   OH229704   8.159   0.966   5.188 -0.2096 -0.0762 -0.1960
 9924TIP3    H129705   8.219   0.961   5.112 -1.0371  3.5517 -1.2013
 9924TIP3    H229706   8.081   0.919   5.160  0.3382 -0.6872 -0.7263
 9925TIP3   OH229707   6.587   0.220   4.505  0.0523 -0.2758  0.3134
 9925TIP3    H129708   6.544   0.272   4.437 -1.0358  0.7028  1.7226
 9925TIP3    H229709   6.659   0.275   4.536  0.9836 -1.0095 -0.5117
 9926TIP3   OH229710   3.085   5.123   0.253 -0.2998  0.0820 -0.5447
 9926TIP3    H129711   3.104   5.208   0.214 -0.7130 -0.4210 -1.8664
 9926TIP3    H229712   3.166   5.074   0.245 -0.7127 -0.3994 -1.7749
 9927TIP3   OH229713   2.529   7.624   0.086  0.2179  0.9291  0.2682
 9927TIP3    H129714   2.551   7.695   0.146 -1.4653 -0.2658  2.3397
 9927TIP3    H229715   2.458   7.660   0.032 -0.2874  0.9837  0.9701
 9928TIP3   OH229716   5.666   2.720   5.885  0.7541  0.6139  0.0571
 9928TIP3    H129717   5.627   2.662   5.950  1.6812  0.6145  0.6182
 9928TIP3    H229718   5.620   2.699   5.804 -1.7830  1.9701  1.0929
 9929TIP3   OH229719   6.459   1.296   5.865 -0.1603  0.1188 -0.0161
 9929TIP3    H129720   6.375   1.341   5.860 -0.6058 -0.3940  2.3767
 9929TIP3    H229721   6.436   1.204   5.877  0.6672  0.2314  2.9389
 9930TIP3   OH229722   0.181   2.230   6.096  0.4529 -0.2609  0.4010
 9930TIP3    H129723   0.087   2.246   6.094  0.2753 -1.3813 -0.7222
 9930TIP3    H229724   0.190   2.137   6.077  1.8339  0.0385 -0.4560
 9931TIP3   OH229725   8.085   4.223   6.787 -0.3616  0.2259  0.2777
 9931TIP3    H129726   8.022   4.206   6.717  0.8821  0.4608 -0.9189
 9931TIP3    H229727   8.168   4.236   6.742  0.0503  2.5360  1.6249
 9932TIP3   OH229728   8.162   1.731   6.479  0.2173  0.0458  0.3295
 9932TIP3    H129729   8.250   1.708   6.448  0.4066  0.0822  0.8313
 9932TIP3    H229730   8.144   1.666   6.548 -0.8599 -1.0419 -0.9594
 9933TIP3   OH229731   6.041   0.830   3.872  1.0645  0.4954 -0.0352
 9933TIP3    H129732   6.065   0.742   3.900  1.9554  0.4939 -0.7647
 9933TIP3    H229733   5.960   0.818   3.822  1.8939 -0.1124 -1.2786
 9934TIP3   OH229734   0.441   6.086   0.682  0.5557  0.1100 -0.1708
 9934TIP3    H129735   0.393   6.164   0.713 -0.8457 -0.4628 -0.8685
 9934TIP3    H229736   0.503   6.068   0.752 -1.4805 -0.1968  1.6145
 9935TIP3   OH229737   6.395   1.239   6.177  0.1996 -0.1743  0.6854
 9935TIP3    H129738   6.402   1.322   6.131 -0.2399  0.1207  1.1401
 9935TIP3    H229739   6.408   1.261   6.269 -0.1151 -0.5781  0.8313
 9936TIP3   OH229740   7.437   2.660   6.376 -0.1246  0.2190 -0.5056
 9936TIP3    H129741   7.521   2.670   6.331  0.6910 -0.1415  0.9057
 9936TIP3    H229742   7.461   2.638   6.466 -1.7401 -0.1106 -0.1464
 9937TIP3   OH229743   7.873   1.414   4.342  0.6252  0.3632  0.0355
 9937TIP3    H129744   7.885   1.508   4.355  0.1211  0.6023 -1.1613
 9937TIP3    H229745   7.784   1.406   4.306  1.7811 -0.2885 -2.7860
 9938TIP3   OH229746   6.476   2.487   6.446 -0.6064 -0.0805 -0.6551
 9938TIP3    H129747   6.447   2.434   6.520 -0.9140 -0.8015 -1.2921
 9938TIP3    H229748   6.542   2.433   6.403  0.5444  0.8847 -0.1412
 9939TIP3   OH229749   6.829   1.213   6.828 -0.4007 -0.0018 -0.2795
 9939TIP3    H129750   6.900   1.243   6.885 -0.2368  1.3010 -1.1572
 9939TIP3    H229751   6.873   1.177   6.751 -0.6956  0.7521 -0.7973
 9940TIP3   OH229752   6.511   2.541   5.532  0.4904  0.4540  0.1079
 9940TIP3    H129753   6.512   2.589   5.450  0.5500 -1.5626 -1.1006
 9940TIP3    H229754   6.524   2.450   5.507 -0.0675 -0.2658  2.3050
 9941TIP3   OH229755   2.005   5.536   1.491  0.0110  0.1320  0.1092
 9941TIP3    H129756   2.071   5.538   1.560 -0.1126  1.0707  0.2114
 9941TIP3    H229757   2.046   5.581   1.417 -0.7784  1.4533  0.4402
 9942TIP3   OH229758   7.632   1.231   6.764 -0.0313 -0.3634  0.5105
 9942TIP3    H129759   7.649   1.144   6.799 -0.6971 -1.2520 -1.3236
 9942TIP3    H229760   7.597   1.216   6.676  0.5020  1.7627 -0.1168
 9943TIP3   OH229761   6.755   1.177   5.849 -0.4193 -0.0772  0.5971
 9943TIP3    H129762   6.722   1.255   5.895  0.1286  1.2996 -1.2654
 9943TIP3    H229763   6.842   1.203   5.819 -0.5590 -1.1238 -0.7690
 9944TIP3   OH229764   0.397   2.794   6.508  0.0111 -0.6104 -0.3010
 9944TIP3    H129765   0.330   2.778   6.575 -0.7470 -2.3673 -1.4350
 9944TIP3    H229766   0.446   2.711   6.503 -0.6678 -0.9042 -2.7061
 9945TIP3   OH229767   7.784   3.642   6.502  0.2417 -0.1314  0.5442
 9945TIP3    H129768   7.852   3.698   6.539  0.0359 -1.0526  2.3944
 9945TIP3    H229769   7.831   3.573   6.456  0.4944  1.6233 -1.9002
 9946TIP3   OH229770   7.142   2.314   5.282  0.2178 -0.8268 -0.0772
 9946TIP3    H129771   7.177   2.230   5.252  1.5855  0.2454 -1.5679
 9946TIP3    H229772   7.157   2.314   5.376 -1.0764 -2.8460  0.1456
 9947TIP3   OH229773   7.334   1.710   4.219 -0.0935  0.4943 -0.0645
 9947TIP3    H129774   7.382   1.651   4.160 -1.0180 -0.6547  0.3157
 9947TIP3    H229775   7.351   1.674   4.306 -3.1871 -1.0948 -0.0515
 9948TIP3   OH229776   7.369   2.432   6.168 -0.4633 -0.3812  0.0918
 9948TIP3    H129777   7.411   2.510   6.204  0.9444 -1.1463  0.1211
 9948TIP3    H229778   7.370   2.369   6.240 -1.3921 -0.5109 -0.0055
 9949TIP3   OH229779   3.733   4.550   1.302 -0.5266  0.2411 -0.0070
 9949TIP3    H129780   3.732   4.461   1.337 -3.7442  0.1309 -0.2465
 9949TIP3    H229781   3.675   4.599   1.360  0.7437  2.0815 -0.2396
 9950TIP3   OH229782   5.915   3.934   3.110  0.1047  0.0084 -0.6078
 9950TIP3    H129783   5.962   3.965   3.187  0.1782  0.1635 -0.7167
 9950TIP3    H229784   5.881   4.013   3.068  0.8480  0.0000 -1.2460
 9951TIP3   OH229785   0.998   1.036   6.628  0.0955 -0.1061 -0.2781
 9951TIP3    H129786   1.066   0.969   6.618  1.0446  0.5409  1.5091
 9951TIP3    H229787   0.977   1.034   6.722 -2.1200 -0.0644 -0.7453
 9952TIP3   OH229788   5.769   0.998   6.336 -0.4056  0.1309  0.2770
 9952TIP3    H129789   5.837   1.064   6.325  0.7903 -0.8410  1.6433
 9952TIP3    H229790   5.718   1.027   6.411  0.4677 -0.7700  1.2306
 9953TIP3   OH229791   8.165   2.057   4.931  0.5523 -0.3533  0.2660
 9953TIP3    H129792   8.172   2.102   5.015  1.8420 -1.5037  0.7981
 9953TIP3    H229793   8.143   1.966   4.955 -0.1239 -0.4518 -0.6982
 9954TIP3   OH229794   1.987   5.670   2.159 -0.5755  0.0127  0.1540
 9954TIP3    H129795   2.006   5.592   2.106 -1.4151  0.6364 -1.1027
 9954TIP3    H229796   1.900   5.653   2.195  0.2549 -0.6796  1.8487
 9955TIP3   OH229797   7.795   1.654   5.643 -0.0460  0.2366 -0.3251
 9955TIP3    H129798   7.710   1.626   5.677  0.2033 -1.9624 -1.4231
 9955TIP3    H229799   7.850   1.667   5.720 -1.0440  0.5691  0.3314
 9956TIP3   OH229800   7.003   1.487   6.338 -0.3603 -0.7446  0.2555
 9956TIP3    H129801   7.035   1.553   6.399  0.6001 -2.0099  1.1458
 9956TIP3    H229802   6.936   1.533   6.286  0.9491  1.1760  0.1925
 9957TIP3   OH229803   7.398   1.519   3.727  0.4844 -0.1513  0.2905
 9957TIP3    H129804   7.429   1.431   3.751  2.5915  0.0272 -1.6626
 9957TIP3    H229805   7.320   1.503   3.673  0.8359 -0.8189 -0.0317
 9958TIP3   OH229806   0.354   2.925   3.783 -0.3388 -0.0605 -0.0795
 9958TIP3    H129807   0.390   2.973   3.708 -1.8464  1.1152 -0.0643
 9958TIP3    H229808   0.414   2.944   3.855 -0.8640  1.7300 -0.0973
 9959TIP3   OH229809   0.387   2.975   6.316  0.4023  0.4277 -0.6458
 9959TIP3    H129810   0.394   2.897   6.371  0.7275 -1.2553 -3.0116
 9959TIP3    H229811   0.304   2.966   6.270 -0.6884  2.6765  0.7807
 9960TIP3   OH229812   1.466   5.312   0.923  0.0554 -0.2867 -0.2179
 9960TIP3    H129813   1.527   5.363   0.870  0.6406 -0.1066  0.6240
 9960TIP3    H229814   1.514   5.291   1.003  0.7294 -4.2666 -1.5286
 9961TIP3   OH229815   8.037   0.490   5.554 -0.5095  0.2566  0.6588
 9961TIP3    H129816   8.054   0.431   5.480 -0.4967  2.2658 -1.0052
 9961TIP3    H229817   7.969   0.549   5.522 -1.1993  0.5447  2.6186
 9962TIP3   OH229818   8.259   4.948   0.134  0.1974 -0.0006  0.0801
 9962TIP3    H129819   8.275   4.997   0.215  0.4645  0.8624 -0.4854
 9962TIP3    H229820   8.164   4.938   0.131  0.0923  1.0295 -0.1140
 9963TIP3   OH229821   5.906   2.855   5.607 -0.1994 -0.3021  0.2983
 9963TIP3    H129822   5.916   2.788   5.539  0.0369 -0.8545  0.8692
 9963TIP3    H229823   5.995   2.879   5.630 -0.2683 -0.4737  0.7551
 9964TIP3   OH229824   0.514   2.535   6.496  0.2473 -0.0991 -0.1127
 9964TIP3    H129825   0.454   2.461   6.486  0.7467 -0.7569  1.6639
 9964TIP3    H229826   0.596   2.496   6.527  0.9669  1.0320 -0.5505
 9965TIP3   OH229827   8.389   1.689   6.336  0.3664 -0.2728 -0.1869
 9965TIP3    H129828   8.357   1.609   6.294 -0.3245 -1.4319  2.4412
 9965TIP3    H229829   8.482   1.674   6.349  0.1519 -0.8457  0.7062
 9966TIP3   OH229830   8.380   0.722   5.140  0.2559 -0.5961  0.0338
 9966TIP3    H129831   8.447   0.791   5.137 -0.0014 -0.3629 -0.2630
 9966TIP3    H229832   8.369   0.705   5.234  2.2279 -2.0820  0.0373
 9967TIP3   OH229833   0.714   1.366   5.672  0.3930 -0.3653  0.3293
 9967TIP3    H129834   0.626   1.388   5.701  0.5067 -1.1372  1.2644
 9967TIP3    H229835   0.770   1.435   5.709  0.2465 -0.0940  0.0549
 9968TIP3   OH229836   8.242   2.495   2.835  0.6166 -0.5441  0.9072
 9968TIP3    H129837   8.290   2.539   2.764  0.5382  0.1067  1.2527
 9968TIP3    H229838   8.172   2.556   2.857 -0.4610 -1.5454  0.3105
 9969TIP3   OH229839   2.842   7.368   0.247 -0.9590 -0.3931  0.1226
 9969TIP3    H129840   2.827   7.274   0.237  1.7092 -0.8756  0.1551
 9969TIP3    H229841   2.828   7.404   0.160 -3.2698 -0.6071  0.3898
 9970TIP3   OH229842   5.985   1.134   5.801  0.2690  0.2731  0.1495
 9970TIP3    H129843   5.914   1.091   5.753 -0.8971  1.0095  1.1751
 9970TIP3    H229844   6.006   1.073   5.872 -0.2866  0.6686  0.6573
 9971TIP3   OH229845   5.410   4.201   6.470 -0.1134  0.1017 -0.4784
 9971TIP3    H129846   5.485   4.213   6.411 -0.2320 -2.2586 -1.1844
 9971TIP3    H229847   5.335   4.192   6.412 -0.6768  0.6330  0.1599
 9972TIP3   OH229848   5.798   0.955   5.718 -0.2472 -0.0437 -0.7473
 9972TIP3    H129849   5.728   0.941   5.783 -0.5780  0.6945 -0.9382
 9972TIP3    H229850   5.858   0.882   5.732 -1.1430 -0.7893 -0.6856
 9973TIP3   OH229851   0.667   2.220   6.390 -0.0135  0.5735 -0.0589
 9973TIP3    H129852   0.665   2.171   6.472  0.2725 -0.8475 -0.8861
 9973TIP3    H229853   0.584   2.199   6.347 -0.6216  2.1409  0.3359
 9974TIP3   OH229854   8.344   6.568   0.572  0.5934 -0.0146 -0.1269
 9974TIP3    H129855   8.296   6.615   0.641  0.0995  1.2540 -1.3049
 9974TIP3    H229856   8.288   6.494   0.549  0.9888 -0.7371  1.1660
 9975TIP3   OH229857   1.230   0.644   5.845  0.2411  0.4962 -0.3079
 9975TIP3    H129858   1.198   0.566   5.799 -0.0920 -0.3479  1.3339
 9975TIP3    H229859   1.305   0.672   5.793 -0.1453 -0.4114 -1.3955
 9976TIP3   OH229860   8.122   0.857   6.142  0.1436  0.1127 -0.1090
 9976TIP3    H129861   8.081   0.898   6.218 -0.5330  0.4769 -0.6675
 9976TIP3    H229862   8.205   0.905   6.131  0.8513 -0.8078  1.1833
 9977TIP3   OH229863   6.929   0.972   5.289  0.1218 -0.3932  0.7882
 9977TIP3    H129864   7.011   0.970   5.338  0.4357  0.5711  0.3115
 9977TIP3    H229865   6.952   1.009   5.204 -1.2822  2.5901  1.6278
 9978TIP3   OH229866   0.549   3.202   6.486 -0.3855 -0.1860 -0.3244
 9978TIP3    H129867   0.541   3.166   6.398 -1.7395  1.9063 -1.0771
 9978TIP3    H229868   0.643   3.206   6.502 -0.1205  0.0056 -1.8957
 9979TIP3   OH229869   8.146   2.521   6.471  0.0847 -0.3406  0.4829
 9979TIP3    H129870   8.063   2.553   6.436 -0.0109 -1.0773  0.0383
 9979TIP3    H229871   8.193   2.600   6.497 -1.7216 -0.0084  2.9483
 9980TIP3   OH229872   6.334   1.302   4.018  0.2337  0.0758 -0.2327
 9980TIP3    H129873   6.254   1.342   4.051  0.1893 -0.8859  0.8383
 9980TIP3    H229874   6.336   1.215   4.058  1.7149  0.0251 -0.3865
 9981TIP3   OH229875   6.726   1.730   5.643  0.3925 -0.4098 -0.1588
 9981TIP3    H129876   6.680   1.702   5.723 -0.4857 -1.9406 -1.1544
 9981TIP3    H229877   6.702   1.822   5.633  0.8214 -0.0886  1.5403
 9982TIP3   OH229878   6.555   2.275   5.435 -0.2484  0.3639 -0.0440
 9982TIP3    H129879   6.542   2.317   5.350 -1.2003  0.2409  0.0435
 9982TIP3    H229880   6.576   2.184   5.413  1.2611  0.7406 -0.2111
 9983TIP3   OH229881   4.752   0.002   0.316 -0.2559  0.0821 -0.3827
 9983TIP3    H129882   4.734   0.090   0.285  1.5091  0.9602  1.0237
 9983TIP3    H229883   4.752   0.009   0.412 -1.4436 -1.7163 -0.2198
 9984TIP3   OH229884   8.194   3.150   6.207  0.6814  1.1403  0.0790
 9984TIP3    H129885   8.203   3.245   6.202  1.3621  0.9775 -2.4736
 9984TIP3    H229886   8.107   3.132   6.169  1.2049  0.6433 -0.9032
 9985TIP3   OH229887   6.757   2.341   3.119 -0.0764  0.0036 -0.5183
 9985TIP3    H129888   6.715   2.359   3.035 -1.3424  0.6874  0.2471
 9985TIP3    H229889   6.821   2.273   3.100 -0.3136  0.1966 -2.0461
 9986TIP3   OH229890   1.251   5.309   0.581  0.2876  0.8261  0.1185
 9986TIP3    H129891   1.245   5.246   0.653 -1.2720  0.3161 -0.4209
 9986TIP3    H229892   1.299   5.383   0.618  3.2102 -1.1211  0.4114
 9987TIP3   OH229893   7.687   1.168   4.832 -0.0680 -0.1076  0.3452
 9987TIP3    H129894   7.746   1.094   4.821  0.4765  0.4081 -0.3191
 9987TIP3    H229895   7.715   1.231   4.765  0.9556  1.6483  2.3437
 9988TIP3   OH229896   1.320   6.502   0.611 -0.5604  0.5084  0.3007
 9988TIP3    H129897   1.237   6.459   0.629 -1.0860  0.9809 -0.9047
 9988TIP3    H229898   1.384   6.431   0.605 -1.2734 -0.0479 -0.8976
 9989TIP3   OH229899   7.450   2.934   6.465  0.1456  0.1996  0.0772
 9989TIP3    H129900   7.395   2.857   6.479 -1.2751  1.2778  0.6131
 9989TIP3    H229901   7.527   2.919   6.519  0.2957 -1.2539 -0.5357
 9990TIP3   OH229902   6.663   1.426   6.000 -0.1147  0.1578 -0.3511
 9990TIP3    H129903   6.586   1.373   5.979 -0.2976  0.2484  0.0925
 9990TIP3    H229904   6.692   1.395   6.085  0.7415 -0.3271 -0.8140
 9991TIP3   OH229905   0.627   0.623   6.556 -0.3142  0.1787  0.6993
 9991TIP3    H129906   0.650   0.714   6.573  1.7575 -0.4461  1.4565
 9991TIP3    H229907   0.705   0.573   6.583 -1.4214 -1.8113  0.3343
 9992TIP3   OH229908   8.466   2.572   6.055  0.3994  0.6712  0.0227
 9992TIP3    H129909   8.432   2.656   6.085 -0.8824  0.6516 -1.2893
 9992TIP3    H229910   8.497   2.588   5.966 -1.0304 -0.4999 -0.7203
 9993TIP3   OH229911   6.385   2.052   6.014 -0.4009  0.4504  0.8041
 9993TIP3    H129912   6.464   2.023   5.968 -0.5537  1.6197 -0.2195
 9993TIP3    H229913   6.313   2.005   5.972 -0.4439  0.8232  0.4581
 9994TIP3   OH229914   6.023   1.123   6.261 -0.6345  0.0401 -0.3621
 9994TIP3    H129915   6.110   1.089   6.285 -1.0315  0.0433  1.1195
 9994TIP3    H229916   6.038   1.217   6.245 -0.8414  0.5797  2.4888
 9995TIP3   OH229917   0.263   1.527   3.159 -0.2570  0.1116 -0.1575
 9995TIP3    H129918   0.279   1.601   3.100  2.3386 -1.2403 -1.2208
 9995TIP3    H229919   0.193   1.477   3.116 -1.0668  1.1944 -0.1223
 9996TIP3   OH229920   7.032   2.117   5.827 -0.3386  0.3506  0.3359
 9996TIP3    H129921   6.948   2.156   5.851 -1.5684 -0.3662 -2.5943
 9996TIP3    H229922   7.009   2.031   5.790  1.3808  1.2535 -3.0373
 9997TIP3   OH229923   6.304   1.042   5.928 -0.2000 -0.4714  0.4784
 9997TIP3    H129924   6.242   1.115   5.932  0.8366  0.7115 -3.1777
 9997TIP3    H229925   6.249   0.964   5.928 -1.4299  0.3523  1.9040
 9998TIP3   OH229926   6.641   3.020   6.908 -0.1486 -0.6593  0.6488
 9998TIP3    H129927   6.658   3.057   6.995  0.2524 -0.7810  0.6262
 9998TIP3    H229928   6.668   2.929   6.915 -1.5362 -1.0653  0.8192
 9999TIP3   OH229929   6.030   3.308   6.072  0.1960 -0.6462 -0.6655
 9999TIP3    H129930   5.995   3.389   6.034  2.2360  0.4812 -0.2194
 9999TIP3    H229931   6.122   3.327   6.088  0.4991 -2.7764  0.2837
10000TIP3   OH229932   6.442   1.651   4.260 -1.5507 -0.4315  0.3284
10000TIP3    H129933   6.396   1.695   4.331 -1.1430  0.2367  0.1800
10000TIP3    H229934   6.446   1.560   4.287  0.6909  0.2056  2.2781
10001TIP3   OH229935   5.072   2.172   6.317 -0.6071  0.2371  0.0750
10001TIP3    H129936   5.020   2.151   6.240  0.6098 -2.8759  0.0407
10001TIP3    H229937   5.163   2.167   6.286 -0.1612  1.9729  1.0134
10002TIP3   OH229938   7.533   5.148   0.899 -0.3057  0.0294 -0.1231
10002TIP3    H129939   7.621   5.139   0.862 -0.5949  1.2531 -1.1335
10002TIP3    H229940   7.477   5.165   0.823 -1.5678 -1.6130  0.3943
10003TIP3   OH229941   7.209   2.949   5.445  0.1875 -0.3404 -0.0623
10003TIP3    H129942   7.144   2.885   5.417 -0.5443 -0.8158  2.6677
10003TIP3    H229943   7.290   2.899   5.453  0.2219 -0.3616 -0.4931
10004TIP3   OH229944   8.176   5.276   6.270 -0.0906  0.5710  0.2631
10004TIP3    H129945   8.094   5.252   6.313  0.2732 -0.4849  0.3970
10004TIP3    H229946   8.242   5.275   6.340 -0.2159  2.9332  0.4536
10005TIP3   OH229947   8.344   2.406   6.863  0.4641 -0.1572 -0.4655
10005TIP3    H129948   8.318   2.483   6.913 -0.7349  0.1100 -1.4748
10005TIP3    H229949   8.289   2.408   6.785  0.6545 -1.8499 -0.6753
10006TIP3   OH229950   8.208   4.867   6.179  0.3399 -0.4460  0.2998
10006TIP3    H129951   8.204   4.890   6.272  1.5505 -1.3505  0.5930
10006TIP3    H229952   8.286   4.911   6.147  0.4121 -0.8452 -0.0772
10007TIP3   OH229953   7.625   4.200   4.151  0.1980 -0.1648  0.0739
10007TIP3    H129954   7.544   4.232   4.112  0.1527  0.0163  0.3191
10007TIP3    H229955   7.660   4.139   4.086 -0.0348 -0.0970 -0.1159
10008TIP3   OH229956   6.079   7.697   5.296  0.9771 -0.3658  0.1944
10008TIP3    H129957   6.070   7.756   5.371  0.2928 -0.8255  0.4774
10008TIP3    H229958   6.108   7.754   5.224 -1.4155  0.6793 -0.0077
10009TIP3   OH229959   7.645   0.386   5.835  0.0690  0.3894 -0.2129
10009TIP3    H129960   7.691   0.318   5.786 -0.7355 -0.4897  0.2152
10009TIP3    H229961   7.580   0.420   5.774 -1.4523 -1.2408  0.4298
10010TIP3   OH229962   1.661   5.117   0.080  0.3598  0.4032 -0.6166
10010TIP3    H129963   1.623   5.032   0.101  0.5035  0.1352 -1.4262
10010TIP3    H229964   1.706   5.103  -0.003  1.4214  0.9597 -0.1500
10011TIP3   OH229965   2.602   3.983   1.928  0.6624  0.1445 -0.0540
10011TIP3    H129966   2.668   3.926   1.890  0.6112 -0.0166  0.0978
10011TIP3    H229967   2.562   3.931   1.998  1.5562  0.8566  0.9904
10012TIP3   OH229968   7.455   0.713   5.323  0.9108 -0.5309 -0.0533
10012TIP3    H129969   7.545   0.734   5.299  0.0951  2.6297 -0.5556
10012TIP3    H229970   7.452   0.723   5.418  0.3544  2.5248 -0.3596
10013TIP3   OH229971   8.169   1.875   5.758  0.2224  0.2361  0.3484
10013TIP3    H129972   8.231   1.900   5.826 -1.6384  1.2738  1.7027
10013TIP3    H229973   8.121   1.956   5.739  0.1649 -0.2472 -1.6131
10014TIP3   OH229974   7.826   1.508   6.318 -0.0549  0.0567  0.2637
10014TIP3    H129975   7.826   1.425   6.271 -0.5617 -0.4620  1.1600
10014TIP3    H229976   7.748   1.505   6.373  0.5176  0.6390  1.1392
10015TIP3   OH229977   4.323   4.707   2.057  0.2169  0.1432 -0.8100
10015TIP3    H129978   4.291   4.677   1.972  0.3263 -1.0070 -0.4485
10015TIP3    H229979   4.344   4.627   2.105  0.5909  0.7963  0.1367
10016TIP3   OH229980   3.867   0.377   0.630 -0.2576  0.3669 -0.0670
10016TIP3    H129981   3.822   0.399   0.712  0.8782  0.4721  0.5438
10016TIP3    H229982   3.798   0.378   0.564 -1.2001  0.2396  0.8949
10017TIP3   OH229983   5.025   0.938   4.897 -0.1885 -0.2429 -0.4147
10017TIP3    H129984   5.075   0.874   4.847  0.3055 -1.1176  1.1571
10017TIP3    H229985   5.090   1.002   4.926  0.2739 -1.8817  2.4205
10018TIP3   OH229986   0.760   2.647   5.436  0.2927  0.2216 -0.2322
10018TIP3    H129987   0.739   2.710   5.366  0.5416 -1.1704 -1.5773
10018TIP3    H229988   0.720   2.685   5.514 -2.4714  0.4381 -1.6603
10019TIP3   OH229989   7.922   6.744   0.159  0.7970  0.2050 -0.4260
10019TIP3    H129990   7.964   6.828   0.141 -0.8368  1.0279 -0.4895
10019TIP3    H229991   7.987   6.679   0.134  1.7009  1.4337 -1.3395
10020TIP3   OH229992   7.205   0.778   6.065  0.4584  0.5360 -0.6464
10020TIP3    H129993   7.121   0.798   6.024  0.6858  0.2873 -1.2335
10020TIP3    H229994   7.187   0.779   6.159 -0.1830  0.5526 -0.7706
10021TIP3   OH229995   1.056   2.105   5.484 -0.2529  0.4216  0.2652
10021TIP3    H129996   0.972   2.099   5.529 -0.7353  1.7258 -0.4621
10021TIP3    H229997   1.035   2.137   5.397  0.8514 -0.5853 -0.3943
10022TIP3   OH229998   7.163   3.068   5.703 -0.1342 -0.3592  0.1027
10022TIP3    H129999   7.194   3.039   5.617 -0.5930 -0.8166  0.0856
10022TIP3    H230000   7.241   3.065   5.759 -0.3215 -2.4128  0.2984
10023TIP3   OH230001   6.048   2.742   6.325 -0.3967 -0.5425 -0.0455
10023TIP3    H130002   6.036   2.648   6.337 -0.0043 -0.7957 -1.5790
10023TIP3    H230003   6.073   2.752   6.234  1.7583  0.8468  0.6670
10024TIP3   OH230004   4.098   0.717   0.476  0.2030  0.1526 -0.1646
10024TIP3    H130005   4.151   0.639   0.491  0.6506  0.5070  0.1035
10024TIP3    H230006   4.159   0.781   0.439  0.3480  1.1090  1.6843
10025TIP3   OH230007   5.309   3.934   6.395  0.3489 -0.1173  0.4045
10025TIP3    H130008   5.302   3.949   6.490  0.0133 -2.5099  0.7818
10025TIP3    H230009   5.218   3.939   6.364  0.2074 -1.5981  0.5740
10026TIP3   OH230010   6.085   1.494   5.390  0.1583  0.0680 -0.5724
10026TIP3    H130011   6.114   1.555   5.458 -0.8680  1.0565 -0.9960
10026TIP3    H230012   6.128   1.412   5.411  0.9081  0.7240  0.4979
10027TIP3   OH230013   5.637   0.668   0.051  0.2102  0.2685 -0.4236
10027TIP3    H130014   5.726   0.701   0.034  0.3372  0.1833  0.0590
10027TIP3    H230015   5.648   0.606   0.123 -0.6412  2.4402  1.6623
10028TIP3   OH230016   5.013   2.771   6.301  0.7194 -0.7427  0.6208
10028TIP3    H130017   4.986   2.771   6.209  3.1489  1.2518 -0.1413
10028TIP3    H230018   5.040   2.681   6.318 -3.6985 -2.1635  0.6694
10029TIP3   OH230019   7.011   2.166   6.126  0.3529  0.1068 -0.5413
10029TIP3    H130020   7.074   2.225   6.085  0.0979 -0.7263 -2.1788
10029TIP3    H230021   6.932   2.220   6.138 -0.4762 -0.3465 -3.6706
10030TIP3   OH230022   5.933   2.613   5.451  0.1598 -0.0259 -0.0975
10030TIP3    H130023   6.024   2.620   5.423  0.2831  0.8524  0.4865
10030TIP3    H230024   5.882   2.635   5.373  0.4961  2.2336  0.2877
10031TIP3   OH230025   6.092   1.461   6.533  0.0518 -0.4665 -0.4193
10031TIP3    H130026   6.007   1.434   6.567  0.4850  0.1868  1.2043
10031TIP3    H230027   6.147   1.471   6.610  1.3648 -0.0245 -1.3945
10032TIP3   OH230028   5.807   2.247   3.362 -0.2024 -0.4860 -0.1540
10032TIP3    H130029   5.734   2.199   3.402 -0.8974  0.2112 -0.5899
10032TIP3    H230030   5.877   2.182   3.357 -0.6141 -1.0092  0.7718
10033TIP3   OH230031   0.082   1.170   5.159 -0.4190 -0.0264  0.3041
10033TIP3    H130032  -0.011   1.191   5.154 -0.0457  1.2542 -2.0815
10033TIP3    H230033   0.122   1.244   5.205 -0.3503  0.2260 -0.1601
10034TIP3   OH230034   6.461   2.846   3.927 -0.1572  0.4241 -0.2595
10034TIP3    H130035   6.377   2.863   3.969 -0.7981  0.5527 -1.5925
10034TIP3    H230036   6.441   2.834   3.835  1.1989 -0.2644 -0.4898
10035TIP3   OH230037   6.881   3.257   4.647 -0.1915  0.4929  0.1833
10035TIP3    H130038   6.818   3.186   4.653 -2.3517  2.0777 -2.4839
10035TIP3    H230039   6.943   3.228   4.580 -0.5200  0.6968 -0.2124
10036TIP3   OH230040   7.318   1.981   5.682 -0.4165 -0.2028  0.9811
10036TIP3    H130041   7.343   2.068   5.716  0.0818  0.2578 -0.5277
10036TIP3    H230042   7.225   1.989   5.662 -0.1751  0.2858 -0.0040
10037TIP3   OH230043   0.099   2.795   4.098 -0.0329  0.3764 -0.1197
10037TIP3    H130044   0.010   2.785   4.063  0.5504  0.6824 -1.7084
10037TIP3    H230045   0.099   2.881   4.140 -0.1408  0.8738 -1.1429
10038TIP3   OH230046   0.298   4.813   0.101 -0.3914  0.3935 -0.5081
10038TIP3    H130047   0.383   4.789   0.063 -0.3271  1.3001 -0.9278
10038TIP3    H230048   0.309   4.903   0.129 -1.2172  0.5077 -0.5512
10039TIP3   OH230049   3.082   6.714   0.266  0.2979  0.3828  0.8342
10039TIP3    H130050   3.040   6.669   0.192  1.6948  0.2342  0.1292
10039TIP3    H230051   3.056   6.661   0.343  0.7861 -0.8316  0.1773
10040TIP3   OH230052   2.441   5.658   0.798 -0.3810 -0.5931  0.0993
10040TIP3    H130053   2.385   5.624   0.868 -0.5140  0.9903  0.7841
10040TIP3    H230054   2.380   5.688   0.730 -0.4907  2.3886  1.4206
10041TIP3   OH230055   8.061   4.373   4.269  0.0501  0.5746 -0.0582
10041TIP3    H130056   8.154   4.395   4.258  0.3127 -0.1368  0.6781
10041TIP3    H230057   8.018   4.457   4.286  1.1733  0.4904  3.7359
10042TIP3   OH230058   1.974   2.277   3.766  0.1305 -0.5722 -0.6785
10042TIP3    H130059   2.001   2.367   3.782 -1.2439 -0.3401  0.4545
10042TIP3    H230060   2.054   2.231   3.743  1.1836  0.4658  0.8656
10043TIP3   OH230061   7.917   0.184   4.187  0.1541  0.2990  0.2210
10043TIP3    H130062   7.965   0.219   4.262  1.0321 -0.7683  0.1602
10043TIP3    H230063   7.840   0.142   4.226  1.4997 -1.8014  0.7028
10044TIP3   OH230064   7.547   0.768   5.596  0.4222 -0.2999 -0.1312
10044TIP3    H130065   7.608   0.816   5.540 -0.3909  0.1786 -0.6033
10044TIP3    H230066   7.557   0.809   5.682 -0.4487  0.8898 -0.5888
10045TIP3   OH230067   8.179   3.234   6.711  0.1341  0.3283  0.7302
10045TIP3    H130068   8.105   3.184   6.745 -1.6977  2.3785 -0.1617
10045TIP3    H230069   8.207   3.185   6.633 -0.9336  0.0900  0.4886
10046TIP3   OH230070   7.225   1.337   5.358  0.2178  0.2288 -0.1092
10046TIP3    H130071   7.301   1.388   5.386  2.3692 -1.6561 -2.3271
10046TIP3    H230072   7.261   1.253   5.330 -2.5060 -0.1643 -2.6949
10047TIP3   OH230073   1.088   5.077   0.166 -0.3094 -0.4678  0.1293
10047TIP3    H130074   1.022   5.022   0.209 -2.3284  0.1064 -2.1535
10047TIP3    H230075   1.124   5.022   0.097 -1.4120  0.6074 -1.3243
10048TIP3   OH230076   0.063   0.721   4.313  0.5267  0.1100 -0.0018
10048TIP3    H130077  -0.008   0.707   4.251  0.1386  0.0085  0.4590
10048TIP3    H230078   0.132   0.662   4.284 -0.4475 -1.5427  0.8948
10049TIP3   OH230079   0.619   1.821   4.199 -0.3301  0.2370 -0.0545
10049TIP3    H130080   0.587   1.745   4.247 -0.6558  1.2029  1.2697
10049TIP3    H230081   0.713   1.824   4.218 -0.2503 -0.0412 -0.4000
10050TIP3   OH230082   2.950   7.086   0.822 -0.1676 -0.6046 -0.1677
10050TIP3    H130083   2.919   7.176   0.814  0.2343 -0.4549 -0.0225
10050TIP3    H230084   3.008   7.074   0.747 -1.3795 -1.2180 -1.0430
10051TIP3   OH230085   8.249   2.238   5.464  0.5810 -0.1622 -0.2551
10051TIP3    H130086   8.161   2.275   5.454  0.7792  0.0856 -1.0479
10051TIP3    H230087   8.279   2.272   5.548  0.0104 -0.0631 -0.0863
10052TIP3   OH230088   6.923   3.618   5.746 -0.0893  0.1288 -0.3229
10052TIP3    H130089   6.965   3.548   5.697  1.4696 -0.6906  2.1020
10052TIP3    H230090   6.844   3.578   5.784  0.1603  0.0162  0.0763
10053TIP3   OH230091   8.243   2.310   6.284 -0.5862  0.5246 -0.1669
10053TIP3    H130092   8.231   2.377   6.352 -1.2790  0.5270 -0.2893
10053TIP3    H230093   8.161   2.310   6.236 -0.4508 -0.1587 -0.3976
10054TIP3   OH230094   7.199   3.655   3.783  0.1372 -0.1169  0.5962
10054TIP3    H130095   7.272   3.673   3.842  0.9690 -0.5037 -0.3070
10054TIP3    H230096   7.209   3.718   3.712  0.2787 -0.9385 -0.1237
10055TIP3   OH230097   4.601   6.816   0.901 -0.1911 -0.3927  0.4993
10055TIP3    H130098   4.526   6.856   0.945  0.5574 -1.0272  2.3932
10055TIP3    H230099   4.675   6.872   0.924  0.0456 -0.1703 -0.7852
10056TIP3   OH230100   6.494   4.362   4.900 -0.0520 -0.1813  0.4865
10056TIP3    H130101   6.446   4.292   4.944 -0.5675 -0.2337 -0.1531
10056TIP3    H230102   6.446   4.377   4.819  2.1970 -1.7007 -1.2077
10057TIP3   OH230103   8.296   3.541   4.371  0.3078 -0.4262 -0.3251
10057TIP3    H130104   8.262   3.567   4.285 -0.1015  0.3330  0.0522
10057TIP3    H230105   8.347   3.463   4.355 -0.7807 -0.9920 -1.0841
10058TIP3   OH230106   6.389   1.585   5.609  0.9887 -0.4744  0.2094
10058TIP3    H130107   6.466   1.555   5.561  0.7904  1.8705 -1.6496
10058TIP3    H230108   6.424   1.638   5.681  1.1670 -0.9442  0.4688
10059TIP3   OH230109   8.335   2.745   4.617 -0.3590  0.1482  0.0720
10059TIP3    H130110   8.409   2.763   4.560 -0.6065  0.2845 -0.2054
10059TIP3    H230111   8.305   2.658   4.590 -1.4029  0.8287 -1.0206
10060TIP3   OH230112   3.662   6.889   0.639  0.1491 -0.3053  0.1660
10060TIP3    H130113   3.643   6.836   0.717  0.4849 -0.6380  0.0212
10060TIP3    H230114   3.742   6.937   0.662  0.3706 -0.5666 -0.0532
10061TIP3   OH230115   4.183   7.929   1.617 -0.3436  1.1403 -0.1279
10061TIP3    H130116   4.092   7.912   1.593 -0.7488  1.7865  0.9130
10061TIP3    H230117   4.231   7.852   1.586 -1.6126 -0.3309  1.4409
10062TIP3   OH230118   4.610   7.631   1.025 -0.7071 -0.1921  0.5952
10062TIP3    H130119   4.641   7.711   0.983  1.7447 -2.3278 -1.7747
10062TIP3    H230120   4.519   7.624   0.996 -1.0877  1.8943  1.1498
10063TIP3   OH230121   4.283   7.961   0.129 -0.0615 -0.1977 -0.2163
10063TIP3    H130122   4.328   8.021   0.070  1.3005  1.2183  2.1813
10063TIP3    H230123   4.272   8.011   0.210 -0.8513 -2.4761  1.1186
10064TIP3   OH230124   2.805   7.857   0.691  0.0960 -0.3865 -0.1584
10064TIP3    H130125   2.726   7.909   0.701  1.2983  1.3693  0.4216
10064TIP3    H230126   2.864   7.911   0.638  1.6267 -0.8405  1.0316
10065TIP3   OH230127   5.732   6.725   1.614  0.4536 -0.0512 -0.2100
10065TIP3    H130128   5.749   6.663   1.543  0.1216 -0.5581  0.1435
10065TIP3    H230129   5.697   6.802   1.571  1.1878  0.0199 -0.6901
10066TIP3   OH230130   7.257   0.696   0.477  0.2097  0.2644  0.1853
10066TIP3    H130131   7.190   0.686   0.410 -1.3181  0.9132  1.5895
10066TIP3    H230132   7.293   0.608   0.487 -0.0604  0.0139 -0.9515
10067TIP3   OH230133   5.754   6.272   0.663  0.1609  0.3078  0.0613
10067TIP3    H130134   5.824   6.214   0.635  1.3881  1.2193  1.2007
10067TIP3    H230135   5.713   6.226   0.737 -0.7643 -0.4442 -0.9062
10068TIP3   OH230136   3.537   5.231   0.405 -0.6857 -0.2840  0.5195
10068TIP3    H130137   3.536   5.178   0.485 -0.3321 -1.3713 -0.1744
10068TIP3    H230138   3.449   5.268   0.400 -1.0456 -1.0702  0.8636
10069TIP3   OH230139   3.493   4.227   0.401 -0.0074  0.2600  0.6509
10069TIP3    H130140   3.476   4.161   0.467 -0.0883  0.6628  1.0323
10069TIP3    H230141   3.480   4.311   0.446  2.3258  0.5859  0.7729
10070TIP3   OH230142   3.438   7.978   1.236  0.1563  0.3988 -0.5778
10070TIP3    H130143   3.363   8.034   1.255 -0.0972  0.4031 -1.5691
10070TIP3    H230144   3.407   7.889   1.255 -1.0929  0.0747 -3.7467
10071TIP3   OH230145   3.257   7.225   1.810 -0.4311  0.2770  0.2283
10071TIP3    H130146   3.208   7.265   1.738 -0.8172  0.9338  0.8615
10071TIP3    H230147   3.191   7.181   1.863 -0.0820 -0.6770 -0.1173
10072TIP3   OH230148   3.805   0.163   6.640 -0.0840  0.3320  0.1308
10072TIP3    H130149   3.787   0.122   6.724  0.6188  0.0023  0.1231
10072TIP3    H230150   3.882   0.217   6.655 -1.5641  2.4428  0.3859
10073TIP3   OH230151   2.777   3.318   6.662  0.2048  0.4184  0.4909
10073TIP3    H130152   2.737   3.362   6.737  0.2775  1.4233 -0.0463
10073TIP3    H230153   2.842   3.380   6.630  0.0499  0.0707 -0.5126
10074TIP3   OH230154   4.306   5.685   2.068 -0.1691 -0.0011  0.8362
10074TIP3    H130155   4.255   5.649   2.140 -1.3382  0.3388  0.1923
10074TIP3    H230156   4.331   5.772   2.098 -1.6039  0.5822  0.4120
10075TIP3   OH230157   2.562   6.668   0.038  0.4108  0.5182 -0.5574
10075TIP3    H130158   2.484   6.616   0.018  0.6032  0.2419 -0.5927
10075TIP3    H230159   2.535   6.725   0.110  0.1169  0.5669 -0.7013
10076TIP3   OH230160   3.165   4.844   0.541  0.4413 -0.5664  0.4239
10076TIP3    H130161   3.070   4.835   0.554  0.3640 -1.8793 -0.9631
10076TIP3    H230162   3.188   4.922   0.591 -1.5764  0.4377 -0.1517
10077TIP3   OH230163   5.542   6.239   0.441 -0.3738 -0.1454  0.3556
10077TIP3    H130164   5.610   6.242   0.508 -0.0360 -1.5960  0.0889
10077TIP3    H230165   5.580   6.284   0.366 -0.8164  1.6383  1.1835
10078TIP3   OH230166   2.392   3.131   6.282 -1.1086  0.1870  0.5823
10078TIP3    H130167   2.357   3.216   6.253  0.3037  0.8543  0.7674
10078TIP3    H230168   2.456   3.153   6.350 -1.8169 -1.1411  1.6978
10079TIP3   OH230169   2.457   5.460   1.606  0.0911 -0.5761 -0.0322
10079TIP3    H130170   2.500   5.437   1.523  0.0331 -1.2849  0.1329
10079TIP3    H230171   2.513   5.421   1.673  1.7400  2.4210  0.4326
10080TIP3   OH230172   6.800   6.246   0.897 -0.0930 -0.1680  0.3223
10080TIP3    H130173   6.761   6.234   0.810 -0.1392  0.1639  0.2976
10080TIP3    H230174   6.791   6.160   0.939 -0.8814 -0.0873  0.3282
10081TIP3   OH230175   7.227   7.334   1.781  0.0147  0.5074 -0.0928
10081TIP3    H130176   7.286   7.373   1.716  0.4664 -0.3818 -0.2271
10081TIP3    H230177   7.233   7.393   1.857  0.6143  0.7595 -0.3285
10082TIP3   OH230178   8.254   3.009   5.372  0.0488  0.5152 -0.1140
10082TIP3    H130179   8.266   2.961   5.290 -0.4068 -1.9431  1.2294
10082TIP3    H230180   8.339   3.050   5.387  0.4178  0.2367 -1.3310
10083TIP3   OH230181   6.196   6.644   1.285  0.0347 -0.1444 -0.0637
10083TIP3    H130182   6.263   6.710   1.269 -1.0439  1.1979  0.9106
10083TIP3    H230183   6.189   6.640   1.381  1.9600 -3.5784  0.0408
10084TIP3   OH230184   2.113   6.650   1.137 -0.1390 -0.2557 -0.0357
10084TIP3    H130185   2.174   6.723   1.129  0.2363 -0.4917  0.6621
10084TIP3    H230186   2.096   6.643   1.231 -2.3194  0.6987 -0.3138
10085TIP3   OH230187   4.919   0.512   0.434 -0.3519 -0.1413 -1.3695
10085TIP3    H130188   4.936   0.482   0.523 -1.2367 -0.3664 -1.2733
10085TIP3    H230189   4.974   0.590   0.424 -0.1359 -0.2061 -0.6793
10086TIP3   OH230190   4.383   7.476   0.904 -0.4210  0.5904  0.1907
10086TIP3    H130191   4.361   7.416   0.833 -0.1413  1.7511 -0.8938
10086TIP3    H230192   4.416   7.419   0.974  0.9710 -0.4282 -1.2451
10087TIP3   OH230193   4.241   6.010   1.393  0.1072 -0.1549  0.6803
10087TIP3    H130194   4.287   6.094   1.390 -2.7464  1.4346 -0.8296
10087TIP3    H230195   4.149   6.032   1.378 -1.0327 -3.3373  2.4151
10088TIP3   OH230196   1.283   3.025   6.543  0.3495 -0.0311  0.6614
10088TIP3    H130197   1.306   3.010   6.451  1.5524 -0.2932  0.9969
10088TIP3    H230198   1.300   3.119   6.557  2.5391 -0.5096  1.2734
10089TIP3   OH230199   0.210   4.653   6.371 -0.0465 -0.3057  0.5382
10089TIP3    H130200   0.209   4.597   6.292 -1.3837 -0.5683  0.7207
10089TIP3    H230201   0.117   4.665   6.392  0.1320  3.7637 -0.7236
10090TIP3   OH230202   5.307   6.133   0.671 -0.4607  0.1919 -0.0635
10090TIP3    H130203   5.307   6.196   0.743  0.2198  0.8482 -0.6237
10090TIP3    H230204   5.399   6.108   0.661 -0.4415  0.7069 -1.2218
10091TIP3   OH230205   2.941   3.655   0.360  0.1703  0.1532 -0.0947
10091TIP3    H130206   2.931   3.701   0.444  0.7401 -0.4313  0.2927
10091TIP3    H230207   2.956   3.564   0.384  1.6358  0.1949 -0.7974
10092TIP3   OH230208   3.986   6.962   0.306 -0.4381  0.1735  0.0510
10092TIP3    H130209   3.981   7.035   0.368  0.2294  0.9845 -0.8304
10092TIP3    H230210   3.900   6.921   0.312 -1.2621  1.7810 -0.3152
10093TIP3   OH230211   6.899   4.832   1.289 -0.3632  0.2754 -0.9440
10093TIP3    H130212   6.822   4.776   1.300 -0.3937  0.4461 -0.2591
10093TIP3    H230213   6.887   4.901   1.354  0.4957  0.1590 -0.6593
10094TIP3   OH230214   3.906   6.498   1.444  0.0796 -0.2053 -0.6081
10094TIP3    H130215   3.823   6.454   1.428 -0.7069  0.5729  1.2163
10094TIP3    H230216   3.902   6.524   1.536  1.7823  1.0262 -0.8575
10095TIP3   OH230217   3.104   3.584   6.045  0.5147  0.3679 -0.3842
10095TIP3    H130218   3.038   3.620   6.104 -0.9655 -0.1169 -1.6839
10095TIP3    H230219   3.187   3.616   6.078 -0.3816  0.9961  1.3020
10096TIP3   OH230220   2.695   7.366   1.178  0.5429  0.3111 -0.1364
10096TIP3    H130221   2.642   7.304   1.227 -0.1835  1.1495  0.1504
10096TIP3    H230222   2.652   7.371   1.092  1.3868 -0.6003 -0.6222
10097TIP3   OH230223   0.875   3.567   6.565 -0.0136 -0.0360 -0.4035
10097TIP3    H130224   0.834   3.576   6.651  0.7550 -0.3163 -0.0100
10097TIP3    H230225   0.802   3.548   6.506 -0.2910 -1.9836  0.5402
10098TIP3   OH230226   3.489   4.450   6.263  0.0731 -0.1110 -0.3031
10098TIP3    H130227   3.573   4.408   6.283  0.0224  0.1202  0.3978
10098TIP3    H230228   3.496   4.537   6.302 -0.5982 -0.1918 -0.0017
10099TIP3   OH230229   1.035   4.139   6.714  0.5108 -0.1305 -0.1846
10099TIP3    H130230   1.077   4.134   6.628  2.9423  0.9388  0.8693
10099TIP3    H230231   0.998   4.226   6.718  0.8398  0.0026  0.0221
10100TIP3   OH230232   4.059   5.851   0.817  0.4725 -0.0399 -0.3446
10100TIP3    H130233   4.026   5.762   0.802 -0.1040 -0.3029  2.2542
10100TIP3    H230234   4.024   5.902   0.744 -1.9246 -1.3039 -0.1497
10101TIP3   OH230235   2.838   6.054   0.607  0.8134 -0.1411  0.6503
10101TIP3    H130236   2.839   6.124   0.673 -1.3592  0.7535 -0.2072
10101TIP3    H230237   2.745   6.041   0.588  1.1861 -3.2317  0.7095
10102TIP3   OH230238   3.828   7.328   0.267  0.1326 -0.2153 -0.4440
10102TIP3    H130239   3.845   7.234   0.279  0.2020 -0.0132  1.2347
10102TIP3    H230240   3.908   7.370   0.298 -0.1440  0.4139 -0.5867
10103TIP3   OH230241   4.506   7.855   0.310 -0.6560  0.2258 -0.3275
10103TIP3    H130242   4.450   7.857   0.388 -0.0721 -1.1017  0.1389
10103TIP3    H230243   4.460   7.910   0.247 -1.1314  1.3271  0.9580
10104TIP3   OH230244   4.074   5.157   0.963 -0.2740 -0.6771  0.3523
10104TIP3    H130245   4.093   5.153   0.869  0.2801  0.7208  0.3875
10104TIP3    H230246   4.149   5.113   1.004  1.3052  1.8272  0.2994
10105TIP3   OH230247   4.593   6.257   0.916  0.0792 -0.3703  0.1696
10105TIP3    H130248   4.604   6.205   0.996 -3.6415 -1.2013  0.2355
10105TIP3    H230249   4.556   6.340   0.946  0.4488  0.0385 -0.4932
10106TIP3   OH230250   7.175   7.433   2.441  0.6665 -0.0716  0.3676
10106TIP3    H130251   7.234   7.462   2.511  1.0929 -0.4777  0.1787
10106TIP3    H230252   7.103   7.389   2.487  0.7138  0.0656  0.5752
10107TIP3   OH230253   0.763   1.589   6.867 -0.2607 -0.2301  0.1913
10107TIP3    H130254   0.811   1.564   6.788 -2.7384 -2.4957 -0.7052
10107TIP3    H230255   0.695   1.648   6.835  1.2549  2.1541  1.2882
10108TIP3   OH230256   4.189   6.819   1.440 -0.8799 -0.5483 -0.3894
10108TIP3    H130257   4.164   6.775   1.521  0.8155  0.8800  0.9679
10108TIP3    H230258   4.280   6.793   1.426 -0.8870 -0.0792 -1.3599
10109TIP3   OH230259   0.085   0.288   3.163 -0.1523 -0.5500  0.4093
10109TIP3    H130260   0.029   0.346   3.214  0.6801  1.0362 -0.4429
10109TIP3    H230261   0.171   0.296   3.204  0.5803  0.9422 -1.3811
10110TIP3   OH230262   0.054   0.582   4.904  0.1083 -0.0716  0.5724
10110TIP3    H130263   0.035   0.516   4.838 -0.1205 -0.8316  1.3839
10110TIP3    H230264  -0.018   0.574   4.967  0.6816  0.1721  1.2652
10111TIP3   OH230265   6.451   7.969   0.631  0.5817 -0.2385 -0.0019
10111TIP3    H130266   6.485   8.054   0.601  0.0459 -0.0298 -0.0472
10111TIP3    H230267   6.461   7.971   0.726 -1.3788  0.7842  0.2288
10112TIP3   OH230268   3.606   4.991   0.256 -0.2222  0.1411 -0.6928
10112TIP3    H130269   3.644   4.906   0.277 -1.3765 -0.0172  0.8729
10112TIP3    H230270   3.673   5.054   0.281 -0.3528 -0.2031  0.5574
10113TIP3   OH230271   3.091   4.282   1.133  0.3588 -0.3538 -0.2241
10113TIP3    H130272   3.020   4.233   1.091  0.9710 -1.2341 -0.2500
10113TIP3    H230273   3.083   4.370   1.098 -0.4411 -0.5590 -0.5745
10114TIP3   OH230274   3.952   7.012   1.007  0.3009  0.3019  0.0100
10114TIP3    H130275   3.965   6.926   0.969  1.0200 -0.7621  2.5179
10114TIP3    H230276   3.948   7.072   0.933 -0.3634 -1.9059 -1.7705
10115TIP3   OH230277   0.978   2.885   6.595 -0.0833  0.7355  0.0455
10115TIP3    H130278   0.886   2.889   6.570 -0.8686 -1.2308  2.3881
10115TIP3    H230279   1.000   2.792   6.590  1.7518  1.1748 -0.4188
10116TIP3   OH230280   4.745   6.940   1.191 -0.3776  0.0304 -0.0728
10116TIP3    H130281   4.699   6.975   1.114  0.9757  0.2494 -0.8066
10116TIP3    H230282   4.731   7.006   1.259 -1.8528 -0.3160 -0.0391
10117TIP3   OH230283   6.149   5.020   0.258  0.0023 -0.2155 -0.1605
10117TIP3    H130284   6.236   5.001   0.225 -1.0582 -0.8593 -2.6554
10117TIP3    H230285   6.091   5.007   0.183 -2.3832 -0.9078  1.7344
10118TIP3   OH230286   6.234   0.231   1.084 -0.4425  0.0886 -0.5727
10118TIP3    H130287   6.166   0.224   1.151  0.5707 -0.4614  0.4355
10118TIP3    H230288   6.216   0.159   1.024 -0.2177 -0.6290  0.2048
10119TIP3   OH230289   2.447   3.043   4.530 -0.0253  0.3710 -0.2473
10119TIP3    H130290   2.352   3.036   4.536 -0.0397 -2.8739 -2.9624
10119TIP3    H230291   2.462   3.129   4.491 -2.0407 -0.3366 -2.7242
10120TIP3   OH230292   7.359   0.414   0.533  0.3463 -0.5653  0.0492
10120TIP3    H130293   7.373   0.399   0.626 -0.4452 -2.4519 -0.1163
10120TIP3    H230294   7.268   0.390   0.518  0.4688 -0.2748 -1.2066
10121TIP3   OH230295   3.162   4.180   0.503 -0.6356 -0.3306  0.2608
10121TIP3    H130296   3.217   4.103   0.520  1.6452  1.2499  0.1826
10121TIP3    H230297   3.149   4.219   0.589 -0.0780  0.3296  0.0476
10122TIP3   OH230298   6.090   7.237   1.918  0.0901  0.5099 -0.1918
10122TIP3    H130299   6.026   7.308   1.910  0.4059  0.8789  0.4907
10122TIP3    H230300   6.111   7.213   1.828 -0.2963  1.0310 -0.4263
10123TIP3   OH230301   7.740   0.938   0.089  0.1774 -0.0964 -0.7427
10123TIP3    H130302   7.701   0.974   0.010  0.6936  0.6934 -0.6406
10123TIP3    H230303   7.799   0.869   0.058 -0.0684 -0.1882 -1.0042
10124TIP3   OH230304   5.012   6.908   0.804  0.2908  0.1850 -0.0832
10124TIP3    H130305   5.005   6.880   0.895  1.6554  1.5733  0.4840
10124TIP3    H230306   4.931   6.956   0.787 -0.4381 -0.9757  0.0552
10125TIP3   OH230307   4.511   5.805   0.780  0.1579  0.3159 -0.1111
10125TIP3    H130308   4.603   5.819   0.758  0.4676  0.5572  1.2783
10125TIP3    H230309   4.514   5.756   0.862 -0.9499 -0.0886 -0.3168
10126TIP3   OH230310   0.902   1.549   5.793 -0.2081  0.2147  0.2857
10126TIP3    H130311   0.934   1.519   5.878  0.6355  0.0925 -0.0679
10126TIP3    H230312   0.922   1.642   5.791 -1.5732  0.5268  0.8190
10127TIP3   OH230313   6.340   0.821   0.370 -0.1128  0.6359 -0.5174
10127TIP3    H130314   6.379   0.802   0.455 -3.1297 -0.1599  0.7415
10127TIP3    H230315   6.314   0.913   0.375  1.0474  1.0208 -1.1745
10128TIP3   OH230316   7.764   0.389   0.497 -0.1144 -0.0546 -0.1051
10128TIP3    H130317   7.719   0.474   0.496  0.5186  0.3132  1.5204
10128TIP3    H230318   7.848   0.407   0.539 -0.7612 -1.8491  2.0678
10129TIP3   OH230319   7.559   0.585   0.465  0.3906 -0.8629 -0.2716
10129TIP3    H130320   7.542   0.596   0.372  2.0134 -0.6889 -0.5650
10129TIP3    H230321   7.495   0.519   0.494  0.3188 -1.4018 -1.6421
10130TIP3   OH230322   6.675   1.171   1.697  0.4662  0.1951 -0.1115
10130TIP3    H130323   6.624   1.091   1.686 -0.5446  0.5135  1.8880
10130TIP3    H230324   6.647   1.227   1.625 -1.2017 -0.0644  0.3061
10131TIP3   OH230325   6.394   6.804   1.245  0.4621  0.0724  0.2423
10131TIP3    H130326   6.446   6.827   1.169  1.5620  0.6869  1.1793
10131TIP3    H230327   6.389   6.884   1.297  3.3216 -1.3836  2.9302
10132TIP3   OH230328   6.502   0.400   2.022  0.4622  0.6823 -0.1117
10132TIP3    H130329   6.552   0.319   2.013 -0.1694  0.4741 -2.0185
10132TIP3    H230330   6.415   0.378   1.987 -0.3335  1.6098  1.2454
10133TIP3   OH230331   4.461   6.512   0.273 -0.9053  0.2033 -0.4975
10133TIP3    H130332   4.393   6.502   0.340 -0.0058  0.4634  0.4684
10133TIP3    H230333   4.538   6.539   0.321  0.1903 -1.1519 -1.4542
10134TIP3   OH230334   8.099   0.647   0.716 -0.0205 -0.0919  0.2702
10134TIP3    H130335   8.075   0.739   0.701  0.4393 -0.1715 -0.9491
10134TIP3    H230336   8.193   0.650   0.733 -0.2791 -0.1652  1.7814
10135TIP3   OH230337   8.371   3.149   5.798 -0.5140  0.3336 -0.5234
10135TIP3    H130338   8.353   3.189   5.883 -1.4878 -0.4381 -0.3450
10135TIP3    H230339   8.335   3.060   5.806  0.2870 -0.0783 -1.3990
10136TIP3   OH230340   6.622   1.296   0.568  0.0752 -0.3333 -0.3412
10136TIP3    H130341   6.568   1.221   0.592  0.8599 -0.2944  1.6483
10136TIP3    H230342   6.559   1.363   0.540 -0.9554 -0.2463  2.0485
10137TIP3   OH230343   6.953   1.083   6.194  0.1798 -0.5184  0.3596
10137TIP3    H130344   7.014   1.103   6.123  0.0352 -1.0103  0.0898
10137TIP3    H230345   6.879   1.041   6.150 -0.1787 -0.2694  0.7318
10138TIP3   OH230346   5.411   7.407   0.693  0.3217 -0.0616 -0.0206
10138TIP3    H130347   5.504   7.407   0.714  0.6992 -0.0102 -1.6450
10138TIP3    H230348   5.371   7.358   0.765  1.8049 -1.5292 -0.1537
10139TIP3   OH230349   4.582   4.920   0.481  0.3013  0.1294  0.2923
10139TIP3    H130350   4.626   4.837   0.498 -1.0362 -0.5615  0.4978
10139TIP3    H230351   4.527   4.934   0.558  0.1824  0.9894  0.0607
10140TIP3   OH230352   6.510   7.813   0.081  0.6383 -0.1183  0.1905
10140TIP3    H130353   6.565   7.890   0.100  0.2868  0.9492 -2.8299
10140TIP3    H230354   6.472   7.790   0.165  2.3879  1.7447  1.5582
10141TIP3   OH230355   7.996   4.272   4.537  0.3029  0.0695  0.1444
10141TIP3    H130356   8.046   4.319   4.605  0.8637  0.2434 -0.3837
10141TIP3    H230357   8.033   4.304   4.455 -0.6777  0.1894 -0.2552
10142TIP3   OH230358   3.918   4.925   0.342 -0.1870  0.3231 -0.1165
10142TIP3    H130359   3.928   4.829   0.345 -1.3890  0.2106  0.6202
10142TIP3    H230360   3.859   4.945   0.415 -2.2973  1.3183 -2.0359
10143TIP3   OH230361   6.150   5.580   1.231  0.7970  0.0922  0.1381
10143TIP3    H130362   6.222   5.588   1.294  1.1497  0.2603 -0.2849
10143TIP3    H230363   6.075   5.620   1.275  1.1648  0.6584  0.2556
10144TIP3   OH230364   0.547   2.318   5.299 -0.8767 -0.2598 -0.6313
10144TIP3    H130365   0.527   2.382   5.231  0.8441  0.6124 -0.3438
10144TIP3    H230366   0.518   2.360   5.381 -1.2696 -0.5483 -0.6193
10145TIP3   OH230367   2.550   3.929   0.897  0.0602 -0.8717 -0.1091
10145TIP3    H130368   2.614   3.999   0.884 -0.3550 -0.4515  0.0736
10145TIP3    H230369   2.518   3.942   0.986 -0.0183 -1.2914 -0.0759
10146TIP3   OH230370   5.437   1.440   2.133 -0.3882  0.2984 -0.6259
10146TIP3    H130371   5.405   1.356   2.100 -1.1873  1.1483 -2.0820
10146TIP3    H230372   5.358   1.487   2.161  0.0025  0.7507 -0.2669
10147TIP3   OH230373   6.197   3.531   5.763 -0.2782 -0.2767 -0.2534
10147TIP3    H130374   6.204   3.436   5.774  0.6737 -0.1797  0.0013
10147TIP3    H230375   6.249   3.549   5.685 -0.5721  0.0249 -0.3802
10148TIP3   OH230376   0.165   3.396   5.969 -0.0599  0.7286  0.4963
10148TIP3    H130377   0.120   3.476   5.940 -0.3792  1.3742  2.6857
10148TIP3    H230378   0.115   3.367   6.045  1.6896 -0.0150  1.3769
10149TIP3   OH230379   5.084   6.400   0.652  0.4965 -0.4774  0.3196
10149TIP3    H130380   5.014   6.460   0.674  0.5659 -0.3306  0.1382
10149TIP3    H230381   5.134   6.445   0.584  1.5993  0.0381  1.4471
10150TIP3   OH230382   0.547   2.968   6.062  1.0509 -0.0211 -0.1717
10150TIP3    H130383   0.546   2.950   6.156  0.3899  2.1469  0.2799
10150TIP3    H230384   0.456   2.962   6.035  0.9886  1.1533 -0.2728
10151TIP3   OH230385   3.962   7.596   0.050 -0.1175  0.9239  0.4896
10151TIP3    H130386   4.056   7.612   0.057  0.0986  0.8206 -1.8541
10151TIP3    H230387   3.935   7.575   0.139  2.0155  1.2997  1.2583
10152TIP3   OH230388   5.657   4.960   0.227 -0.5165 -0.3976 -0.0207
10152TIP3    H130389   5.596   4.990   0.159  1.4091  0.0962 -1.5697
10152TIP3    H230390   5.658   5.031   0.291 -2.2921 -0.8338  0.5211
10153TIP3   OH230391   0.158   1.682   6.391  0.4140 -0.1624  0.3565
10153TIP3    H130392   0.221   1.648   6.328 -1.3418  0.7542 -1.9620
10153TIP3    H230393   0.202   1.756   6.432  0.7275  0.6963 -1.5072
10154TIP3   OH230394   3.147   4.550   1.715 -0.2042  0.0291 -0.2260
10154TIP3    H130395   3.180   4.632   1.678 -2.0960  2.4172  3.0580
10154TIP3    H230396   3.217   4.520   1.774 -0.4136  0.5495  0.2989
10155TIP3   OH230397   3.968   6.056   1.004  0.8815 -0.6234  0.2916
10155TIP3    H130398   3.998   6.055   1.095  0.4486 -1.8096  0.4173
10155TIP3    H230399   3.993   5.971   0.969  0.3825 -0.4501 -0.4946
10156TIP3   OH230400   1.094   1.832   5.960 -0.1690  0.3859  0.4245
10156TIP3    H130401   1.059   1.758   6.010 -0.2097  0.5088  0.5788
10156TIP3    H230402   1.153   1.876   6.022  0.2033  0.2204  0.1910
10157TIP3   OH230403   0.530   1.040   6.114 -0.2248  0.0683  0.2846
10157TIP3    H130404   0.589   1.109   6.146 -1.0346  0.1506  1.6486
10157TIP3    H230405   0.568   1.013   6.030  1.2102  0.7821  0.6838
10158TIP3   OH230406   1.388   4.141   5.984 -0.2283 -0.4039  0.4905
10158TIP3    H130407   1.429   4.082   5.921 -0.2284  0.7222 -0.5938
10158TIP3    H230408   1.455   4.207   6.001  0.7359 -2.0899  3.6925
10159TIP3   OH230409   6.667   1.116   1.124  0.0840 -0.0905 -0.3618
10159TIP3    H130410   6.650   1.071   1.207  0.1324  1.0176  0.2679
10159TIP3    H230411   6.600   1.083   1.064  0.3017 -1.1999  0.0052
10160TIP3   OH230412   6.254   7.569   1.423 -0.4925 -0.1305  0.2357
10160TIP3    H130413   6.260   7.491   1.368 -1.6770 -1.0897  1.4350
10160TIP3    H230414   6.195   7.627   1.375 -0.6857 -0.5264 -0.0070
10161TIP3   OH230415   2.316   3.748   6.453  0.7218  0.3763 -0.4555
10161TIP3    H130416   2.397   3.737   6.404  0.7153 -1.6189 -0.0619
10161TIP3    H230417   2.299   3.662   6.492 -2.8935  0.0232 -2.5667
10162TIP3   OH230418   4.567   6.574   0.011 -0.0185 -0.2623 -0.2034
10162TIP3    H130419   4.541   6.575   0.103 -1.9701  2.5096 -0.7163
10162TIP3    H230420   4.485   6.577  -0.038  1.0158 -0.4125 -2.0127
10163TIP3   OH230421   5.540   6.486   1.444 -0.2046  0.3890  0.0839
10163TIP3    H130422   5.494   6.570   1.449  0.5699  0.8041  0.2869
10163TIP3    H230423   5.532   6.450   1.533  0.5807  0.8474  0.3438
10164TIP3   OH230424   3.691   1.761   6.923 -0.4022 -0.0034 -0.2735
10164TIP3    H130425   3.748   1.804   6.858 -0.6004  0.5146 -0.1095
10164TIP3    H230426   3.706   1.668   6.910  0.7459  0.1380 -0.0121
10165TIP3   OH230427   4.139   6.666   1.674 -0.5219 -0.3509  0.3011
10165TIP3    H130428   4.046   6.654   1.694 -0.5687 -1.3486 -0.5023
10165TIP3    H230429   4.184   6.646   1.756 -1.0993  1.5784  1.1234
10166TIP3   OH230430   4.752   5.772   0.396  0.4670  0.9167  0.8476
10166TIP3    H130431   4.734   5.681   0.371  1.7740  0.8643  0.0800
10166TIP3    H230432   4.685   5.823   0.350  0.9443  0.5232 -0.3095
10167TIP3   OH230433   4.148   5.394   1.296 -0.1583 -0.2103  0.3953
10167TIP3    H130434   4.059   5.389   1.260  0.1487  1.5620 -0.6344
10167TIP3    H230435   4.167   5.304   1.325 -2.8671 -0.2893  2.0710
10168TIP3   OH230436   6.659   7.156   0.749  0.1099 -0.1991  0.0673
10168TIP3    H130437   6.691   7.239   0.713 -0.5340  0.8184  1.7396
10168TIP3    H230438   6.716   7.139   0.824  0.6145 -1.5855 -0.6342
10169TIP3   OH230439   6.297   7.408   2.633 -0.0307  0.5335  0.2552
10169TIP3    H130440   6.281   7.355   2.711 -0.0116  1.5238  0.9397
10169TIP3    H230441   6.375   7.370   2.593  0.1911  0.2744  0.9334
10170TIP3   OH230442   4.133   3.305   6.952  0.3061  0.7209  0.1446
10170TIP3    H130443   4.039   3.310   6.931 -0.3496 -0.2680  2.6312
10170TIP3    H230444   4.162   3.223   6.913  0.2532  1.2381 -1.0079
10171TIP3   OH230445   3.065   6.229   1.072 -0.7448 -0.8346 -0.2053
10171TIP3    H130446   3.127   6.267   1.135  1.0832 -2.0297 -1.2523
10171TIP3    H230447   2.981   6.270   1.094  0.2040  0.0674  1.8855
10172TIP3   OH230448   1.685   3.349   5.904  0.0306 -0.1919  0.4555
10172TIP3    H130449   1.654   3.431   5.943 -1.1426 -0.8414  0.9198
10172TIP3    H230450   1.616   3.286   5.922  0.6088 -1.1269 -0.5093
10173TIP3   OH230451   3.422   1.778   6.279 -0.4186 -0.4728 -0.2175
10173TIP3    H130452   3.500   1.827   6.304 -1.0715 -0.4723  1.9519
10173TIP3    H230453   3.446   1.686   6.288 -0.4169 -0.4846 -0.3435
10174TIP3   OH230454   3.165   6.743   0.657  0.2254  0.0125  0.4090
10174TIP3    H130455   3.209   6.716   0.738  0.8529 -0.5930 -0.1302
10174TIP3    H230456   3.236   6.766   0.597 -0.2513  1.0667  0.2296
10175TIP3   OH230457   4.407   6.116   0.043  0.6046 -0.1232  0.2640
10175TIP3    H130458   4.370   6.040  -0.003  0.7988  0.2446 -0.5103
10175TIP3    H230459   4.397   6.188  -0.019  0.4105  0.4884  1.0002
10176TIP3   OH230460   1.588   0.833   5.791  0.1368  0.3337  0.0785
10176TIP3    H130461   1.632   0.762   5.743  0.8296  1.4386 -0.9540
10176TIP3    H230462   1.634   0.912   5.763 -1.2667  1.2954  0.4667
10177TIP3   OH230463   2.429   4.280   5.206 -0.4852 -0.1399 -0.0788
10177TIP3    H130464   2.366   4.218   5.169 -0.3005  0.8945 -2.2316
10177TIP3    H230465   2.376   4.344   5.253 -1.1940  1.2698 -2.6782
10178TIP3   OH230466   0.044   2.697   1.221 -0.4305 -0.0657 -0.3938
10178TIP3    H130467   0.058   2.634   1.150 -0.3579 -0.1870 -0.2723
10178TIP3    H230468  -0.016   2.653   1.281 -0.1265 -0.1487 -0.1463
10179TIP3   OH230469   5.267   7.337   1.382 -0.3852 -0.5308 -0.2279
10179TIP3    H130470   5.290   7.269   1.319  1.8833 -0.0123 -0.0080
10179TIP3    H230471   5.348   7.352   1.431 -1.2477  1.3227  0.6701
10180TIP3   OH230472   1.560   7.178   2.054 -0.6441  0.4348  0.0612
10180TIP3    H130473   1.471   7.159   2.025  0.0758 -0.4264 -1.6491
10180TIP3    H230474   1.558   7.166   2.149 -1.8465 -1.5814 -0.2102
10181TIP3   OH230475   3.992   6.427   2.362 -0.4174  0.1867 -0.2786
10181TIP3    H130476   3.916   6.475   2.393  0.1211  0.8347  0.0496
10181TIP3    H230477   3.974   6.336   2.388 -0.1053  0.6637  1.7362
10182TIP3   OH230478   4.655   7.232   0.101  0.1352 -0.0777 -0.5041
10182TIP3    H130479   4.621   7.148   0.132 -1.0219  0.4071 -0.4055
10182TIP3    H230480   4.612   7.246   0.017  0.8167  0.1124 -0.8227
10183TIP3   OH230481   5.938   6.047   1.928 -0.1144  0.0679 -0.2718
10183TIP3    H130482   5.899   5.960   1.932 -0.5296  0.2897  0.6572
10183TIP3    H230483   5.929   6.073   1.836 -2.5344  0.2787 -0.0060
10184TIP3   OH230484   3.704   6.864   1.599 -0.0876 -0.0851 -0.2387
10184TIP3    H130485   3.670   6.946   1.634 -0.2348 -0.0943 -0.3603
10184TIP3    H230486   3.798   6.869   1.616 -0.3437 -0.7531  1.5003
10185TIP3   OH230487   3.412   7.103   0.926 -0.1441 -0.0437 -0.7669
10185TIP3    H130488   3.501   7.072   0.940 -0.4605 -0.3718  0.5783
10185TIP3    H230489   3.407   7.121   0.832  0.7573 -1.8822 -1.1928
10186TIP3   OH230490   6.480   0.363   1.700 -0.2352  0.5968 -0.1087
10186TIP3    H130491   6.523   0.351   1.615 -0.3569  0.4192 -0.1454
10186TIP3    H230492   6.391   0.331   1.686  0.4342 -1.8287  0.7626
10187TIP3   OH230493   1.801   0.865   5.447  0.4530  0.4795  0.0735
10187TIP3    H130494   1.861   0.919   5.396  1.2081  1.5529  2.0735
10187TIP3    H230495   1.740   0.927   5.488  0.2128 -0.3089  0.9453
10188TIP3   OH230496   6.429   6.512   1.642  0.2494  0.0278 -0.3924
10188TIP3    H130497   6.348   6.556   1.616  0.6273  0.7205 -0.4145
10188TIP3    H230498   6.499   6.567   1.607  0.7333 -0.3693 -0.0590
10189TIP3   OH230499   4.686   0.672   6.066 -0.3280 -0.0126 -0.1831
10189TIP3    H130500   4.706   0.592   6.018  0.3664  1.2161 -2.0083
10189TIP3    H230501   4.764   0.689   6.118 -0.9850 -1.2157  1.2177
10190TIP3   OH230502   3.825   3.995   1.277  0.2625 -0.3059  0.2349
10190TIP3    H130503   3.867   3.932   1.335 -0.7465 -0.4127  0.8699
10190TIP3    H230504   3.773   3.940   1.217 -0.9797 -0.0836  1.0764
10191TIP3   OH230505   2.073   2.466   6.361 -0.0457  0.1662  0.3297
10191TIP3    H130506   2.098   2.555   6.388  0.0929  0.2120  0.0517
10191TIP3    H230507   2.151   2.413   6.375  0.6578  0.5861 -1.8516
10192TIP3   OH230508   6.100   7.255   0.457 -0.7674 -0.3439  0.6713
10192TIP3    H130509   6.069   7.174   0.416  0.0972 -0.6007  0.4994
10192TIP3    H230510   6.171   7.285   0.400 -1.0668  0.5225  0.7509
10193TIP3   OH230511   6.796   0.176   0.116  0.5378  0.4625 -0.4838
10193TIP3    H130512   6.866   0.192   0.180  1.5500 -0.9033 -1.2045
10193TIP3    H230513   6.805   0.083   0.094 -0.0446  0.8123 -2.3029
10194TIP3   OH230514   5.741   7.261   0.985  0.2579 -0.3890  0.1400
10194TIP3    H130515   5.735   7.166   0.977  1.9168 -0.3831 -1.6291
10194TIP3    H230516   5.830   7.276   1.017 -0.0561  0.5648  0.5790
10195TIP3   OH230517   0.282   2.055   3.881 -0.1819  0.5236  0.0829
10195TIP3    H130518   0.326   1.990   3.935 -0.5889 -0.1397 -0.3729
10195TIP3    H230519   0.344   2.127   3.874 -0.4748  1.0239  2.1750
10196TIP3   OH230520   6.612   0.565   0.234 -0.3683 -0.5274  0.2372
10196TIP3    H130521   6.540   0.609   0.188 -1.0910 -1.9897 -0.0554
10196TIP3    H230522   6.675   0.543   0.165 -1.1911 -2.2171  0.0095
10197TIP3   OH230523   2.457   7.697   0.493  0.1688  0.3571 -0.0579
10197TIP3    H130524   2.530   7.663   0.442 -0.6634 -2.1513  0.3449
10197TIP3    H230525   2.496   7.724   0.577  0.8411  0.3833 -0.3812
10198TIP3   OH230526   3.925   6.653   1.009 -0.3395  0.9091 -0.5234
10198TIP3    H130527   3.977   6.663   1.088  1.0475 -2.5905 -0.9023
10198TIP3    H230528   3.835   6.662   1.038  0.2391  1.6379  1.0920
10199TIP3   OH230529   3.355   1.477   6.707 -0.0204  0.3678  0.3560
10199TIP3    H130530   3.291   1.422   6.662  1.1591 -0.3743 -0.4471
10199TIP3    H230531   3.317   1.565   6.703 -1.8156 -0.3176  1.4535
10200TIP3   OH230532   4.782   1.584   6.832  0.0838  0.5782  0.0209
10200TIP3    H130533   4.877   1.583   6.816 -0.0649 -1.7425 -0.8689
10200TIP3    H230534   4.744   1.609   6.748 -0.1141  1.5033  0.3781
10201TIP3   OH230535   7.041   0.251   0.892 -0.3549 -0.4651  0.0514
10201TIP3    H130536   7.056   0.339   0.859 -2.9589 -0.0119 -0.0722
10201TIP3    H230537   7.044   0.195   0.815 -1.4227 -0.0846 -0.2837
10202TIP3   OH230538   7.082   0.802   0.668 -0.0757 -0.0242  0.1807
10202TIP3    H130539   7.117   0.887   0.694  0.0290  0.3953 -1.2730
10202TIP3    H230540   7.158   0.754   0.635 -0.2715 -0.4088  0.2780
10203TIP3   OH230541   3.452   6.987   0.315  0.4916 -0.1670  0.0152
10203TIP3    H130542   3.357   6.993   0.327  0.3431  1.1951 -1.7352
10203TIP3    H230543   3.465   6.913   0.256  0.5873 -0.7728  0.7775
10204TIP3   OH230544   4.596   6.659   0.664  0.5218 -0.2229  1.0518
10204TIP3    H130545   4.600   6.707   0.747  0.2745 -1.1299  1.5921
10204TIP3    H230546   4.612   6.568   0.688  0.1518 -0.5318  0.1433
10205TIP3   OH230547   2.063   3.834   6.321  0.1187 -0.6049 -0.1651
10205TIP3    H130548   2.040   3.767   6.256  0.2109 -1.8181  1.0325
10205TIP3    H230549   2.149   3.808   6.354 -0.4669 -0.7178  1.3364
10206TIP3   OH230550   5.186   2.532   4.908 -0.4566  0.1221 -0.1155
10206TIP3    H130551   5.204   2.536   5.002 -0.1280  0.4915 -0.1972
10206TIP3    H230552   5.167   2.440   4.892 -2.0885  0.3031  0.6127
10207TIP3   OH230553   1.211   0.699   1.540  0.2568 -0.5776  0.3413
10207TIP3    H130554   1.211   0.603   1.534  1.1521 -0.5070 -1.0824
10207TIP3    H230555   1.157   0.718   1.616 -1.5987 -2.1535 -0.5179
10208TIP3   OH230556   3.373   2.049   6.651  0.3088 -0.3442  0.3935
10208TIP3    H130557   3.417   2.132   6.630  0.1572 -0.5392 -0.7162
10208TIP3    H230558   3.428   2.010   6.719 -0.0227  1.0078  1.4821
10209TIP3   OH230559   3.437   2.550   6.801 -0.5406 -0.1282 -0.0607
10209TIP3    H130560   3.394   2.520   6.720  3.4115 -2.5736 -1.3813
10209TIP3    H230561   3.485   2.628   6.775 -3.3321  2.1348  1.2394
10210TIP3   OH230562   6.957   5.994   1.468  0.4690 -0.2385 -0.6859
10210TIP3    H130563   6.864   6.009   1.485  0.5890  0.0716 -0.2774
10210TIP3    H230564   7.002   6.059   1.522  0.9961 -1.7423  0.7493
10211TIP3   OH230565   5.218   1.457   6.188  0.4342  0.3886  0.3897
10211TIP3    H130566   5.245   1.530   6.133 -0.0046 -0.2963 -0.7517
10211TIP3    H230567   5.299   1.425   6.227  0.6524  1.3430  0.7316
10212TIP3   OH230568   0.701   6.684   0.080  0.2514 -0.5100  0.2694
10212TIP3    H130569   0.689   6.677  -0.014 -0.1456 -0.7826  0.3391
10212TIP3    H230570   0.640   6.620   0.117 -0.4389  0.4240  0.7597
10213TIP3   OH230571   7.447   7.321   0.523 -0.3124  0.3159 -1.0226
10213TIP3    H130572   7.444   7.231   0.490 -1.0239  0.0121 -0.1355
10213TIP3    H230573   7.514   7.319   0.591 -0.7878  0.3090 -0.5559
10214TIP3   OH230574   6.293   6.716   0.492 -0.0028  0.1031  0.1177
10214TIP3    H130575   6.236   6.645   0.523 -1.1102  1.0566  0.2989
10214TIP3    H230576   6.273   6.790   0.549 -1.2573  1.5564 -2.1043
10215TIP3   OH230577   1.745   0.175   2.457  0.4738  0.2421 -0.4359
10215TIP3    H130578   1.836   0.203   2.460  0.4617  0.2177  0.4090
10215TIP3    H230579   1.743   0.104   2.394  1.1788 -0.2533  0.1023
10216TIP3   OH230580   8.102   7.188   0.059  0.1990 -0.2799 -0.1944
10216TIP3    H130581   8.035   7.251   0.030 -0.3025 -0.7685 -0.1007
10216TIP3    H230582   8.184   7.222   0.022 -0.3870 -0.7625 -2.0277
10217TIP3   OH230583   4.926   7.515   0.833  0.4704 -0.1272  0.1332
10217TIP3    H130584   4.949   7.602   0.802 -0.0803 -0.1720 -0.3892
10217TIP3    H230585   4.981   7.503   0.911 -0.5004  1.2512  1.0463
10218TIP3   OH230586   4.323   1.597   5.642  0.3355  0.0042 -0.4843
10218TIP3    H130587   4.293   1.529   5.582  1.0104  1.3931 -2.4487
10218TIP3    H230588   4.245   1.648   5.661  0.4901  0.7527 -1.7927
10219TIP3   OH230589   7.446   7.924   2.300 -0.3080  0.0364 -0.4881
10219TIP3    H130590   7.498   7.864   2.246 -1.4717 -1.2743 -0.1570
10219TIP3    H230591   7.428   7.875   2.380 -0.6009  1.1210  0.1138
10220TIP3   OH230592   7.548   5.615   0.171 -0.4419 -0.4011  0.1039
10220TIP3    H130593   7.618   5.564   0.212 -0.3977 -0.6742 -0.3110
10220TIP3    H230594   7.548   5.587   0.080  0.8674  1.7392 -0.5916
10221TIP3   OH230595   3.207   3.023   6.232 -0.3484 -0.2652  0.2624
10221TIP3    H130596   3.232   2.932   6.216 -1.0309 -0.6313  1.2333
10221TIP3    H230597   3.119   3.031   6.194 -0.4205 -0.1020  0.4602
10222TIP3   OH230598   6.053   6.316   1.539 -0.0805  0.0949 -0.5031
10222TIP3    H130599   6.143   6.311   1.506  0.0321  1.1838 -0.4137
10222TIP3    H230600   6.062   6.363   1.622 -0.7880  0.6072 -0.7134
10223TIP3   OH230601   3.990   2.388   5.667 -0.0619  0.9044  0.4918
10223TIP3    H130602   4.011   2.397   5.760 -0.1686  0.8549  0.5204
10223TIP3    H230603   4.019   2.471   5.628  0.4912  0.7063  0.4772
10224TIP3   OH230604   5.931   6.771   3.077 -0.0969  0.3672 -0.2939
10224TIP3    H130605   5.933   6.732   2.990 -2.4724  1.4062 -0.8359
10224TIP3    H230606   6.021   6.802   3.091  1.4343 -3.6968 -0.5265
10225TIP3   OH230607   6.964   6.252   0.128 -0.1271  0.2896  0.4564
10225TIP3    H130608   6.909   6.275   0.054 -1.0678  0.5350  1.2287
10225TIP3    H230609   6.986   6.336   0.169  0.8300  0.1994  0.1616
10226TIP3   OH230610   3.445   4.514   5.649  0.4722  0.2699  0.1472
10226TIP3    H130611   3.479   4.601   5.629  0.5210  0.0415 -0.7786
10226TIP3    H230612   3.360   4.510   5.605  1.3410 -0.8556 -1.4589
10227TIP3   OH230613   7.422   7.146   0.163  0.2720 -0.0760  0.1604
10227TIP3    H130614   7.447   7.126   0.073  0.8215 -0.4060  0.3796
10227TIP3    H230615   7.345   7.203   0.155  0.6235  0.3128 -0.5214
10228TIP3   OH230616   3.617   2.741   6.664  0.0771 -0.3310 -0.1040
10228TIP3    H130617   3.564   2.811   6.705  0.3092  0.4513 -1.1332
10228TIP3    H230618   3.707   2.772   6.671  0.4343 -1.6377  1.5895
10229TIP3   OH230619   2.301   5.497   6.651  0.6021 -0.0925  0.1489
10229TIP3    H130620   2.344   5.447   6.721 -2.0216 -0.3896  1.6368
10229TIP3    H230621   2.263   5.431   6.594 -0.4187  0.1803  0.5082
10230TIP3   OH230622   3.036   0.792   5.590 -0.5097 -0.4382 -0.0096
10230TIP3    H130623   3.116   0.744   5.611  1.0865  1.9158 -0.5375
10230TIP3    H230624   3.019   0.845   5.667  0.0404  1.1672 -0.9789
10231TIP3   OH230625   3.038   0.543   4.700  0.8295 -0.1280  0.3790
10231TIP3    H130626   3.033   0.587   4.785  0.7321 -0.6757  0.6571
10231TIP3    H230627   3.023   0.613   4.637 -1.0140 -0.0437  0.8719
10232TIP3   OH230628   0.141   5.516   0.549  0.0288  0.8189  0.1628
10232TIP3    H130629   0.200   5.530   0.475  1.8129 -0.0679  1.3727
10232TIP3    H230630   0.197   5.520   0.626 -1.4518 -0.3415  1.3431
10233TIP3   OH230631   3.585   1.166   6.879 -0.2213 -0.1935 -0.3490
10233TIP3    H130632   3.661   1.108   6.874 -0.5705 -0.8975  1.7653
10233TIP3    H230633   3.517   1.112   6.918 -0.8935  1.3038  0.5805
10234TIP3   OH230634   1.436   2.306   4.810  0.5867  0.1841 -0.1665
10234TIP3    H130635   1.382   2.330   4.735  1.2368  2.3112 -0.0131
10234TIP3    H230636   1.517   2.272   4.772 -0.2107 -1.5020 -0.3978
10235TIP3   OH230637   2.266   3.739   6.950  0.2545  0.0191  0.2090
10235TIP3    H130638   2.218   3.718   6.870  0.5642 -0.0137  0.0300
10235TIP3    H230639   2.243   3.830   6.968  1.4605  0.5490 -0.8299
10236TIP3   OH230640   3.544   1.318   0.764 -0.1186  0.2265 -0.9191
10236TIP3    H130641   3.563   1.322   0.670 -0.1940 -2.5211 -1.0817
10236TIP3    H230642   3.449   1.323   0.769 -0.0464  1.9785 -0.8523
10237TIP3   OH230643   6.193   4.790   2.396 -0.0243  0.1937  0.2854
10237TIP3    H130644   6.177   4.815   2.487 -0.2116 -0.7715  0.5254
10237TIP3    H230645   6.274   4.740   2.398  0.7597  1.4301 -0.3052
10238TIP3   OH230646   3.713   3.068   5.372 -0.1585  0.0369  0.0480
10238TIP3    H130647   3.760   2.985   5.376  1.7842  1.1285  0.4669
10238TIP3    H230648   3.677   3.081   5.460 -1.9414 -1.1508 -0.4647
10239TIP3   OH230649   2.296   0.889   6.404 -0.4645  0.4136 -0.1739
10239TIP3    H130650   2.351   0.958   6.443 -1.7025 -0.8286  4.0142
10239TIP3    H230651   2.212   0.897   6.450 -1.3020 -2.5417 -1.1164
10240TIP3   OH230652   6.310   7.343   2.078 -0.0762  0.0562 -0.4462
10240TIP3    H130653   6.333   7.250   2.084 -1.4147 -0.1996  1.2572
10240TIP3    H230654   6.255   7.349   2.000 -0.7819 -0.7822 -0.0229
10241TIP3   OH230655   7.272   6.192   3.284  0.4026 -0.2017 -0.5053
10241TIP3    H130656   7.265   6.126   3.215 -0.1640 -0.4389 -0.2183
10241TIP3    H230657   7.191   6.242   3.279  0.9630  0.6720 -0.9212
10242TIP3   OH230658   2.468   7.849   6.356  0.4531 -0.3985  0.6058
10242TIP3    H130659   2.552   7.857   6.311  1.0067 -0.6851  1.5684
10242TIP3    H230660   2.426   7.773   6.317  0.1525  0.3850 -0.6407
10243TIP3   OH230661   8.017   7.220   0.526 -0.1485 -0.1525 -0.1475
10243TIP3    H130662   8.069   7.253   0.599 -0.6027  0.1451  0.0413
10243TIP3    H230663   8.057   7.135   0.504  1.2950  0.7139 -0.9351
10244TIP3   OH230664   7.192   5.611   1.340  0.0499  0.7015  0.3607
10244TIP3    H130665   7.235   5.644   1.419  1.1628  0.8332 -0.3071
10244TIP3    H230666   7.247   5.640   1.268 -0.1464 -0.7087 -0.3818
10245TIP3   OH230667   3.905   0.779   6.232  0.7783 -0.1408 -0.0135
10245TIP3    H130668   3.960   0.857   6.234  0.2529  0.2049  1.4307
10245TIP3    H230669   3.880   0.765   6.323 -2.6896  0.5362 -0.8159
10246TIP3   OH230670   7.157   7.764   1.242  0.1629  0.6025 -0.5022
10246TIP3    H130671   7.081   7.715   1.272  0.4912  1.1056  1.2172
10246TIP3    H230672   7.204   7.703   1.185 -0.5664 -0.3246 -0.1272
10247TIP3   OH230673   7.003   7.843   1.721  0.1097 -0.5782  0.5805
10247TIP3    H130674   6.995   7.756   1.683  1.3074 -0.2624 -0.4316
10247TIP3    H230675   6.933   7.894   1.680 -0.8786 -1.1668  1.5119
10248TIP3   OH230676   3.495   2.576   6.049  0.3060 -0.4994 -0.0688
10248TIP3    H130677   3.554   2.573   6.124  0.3096 -2.0938 -0.1156
10248TIP3    H230678   3.552   2.560   5.973  0.0118 -0.7981 -0.2273
10249TIP3   OH230679   1.895   1.746   4.799 -0.2877  0.5059  0.5142
10249TIP3    H130680   1.828   1.751   4.731 -1.3630  1.1137  1.6033
10249TIP3    H230681   1.968   1.799   4.766 -0.6220  0.4247 -0.3521
10250TIP3   OH230682   7.909   4.306   1.553 -0.2760 -0.1645 -0.1954
10250TIP3    H130683   7.970   4.232   1.550  0.5863  0.5817 -1.0715
10250TIP3    H230684   7.924   4.353   1.471  0.4843  2.0010  1.1369
10251TIP3   OH230685   5.095   1.158   6.893 -0.2166 -0.2506 -0.7871
10251TIP3    H130686   5.125   1.246   6.867 -0.0282 -0.0482  0.1001
10251TIP3    H230687   5.020   1.141   6.837  0.0812  0.2528 -1.3486
10252TIP3   OH230688   0.372   4.614   2.004  0.1997 -0.0508 -0.3234
10252TIP3    H130689   0.408   4.693   1.963  1.9083  0.6847  2.4500
10252TIP3    H230690   0.377   4.632   2.098 -0.2519 -3.0880  0.3231
10253TIP3   OH230691   2.237   0.508   2.186  0.3542 -0.4256 -0.5517
10253TIP3    H130692   2.215   0.565   2.112 -0.3971  1.9916  1.4818
10253TIP3    H230693   2.323   0.539   2.215  0.1981 -0.7203  0.2136
10254TIP3   OH230694   4.183   7.715   1.073 -0.5647 -0.6732  0.7363
10254TIP3    H130695   4.226   7.638   1.038 -0.5159 -0.0371 -0.6555
10254TIP3    H230696   4.254   7.774   1.097 -0.6169 -0.4782  0.4212
10255TIP3   OH230697   7.494   4.185   2.138 -0.1811 -0.1118  0.6838
10255TIP3    H130698   7.414   4.161   2.186  0.1370 -0.6677  0.9435
10255TIP3    H230699   7.531   4.257   2.188  1.1655 -1.9302  2.3849
10256TIP3   OH230700   7.572   6.235   0.746  0.6821  0.0918  0.5337
10256TIP3    H130701   7.654   6.204   0.784  1.0330  0.2871 -0.0717
10256TIP3    H230702   7.504   6.199   0.804  1.1682 -0.4673  0.7601
10257TIP3   OH230703   3.171   0.959   6.355 -0.2447  0.4265  0.3601
10257TIP3    H130704   3.260   0.926   6.344 -0.1764  0.9165 -0.5859
10257TIP3    H230705   3.140   0.917   6.436  0.2221 -1.0861 -0.2336
10258TIP3   OH230706   5.046   7.036   0.557  0.0514  0.2594 -0.4864
10258TIP3    H130707   5.063   6.973   0.487  0.9145 -0.7699  0.6387
10258TIP3    H230708   5.043   6.983   0.637  0.4761  1.6073  0.4307
10259TIP3   OH230709   5.231   7.760   1.167 -0.3315 -0.0899 -0.2400
10259TIP3    H130710   5.320   7.726   1.157  0.5236  1.8480  0.4731
10259TIP3    H230711   5.225   7.829   1.101 -1.1362  0.1376  0.0660
10260TIP3   OH230712   2.389   1.431   6.263 -0.0436 -0.0006  0.1160
10260TIP3    H130713   2.313   1.374   6.252 -0.6369  0.2461  2.6307
10260TIP3    H230714   2.391   1.483   6.183 -3.0518  0.5759  0.3556
10261TIP3   OH230715   1.838   4.725   5.373  0.3631 -0.2513  0.4882
10261TIP3    H130716   1.770   4.666   5.342  0.1937 -0.4924  1.3086
10261TIP3    H230717   1.873   4.766   5.294 -1.8823  1.1283  0.1642
10262TIP3   OH230718   3.672   0.365   6.434  0.3840 -0.3899 -0.4529
10262TIP3    H130719   3.598   0.338   6.380  0.3674 -0.2870 -0.4812
10262TIP3    H230720   3.687   0.291   6.493  0.3647 -0.4776 -0.5587
10263TIP3   OH230721   6.037   6.914   0.726 -0.3184 -0.5245  0.1416
10263TIP3    H130722   6.100   6.858   0.773  0.3837  1.1364  1.2583
10263TIP3    H230723   6.084   6.996   0.713 -1.1245 -0.3809 -2.0010
10264TIP3   OH230724   3.929   0.726   6.891  0.0764 -0.0227 -0.0242
10264TIP3    H130725   4.008   0.744   6.942 -0.1543  1.8525 -0.2870
10264TIP3    H230726   3.961   0.692   6.808  0.5416 -0.8216  0.4810
10265TIP3   OH230727   8.277   1.139   6.085 -0.7136  0.3081 -0.3833
10265TIP3    H130728   8.204   1.193   6.117 -0.1487  0.8573  0.0097
10265TIP3    H230729   8.290   1.168   5.995 -0.7148  0.5031 -0.3226
10266TIP3   OH230730   4.004   1.379   6.876  0.4739 -0.1916 -0.0793
10266TIP3    H130731   4.096   1.404   6.884  0.9829 -1.5792 -1.2104
10266TIP3    H230732   3.985   1.330   6.956 -0.3716  3.2197  1.8761
10267TIP3   OH230733   6.467   2.553   4.599 -0.1862 -0.0504 -0.1078
10267TIP3    H130734   6.445   2.505   4.679 -1.5741 -2.5491 -1.9195
10267TIP3    H230735   6.420   2.636   4.607 -1.3153 -0.7873  1.1264
10268TIP3   OH230736   4.948   2.641   4.948  0.2276  0.7204 -0.4050
10268TIP3    H130737   4.932   2.693   4.869 -0.3257 -0.2722 -0.9613
10268TIP3    H230738   5.024   2.587   4.925 -0.1546  0.1728 -0.3974
10269TIP3   OH230739   5.405   6.076   0.167 -0.0456 -0.2200  0.1439
10269TIP3    H130740   5.456   6.011   0.217 -1.5957 -0.3481  1.6163
10269TIP3    H230741   5.468   6.144   0.146  0.9295 -0.7435  1.2660
10270TIP3   OH230742   5.212   6.379   0.225 -0.2021 -0.2778  0.0333
10270TIP3    H130743   5.153   6.304   0.230  1.3137 -1.3891  2.1633
10270TIP3    H230744   5.232   6.399   0.317  2.2232  0.4634 -0.6169
10271TIP3   OH230745   5.156   6.100   0.311  0.5609  0.2024 -0.1675
10271TIP3    H130746   5.251   6.102   0.295  0.7818  2.3035  1.2258
10271TIP3    H230747   5.146   6.046   0.390  0.8265  1.8233  0.9942
10272TIP3   OH230748   5.020   3.645   6.142 -0.2783  0.1854  0.9838
10272TIP3    H130749   5.002   3.699   6.065 -0.6676  0.4269  1.2401
10272TIP3    H230750   5.090   3.586   6.115 -1.1479 -0.4597  0.0999
10273TIP3   OH230751   4.536   7.925   1.655 -0.0282 -0.2426  0.3050
10273TIP3    H130752   4.585   7.884   1.583  0.6330  0.9874  0.0399
10273TIP3    H230753   4.445   7.901   1.638  0.0143  0.6994 -1.4202
10274TIP3   OH230754   8.380   7.852   0.459  0.2760  0.0159  0.2449
10274TIP3    H130755   8.472   7.847   0.485  0.1235 -1.2667  0.5565
10274TIP3    H230756   8.351   7.761   0.457 -0.7779  0.3658 -0.6091
10275TIP3   OH230757   1.608   0.915   2.567 -0.1470 -0.1792 -0.6578
10275TIP3    H130758   1.668   0.893   2.638  0.6266 -1.0907 -1.5726
10275TIP3    H230759   1.538   0.850   2.573  0.0381 -0.3977 -0.8749
10276TIP3   OH230760   0.233   1.170   0.104  0.0123 -0.5669  0.1147
10276TIP3    H130761   0.268   1.244   0.053 -2.7059  0.1913 -0.7305
10276TIP3    H230762   0.239   1.095   0.045 -2.6199  0.1972 -1.1658
10277TIP3   OH230763   2.057   0.938   6.514  0.3460  0.5149  0.0640
10277TIP3    H130764   1.972   0.914   6.477  0.7244  0.3864 -0.7455
10277TIP3    H230765   2.040   1.014   6.569 -0.5218 -0.3279  0.9792
10278TIP3   OH230766   5.672   7.450  -0.004 -0.7773 -0.6874  0.5300
10278TIP3    H130767   5.649   7.458   0.088 -2.6525  1.5372 -0.0650
10278TIP3    H230768   5.643   7.533  -0.043 -1.4530 -2.2110 -2.3463
10279TIP3   OH230769   4.846   1.880   4.597 -0.0655 -0.3515  0.7700
10279TIP3    H130770   4.785   1.903   4.668 -1.1425 -1.2739  0.1668
10279TIP3    H230771   4.845   1.955   4.539 -1.2654 -0.6743  0.3518
10280TIP3   OH230772   6.858   6.597   0.796  0.0392  0.2245  0.0372
10280TIP3    H130773   6.817   6.679   0.767  0.3202 -0.5148 -2.6232
10280TIP3    H230774   6.785   6.539   0.816 -0.1643  0.6526  0.5509
10281TIP3   OH230775   1.899   3.340   5.414 -0.3832 -0.3664 -0.6935
10281TIP3    H130776   1.982   3.383   5.433 -0.8807  0.2506  0.1391
10281TIP3    H230777   1.871   3.377   5.331  0.3158 -0.7950 -1.1218
10282TIP3   OH230778   8.328   7.751   1.810  0.2063  0.4047 -0.6625
10282TIP3    H130779   8.402   7.713   1.763 -0.8024 -0.9513 -1.2134
10282TIP3    H230780   8.361   7.768   1.898  0.4109 -2.9232 -0.0201
10283TIP3   OH230781   4.704   6.611   1.471  0.3622  0.6224 -0.4546
10283TIP3    H130782   4.733   6.696   1.503  0.8572  0.2513  0.0892
10283TIP3    H230783   4.785   6.562   1.455  0.0758  0.1232 -0.3926
10284TIP3   OH230784   0.664   3.576   6.771  0.0599 -0.5924  0.0495
10284TIP3    H130785   0.737   3.591   6.832 -0.4048 -1.3713  0.8033
10284TIP3    H230786   0.613   3.657   6.774  1.0743  0.1054 -0.7586
10285TIP3   OH230787   4.053   4.984   6.009  0.0277 -0.2829  0.0472
10285TIP3    H130788   4.059   5.012   5.917 -1.2159 -1.7814 -0.5186
10285TIP3    H230789   4.124   4.921   6.019  1.6406  1.6340  0.7866
10286TIP3   OH230790   0.589   0.307   4.384 -0.1024 -0.3726 -0.1288
10286TIP3    H130791   0.680   0.334   4.371  0.3725 -2.1640 -0.7607
10286TIP3    H230792   0.557   0.364   4.453  0.7413  1.9094 -1.5754
10287TIP3   OH230793   0.764   1.964   6.803  0.7768  0.1136 -0.2654
10287TIP3    H130794   0.800   1.946   6.890 -0.0025  0.4363  0.1292
10287TIP3    H230795   0.682   1.915   6.800  1.2008 -0.5538 -1.1269
10288TIP3   OH230796   5.481   0.607   6.436 -1.1264  0.4308 -0.9099
10288TIP3    H130797   5.430   0.583   6.513  0.7795 -0.2717  0.1885
10288TIP3    H230798   5.572   0.607   6.467 -0.3572  0.4265 -3.0825
10289TIP3   OH230799   6.203   6.206   0.051 -0.5156 -0.2877 -0.9926
10289TIP3    H130800   6.287   6.196   0.005  0.1463 -0.5308  0.2562
10289TIP3    H230801   6.181   6.117   0.080  1.7392  0.5495  3.7628
10290TIP3   OH230802   6.952   6.522   0.239  0.2584  0.4218  1.0221
10290TIP3    H130803   6.932   6.542   0.330 -1.7617  0.9500  0.4839
10290TIP3    H230804   6.997   6.600   0.206  1.9199 -0.1710  1.8188
10291TIP3   OH230805   3.037   4.006   3.711 -0.0466  0.5731  0.0137
10291TIP3    H130806   3.079   3.941   3.768 -0.2866 -0.0439 -0.5150
10291TIP3    H230807   2.955   3.966   3.685 -1.4954  2.2126  1.9197
10292TIP3   OH230808   5.842   6.776   0.859 -0.0041  0.6999  0.7661
10292TIP3    H130809   5.896   6.816   0.791 -1.7901  2.8761  0.5352
10292TIP3    H230810   5.848   6.682   0.843  2.3831  0.9857 -0.2092
10293TIP3   OH230811   5.494   6.160   1.133  0.4694  0.4755  0.5330
10293TIP3    H130812   5.402   6.187   1.128  0.4218  0.0297 -1.2061
10293TIP3    H230813   5.490   6.067   1.156  0.4822  0.4561  0.4581
10294TIP3   OH230814   7.087   0.336   0.524  0.0363 -0.2243  0.0664
10294TIP3    H130815   7.047   0.259   0.565  0.4450 -0.6810 -0.3782
10294TIP3    H230816   7.050   0.410   0.571 -1.1009 -0.6505 -0.1395
10295TIP3   OH230817   8.246   4.388   6.478 -0.2166 -0.3708  0.8608
10295TIP3    H130818   8.331   4.374   6.521  0.8878  1.5594 -0.6092
10295TIP3    H230819   8.223   4.478   6.498 -0.5072  0.0300 -1.1076
10296TIP3   OH230820   7.608   7.702   0.856  0.3520  0.3635 -0.3857
10296TIP3    H130821   7.607   7.698   0.951 -0.4755  0.4102 -0.3832
10296TIP3    H230822   7.577   7.615   0.828  0.4479  0.4002 -0.6070
10297TIP3   OH230823   3.143   4.226   6.637 -0.1511 -0.1561 -0.0311
10297TIP3    H130824   3.144   4.134   6.609 -1.3383 -0.4827  0.9655
10297TIP3    H230825   3.234   4.255   6.627  0.1642 -1.3311 -0.6821
10298TIP3   OH230826   1.097  -0.010   0.024  0.1877  0.4922  0.3094
10298TIP3    H130827   1.063   0.063  -0.027  1.2207  1.2571  0.7066
10298TIP3    H230828   1.136   0.030   0.101  0.4723 -0.5063  0.6980
10299TIP3   OH230829   3.846   1.284   3.615 -0.0113 -0.0178 -0.2671
10299TIP3    H130830   3.865   1.356   3.555 -1.9397  2.3068  1.8145
10299TIP3    H230831   3.758   1.255   3.591 -0.7607  0.8734  1.3124
10300TIP3   OH230832   3.666   5.062   5.940 -0.2024  0.4254 -0.2755
10300TIP3    H130833   3.677   5.047   6.034 -2.6749 -0.9890 -0.1591
10300TIP3    H230834   3.707   5.147   5.924  1.0352  0.2691  1.9139
10301TIP3   OH230835   4.281   2.311   4.637  0.6869  0.8033 -0.8164
10301TIP3    H130836   4.307   2.355   4.556 -1.5703  1.0590 -1.4466
10301TIP3    H230837   4.185   2.321   4.640  0.4594 -1.4762  0.5674
10302TIP3   OH230838   0.858   0.634   2.058  0.0710  0.2811  0.4330
10302TIP3    H130839   0.854   0.683   1.976 -1.6618  0.6785  0.7344
10302TIP3    H230840   0.767   0.617   2.080  0.5112  0.2546  2.3287
10303TIP3   OH230841   4.442   1.856   5.775 -0.6235  0.1560  0.1791
10303TIP3    H130842   4.443   1.835   5.869 -0.3699  0.4594  0.2440
10303TIP3    H230843   4.350   1.870   5.755 -0.7764 -0.7939  0.1849
10304TIP3   OH230844   2.450   5.200   5.691 -0.6267  0.6269 -0.0518
10304TIP3    H130845   2.514   5.138   5.726  0.1919  1.4090 -0.1164
10304TIP3    H230846   2.380   5.202   5.756 -0.5246 -0.1450  0.0821
10305TIP3   OH230847   6.344   7.071   0.360 -0.1185 -0.0188  0.2112
10305TIP3    H130848   6.349   7.154   0.312  1.0162 -0.4323 -0.3954
10305TIP3    H230849   6.423   7.069   0.414  1.2284 -1.8744 -1.7250
10306TIP3   OH230850   6.912   5.808   0.296  0.1873 -0.3375  0.2966
10306TIP3    H130851   6.846   5.827   0.229  2.2046 -1.6355 -2.1474
10306TIP3    H230852   6.961   5.889   0.306 -0.5817  0.0770  0.7656
10307TIP3   OH230853   4.870   7.247   0.522 -0.4432  0.3418  0.3350
10307TIP3    H130854   4.938   7.314   0.516  0.4324 -0.2414  3.1684
10307TIP3    H230855   4.917   7.165   0.537 -1.5826 -0.7433 -1.7259
10308TIP3   OH230856   6.172   5.935   1.199 -0.3692 -0.3612  0.4192
10308TIP3    H130857   6.132   5.997   1.137  0.5143  0.0995  0.3065
10308TIP3    H230858   6.240   5.986   1.243  0.0990 -1.1507  0.6100
10309TIP3   OH230859   0.549   7.068   1.693 -0.3233  0.2406 -0.4110
10309TIP3    H130860   0.481   7.054   1.759  0.6111 -0.4589  0.4079
10309TIP3    H230861   0.530   7.002   1.626 -1.0458  0.7043 -0.6741
10310TIP3   OH230862   1.808   1.736   6.723 -0.1014 -0.2905  0.1918
10310TIP3    H130863   1.765   1.669   6.669  2.1461  0.1122 -2.1667
10310TIP3    H230864   1.805   1.815   6.670  1.7565  0.2403  0.8609
10311TIP3   OH230865   5.091   3.379   6.528  0.6479 -0.1396  0.1093
10311TIP3    H130866   5.104   3.469   6.498 -0.1369  0.1235  0.5426
10311TIP3    H230867   5.129   3.324   6.460 -2.9479  0.3460 -2.4046
10312TIP3   OH230868   3.101   3.297   5.959  0.1855  0.0997 -0.0030
10312TIP3    H130869   3.080   3.390   5.949  1.7139  0.5764  1.0246
10312TIP3    H230870   3.172   3.296   6.023  0.7795 -1.7188 -0.6847
10313TIP3   OH230871   2.704   0.853   6.686  0.0197 -0.7755  0.1373
10313TIP3    H130872   2.674   0.838   6.597  2.2806  0.2073 -0.8460
10313TIP3    H230873   2.736   0.944   6.686  0.9696 -1.0791  1.6488
10314TIP3   OH230874   4.271   7.501   0.429 -0.4104  0.2839  0.0152
10314TIP3    H130875   4.267   7.597   0.423 -1.0478  0.1687 -1.8130
10314TIP3    H230876   4.359   7.479   0.397 -0.7872  0.1842 -0.9771
10315TIP3   OH230877   1.976   2.076   6.555  0.3118  0.2776 -0.1560
10315TIP3    H130878   1.979   2.077   6.459  1.6109 -0.6056 -0.1380
10315TIP3    H230879   1.891   2.036   6.575  0.3294 -0.1836 -0.9469
10316TIP3   OH230880   7.606   6.773   3.163  0.2886 -0.1673  1.0897
10316TIP3    H130881   7.688   6.821   3.155  0.2228 -0.1484  0.5331
10316TIP3    H230882   7.618   6.694   3.111 -0.6653  0.6632 -0.4247
10317TIP3   OH230883   5.018   1.577   6.297 -0.4051 -0.1486  0.5567
10317TIP3    H130884   4.939   1.525   6.283  0.3082 -0.6481 -2.0304
10317TIP3    H230885   5.085   1.531   6.246  1.0450  1.4486  0.9939
10318TIP3   OH230886   5.983   7.256   1.078 -0.9587 -0.2023 -0.1348
10318TIP3    H130887   6.043   7.181   1.077 -1.2197 -0.4110 -2.6607
10318TIP3    H230888   6.034   7.328   1.042 -0.3883  1.1576  3.2212
10319TIP3   OH230889   5.517   5.844   0.315  0.3834  0.2866 -0.1365
10319TIP3    H130890   5.466   5.775   0.271  0.9267 -0.3967  0.3111
10319TIP3    H230891   5.488   5.841   0.406  0.9805  0.1364  0.0447
10320TIP3   OH230892   3.309   3.682   5.122  0.4103 -0.6107 -0.0489
10320TIP3    H130893   3.390   3.644   5.157  2.4747  1.9396 -1.8678
10320TIP3    H230894   3.318   3.776   5.139 -1.8834 -0.2225 -0.8825
10321TIP3   OH230895   3.100   2.155   6.734  0.1043  0.3874 -0.1869
10321TIP3    H130896   3.056   2.154   6.649  1.2323 -0.0260 -0.7804
10321TIP3    H230897   3.186   2.116   6.716 -0.0821 -0.7632  1.3725
10322TIP3   OH230898   1.648   3.256   5.527 -0.5010 -0.0640 -0.2541
10322TIP3    H130899   1.604   3.255   5.442 -0.8505  1.8075 -0.1250
10322TIP3    H230900   1.739   3.276   5.507 -0.0679 -2.0504 -0.3652
10323TIP3   OH230901   4.010   7.926   0.037  0.5652  0.6145 -0.0040
10323TIP3    H130902   4.101   7.942   0.013  0.7163 -0.8638 -0.5118
10323TIP3    H230903   3.988   7.844  -0.008 -0.5586  0.1808  1.2988
10324TIP3   OH230904   5.087   7.220   3.498  0.4460  0.2451  0.0528
10324TIP3    H130905   5.067   7.146   3.555 -1.2364  2.3154  2.2224
10324TIP3    H230906   5.005   7.238   3.452  0.5702  1.3745  0.2645
10325TIP3   OH230907   3.032   3.843   5.644 -0.1767  0.4140  0.4812
10325TIP3    H130908   2.951   3.892   5.657 -0.7269 -0.9248  2.4129
10325TIP3    H230909   3.003   3.759   5.609  0.6025  0.7774 -1.0657
10326TIP3   OH230910   2.585   3.286   5.984 -0.2504 -0.8231 -0.5138
10326TIP3    H130911   2.494   3.272   5.956 -1.1264  0.7169  1.4593
10326TIP3    H230912   2.617   3.355   5.926 -1.1720  0.4041  0.4070
10327TIP3   OH230913   3.724   3.544   4.929  0.1606 -0.3412 -0.3426
10327TIP3    H130914   3.756   3.597   4.856  0.8551  0.4085  0.5091
10327TIP3    H230915   3.790   3.476   4.941 -0.2231 -0.7936 -0.7609
10328TIP3   OH230916   6.571   0.800   2.269  0.1170 -0.2199 -0.4795
10328TIP3    H130917   6.627   0.873   2.296  1.3938 -1.6575  0.8565
10328TIP3    H230918   6.506   0.793   2.340 -0.1800 -0.2009 -0.7496
10329TIP3   OH230919   4.463   5.816   0.407  0.4713  0.3497  0.4177
10329TIP3    H130920   4.402   5.767   0.461 -0.9444  1.7283  0.1305
10329TIP3    H230921   4.436   5.797   0.317 -0.5174  2.0877  0.3037
10330TIP3   OH230922   4.051   3.861   4.623  0.1107  0.3730 -0.2914
10330TIP3    H130923   3.972   3.903   4.590  1.0036  0.3281 -2.5782
10330TIP3    H230924   4.112   3.864   4.550  1.3228 -1.9649  0.5706
10331TIP3   OH230925   4.742   2.551   6.317  0.3113 -0.0203  0.0027
10331TIP3    H130926   4.651   2.524   6.310  0.3709 -0.1765 -0.1715
10331TIP3    H230927   4.739   2.639   6.355  0.0892 -0.0304  0.0039
10332TIP3   OH230928   2.932   6.144   0.112 -0.6685 -0.6861 -0.7586
10332TIP3    H130929   2.864   6.202   0.145 -1.5483 -1.9386 -0.3403
10332TIP3    H230930   2.992   6.133   0.186 -0.7916 -0.7211 -0.6631
10333TIP3   OH230931   4.772   6.692   2.494  0.1955 -0.8496 -0.1144
10333TIP3    H130932   4.834   6.620   2.509  0.4864 -0.6844 -0.5068
10333TIP3    H230933   4.816   6.770   2.528  0.5436 -0.6007 -1.1036
10334TIP3   OH230934   4.164   7.151   0.627 -0.4373  0.0909  0.1434
10334TIP3    H130935   4.215   7.079   0.591 -2.3779 -0.6847 -1.1026
10334TIP3    H230936   4.230   7.219   0.647  1.3676 -1.8835  1.1104
10335TIP3   OH230937   6.225   6.887   2.140 -0.1129  0.1510 -0.0501
10335TIP3    H130938   6.143   6.918   2.177  0.1679  0.6765  0.1527
10335TIP3    H230939   6.200   6.836   2.063 -0.5279  2.5232 -1.5613
10336TIP3   OH230940   3.642   0.808   6.128  0.7039  0.5387 -0.1657
10336TIP3    H130941   3.738   0.817   6.125  0.5769  2.6703  1.7059
10336TIP3    H230942   3.612   0.851   6.048  1.3656 -1.7275 -1.7011
10337TIP3   OH230943   4.595   7.265   0.527  0.2965 -0.2291  0.8506
10337TIP3    H130944   4.687   7.289   0.544 -0.1407  1.7305  0.6104
10337TIP3    H230945   4.587   7.176   0.559  2.5227 -0.7291  0.1036
10338TIP3   OH230946   2.754   1.446   5.716 -1.0991 -0.2027 -0.7890
10338TIP3    H130947   2.764   1.358   5.679  0.0895  0.1028 -1.1913
10338TIP3    H230948   2.840   1.487   5.707 -0.1888 -0.7192  3.9694
10339TIP3   OH230949   2.933   2.224   6.199  0.1791  0.4292  0.3035
10339TIP3    H130950   2.975   2.139   6.188  1.1801  0.7619  1.4341
10339TIP3    H230951   2.922   2.233   6.294 -0.6719  1.2046  0.1385
10340TIP3   OH230952   8.391   6.111   0.763  0.2903 -0.2020 -0.2477
10340TIP3    H130953   8.477   6.070   0.754 -0.3760 -1.7987  0.5272
10340TIP3    H230954   8.352   6.068   0.839 -1.0319  0.8087 -0.3424
10341TIP3   OH230955   2.931   3.596   6.420 -0.3335 -0.0422 -0.1188
10341TIP3    H130956   2.956   3.681   6.384 -0.4307 -0.1229 -0.3797
10341TIP3    H230957   2.858   3.615   6.478 -1.8227 -0.2206 -1.8644
10342TIP3   OH230958   4.483   7.457   1.986 -0.1318  0.5512 -0.4541
10342TIP3    H130959   4.391   7.428   1.985 -0.1362  0.5239  0.4475
10342TIP3    H230960   4.522   7.415   1.910 -0.3994 -0.9726  0.2363
10343TIP3   OH230961   6.499   7.517  -0.007 -0.3603  0.0137 -0.3154
10343TIP3    H130962   6.526   7.607   0.013 -1.1157  0.3992 -1.0153
10343TIP3    H230963   6.580   7.466  -0.000 -0.0649  0.6030  0.8710
10344TIP3   OH230964   5.652   7.245   1.714 -0.0992  0.5313  0.1831
10344TIP3    H130965   5.609   7.166   1.749 -0.8898  1.3048  0.9780
10344TIP3    H230966   5.744   7.235   1.737 -0.4766  0.6464  1.8020
10345TIP3   OH230967   5.909   6.753   1.373 -0.0883 -0.1005  0.2180
10345TIP3    H130968   5.932   6.661   1.361 -0.2984 -0.3735  1.8436
10345TIP3    H230969   5.832   6.766   1.319  1.5032 -0.1950 -2.1353
10346TIP3   OH230970   5.326   5.145   1.442 -0.0192  0.3147 -0.4597
10346TIP3    H130971   5.343   5.239   1.444 -0.6923  0.4945 -1.9120
10346TIP3    H230972   5.233   5.137   1.465 -0.1433  0.0687 -1.0375
10347TIP3   OH230973   6.551   6.407   2.434  0.5626  0.3106 -0.2365
10347TIP3    H130974   6.522   6.318   2.413  1.0672  0.1645 -0.3139
10347TIP3    H230975   6.583   6.442   2.351  1.9285 -0.0282  0.1247
10348TIP3   OH230976   5.235   5.418   0.257 -0.6136  0.0318 -0.1015
10348TIP3    H130977   5.298   5.380   0.318  0.1508  0.7042 -0.4712
10348TIP3    H230978   5.276   5.499   0.227 -0.2427 -1.1457 -2.8458
10349TIP3   OH230979   6.477   5.619   1.968  0.0959 -0.0313  0.3340
10349TIP3    H130980   6.554   5.628   1.911 -0.0159 -0.2539  0.1456
10349TIP3    H230981   6.405   5.654   1.916 -0.1198 -0.8299  0.0876
10350TIP3   OH230982   3.298   2.471   6.573  0.7428 -0.2979 -0.3003
10350TIP3    H130983   3.337   2.539   6.519 -0.4115  0.9440  0.3653
10350TIP3    H230984   3.209   2.461   6.538  0.4026 -0.3544  0.5477
10351TIP3   OH230985   8.505   1.832   6.832  0.1002  0.4715 -0.3189
10351TIP3    H130986   8.465   1.877   6.759  0.1832  0.3843 -0.4193
10351TIP3    H230987   8.494   1.891   6.907 -0.2646  0.4199 -0.3337
10352TIP3   OH230988   1.642   4.810   6.017 -0.0424 -0.4815  0.1032
10352TIP3    H130989   1.698   4.754   5.963 -1.7608 -0.8154 -1.3600
10352TIP3    H230990   1.596   4.750   6.075 -1.2276 -0.5269 -0.8635
10353TIP3   OH230991   0.384   0.520   1.177  0.0950  0.3910  0.0153
10353TIP3    H130992   0.385   0.594   1.238 -1.2076  1.6019 -1.3694
10353TIP3    H230993   0.293   0.490   1.178 -0.5084  1.8719 -2.9353
10354TIP3   OH230994   7.806   7.478   0.633 -0.6474 -0.7157  0.1768
10354TIP3    H130995   7.804   7.486   0.538 -1.1946 -0.2830  0.2248
10354TIP3    H230996   7.820   7.385   0.649  0.7022 -0.6192 -0.3368
10355TIP3   OH230997   3.086   3.571   5.029 -0.2182 -0.2400 -0.1433
10355TIP3    H130998   3.175   3.590   5.060  0.0319  0.3728 -1.1958
10355TIP3    H230999   3.036   3.651   5.049  0.0904  0.3880 -1.8282
10356TIP3   OH231000   6.828   7.473   1.159  0.0473 -0.6758  0.0488
10356TIP3    H131001   6.854   7.560   1.187  0.1066 -0.1830 -1.4933
10356TIP3    H231002   6.901   7.441   1.107 -0.4539 -1.1815 -0.3546
10357TIP3   OH231003   7.875   5.669   0.102  0.2844 -0.6512  0.1714
10357TIP3    H131004   7.824   5.666   0.021  0.2855  1.1658  0.0770
10357TIP3    H231005   7.904   5.760   0.108  2.8120 -1.4531  0.6544
10358TIP3   OH231006   7.919   4.270   0.596 -0.0210  0.2230  0.2973
10358TIP3    H131007   7.870   4.259   0.515 -0.1247  2.4484  0.0360
10358TIP3    H231008   7.886   4.200   0.653  0.2122 -1.4813 -1.6286
10359TIP3   OH231009   6.211   5.697   0.383 -0.9992  0.2852  0.3631
10359TIP3    H131010   6.223   5.680   0.289 -0.3497 -0.1563  0.5237
10359TIP3    H231011   6.178   5.787   0.387 -1.0353  0.3051 -0.2889
10360TIP3   OH231012   3.435   4.169   6.511  0.0468  0.2836  0.5296
10360TIP3    H131013   3.413   4.078   6.532 -1.2889  0.7483  1.1824
10360TIP3    H231014   3.448   4.169   6.416  2.3270 -1.0404  0.7856
10361TIP3   OH231015   1.375   7.844   5.058 -0.5991  0.1134  0.5512
10361TIP3    H131016   1.463   7.864   5.088 -0.2336  1.4335 -1.2780
10361TIP3    H231017   1.348   7.923   5.011 -2.0642 -0.9520 -0.4373
10362TIP3   OH231018   5.357   6.371   0.815 -0.2750 -0.1564  0.0299
10362TIP3    H131019   5.436   6.404   0.772 -0.2695 -0.3326 -0.0939
10362TIP3    H231020   5.286   6.394   0.754 -0.3346  0.1215  0.2039
10363TIP3   OH231021   8.343   3.916   0.243  0.0400  0.1611 -0.2291
10363TIP3    H131022   8.367   3.912   0.151 -0.1476 -1.5413 -0.2151
10363TIP3    H231023   8.302   4.003   0.253 -0.0230  0.3237 -1.7574
10364TIP3   OH231024   4.092   7.296   0.412  0.0329 -0.0188  0.2730
10364TIP3    H131025   4.093   7.246   0.494 -2.0429  0.1233  0.3911
10364TIP3    H231026   4.152   7.369   0.428 -2.0515  1.2910  2.4931
10365TIP3   OH231027   5.822   2.939   6.690 -0.3473  0.4429 -0.4759
10365TIP3    H131028   5.841   3.031   6.705  1.0421 -0.1553  1.5521
10365TIP3    H231029   5.731   2.928   6.719  0.1214  0.7581  1.1118
10366TIP3   OH231030   4.344   1.044   6.356  0.0527  0.4233  0.2392
10366TIP3    H131031   4.347   1.120   6.413  0.7407  1.3156 -0.9606
10366TIP3    H231032   4.379   1.075   6.272 -1.4932 -0.7016 -0.8537
10367TIP3   OH231033   7.001   5.034   0.844  0.0598  0.3934 -0.5930
10367TIP3    H131034   7.085   5.078   0.840 -0.2202  0.9976  0.0095
10367TIP3    H231035   7.010   4.973   0.918  0.2155 -0.0777 -0.9959
10368TIP3   OH231036   2.849   2.812   6.351 -0.3638  0.0984  0.0960
10368TIP3    H131037   2.829   2.906   6.351 -0.1367  0.1583  2.3496
10368TIP3    H231038   2.764   2.769   6.356 -0.3536  0.2485  1.9659
10369TIP3   OH231039   3.502   0.583   0.962  0.0977  0.1468 -0.1884
10369TIP3    H131040   3.418   0.597   1.006 -0.4103 -0.9788 -0.7938
10369TIP3    H231041   3.557   0.655   0.993 -1.3135  1.3284 -0.3584
10370TIP3   OH231042   4.975   1.778   6.540  0.0214 -0.1528 -0.5331
10370TIP3    H131043   5.000   1.730   6.619  0.3769  1.0503  0.1035
10370TIP3    H231044   4.966   1.711   6.473 -0.5574 -1.2236  0.6011
10371TIP3   OH231045   2.072   3.744   6.777 -0.4697  0.9132  0.6243
10371TIP3    H131046   2.026   3.709   6.854  0.2361  2.0944  1.5971
10371TIP3    H231047   2.058   3.677   6.710  1.6632 -1.7696  2.7150
10372TIP3   OH231048   6.424   5.440   0.826 -0.1807  0.0124  0.1537
10372TIP3    H131049   6.395   5.503   0.760 -0.7027  1.1435  1.4357
10372TIP3    H231050   6.508   5.475   0.857 -1.0992  0.8496  1.8150
10373TIP3   OH231051   2.090   3.320   6.261 -0.4053  0.4691  0.4837
10373TIP3    H131052   2.085   3.255   6.332 -0.2186  1.2500  1.2113
10373TIP3    H231053   2.182   3.349   6.262  0.3586 -1.6226 -1.9699
10374TIP3   OH231054   6.115   5.940   0.361  0.4412 -0.1495 -0.1568
10374TIP3    H131055   6.132   6.030   0.389  0.2516  0.1827 -1.0828
10374TIP3    H231056   6.064   5.950   0.280  1.5004 -1.0691 -0.9493
10375TIP3   OH231057   3.931   5.597   0.812  0.3738 -0.2294  0.1633
10375TIP3    H131058   3.932   5.510   0.853  1.2587 -0.7457 -0.9194
10375TIP3    H231059   3.842   5.628   0.825  0.5015 -0.5558  2.0903
10376TIP3   OH231060   5.544   3.259   5.951  0.2853 -0.4392  0.1242
10376TIP3    H131061   5.545   3.165   5.932 -0.1149 -0.5109  0.4625
10376TIP3    H231062   5.550   3.264   6.047  0.1784 -0.1202  0.1134
10377TIP3   OH231063   2.861   0.756   5.332  0.7913 -0.0479 -0.1420
10377TIP3    H131064   2.864   0.661   5.337 -0.4448 -0.0841  0.1635
10377TIP3    H231065   2.938   0.786   5.379  0.0388 -0.8446  1.6159
10378TIP3   OH231066   3.974   4.306   0.413  0.0149  0.2297  0.2112
10378TIP3    H131067   3.919   4.229   0.398  0.4720 -0.2832  1.1583
10378TIP3    H231068   3.917   4.369   0.457  0.3233 -0.5130  1.7083
10379TIP3   OH231069   1.237   2.153   1.292  0.2664 -0.0539 -0.5069
10379TIP3    H131070   1.155   2.106   1.278 -0.9219  1.2308  1.7692
10379TIP3    H231071   1.266   2.124   1.379  0.4793  1.9319  0.1115
10380TIP3   OH231072   6.210   4.968   3.296 -0.0886 -0.1410  0.3814
10380TIP3    H131073   6.175   4.899   3.352  1.0410 -1.2524 -0.2513
10380TIP3    H231074   6.203   5.047   3.348  3.3913 -1.5611  3.2036
10381TIP3   OH231075   8.346   0.033   0.986 -0.0189 -1.0223  0.3250
10381TIP3    H131076   8.422  -0.023   0.969 -0.9353 -2.2939  0.3491
10381TIP3    H231077   8.312   0.055   0.899  1.4039  1.0169  0.2505
10382TIP3   OH231078   3.396   4.994   6.249 -0.3491  0.5746  0.0083
10382TIP3    H131079   3.384   4.921   6.189 -1.6434  0.1635  0.7528
10382TIP3    H231080   3.381   5.072   6.195  1.4010  0.3350 -0.8716
10383TIP3   OH231081   3.914   3.762   6.763  0.3372  0.7871 -0.2286
10383TIP3    H131082   3.860   3.781   6.686 -1.7945  1.1077  1.2962
10383TIP3    H231083   3.901   3.837   6.821  0.2877 -0.3629  1.2997
10384TIP3   OH231084   5.761   5.219   6.812 -0.5662 -0.3729  0.7223
10384TIP3    H131085   5.702   5.270   6.868  0.4680  0.5160  1.0258
10384TIP3    H231086   5.835   5.197   6.870  0.1357 -0.1322 -0.0791
10385TIP3   OH231087   7.959   6.386   0.238  0.3548 -0.1433  0.6092
10385TIP3    H131088   7.942   6.320   0.305  0.5779 -0.0403  0.7658
10385TIP3    H231089   7.923   6.348   0.158 -0.9133  0.2068  0.9948
10386TIP3   OH231090   1.825   0.493   0.488 -0.5456  0.0827  0.0576
10386TIP3    H131091   1.764   0.420   0.496 -1.7459  1.0573 -0.0191
10386TIP3    H231092   1.910   0.452   0.471 -1.2345 -1.2796 -0.1645
10387TIP3   OH231093   3.335   3.626   6.176  0.3502 -0.4306 -0.3178
10387TIP3    H131094   3.391   3.549   6.166  0.7755 -0.2039  0.3024
10387TIP3    H231095   3.312   3.627   6.269  2.3975  1.5961  0.1998
10388TIP3   OH231096   6.423   1.417   0.840  0.2514  0.0599 -0.3080
10388TIP3    H131097   6.402   1.399   0.931  1.6992 -1.7947 -0.3064
10388TIP3    H231098   6.341   1.449   0.802 -0.8186 -0.8097  1.2263
10389TIP3   OH231099   7.591   6.326   0.210 -0.1799  0.2511  0.1574
10389TIP3    H131100   7.612   6.382   0.285 -1.8585 -0.0531  0.8962
10389TIP3    H231101   7.620   6.376   0.134 -1.0609  1.8575  0.8472
10390TIP3   OH231102   0.942   0.841   0.712  0.3168  0.3630 -0.2370
10390TIP3    H131103   0.901   0.886   0.786 -1.7028 -1.2028 -0.3548
10390TIP3    H231104   0.907   0.886   0.634  0.0892  0.0689 -0.3049
10391TIP3   OH231105   0.158   0.251   0.449 -0.6253 -0.3829 -0.1775
10391TIP3    H131106   0.234   0.278   0.398 -0.4967  0.3375  0.3927
10391TIP3    H231107   0.182   0.270   0.539 -0.6286 -2.1809  0.2177
10392TIP3   OH231108   5.335   7.973   1.392 -0.4906  0.3774 -0.1715
10392TIP3    H131109   5.363   7.926   1.470 -1.2123 -1.8364 -1.2028
10392TIP3    H231110   5.242   7.954   1.384 -0.5469  1.0380 -1.2405
10393TIP3   OH231111   1.418   1.509   5.680  0.9687  0.0147 -0.6718
10393TIP3    H131112   1.371   1.583   5.719  0.8984 -1.1942  1.6326
10393TIP3    H231113   1.350   1.444   5.663  1.5792 -1.2618  1.5389
10394TIP3   OH231114   5.939   5.575   0.256 -0.2384 -0.1004  0.5829
10394TIP3    H131115   5.860   5.535   0.292 -0.6472 -1.0985 -1.3493
10394TIP3    H231116   6.011   5.533   0.303 -0.7775 -1.0828  0.5440
10395TIP3   OH231117   5.080   0.383   6.805  0.3494 -0.5391  0.1728
10395TIP3    H131118   5.072   0.359   6.897 -0.9738 -1.9547 -0.3006
10395TIP3    H231119   5.075   0.479   6.805  0.6234 -0.5137  1.5828
10396TIP3   OH231120   5.290   2.882   5.949 -0.0936  0.3825 -0.4634
10396TIP3    H131121   5.297   2.790   5.972  0.8959  0.4955 -0.2800
10396TIP3    H231122   5.196   2.901   5.953 -0.3276 -0.6757 -0.7691
10397TIP3   OH231123   6.897   5.529   1.220  0.2278 -0.2890  0.3499
10397TIP3    H131124   6.874   5.498   1.308  1.2582 -0.5703  0.5236
10397TIP3    H231125   6.967   5.592   1.234 -0.6570  0.8223 -0.1534
10398TIP3   OH231126   3.544   1.250   6.227  0.1513 -0.3138  0.1328
10398TIP3    H131127   3.545   1.278   6.136  0.2640 -1.4996 -0.2251
10398TIP3    H231128   3.612   1.183   6.233  1.2655  0.8725  1.4459
10399TIP3   OH231129   4.381   3.400   6.452 -0.2528 -0.3920  0.3320
10399TIP3    H131130   4.307   3.390   6.512 -0.8102  0.0554 -0.2673
10399TIP3    H231131   4.453   3.430   6.508 -1.0907  1.2071  0.5966
10400TIP3   OH231132   2.547   3.656   6.882  0.0810  0.2299  0.1700
10400TIP3    H131133   2.551   3.564   6.857  2.3145 -0.2118  2.0360
10400TIP3    H231134   2.453   3.674   6.890 -0.4754 -1.2355 -2.3930
10401TIP3   OH231135   6.082   7.050   0.277  0.0632 -0.5477  0.3586
10401TIP3    H131136   6.173   7.054   0.307  0.2762  1.0940 -0.4546
10401TIP3    H231137   6.080   6.976   0.216  0.9288 -0.3788  0.1188
10402TIP3   OH231138   0.715   0.224   0.029  0.6407 -0.1118  0.4788
10402TIP3    H131139   0.706   0.220  -0.066 -1.1514  1.4062  0.5542
10402TIP3    H231140   0.648   0.164   0.062  2.0468 -1.5582  0.7988
10403TIP3   OH231141   4.176   2.445   4.380  0.8640  0.4919 -0.1375
10403TIP3    H131142   4.116   2.512   4.347  2.3462  1.4697 -0.8847
10403TIP3    H231143   4.251   2.494   4.413  2.4420 -0.8506 -1.6771
10404TIP3   OH231144   2.623   3.341   6.268  0.4771  0.0539 -0.9997
10404TIP3    H131145   2.657   3.271   6.324 -1.7656 -1.4560 -1.4260
10404TIP3    H231146   2.637   3.310   6.179 -0.4746  0.1501 -1.1932
10405TIP3   OH231147   5.830   6.116   1.683  0.0775  0.7210  0.0804
10405TIP3    H131148   5.853   6.202   1.647  1.8923 -0.0310 -0.6082
10405TIP3    H231149   5.835   6.056   1.608  0.8390 -0.3244  0.9387
10406TIP3   OH231150   7.189   6.698   0.208  0.0588  0.5397 -0.5718
10406TIP3    H131151   7.175   6.724   0.117  0.0308  0.7332 -0.5112
10406TIP3    H231152   7.260   6.634   0.204  0.7654  1.3140 -0.6148
10407TIP3   OH231153   5.601   6.216   0.877  0.9060  0.0553 -0.1572
10407TIP3    H131154   5.603   6.185   0.967 -0.7418 -1.9683 -0.7691
10407TIP3    H231155   5.530   6.280   0.875 -0.4938 -1.4582 -0.4409
10408TIP3   OH231156   2.356   2.525   5.144  0.0921 -0.5191 -0.4581
10408TIP3    H131157   2.415   2.561   5.210 -1.8845  0.2283  0.9434
10408TIP3    H231158   2.359   2.588   5.072  1.5445 -0.8595 -0.7003
10409TIP3   OH231159   6.517   4.758   2.046 -0.2175 -0.0242 -0.2011
10409TIP3    H131160   6.432   4.792   2.020 -1.2868 -1.7657  0.9089
10409TIP3    H231161   6.527   4.783   2.138  1.3792  1.8743 -0.8426
10410TIP3   OH231162   7.282   6.713   0.668  0.6956 -0.5800 -0.4027
10410TIP3    H131163   7.250   6.622   0.672 -2.1740  0.4048  0.5486
10410TIP3    H231164   7.254   6.745   0.583 -2.6255  0.8371  1.1212
10411TIP3   OH231165   4.740   3.072   5.726 -0.6898 -0.0448  0.0711
10411TIP3    H131166   4.772   2.999   5.674 -0.3064  0.1699 -0.0013
10411TIP3    H231167   4.781   3.149   5.686 -1.2416  0.2263  0.0272
10412TIP3   OH231168   8.124   7.078   1.533  0.4603  0.2484 -0.0378
10412TIP3    H131169   8.040   7.084   1.578  0.2076 -1.7499 -0.2148
10412TIP3    H231170   8.128   7.157   1.479 -1.3509  0.3024 -0.1216
10413TIP3   OH231171   0.224   0.166   1.393  0.0196 -0.1657 -0.0220
10413TIP3    H131172   0.249   0.084   1.351  0.2289  0.9620 -2.1475
10413TIP3    H231173   0.294   0.184   1.455 -0.2786 -1.8330  0.8428
10414TIP3   OH231174   5.509   6.256   5.948 -0.9070 -0.1640  0.1017
10414TIP3    H131175   5.441   6.190   5.936 -1.8071  0.8879 -0.7194
10414TIP3    H231176   5.583   6.224   5.895 -1.1276 -0.7812  0.1573
10415TIP3   OH231177   4.960   4.436   6.158 -0.0725  0.2605 -0.0381
10415TIP3    H131178   5.017   4.391   6.096  1.2396  2.6880 -0.6642
10415TIP3    H231179   4.939   4.519   6.115 -2.1245  0.4390  1.2255
10416TIP3   OH231180   4.277   2.654   6.123 -0.8294  0.1839  0.1785
10416TIP3    H131181   4.318   2.737   6.147 -1.7961  0.5453  0.6155
10416TIP3    H231182   4.214   2.677   6.055 -0.7284 -0.2781 -0.0751
10417TIP3   OH231183   6.842   6.355   1.198 -0.0306  0.9340  0.8313
10417TIP3    H131184   6.836   6.299   1.275 -0.9510  0.9115  0.7471
10417TIP3    H231185   6.923   6.404   1.210 -0.2166  0.9949  1.8577
10418TIP3   OH231186   4.647   3.429   6.083  0.1673  0.0746  0.6014
10418TIP3    H131187   4.730   3.412   6.128 -0.2773 -0.2274  1.3268
10418TIP3    H231188   4.621   3.343   6.048 -0.1961  0.0195  1.0000
10419TIP3   OH231189   8.065   7.420   3.551 -0.2395 -0.2441 -0.0626
10419TIP3    H131190   8.039   7.339   3.595 -0.1300 -0.0069  0.4453
10419TIP3    H231191   8.104   7.391   3.469  0.8322 -0.7768  0.6131
10420TIP3   OH231192   8.491   3.864   4.033  0.1835  0.1088 -0.5966
10420TIP3    H131193   8.518   3.894   4.120  0.0858 -0.2843 -0.4302
10420TIP3    H231194   8.453   3.778   4.048 -0.0077  0.1205 -1.0051
10421TIP3   OH231195   5.767   2.185   4.016 -0.1708 -0.5254  0.2468
10421TIP3    H131196   5.845   2.160   3.966  0.8446  2.1861  0.4021
10421TIP3    H231197   5.737   2.266   3.975 -1.3349 -0.0829  1.9202
10422TIP3   OH231198   5.755   2.535   3.862  0.2467  0.2198  0.0271
10422TIP3    H131199   5.838   2.582   3.874  0.6455 -0.2842 -0.7285
10422TIP3    H231200   5.689   2.592   3.900  0.9101  0.7589  0.3711
10423TIP3   OH231201   1.102   5.352   1.100 -0.2161 -0.3537  0.1657
10423TIP3    H131202   1.158   5.295   1.153 -0.2700 -1.3087 -0.8143
10423TIP3    H231203   1.022   5.360   1.151  0.1983 -0.2713  0.8171
10424TIP3   OH231204   4.268   1.614   6.575 -0.4878  0.2530  0.2956
10424TIP3    H131205   4.300   1.584   6.490 -1.0438  0.3637  0.0456
10424TIP3    H231206   4.339   1.667   6.610 -0.2923  0.2763 -0.1382
10425TIP3   OH231207   3.549   3.000   6.088  0.5745  0.5916  0.7461
10425TIP3    H131208   3.642   2.984   6.072  0.6979  1.5970  0.4526
10425TIP3    H231209   3.532   3.086   6.049 -0.6881 -0.0080 -0.0517
10426TIP3   OH231210   4.587   3.403   6.748  0.1456 -0.3464  0.2701
10426TIP3    H131211   4.616   3.460   6.677 -1.1527 -2.2497 -1.8416
10426TIP3    H231212   4.504   3.440   6.777  0.7381  0.5045  0.9171
10427TIP3   OH231213   2.120   7.573   5.739  0.3351 -0.3689 -0.3142
10427TIP3    H131214   2.211   7.560   5.765  0.5725  3.4188  1.1143
10427TIP3    H231215   2.125   7.628   5.661 -0.7233  1.8234  1.1156
10428TIP3   OH231216   4.204   3.449   6.199  0.1433  0.3136  0.0210
10428TIP3    H131217   4.268   3.448   6.270 -1.4231  0.7777  1.4752
10428TIP3    H231218   4.193   3.542   6.179 -1.4667  0.3877  1.1049
10429TIP3   OH231219   3.667   0.702   1.232  0.2090  0.3621  0.6489
10429TIP3    H131220   3.751   0.666   1.204  0.2958 -0.2704  1.6821
10429TIP3    H231221   3.689   0.761   1.304 -0.2808 -0.2430  1.3046
10430TIP3   OH231222   6.418   2.874   6.654 -0.0894  0.3720 -0.2485
10430TIP3    H131223   6.429   2.885   6.560 -0.6394  0.4962 -0.2980
10430TIP3    H231224   6.454   2.955   6.692 -0.1369  0.4486 -0.3665
10431TIP3   OH231225   2.572   0.049   0.334  0.0226 -0.5832  0.4706
10431TIP3    H131226   2.541   0.115   0.396  3.5756  1.0250  0.6634
10431TIP3    H231227   2.609  -0.020   0.389  2.5142  0.5059  0.2259
10432TIP3   OH231228   7.869   7.757   2.890 -0.3382  0.2863  0.1399
10432TIP3    H131229   7.831   7.785   2.806  1.1229  0.3364 -0.5109
10432TIP3    H231230   7.946   7.811   2.901 -0.1755 -0.1551  1.2320
10433TIP3   OH231231   3.532   1.547   5.531 -0.1262 -0.0098  0.5975
10433TIP3    H131232   3.617   1.586   5.508 -0.5879  0.7953  0.2319
10433TIP3    H231233   3.474   1.622   5.540  0.0352 -0.2893  4.4646
10434TIP3   OH231234   6.858   2.794   6.622  0.1090  0.6383  0.0746
10434TIP3    H131235   6.936   2.739   6.617 -0.9313 -0.8161 -0.8362
10434TIP3    H231236   6.866   2.854   6.547 -0.3190 -0.4511 -0.8634
10435TIP3   OH231237   7.751   7.173   0.617 -0.3207 -0.2137 -0.5839
10435TIP3    H131238   7.727   7.114   0.545  0.4149 -0.1504 -0.8868
10435TIP3    H231239   7.844   7.192   0.602 -0.4582  0.7330 -0.2881
10436TIP3   OH231240   1.410   7.935   6.354  0.4093 -0.1546  0.4228
10436TIP3    H131241   1.400   7.986   6.273  0.8580 -0.0538  0.4301
10436TIP3    H231242   1.456   7.856   6.327  0.5781 -0.1114  0.5821
10437TIP3   OH231243   2.170   7.903   4.898  0.1968 -0.1839 -0.0437
10437TIP3    H131244   2.232   7.955   4.847  0.7076 -1.3302 -0.6237
10437TIP3    H231245   2.126   7.966   4.954  0.6100  0.9131 -0.9224
10438TIP3   OH231246   2.310   0.251   2.250 -0.5198 -0.2013 -0.0666
10438TIP3    H131247   2.390   0.292   2.283  0.1956 -1.8481  0.2937
10438TIP3    H231248   2.252   0.324   2.232  1.5624  1.1411 -1.6569
10439TIP3   OH231249   2.153   1.251   0.344 -0.6359 -0.1264 -0.2183
10439TIP3    H131250   2.217   1.199   0.295 -0.9832 -2.2780  1.4949
10439TIP3    H231251   2.068   1.218   0.314 -0.8930  1.0465 -0.7659
10440TIP3   OH231252   0.779   6.529   1.834 -0.0153 -0.2683 -0.1150
10440TIP3    H131253   0.718   6.505   1.904 -0.1169 -0.0454 -0.1256
10440TIP3    H231254   0.786   6.450   1.781 -1.4101  0.1356 -0.9307
10441TIP3   OH231255   6.371   3.077   5.728  0.5825  0.2797 -0.3297
10441TIP3    H131256   6.436   3.009   5.746  0.7244  0.7183  0.8783
10441TIP3    H231257   6.293   3.030   5.699  1.3060 -0.2754 -1.3530
10442TIP3   OH231258   1.727   6.728   2.619  0.0183  0.4843  0.4974
10442TIP3    H131259   1.699   6.758   2.706 -0.2205 -1.4308  1.1014
10442TIP3    H231260   1.802   6.672   2.635 -0.3026 -0.2525 -0.4880
10443TIP3   OH231261   6.905   3.132   6.817 -0.0536  0.3105  0.7446
10443TIP3    H131262   6.820   3.090   6.830  0.1626  0.3027  2.2754
10443TIP3    H231263   6.950   3.121   6.901  0.7214  2.0091  0.5705
10444TIP3   OH231264   7.751   4.028   5.447 -0.2424  0.1682  0.8548
10444TIP3    H131265   7.784   3.996   5.363  0.8893 -0.2119  1.4379
10444TIP3    H231266   7.674   3.975   5.465 -2.2434  2.2090 -1.3557
10445TIP3   OH231267   4.741   1.903   6.467  0.6314  0.5618 -0.9134
10445TIP3    H131268   4.816   1.845   6.451  0.4523 -0.4231  1.5960
10445TIP3    H231269   4.766   1.956   6.542 -1.0444  0.4536 -0.2461
10446TIP3   OH231270   5.284   2.200   6.879  0.8100 -0.1180 -0.0779
10446TIP3    H131271   5.342   2.233   6.949 -0.5252 -0.7768  1.3734
10446TIP3    H231272   5.205   2.254   6.887  0.4846 -0.4797 -0.8318
10447TIP3   OH231273   3.588   3.149   5.590 -0.2629  0.0976  0.0028
10447TIP3    H131274   3.592   3.231   5.641 -0.1856 -1.1356  2.0278
10447TIP3    H231275   3.494   3.134   5.578 -0.3135 -0.0397  0.5306
10448TIP3   OH231276   5.267   2.944   6.331 -0.1041  0.4813  0.4674
10448TIP3    H131277   5.185   2.912   6.293 -0.7242  1.1245  1.2572
10448TIP3    H231278   5.331   2.876   6.309 -0.6939  0.2918 -0.7254
10449TIP3   OH231279   3.063   4.105   5.240 -0.0856  0.0654 -0.4981
10449TIP3    H131280   2.976   4.074   5.267 -0.1609  1.1692  0.5922
10449TIP3    H231281   3.122   4.036   5.267 -0.4715 -0.0313  0.1161
10450TIP3   OH231282   5.202   2.265   6.062 -0.2559  0.1720  0.2133
10450TIP3    H131283   5.288   2.252   6.104 -0.8242  0.1277  1.3801
10450TIP3    H231284   5.194   2.191   6.002  0.6688  0.3590 -0.1563
10451TIP3   OH231285   8.332   7.970   3.503 -0.2966 -0.0741 -0.1847
10451TIP3    H131286   8.250   7.936   3.467 -0.4002  1.3851 -1.3605
10451TIP3    H231287   8.344   8.054   3.459  2.2957 -0.6919 -0.7126
10452TIP3   OH231288   4.090   2.667   5.914  0.0862  0.1061 -0.4397
10452TIP3    H131289   4.121   2.674   5.823  0.3921  0.2102 -0.3264
10452TIP3    H231290   4.014   2.725   5.917  0.8034  1.0464 -0.3086
10453TIP3   OH231291   4.868   4.915   6.814  0.8210 -0.1602 -0.1531
10453TIP3    H131292   4.815   4.988   6.845  2.1191  0.0171  1.7566
10453TIP3    H231293   4.953   4.954   6.792  1.4208 -1.0120  0.5913
10454TIP3   OH231294   6.186   1.962   6.575  0.2735  0.6158 -0.1943
10454TIP3    H131295   6.129   2.038   6.558  0.0595  0.0349 -2.2658
10454TIP3    H231296   6.179   1.909   6.495  0.8285 -1.3309  1.0338
10455TIP3   OH231297   4.040   3.678   6.414 -0.0951  0.1655  0.1980
10455TIP3    H131298   4.085   3.652   6.333 -0.9866 -1.1727  0.1091
10455TIP3    H231299   4.100   3.738   6.457  1.6801 -1.4115 -0.0205
10456TIP3   OH231300   5.336   3.709   5.967 -0.0829  0.5325  0.0878
10456TIP3    H131301   5.400   3.640   5.949  0.4971  1.0552  0.1211
10456TIP3    H231302   5.369   3.753   6.045 -1.3123 -0.1778  1.0310
10457TIP3   OH231303   8.316   7.102   0.546  0.0053 -0.2951  0.4883
10457TIP3    H131304   8.261   7.157   0.602  0.2387  0.2407  0.1937
10457TIP3    H231305   8.258   7.031   0.518 -0.1772 -0.4397  1.2191
10458TIP3   OH231306   7.795   3.817   0.321 -0.2454 -0.8786 -0.1317
10458TIP3    H131307   7.794   3.813   0.225  0.6963  0.8668 -0.2423
10458TIP3    H231308   7.881   3.855   0.342 -0.7364 -0.5667  1.3700
10459TIP3   OH231309   5.520   5.130   6.045  0.4063 -0.6138 -0.2397
10459TIP3    H131310   5.452   5.195   6.059 -0.4781 -1.7189  0.7060
10459TIP3    H231311   5.569   5.161   5.968  0.1090  1.2232  0.3149
10460TIP3   OH231312   7.096   7.540   0.404 -0.3375 -0.1321 -0.0864
10460TIP3    H131313   7.074   7.576   0.490  0.3924 -2.1846  1.0009
10460TIP3    H231314   7.190   7.558   0.394 -0.2786 -0.4764 -0.1578
10461TIP3   OH231315   4.830   3.291   6.576  0.4257 -0.2280  0.5522
10461TIP3    H131316   4.918   3.321   6.554  0.2454 -0.6406 -0.7602
10461TIP3    H231317   4.775   3.368   6.563  0.2827 -0.5359 -0.7123
10462TIP3   OH231318   5.864   1.606   5.679 -0.3327  0.3477  0.3941
10462TIP3    H131319   5.953   1.638   5.667  0.0435 -0.0348  2.0819
10462TIP3    H231320   5.868   1.551   5.757 -1.7858 -0.7113 -0.2517
10463TIP3   OH231321   3.626   3.824   4.979  0.4254  0.2184  0.0688
10463TIP3    H131322   3.657   3.734   4.989 -0.0625 -0.2225 -2.2075
10463TIP3    H231323   3.705   3.878   4.987  0.7645 -0.4232  1.1181
10464TIP3   OH231324   5.126   1.848   6.260 -0.0499 -0.3143 -0.4689
10464TIP3    H131325   5.174   1.872   6.340  0.3629 -1.1782 -0.4484
10464TIP3    H231326   5.069   1.776   6.287  0.2713 -0.7765 -1.0118
10465TIP3   OH231327   4.100   2.184   5.146 -0.0955 -0.7893  0.1940
10465TIP3    H131328   4.153   2.113   5.109  0.5117 -0.3257  0.1694
10465TIP3    H231329   4.135   2.196   5.234  0.2769 -0.0441 -0.0509
10466TIP3   OH231330   7.191   6.771   2.764  0.4143 -0.2707 -0.0611
10466TIP3    H131331   7.239   6.725   2.834  1.3618  2.1252  0.9219
10466TIP3    H231332   7.259   6.799   2.703 -0.1892 -0.5070 -0.8456
10467TIP3   OH231333   7.135   1.428   6.724  0.5301  0.0979  0.1116
10467TIP3    H131334   7.058   1.455   6.774 -0.2472  0.0684 -1.0412
10467TIP3    H231335   7.199   1.498   6.737 -0.0005  0.5318  0.3999
10468TIP3   OH231336   5.470   3.306   6.225  0.2621  0.0188  0.1098
10468TIP3    H131337   5.556   3.332   6.260  0.3293 -0.5342  0.3562
10468TIP3    H231338   5.449   3.225   6.271  0.4628 -0.8633 -1.3323
10469TIP3   OH231339   7.965   3.200   5.738  0.2541  0.2542  0.7905
10469TIP3    H131340   7.946   3.256   5.662  0.6297  1.6926  1.7438
10469TIP3    H231341   8.011   3.124   5.701 -2.3691 -0.6229 -0.8301
10470TIP3   OH231342   0.288   5.090   0.134 -0.2687  0.3784  0.4275
10470TIP3    H131343   0.197   5.062   0.121 -0.0509 -0.0517 -0.2152
10470TIP3    H231344   0.293   5.175   0.090 -0.1047 -0.0660 -0.4311
10471TIP3   OH231345   5.879   0.802   6.624  0.1429 -0.0240  1.2252
10471TIP3    H131346   5.808   0.844   6.672  0.7626 -0.5425  2.6282
10471TIP3    H231347   5.958   0.827   6.671  0.5640 -2.3438  1.8564
10472TIP3   OH231348   0.816   6.036   2.661  0.4689  0.6261 -0.4710
10472TIP3    H131349   0.863   6.008   2.740  1.6715  2.8307 -0.3817
10472TIP3    H231350   0.734   6.074   2.693  0.0793 -0.2244 -0.4298
10473TIP3   OH231351   4.180   5.223   6.430  0.0722 -0.3298 -0.1979
10473TIP3    H131352   4.168   5.219   6.525 -0.7531  0.3483 -0.2688
10473TIP3    H231353   4.261   5.274   6.418 -0.2161  0.2086  0.1241
10474TIP3   OH231354   4.481   5.439   6.921  0.3467  0.3989  0.3781
10474TIP3    H131355   4.435   5.425   6.838 -0.2625 -2.3431  1.1150
10474TIP3    H231356   4.438   5.515   6.959 -1.0778  0.1650 -0.6936
10475TIP3   OH231357   3.140   0.573   1.584  0.4260  0.5794 -0.3877
10475TIP3    H131358   3.218   0.526   1.614 -0.2176  0.3712  0.9970
10475TIP3    H231359   3.174   0.657   1.552  1.7143 -1.1367 -3.7997
10476TIP3   OH231360   6.510   0.973   6.120 -0.2831  0.3967  0.0010
10476TIP3    H131361   6.474   0.922   6.048 -1.6226  0.3286  0.7002
10476TIP3    H231362   6.477   1.062   6.106  3.9013  1.6429 -2.4900
10477TIP3   OH231363   0.346   6.789   1.453  0.0755 -0.3375  0.2987
10477TIP3    H131364   0.302   6.718   1.499 -0.7264 -1.6687 -2.3976
10477TIP3    H231365   0.439   6.764   1.453  0.3537  0.5554  2.6349
10478TIP3   OH231366   4.656   1.580   6.561  0.0378 -0.0490  0.0819
10478TIP3    H131367   4.593   1.647   6.533 -0.1704 -0.8808 -1.5005
10478TIP3    H231368   4.610   1.497   6.548 -0.4284 -0.4934  3.8759
10479TIP3   OH231369   7.433   5.954   1.226  0.1432  0.5534  0.2886
10479TIP3    H131370   7.498   5.999   1.171 -0.2488  2.2946  1.2165
10479TIP3    H231371   7.485   5.918   1.298 -0.1007  3.5874  2.0647
10480TIP3   OH231372   7.202   6.460   0.474  0.4861 -0.4319 -0.5901
10480TIP3    H131373   7.193   6.366   0.490  0.5548 -0.2648  0.4938
10480TIP3    H231374   7.259   6.466   0.398 -0.4851 -1.2918 -1.4025
10481TIP3   OH231375   4.256   0.001   0.427 -0.4208  0.0452  0.1790
10481TIP3    H131376   4.285   0.092   0.431 -3.4609  1.0616  1.0274
10481TIP3    H231377   4.277  -0.035   0.514 -0.6637  0.4339  0.4006
10482TIP3   OH231378   4.969   0.799   6.085 -0.1715 -0.1014  0.0373
10482TIP3    H131379   4.959   0.846   6.003  1.3404  0.9179  0.4170
10482TIP3    H231380   5.032   0.730   6.066  2.7721  2.1634  1.0984
10483TIP3   OH231381   5.774   2.890   6.419  0.6267 -0.4430 -0.1641
10483TIP3    H131382   5.771   2.912   6.512  2.6189 -1.5820  0.2037
10483TIP3    H231383   5.866   2.873   6.401 -0.0512 -2.7352 -1.7391
10484TIP3   OH231384   4.456   1.000   6.661 -0.0087 -0.4252 -1.0473
10484TIP3    H131385   4.371   1.045   6.667 -0.2833 -1.2137  1.6253
10484TIP3    H231386   4.518   1.069   6.637 -1.0072  0.6633 -0.5533
10485TIP3   OH231387   7.348   3.156   6.717  0.5686 -0.1763  0.1708
10485TIP3    H131388   7.342   3.237   6.769  1.4946 -0.2183  0.3558
10485TIP3    H231389   7.272   3.105   6.744 -0.2010  0.7620 -0.1704
10486TIP3   OH231390   0.761   0.101   2.085 -0.8093  0.2316  0.3823
10486TIP3    H131391   0.716   0.084   2.168 -0.2034 -0.6971  0.5251
10486TIP3    H231392   0.690   0.114   2.022 -1.2771 -0.6748  0.7157
10487TIP3   OH231393   2.105   4.079   6.139  0.3521  0.4778 -0.0476
10487TIP3    H131394   2.149   4.118   6.064  0.3901  0.9349  0.2110
10487TIP3    H231395   2.138   3.989   6.142 -1.4881 -0.2915 -2.0281
10488TIP3   OH231396   6.661   4.902   0.600 -0.1437 -0.3096 -0.6132
10488TIP3    H131397   6.657   4.938   0.512 -1.3112  0.7650 -0.1359
10488TIP3    H231398   6.680   4.809   0.587  2.8755  0.4078 -1.8550
10489TIP3   OH231399   5.433   2.142   5.431 -0.2838 -0.4311 -0.1903
10489TIP3    H131400   5.512   2.113   5.385 -1.4190 -1.0909 -1.7927
10489TIP3    H231401   5.393   2.060   5.462 -2.0344 -0.3895 -2.2633
10490TIP3   OH231402   6.611   6.754   0.487  0.3745 -0.4184 -0.5964
10490TIP3    H131403   6.659   6.749   0.405  1.2183 -0.8967 -0.0910
10490TIP3    H231404   6.558   6.833   0.480  1.0347 -0.0321 -1.2767
10491TIP3   OH231405   4.885   0.694   4.506  0.2448 -0.4449  0.6714
10491TIP3    H131406   4.833   0.749   4.448 -1.3539 -1.5822  1.0067
10491TIP3    H231407   4.909   0.618   4.453  1.6166  0.0699  0.5131
10492TIP3   OH231408   5.410   2.722   6.236  0.1666  0.0310  0.0091
10492TIP3    H131409   5.485   2.671   6.206  0.8727 -1.0427  3.3237
10492TIP3    H231410   5.335   2.664   6.224  0.3151 -0.0488 -0.5129
10493TIP3   OH231411   1.622   5.170   1.632  0.4082 -0.5445 -0.2295
10493TIP3    H131412   1.575   5.095   1.667  1.6257 -1.2234 -0.0076
10493TIP3    H231413   1.689   5.189   1.697 -1.0981  1.9937  0.6604
10494TIP3   OH231414   0.978   1.465   0.488  0.1824 -0.0269  0.2674
10494TIP3    H131415   0.988   1.422   0.574 -0.1667  1.5077  1.0855
10494TIP3    H231416   0.884   1.481   0.480  0.1305 -0.7596 -0.7150
10495TIP3   OH231417   4.698   1.257   5.180  0.4613 -0.4781 -0.2941
10495TIP3    H131418   4.753   1.311   5.236 -0.3322  0.4464 -0.3875
10495TIP3    H231419   4.726   1.277   5.091  0.5419 -0.6411 -0.3062
10496TIP3   OH231420   5.845   3.943   6.152  0.0104  0.5702  0.1581
10496TIP3    H131421   5.821   3.946   6.244  0.1627  0.9191  0.1917
10496TIP3    H231422   5.826   4.032   6.120 -1.0917  0.1320 -0.4181
10497TIP3   OH231423   7.547   5.148   0.586 -0.2606  0.4881 -0.1540
10497TIP3    H131424   7.463   5.192   0.597 -2.2079 -2.8500 -0.9000
10497TIP3    H231425   7.588   5.194   0.512 -1.1119  2.5887  0.6536
10498TIP3   OH231426   6.966   6.955   1.448 -0.1977 -0.2183  0.1676
10498TIP3    H131427   7.018   6.880   1.475 -0.2073  1.4058  5.1370
10498TIP3    H231428   7.028   7.027   1.443 -0.7397  0.1668 -1.3012
10499TIP3   OH231429   1.874   1.456   0.662 -0.2352 -0.2332 -0.0469
10499TIP3    H131430   1.839   1.542   0.639 -0.6317 -0.4964 -0.4210
10499TIP3    H231431   1.824   1.430   0.740  0.4387  0.2262  0.5498
10500TIP3   OH231432   7.648   6.719   0.115 -0.4712  0.4201  0.2274
10500TIP3    H131433   7.631   6.630   0.081 -0.4377 -0.1174  1.5991
10500TIP3    H231434   7.739   6.716   0.144 -0.1440  1.2335 -0.7003
10501TIP3   OH231435   4.767   7.432   5.030  0.0550  0.0967  0.4553
10501TIP3    H131436   4.757   7.377   4.953  2.2517  0.3036 -0.0257
10501TIP3    H231437   4.691   7.490   5.030 -1.0397 -1.3332 -0.3620
10502TIP3   OH231438   4.070   0.678   0.152  0.3898 -0.1272 -0.0046
10502TIP3    H131439   4.024   0.701   0.233  0.0685 -1.1348  0.1035
10502TIP3    H231440   4.016   0.715   0.082 -0.1599 -0.6052  0.1648
10503TIP3   OH231441   3.044   0.374   1.952  0.3953  0.4812  0.1630
10503TIP3    H131442   3.109   0.346   1.887 -0.3807 -2.5652  0.6401
10503TIP3    H231443   3.023   0.295   2.001 -2.1812  1.8405  1.3555
10504TIP3   OH231444   3.708   2.721   4.770 -0.2530  0.4406  0.0646
10504TIP3    H131445   3.800   2.695   4.773 -0.2038  0.6876  0.9662
10504TIP3    H231446   3.686   2.723   4.677  0.3789 -0.5911 -0.1108
10505TIP3   OH231447   5.306   3.299   5.843 -0.1701 -0.3787  0.0135
10505TIP3    H131448   5.327   3.277   5.752 -2.7587 -0.5439 -0.5913
10505TIP3    H231449   5.387   3.283   5.891  0.8690 -1.5463 -2.0580
10506TIP3   OH231450   3.673   2.948   5.773  0.0166 -0.7043 -0.1982
10506TIP3    H131451   3.675   3.003   5.695 -0.5017 -0.3616  0.0218
10506TIP3    H231452   3.581   2.921   5.781 -0.4767  1.3258  1.6934
10507TIP3   OH231453   4.571   2.531   5.234  0.1972  0.2065  0.1874
10507TIP3    H131454   4.519   2.566   5.162  0.2977 -1.4537 -0.7072
10507TIP3    H231455   4.514   2.466   5.276  0.5066  0.4392  0.9787
10508TIP3   OH231456   4.267   6.201   4.483  0.1763  0.0697 -0.1645
10508TIP3    H131457   4.263   6.172   4.392 -1.5802  0.1064 -0.1075
10508TIP3    H231458   4.182   6.177   4.520  1.9201 -2.6523  2.3112
10509TIP3   OH231459   8.426   7.034   2.517  0.5593 -0.1560  0.3085
10509TIP3    H131460   8.400   7.111   2.467  0.0172 -1.1611 -1.0111
10509TIP3    H231461   8.344   6.990   2.538  0.8687 -0.4299  0.9587
10510TIP3   OH231462   5.969   1.535   6.099 -0.8025  0.3517  0.1096
10510TIP3    H131463   5.938   1.484   6.024 -1.0483  1.4054 -0.5325
10510TIP3    H231464   6.043   1.486   6.133 -0.1625  0.2797 -1.3538
10511TIP3   OH231465   2.841   0.043   0.249 -0.3416  0.7142 -0.0957
10511TIP3    H131466   2.745   0.039   0.247 -0.3851 -1.6515  2.9655
10511TIP3    H231467   2.861   0.118   0.304 -0.5680 -1.0735  2.5361
10512TIP3   OH231468   6.087   3.798   5.062 -0.2270  0.5812 -0.0508
10512TIP3    H131469   6.068   3.711   5.096 -1.3488  1.2008  0.9351
10512TIP3    H231470   6.138   3.841   5.131 -0.4092  1.0021 -0.1776
10513TIP3   OH231471   6.850   6.097   0.645  0.4549 -0.1545  0.3674
10513TIP3    H131472   6.894   6.060   0.722  0.3840  0.9537  0.9497
10513TIP3    H231473   6.866   6.033   0.576  2.2244 -0.2119  0.7918
10514TIP3   OH231474   4.096   3.213   6.059 -0.6306  0.0771 -0.4365
10514TIP3    H131475   4.154   3.141   6.034 -1.3382 -0.5656 -0.2695
10514TIP3    H231476   4.146   3.264   6.121 -0.0937 -0.2406 -0.6045
10515TIP3   OH231477   6.307   7.601   1.085  0.1408 -0.3457 -0.0610
10515TIP3    H131478   6.401   7.618   1.081  0.1998 -0.6639 -0.0904
10515TIP3    H231479   6.275   7.620   0.996  0.3691 -1.2949 -0.3590
10516TIP3   OH231480   0.064   7.702   1.107 -0.7274 -0.1637 -0.5520
10516TIP3    H131481   0.045   7.722   1.198  0.2133  2.0143 -0.7961
10516TIP3    H231482   0.017   7.621   1.089 -0.6076 -0.8170  1.9667
10517TIP3   OH231483   4.811   2.574   3.151 -0.0167  0.0525 -0.5294
10517TIP3    H131484   4.744   2.622   3.198 -0.1648  0.4719 -1.1548
10517TIP3    H231485   4.767   2.545   3.070 -0.0803 -1.5643  0.0677
10518TIP3   OH231486   3.670   0.817   6.484  0.1529  0.4126 -0.1620
10518TIP3    H131487   3.686   0.725   6.503 -2.8918 -0.0537  0.3110
10518TIP3    H231488   3.758   0.855   6.474  1.4827 -2.1351  1.3889
10519TIP3   OH231489   5.657   0.143   5.640  0.1915 -0.0122  0.1001
10519TIP3    H131490   5.721   0.072   5.634 -0.5881 -1.3384  5.2795
10519TIP3    H231491   5.572   0.099   5.641 -0.5795  1.3903 -1.6971
10520TIP3   OH231492   7.710   5.284   0.124 -0.7782 -0.3985 -0.3069
10520TIP3    H131493   7.660   5.320   0.051 -0.2459  0.8663 -0.0759
10520TIP3    H231494   7.786   5.243   0.083  0.3777  1.7566 -0.3956
10521TIP3   OH231495   4.039   3.103   5.319 -0.1848 -0.2217 -0.1348
10521TIP3    H131496   4.027   3.026   5.374  1.4319 -1.0314 -0.8599
10521TIP3    H231497   4.018   3.178   5.376  0.6204 -1.0786  1.3094
10522TIP3   OH231498   5.315   4.012   5.505 -0.3919 -0.1068 -0.8400
10522TIP3    H131499   5.405   4.033   5.480  0.2881 -0.7537  0.9832
10522TIP3    H231500   5.263   4.083   5.467  1.4762  3.2616  2.4944
10523TIP3   OH231501   4.400   2.169   5.534  0.2455 -0.1828  0.1418
10523TIP3    H131502   4.368   2.082   5.511 -3.0638  0.7054  1.1009
10523TIP3    H231503   4.457   2.155   5.610  1.2195 -1.6769 -0.8280
10524TIP3   OH231504   5.546   1.963   6.115 -0.3440  0.0936 -0.1122
10524TIP3    H131505   5.602   1.999   6.047  1.5240 -1.7498  0.3996
10524TIP3    H231506   5.542   1.869   6.096 -0.2136 -0.3685  1.9806
10525TIP3   OH231507   5.869   2.324   5.181  1.0331 -0.4305  0.1945
10525TIP3    H131508   5.872   2.416   5.155  1.5463 -0.2750  0.7941
10525TIP3    H231509   5.950   2.286   5.146  0.1329 -1.0000 -1.3164
10526TIP3   OH231510   6.506   1.888   6.622  0.6920 -0.5995  0.1480
10526TIP3    H131511   6.563   1.825   6.578  0.5580 -1.9431  1.8324
10526TIP3    H231512   6.428   1.893   6.565  0.7737 -1.8442 -0.0963
10527TIP3   OH231513   4.908   4.762   6.397 -0.1230  0.0228  0.2290
10527TIP3    H131514   4.877   4.852   6.409  0.5155  0.2528  0.1653
10527TIP3    H231515   4.905   4.749   6.302 -0.8014 -0.2340  0.2836
10528TIP3   OH231516   6.049   7.915   0.329  0.0168 -0.3248 -0.4546
10528TIP3    H131517   6.099   7.865   0.393  0.7884 -0.3537 -1.0767
10528TIP3    H231518   5.971   7.943   0.376  0.9219  0.2674  0.7275
10529TIP3   OH231519   5.210   2.955   6.808  0.1516 -0.2295 -0.3317
10529TIP3    H131520   5.141   3.018   6.790  1.0908  1.2321  1.1648
10529TIP3    H231521   5.235   2.970   6.899  2.1064 -1.0635 -0.6936
10530TIP3   OH231522   2.203   0.535   1.503  0.4730  0.1826  0.3317
10530TIP3    H131523   2.263   0.462   1.516  0.7512  0.0297 -1.7701
10530TIP3    H231524   2.118   0.500   1.529  0.8489 -0.4129  0.7822
10531TIP3   OH231525   2.979   3.108   6.665  0.5956  0.1429 -0.3053
10531TIP3    H131526   2.896   3.152   6.682  0.5427 -0.6679  1.6908
10531TIP3    H231527   2.998   3.127   6.574 -1.1329  1.4277 -0.4217
10532TIP3   OH231528   3.072   4.317   5.078  0.0821  0.0011 -0.0902
10532TIP3    H131529   3.074   4.233   5.124 -2.0466  0.2953  0.5829
10532TIP3    H231530   3.012   4.303   5.005  0.9346  0.5016 -0.9067
10533TIP3   OH231531   0.601   5.309   6.871  0.0386  0.5144  0.5744
10533TIP3    H131532   0.649   5.355   6.939 -1.0069  0.2121  1.5195
10533TIP3    H231533   0.618   5.217   6.888  1.1262  0.4815 -0.5818
10534TIP3   OH231534   6.096   3.501   6.477  0.7430  0.1373 -0.3278
10534TIP3    H131535   6.097   3.405   6.469  1.4375  0.1172 -0.0683
10534TIP3    H231536   6.061   3.517   6.564 -0.0937  0.1472 -0.6600
10535TIP3   OH231537   8.440   7.381   1.684  0.3654 -0.1791 -0.6008
10535TIP3    H131538   8.346   7.368   1.696  0.3877 -0.9958 -1.2448
10535TIP3    H231539   8.451   7.476   1.678 -0.6848 -0.1743 -2.6269
10536TIP3   OH231540   4.564   2.105   6.290  0.0285 -0.4630  0.1217
10536TIP3    H131541   4.553   2.010   6.285 -0.6798 -0.4338  1.1059
10536TIP3    H231542   4.624   2.118   6.363  0.4952 -0.1780 -0.3140
10537TIP3   OH231543   7.718   6.511   0.355  0.0280  0.1237 -0.0601
10537TIP3    H131544   7.724   6.513   0.450  1.7677 -0.9061 -0.1268
10537TIP3    H231545   7.807   6.491   0.325 -0.3684  1.0149 -1.9237
10538TIP3   OH231546   3.881   3.394   5.399 -0.1338  0.1052  0.1249
10538TIP3    H131547   3.825   3.379   5.322 -0.5152 -2.4564  0.8360
10538TIP3    H231548   3.879   3.488   5.412 -1.8484  0.3665 -1.7005
10539TIP3   OH231549   1.179   7.487   2.274  0.4901  0.4224  0.4222
10539TIP3    H131550   1.114   7.544   2.234  0.7626  1.0733  0.9055
10539TIP3    H231551   1.236   7.461   2.201 -1.1158 -1.2933 -0.2743
10540TIP3   OH231552   4.644   4.095   4.761 -0.0387 -0.3112  0.1992
10540TIP3    H131553   4.729   4.138   4.774 -0.1908  0.2561 -0.6715
10540TIP3    H231554   4.601   4.101   4.846  0.7497 -0.5114  0.6225
10541TIP3   OH231555   1.636   7.360  -0.015 -0.0835 -0.2034  0.1909
10541TIP3    H131556   1.688   7.419   0.039 -3.4279  2.0453  1.0911
10541TIP3    H231557   1.595   7.299   0.047 -0.1926 -0.6368 -0.2979
10542TIP3   OH231558   5.683   2.621   6.290  0.5682  0.4534 -0.0914
10542TIP3    H131559   5.609   2.616   6.350  0.1918  0.4331 -0.5580
10542TIP3    H231560   5.713   2.712   6.297  1.6515 -0.0005  1.4677
10543TIP3   OH231561   3.853   2.863   6.704 -0.8313 -0.5406 -0.1969
10543TIP3    H131562   3.936   2.832   6.668 -0.0621  1.3621 -0.1476
10543TIP3    H231563   3.866   2.957   6.715 -3.4831 -0.0035 -1.4332
10544TIP3   OH231564   1.438   0.088   2.965 -0.6240 -0.2268  0.0411
10544TIP3    H131565   1.484   0.018   2.918  1.8501  1.2128  0.2187
10544TIP3    H231566   1.417   0.152   2.897  1.1790  0.9298  0.5315
10545TIP3   OH231567   7.657   5.556   1.194  0.8247  0.1770 -0.2588
10545TIP3    H131568   7.586   5.497   1.168 -0.1952  1.3412 -0.1687
10545TIP3    H231569   7.669   5.541   1.288  2.7133 -2.1279 -0.8276
10546TIP3   OH231570   6.747   2.080   5.774 -0.1600 -0.6605  0.2411
10546TIP3    H131571   6.672   2.136   5.792  0.9437  0.9234  0.0531
10546TIP3    H231572   6.735   2.052   5.683  0.8546  1.8509 -0.7184
10547TIP3   OH231573   5.827   1.727   5.203  0.4026 -0.2358 -0.1764
10547TIP3    H131574   5.797   1.674   5.277 -2.3427  2.0097  0.4197
10547TIP3    H231575   5.763   1.709   5.133 -0.0004  1.5072 -0.2766
10548TIP3   OH231576   7.683   7.515   1.776 -0.1137  0.2613 -0.6055
10548TIP3    H131577   7.634   7.514   1.858 -0.5761 -0.6221 -0.8882
10548TIP3    H231578   7.774   7.528   1.802 -0.2516 -0.0752  0.0504
10549TIP3   OH231579   0.323   6.299   0.767  0.1262 -0.0277 -0.4951
10549TIP3    H131580   0.379   6.373   0.793 -1.3001  1.0622 -0.4669
10549TIP3    H231581   0.237   6.338   0.752 -0.2897 -1.4385 -1.9901
10550TIP3   OH231582   4.084   1.787   6.896 -0.3180  1.0009  0.8283
10550TIP3    H131583   4.159   1.822   6.848  0.2190  1.9849  2.3376
10550TIP3    H231584   4.121   1.720   6.954 -0.7839  0.6075  0.6749
10551TIP3   OH231585   8.104   5.469   0.550  0.7373  0.8476  0.0059
10551TIP3    H131586   8.044   5.466   0.475 -1.8012 -1.2089  2.0227
10551TIP3    H231587   8.146   5.384   0.550  1.1906  1.0691  0.5446
10552TIP3   OH231588   1.570   5.776   1.809  0.3596  0.6500 -0.2120
10552TIP3    H131589   1.523   5.699   1.841  0.6828  0.7739  0.5686
10552TIP3    H231590   1.511   5.850   1.827  1.0115  0.8586  1.1613
10553TIP3   OH231591   3.201   0.398   6.656  0.5414 -0.5045  0.2205
10553TIP3    H131592   3.177   0.469   6.597  2.1258 -0.3977 -0.3064
10553TIP3    H231593   3.172   0.428   6.742 -0.4774 -0.0389 -0.2854
10554TIP3   OH231594   5.844   1.378   5.310 -0.1165 -0.1486 -0.4885
10554TIP3    H131595   5.869   1.362   5.219  0.6263  0.6085 -0.4219
10554TIP3    H231596   5.916   1.430   5.346 -0.4334 -0.3997  0.5178
10555TIP3   OH231597   1.360   6.668   0.176 -0.1778 -0.2714  0.6923
10555TIP3    H131598   1.336   6.605   0.244 -0.6331  1.5712  2.2801
10555TIP3    H231599   1.306   6.644   0.101 -2.3289 -0.1476  2.1496
10556TIP3   OH231600   6.329   2.856   6.047  0.3023  0.4693 -0.0059
10556TIP3    H131601   6.237   2.882   6.056 -0.2137  0.2088 -3.7004
10556TIP3    H231602   6.327   2.761   6.043  0.2525  0.5336 -3.5392
10557TIP3   OH231603   6.455   2.658   6.242  0.1034 -0.1266 -0.3421
10557TIP3    H131604   6.456   2.616   6.328  0.6404  1.9274  0.7152
10557TIP3    H231605   6.537   2.631   6.201 -0.8443 -2.3011 -0.8189
10558TIP3   OH231606   7.241   4.299   1.729 -0.4441  0.3115  0.2810
10558TIP3    H131607   7.312   4.238   1.751 -0.1360  0.1159 -1.1656
10558TIP3    H231608   7.268   4.382   1.768  0.0912 -0.0149  0.6158
10559TIP3   OH231609   6.489   1.257   6.438 -0.3070 -0.1926  0.4614
10559TIP3    H131610   6.455   1.335   6.481 -1.1926 -0.4964  0.3202
10559TIP3    H231611   6.583   1.259   6.455 -0.3923  0.6711  0.8283
10560TIP3   OH231612   7.452   7.479   3.166 -0.1704 -0.1505 -0.2231
10560TIP3    H131613   7.441   7.553   3.105 -0.5231 -1.4478 -1.7683
10560TIP3    H231614   7.372   7.480   3.219  0.3064  1.2191  0.5066
10561TIP3   OH231615   3.637   4.177   6.714  0.4601  0.0767  0.1112
10561TIP3    H131616   3.575   4.110   6.684  0.0853  1.0380 -1.3410
10561TIP3    H231617   3.711   4.128   6.749  0.6128 -1.1097 -1.8288
10562TIP3   OH231618   7.110   6.109   0.903  0.6549  0.2901 -0.0376
10562TIP3    H131619   7.097   6.204   0.903  0.0806  0.2274  1.4079
10562TIP3    H231620   7.137   6.089   0.993 -2.1714 -1.2831  0.5342
10563TIP3   OH231621   4.853   6.440   1.234  0.2019 -0.7378  0.1234
10563TIP3    H131622   4.890   6.429   1.322  1.5998 -0.9521 -0.4830
10563TIP3    H231623   4.779   6.379   1.232  0.7721 -1.4720  0.8090
10564TIP3   OH231624   0.239   1.748   0.676 -0.2938 -0.1169 -0.7872
10564TIP3    H131625   0.186   1.816   0.636 -1.1698  0.2845  0.9980
10564TIP3    H231626   0.293   1.794   0.740  1.0173 -0.7506 -1.4163
10565TIP3   OH231627   4.482   4.173   5.480 -0.0394 -0.1613  0.0363
10565TIP3    H131628   4.576   4.191   5.477  0.2735 -0.8852  3.4420
10565TIP3    H231629   4.476   4.079   5.491 -1.1410 -0.0218  0.6867
10566TIP3   OH231630   6.410   3.853   6.657 -0.1279 -0.7050 -0.4555
10566TIP3    H131631   6.356   3.801   6.717  1.0443 -2.7780 -1.1510
10566TIP3    H231632   6.498   3.847   6.694  0.0415  0.7085 -0.6168
10567TIP3   OH231633   6.400   3.582   6.398 -0.0496 -0.2398  0.2600
10567TIP3    H131634   6.307   3.575   6.419 -0.0778 -0.7649 -0.0421
10567TIP3    H231635   6.441   3.513   6.450  0.1810  0.0454  0.4566
10568TIP3   OH231636   7.864   4.816   0.470 -0.0246 -0.0517  0.2814
10568TIP3    H131637   7.827   4.729   0.453  0.3508  0.0522 -1.1801
10568TIP3    H231638   7.797   4.861   0.521 -0.9976 -0.5942 -0.4962
10569TIP3   OH231639   2.119   6.623   0.107  0.2619  0.6690 -0.0047
10569TIP3    H131640   2.181   6.551   0.111  0.4975  0.9476  2.3331
10569TIP3    H231641   2.081   6.619   0.019  0.2900 -2.2773  0.0958
10570TIP3   OH231642   6.552   5.031   5.841  0.2184  0.3189  0.0590
10570TIP3    H131643   6.486   5.013   5.909  1.4852 -1.2442  0.9149
10570TIP3    H231644   6.635   5.034   5.889  1.0126  0.1574 -1.2965
10571TIP3   OH231645   4.651   3.776   6.353 -0.0527 -0.3748  0.0206
10571TIP3    H131646   4.600   3.793   6.432 -0.1101 -0.3913 -0.0134
10571TIP3    H231647   4.604   3.706   6.308  0.1346 -0.5603  0.1114
10572TIP3   OH231648   4.872   3.981   5.122 -0.1045  0.2862  0.6149
10572TIP3    H131649   4.885   3.898   5.077  1.9239  1.0297 -0.2381
10572TIP3    H231650   4.957   4.000   5.162 -0.7987  1.5038  1.5294
10573TIP3   OH231651   4.889   3.415   6.177 -0.3548 -0.2796 -0.2252
10573TIP3    H131652   4.957   3.348   6.183 -0.7826 -0.7217 -0.2689
10573TIP3    H231653   4.935   3.495   6.150 -0.2810 -1.2331 -2.9675
10574TIP3   OH231654   3.660   4.871   4.613  0.0840  0.0423 -0.1886
10574TIP3    H131655   3.748   4.841   4.591  0.5206  2.6690 -2.2665
10574TIP3    H231656   3.603   4.822   4.553  0.2615 -0.4245  0.0170
10575TIP3   OH231657   6.888   3.276   6.011  0.4117  0.5769 -0.4372
10575TIP3    H131658   6.858   3.322   6.090 -0.1672  0.4031 -0.5526
10575TIP3    H231659   6.810   3.230   5.979  0.8878 -0.1401 -0.5669
10576TIP3   OH231660   7.899   1.899   6.568 -0.3590 -0.4032 -0.1841
10576TIP3    H131661   7.983   1.855   6.583 -0.0906  0.1422 -0.1093
10576TIP3    H231662   7.834   1.833   6.592  0.0477 -0.7021  0.1130
10577TIP3   OH231663   0.345   4.488   0.224 -0.2212  0.4084 -0.4778
10577TIP3    H131664   0.364   4.576   0.194  0.5400  0.8746  1.2849
10577TIP3    H231665   0.301   4.445   0.150 -0.2824  2.1447 -1.4564
10578TIP3   OH231666   5.583   2.902   6.831  0.0237  0.4036 -0.4814
10578TIP3    H131667   5.578   2.823   6.777 -0.6966  1.4707 -2.0363
10578TIP3    H231668   5.564   2.872   6.920 -2.9705 -0.7713 -1.4522
10579TIP3   OH231669   0.957   6.787   0.653  0.2567 -0.4570 -0.1741
10579TIP3    H131670   0.974   6.740   0.734 -0.5612 -0.0330  0.2513
10579TIP3    H231671   1.000   6.872   0.665  0.9576 -0.7448 -0.5786
10580TIP3   OH231672   3.916   3.180   6.800 -0.1311 -0.0102  0.3371
10580TIP3    H131673   3.967   3.247   6.754 -0.0948 -0.1012  0.2426
10580TIP3    H231674   3.843   3.161   6.741 -0.9086  0.9450  0.9901
10581TIP3   OH231675   6.792   3.562   6.799 -0.1564  0.3614 -0.0674
10581TIP3    H131676   6.785   3.533   6.708  1.6174 -0.0989 -0.0625
10581TIP3    H231677   6.820   3.485   6.848 -0.6854  0.7128  0.8163
10582TIP3   OH231678   2.514   6.030   1.011 -0.0530  0.3020  0.2030
10582TIP3    H131679   2.477   6.107   0.968  1.7842  0.7206 -0.6684
10582TIP3    H231680   2.553   6.064   1.092  2.4005  0.6122 -1.0836
10583TIP3   OH231681   7.660   7.720   1.111 -0.2403  0.0352  0.3987
10583TIP3    H131682   7.703   7.674   1.183 -0.2491 -0.1262  0.2996
10583TIP3    H231683   7.676   7.813   1.129 -0.8619  0.0340  1.0079
10584TIP3   OH231684   8.509   5.070   0.066  0.1655 -0.2987  0.1107
10584TIP3    H131685   8.456   4.995   0.093  1.5045 -0.8822  1.2269
10584TIP3    H231686   8.449   5.127   0.018 -0.9389 -1.9777 -0.5618
10585TIP3   OH231687   6.760   2.338   5.975  0.1908 -0.4032  0.0930
10585TIP3    H131688   6.841   2.363   5.931 -0.4261  2.1763  0.3352
10585TIP3    H231689   6.710   2.290   5.909  1.4030 -0.9610 -0.4260
10586TIP3   OH231690   4.175   3.700   6.151 -0.1943 -0.2859  0.3272
10586TIP3    H131691   4.110   3.770   6.152  1.8914  1.6867 -0.6931
10586TIP3    H231692   4.234   3.721   6.079  1.4031 -2.2361  1.0006
10587TIP3   OH231693   7.306   4.944   0.819  0.1620  0.4570  0.0197
10587TIP3    H131694   7.267   4.863   0.785  0.3171  0.3171  0.1752
10587TIP3    H231695   7.394   4.919   0.847  0.2913  0.7302 -0.1408
10588TIP3   OH231696   4.962   3.086   6.792 -0.5853  0.3710 -0.1945
10588TIP3    H131697   5.005   3.078   6.706  0.8995  0.9742  0.4748
10588TIP3    H231698   4.927   2.998   6.809  0.2581 -0.1007 -0.8313
10589TIP3   OH231699   6.909   6.620   2.828 -0.9784  0.4889 -0.2877
10589TIP3    H131700   6.878   6.544   2.778 -0.8689  0.1719  0.1303
10589TIP3    H231701   6.974   6.661   2.771 -0.5501 -0.1130 -0.2344
10590TIP3   OH231702   7.493   6.780   0.325  0.0903 -0.5338 -0.0088
10590TIP3    H131703   7.484   6.685   0.312  2.7599 -0.9286  0.5690
10590TIP3    H231704   7.538   6.810   0.246  1.1313 -0.1119  0.7349
10591TIP3   OH231705   3.988   4.586   5.356  0.1702 -0.1165  0.0129
10591TIP3    H131706   3.998   4.663   5.411  1.0557  0.1804 -0.5540
10591TIP3    H231707   3.921   4.534   5.400 -1.7281  1.7949 -0.5270
10592TIP3   OH231708   1.665   0.187   1.150 -0.3769  0.9332 -0.1847
10592TIP3    H131709   1.660   0.118   1.216 -0.1123  1.4463  0.3856
10592TIP3    H231710   1.613   0.155   1.077 -0.8878  0.4608  0.3806
10593TIP3   OH231711   2.346   1.338   0.864  0.2303  0.0235  0.0081
10593TIP3    H131712   2.381   1.312   0.779 -1.6035 -0.0654 -0.7578
10593TIP3    H231713   2.388   1.280   0.926  1.1638 -0.3062 -0.9153
10594TIP3   OH231714   0.018   3.295   5.482 -0.2907  0.1585 -0.4461
10594TIP3    H131715   0.089   3.302   5.546  0.8620 -3.7782 -1.2190
10594TIP3    H231716  -0.062   3.299   5.536  0.5840  0.2443  0.8812
10595TIP3   OH231717   0.884   0.416   1.329  0.1884 -0.4419  0.8764
10595TIP3    H131718   0.832   0.339   1.303 -0.1250 -0.3186  1.1305
10595TIP3    H231719   0.964   0.409   1.277 -0.7004  0.1454 -0.5895
10596TIP3   OH231720   8.404   7.455   0.729  0.1062  0.3240 -0.1179
10596TIP3    H131721   8.347   7.459   0.652  0.5151  1.5526 -0.3842
10596TIP3    H231722   8.486   7.494   0.699  1.2052 -1.6942  0.1692
10597TIP3   OH231723   4.578   1.795   4.806  0.1513  0.0394 -0.3613
10597TIP3    H131724   4.622   1.866   4.854 -0.3858 -0.5575  1.0201
10597TIP3    H231725   4.601   1.716   4.854 -0.3156 -0.5789 -1.1518
10598TIP3   OH231726   3.682   4.258   5.146 -0.4300  0.0188  0.2491
10598TIP3    H131727   3.599   4.212   5.159 -0.4811 -0.1210 -0.5625
10598TIP3    H231728   3.692   4.264   5.051 -0.5041  1.8371  0.3365
10599TIP3   OH231729   5.920   3.815   5.873 -0.3723 -0.1333  0.1091
10599TIP3    H131730   5.951   3.860   5.951  0.3746  1.7554 -1.2360
10599TIP3    H231731   5.827   3.838   5.868 -0.2984  0.1764  0.1548
10600TIP3   OH231732   4.208   6.218   5.858  0.3215  0.3316 -0.2784
10600TIP3    H131733   4.138   6.167   5.898  0.6627 -0.7532 -1.0638
10600TIP3    H231734   4.219   6.181   5.771  0.0844  2.2120 -1.1370
10601TIP3   OH231735   2.306   2.567   0.754  0.5100  0.5417 -0.4757
10601TIP3    H131736   2.243   2.618   0.702 -1.6395 -1.1785  0.3396
10601TIP3    H231737   2.259   2.547   0.835  2.0392 -0.9908  0.0582
10602TIP3   OH231738   4.075   2.551   6.288 -0.2173 -0.0840 -0.0590
10602TIP3    H131739   4.158   2.583   6.253  0.3067 -1.4539 -0.0947
10602TIP3    H231740   4.037   2.499   6.217 -0.5209 -0.4763  0.3832
10603TIP3   OH231741   4.787   1.973   6.835  0.3682 -0.8103 -0.9302
10603TIP3    H131742   4.822   1.890   6.868 -0.3504 -0.3309  1.0613
10603TIP3    H231743   4.709   1.990   6.888 -0.5110  0.2724 -2.4974
10604TIP3   OH231744   7.232   1.781   5.884 -0.1435 -0.3009 -0.3783
10604TIP3    H131745   7.265   1.860   5.842 -1.0662  0.7206  0.7903
10604TIP3    H231746   7.188   1.812   5.963  0.2885 -2.0711  0.5837
10605TIP3   OH231747   4.926   0.152   6.429  0.3349  0.4292  0.1255
10605TIP3    H131748   5.002   0.093   6.432 -0.9456 -1.1982  1.6109
10605TIP3    H231749   4.908   0.172   6.520 -1.9417 -0.4312 -0.1160
10606TIP3   OH231750   2.014   7.728   5.159  0.1204 -0.6661 -0.1179
10606TIP3    H131751   2.053   7.693   5.078  0.4893  0.2685 -0.3555
10606TIP3    H231752   2.053   7.816   5.167 -2.0754  0.3584 -0.4421
10607TIP3   OH231753   7.669   5.313   0.426 -0.6554 -0.6936 -0.5312
10607TIP3    H131754   7.694   5.306   0.334 -1.1843 -0.6185 -0.6824
10607TIP3    H231755   7.748   5.289   0.474  0.1287  0.8495 -0.9893
10608TIP3   OH231756   5.230   1.300   5.897  0.1391  1.2629  0.0322
10608TIP3    H131757   5.163   1.275   5.961 -1.0013  0.5773 -1.4030
10608TIP3    H231758   5.306   1.324   5.950 -0.8857  1.0002  1.6500
10609TIP3   OH231759   6.876   3.513   4.571  0.3773  0.7017  0.6889
10609TIP3    H131760   6.851   3.423   4.593 -2.0186  1.0562 -0.3679
10609TIP3    H231761   6.794   3.561   4.572  1.5941  2.8317  0.9039
10610TIP3   OH231762   2.473   1.858   4.752 -0.4472 -0.0263  0.5798
10610TIP3    H131763   2.558   1.860   4.709 -0.3645 -1.2627  0.6767
10610TIP3    H231764   2.481   1.791   4.819 -1.6317 -0.4589  0.3014
10611TIP3   OH231765   3.080   2.773   6.518 -0.3822  0.0079  0.0637
10611TIP3    H131766   3.005   2.775   6.459 -0.8331 -1.0801  0.6040
10611TIP3    H231767   3.150   2.735   6.465 -0.9765 -1.6322  0.4405
10612TIP3   OH231768   4.915   0.668   5.423  0.3986 -0.0475  0.1046
10612TIP3    H131769   4.994   0.663   5.477  0.3765 -1.3485  0.0311
10612TIP3    H231770   4.853   0.609   5.466 -0.2053  0.2430 -0.3695
10613TIP3   OH231771   4.701   4.293   6.161  0.0090 -0.0329  0.2265
10613TIP3    H131772   4.739   4.237   6.093  0.3720  0.1954  0.2338
10613TIP3    H231773   4.778   4.328   6.207 -0.0981  2.8754 -1.7167
10614TIP3   OH231774   3.020   1.873   1.563  0.3356 -0.1216  0.0661
10614TIP3    H131775   3.081   1.834   1.626  0.1627 -0.3296  0.1070
10614TIP3    H231776   3.075   1.928   1.507  0.5062 -0.0138  0.3359
10615TIP3   OH231777   7.267   4.241   3.185 -0.1215 -0.3071 -0.2548
10615TIP3    H131778   7.328   4.169   3.170 -0.4485 -0.7398  0.4692
10615TIP3    H231779   7.297   4.311   3.127 -0.5773 -1.4737 -1.9106
10616TIP3   OH231780   8.153   7.643   2.205 -0.2206  0.3901  0.0586
10616TIP3    H131781   8.071   7.622   2.161  0.3530  0.9007 -1.2821
10616TIP3    H231782   8.167   7.736   2.187  1.1083  0.0920 -0.5160
10617TIP3   OH231783   3.492   4.739   4.381  0.0956 -0.0949 -0.1868
10617TIP3    H131784   3.509   4.754   4.288  0.8819 -1.4069 -0.2799
10617TIP3    H231785   3.399   4.756   4.392 -0.1861 -0.7746 -1.4115
10618TIP3   OH231786   1.272   5.839   0.578 -0.5146  0.0384  0.6458
10618TIP3    H131787   1.237   5.928   0.569  0.2833  0.3698  0.8208
10618TIP3    H231788   1.239   5.809   0.663 -1.5059 -0.1652  0.2010
10619TIP3   OH231789   3.426   1.476   1.698 -0.0519 -0.5395 -0.4074
10619TIP3    H131790   3.384   1.559   1.677 -0.4924 -1.0528 -1.6117
10619TIP3    H231791   3.355   1.418   1.723  0.3859 -0.1870  1.8022
10620TIP3   OH231792   5.793   2.282   1.071 -0.0158  0.5909  0.2751
10620TIP3    H131793   5.767   2.372   1.049  0.4265  0.4309 -0.9340
10620TIP3    H231794   5.755   2.267   1.158 -1.0169  1.5577  0.0202
10621TIP3   OH231795   4.214   1.612   0.738  0.3904  1.0821 -0.3797
10621TIP3    H131796   4.141   1.604   0.677  0.7947 -0.0989 -0.7309
10621TIP3    H231797   4.260   1.691   0.710  0.4729  0.6467 -1.5039
10622TIP3   OH231798   1.532   1.002   0.421  0.0418 -0.4589  0.3979
10622TIP3    H131799   1.528   0.907   0.410  0.9302 -0.2790 -1.8018
10622TIP3    H231800   1.559   1.015   0.511  3.3739 -2.3698 -0.2610
10623TIP3   OH231801   8.085   3.657   5.780  0.3142  0.0969 -0.4870
10623TIP3    H131802   8.116   3.596   5.714 -0.4869  0.4939 -1.2319
10623TIP3    H231803   8.021   3.712   5.735 -0.3379  0.2911  0.6432
10624TIP3   OH231804   3.872   4.406   6.125  0.4399 -0.1887  0.1734
10624TIP3    H131805   3.897   4.497   6.112  2.0593 -0.6999 -0.4095
10624TIP3    H231806   3.781   4.402   6.097  0.5263  1.1282 -0.3438
10625TIP3   OH231807   6.174   2.785   4.836 -0.2903 -0.1912 -0.1715
10625TIP3    H131808   6.120   2.853   4.795 -0.0897  0.4024  0.5241
10625TIP3    H231809   6.111   2.728   4.880 -0.5784 -1.3829 -2.0746
10626TIP3   OH231810   6.440   2.680   4.901 -0.1814  0.2187  0.3585
10626TIP3    H131811   6.369   2.701   4.839 -1.4527  0.5638  1.9012
10626TIP3    H231812   6.426   2.740   4.974 -0.2928 -1.9823  2.1867
10627TIP3   OH231813   0.449   3.778   3.061 -0.3842  0.3296  0.0482
10627TIP3    H131814   0.540   3.771   3.088 -0.3520  0.1421 -0.1063
10627TIP3    H231815   0.403   3.810   3.139 -0.4121 -0.9352  0.5784
10628TIP3   OH231816   0.720   3.555   5.658 -0.5984  0.2395  0.1940
10628TIP3    H131817   0.810   3.527   5.672 -0.6156 -1.9702 -3.5457
10628TIP3    H231818   0.726   3.623   5.591 -1.7109  0.1006 -0.0561
10629TIP3   OH231819   7.262   3.467   4.763  0.2542  0.0433 -0.0192
10629TIP3    H131820   7.273   3.512   4.679  1.6150  0.5353  0.4036
10629TIP3    H231821   7.351   3.459   4.797 -0.2506 -0.5174  1.1944
10630TIP3   OH231822   4.064   0.378   0.308 -0.1907 -0.4511 -0.1540
10630TIP3    H131823   4.083   0.456   0.256 -1.7232 -1.1815 -1.8868
10630TIP3    H231824   4.076   0.305   0.247 -0.6612 -1.4422  0.9119
10631TIP3   OH231825   6.287   7.794   4.434 -0.3124 -0.5572  0.0815
10631TIP3    H131826   6.206   7.845   4.432  0.3487  0.4953 -0.4444
10631TIP3    H231827   6.274   7.725   4.368 -1.5335 -1.5932  1.3785
10632TIP3   OH231828   7.282   2.659   4.849  0.5574 -0.0498  0.0288
10632TIP3    H131829   7.227   2.735   4.827  0.2249  0.4450  2.4074
10632TIP3    H231830   7.371   2.691   4.840  0.4168  0.7143  1.2467
10633TIP3   OH231831   8.213   5.637   0.189  0.2372  0.4317  0.0866
10633TIP3    H131832   8.233   5.663   0.278 -2.5129  1.7700  0.3509
10633TIP3    H231833   8.200   5.719   0.141 -0.2104 -0.2881 -1.0692
10634TIP3   OH231834   7.951   2.225   6.920  0.1477 -0.5111  0.0059
10634TIP3    H131835   7.867   2.181   6.906  0.0850 -0.3012 -0.2728
10634TIP3    H231836   7.997   2.169   6.984  0.0678 -0.9823 -0.3437
10635TIP3   OH231837   3.920   1.585   0.809 -0.2042 -0.3831  0.0964
10635TIP3    H131838   3.908   1.602   0.715 -0.4465 -1.7677 -0.1363
10635TIP3    H231839   3.900   1.492   0.819  0.4779 -0.3960  1.4215
10636TIP3   OH231840   7.833   5.894   0.461 -0.0756  0.1477 -0.2852
10636TIP3    H131841   7.827   5.810   0.505  0.8473 -0.2321 -0.8812
10636TIP3    H231842   7.770   5.889   0.389  0.8661 -0.4902 -1.0675
10637TIP3   OH231843   6.591   5.879   5.186 -0.2120 -0.1693 -0.3979
10637TIP3    H131844   6.569   5.812   5.251  0.0373  2.3507  2.3661
10637TIP3    H231845   6.652   5.834   5.127 -0.1875 -2.4624  1.2588
10638TIP3   OH231846   0.340   3.091   5.780  0.0395  0.1567 -0.1665
10638TIP3    H131847   0.354   3.000   5.756  2.3272  0.5936 -0.6120
10638TIP3    H231848   0.331   3.091   5.875  0.9633 -0.4331 -0.0766
10639TIP3   OH231849   8.412   2.856   6.141 -0.4237  0.1036  0.0273
10639TIP3    H131850   8.368   2.888   6.063 -0.6179 -1.1838 -0.4124
10639TIP3    H231851   8.350   2.870   6.212 -1.7370 -2.0165 -0.6432
10640TIP3   OH231852   6.105   1.642   4.751  0.1074 -0.4448  0.5666
10640TIP3    H131853   6.011   1.652   4.764 -0.0897 -0.9215 -0.4814
10640TIP3    H231854   6.137   1.609   4.835 -1.1508 -3.3620 -0.0443
10641TIP3   OH231855   6.899   5.823   6.374 -0.3262  0.2638  0.0777
10641TIP3    H131856   6.843   5.884   6.421  1.9345  2.7507 -0.3809
10641TIP3    H231857   6.936   5.767   6.442 -0.4943  0.9818  0.7666
10642TIP3   OH231858   7.041   3.080   5.167 -0.1637 -0.4136  0.1202
10642TIP3    H131859   7.129   3.044   5.154 -0.1865 -0.8170  1.0943
10642TIP3    H231860   6.982   3.011   5.135 -0.1676 -0.7178  0.7800
10643TIP3   OH231861   0.372   4.632   2.745  0.3528  0.4610  0.0551
10643TIP3    H131862   0.446   4.692   2.754  1.5377 -0.6161 -2.0827
10643TIP3    H231863   0.319   4.668   2.674  0.9678 -0.8815 -1.1060
10644TIP3   OH231864   0.181   3.500   5.078  0.3508 -0.2153 -0.3577
10644TIP3    H131865   0.219   3.459   5.156  1.1088 -0.0020 -0.6148
10644TIP3    H231866   0.095   3.530   5.107  0.6285 -0.1336  0.4016
10645TIP3   OH231867   5.643   0.407   0.214  0.6036 -0.0461 -0.1548
10645TIP3    H131868   5.706   0.344   0.176 -1.1113 -0.6469 -2.0683
10645TIP3    H231869   5.580   0.352   0.261  0.8399  0.4816  0.7958
10646TIP3   OH231870   7.020   4.905   6.101 -0.1492 -0.1024  0.8784
10646TIP3    H131871   7.062   4.825   6.070  1.9372  0.7974  1.3253
10646TIP3    H231872   7.081   4.975   6.079 -0.9311  1.1214  2.4506
10647TIP3   OH231873   7.360   4.254   5.801 -0.7187  0.1459  0.2105
10647TIP3    H131874   7.396   4.275   5.715  0.7022  3.1651  1.4553
10647TIP3    H231875   7.412   4.181   5.832 -0.4362 -0.1733 -0.9830
10648TIP3   OH231876   7.967   4.016   4.685 -0.2106 -0.1847  0.1551
10648TIP3    H131877   8.027   4.077   4.643 -2.6323  2.1981 -0.0099
10648TIP3    H231878   7.942   3.955   4.615  0.9940 -0.4013 -0.0973
10649TIP3   OH231879   6.292   4.078   5.853 -0.2731  0.7650 -0.0276
10649TIP3    H131880   6.230   4.128   5.801  0.1402  0.0219 -1.2460
10649TIP3    H231881   6.248   4.066   5.938 -1.3446  1.1549 -0.5251
10650TIP3   OH231882   6.065   3.225   6.495 -0.1853 -0.7245 -0.2611
10650TIP3    H131883   5.985   3.213   6.444 -1.8469 -1.5969  2.4169
10650TIP3    H231884   6.101   3.136   6.503  0.0288 -0.6014  0.1243
10651TIP3   OH231885   0.756   7.530   1.151  0.7206 -0.0806 -0.2524
10651TIP3    H131886   0.824   7.484   1.201  2.8310  1.4438 -1.5930
10651TIP3    H231887   0.793   7.538   1.063 -0.3650  2.4967 -0.5127
10652TIP3   OH231888   6.206   2.715   5.183 -0.3452  0.1064 -0.6067
10652TIP3    H131889   6.159   2.776   5.239 -2.6293 -0.1944 -2.0792
10652TIP3    H231890   6.260   2.770   5.126 -0.4739  0.6005 -0.2482
10653TIP3   OH231891   7.532   5.007   6.152 -0.6854 -0.2260  0.4405
10653TIP3    H131892   7.518   4.958   6.232 -0.8961 -0.9748 -0.0513
10653TIP3    H231893   7.521   4.943   6.082 -0.6482  0.4507 -0.1938
10654TIP3   OH231894   5.744   3.563   5.750 -0.1395  0.1811  0.0371
10654TIP3    H131895   5.818   3.508   5.773 -0.3151  0.1166  0.4617
10654TIP3    H231896   5.722   3.609   5.831  1.4306  2.5679 -0.8530
10655TIP3   OH231897   2.478   6.854   0.224 -0.4316 -0.1857  0.4189
10655TIP3    H131898   2.477   6.940   0.183 -0.6454 -0.1835  0.4268
10655TIP3    H231899   2.392   6.846   0.265 -0.3527 -0.3367  0.5566
10656TIP3   OH231900   7.696   2.528   5.748 -0.3030  0.5865 -0.7333
10656TIP3    H131901   7.613   2.568   5.722 -1.0649  0.4200  1.3581
10656TIP3    H231902   7.675   2.474   5.824  1.8778  1.3406  0.4830
10657TIP3   OH231903   1.575   1.007   0.038  0.2906 -0.2236  0.2536
10657TIP3    H131904   1.511   0.963  -0.017  1.2779 -1.2246 -0.1302
10657TIP3    H231905   1.587   0.949   0.113  0.7769 -0.0754  0.2955
10658TIP3   OH231906   7.430   3.219   4.965  0.1316 -0.5553 -0.8066
10658TIP3    H131907   7.420   3.125   4.954  0.4715 -0.4669 -1.9734
10658TIP3    H231908   7.353   3.246   5.014  1.0900 -1.7426  1.4197
10659TIP3   OH231909   4.269   4.033   5.178  0.2199  0.4021 -0.5611
10659TIP3    H131910   4.236   4.035   5.088 -1.7137 -0.6114  0.1080
10659TIP3    H231911   4.326   3.956   5.181 -0.6367 -0.2309 -0.5957
10660TIP3   OH231912   6.722   4.927   6.180 -0.5999 -0.0539  0.6988
10660TIP3    H131913   6.732   4.888   6.093 -0.2779  0.7713  0.3621
10660TIP3    H231914   6.806   4.912   6.223 -0.5471  0.0801  0.6433
10661TIP3   OH231915   7.574   5.302   4.471 -0.1351  0.5372 -0.6827
10661TIP3    H131916   7.545   5.379   4.421  0.9201  0.1989 -1.8263
10661TIP3    H231917   7.659   5.280   4.434  0.8682  0.5303  1.5687
10662TIP3   OH231918   7.038   1.816   6.444  0.2225  0.4568  0.2185
10662TIP3    H131919   7.002   1.804   6.531  1.2881 -0.0016  0.6010
10662TIP3    H231920   6.965   1.797   6.385 -0.2618 -0.0721  0.9840
10663TIP3   OH231921   7.135   4.281   3.901  0.4769 -0.0568  0.4145
10663TIP3    H131922   7.081   4.222   3.954  1.8647 -0.4582  1.3776
10663TIP3    H231923   7.190   4.222   3.849  1.5063  0.3967  1.0022
10664TIP3   OH231924   5.329   0.191   0.097 -0.7071 -0.2097  0.1613
10664TIP3    H131925   5.329   0.285   0.113 -2.7304 -0.2616  0.6414
10664TIP3    H231926   5.291   0.181   0.010 -4.7324 -0.7510  1.8410
10665TIP3   OH231927   8.435   4.836   4.696 -0.3706  0.0054 -0.8710
10665TIP3    H131928   8.356   4.787   4.674 -0.8518 -0.3008  1.3971
10665TIP3    H231929   8.485   4.840   4.615 -1.8590 -1.4056 -1.8710
10666TIP3   OH231930   5.768   3.643   6.564  0.1560 -0.0809 -0.4892
10666TIP3    H131931   5.862   3.655   6.545 -0.3298  1.2653 -2.1760
10666TIP3    H231932   5.724   3.673   6.485 -1.6644 -2.4084 -0.4189
10667TIP3   OH231933   4.523   3.520   4.797  0.4864 -0.3137  0.5453
10667TIP3    H131934   4.546   3.434   4.761  1.0798  0.7735 -1.8126
10667TIP3    H231935   4.431   3.533   4.772  0.5284 -0.0760  0.5108
10668TIP3   OH231936   5.430   5.614   5.523  0.3693  0.0008 -0.1808
10668TIP3    H131937   5.413   5.670   5.599 -0.7770  0.9370 -1.0974
10668TIP3    H231938   5.363   5.546   5.527  0.1203  0.2248 -0.5163
10669TIP3   OH231939   8.186   3.905   5.462 -0.5886  0.2594 -0.3874
10669TIP3    H131940   8.213   3.913   5.371  0.3632  1.9383  0.0227
10669TIP3    H231941   8.232   3.976   5.507 -1.9277  0.1524  1.1961
10670TIP3   OH231942   4.191   2.563   5.267  0.1047  0.1206 -0.2702
10670TIP3    H131943   4.263   2.500   5.260 -0.8081 -1.0833  1.1050
10670TIP3    H231944   4.234   2.644   5.295  1.1127 -0.2040 -0.8220
10671TIP3   OH231945   5.245   2.667   5.743 -0.1194 -0.6301  0.3014
10671TIP3    H131946   5.202   2.619   5.814 -0.7015 -1.0649 -0.3406
10671TIP3    H231947   5.201   2.751   5.741 -0.1165 -0.6251  0.4425
10672TIP3   OH231948   7.484   3.946   6.571  0.0355 -0.4390  0.6946
10672TIP3    H131949   7.408   3.976   6.522  0.0647  0.5837  1.2547
10672TIP3    H231950   7.468   3.854   6.588 -0.0496 -0.7772 -1.1022
10673TIP3   OH231951   7.249   4.858   5.082  0.2114 -0.3401 -0.5612
10673TIP3    H131952   7.297   4.914   5.143 -1.0308  0.1242  0.0150
10673TIP3    H231953   7.276   4.769   5.104  1.8225 -0.0106 -1.1510
10674TIP3   OH231954   0.859   7.760   0.722  0.5787  0.6500  0.0479
10674TIP3    H131955   0.809   7.714   0.655 -1.4442 -0.7559  2.4259
10674TIP3    H231956   0.803   7.832   0.750  0.2583 -0.3054  1.9914
10675TIP3   OH231957   6.613   2.719   5.945 -0.7272 -0.4225 -0.0824
10675TIP3    H131958   6.674   2.677   6.006  1.7394  0.0325 -2.1821
10675TIP3    H231959   6.546   2.757   6.002  0.9866 -0.8094  2.2900
10676TIP3   OH231960   6.765   2.579   5.756 -0.0180 -0.4532 -0.8182
10676TIP3    H131961   6.710   2.601   5.831  0.6881  0.3627 -0.5373
10676TIP3    H231962   6.845   2.629   5.769  0.4546 -0.9780 -1.6717
10677TIP3   OH231963   5.712   3.881   5.570 -0.2458 -0.3198 -0.4974
10677TIP3    H131964   5.701   3.801   5.518  1.1167  0.0145 -1.3327
10677TIP3    H231965   5.697   3.854   5.660 -0.2692 -1.4246 -0.8294
10678TIP3   OH231966   2.963   0.769   0.268  0.0444 -0.1304 -0.6051
10678TIP3    H131967   3.035   0.733   0.216 -1.6084 -0.8260 -2.4907
10678TIP3    H231968   2.900   0.697   0.275  0.0866  0.0293  2.1677
10679TIP3   OH231969   0.394   1.538   5.464  0.0227  0.2635 -0.2393
10679TIP3    H131970   0.325   1.550   5.399 -1.7901  0.3801  1.6144
10679TIP3    H231971   0.435   1.624   5.472 -0.0892  0.3736 -0.8502
10680TIP3   OH231972   5.872   1.373   3.884 -0.0163 -0.2229  0.2906
10680TIP3    H131973   5.923   1.292   3.889 -1.2269 -1.0733 -1.0013
10680TIP3    H231974   5.785   1.348   3.913 -0.3954  0.6279 -0.1185
10681TIP3   OH231975   5.099   0.473   0.975 -0.2104 -0.2197  0.6933
10681TIP3    H131976   5.052   0.399   1.013 -1.0532 -0.3525 -0.6002
10681TIP3    H231977   5.131   0.523   1.050  1.1027 -2.3526  1.6005
10682TIP3   OH231978   7.055   6.030   0.276 -0.3672 -0.4326  0.0519
10682TIP3    H131979   7.097   6.055   0.358 -2.1333  0.4498  0.7182
10682TIP3    H231980   7.020   6.112   0.241  0.1188 -0.8469 -1.4454
10683TIP3   OH231981   3.544   1.004   1.533 -0.7645 -0.3575 -0.1337
10683TIP3    H131982   3.498   0.944   1.591 -1.4802 -2.3541 -2.6857
10683TIP3    H231983   3.632   0.967   1.526 -1.2071 -1.1388 -1.7124
10684TIP3   OH231984   3.942   1.296   0.974  0.1117 -0.4033  0.2459
10684TIP3    H131985   3.855   1.285   1.013 -0.2720  1.8129  0.1064
10684TIP3    H231986   3.933   1.260   0.886 -1.1969  1.3939 -0.3814
10685TIP3   OH231987   7.136   2.039   4.508  0.0328  0.0991  0.2590
10685TIP3    H131988   7.090   2.107   4.460 -0.2818  0.3987  0.9799
10685TIP3    H231989   7.070   1.970   4.522  0.0287  0.1654  0.5657
10686TIP3   OH231990   6.240   4.343   5.385 -0.2627  0.4412  0.4928
10686TIP3    H131991   6.152   4.377   5.399 -0.2351  0.8293 -0.2350
10686TIP3    H231992   6.233   4.292   5.304  0.6781  2.3505 -0.8369
10687TIP3   OH231993   6.633   3.189   6.708  0.7210  0.0306  0.3396
10687TIP3    H131994   6.728   3.198   6.713  0.5910  0.9412  1.6483
10687TIP3    H231995   6.607   3.161   6.796 -0.2152 -0.3011 -0.0337
10688TIP3   OH231996   0.771   5.286   0.534  0.5375  0.0812  0.0958
10688TIP3    H131997   0.779   5.315   0.443  0.2433  0.8159  0.3013
10688TIP3    H231998   0.678   5.291   0.553  0.6426  0.3057  0.5604
10689TIP3   OH231999   6.173   2.892   5.628 -0.1914 -0.3198  0.2620
10689TIP3    H132000   6.220   2.817   5.665 -1.4748 -2.1719 -1.6748
10689TIP3    H232001   6.175   2.876   5.533 -2.6396  0.7900 -0.0077
10690TIP3   OH232002   0.305   2.449   6.219 -0.7378 -0.2375 -0.1180
10690TIP3    H132003   0.236   2.397   6.177 -0.5118 -1.3555  0.8895
10690TIP3    H232004   0.269   2.473   6.304 -1.0027  1.6368 -0.7303
10691TIP3   OH232005   2.559   0.072   2.445  0.1540 -0.2172 -0.0078
10691TIP3    H132006   2.547   0.045   2.535 -0.0526  1.1920  0.4032
10691TIP3    H232007   2.507   0.010   2.393 -0.5470 -0.4052  0.9191
10692TIP3   OH232008   6.324   1.242   6.745 -0.2067  0.1269 -0.6679
10692TIP3    H132009   6.389   1.171   6.743 -1.3742 -0.9691 -0.0894
10692TIP3    H232010   6.329   1.280   6.658  0.1770 -0.9110 -1.1140
10693TIP3   OH232011   7.370   7.666   1.073 -0.1532 -0.0895 -0.6372
10693TIP3    H132012   7.461   7.639   1.085  0.0892  0.3303 -1.5155
10693TIP3    H232013   7.359   7.673   0.978 -1.0040  0.1906 -0.5235
10694TIP3   OH232014   6.975   2.790   5.825 -0.0309 -0.2881 -0.0874
10694TIP3    H132015   7.055   2.842   5.812  0.2344 -0.6975 -0.1164
10694TIP3    H232016   6.962   2.789   5.919 -0.2284  0.1188 -0.1096
10695TIP3   OH232017   4.791   3.800   4.729  0.5892  0.0411 -0.5162
10695TIP3    H132018   4.715   3.855   4.706 -0.5812 -1.4685 -0.3289
10695TIP3    H232019   4.783   3.723   4.673  0.6296 -1.2481  1.1950
10696TIP3   OH232020   5.773   6.364   4.711 -0.2935  0.5639 -0.3803
10696TIP3    H132021   5.732   6.348   4.796 -0.3988  0.8081 -0.3857
10696TIP3    H232022   5.744   6.290   4.657  1.0192 -0.4179  0.2334
10697TIP3   OH232023   6.311   2.621   6.729 -0.1088 -0.2394 -0.7106
10697TIP3    H132024   6.352   2.707   6.726  0.6644 -0.6180 -1.1112
10697TIP3    H232025   6.223   2.635   6.695 -1.1740  1.0534  2.3526
10698TIP3   OH232026   0.408   6.959   0.266 -0.2049  0.3765 -0.2021
10698TIP3    H132027   0.365   6.878   0.296 -1.8638  1.2303 -0.2422
10698TIP3    H232028   0.389   6.962   0.172 -0.3256  0.9431 -0.1549
10699TIP3   OH232029   4.526   1.954   4.258  0.1515  0.3111 -0.0224
10699TIP3    H132030   4.441   1.983   4.225 -0.2711  0.3198  1.0814
10699TIP3    H232031   4.519   1.960   4.353  0.6851 -1.6367  0.1654
10700TIP3   OH232032   6.239   3.321   6.802 -0.2417 -0.0293 -0.2566
10700TIP3    H132033   6.166   3.279   6.846  0.0843  1.7000  2.0534
10700TIP3    H232034   6.200   3.363   6.725 -1.3466 -0.6130 -0.0235
10701TIP3   OH232035   7.120   4.707   5.775 -0.1691  0.5053  0.0557
10701TIP3    H132036   7.131   4.616   5.747  2.0094  0.6564  0.4049
10701TIP3    H232037   7.083   4.751   5.698 -0.5627 -0.5061 -0.3472
10702TIP3   OH232038   7.477   4.125   4.427  0.2410 -0.2086  0.6740
10702TIP3    H132039   7.480   4.090   4.339  0.5950 -0.7058  0.8788
10702TIP3    H232040   7.454   4.051   4.482  0.3254  0.0273  1.0313
10703TIP3   OH232041   6.897   4.547   4.385  0.0170 -0.0392  0.0610
10703TIP3    H132042   6.961   4.586   4.445 -0.5690 -0.7019  1.1254
10703TIP3    H232043   6.865   4.469   4.430 -1.9496  0.5671 -0.2063
10704TIP3   OH232044   7.657   2.821   6.621 -0.0334  0.2562 -0.4521
10704TIP3    H132045   7.634   2.728   6.618 -0.8147  0.3579  1.7642
10704TIP3    H232046   7.725   2.827   6.688 -0.7821  1.4299  0.2325
10705TIP3   OH232047   7.215   4.350   6.462 -0.3148 -0.0970  0.2076
10705TIP3    H132048   7.193   4.369   6.553  0.1956 -0.0846  0.3305
10705TIP3    H232049   7.211   4.434   6.418  1.0389  0.1655  0.5603
10706TIP3   OH232050   1.127   6.815   0.450  0.1891  0.1862  0.2791
10706TIP3    H132051   1.085   6.792   0.367 -0.3621 -1.1830  0.9209
10706TIP3    H232052   1.065   6.785   0.517  0.3506  1.8165  1.1891
10707TIP3   OH232053   6.963   2.027   5.145  0.4480  0.3287  0.0943
10707TIP3    H132054   6.924   2.113   5.129  1.4941  0.7722 -0.1442
10707TIP3    H232055   6.955   2.013   5.239 -1.0989  0.0028 -0.0695
10708TIP3   OH232056   7.988   6.038   6.603 -0.3334  0.1832  0.3610
10708TIP3    H132057   8.037   5.960   6.577 -1.7203 -0.5040 -0.2561
10708TIP3    H232058   8.003   6.101   6.533 -0.3103 -0.0058  0.1978
10709TIP3   OH232059   4.609   0.693   0.520 -0.2108  0.2571 -0.2677
10709TIP3    H132060   4.659   0.630   0.573 -1.5643  0.7630  1.6434
10709TIP3    H232061   4.522   0.694   0.560 -0.2522  3.2316 -0.3807
10710TIP3   OH232062   4.822   0.014   1.640 -0.9657 -0.4435  0.1386
10710TIP3    H132063   4.909  -0.006   1.606 -1.8244 -1.8425 -1.3048
10710TIP3    H232064   4.803   0.102   1.607 -0.8456 -0.8781 -1.1301
10711TIP3   OH232065   7.703   2.546   4.808 -0.2687  0.0911  0.3412
10711TIP3    H132066   7.780   2.538   4.752 -0.4656 -1.6323  0.3062
10711TIP3    H232067   7.730   2.507   4.891 -1.3274 -1.1678  0.1045
10712TIP3   OH232068   7.701   5.000   4.808  0.0932 -0.2104 -1.1614
10712TIP3    H132069   7.678   4.982   4.900  0.6837  1.1554 -0.7290
10712TIP3    H232070   7.621   4.979   4.759 -0.3772 -0.5204 -0.2778
10713TIP3   OH232071   5.875   5.702   5.100  0.2448  0.3779  0.3871
10713TIP3    H132072   5.851   5.779   5.050 -0.3671 -0.6079 -0.8485
10713TIP3    H232073   5.794   5.673   5.141  0.7116  1.0990  1.8673
10714TIP3   OH232074   7.107   4.345   4.967 -0.2766  0.1868 -0.3172
10714TIP3    H132075   7.071   4.351   5.055 -0.7854  2.1748 -0.6394
10714TIP3    H232076   7.031   4.342   4.909  0.0577 -0.4584 -0.7455
10715TIP3   OH232077   4.760   3.364   5.573  0.0980 -0.4637  0.1974
10715TIP3    H132078   4.698   3.357   5.646  2.6130  0.7481  2.5446
10715TIP3    H232079   4.823   3.430   5.602  0.7795  0.5479 -3.4106
10716TIP3   OH232080   5.074   3.968   6.255  0.4200  0.6292 -0.2706
10716TIP3    H132081   4.982   3.950   6.275  1.0503 -1.8477  0.5525
10716TIP3    H232082   5.094   3.910   6.182  1.1674  1.6411 -0.8738
10717TIP3   OH232083   6.766   2.243   2.823 -0.2060 -0.2883 -0.1373
10717TIP3    H132084   6.769   2.254   2.728 -1.9010  1.8984 -0.0006
10717TIP3    H232085   6.858   2.243   2.851  0.2442  2.4752 -1.4686
10718TIP3   OH232086   6.049   3.771   5.603  0.2776 -0.3414  0.0513
10718TIP3    H132087   6.143   3.784   5.604  0.3402 -0.7712 -0.3697
10718TIP3    H232088   6.020   3.796   5.691  0.9916 -1.8255  0.7135
10719TIP3   OH232089   4.910   4.551   5.593 -0.6870 -0.0450  0.4144
10719TIP3    H132090   4.891   4.474   5.540 -0.5855  0.1380  0.1068
10719TIP3    H232091   4.844   4.615   5.568  0.8518  0.9286 -1.3589
10720TIP3   OH232092   6.518   4.274   5.544 -0.4864 -0.2333 -0.1600
10720TIP3    H132093   6.465   4.351   5.524 -1.1974 -0.7635 -0.3392
10720TIP3    H232094   6.526   4.275   5.640 -1.3302 -0.4812 -0.0840
10721TIP3   OH232095   6.999   3.934   4.905  0.3399 -0.0268  0.0233
10721TIP3    H132096   7.018   3.894   4.821 -1.2270 -0.0778 -0.3142
10721TIP3    H232097   6.903   3.937   4.910  0.4167  0.9431  1.3341
10722TIP3   OH232098   4.546   3.742   6.917  0.2298 -0.0356 -0.3223
10722TIP3    H132099   4.627   3.771   6.875 -0.6156  1.5507 -0.8981
10722TIP3    H232100   4.558   3.764   7.010  0.7392 -0.4533 -0.2861
10723TIP3   OH232101   5.542   6.082   4.763  0.4821 -0.0684  0.0448
10723TIP3    H132102   5.492   6.000   4.771 -1.4454  0.9092 -1.4208
10723TIP3    H232103   5.525   6.111   4.674  0.6262  2.2503  0.7415
10724TIP3   OH232104   7.271   8.004   1.331 -0.2194  0.4430 -0.0436
10724TIP3    H132105   7.240   7.927   1.283 -1.0346  0.1846  0.8824
10724TIP3    H232106   7.274   7.975   1.423  0.1298  1.3028  0.2168
10725TIP3   OH232107   8.324   4.343   5.437  0.0043  0.0864 -0.3655
10725TIP3    H132108   8.241   4.299   5.418  0.2759  0.1012 -1.6552
10725TIP3    H232109   8.371   4.282   5.494 -0.4689 -0.3999 -0.4929
10726TIP3   OH232110   8.028   7.583   0.035  0.2591 -0.1700  0.1022
10726TIP3    H132111   7.993   7.495   0.032 -0.2476 -0.0314  1.3879
10726TIP3    H232112   7.976   7.633  -0.028  0.5025 -0.7730 -0.5724
10727TIP3   OH232113   7.572   2.179   6.268 -0.6624  0.8194 -0.0117
10727TIP3    H132114   7.556   2.143   6.181  0.2367 -0.3799  0.3027
10727TIP3    H232115   7.486   2.184   6.310 -0.6401 -2.4897  0.5169
10728TIP3   OH232116   4.853   2.358   5.766  0.0700  0.1393  0.2957
10728TIP3    H132117   4.828   2.383   5.855 -1.6179 -0.6449  0.0608
10728TIP3    H232118   4.948   2.351   5.769  0.2431  2.4804  1.4180
10729TIP3   OH232119   2.883   1.009   0.827  0.0378 -0.6097 -0.0195
10729TIP3    H132120   2.874   1.054   0.743  0.7354  0.9797  0.7243
10729TIP3    H232121   2.808   0.950   0.831 -1.1291  0.7818 -0.8497
10730TIP3   OH232122   2.741   5.361   0.475  0.2373 -0.1052 -0.2389
10730TIP3    H132123   2.791   5.296   0.426 -1.0416 -0.5125 -1.0381
10730TIP3    H232124   2.720   5.319   0.558  0.0441 -0.4499 -0.4615
10731TIP3   OH232125   7.036   3.349   5.796  0.3209  0.2525  0.3345
10731TIP3    H132126   6.962   3.344   5.857  0.7803  0.8584  0.9485
10731TIP3    H232127   7.052   3.259   5.769 -1.4076  0.2357 -0.7215
10732TIP3   OH232128   6.045   2.423   6.334 -0.3885 -0.1967 -0.3690
10732TIP3    H132129   6.120   2.449   6.280 -0.1390 -0.2459 -0.0447
10732TIP3    H232130   5.998   2.359   6.280 -0.1567 -0.2226 -0.5430
10733TIP3   OH232131   6.149   1.505   4.073  0.7139 -0.0793 -0.2579
10733TIP3    H132132   6.071   1.543   4.031  0.0863 -1.1078 -0.0490
10733TIP3    H232133   6.220   1.563   4.049  0.4548 -0.8945 -3.1694
10734TIP3   OH232134   3.086   0.008   0.488 -0.4149  0.4323  0.5037
10734TIP3    H132135   3.024   0.081   0.480  0.1413  0.9147  0.5277
10734TIP3    H232136   3.122  -0.003   0.401 -1.4901 -0.7236  0.1793
10735TIP3   OH232137   7.235   1.148   5.064  0.0217 -0.3106 -0.3042
10735TIP3    H132138   7.318   1.194   5.052  0.3463 -0.1040  2.4863
10735TIP3    H232139   7.253   1.081   5.129 -2.4997  1.2555  2.1149
10736TIP3   OH232140   7.180   3.170   4.764 -0.2802  0.3844 -0.5495
10736TIP3    H132141   7.239   3.246   4.769  1.0886 -0.6951  0.0203
10736TIP3    H232142   7.099   3.199   4.806  1.7046  0.1658  3.6638
10737TIP3   OH232143   6.161   2.955   6.518 -0.0173 -0.2219 -0.2728
10737TIP3    H132144   6.122   2.869   6.502  0.3081 -0.2191 -1.1209
10737TIP3    H232145   6.253   2.944   6.492 -0.1279  0.5628 -1.0047
10738TIP3   OH232146   8.323   4.698   5.657 -0.6548  0.0414  0.0535
10738TIP3    H132147   8.282   4.633   5.713 -1.3066  0.7381  0.3974
10738TIP3    H232148   8.373   4.753   5.718  1.8789 -1.5808 -0.4950
10739TIP3   OH232149   7.010   4.385   5.219 -0.3326  0.2324  0.4888
10739TIP3    H132150   6.919   4.395   5.248 -0.1898  0.8801  0.7240
10739TIP3    H232151   7.061   4.402   5.298  0.0291  1.0124  0.0868
10740TIP3   OH232152   0.358   7.336   0.757  0.2738 -0.9408 -0.0941
10740TIP3    H132153   0.305   7.285   0.818  0.1172  1.3424  1.7776
10740TIP3    H232154   0.448   7.308   0.773  0.0199 -1.8872 -0.3403
10741TIP3   OH232155   8.038   3.447   6.498  0.5169  0.2795  0.6521
10741TIP3    H132156   8.060   3.427   6.589  0.0816  0.6723  0.8451
10741TIP3    H232157   8.121   3.479   6.460  0.5841  0.5788  1.0429
10742TIP3   OH232158   4.151   3.460   4.012  0.5723  0.1428 -0.0236
10742TIP3    H132159   4.203   3.500   3.942 -1.4359 -1.2307 -2.3972
10742TIP3    H232160   4.076   3.518   4.022  0.9647  0.4547  1.1909
10743TIP3   OH232161   5.822   1.212   4.572  0.2438 -0.0702  0.0911
10743TIP3    H132162   5.790   1.209   4.662  0.1586 -2.1423  0.0136
10743TIP3    H232163   5.815   1.121   4.541  0.3949  0.5946 -1.9569
10744TIP3   OH232164   5.040   1.284   5.521  0.0091  0.2879  0.0114
10744TIP3    H132165   5.107   1.334   5.566  1.3579 -1.1679 -0.3462
10744TIP3    H232166   4.997   1.234   5.590  1.4815 -1.2621 -0.1660
10745TIP3   OH232167   7.799   7.390   0.368  0.0373  0.2777 -0.4265
10745TIP3    H132168   7.711   7.380   0.332  0.6071  1.0272 -2.1106
10745TIP3    H232169   7.844   7.309   0.343  0.9917  1.5680 -3.1820
10746TIP3   OH232170   0.082   7.100   0.107  0.3875  0.1049  0.7839
10746TIP3    H132171   0.024   7.024   0.097 -0.5357  0.6158  2.1285
10746TIP3    H232172   0.170   7.065   0.092 -0.2479 -0.6911 -1.1973
10747TIP3   OH232173   6.515   1.980   5.332 -0.2278 -0.0050 -0.5835
10747TIP3    H132174   6.468   2.037   5.270  2.9287  1.9804 -1.2960
10747TIP3    H232175   6.527   1.898   5.285  1.5682  1.2673 -2.4829
10748TIP3   OH232176   4.792   0.294   0.296 -0.2349 -0.7202  0.2191
10748TIP3    H132177   4.880   0.321   0.319 -0.1349 -1.8513  1.2038
10748TIP3    H232178   4.779   0.327   0.207  0.4066  1.2562  0.8272
10749TIP3   OH232179   5.893   4.494   5.166  0.1442 -0.0268  0.5087
10749TIP3    H132180   5.840   4.501   5.087  0.2766  0.5101  0.4639
10749TIP3    H232181   5.982   4.512   5.137  0.4062 -1.2830  0.5180
10750TIP3   OH232182   1.512   2.343   1.831 -0.2987 -0.2742 -0.4397
10750TIP3    H132183   1.491   2.253   1.855  1.8880 -0.9171 -0.8260
10750TIP3    H232184   1.576   2.371   1.896 -1.5358  1.2855  0.1391
10751TIP3   OH232185   6.817   3.605   4.973 -0.2603  0.0628  0.3319
10751TIP3    H132186   6.853   3.579   5.058 -1.9300  0.4752  1.1762
10751TIP3    H232187   6.893   3.605   4.914  1.1546  1.0334  2.1017
10752TIP3   OH232188   5.167   4.873   6.197 -0.6718 -0.0593 -0.4966
10752TIP3    H132189   5.221   4.802   6.232  0.2687 -0.1278 -2.0271
10752TIP3    H232190   5.077   4.848   6.221 -0.1832 -0.7532  0.6937
10753TIP3   OH232191   5.310   4.668   6.065 -0.1607 -0.0096 -0.0001
10753TIP3    H132192   5.405   4.672   6.058 -0.2349 -0.2442 -1.2643
10753TIP3    H232193   5.292   4.581   6.101  0.0862 -0.1693 -0.2571
10754TIP3   OH232194   5.082   3.008   6.519 -0.1774 -0.6815  0.0383
10754TIP3    H132195   5.158   2.993   6.464 -1.1015  0.7445 -1.6764
10754TIP3    H232196   5.012   3.032   6.458 -1.6594 -0.6789  1.6872
10755TIP3   OH232197   3.514   0.791   1.766 -0.1120 -0.0762  0.0056
10755TIP3    H132198   3.424   0.776   1.796  0.1507 -2.5989 -0.3705
10755TIP3    H232199   3.562   0.812   1.846 -0.7580 -0.1087  0.4101
10756TIP3   OH232200   6.379   2.899   5.050  0.1300  0.1666  0.3621
10756TIP3    H132201   6.463   2.943   5.065  0.3949 -1.0290  2.5962
10756TIP3    H232202   6.329   2.961   4.997  1.6363  1.8350  0.8320
10757TIP3   OH232203   5.984   4.450   5.437  0.3853 -0.3223  0.2081
10757TIP3    H132204   5.917   4.406   5.489 -0.4018  0.2299 -0.3284
10757TIP3    H232205   5.942   4.467   5.353  1.1345  0.2176 -0.0684
10758TIP3   OH232206   6.179   4.553   5.123 -0.3135  0.2041 -0.2633
10758TIP3    H132207   6.233   4.612   5.176 -1.5011  1.1726 -0.1113
10758TIP3    H232208   6.223   4.468   5.128 -0.5897  0.2055  2.5505
10759TIP3   OH232209   8.352   2.802   6.756  0.2103 -0.1265 -0.2800
10759TIP3    H132210   8.414   2.734   6.728  1.1284  1.0370 -1.0711
10759TIP3    H232211   8.321   2.771   6.842  1.5811 -0.9040 -0.0543
10760TIP3   OH232212   0.461   3.485   2.929  0.3305  0.0606  0.2491
10760TIP3    H132213   0.462   3.568   2.978 -1.7835 -0.0853  0.5940
10760TIP3    H232214   0.369   3.460   2.928  0.9998 -2.4749  0.4345
10761TIP3   OH232215   8.260   3.413   6.129  0.1311  0.6171 -0.4542
10761TIP3    H132216   8.193   3.376   6.072 -0.1904 -2.4567  1.7779
10761TIP3    H232217   8.335   3.354   6.118  1.6695  2.6321 -1.0957
10762TIP3   OH232218   4.862   1.643   5.620 -0.0314 -0.4535 -0.0328
10762TIP3    H132219   4.772   1.674   5.607  0.3241 -0.7157 -3.5331
10762TIP3    H232220   4.853   1.553   5.652 -0.9975 -0.4228 -0.2166
10763TIP3   OH232221   4.248   5.451   4.845 -0.4174 -0.1354  0.1018
10763TIP3    H132222   4.175   5.481   4.792 -0.6263  0.6511  0.8188
10763TIP3    H232223   4.222   5.471   4.935  1.6898  2.3979  0.2195
10764TIP3   OH232224   4.410   1.209   0.944 -0.1138 -0.3142 -0.0044
10764TIP3    H132225   4.468   1.221   0.869 -0.6986  1.4705 -0.2011
10764TIP3    H232226   4.405   1.114   0.956 -1.0797 -0.6953 -3.0611
10765TIP3   OH232227   7.896   3.391   5.530 -0.4429  0.1955 -0.6988
10765TIP3    H132228   7.957   3.465   5.532 -1.7884  1.2777  1.7583
10765TIP3    H232229   7.846   3.404   5.449  0.2389  1.2231 -0.9616
10766TIP3   OH232230   1.068   2.123   6.134 -0.2061  0.3796 -0.4138
10766TIP3    H132231   0.982   2.101   6.169 -0.7532  1.4387 -1.0862
10766TIP3    H232232   1.078   2.216   6.152  0.8990  0.2215 -0.1465
10767TIP3   OH232233   3.908   6.007   0.618  0.0690  0.2301 -0.0548
10767TIP3    H132234   3.851   6.084   0.617  0.6937  0.6910 -0.5466
10767TIP3    H232235   3.965   6.018   0.541  0.1987 -0.6940 -0.1028
10768TIP3   OH232236   7.491   7.597   3.987  0.0818  0.1464 -0.3992
10768TIP3    H132237   7.532   7.661   3.929 -0.8089  0.3031 -0.8618
10768TIP3    H232238   7.547   7.519   3.980  0.2213  0.3075 -1.1362
10769TIP3   OH232239   5.570   2.882   0.772  0.2687 -0.6620  0.0170
10769TIP3    H132240   5.589   2.795   0.735  1.8008 -1.6301  2.8470
10769TIP3    H232241   5.510   2.864   0.845  0.7565  0.6141  0.7503
10770TIP3   OH232242   1.523   7.340   0.423 -0.2449 -0.2762  0.2125
10770TIP3    H132243   1.612   7.343   0.459 -1.1202  0.5461  2.3953
10770TIP3    H232244   1.528   7.277   0.352  1.9564 -0.7038  0.7057
10771TIP3   OH232245   5.715   2.278   6.601  0.2680  0.4095 -0.2313
10771TIP3    H132246   5.722   2.343   6.531 -0.0558  0.7046  0.0070
10771TIP3    H232247   5.622   2.259   6.606  0.4233 -0.5282 -0.7074
10772TIP3   OH232248   6.606   2.244   6.235 -0.4053  0.1068  0.4070
10772TIP3    H132249   6.540   2.260   6.168 -0.3992  0.5089  0.4959
10772TIP3    H232250   6.641   2.157   6.215 -1.1413 -0.2165  0.5070
10773TIP3   OH232251   1.142   2.866   6.250 -0.1093 -0.0858  0.4125
10773TIP3    H132252   1.186   2.781   6.259  0.3795  0.2478  1.2506
10773TIP3    H232253   1.070   2.849   6.190  0.8940 -0.7541 -0.6241
10774TIP3   OH232254   6.253   3.787   6.887  0.3574  0.1584  0.7984
10774TIP3    H132255   6.194   3.768   6.961 -1.1179 -0.7294 -0.5869
10774TIP3    H232256   6.333   3.739   6.907 -1.1682 -2.6903  0.3007
10775TIP3   OH232257   6.761   3.190   3.523 -0.1949 -0.2720  0.3224
10775TIP3    H132258   6.822   3.125   3.558  0.4809 -0.0329 -0.3812
10775TIP3    H232259   6.767   3.264   3.582 -1.1256 -0.9271  1.2470
10776TIP3   OH232260   3.895   2.852   5.925  0.6282  0.2936  0.4476
10776TIP3    H132261   3.829   2.889   5.866  0.3992 -1.1531 -0.2459
10776TIP3    H232262   3.889   2.904   6.005  0.9438  2.2973 -0.8113
10777TIP3   OH232263   7.760   4.445   3.936  0.2946 -0.2388  0.1314
10777TIP3    H132264   7.754   4.377   4.003 -1.2257 -0.1923  0.0695
10777TIP3    H232265   7.839   4.424   3.887  1.5014 -0.1963  2.0220
10778TIP3   OH232266   7.084   3.822   5.550 -0.1888 -0.3143 -0.2088
10778TIP3    H132267   7.132   3.900   5.579 -0.3794 -0.0966 -0.4836
10778TIP3    H232268   7.128   3.749   5.595 -1.4008  0.1481  1.8341
10779TIP3   OH232269   7.958   3.353   5.144 -0.0727  0.4085  0.0786
10779TIP3    H132270   8.018   3.415   5.101  0.7042 -0.7302 -0.5170
10779TIP3    H232271   8.015   3.283   5.174 -0.7800  0.6041  1.9145
10780TIP3   OH232272   5.355   1.381   1.605  0.1740  0.1698 -0.1636
10780TIP3    H132273   5.388   1.429   1.529  1.0136  0.9521  0.6761
10780TIP3    H232274   5.307   1.307   1.568 -0.5389  1.2692 -1.4640
10781TIP3   OH232275   5.843   4.260   6.830  0.1830  0.2558  0.1487
10781TIP3    H132276   5.851   4.275   6.736 -1.2825  0.7570  0.0891
10781TIP3    H232277   5.819   4.345   6.866 -1.8587 -0.5122  0.6458
10782TIP3   OH232278   1.078   3.355   5.856  0.5688 -0.0419 -0.0554
10782TIP3    H132279   1.058   3.374   5.948  1.8408 -0.2248  0.2667
10782TIP3    H232280   1.042   3.268   5.841 -2.4296  1.2481 -0.6257
10783TIP3   OH232281   6.760   3.690   6.154 -0.0391 -0.6706 -0.0903
10783TIP3    H132282   6.672   3.728   6.158 -0.4351 -1.6962  1.3161
10783TIP3    H232283   6.746   3.598   6.131  0.6581 -0.8714  0.2706
10784TIP3   OH232284   8.160   4.816   4.234  0.2360 -0.4589 -0.2824
10784TIP3    H132285   8.207   4.895   4.259  1.2422 -1.1357 -0.0013
10784TIP3    H232286   8.070   4.831   4.264  0.6170  0.2264  0.5285
10785TIP3   OH232287   7.064   4.689   4.204  0.0977  0.4456  0.0597
10785TIP3    H132288   7.121   4.614   4.187 -0.0259  0.1648  0.8742
10785TIP3    H232289   7.054   4.691   4.299  0.6561  1.9159  0.0903
10786TIP3   OH232290   7.839   2.307   4.565  0.3994 -0.3822  0.1876
10786TIP3    H132291   7.892   2.351   4.632  0.4958 -0.3947  0.1187
10786TIP3    H232292   7.792   2.378   4.522  1.8461 -0.1633 -1.0769
10787TIP3   OH232293   7.020   2.756   5.318 -0.4551 -0.2807  0.3211
10787TIP3    H132294   7.048   2.687   5.259  0.7806  1.2767 -0.9457
10787TIP3    H232295   6.960   2.810   5.266  1.8384  1.9948 -0.0586
10788TIP3   OH232296   8.009   7.894   0.306  0.2828 -0.3856 -0.2355
10788TIP3    H132297   8.037   7.928   0.221  1.2965 -1.6779 -0.4327
10788TIP3    H232298   8.083   7.842   0.336 -0.0559  0.1004  1.4767
10789TIP3   OH232299   4.389   1.450   1.292  0.2499 -0.1019  0.0308
10789TIP3    H132300   4.306   1.426   1.250 -0.4749 -0.8687  1.8549
10789TIP3    H232301   4.448   1.378   1.270  0.1017 -0.1260 -0.2956
10790TIP3   OH232302   6.657   3.862   6.821  0.0218 -0.0305 -0.4865
10790TIP3    H132303   6.702   3.778   6.823  0.5051  0.2334 -0.3167
10790TIP3    H232304   6.596   3.859   6.895 -0.5652 -0.5619 -0.9846
10791TIP3   OH232305   7.365   3.120   6.073  0.2441  0.4616 -0.0823
10791TIP3    H132306   7.369   3.203   6.121 -0.9427 -0.2760  1.3216
10791TIP3    H232307   7.275   3.114   6.041  0.6370  0.2551 -1.1756
10792TIP3   OH232308   2.603   1.421   4.261 -0.0566 -0.1665  0.4492
10792TIP3    H132309   2.642   1.432   4.348  1.3406 -1.0834 -0.0400
10792TIP3    H232310   2.677   1.395   4.205 -0.7355  1.4059 -1.2354
10793TIP3   OH232311   8.183   2.530   4.569  0.4203 -0.4925  0.2493
10793TIP3    H132312   8.137   2.569   4.494  0.5314 -1.2683 -0.2262
10793TIP3    H232313   8.118   2.473   4.609  0.8009 -1.1882 -0.1131
10794TIP3   OH232314   7.643   2.003   4.410  0.1630  0.4072 -0.2827
10794TIP3    H132315   7.588   2.027   4.485  1.3981 -0.1279  0.8028
10794TIP3    H232316   7.703   2.077   4.399  0.7052  0.0020 -0.0563
10795TIP3   OH232317   1.547   6.659   0.421  0.3790 -0.4464  0.4487
10795TIP3    H132318   1.637   6.665   0.453  1.1260 -4.2258 -0.7911
10795TIP3    H232319   1.500   6.613   0.490 -0.2879  0.1332  0.3942
10796TIP3   OH232320   8.304   2.430   5.670  0.0709  0.3990 -0.4133
10796TIP3    H132321   8.340   2.508   5.626 -1.1082  1.9986  1.3526
10796TIP3    H232322   8.221   2.461   5.708  1.0634 -0.8844  2.9458
10797TIP3   OH232323   7.518   3.439   5.116 -0.4897  0.4543 -1.2609
10797TIP3    H132324   7.523   3.349   5.082 -1.5559  0.8358 -2.4960
10797TIP3    H232325   7.479   3.489   5.044  0.0455  1.9001 -0.5570
10798TIP3   OH232326   0.601   7.419   0.123 -0.0040 -0.2513 -0.1084
10798TIP3    H132327   0.591   7.422   0.028  1.0166 -0.8812 -0.2392
10798TIP3    H232328   0.517   7.385   0.155 -0.1940 -0.4443 -0.8118
10799TIP3   OH232329   0.180   1.988   5.700  0.5181 -0.5992  0.2772
10799TIP3    H132330   0.271   2.017   5.713  0.9423 -2.1781  0.9847
10799TIP3    H232331   0.127   2.062   5.730  1.5687  0.3334 -0.1245
10800TIP3   OH232332   8.395   1.265   5.522  0.1524 -0.1410  0.1051
10800TIP3    H132333   8.448   1.344   5.512 -1.9836  1.2638 -0.3564
10800TIP3    H232334   8.452   1.194   5.492  1.6868  1.3575 -0.5793
10801TIP3   OH232335   7.321   0.496   6.227  0.0781  0.1369  0.4455
10801TIP3    H132336   7.242   0.495   6.173 -0.2232  0.8173  0.8668
10801TIP3    H232337   7.323   0.410   6.269  0.1086 -0.2480 -0.3565
10802TIP3   OH232338   6.063   4.437   6.122 -0.0246 -0.0646 -0.3785
10802TIP3    H132339   6.025   4.476   6.201 -1.5020 -0.5588 -0.8328
10802TIP3    H232340   6.144   4.486   6.108 -1.4337  2.3223 -0.4861
10803TIP3   OH232341   0.151   1.128   4.467  0.3912 -0.1883 -0.2334
10803TIP3    H132342   0.243   1.119   4.440 -0.1468 -0.8857 -1.8875
10803TIP3    H232343   0.128   1.218   4.446  0.4838 -0.2242 -0.4888
10804TIP3   OH232344   3.358   2.800   1.598  1.0032  0.4083 -0.2725
10804TIP3    H132345   3.404   2.776   1.679  1.3067  0.3801 -0.4527
10804TIP3    H232346   3.427   2.835   1.541  0.7229  0.8174 -0.3654
10805TIP3   OH232347   7.096   5.672   5.267 -0.1437 -0.6774  0.7709
10805TIP3    H132348   7.022   5.732   5.257  0.4006 -0.4167 -2.3390
10805TIP3    H232349   7.169   5.728   5.295  0.5495  0.3733 -2.8180
10806TIP3   OH232350   1.786   1.132   1.852  0.0304  0.0160  0.1327
10806TIP3    H132351   1.763   1.158   1.941  1.1368  0.1251  0.4003
10806TIP3    H232352   1.707   1.146   1.801 -0.5608  0.1222  1.0679
10807TIP3   OH232353   4.260   6.110   4.211  0.2677 -0.5218 -0.8732
10807TIP3    H132354   4.241   6.020   4.237  1.3615 -0.7544 -0.8555
10807TIP3    H232355   4.187   6.134   4.153 -0.2525 -1.2665 -0.5331
10808TIP3   OH232356   1.365   5.305   6.607 -0.6726 -0.2799 -0.1835
10808TIP3    H132357   1.401   5.221   6.577  0.1750  0.1188 -0.2911
10808TIP3    H232358   1.406   5.321   6.691 -0.6937  0.1229 -0.2476
10809TIP3   OH232359   6.824   3.217   5.278  0.4653  0.4714 -0.3408
10809TIP3    H132360   6.887   3.169   5.225 -0.6994 -0.5530 -0.8236
10809TIP3    H232361   6.856   3.209   5.368  1.3657  0.5090 -0.6609
10810TIP3   OH232362   2.122   0.728   0.701 -0.3004  0.5722 -0.2917
10810TIP3    H132363   2.067   0.804   0.682 -1.5120 -0.4262 -0.8652
10810TIP3    H232364   2.061   0.654   0.697  0.6867 -0.3183  1.1967
10811TIP3   OH232365   7.965   4.584   5.869 -0.2366  0.5761 -0.2337
10811TIP3    H132366   8.044   4.626   5.903 -0.0561 -0.1485  0.2414
10811TIP3    H232367   7.906   4.580   5.945  0.6863 -2.3263  0.3592
10812TIP3   OH232368   8.144   3.521   5.540 -0.0556  0.4790  0.6901
10812TIP3    H132369   8.155   3.427   5.533  0.9478  0.7748 -2.0882
10812TIP3    H232370   8.230   3.558   5.519 -1.2420  2.1157 -1.5168
10813TIP3   OH232371   0.872   7.459   0.153 -0.3792 -0.2079  0.5837
10813TIP3    H132372   0.780   7.434   0.142  0.3017 -3.2468  1.5000
10813TIP3    H232373   0.869   7.529   0.218 -2.0897  0.1285  0.1883
10814TIP3   OH232374   4.943   4.390   6.446 -0.1362  0.4251  0.1886
10814TIP3    H132375   4.908   4.375   6.358  0.1219 -0.7886  0.2735
10814TIP3    H232376   4.982   4.477   6.443 -1.6485  1.0981 -0.4040
10815TIP3   OH232377   0.504   2.584   5.922 -0.6085  0.2152 -0.6242
10815TIP3    H132378   0.528   2.569   6.014 -1.3507 -1.6826 -0.7160
10815TIP3    H232379   0.452   2.507   5.898  2.3810 -1.0068 -3.6271
10816TIP3   OH232380   6.686   4.175   4.726 -0.1493  0.4428 -0.1007
10816TIP3    H132381   6.657   4.086   4.741 -0.3693  0.3263 -1.1733
10816TIP3    H232382   6.638   4.228   4.790  1.5683 -0.4532  1.9933
10817TIP3   OH232383   6.887   4.936   6.911  0.4890  0.2314  0.5062
10817TIP3    H132384   6.872   5.027   6.887  0.6874  0.1004 -0.1342
10817TIP3    H232385   6.914   4.938   7.002 -4.4183  0.4336  2.1097
10818TIP3   OH232386   6.346   1.161   5.091 -0.1928 -0.0060  0.7770
10818TIP3    H132387   6.359   1.068   5.070  0.1031  0.5182 -1.5016
10818TIP3    H232388   6.263   1.184   5.048 -0.6589  0.6118  1.9783
10819TIP3   OH232389   6.400   1.129   5.577 -0.0990 -0.5095  0.0946
10819TIP3    H132390   6.478   1.179   5.602 -0.4060  0.1348 -0.2023
10819TIP3    H232391   6.413   1.043   5.616  1.0546 -0.6021 -0.4622
10820TIP3   OH232392   5.985   2.298   6.120 -0.6162 -0.5240 -0.3989
10820TIP3    H132393   5.943   2.213   6.108  0.3854 -0.9771 -0.8066
10820TIP3    H232394   6.023   2.318   6.034  0.7231 -0.5484  0.1651
10821TIP3   OH232395   0.478   3.919   5.136  0.1819  0.0253 -0.1222
10821TIP3    H132396   0.414   3.887   5.200 -1.1667  0.5359 -1.2042
10821TIP3    H232397   0.525   3.988   5.182 -0.3427 -0.0515  0.5393
10822TIP3   OH232398   6.452   2.523   3.944  0.1873  0.0738 -0.1054
10822TIP3    H132399   6.429   2.606   3.984 -0.7159  0.3189 -1.1347
10822TIP3    H232400   6.510   2.545   3.872 -0.4169 -0.1452 -0.6660
10823TIP3   OH232401   5.535   0.846   4.374 -0.1770  0.3570 -0.3482
10823TIP3    H132402   5.566   0.848   4.284  1.1284 -0.8890  0.0509
10823TIP3    H232403   5.606   0.886   4.425  0.5262 -1.9008  0.4984
10824TIP3   OH232404   7.749   2.367   6.330  0.2773 -0.0371 -0.6234
10824TIP3    H132405   7.673   2.320   6.297 -0.0886  0.2771 -0.2328
10824TIP3    H232406   7.805   2.299   6.369  0.1355 -0.2492 -0.7950
10825TIP3   OH232407   6.658   3.181   5.933  0.3702  0.3009  0.6883
10825TIP3    H132408   6.637   3.135   6.014  3.4101 -1.5557  0.5151
10825TIP3    H232409   6.656   3.113   5.865  1.1314  1.1698 -0.2292
10826TIP3   OH232410   4.901   2.033   6.146  0.1844  0.1558  0.0455
10826TIP3    H132411   4.972   1.974   6.171 -0.9011 -2.1037 -2.0657
10826TIP3    H232412   4.831   2.014   6.208 -0.1641 -0.7820 -0.6313
10827TIP3   OH232413   5.913   3.176   6.276  0.1795 -0.1818 -0.3177
10827TIP3    H132414   5.967   3.207   6.202 -1.0195  2.9788  0.0614
10827TIP3    H232415   5.852   3.114   6.236  0.3458  0.5639 -1.7782
10828TIP3   OH232416   8.056   6.418   6.536  0.1819  0.0348 -0.0034
10828TIP3    H132417   8.132   6.385   6.583  0.0485 -1.3107 -0.7056
10828TIP3    H232418   7.991   6.437   6.604 -0.5735 -3.3563  0.2980
10829TIP3   OH232419   6.948   3.117   6.355 -0.5787  0.3780 -0.5184
10829TIP3    H132420   6.871   3.101   6.409 -0.5083  1.8580  0.0444
10829TIP3    H232421   7.013   3.152   6.416 -0.4582  1.9701 -1.5457
10830TIP3   OH232422   6.888   3.166   5.602  0.2119  0.0931  0.1201
10830TIP3    H132423   6.810   3.139   5.650  1.4522 -3.2408  0.4188
10830TIP3    H232424   6.961   3.123   5.648  1.8269  0.1393 -2.2957
10831TIP3   OH232425   5.806   1.555   6.825 -0.0696 -0.0539 -0.6658
10831TIP3    H132426   5.722   1.531   6.864 -0.1902 -0.0293 -0.9116
10831TIP3    H232427   5.789   1.638   6.780  0.1381  0.0574 -0.5392
10832TIP3   OH232428   7.063   2.560   5.515 -0.0142 -0.0145 -0.4984
10832TIP3    H132429   6.988   2.502   5.504 -0.6514  0.3772  1.5572
10832TIP3    H232430   7.033   2.644   5.481 -0.4247  0.0820  0.1008
10833TIP3   OH232431   6.718   4.150   6.878  0.0578 -0.2745  0.1371
10833TIP3    H132432   6.807   4.152   6.845  0.0523  2.9415  0.1536
10833TIP3    H232433   6.698   4.057   6.890  2.6026 -1.1231 -1.9466
10834TIP3   OH232434   8.374   7.823   0.122  1.0561 -0.1478  0.1034
10834TIP3    H132435   8.368   7.727   0.127  0.5342 -0.2363 -1.8075
10834TIP3    H232436   8.290   7.851   0.087  1.8545  0.8712 -1.0324
10835TIP3   OH232437   5.905   5.080   4.030  0.8023  0.0480  0.2661
10835TIP3    H132438   5.964   5.084   3.955 -1.4411 -1.5311 -1.6405
10835TIP3    H232439   5.928   4.999   4.074  0.7479 -0.0396  0.1317
10836TIP3   OH232440   7.142   5.976   6.889  0.0777 -0.1847 -0.2823
10836TIP3    H132441   7.200   6.013   6.824 -0.7347  1.2005 -0.2469
10836TIP3    H232442   7.056   5.976   6.847 -0.4372  0.6475  0.7554
10837TIP3   OH232443   7.383   3.745   2.968 -0.3360  0.2709 -0.0396
10837TIP3    H132444   7.434   3.791   3.035 -0.4722 -0.3808  0.5125
10837TIP3    H232445   7.295   3.782   2.974 -0.5974 -0.5019  0.8161
10838TIP3   OH232446   7.922   5.836   2.050 -0.1206 -0.0088 -0.2471
10838TIP3    H132447   7.999   5.850   1.995  0.7732 -1.8786  0.5040
10838TIP3    H232448   7.917   5.914   2.105  0.9387  0.3462 -0.6456
10839TIP3   OH232449   7.527   4.977   6.812 -0.3387 -0.3166 -0.2686
10839TIP3    H132450   7.613   4.977   6.854  0.1825 -0.6404 -1.3357
10839TIP3    H232451   7.519   5.064   6.774 -0.3379 -0.4069 -0.4732
10840TIP3   OH232452   7.243   3.616   4.509  0.2879 -0.2504 -0.1683
10840TIP3    H132453   7.162   3.620   4.459  0.6211  2.2311 -0.5943
10840TIP3    H232454   7.305   3.568   4.453 -0.3924 -0.6610 -0.5649
10841TIP3   OH232455   7.410   3.835   5.235  0.7266 -0.3743 -0.3438
10841TIP3    H132456   7.429   3.812   5.144  0.3992 -1.2288 -0.2105
10841TIP3    H232457   7.329   3.787   5.255  0.8904 -0.3375  0.4427
10842TIP3   OH232458   0.189   6.768   4.718 -0.2504 -0.1403  0.1887
10842TIP3    H132459   0.216   6.838   4.778  0.1883  0.0660 -0.2443
10842TIP3    H232460   0.218   6.688   4.760  1.9213  0.1314 -0.7029
10843TIP3   OH232461   7.996   2.328   5.485  0.2934 -0.3149 -0.5879
10843TIP3    H132462   7.978   2.371   5.402 -1.5796 -0.4433 -0.2714
10843TIP3    H232463   7.995   2.399   5.549 -1.7910 -0.6583 -0.2064
10844TIP3   OH232464   7.484   3.881   4.152  0.1266  0.1718  0.2291
10844TIP3    H132465   7.442   3.810   4.103  0.9112 -0.3171  0.2543
10844TIP3    H232466   7.551   3.837   4.204 -1.0515  0.6196  2.1641
10845TIP3   OH232467   6.298   3.910   5.613 -0.1698  0.6092  0.3952
10845TIP3    H132468   6.338   3.974   5.672  2.0936  1.1302 -1.6471
10845TIP3    H232469   6.335   3.930   5.527 -1.5941 -1.6564 -0.7907
10846TIP3   OH232470   3.149   1.145   0.004 -0.1226  0.7150 -0.0233
10846TIP3    H132471   3.187   1.057  -0.001  0.3457  0.8372  1.3509
10846TIP3    H232472   3.157   1.170   0.096 -1.7096  1.5601 -0.0977
10847TIP3   OH232473   5.453   2.763   5.394 -0.1121  0.3788  0.0085
10847TIP3    H132474   5.457   2.856   5.418 -0.0685  0.1748  0.7973
10847TIP3    H232475   5.535   2.748   5.347  0.2899  0.5252  0.6540
10848TIP3   OH232476   6.611   3.284   4.210 -0.3545 -0.0551  0.3963
10848TIP3    H132477   6.646   3.306   4.297 -0.3262 -0.5576  0.5085
10848TIP3    H232478   6.658   3.204   4.185  0.5929  0.8002 -0.6335
10849TIP3   OH232479   1.787   3.357   3.843 -0.4302  0.4102 -0.8169
10849TIP3    H132480   1.713   3.297   3.858  2.8747 -3.2743  1.6372
10849TIP3    H232481   1.786   3.416   3.919  0.7149 -1.3748  0.6029
10850TIP3   OH232482   6.604   3.902   5.163 -0.3618  0.1929 -0.3476
10850TIP3    H132483   6.686   3.883   5.209 -0.8880  1.0439  0.9663
10850TIP3    H232484   6.609   3.849   5.083  1.8869  0.9350 -0.7558
10851TIP3   OH232485   7.522   4.820   5.496 -0.3842  0.1284 -0.1075
10851TIP3    H132486   7.505   4.871   5.417  0.8476 -0.9023 -1.0672
10851TIP3    H232487   7.467   4.860   5.563 -1.0190  1.3767 -1.3476
10852TIP3   OH232488   3.258   0.349   0.137 -0.1546  0.3413 -0.3332
10852TIP3    H132489   3.198   0.372   0.066  0.4549  1.3600 -0.5264
10852TIP3    H232490   3.306   0.430   0.156  1.5536 -0.5902 -0.5634
10853TIP3   OH232491   0.635   5.577   5.450  0.1630 -0.4801 -0.2740
10853TIP3    H132492   0.583   5.654   5.470  0.7491 -0.3163  0.6304
10853TIP3    H232493   0.722   5.597   5.485  0.5773 -1.1538 -0.8967
10854TIP3   OH232494   6.380   0.673   0.128 -0.5760 -0.6042  0.8582
10854TIP3    H132495   6.357   0.717   0.210  0.9200  0.3484  0.7756
10854TIP3    H232496   6.324   0.713   0.062  1.6910  2.1962  0.5293
10855TIP3   OH232497   0.185   2.550   5.760  0.2483  0.5213  0.8480
10855TIP3    H132498   0.117   2.602   5.802 -0.6576 -1.1460  1.4658
10855TIP3    H232499   0.169   2.562   5.666 -1.1690 -0.1658  0.9780
10856TIP3   OH232500   7.783   4.074   5.164  0.4064 -0.8119  0.1513
10856TIP3    H132501   7.727   4.071   5.087 -0.3649  0.2420  0.6587
10856TIP3    H232502   7.857   4.128   5.138 -0.0897 -0.0564  0.2968
10857TIP3   OH232503   8.497   3.557   5.280 -0.0481 -0.1125 -0.1844
10857TIP3    H132504   8.492   3.507   5.362  0.2951 -0.2805 -0.2655
10857TIP3    H232505   8.408   3.587   5.265 -0.6842 -2.4417 -1.2098
10858TIP3   OH232506   3.650   0.540   0.034  0.1521 -0.0323 -0.0679
10858TIP3    H132507   3.637   0.630   0.003 -0.8788 -0.5439 -1.1682
10858TIP3    H232508   3.743   0.523   0.020  0.0530  0.3543 -1.2673
10859TIP3   OH232509   0.089   3.664   5.872  0.6141 -0.1574 -0.1466
10859TIP3    H132510   0.133   3.744   5.899  1.2200 -0.4667 -0.2189
10859TIP3    H232511  -0.001   3.691   5.853  1.1416  0.7330 -1.4058
10860TIP3   OH232512   7.934   3.814   5.614 -0.2579  0.2993 -0.0859
10860TIP3    H132513   7.986   3.880   5.569 -0.8956  0.3377 -0.7701
10860TIP3    H232514   7.850   3.812   5.567 -0.6183 -0.2669  0.5586
10861TIP3   OH232515   2.660   7.592   0.358 -0.2878  0.0211  0.3539
10861TIP3    H132516   2.741   7.550   0.330  0.9744  3.6959 -1.8969
10861TIP3    H232517   2.592   7.550   0.305  0.5396 -1.0873  0.1560
10862TIP3   OH232518   7.112   4.105   5.961 -0.0404 -0.4600 -0.1266
10862TIP3    H132519   7.090   4.185   6.008  1.7253 -0.7868  1.3319
10862TIP3    H232520   7.036   4.048   5.973 -0.4524  0.2289  0.5523
10863TIP3   OH232521   3.635   1.239   1.635  0.0683 -0.4005  0.4525
10863TIP3    H132522   3.584   1.165   1.603 -0.3673  0.5478 -1.1059
10863TIP3    H232523   3.575   1.314   1.630  0.4310  0.0272  2.2247
10864TIP3   OH232524   0.292   0.771   6.649 -0.0242  0.5250  0.2338
10864TIP3    H132525   0.286   0.723   6.732 -1.7474 -0.3459 -0.3813
10864TIP3    H232526   0.237   0.848   6.662  0.6550  0.9983  0.3084
10865TIP3   OH232527   8.343   2.741   3.969 -0.2002 -0.1875 -0.1642
10865TIP3    H132528   8.324   2.659   4.015 -0.1355  0.1782  0.5191
10865TIP3    H232529   8.264   2.794   3.980  0.1658  0.2641  0.3432
10866TIP3   OH232530   8.242   6.157   5.947  0.1493  0.0416 -0.4975
10866TIP3    H132531   8.190   6.236   5.960  1.1304  0.6450 -0.1849
10866TIP3    H232532   8.242   6.144   5.852 -0.3926  0.1590 -0.5147
10867TIP3   OH232533   0.896   0.632   4.008  0.1380  0.5920  0.6455
10867TIP3    H132534   0.926   0.722   3.993  1.2309  0.0932 -0.1406
10867TIP3    H232535   0.928   0.582   3.933 -1.7769 -0.1719  0.2880
10868TIP3   OH232536   7.250   3.488   5.877 -0.2049  0.0237  0.2008
10868TIP3    H132537   7.163   3.464   5.845  0.1746 -0.5035 -0.4363
10868TIP3    H232538   7.309   3.465   5.805  0.3335  1.4256  0.1834
10869TIP3   OH232539   7.151   1.436   4.741 -0.0614 -0.0470  0.0633
10869TIP3    H132540   7.188   1.521   4.719 -1.8908  1.1383  1.4423
10869TIP3    H232541   7.138   1.439   4.836 -1.6138 -1.2441 -0.0829
10870TIP3   OH232542   8.434   3.261   4.110 -0.5868  0.0879  0.1558
10870TIP3    H132543   8.441   3.263   4.206 -0.2930 -1.2588  0.1796
10870TIP3    H232544   8.348   3.298   4.092 -0.5987  0.4613  0.9345
10871TIP3   OH232545   6.956   3.430   5.511 -0.2408 -0.1816 -0.3499
10871TIP3    H132546   6.922   3.348   5.546  0.7263 -0.0939  0.8577
10871TIP3    H232547   7.047   3.411   5.489  0.1571  0.6974  0.4676
10872TIP3   OH232548   7.932   2.429   4.248 -0.1623  0.2052  0.1038
10872TIP3    H132549   7.859   2.461   4.302  1.1076  0.7738  1.5141
10872TIP3    H232550   7.902   2.344   4.216 -1.0637 -0.0225  1.4908
10873TIP3   OH232551   7.477   4.302   6.351  0.1697 -0.9187  0.0068
10873TIP3    H132552   7.469   4.304   6.256 -0.0194 -1.4327  0.0072
10873TIP3    H232553   7.395   4.340   6.383 -0.1770 -1.6197 -0.0316
10874TIP3   OH232554   7.712   2.399   5.203  0.2946 -0.1755 -0.1812
10874TIP3    H132555   7.655   2.476   5.201 -0.0234 -0.3539  1.7046
10874TIP3    H232556   7.683   2.346   5.128  0.9346  1.8060 -1.8924
10875TIP3   OH232557   7.149   2.555   5.115  0.0626  0.6407  0.1128
10875TIP3    H132558   7.096   2.544   5.036 -0.4058  0.4488  0.4455
10875TIP3    H232559   7.164   2.466   5.146  0.9040  0.6767 -0.1854
10876TIP3   OH232560   7.081   0.657   0.283 -0.6913 -0.3056 -0.2259
10876TIP3    H132561   7.067   0.590   0.216  0.8773  0.0040 -0.8937
10876TIP3    H232562   7.065   0.740   0.237  1.9779  0.0052 -0.7272
10877TIP3   OH232563   7.584   4.056   5.833  0.1482 -0.3495 -0.4768
10877TIP3    H132564   7.576   3.978   5.887  0.0442 -1.0405 -1.4810
10877TIP3    H232565   7.564   4.026   5.745  2.0468  0.4172 -1.1753
10878TIP3   OH232566   0.169   7.807   0.042  0.1023  0.2187  0.2135
10878TIP3    H132567   0.254   7.823   0.000  0.4998 -1.3528  0.3974
10878TIP3    H232568   0.160   7.712   0.042 -0.5864  0.2667  2.3111
10879TIP3   OH232569   0.475   3.108   2.296  0.2947 -0.2258 -0.6001
10879TIP3    H132570   0.497   3.059   2.376  0.3408  0.9676  0.1315
10879TIP3    H232571   0.382   3.127   2.305  0.6407  1.2652 -0.0763
10880TIP3   OH232572   8.280   3.540   6.371  0.2568 -0.2030 -0.2662
10880TIP3    H132573   8.261   3.519   6.279 -2.8982 -2.8943  0.9256
10880TIP3    H232574   8.357   3.487   6.392  0.4453 -0.2627 -1.0786
10881TIP3   OH232575   2.438   4.789   2.338  0.4414  0.5661 -0.3000
10881TIP3    H132576   2.506   4.746   2.286  0.7064  1.5231 -0.7641
10881TIP3    H232577   2.356   4.758   2.300  0.6134 -0.6443  0.3059
10882TIP3   OH232578   0.928   4.188   3.118  0.1736  0.3575 -0.1455
10882TIP3    H132579   0.853   4.247   3.128 -0.3891 -0.5072  0.7128
10882TIP3    H232580   1.004   4.245   3.130 -0.3593  1.0100  0.1867
10883TIP3   OH232581   7.359   2.276   5.718  0.7382  0.2319  0.1364
10883TIP3    H132582   7.327   2.359   5.753  0.2942  0.9700 -1.9247
10883TIP3    H232583   7.454   2.285   5.717  0.6597  1.1635 -1.0505
10884TIP3   OH232584   8.438   3.581   4.119 -0.0026  0.3203 -0.1833
10884TIP3    H132585   8.479   3.495   4.112  0.7354  0.6417  0.1429
10884TIP3    H232586   8.392   3.592   4.036 -2.8576 -1.7853  1.0408
10885TIP3   OH232587   0.617   3.048   4.802 -0.3043  0.2380  0.1197
10885TIP3    H132588   0.570   2.974   4.762 -0.8644 -1.4989  3.7731
10885TIP3    H232589   0.703   3.046   4.761 -1.5870  0.0493 -2.6917
10886TIP3   OH232590   8.054   3.881   4.001  0.3492  0.0356  0.4743
10886TIP3    H132591   8.054   3.914   4.091 -1.0468  2.1709 -0.2701
10886TIP3    H232592   8.129   3.923   3.960 -0.6856  1.3347 -0.1232
10887TIP3   OH232593   7.246   0.024   5.725  0.2260  0.6001 -0.1079
10887TIP3    H132594   7.326   0.012   5.775  0.1893  0.7797 -0.0056
10887TIP3    H232595   7.177  -0.008   5.783  0.4144 -1.5260 -0.9887
10888TIP3   OH232596   6.237   2.507   6.171  0.5926  0.7041  0.8005
10888TIP3    H132597   6.288   2.463   6.102 -0.0985  0.8150  0.2067
10888TIP3    H232598   6.303   2.552   6.224  1.1652  0.3531  0.3988
10889TIP3   OH232599   2.484   0.611   2.599  0.4309 -0.0746  0.3823
10889TIP3    H132600   2.396   0.599   2.635 -0.2848  1.6378 -0.7259
10889TIP3    H232601   2.531   0.661   2.666  0.1280  0.2271  0.3700
10890TIP3   OH232602   7.989   1.864   3.773 -0.0329 -0.1100  0.4399
10890TIP3    H132603   8.082   1.864   3.751 -0.3269 -1.3251 -0.8566
10890TIP3    H232604   7.950   1.798   3.715 -1.6520  0.1721  1.1730
10891TIP3   OH232605   0.110   2.866   5.231  0.2233  0.0840 -0.3205
10891TIP3    H132606   0.025   2.906   5.211 -1.1725 -2.5472  0.1056
10891TIP3    H232607   0.137   2.909   5.313 -0.7345  0.8653 -0.3951
10892TIP3   OH232608   7.598   6.312   4.818  0.5196 -0.0069 -0.0689
10892TIP3    H132609   7.668   6.249   4.836  0.3652  0.4218  2.2208
10892TIP3    H232610   7.629   6.362   4.743  2.2081 -0.5183  0.2646
10893TIP3   OH232611   2.002   5.402   6.013  0.1893  0.3665  0.2480
10893TIP3    H132612   2.098   5.398   6.013  0.1339 -2.4214 -1.0246
10893TIP3    H232613   1.976   5.331   5.954 -2.6935  0.3317  1.5193
10894TIP3   OH232614   8.127   4.191   6.313 -0.0726  0.6002 -0.2904
10894TIP3    H132615   8.201   4.215   6.369  1.3342 -2.1111 -0.9069
10894TIP3    H232616   8.069   4.141   6.370  0.1790 -0.0638 -0.6033
10895TIP3   OH232617   8.300   1.981   3.904  0.2367 -0.0967  0.2225
10895TIP3    H132618   8.375   2.041   3.905 -0.2282  0.4860 -0.2623
10895TIP3    H232619   8.303   1.941   3.817 -1.1754  1.3787 -0.5177
10896TIP3   OH232620   6.951   4.590   4.789 -0.1384 -0.4900  0.4992
10896TIP3    H132621   6.860   4.614   4.806  0.0757  1.1477 -0.5812
10896TIP3    H232622   6.950   4.494   4.791 -1.3609 -0.4681  3.0537
10897TIP3   OH232623   8.067   2.728   6.119 -0.1360 -0.7565 -0.2418
10897TIP3    H132624   8.115   2.764   6.194 -1.5308  2.0128 -0.6493
10897TIP3    H232625   8.019   2.653   6.156  0.6267 -0.5526  1.2180
10898TIP3   OH232626   7.488   3.788   5.731  0.2613 -0.0113 -0.0814
10898TIP3    H132627   7.483   3.714   5.791  0.3381 -0.7839 -1.0194
10898TIP3    H232628   7.564   3.769   5.675 -0.5434  0.0828 -1.2323
10899TIP3   OH232629   6.499   3.728   6.184  0.0686 -0.2732 -0.4430
10899TIP3    H132630   6.438   3.683   6.242 -0.6400  0.2686 -0.7519
10899TIP3    H232631   6.443   3.786   6.131  1.0758  1.9472  0.8462
10900TIP3   OH232632   8.021   1.727   5.384 -0.3054  0.0172 -0.2873
10900TIP3    H132633   7.949   1.701   5.442 -0.8585  0.3507 -0.8218
10900TIP3    H232634   8.002   1.684   5.301 -1.2328  2.0986 -1.1804
10901TIP3   OH232635   0.659   5.090   4.143 -0.1541  0.7055 -0.2245
10901TIP3    H132636   0.664   5.102   4.049 -1.8591  0.1784 -0.4075
10901TIP3    H232637   0.742   5.123   4.177  1.0742 -0.4668 -2.0418
10902TIP3   OH232638   5.485   4.917   5.599 -0.8077 -0.3039  0.4588
10902TIP3    H132639   5.551   4.912   5.667  0.1765  1.4912 -0.3279
10902TIP3    H232640   5.511   4.852   5.534 -0.8650 -0.8966  1.0261
10903TIP3   OH232641   7.631   2.775   5.122 -0.6317 -0.3065 -0.3874
10903TIP3    H132642   7.552   2.744   5.165 -0.0262  0.8520  1.6699
10903TIP3    H232643   7.601   2.812   5.039 -2.5394  1.8661  1.1991
10904TIP3   OH232644   8.414   4.049   5.325 -0.8081  0.4626  0.0864
10904TIP3    H132645   8.430   4.082   5.414  0.7401 -0.1339  0.0376
10904TIP3    H232646   8.458   4.113   5.268 -0.1731 -0.1880 -0.1521
10905TIP3   OH232647   1.352   2.660   3.644  0.0873  0.6286  0.1997
10905TIP3    H132648   1.357   2.600   3.719 -0.2328  0.8908  0.4261
10905TIP3    H232649   1.432   2.712   3.650 -0.3726  1.2482  0.8563
10906TIP3   OH232650   6.454   4.143   5.032  0.3116  0.5268  0.3989
10906TIP3    H132651   6.452   4.095   5.115  0.3312  1.0621  0.7057
10906TIP3    H232652   6.444   4.074   4.966 -0.8443  0.2177  0.8809
10907TIP3   OH232653   7.278   5.660   2.937  0.0955 -0.0119  0.3995
10907TIP3    H132654   7.357   5.613   2.964 -0.7894 -2.5692 -1.2698
10907TIP3    H232655   7.287   5.672   2.843 -1.3908 -0.1135  0.2256
10908TIP3   OH232656   1.991   2.406   5.521 -0.0243 -0.0304 -0.2816
10908TIP3    H132657   1.999   2.339   5.453  2.2153  0.1768 -0.2626
10908TIP3    H232658   2.029   2.484   5.483 -0.4458  0.5994  0.5602
10909TIP3   OH232659   7.035   5.075   4.772 -0.0834 -0.1417  0.6114
10909TIP3    H132660   7.044   5.155   4.824 -2.4191 -0.1807  1.1268
10909TIP3    H232661   6.963   5.027   4.814 -1.4643 -0.5625 -2.1419
10910TIP3   OH232662   7.264   4.033   6.409  0.4984 -0.8049 -0.1357
10910TIP3    H132663   7.249   4.126   6.392  1.5164 -0.2031  1.9930
10910TIP3    H232664   7.177   3.998   6.429  0.0744 -0.3715 -1.2104
10911TIP3   OH232665   0.749   1.265   6.491 -0.1482  0.2723 -0.0379
10911TIP3    H132666   0.826   1.215   6.463  0.5728  1.0357  0.5769
10911TIP3    H232667   0.784   1.347   6.525 -1.3626  1.3641 -1.3777
10912TIP3   OH232668   4.017   0.710   0.770  0.2271 -0.0557 -0.4284
10912TIP3    H132669   4.034   0.730   0.678 -0.9945 -1.5308 -0.9958
10912TIP3    H232670   3.932   0.665   0.769  1.0492 -1.6917  1.2178
10913TIP3   OH232671   0.428   3.589   3.695  0.0955 -0.1821 -0.0001
10913TIP3    H132672   0.438   3.589   3.790 -0.8351  0.6135  0.0994
10913TIP3    H232673   0.343   3.631   3.679  0.2414 -0.3082 -1.1805
10914TIP3   OH232674   0.232   2.631   3.713 -0.8914  0.1108 -0.6059
10914TIP3    H132675   0.161   2.689   3.739 -0.1762  0.1028  1.4621
10914TIP3    H232676   0.301   2.690   3.682 -1.4426  0.1620 -1.7672
10915TIP3   OH232677   7.869   2.530   6.142 -0.2325 -0.2849 -0.1336
10915TIP3    H132678   7.791   2.551   6.090  0.7195  0.1014 -1.4125
10915TIP3    H232679   7.834   2.485   6.219 -1.7732  0.3803 -0.4235
10916TIP3   OH232680   7.967   3.909   4.432  0.5184  0.0256  0.0078
10916TIP3    H132681   8.036   3.913   4.366  0.2144  0.1654 -0.3028
10916TIP3    H232682   7.886   3.920   4.383  0.1674 -1.8029  0.1570
10917TIP3   OH232683   5.508   2.717   5.672  0.8131  0.1298  0.0555
10917TIP3    H132684   5.533   2.717   5.579 -1.3510 -0.1748 -0.5565
10917TIP3    H232685   5.413   2.729   5.671  0.4499 -2.1838  2.1421
10918TIP3   OH232686   7.572   3.553   3.776 -0.1011  0.1726 -0.5811
10918TIP3    H132687   7.608   3.466   3.791 -1.6287 -0.0379  2.0144
10918TIP3    H232688   7.649   3.609   3.765  1.0750 -0.5758  3.0974
10919TIP3   OH232689   8.265   3.242   5.560  0.3350 -0.5171  0.0262
10919TIP3    H132690   8.208   3.176   5.522 -0.6531  0.4414 -0.2009
10919TIP3    H232691   8.298   3.203   5.641 -0.5901 -1.1111  0.1223
10920TIP3   OH232692   0.527   3.358   5.711 -0.1186 -0.2377  0.1484
10920TIP3    H132693   0.494   3.380   5.798 -1.5244 -0.7049 -0.2463
10920TIP3    H232694   0.574   3.436   5.681 -1.1461  0.5583  0.6045
10921TIP3   OH232695   0.993   4.059   4.315 -0.4006 -0.4922  0.3434
10921TIP3    H132696   1.073   4.110   4.325 -3.1673  3.7222  2.4624
10921TIP3    H232697   0.996   3.996   4.387  1.3291 -0.8872 -0.0547
10922TIP3   OH232698   2.459   7.961   0.350 -0.4562 -0.2749 -0.3925
10922TIP3    H132699   2.485   7.874   0.381 -1.4721  0.5329  2.9454
10922TIP3    H232700   2.381   7.983   0.402 -0.5434  2.4130 -1.5695
10923TIP3   OH232701   0.068   7.159   0.470  0.2363 -0.3655  0.3274
10923TIP3    H132702  -0.027   7.151   0.465  0.1224 -0.0370  1.6354
10923TIP3    H232703   0.096   7.079   0.514  0.5624 -0.4786 -0.0913
10924TIP3   OH232704   0.661   4.518   5.921 -0.3812  0.3821  0.3375
10924TIP3    H132705   0.601   4.452   5.888 -0.9514  1.5545 -1.0081
10924TIP3    H232706   0.612   4.562   5.991 -1.2574  1.6352 -1.0610
10925TIP3   OH232707   1.228   6.796   6.459 -0.3012  0.0177 -0.1008
10925TIP3    H132708   1.189   6.712   6.484  0.3020 -0.2611 -0.0990
10925TIP3    H232709   1.159   6.841   6.411 -1.4223  0.4553  1.8418
10926TIP3   OH232710   5.426   1.848   0.898 -0.1572  1.0441 -0.1476
10926TIP3    H132711   5.360   1.843   0.967 -0.9298  2.9165 -0.7385
10926TIP3    H232712   5.486   1.916   0.928  2.4090 -1.6401  1.1120
10927TIP3   OH232713   4.807   1.002   0.201 -0.0449  0.2964 -0.1641
10927TIP3    H132714   4.870   0.973   0.267 -0.2464  0.2926  0.0247
10927TIP3    H232715   4.862   1.033   0.128  0.1748  0.2069 -0.0382
10928TIP3   OH232716   4.430   1.606   0.016  0.1152  0.0738 -0.5164
10928TIP3    H132717   4.349   1.628   0.062  0.4827  0.9359 -0.2597
10928TIP3    H232718   4.499   1.635   0.076  0.6060  0.6605 -1.3451
10929TIP3   OH232719   7.695   4.922   5.797  0.7036  0.1149 -0.1534
10929TIP3    H132720   7.746   4.894   5.721  2.0899  1.7750  0.1540
10929TIP3    H232721   7.746   4.893   5.873  0.8434  1.1891  0.1620
10930TIP3   OH232722   6.616   1.619   0.304 -0.5077 -0.5077 -0.7351
10930TIP3    H132723   6.573   1.562   0.367  0.1468  0.4140  0.5554
10930TIP3    H232724   6.695   1.572   0.278  0.0766 -0.1668  0.3923
10931TIP3   OH232725   7.279   1.858   1.825  0.5808  0.2190 -0.2872
10931TIP3    H132726   7.223   1.900   1.891 -0.3841 -1.8695  0.2505
10931TIP3    H232727   7.356   1.830   1.875 -0.0712 -1.2058 -0.0694
10932TIP3   OH232728   7.130   3.255   4.106 -0.7162  0.4484  0.3156
10932TIP3    H132729   7.123   3.334   4.053 -0.4523  0.4485  0.2801
10932TIP3    H232730   7.043   3.215   4.101 -0.4479 -0.0275 -0.8738
10933TIP3   OH232731   7.501   3.578   5.930 -0.1475 -0.3090  0.3139
10933TIP3    H132732   7.564   3.506   5.922 -1.0464 -1.2163  1.2375
10933TIP3    H232733   7.415   3.535   5.925 -0.6969  0.9021 -0.7892
10934TIP3   OH232734   8.202   4.649   6.015  0.0028 -0.2979  0.0325
10934TIP3    H132735   8.241   4.694   5.940 -1.0215  0.0208 -0.3134
10934TIP3    H232736   8.200   4.717   6.083  0.1933 -0.3619  0.1028
10935TIP3   OH232737   0.465   3.037   4.391 -0.3510 -0.2936 -0.3046
10935TIP3    H132738   0.418   3.025   4.308 -1.2633 -0.1016  0.1760
10935TIP3    H232739   0.401   3.013   4.458  0.0122  0.7016  0.3981
10936TIP3   OH232740   7.178   4.457   5.434  0.2509  0.7564  0.0854
10936TIP3    H132741   7.166   4.414   5.518  0.5299  0.8797  0.1910
10936TIP3    H232742   7.268   4.492   5.437  0.5068  0.1689 -0.5297
10937TIP3   OH232743   7.459   2.786   5.518 -0.0782 -0.1442 -0.2694
10937TIP3    H132744   7.435   2.695   5.500  1.4101 -0.1633 -2.2749
10937TIP3    H232745   7.494   2.785   5.607  1.1105 -1.7595 -0.7524
10938TIP3   OH232746   7.972   1.435   4.669  0.3219  0.2323  0.1710
10938TIP3    H132747   8.027   1.452   4.592 -0.5956  0.5685 -0.4195
10938TIP3    H232748   8.034   1.413   4.738  1.1691  0.0132 -0.6432
10939TIP3   OH232749   7.784   4.285   4.837  0.4847 -0.7590  0.1281
10939TIP3    H132750   7.730   4.306   4.914 -0.4836  1.5352 -1.1232
10939TIP3    H232751   7.870   4.321   4.859  0.1659  0.0475  0.0743
10940TIP3   OH232752   8.248   3.626   5.246  0.2886  0.3515  0.3329
10940TIP3    H132753   8.167   3.673   5.269 -0.0679 -0.2787  0.3638
10940TIP3    H232754   8.223   3.570   5.173  0.4010 -0.7404  1.1233
10941TIP3   OH232755   7.486   5.378   5.860  0.1572 -0.3510  0.2083
10941TIP3    H132756   7.565   5.373   5.807 -0.5939 -2.0243 -0.8170
10941TIP3    H232757   7.419   5.335   5.806 -1.1199 -0.1687  1.6202
10942TIP3   OH232758   2.002   2.604   6.882  0.7087  0.0438 -0.1378
10942TIP3    H132759   2.000   2.647   6.797 -0.0039 -0.2319 -0.2617
10942TIP3    H232760   1.919   2.629   6.924  1.0174  0.1134  0.4374
10943TIP3   OH232761   1.793   2.644   6.109  0.2692  0.5694  0.5217
10943TIP3    H132762   1.766   2.618   6.197 -0.2551  2.3662  0.9101
10943TIP3    H232763   1.872   2.591   6.092 -1.1051 -1.7049  0.9932
10944TIP3   OH232764   1.069   3.390   6.731 -0.0789 -0.3447 -0.2981
10944TIP3    H132765   1.036   3.403   6.820 -1.4491 -0.3185 -0.8055
10944TIP3    H232766   1.042   3.469   6.684  2.9896  0.9183 -0.0827
10945TIP3   OH232767   0.260   0.453   0.148  0.1990 -0.4179 -0.2531
10945TIP3    H132768   0.329   0.435   0.212 -0.8793  0.0586  1.0759
10945TIP3    H232769   0.253   0.372   0.097  0.6293 -1.0501  0.6632
10946TIP3   OH232770   4.991   2.472   1.439 -0.6382  0.1758  0.2098
10946TIP3    H132771   4.913   2.498   1.391 -2.0779  0.8197  2.7905
10946TIP3    H232772   5.010   2.383   1.408 -1.2481  0.7339 -1.8097
10947TIP3   OH232773   5.446   0.228   0.356  0.0345  0.4727 -0.3418
10947TIP3    H132774   5.414   0.175   0.283 -2.5051  2.2926 -0.6290
10947TIP3    H232775   5.486   0.165   0.416 -0.3310 -1.3899 -1.9990
10948TIP3   OH232776   5.936   0.677   0.734 -0.4473 -0.2702  0.2518
10948TIP3    H132777   5.954   0.600   0.787 -0.7204 -0.0663  0.6425
10948TIP3    H232778   6.000   0.673   0.663  1.7375  0.9188  2.0820
10949TIP3   OH232779   7.141   0.049   0.380 -0.0905 -0.4395  0.4084
10949TIP3    H132780   7.173   0.058   0.470  1.4597 -0.1501 -0.1602
10949TIP3    H232781   7.106   0.135   0.358  2.4940  0.4686 -0.3626
10950TIP3   OH232782   1.819   4.946   5.586  0.6545  0.3888 -0.4905
10950TIP3    H132783   1.825   4.989   5.500  1.1701 -0.4203 -0.8700
10950TIP3    H232784   1.834   4.854   5.567  2.6070  0.4235  0.6843
10951TIP3   OH232785   3.459   3.327   6.590 -0.2893 -0.5090  0.5882
10951TIP3    H132786   3.470   3.262   6.520  1.4618 -0.7198  1.0445
10951TIP3    H232787   3.536   3.316   6.645 -2.4966 -1.5807  3.5917
10952TIP3   OH232788   1.988   3.613   6.140  0.4378  0.3334  0.3370
10952TIP3    H132789   2.056   3.596   6.075  0.2443 -0.5690  0.3624
10952TIP3    H232790   1.986   3.534   6.194 -0.9883  0.1134  0.0041
10953TIP3   OH232791   8.096   0.528   0.220 -0.2184  0.3622  0.8019
10953TIP3    H132792   8.177   0.505   0.267  0.7236  0.8518 -0.5471
10953TIP3    H232793   8.047   0.446   0.216  0.9845 -0.3383  0.1558
10954TIP3   OH232794   5.246   1.143   0.744  0.0861  0.5149 -0.1740
10954TIP3    H132795   5.264   1.229   0.705 -0.8492 -0.5981 -3.1563
10954TIP3    H232796   5.321   1.128   0.802  1.6226  2.1718 -1.6539
10955TIP3   OH232797   4.297   1.763   0.296  0.0070 -0.1668 -0.3057
10955TIP3    H132798   4.259   1.723   0.218 -0.7712  0.6728 -0.3646
10955TIP3    H232799   4.247   1.843   0.308 -1.3564 -1.3658  2.3352
10956TIP3   OH232800   5.192   7.706   0.295  0.5454 -0.0780  0.1576
10956TIP3    H132801   5.098   7.728   0.297  0.9934  2.0053 -0.1120
10956TIP3    H232802   5.211   7.688   0.203  0.8015  1.4146 -0.0959
10957TIP3   OH232803   0.841   4.236   6.450 -0.4430  0.7694 -0.1504
10957TIP3    H132804   0.896   4.170   6.408 -0.4636 -0.2593  1.4216
10957TIP3    H232805   0.886   4.319   6.432  1.1477  0.0302  0.3502
10958TIP3   OH232806   1.560   7.138   0.937  0.0564  0.9034  0.5977
10958TIP3    H132807   1.645   7.097   0.954 -0.5052  0.1792  1.6644
10958TIP3    H232808   1.572   7.230   0.962  0.9257  1.1202 -0.5585
10959TIP3   OH232809   7.980   0.537   3.177 -0.4841  0.6034  0.1371
10959TIP3    H132810   7.960   0.604   3.112 -0.7135  2.1302  1.7462
10959TIP3    H232811   7.922   0.557   3.251 -0.1564 -1.0301  0.8643
10960TIP3   OH232812   2.891   4.869   6.027  0.3474  0.1275 -0.5183
10960TIP3    H132813   2.948   4.939   5.994  3.2027 -0.9781  1.8107
10960TIP3    H232814   2.944   4.790   6.021 -1.8394 -1.3782 -0.4999
10961TIP3   OH232815   2.162   5.328   6.497 -0.4268  0.1798 -0.1646
10961TIP3    H132816   2.105   5.253   6.510 -0.8052  0.7108  1.3493
10961TIP3    H232817   2.104   5.404   6.494  0.1253  0.6410  0.5606
10962TIP3   OH232818   7.400   2.092   2.092 -0.6908  0.0023  0.1853
10962TIP3    H132819   7.470   2.090   2.026 -0.7899  0.3855  0.0686
10962TIP3    H232820   7.447   2.088   2.176 -0.5640 -0.4794  0.0968
10963TIP3   OH232821   3.596   0.543   0.521 -0.3063  0.2749  0.1063
10963TIP3    H132822   3.532   0.590   0.468 -0.8890 -0.2706  0.3127
10963TIP3    H232823   3.640   0.484   0.459  1.1367  1.7870 -0.3557
10964TIP3   OH232824   8.110   0.315   0.916 -0.6917 -0.6016 -0.5478
10964TIP3    H132825   8.025   0.313   0.960  0.3507 -0.7782  1.5392
10964TIP3    H232826   8.169   0.357   0.979  0.5757  0.3802 -2.3392
10965TIP3   OH232827   4.317   0.368   0.766  0.5520 -0.0706 -0.0037
10965TIP3    H132828   4.246   0.333   0.711  0.8095  0.4528 -0.6653
10965TIP3    H232829   4.328   0.302   0.834  0.3296 -0.7930 -0.6589
10966TIP3   OH232830   7.126   0.494   0.811 -0.1001  0.0298  0.0337
10966TIP3    H132831   7.215   0.459   0.808  0.0335  0.3845 -0.1952
10966TIP3    H232832   7.134   0.575   0.861 -0.3322 -0.0571  0.2069
10967TIP3   OH232833   0.854   3.419   6.054 -0.3338  0.0270  0.4011
10967TIP3    H132834   0.838   3.328   6.080 -0.9340  0.0470  0.1032
10967TIP3    H232835   0.772   3.464   6.073 -0.3944  0.2865 -0.4687
10968TIP3   OH232836   3.108   5.021   4.112  0.2414 -0.1085 -0.2216
10968TIP3    H132837   3.137   5.014   4.203 -2.1969  1.4526  0.7297
10968TIP3    H232838   3.139   5.107   4.083  0.3868 -0.2987 -0.6416
10969TIP3   OH232839   5.992   1.668   1.459  0.0523 -0.7755 -0.1472
10969TIP3    H132840   5.914   1.618   1.434  1.0217 -1.8067 -1.1834
10969TIP3    H232841   6.063   1.630   1.407  1.2625  0.1257  0.7956
10970TIP3   OH232842   0.533   2.292   6.874 -0.0147  0.1790 -0.2078
10970TIP3    H132843   0.518   2.383   6.899  2.7299  0.2620  1.2957
10970TIP3    H232844   0.473   2.242   6.930 -0.3410  0.9320  0.1305
10971TIP3   OH232845   6.417   1.063   2.241  0.7914  0.5912 -0.3139
10971TIP3    H132846   6.480   1.030   2.178  2.5206  1.4909  0.8993
10971TIP3    H232847   6.470   1.107   2.308 -0.9138 -0.8469  2.0719
10972TIP3   OH232848   7.411   0.883   2.660  0.0324 -0.4808 -0.0213
10972TIP3    H132849   7.378   0.841   2.581 -0.4664 -1.7643  0.8642
10972TIP3    H232850   7.490   0.929   2.631 -0.3995 -0.5675 -1.3528
10973TIP3   OH232851   7.839   0.638   0.816 -0.4097 -0.2224 -0.1139
10973TIP3    H132852   7.795   0.666   0.736  0.8176 -1.5726 -1.2975
10973TIP3    H232853   7.933   0.643   0.795 -0.0015  1.5947  1.9930
10974TIP3   OH232854   4.529   6.501   1.031 -0.2681  0.8121  0.7692
10974TIP3    H132855   4.551   6.590   1.002 -0.4005  0.3541 -0.8156
10974TIP3    H232856   4.442   6.510   1.070 -0.6011  1.2751 -0.0519
10975TIP3   OH232857   6.112   1.012   1.398 -0.7152 -0.1386  0.0066
10975TIP3    H132858   6.051   1.077   1.433 -2.0087 -1.7543  0.7967
10975TIP3    H232859   6.164   0.986   1.474  0.3776  0.5728 -0.4866
10976TIP3   OH232860   5.294   7.725   0.657  0.1914  0.1719  0.3272
10976TIP3    H132861   5.299   7.633   0.680 -2.0564  0.3358  1.6750
10976TIP3    H232862   5.374   7.764   0.692 -0.4162 -0.6773  2.7931
10977TIP3   OH232863   5.685   8.045   0.021 -0.2516 -0.2914 -0.0097
10977TIP3    H132864   5.744   7.974  -0.004 -1.5253 -1.3974  0.0558
10977TIP3    H232865   5.637   8.011   0.096  1.0121  1.6658  1.7275
10978TIP3   OH232866   7.495   1.522   1.854  0.0154 -0.2451 -0.1214
10978TIP3    H132867   7.512   1.469   1.777  1.5678 -0.9823  0.6987
10978TIP3    H232868   7.421   1.479   1.897 -0.8455  0.1649 -1.1703
10979TIP3   OH232869   5.966   0.320   0.665  0.1218 -0.1469  0.0070
10979TIP3    H132870   6.035   0.254   0.668  0.1481 -0.1623 -0.8302
10979TIP3    H232871   5.973   0.367   0.748  0.2193 -1.0766  0.5207
10980TIP3   OH232872   6.237   0.263   0.622 -0.3426 -0.1463 -0.0371
10980TIP3    H132873   6.278   0.320   0.687  0.4836 -1.4413  0.5869
10980TIP3    H232874   6.305   0.250   0.556 -0.6626 -0.0876 -0.3798
10981TIP3   OH232875   1.605   4.039   6.882  0.1869  0.5276 -0.0448
10981TIP3    H132876   1.622   3.956   6.838 -0.9002  1.2363 -1.8723
10981TIP3    H232877   1.662   4.102   6.837 -0.2660  1.0876  0.1538
10982TIP3   OH232878   3.226   7.312   0.174 -0.5759  0.0301 -0.4394
10982TIP3    H132879   3.163   7.368   0.128 -0.7525 -0.1124 -0.3709
10982TIP3    H232880   3.213   7.226   0.135  2.1050  0.7205 -3.0393
10983TIP3   OH232881   6.210   7.817   0.518  0.3701  0.4117  0.3304
10983TIP3    H132882   6.287   7.854   0.562 -0.1848  1.4089  0.4659
10983TIP3    H232883   6.201   7.729   0.556  1.9644 -0.0486 -0.3381
10984TIP3   OH232884   0.532   5.595   6.480  0.1389 -0.1646 -0.3492
10984TIP3    H132885   0.492   5.548   6.407  2.3379 -1.7457 -0.5857
10984TIP3    H232886   0.625   5.597   6.459  0.3431  2.5297  0.6835
10985TIP3   OH232887   1.627   3.713   6.817 -0.3219  0.6684 -0.2702
10985TIP3    H132888   1.584   3.697   6.732  0.6626  0.2025 -0.6887
10985TIP3    H232889   1.681   3.635   6.831 -0.6892  0.6265  0.9231
10986TIP3   OH232890   6.490   0.307   1.120  0.3471  0.2153  0.0918
10986TIP3    H132891   6.504   0.272   1.208  0.3919  1.1720  0.4712
10986TIP3    H232892   6.396   0.297   1.105  0.1183  1.2208  0.7689
10987TIP3   OH232893   6.716   0.643   2.997 -0.4251 -0.6513  0.0669
10987TIP3    H132894   6.649   0.705   3.027  0.4584  0.8405 -1.0233
10987TIP3    H232895   6.780   0.642   3.068 -0.3669 -0.2105  0.0208
10988TIP3   OH232896   0.227   5.803   5.350 -0.0222 -0.6403  0.2311
10988TIP3    H132897   0.139   5.840   5.343 -0.0952 -0.8457  0.0800
10988TIP3    H232898   0.213   5.711   5.372  0.1682 -0.4090  1.3913
10989TIP3   OH232899   1.557   4.352   5.956 -0.2918  0.2974 -0.0162
10989TIP3    H132900   1.600   4.384   6.036  2.0612 -2.7738  0.0298
10989TIP3    H232901   1.615   4.378   5.885 -0.6462  0.0135 -0.4136
10990TIP3   OH232902   3.010   5.823   5.405 -0.2167 -0.0410 -0.2115
10990TIP3    H132903   2.984   5.909   5.374  1.3977  0.9770  1.1356
10990TIP3    H232904   2.969   5.762   5.344 -1.2789  1.6725 -1.2627
10991TIP3   OH232905   6.126   7.925   1.558 -0.5485 -0.3745 -0.0986
10991TIP3    H132906   6.124   8.012   1.599 -0.4065  0.3665 -1.6631
10991TIP3    H232907   6.211   7.889   1.583 -0.6871 -0.1673  0.7147
10992TIP3   OH232908   3.824   7.921   0.285 -0.1782 -0.0231 -0.1054
10992TIP3    H132909   3.903   7.959   0.321  0.9246 -1.6016 -0.8123
10992TIP3    H232910   3.844   7.905   0.193 -1.7464  0.7005 -0.5999
10993TIP3   OH232911   0.657   0.296   0.434  0.0660  0.5060 -0.2959
10993TIP3    H132912   0.716   0.278   0.361  2.6717 -1.5049  2.2313
10993TIP3    H232913   0.696   0.370   0.480 -1.5641  1.7672 -0.8732
10994TIP3   OH232914   5.589   1.111   1.483  0.0229  0.1641 -0.3617
10994TIP3    H132915   5.635   1.027   1.483  2.8298  1.6169 -2.0134
10994TIP3    H232916   5.623   1.156   1.560 -2.0074 -0.4388  0.9216
10995TIP3   OH232917   2.873   1.652   6.669  0.0630  0.4998  0.8969
10995TIP3    H132918   2.865   1.748   6.668  0.9585  0.5726 -0.6020
10995TIP3    H232919   2.966   1.636   6.656 -0.3252 -0.6021 -0.6525
10996TIP3   OH232920   0.595   2.134   6.653 -0.1917  0.5242 -0.5620
10996TIP3    H132921   0.679   2.094   6.677 -0.7976  0.0353  0.7791
10996TIP3    H232922   0.564   2.175   6.733 -1.4542  0.3255 -0.9376
10997TIP3   OH232923   5.622   6.976   1.184  0.3095 -0.0317  0.1513
10997TIP3    H132924   5.533   6.944   1.171  0.2595  0.6552 -1.3597
10997TIP3    H232925   5.624   7.006   1.275 -1.3375  0.9528 -0.1189
10998TIP3   OH232926   8.054   5.050   6.838 -0.9085  0.2683  0.6345
10998TIP3    H132927   8.126   4.989   6.853 -1.0878  0.3127  1.6512
10998TIP3    H232928   7.978   4.994   6.821 -1.2668  0.1848  2.4342
10999TIP3   OH232929   1.559   4.562   5.001  0.3232  0.4507 -0.2312
10999TIP3    H132930   1.524   4.521   4.922 -1.7180  1.7951 -0.0582
10999TIP3    H232931   1.507   4.642   5.012  0.3345  0.1292  2.6290
11000TIP3   OH232932   6.501   1.999   1.058 -0.4335  0.3277 -0.1424
11000TIP3    H132933   6.498   2.077   1.114 -0.4240 -0.8899  1.5816
11000TIP3    H232934   6.481   2.032   0.970  1.7394  2.6011  0.1751
11001TIP3   OH232935   1.830   3.757   6.439  0.2430  0.2035 -0.0098
11001TIP3    H132936   1.902   3.818   6.421  0.0088  0.1206 -1.2737
11001TIP3    H232937   1.764   3.778   6.373  0.5891 -2.0862 -1.1585
11002TIP3   OH232938   5.302   1.227   0.120  0.0997  0.2712  1.2146
11002TIP3    H132939   5.239   1.156   0.106  0.3652  0.6090 -2.0492
11002TIP3    H232940   5.382   1.197   0.078  0.6005  1.9781  0.8983
11003TIP3   OH232941   2.263   2.716   5.769  0.0776  0.6634  0.0560
11003TIP3    H132942   2.177   2.755   5.758 -0.3398 -0.3656 -0.3389
11003TIP3    H232943   2.270   2.651   5.699 -0.7471 -2.6311  2.8597
11004TIP3   OH232944   3.549   1.676   0.623 -0.2186  0.0786 -0.2694
11004TIP3    H132945   3.502   1.596   0.601 -1.1013  0.5222 -0.0292
11004TIP3    H232946   3.550   1.679   0.718  0.0344  0.2309 -0.2748
11005TIP3   OH232947   6.901   4.193   6.332 -0.3809  1.0589  0.3049
11005TIP3    H132948   6.878   4.272   6.381  0.0007  0.9055  0.7333
11005TIP3    H232949   6.977   4.219   6.279 -2.0060  1.8035 -1.7349
11006TIP3   OH232950   7.054   7.320   2.224 -0.0254 -0.8957 -0.7670
11006TIP3    H132951   6.979   7.376   2.204  0.1503 -0.7394 -1.0021
11006TIP3    H232952   7.108   7.374   2.283 -0.6633 -1.4528  0.3431
11007TIP3   OH232953   6.964   0.580   0.601  0.5698  0.4163  0.5359
11007TIP3    H132954   6.992   0.665   0.565 -1.1837  0.4058 -0.9176
11007TIP3    H232955   6.960   0.594   0.695 -2.7103  2.9157  0.0995
11008TIP3   OH232956   6.320   0.829   0.655  0.1182 -0.1252  0.1550
11008TIP3    H132957   6.272   0.747   0.665  1.0888 -0.4652  2.2238
11008TIP3    H232958   6.270   0.893   0.705 -0.6618  0.5930 -1.4899
11009TIP3   OH232959   6.524   0.929   1.645 -0.4051 -0.1247  0.2298
11009TIP3    H132960   6.433   0.902   1.640 -0.8307  1.0648  1.3915
11009TIP3    H232961   6.571   0.850   1.673 -1.1017 -0.6713 -0.1424
11010TIP3   OH232962   5.613   7.272   0.414  0.0612 -0.2711  0.3953
11010TIP3    H132963   5.547   7.226   0.466  1.5878 -1.2526  1.5068
11010TIP3    H232964   5.660   7.202   0.368  0.5095  0.3983 -0.1676
11011TIP3   OH232965   7.714   4.235   4.589 -0.1294 -0.2443 -0.4790
11011TIP3    H132966   7.726   4.246   4.683 -0.2251 -0.4499 -0.4437
11011TIP3    H232967   7.801   4.212   4.556  0.5815  2.7900 -0.8585
11012TIP3   OH232968   0.129   5.578   6.856  0.4221 -0.0027  0.0908
11012TIP3    H132969   0.158   5.601   6.768  0.7415 -1.4992 -0.2042
11012TIP3    H232970   0.039   5.610   6.861  0.3201 -0.1424 -0.8556
11013TIP3   OH232971   2.089   4.013   6.784  0.0462  0.2279 -0.1431
11013TIP3    H132972   2.062   3.922   6.772  1.4597 -0.0302 -1.4956
11013TIP3    H232973   2.159   4.026   6.720  2.6232  1.0761  2.7130
11014TIP3   OH232974   4.731   6.912   0.478  0.2726  0.1800 -0.0817
11014TIP3    H132975   4.805   6.924   0.539 -0.4183 -0.5261  0.9164
11014TIP3    H232976   4.653   6.930   0.531 -0.2984  0.5380 -1.0285
11015TIP3   OH232977   7.280   5.462   6.561 -0.5466  0.1083  0.1663
11015TIP3    H132978   7.318   5.407   6.493  0.0835 -0.0398  0.6391
11015TIP3    H232979   7.347   5.467   6.629 -1.5238 -0.5321  1.2024
11016TIP3   OH232980   0.377   4.009   6.574  0.2548 -0.1493  0.1479
11016TIP3    H132981   0.294   4.038   6.536  0.0498 -2.4106 -1.2300
11016TIP3    H232982   0.442   4.070   6.539 -0.8324  1.7809  1.4229
11017TIP3   OH232983   7.279   1.162   1.380  0.2905  0.4238  0.2833
11017TIP3    H132984   7.318   1.184   1.465  0.1680  3.4642 -0.3717
11017TIP3    H232985   7.348   1.182   1.316  0.0225 -0.8393 -0.4224
11018TIP3   OH232986   7.203   7.439   1.065  0.8361 -0.0290 -0.1716
11018TIP3    H132987   7.236   7.369   1.009  2.5911  0.7750 -0.1644
11018TIP3    H232988   7.279   7.494   1.083 -0.3854  1.5669  0.2939
11019TIP3   OH232989   8.348   4.265   6.729 -0.2084  0.4860 -0.0194
11019TIP3    H132990   8.427   4.240   6.778 -0.2574  2.3362  1.0607
11019TIP3    H232991   8.324   4.186   6.680  2.1612 -0.1858 -0.1682
11020TIP3   OH232992   0.333   1.429   1.754 -0.0017 -0.0033 -0.1505
11020TIP3    H132993   0.285   1.509   1.733 -0.8530  0.0186  1.7900
11020TIP3    H232994   0.423   1.458   1.768 -0.3495  0.6623  0.7491
11021TIP3   OH232995   2.748   4.476   6.168  0.0627 -0.3991 -0.1532
11021TIP3    H132996   2.759   4.410   6.236  0.7095  0.1837  0.3240
11021TIP3    H232997   2.676   4.444   6.114  1.0067 -1.9808 -0.5179
11022TIP3   OH232998   8.420   4.274   5.180 -0.0413  0.0694  0.0592
11022TIP3    H132999   8.385   4.325   5.253 -1.1517 -0.8278  0.1652
11022TIP3    H233000   8.344   4.256   5.125  0.3134 -1.5478  0.0783
11023TIP3   OH233001   2.205   7.900   0.426  0.4434  0.3753  0.1049
11023TIP3    H133002   2.120   7.943   0.415  0.1528  0.3332  2.0403
11023TIP3    H233003   2.221   7.857   0.342 -1.4695  0.3456 -0.2713
11024TIP3   OH233004   3.549   7.821   1.038 -0.1719  0.3220  0.2924
11024TIP3    H133005   3.528   7.900   1.089 -0.0409  1.7136 -1.7505
11024TIP3    H233006   3.615   7.775   1.090 -0.6127  1.2905  1.7438
11025TIP3   OH233007   6.569   7.747   0.754  0.0821 -0.0443 -0.2993
11025TIP3    H133008   6.547   7.824   0.808  0.3136 -0.2107  0.0328
11025TIP3    H233009   6.505   7.749   0.683  0.4351  0.7682 -0.5932
11026TIP3   OH233010   0.836   3.955   5.837 -0.0049  0.8856  0.0849
11026TIP3    H133011   0.834   3.903   5.918  1.4492 -0.9066 -0.9795
11026TIP3    H233012   0.928   3.980   5.828 -0.4169  2.3495 -0.2677
11027TIP3   OH233013   4.983   7.679   2.849  0.4615 -0.2665 -0.6327
11027TIP3    H133014   4.924   7.605   2.862  0.1697 -0.3216 -2.1375
11027TIP3    H233015   4.943   7.750   2.899  0.6284 -1.0676  0.6399
11028TIP3   OH233016   0.340   4.534   6.016  0.0500 -0.9421  0.1493
11028TIP3    H133017   0.256   4.519   5.973 -1.1827  0.7420  1.8761
11028TIP3    H233018   0.333   4.488   6.099  0.5422 -0.1846  0.6247
11029TIP3   OH233019   1.461   3.259   6.347  0.4518 -0.0955 -0.5331
11029TIP3    H133020   1.371   3.273   6.377  0.7043 -2.2262  1.3197
11029TIP3    H233021   1.515   3.277   6.424  1.7370  2.1516 -1.8900
11030TIP3   OH233022   8.360   4.624   5.124 -0.1964 -0.3378 -0.2413
11030TIP3    H133023   8.427   4.671   5.074  0.6049 -1.9704 -0.7338
11030TIP3    H233024   8.388   4.630   5.215 -0.8139  1.2814 -0.1459
11031TIP3   OH233025   5.677   0.570   0.619 -0.0892  0.3845 -0.3410
11031TIP3    H133026   5.740   0.601   0.684  0.3624 -1.4723  0.1244
11031TIP3    H233027   5.729   0.554   0.540  0.2927 -2.3502  0.4120
11032TIP3   OH233028   0.203   1.246   2.074 -0.6849  0.3253  0.2648
11032TIP3    H133029   0.124   1.293   2.044  0.1863  2.6751  1.4924
11032TIP3    H233030   0.252   1.228   1.994 -1.8843 -0.0880 -0.3941
11033TIP3   OH233031   2.941   5.406   6.790 -0.1364  0.9027 -0.3640
11033TIP3    H133032   2.876   5.359   6.842  0.7311  0.4988  0.3780
11033TIP3    H233033   3.022   5.396   6.840  1.1938 -1.3198 -2.8423
11034TIP3   OH233034   7.068   1.766   2.866 -0.6754 -0.1920  0.0212
11034TIP3    H133035   7.065   1.852   2.824 -0.4464  1.1039  2.5760
11034TIP3    H233036   7.016   1.710   2.808 -0.4598  1.5238 -1.9237
11035TIP3   OH233037   6.864   0.251   1.326  0.0322 -0.3623 -0.3430
11035TIP3    H133038   6.778   0.259   1.368 -0.3070 -0.8116 -0.9512
11035TIP3    H233039   6.921   0.306   1.380 -0.8347  0.7137 -0.4843
11036TIP3   OH233040   8.077   3.844   6.279  0.5597  0.0237 -0.1668
11036TIP3    H133041   8.171   3.837   6.262  0.6311 -1.9701  0.8602
11036TIP3    H233042   8.038   3.778   6.221 -0.3768  1.9325 -1.7639
11037TIP3   OH233043   8.139   1.190   1.662  0.0583  0.1330  0.6031
11037TIP3    H133044   8.108   1.234   1.741 -2.2557  1.7218 -1.1257
11037TIP3    H233045   8.087   1.110   1.658 -0.0265  0.1904  0.5531
11038TIP3   OH233046   6.994   0.946   0.232 -0.9389  0.4013 -0.2922
11038TIP3    H133047   6.941   1.006   0.180  0.0323  3.0543  1.6796
11038TIP3    H233048   7.081   0.951   0.194 -0.9656 -0.1350 -0.4290
11039TIP3   OH233049   1.199   5.412   6.293 -0.5415  0.3483 -0.3818
11039TIP3    H133050   1.209   5.352   6.366 -0.8688 -0.8204 -1.2898
11039TIP3    H233051   1.262   5.482   6.311 -0.7626  0.1775  1.1139
11040TIP3   OH233052   0.075   5.098   6.305  0.3721  0.6959  0.1668
11040TIP3    H133053   0.052   5.188   6.282  1.2458  0.6031 -1.0708
11040TIP3    H233054   0.171   5.096   6.302  0.3225 -0.5720 -0.9567
11041TIP3   OH233055   0.262   4.409   6.235 -0.0541 -0.9714 -0.3057
11041TIP3    H133056   0.172   4.376   6.236 -0.6568  0.6445  0.3214
11041TIP3    H233057   0.306   4.362   6.305 -1.0658 -0.0133  0.9960
11042TIP3   OH233058   3.728   7.405   0.016 -0.1440 -0.2217 -0.4207
11042TIP3    H133059   3.767   7.388   0.102  1.1401 -0.8845 -1.1211
11042TIP3    H233060   3.663   7.473   0.032  0.5445  0.1238  0.9642
11043TIP3   OH233061   8.029   0.597   1.156 -0.2381  0.1799  0.0898
11043TIP3    H133062   8.086   0.673   1.146 -0.1003  0.1147  0.3596
11043TIP3    H233063   8.089   0.522   1.153 -0.4932  0.0268 -1.2414
11044TIP3   OH233064   4.687   6.622   0.406  0.1662 -0.3482  0.2013
11044TIP3    H133065   4.639   6.610   0.487 -0.5758 -0.9201 -0.3161
11044TIP3    H233066   4.727   6.709   0.414 -1.9497  0.6405  0.1409
11045TIP3   OH233067   7.731   0.577   1.678 -0.3973 -0.3177 -0.1521
11045TIP3    H133068   7.812   0.536   1.647 -1.2780 -1.2004 -1.3261
11045TIP3    H233069   7.694   0.618   1.600 -2.2453 -1.8989 -0.1239
11046TIP3   OH233070   0.977   6.003   6.056  0.3577 -0.0518 -0.3232
11046TIP3    H133071   0.938   6.006   5.969 -0.4634  0.4552  0.0595
11046TIP3    H233072   0.981   6.094   6.084  2.0382 -0.0624 -0.4415
11047TIP3   OH233073   7.221   0.423   0.173 -0.0017 -0.2703  0.1971
11047TIP3    H133074   7.290   0.358   0.184 -0.1402 -0.3637  0.5184
11047TIP3    H233075   7.238   0.463   0.088  1.4233  0.8973  1.0143
11048TIP3   OH233076   1.049   3.818   6.549 -0.5599  0.0365 -0.2273
11048TIP3    H133077   1.071   3.862   6.632 -0.0241 -1.0119  0.2086
11048TIP3    H233078   0.999   3.741   6.576 -1.0654  0.1141 -0.9418
11049TIP3   OH233079   0.496   5.487   6.232 -0.4738  0.6538 -0.4549
11049TIP3    H133080   0.555   5.414   6.212  1.0139  1.4036  1.0196
11049TIP3    H233081   0.463   5.516   6.147 -0.7408 -1.4264 -1.1007
11050TIP3   OH233082   0.681   3.964   5.592  0.1717 -0.2674 -0.3341
11050TIP3    H133083   0.728   4.017   5.528  0.6831 -0.5380 -0.1820
11050TIP3    H233084   0.741   3.955   5.666 -0.1003 -0.6375 -0.1531
11051TIP3   OH233085   6.042   7.686   3.049 -0.1150 -0.0831 -0.3941
11051TIP3    H133086   5.982   7.618   3.079  0.6537  0.0473  1.5100
11051TIP3    H233087   6.061   7.738   3.128 -1.2457  2.7838 -1.9551
11052TIP3   OH233088   7.931   4.025   6.412  0.1420 -0.3654  0.1229
11052TIP3    H133089   7.842   4.014   6.381  0.1063 -0.2067  0.1708
11052TIP3    H233090   7.976   3.945   6.384 -0.1259 -0.6480  0.4875
11053TIP3   OH233091   6.069   0.696   0.248  0.6551  0.5786 -0.2148
11053TIP3    H133092   6.081   0.617   0.302  1.4270  1.3595  0.7770
11053TIP3    H233093   6.142   0.752   0.272  0.2578  1.4924 -1.1233
11054TIP3   OH233094   5.757   0.282   2.186 -0.0223 -0.2093 -0.9887
11054TIP3    H133095   5.800   0.293   2.101 -0.3251  0.9694 -1.0022
11054TIP3    H233096   5.828   0.276   2.249  0.1825  0.2947 -1.1708
11055TIP3   OH233097   7.962   1.029   1.084 -0.2300 -0.1932  0.0248
11055TIP3    H133098   8.011   0.955   1.121  2.1893  0.4911 -1.6432
11055TIP3    H233099   7.918   0.992   1.008 -1.9047 -0.6871  1.2144
11056TIP3   OH233100   1.835   1.685   6.332  0.3124 -0.9236  0.2955
11056TIP3    H133101   1.930   1.682   6.322  0.2407 -0.0400 -0.7796
11056TIP3    H233102   1.821   1.690   6.427  1.4062  0.7246  0.3896
11057TIP3   OH233103   7.522   1.678   0.953  0.0178 -0.0468  0.2359
11057TIP3    H133104   7.551   1.705   1.040 -0.0976 -1.1896  0.6345
11057TIP3    H233105   7.495   1.587   0.963 -2.0646  0.4568 -0.5169
11058TIP3   OH233106   1.629   5.477   5.677  0.1445  0.5421 -0.3657
11058TIP3    H133107   1.724   5.469   5.672 -0.0113 -0.1138 -2.4491
11058TIP3    H233108   1.603   5.411   5.743  1.3048  2.3685  2.0039
11059TIP3   OH233109   1.038   1.028   2.262  0.3359 -0.2753 -0.1875
11059TIP3    H133110   0.942   1.031   2.261  0.3481  0.0360 -1.2095
11059TIP3    H233111   1.060   0.952   2.208  0.6776 -0.0374 -0.3857
11060TIP3   OH233112   4.750   0.412   0.037 -0.4160  0.2762  0.2813
11060TIP3    H133113   4.727   0.499   0.071 -3.8013 -0.3524 -0.1739
11060TIP3    H233114   4.729   0.418  -0.057 -0.0614 -0.8302  0.1312
11061TIP3   OH233115   0.038   3.255   5.001  0.0278  0.3424  0.2097
11061TIP3    H133116   0.087   3.330   5.036 -0.6502  1.6637 -1.5750
11061TIP3    H233117  -0.018   3.293   4.932 -0.4944 -1.7736 -0.5718
11062TIP3   OH233118   5.091   2.412   2.025 -0.1031 -0.4196  0.7368
11062TIP3    H133119   5.042   2.403   1.943 -0.1711  0.8665  0.6371
11062TIP3    H233120   5.026   2.400   2.094 -0.1756 -0.7739  0.6076
11063TIP3   OH233121   1.302   3.932   5.606 -0.3192 -0.1899  0.2842
11063TIP3    H133122   1.376   3.939   5.666 -0.3268 -1.5453  0.4593
11063TIP3    H233123   1.333   3.974   5.525  1.0825 -1.7832 -0.0407
11064TIP3   OH233124   1.335   1.195   2.001 -0.3997 -0.4334 -0.5391
11064TIP3    H133125   1.308   1.107   2.027 -0.4149 -0.9197 -2.1531
11064TIP3    H233126   1.286   1.213   1.921 -1.7395  1.7623  0.7124
11065TIP3   OH233127   0.746   2.941   5.852 -0.3747 -0.3692 -0.4293
11065TIP3    H133128   0.668   2.937   5.907 -1.5614 -1.0717 -2.1318
11065TIP3    H233129   0.753   2.854   5.813  1.2141 -0.2882 -0.3784
11066TIP3   OH233130   7.039   1.105   1.087  0.4871  0.3503  0.4632
11066TIP3    H133131   7.121   1.138   1.052  0.9395 -0.0553  1.1244
11066TIP3    H233132   7.026   1.153   1.169  0.5676 -0.2923  0.8558
11067TIP3   OH233133   3.243   0.267   0.396 -0.2290  0.1059  0.2536
11067TIP3    H133134   3.319   0.224   0.435  0.2927  2.1715  1.6161
11067TIP3    H233135   3.258   0.262   0.302  0.3352 -1.7150  0.4305
11068TIP3   OH233136   3.951   7.806   0.516 -0.1325  0.0902  0.2144
11068TIP3    H133137   3.872   7.831   0.467  0.4301  1.8351  0.1769
11068TIP3    H233138   3.929   7.826   0.607 -0.3078 -0.9470  0.4110
11069TIP3   OH233139   5.462   7.675   0.402 -0.3169  0.0580 -0.4131
11069TIP3    H133140   5.475   7.647   0.493  0.6129  2.1828  0.1331
11069TIP3    H233141   5.368   7.692   0.396 -0.1852  1.1764  0.5401
11070TIP3   OH233142   6.494   7.723   1.398  0.2302  0.1920 -0.1803
11070TIP3    H133143   6.425   7.657   1.391 -0.0944  0.2381  2.1697
11070TIP3    H233144   6.500   7.761   1.310 -1.2994 -1.2315 -0.9330
11071TIP3   OH233145   3.476   0.963   0.237  0.2773 -0.0560 -0.6622
11071TIP3    H133146   3.459   1.057   0.243  1.1278 -0.0013  1.3702
11071TIP3    H233147   3.571   0.955   0.247  0.1785 -1.1556 -0.5381
11072TIP3   OH233148   2.245   7.031   0.565 -0.3466  0.6884 -0.3897
11072TIP3    H133149   2.179   6.963   0.581 -0.6476  0.9334 -0.5848
11072TIP3    H233150   2.194   7.112   0.557  0.1380  1.2466  1.6830
11073TIP3   OH233151   7.881   1.597   2.211  0.5595 -0.3356 -0.6010
11073TIP3    H133152   7.962   1.634   2.246  1.2160 -1.7190 -0.6342
11073TIP3    H233153   7.841   1.551   2.285 -0.6251  1.0477 -0.3688
11074TIP3   OH233154   1.684   1.651   2.281 -0.2926  0.0698 -0.1854
11074TIP3    H133155   1.720   1.649   2.192  1.4959  1.4099  0.4834
11074TIP3    H233156   1.760   1.644   2.339 -1.3686 -0.0392  1.2452
11075TIP3   OH233157   4.324   6.922   3.838 -0.5291 -0.2883 -0.0468
11075TIP3    H133158   4.286   7.006   3.862 -0.2325  0.2620 -1.4740
11075TIP3    H233159   4.282   6.899   3.755  1.0701 -0.4165 -0.8411
11076TIP3   OH233160   7.191   0.201   1.937 -0.3068  0.0558  0.4056
11076TIP3    H133161   7.265   0.246   1.897 -0.4889 -1.0080 -1.1852
11076TIP3    H233162   7.118   0.216   1.877 -0.4477 -2.0256  0.0208
11077TIP3   OH233163   3.147   7.525   0.010  0.0033  0.1326  0.1844
11077TIP3    H133164   3.082   7.589   0.037  0.5747  1.3099 -1.1834
11077TIP3    H233165   3.221   7.540   0.069  0.7165  1.7712 -1.0863
11078TIP3   OH233166   7.468   1.117   2.923  0.0323 -0.1272  0.2017
11078TIP3    H133167   7.386   1.135   2.878 -1.9029 -0.3293  3.4712
11078TIP3    H233168   7.467   1.022   2.937  0.5957 -0.0709  0.6431
11079TIP3   OH233169   5.248   0.504   0.140 -0.0108  0.3567  0.1340
11079TIP3    H133170   5.307   0.515   0.065  1.4187 -0.5206  1.1047
11079TIP3    H233171   5.174   0.456   0.104  0.4737  0.2905 -0.8131
11080TIP3   OH233172   7.278   5.224   3.628 -0.3047 -0.1482  0.2395
11080TIP3    H133173   7.217   5.293   3.602 -0.3546 -1.5479 -3.6799
11080TIP3    H233174   7.364   5.266   3.627 -0.6460  0.5670  0.7638
11081TIP3   OH233175   2.789   5.742   5.838  0.7391 -0.1191 -0.2889
11081TIP3    H133176   2.802   5.666   5.781  0.5218 -0.4043  0.0365
11081TIP3    H233177   2.827   5.715   5.922  0.4327  0.0341 -0.1004
11082TIP3   OH233178   1.258   5.582   5.161 -0.4167  0.1631 -0.1781
11082TIP3    H133179   1.350   5.605   5.177  0.2070 -1.2621 -1.5754
11082TIP3    H233180   1.208   5.643   5.215  1.3175  1.6796 -0.2458
11083TIP3   OH233181   0.794   1.218   3.253 -0.2173  0.3493  0.0315
11083TIP3    H133182   0.762   1.298   3.210 -0.4775  0.7856  1.0249
11083TIP3    H233183   0.715   1.171   3.280 -0.0647 -0.2519 -0.5553
11084TIP3   OH233184   1.756   4.601   5.877  0.6125  0.0926  0.4608
11084TIP3    H133185   1.748   4.521   5.930  1.5036 -1.8125 -2.2250
11084TIP3    H233186   1.841   4.636   5.901 -0.0488  0.6489  2.1327
11085TIP3   OH233187   2.984   3.835   6.260  0.5091  0.2525 -0.2609
11085TIP3    H133188   2.963   3.863   6.171  0.0339 -0.8140 -0.4923
11085TIP3    H233189   3.047   3.900   6.292 -0.4977  1.5024 -0.8129
11086TIP3   OH233190   4.176   7.151   0.174 -0.2539 -0.4087 -0.1616
11086TIP3    H133191   4.184   7.231   0.225 -3.2960  1.4927 -2.4626
11086TIP3    H233192   4.102   7.105   0.212 -0.7227 -0.3912 -1.0350
11087TIP3   OH233193   0.877   7.462   6.346 -0.1107 -0.1546 -0.2889
11087TIP3    H133194   0.915   7.396   6.288  1.1626  1.4896 -1.3890
11087TIP3    H233195   0.876   7.542   6.294 -1.8664  0.6444  0.9320
11088TIP3   OH233196   7.525   0.632   0.770 -0.7262 -0.6133  0.0248
11088TIP3    H133197   7.520   0.629   0.674 -1.7680 -0.1514  0.0595
11088TIP3    H233198   7.507   0.723   0.792 -1.3816 -0.8988  0.7000
11089TIP3   OH233199   4.958   7.201   0.094 -0.2492  0.1624 -0.3787
11089TIP3    H133200   5.005   7.252   0.160  0.5841  0.5736 -1.2771
11089TIP3    H233201   4.866   7.220   0.110 -0.0913 -0.3436  1.1481
11090TIP3   OH233202   8.242   1.423   0.909 -0.2935  0.1156 -0.2808
11090TIP3    H133203   8.157   1.382   0.894  0.0241 -0.4804 -0.4590
11090TIP3    H233204   8.221   1.511   0.939 -0.9759 -0.0665 -0.2138
11091TIP3   OH233205   3.279   1.802   6.043 -0.1460  0.1769 -0.1230
11091TIP3    H133206   3.342   1.770   5.979  0.1261 -0.3560  0.4052
11091TIP3    H233207   3.317   1.777   6.128 -0.9333  0.0945  0.2075
11092TIP3   OH233208   6.851   7.519   2.147  0.2509 -0.2797 -0.1375
11092TIP3    H133209   6.788   7.519   2.075  0.7012 -0.7845 -0.5410
11092TIP3    H233210   6.872   7.611   2.161  0.4787 -0.2009 -0.9395
11093TIP3   OH233211   0.594   4.090   6.159  0.8488 -0.3419 -0.5527
11093TIP3    H133212   0.634   4.117   6.077  0.2499  0.1314 -0.6930
11093TIP3    H233213   0.568   4.172   6.202  1.5881 -0.5554  0.3346
11094TIP3   OH233214   6.380   7.240   1.162  0.2278  0.4451  0.2390
11094TIP3    H133215   6.383   7.210   1.072  1.1000 -2.4979  1.2026
11094TIP3    H233216   6.461   7.290   1.172  1.0275 -0.7559 -0.1132
11095TIP3   OH233217   3.408   6.853   0.558  0.0759 -0.1449 -0.3754
11095TIP3    H133218   3.405   6.891   0.471 -0.1077 -0.4605 -0.5074
11095TIP3    H233219   3.499   6.865   0.587  0.0552  0.2521 -0.4762
11096TIP3   OH233220   7.741   1.250   0.979  0.1018 -0.2090  0.4576
11096TIP3    H133221   7.698   1.226   1.061  0.0120 -0.1996  0.4141
11096TIP3    H233222   7.758   1.166   0.935  0.3875 -0.2273  0.6049
11097TIP3   OH233223   0.265   0.650   3.341  0.0774 -0.4785  0.2735
11097TIP3    H133224   0.244   0.710   3.270 -1.9417  0.3745  1.5318
11097TIP3    H233225   0.343   0.687   3.382  0.4050 -0.1947 -0.6161
11098TIP3   OH233226   0.781   1.266   0.634  0.2452 -0.9623  0.0198
11098TIP3    H133227   0.824   1.342   0.672  1.9529 -1.0971 -1.5631
11098TIP3    H233228   0.791   1.197   0.700  0.0809 -0.2527  0.7885
11099TIP3   OH233229   8.047   3.725   6.676 -0.3114  0.0496  0.1051
11099TIP3    H133230   8.128   3.722   6.626 -0.9024  0.2675 -0.8655
11099TIP3    H233231   8.038   3.636   6.712 -0.7808 -0.6223 -1.6066
11100TIP3   OH233232   7.368   7.101   1.575  0.1793  0.6196 -0.0531
11100TIP3    H133233   7.424   7.084   1.499 -1.1986 -1.9070 -0.5412
11100TIP3    H233234   7.293   7.148   1.538 -0.6401 -0.8841 -0.3336
11101TIP3   OH233235   2.605   4.731   5.362  0.1863 -0.3640  0.2082
11101TIP3    H133236   2.643   4.683   5.435  1.0631 -1.5665 -1.0367
11101TIP3    H233237   2.549   4.668   5.318  1.5459 -0.3339 -1.5884
11102TIP3   OH233238   8.223   4.112   4.768 -0.1869  0.0193 -0.4976
11102TIP3    H133239   8.265   4.051   4.706  0.4755  0.9649 -1.0032
11102TIP3    H233240   8.142   4.068   4.793 -0.1391 -0.6896 -1.5221
11103TIP3   OH233241   7.533   2.728   1.303 -0.4261 -0.0305 -0.5122
11103TIP3    H133242   7.484   2.693   1.377 -1.5550  0.9522 -0.7837
11103TIP3    H233243   7.536   2.657   1.239 -1.5130 -0.0833 -0.5044
11104TIP3   OH233244   5.461   0.786   1.121  0.1378  0.0347  0.5862
11104TIP3    H133245   5.385   0.756   1.071  0.7298 -0.1317 -0.2293
11104TIP3    H233246   5.516   0.831   1.057  0.6176  0.3585  1.2185
11105TIP3   OH233247   6.333   1.782   0.448  0.1859 -0.2171  0.3085
11105TIP3    H133248   6.365   1.692   0.445  1.1610  0.0936  1.1302
11105TIP3    H233249   6.292   1.796   0.363  0.2485 -1.3530  0.0847
11106TIP3   OH233250   6.952   1.687   1.673 -0.5546 -0.6567 -0.0339
11106TIP3    H133251   6.859   1.670   1.687 -0.5049 -1.8692 -1.0809
11106TIP3    H233252   6.994   1.602   1.689  0.3926 -0.0719  0.6031
11107TIP3   OH233253   6.002   6.533   1.083  0.0299  0.0645 -0.4868
11107TIP3    H133254   6.086   6.556   1.124  1.0390 -1.4565 -1.6243
11107TIP3    H233255   5.943   6.603   1.109  2.2105  2.3318 -1.3984
11108TIP3   OH233256   7.411   2.132   0.887 -0.1385 -0.0239  0.8565
11108TIP3    H133257   7.478   2.195   0.914  0.5276 -0.3748  0.0686
11108TIP3    H233258   7.345   2.185   0.842 -0.2557  0.2917  1.4001
11109TIP3   OH233259   8.342   5.272   6.517  0.0593 -0.3620  0.2637
11109TIP3    H133260   8.431   5.241   6.532 -0.1822  0.3885  3.6444
11109TIP3    H233261   8.286   5.214   6.569 -1.2803  0.1352 -0.5737
11110TIP3   OH233262   6.676   1.615   1.686 -0.3174  0.1298 -0.3471
11110TIP3    H133263   6.637   1.695   1.721 -0.0638  0.5788 -1.0779
11110TIP3    H233264   6.601   1.563   1.657 -0.4397  0.5031 -0.7148
11111TIP3   OH233265   5.967   1.492   0.118 -0.4104  0.1017  0.1401
11111TIP3    H133266   6.049   1.536   0.096 -0.1133  0.8529  2.5633
11111TIP3    H233267   5.905   1.523   0.052  0.5246  1.8930  0.0546
11112TIP3   OH233268   5.415   7.067   1.459  0.3586  0.0364 -0.1549
11112TIP3    H133269   5.356   7.082   1.386  0.5022 -0.6065 -0.4154
11112TIP3    H233270   5.361   7.076   1.537 -0.5336 -2.4003 -0.4440
11113TIP3   OH233271   5.853   0.038   2.703  0.2464  0.0207  0.4693
11113TIP3    H133272   5.801   0.047   2.623 -0.4648 -1.0008  0.8030
11113TIP3    H233273   5.816  -0.038   2.747  1.7123 -0.4332  0.9581
11114TIP3   OH233274   5.564   7.689   0.782 -0.2921 -0.0747  0.2813
11114TIP3    H133275   5.617   7.615   0.753  3.4940  3.2719 -1.7182
11114TIP3    H233276   5.620   7.737   0.843 -2.4582  1.5380  1.0775
11115TIP3   OH233277   1.545   4.605   5.557 -0.9050  0.7650  0.0669
11115TIP3    H133278   1.491   4.557   5.620  0.9812  0.5334  1.5403
11115TIP3    H233279   1.542   4.696   5.588  0.1076  0.6342  0.5332
11116TIP3   OH233280   0.244   0.320   0.707 -0.5089 -0.2379 -0.6712
11116TIP3    H133281   0.166   0.327   0.762 -0.7681  0.0573 -1.0745
11116TIP3    H233282   0.256   0.408   0.672  0.9834  0.1243  0.7188
11117TIP3   OH233283   1.070   3.534   6.385  0.0115  0.0147  0.7477
11117TIP3    H133284   1.042   3.592   6.314  0.3254  1.7810  2.0512
11117TIP3    H233285   0.992   3.525   6.440  0.4336  0.5470  1.4404
11118TIP3   OH233286   7.762   4.515   5.550  0.5491  0.1684 -0.3370
11118TIP3    H133287   7.855   4.498   5.539  0.8239  0.2667  1.6872
11118TIP3    H233288   7.757   4.595   5.602 -0.6037 -1.2318  1.7983
11119TIP3   OH233289   2.513   5.788   5.941 -0.0664  0.1747  0.6038
11119TIP3    H133290   2.525   5.756   6.030 -1.2427  0.4969  0.8939
11119TIP3    H233291   2.593   5.764   5.895  1.0730  1.1151  2.0802
11120TIP3   OH233292   6.020   0.859   1.173  0.5312  0.6159  0.0863
11120TIP3    H133293   5.934   0.901   1.179  0.4725  0.4584  0.3358
11120TIP3    H233294   6.061   0.873   1.259  0.0744 -0.7803  0.5526
11121TIP3   OH233295   4.384   7.347   0.673 -0.1130  0.3119 -1.0337
11121TIP3    H133296   4.466   7.310   0.640  0.6699  1.3484 -0.2584
11121TIP3    H233297   4.364   7.419   0.614 -0.6021 -0.0949 -1.3694
11122TIP3   OH233298   3.323   7.635   0.177  0.0827  0.2059 -0.3290
11122TIP3    H133299   3.318   7.731   0.169  0.2036  0.1822 -0.6989
11122TIP3    H233300   3.417   7.617   0.184  0.1028  0.0579 -0.9800
11123TIP3   OH233301   2.013   6.307   0.696  0.6356  0.2011  0.2154
11123TIP3    H133302   2.069   6.350   0.762 -0.0817  1.1495  0.2156
11123TIP3    H233303   1.930   6.293   0.742  0.9133 -1.3580  0.2662
11124TIP3   OH233304   0.625   4.562   5.564 -0.2045  0.2072 -0.0264
11124TIP3    H133305   0.572   4.490   5.597 -0.1577 -0.7085 -1.9056
11124TIP3    H233306   0.635   4.544   5.471 -0.0686  2.5708 -0.4997
11125TIP3   OH233307   2.031   5.801   0.526 -0.1397  0.3780  0.5484
11125TIP3    H133308   2.012   5.864   0.596  3.1321  2.3903 -0.2547
11125TIP3    H233309   1.955   5.806   0.468 -0.2892  3.1130  0.8967
11126TIP3   OH233310   7.100   1.042   1.986 -0.1046 -0.2553  0.2787
11126TIP3    H133311   7.092   1.056   1.892  0.3583 -2.1163 -0.0537
11126TIP3    H233312   7.143   1.121   2.019  0.4646  0.0545 -1.1840
11127TIP3   OH233313   0.041   0.935   0.094  0.0543  0.2070  0.4630
11127TIP3    H133314  -0.023   0.898   0.155  0.1612 -0.4114  0.2058
11127TIP3    H233315  -0.003   1.012   0.057 -0.5368 -0.1993  0.3062
11128TIP3   OH233316   4.985   5.716   5.588  0.2942 -0.0582 -0.1872
11128TIP3    H133317   5.038   5.744   5.663  1.2086 -1.5368 -0.2759
11128TIP3    H233318   5.049   5.698   5.519 -0.3260 -1.7238 -0.3432
11129TIP3   OH233319   2.235   0.868   0.363  0.2530 -0.3331  0.2644
11129TIP3    H133320   2.156   0.863   0.309  0.0572  0.3697  0.4813
11129TIP3    H233321   2.207   0.914   0.442  1.2905  1.5254 -0.4327
11130TIP3   OH233322   2.499   3.379   6.822 -0.1264  0.0393 -0.0470
11130TIP3    H133323   2.416   3.384   6.774 -0.3731 -0.7740  0.2860
11130TIP3    H233324   2.544   3.304   6.784  0.0968 -0.0150  0.3223
11131TIP3   OH233325   4.178   6.705   6.884 -0.0128  0.3605 -0.4823
11131TIP3    H133326   4.248   6.656   6.842  0.3761 -0.9689  1.6364
11131TIP3    H233327   4.206   6.713   6.975 -3.0539 -1.0694  0.6493
11132TIP3   OH233328   7.378   1.563   1.297  0.1651  0.3109  0.7791
11132TIP3    H133329   7.437   1.492   1.321 -0.9940 -0.6977  0.6638
11132TIP3    H233330   7.309   1.561   1.364 -1.9444 -1.1563 -1.3458
11133TIP3   OH233331   2.499   4.473   6.675 -0.6566  0.2528 -0.8749
11133TIP3    H133332   2.523   4.517   6.593  0.5033 -0.3018 -0.8462
11133TIP3    H233333   2.542   4.525   6.743  0.0544 -0.4284 -0.7833
11134TIP3   OH233334   4.860   7.992   1.009 -0.2935 -0.1780  0.4677
11134TIP3    H133335   4.920   8.040   0.952 -0.1530 -0.3372  0.4821
11134TIP3    H233336   4.916   7.957   1.079 -0.0160 -2.2748 -0.7505
11135TIP3   OH233337   5.771   0.054   3.554 -0.5976  0.4434 -0.2697
11135TIP3    H133338   5.702  -0.008   3.575 -1.1565  0.9080 -0.7209
11135TIP3    H233339   5.849  -0.000   3.541 -0.6829 -0.0071  1.0733
11136TIP3   OH233340   0.110   0.688   1.250 -0.1379  0.2873  0.3228
11136TIP3    H133341   0.066   0.661   1.170 -0.0328  0.3449  0.2459
11136TIP3    H233342   0.096   0.615   1.310  1.7353 -0.7710 -0.4819
11137TIP3   OH233343   7.057   7.251   0.339 -0.0625  0.3886 -0.1445
11137TIP3    H133344   7.056   7.179   0.402 -2.9425 -0.7173 -1.3274
11137TIP3    H233345   7.068   7.329   0.392  0.1975 -0.7232  1.4791
11138TIP3   OH233346   3.413   4.663   6.762 -0.5714 -0.1341 -0.0304
11138TIP3    H133347   3.435   4.570   6.758 -0.3732 -0.0760 -0.3081
11138TIP3    H233348   3.415   4.692   6.671  0.2487  0.3467  0.1429
11139TIP3   OH233349   7.468   6.142   0.489 -0.4737  0.0242 -0.0350
11139TIP3    H133350   7.484   6.177   0.577 -0.4772  0.5406 -0.2365
11139TIP3    H233351   7.465   6.047   0.501 -0.3814  0.0870  0.5079
11140TIP3   OH233352   2.521   3.655   5.861  0.2394 -0.7195  0.8579
11140TIP3    H133353   2.585   3.667   5.931 -0.5159 -3.4084  2.0477
11140TIP3    H233354   2.555   3.581   5.810  0.1424  0.4234 -0.9179
11141TIP3   OH233355   3.235   3.244   6.744 -0.7381 -0.4604 -0.0576
11141TIP3    H133356   3.321   3.286   6.739 -0.7611 -0.4106 -0.0458
11141TIP3    H233357   3.229   3.191   6.665 -0.7622 -0.3352 -0.1421
11142TIP3   OH233358   3.276   2.910   5.022 -0.2297 -0.3657  0.8332
11142TIP3    H133359   3.308   2.849   4.955  0.6219  0.2408  0.6806
11142TIP3    H233360   3.191   2.938   4.989  0.6846  0.8235 -0.6191
11143TIP3   OH233361   4.053   4.403   5.719 -0.1533 -0.0212  0.9067
11143TIP3    H133362   3.983   4.360   5.671 -0.3722  0.2548  0.9810
11143TIP3    H233363   4.012   4.479   5.760  0.0658 -0.1631  1.3953
11144TIP3   OH233364   2.461   7.491   6.510  0.0212  0.5415  0.1829
11144TIP3    H133365   2.503   7.446   6.437  1.8367 -0.0170  1.5334
11144TIP3    H233366   2.389   7.540   6.470  0.3788 -0.5276 -1.8259
11145TIP3   OH233367   3.796   6.751   6.191 -0.1954  0.3834 -0.1862
11145TIP3    H133368   3.785   6.736   6.285  0.4409  0.5414 -0.0811
11145TIP3    H233369   3.885   6.719   6.173 -0.4624 -0.0048 -0.8092
11146TIP3   OH233370   2.891   4.883   6.462 -0.1762  0.2931 -0.7124
11146TIP3    H133371   2.931   4.828   6.396  0.9914  0.2333  0.0244
11146TIP3    H233372   2.798   4.861   6.460 -0.0311 -0.2014 -1.8413
11147TIP3   OH233373   1.297   1.178   1.456 -0.2010 -0.4126 -0.1065
11147TIP3    H133374   1.380   1.155   1.416 -0.4200 -0.6949 -0.4077
11147TIP3    H233375   1.232   1.160   1.388 -0.2499  2.6023 -0.8934
11148TIP3   OH233376   4.057   6.794   5.981  0.2575 -0.1726 -0.2926
11148TIP3    H133377   4.125   6.828   5.921  0.8556 -1.3901 -0.3170
11148TIP3    H233378   3.975   6.817   5.938  0.6741 -0.3618 -1.2197
11149TIP3   OH233379   3.885   4.185   6.268  0.4983 -0.1109 -0.0043
11149TIP3    H133380   3.809   4.195   6.326 -0.4435 -2.0057 -0.8594
11149TIP3    H233381   3.890   4.268   6.221 -1.7439 -0.3420 -0.7317
11150TIP3   OH233382   3.571   5.273   4.688 -0.2427  0.2443  0.2590
11150TIP3    H133383   3.639   5.210   4.665 -0.2921  0.7553 -1.3399
11150TIP3    H233384   3.489   5.225   4.680 -0.3453  0.7130 -1.8137
11151TIP3   OH233385   1.917   5.833   5.110  0.0499 -1.0033  0.0929
11151TIP3    H133386   1.833   5.786   5.113 -0.7222  0.4495  1.8865
11151TIP3    H233387   1.947   5.835   5.201  1.6389 -0.7898 -0.4224
11152TIP3   OH233388   5.357   2.095   6.293  0.0642 -0.0314  0.8159
11152TIP3    H133389   5.352   2.033   6.366 -0.5568 -0.2480  0.5970
11152TIP3    H233390   5.409   2.050   6.227  0.5884  0.1455  1.1054
11153TIP3   OH233391   3.630   3.684   5.443  0.8383 -0.1519 -0.5391
11153TIP3    H133392   3.619   3.675   5.349  0.2537  1.5563 -0.6625
11153TIP3    H233393   3.724   3.701   5.455  0.7595  0.5627 -0.9065
11154TIP3   OH233394   3.389   5.744   4.805 -0.2165 -0.3517  0.0317
11154TIP3    H133395   3.350   5.659   4.822  2.1624 -2.0265 -2.4619
11154TIP3    H233396   3.319   5.795   4.764 -0.5077 -2.5087 -2.2553
11155TIP3   OH233397   4.751   7.712   5.887 -0.5968 -0.2613 -0.1559
11155TIP3    H133398   4.747   7.805   5.865 -1.0022 -0.0260  0.9062
11155TIP3    H233399   4.844   7.691   5.884 -0.1353  1.0582  3.1820
11156TIP3   OH233400   6.912   1.875   1.906 -0.3145  0.0952 -0.6491
11156TIP3    H133401   6.943   1.801   1.854  0.6400 -0.4026  0.5831
11156TIP3    H233402   6.822   1.889   1.877  0.0298 -0.5159 -2.0269
11157TIP3   OH233403   1.851   4.795   6.514  0.3807 -0.0535 -0.1626
11157TIP3    H133404   1.785   4.831   6.573  1.2013  1.2416 -0.0160
11157TIP3    H233405   1.906   4.740   6.571  0.9682  0.9245  0.2231
11158TIP3   OH233406   3.677   4.827   4.899 -0.0849  0.2969 -0.6167
11158TIP3    H133407   3.640   4.834   4.811  0.8195  1.3561 -0.9214
11158TIP3    H233408   3.744   4.895   4.902 -1.3214  1.4435  1.5009
11159TIP3   OH233409   1.401   5.067   6.258  0.4492 -0.2286  0.4050
11159TIP3    H133410   1.454   4.987   6.251  1.4884  0.5335 -0.4723
11159TIP3    H233411   1.392   5.098   6.168  0.0925  0.6783  0.7485
11160TIP3   OH233412   0.182   1.269   1.594 -0.2527  0.2710  0.0272
11160TIP3    H133413   0.088   1.277   1.610 -0.0294  0.4525  1.2628
11160TIP3    H233414   0.223   1.310   1.670  0.8336  1.3790 -1.1267
11161TIP3   OH233415   4.620   4.113   6.365  0.5840  0.0480 -0.9226
11161TIP3    H133416   4.613   4.204   6.336  2.2677  0.5549  0.2059
11161TIP3    H233417   4.691   4.076   6.312  0.3043 -0.4452 -0.9576
11162TIP3   OH233418   2.715   3.009   5.985  0.2285 -0.4059  0.1495
11162TIP3    H133419   2.627   3.037   6.011 -0.0626 -1.0889 -0.0902
11162TIP3    H233420   2.728   3.045   5.897  0.2449 -0.1951  0.2369
11163TIP3   OH233421   3.032   5.150   6.454  0.2940 -0.4156  0.1955
11163TIP3    H133422   2.983   5.068   6.450  0.5233 -0.4846 -1.1794
11163TIP3    H233423   3.045   5.175   6.363 -0.5768  1.6450  0.6231
11164TIP3   OH233424   2.914   5.168   5.614 -0.1595 -0.4511 -0.2945
11164TIP3    H133425   2.954   5.223   5.682 -0.1311 -1.5302  0.5568
11164TIP3    H233426   2.944   5.208   5.532 -0.4451  1.0406  0.3046
11165TIP3   OH233427   3.184   5.302   5.152 -0.1855  0.4393  0.0755
11165TIP3    H133428   3.207   5.229   5.095  0.5908  0.8449 -0.1338
11165TIP3    H233429   3.194   5.380   5.097  1.4943  0.9167  1.0251
11166TIP3   OH233430   8.448   0.900   0.794  0.5874 -0.7467  0.2625
11166TIP3    H133431   8.416   0.937   0.876  1.8643  0.1798  0.3542
11166TIP3    H233432   8.432   0.806   0.802 -1.8211 -0.3601  0.4095
11167TIP3   OH233433   2.197   3.449   5.004 -0.3455  0.2111  0.0861
11167TIP3    H133434   2.208   3.541   4.979 -0.3886  0.3015  0.3965
11167TIP3    H233435   2.164   3.406   4.926 -0.2919  0.4548 -0.0698
11168TIP3   OH233436   2.654   4.306   6.953  0.7307  0.4279  0.4059
11168TIP3    H133437   2.590   4.274   6.890  0.7998  0.6774  0.2048
11168TIP3    H233438   2.715   4.233   6.965 -0.6592 -0.4823  2.0460
11169TIP3   OH233439   1.552   3.656   6.564 -0.5256  0.4070  0.0097
11169TIP3    H133440   1.618   3.671   6.497  0.0073 -3.3422 -0.4006
11169TIP3    H233441   1.505   3.578   6.534  0.2971 -1.9251  4.3771
11170TIP3   OH233442   4.192   5.674   6.772 -0.0101 -0.5165 -0.2341
11170TIP3    H133443   4.252   5.655   6.844  1.7757 -1.2098 -1.8670
11170TIP3    H233444   4.188   5.594   6.721 -0.6993  0.1813 -1.3085
11171TIP3   OH233445   4.237   2.980   6.038  0.7227 -0.2662  0.9452
11171TIP3    H133446   4.250   2.948   6.128  0.7697 -0.0117  1.0275
11171TIP3    H233447   4.314   2.948   5.991 -0.2366 -2.0520  0.5496
11172TIP3   OH233448   1.786   4.219   6.790  0.0312 -0.1737  0.1941
11172TIP3    H133449   1.818   4.302   6.755 -1.0364 -0.0113 -0.4062
11172TIP3    H233450   1.853   4.193   6.854  0.0058  1.5124  0.9326
11173TIP3   OH233451   5.677   6.682   5.748 -0.1486 -0.5544  0.1452
11173TIP3    H133452   5.649   6.648   5.663 -0.0918  0.3109 -0.2273
11173TIP3    H233453   5.606   6.659   5.808 -0.4465 -0.6734 -0.2487
11174TIP3   OH233454   8.102   1.523   0.598 -0.5553  0.5033 -0.1035
11174TIP3    H133455   8.025   1.580   0.602 -1.9095 -1.3632  2.4345
11174TIP3    H233456   8.077   1.453   0.537 -0.4118  0.5420 -0.2063
11175TIP3   OH233457   3.819   5.512   6.462 -0.5875 -0.1048  0.1269
11175TIP3    H133458   3.914   5.508   6.475 -0.6032  0.5254  0.4270
11175TIP3    H233459   3.808   5.505   6.367 -0.2532 -0.3570  0.1051
11176TIP3   OH233460   2.658   0.810   1.175 -0.3547  0.2163 -0.3022
11176TIP3    H133461   2.673   0.717   1.157 -0.6172  0.2531 -0.7355
11176TIP3    H233462   2.634   0.813   1.267 -3.0705 -0.4920 -0.9209
11177TIP3   OH233463   3.265   6.479   6.248 -0.3559  0.2364 -0.3649
11177TIP3    H133464   3.178   6.487   6.210  0.7715  2.8951 -2.5666
11177TIP3    H233465   3.317   6.436   6.181  0.4173  0.1499  0.2763
11178TIP3   OH233466   3.225   6.175   4.640 -0.2289 -0.8458 -0.0628
11178TIP3    H133467   3.290   6.229   4.596 -0.1196 -1.0463 -0.1498
11178TIP3    H233468   3.158   6.237   4.670 -0.7740 -0.8103 -1.3246
11179TIP3   OH233469   4.033   5.873   6.256  0.1436 -0.0260 -0.0073
11179TIP3    H133470   3.967   5.916   6.310 -0.8323 -1.5659  0.0507
11179TIP3    H233471   4.046   5.932   6.181 -3.0029 -0.7798 -1.2211
11180TIP3   OH233472   1.936   5.552   5.132  0.1269 -0.3354  0.1003
11180TIP3    H133473   1.945   5.646   5.146  1.4548 -0.4344 -0.0559
11180TIP3    H233474   1.847   5.542   5.098 -0.4772  0.7177  1.3335
11181TIP3   OH233475   3.104   6.191   5.972 -0.3014 -0.9263  1.1186
11181TIP3    H133476   3.162   6.126   5.931 -1.3583 -2.1902  1.5675
11181TIP3    H233477   3.115   6.270   5.920 -0.4018 -2.0252 -0.6280
11182TIP3   OH233478   4.479   5.365   4.668  0.1752  0.6157 -0.3035
11182TIP3    H133479   4.407   5.400   4.720  0.0680  0.4196 -0.3187
11182TIP3    H233480   4.546   5.434   4.669  0.6251  0.1740  1.0140
11183TIP3   OH233481   3.394   4.134   5.226 -0.8388 -0.0839 -0.0021
11183TIP3    H133482   3.424   4.052   5.265  1.7354  0.6852 -0.2728
11183TIP3    H233483   3.362   4.109   5.140 -0.4623 -0.8896  0.0810
11184TIP3   OH233484   0.656   0.181   1.590  0.1436  0.3402  0.1694
11184TIP3    H133485   0.620   0.254   1.541  0.2769 -0.0840 -0.5659
11184TIP3    H233486   0.740   0.162   1.547 -0.4278 -0.9961 -0.3711
11185TIP3   OH233487   5.580   6.964   1.766 -0.3090  0.6975  0.0391
11185TIP3    H133488   5.561   6.872   1.785 -1.0861  0.6522 -0.9257
11185TIP3    H233489   5.595   6.966   1.671 -0.2343  1.5615  0.0697
11186TIP3   OH233490   5.360   6.467   6.050 -0.1124 -0.6542 -0.5946
11186TIP3    H133491   5.380   6.377   6.025 -0.7573 -0.8227 -0.5238
11186TIP3    H233492   5.283   6.460   6.107 -0.2260 -0.0535 -0.6619
11187TIP3   OH233493   3.821   2.545   3.173  0.0918  0.5737  0.1240
11187TIP3    H133494   3.812   2.510   3.262 -1.6552  0.1145 -0.2279
11187TIP3    H233495   3.733   2.573   3.149  0.5415  0.6088 -1.5142
11188TIP3   OH233496   0.677   4.753   5.747 -0.3638 -0.0173  0.3023
11188TIP3    H133497   0.701   4.694   5.819 -0.5057  0.4672  0.7497
11188TIP3    H233498   0.666   4.695   5.672  3.2695 -0.1605 -0.2077
11189TIP3   OH233499   1.365   0.570   1.129  0.1706 -0.6137 -0.1273
11189TIP3    H133500   1.339   0.545   1.218 -0.0505 -0.3241 -0.1115
11189TIP3    H233501   1.377   0.665   1.133  0.7236 -0.6738 -0.2648
11190TIP3   OH233502   2.602   5.078   5.445  0.1792  0.3366 -0.0744
11190TIP3    H133503   2.605   5.095   5.539  0.4125  3.9471 -0.6838
11190TIP3    H233504   2.692   5.092   5.415 -0.4136  1.7574 -1.2334
11191TIP3   OH233505   2.640   1.507   1.155 -0.5591  0.3703 -0.0044
11191TIP3    H133506   2.617   1.506   1.248 -0.2553  0.8580  0.0778
11191TIP3    H233507   2.556   1.507   1.109 -0.7103 -1.5396  0.2395
11192TIP3   OH233508   2.240   0.568   2.756  0.2868  0.1295  0.3889
11192TIP3    H133509   2.289   0.611   2.825  1.2123  1.4545 -1.0771
11192TIP3    H233510   2.150   0.601   2.766  0.5899  0.9414  0.4487
11193TIP3   OH233511   2.410   4.491   6.255 -0.5188 -0.0657 -1.1218
11193TIP3    H133512   2.421   4.473   6.162  1.6609 -1.6514 -0.5901
11193TIP3    H233513   2.360   4.417   6.289  2.4659 -1.7644 -0.2512
11194TIP3   OH233514   5.895   7.908   1.175 -0.2935  0.4107 -0.5308
11194TIP3    H133515   5.809   7.904   1.217 -0.1997  0.7672 -0.3028
11194TIP3    H233516   5.884   7.972   1.104 -1.0187 -1.6730 -2.3719
11195TIP3   OH233517   2.490   4.438   6.010  0.1079 -0.1714  0.1488
11195TIP3    H133518   2.489   4.504   5.941  0.3108 -0.5314 -0.2011
11195TIP3    H233519   2.467   4.356   5.965  0.5979 -0.4685  0.4436
11196TIP3   OH233520   3.210   3.779   4.242  0.4401 -0.0935 -0.6585
11196TIP3    H133521   3.166   3.864   4.241  0.7170  0.0491 -0.8626
11196TIP3    H233522   3.300   3.798   4.215  1.5526  0.1375  3.0393
11197TIP3   OH233523   8.353   0.528   0.320  0.2301 -0.8033 -0.3095
11197TIP3    H133524   8.372   0.466   0.390  0.6152 -0.4888 -0.1315
11197TIP3    H233525   8.401   0.495   0.244 -0.0597 -1.0565 -0.3817
11198TIP3   OH233526   2.656   4.755   5.040 -0.2050 -0.0210  0.0610
11198TIP3    H133527   2.590   4.687   5.059  0.0946 -0.8594 -1.7776
11198TIP3    H233528   2.730   4.732   5.095 -0.0147 -1.3754 -0.7114
11199TIP3   OH233529   2.124   1.310   1.004  0.1439 -0.4459  0.4164
11199TIP3    H133530   2.130   1.226   1.050  0.6182  0.0778  1.3501
11199TIP3    H233531   2.208   1.319   0.959 -0.6396 -1.3406 -1.2565
11200TIP3   OH233532   1.908   3.656   5.734  0.0697 -0.3535  0.0615
11200TIP3    H133533   1.919   3.568   5.770  0.8773  0.2698  1.4080
11200TIP3    H233534   1.814   3.673   5.741 -0.0547 -1.0120  0.0285
11201TIP3   OH233535   3.375   4.420   3.254 -0.1485  0.2982 -0.6198
11201TIP3    H133536   3.286   4.387   3.264  0.1131 -0.4376 -0.6792
11201TIP3    H233537   3.431   4.349   3.288  0.3396  1.4777  1.1072
11202TIP3   OH233538   3.685   2.802   2.775  0.3298  0.0720 -0.8037
11202TIP3    H133539   3.624   2.733   2.802 -0.9895  1.4396 -0.2053
11202TIP3    H233540   3.682   2.801   2.680 -0.1808 -0.2617 -0.7833
11203TIP3   OH233541   8.245   4.563   4.361 -0.3302 -0.3860 -0.0740
11203TIP3    H133542   8.326   4.543   4.313 -0.0026  1.1372 -0.1655
11203TIP3    H233543   8.223   4.652   4.334  0.1513  0.7025  3.0248
11204TIP3   OH233544   5.074   5.574   5.364 -0.3179  0.0474  0.0692
11204TIP3    H133545   5.116   5.493   5.391 -0.3707  0.2800  0.8583
11204TIP3    H233546   5.079   5.573   5.269 -1.1263 -1.2951  0.0350
11205TIP3   OH233547   3.196   3.550   6.951  0.5868 -0.7112  0.2750
11205TIP3    H133548   3.115   3.573   6.996  0.1196 -0.1870 -0.8270
11205TIP3    H233549   3.186   3.584   6.862  1.5082 -1.7114 -0.2371
11206TIP3   OH233550   2.248   5.111   5.987  0.1891 -0.3698 -0.1487
11206TIP3    H133551   2.252   5.016   6.001 -3.1011 -0.4707  0.6657
11206TIP3    H233552   2.233   5.148   6.074  3.1036  1.1043 -0.2077
11207TIP3   OH233553   1.704   5.508   6.381  0.2580 -0.1942  0.3861
11207TIP3    H133554   1.758   5.536   6.307  1.0726 -0.0488  1.0225
11207TIP3    H233555   1.634   5.456   6.342 -0.4875  1.5640 -0.6933
11208TIP3   OH233556   2.704   3.349   4.694 -0.0206  0.6254 -0.2248
11208TIP3    H133557   2.760   3.398   4.754 -0.1286 -0.1244  0.4852
11208TIP3    H233558   2.745   3.363   4.608  0.2865  1.4733  0.0511
11209TIP3   OH233559   2.323   1.423   4.351 -0.5958 -0.2025 -0.3766
11209TIP3    H133560   2.409   1.405   4.314 -1.3316 -2.2921 -1.1634
11209TIP3    H233561   2.342   1.461   4.437  1.1658 -3.2468  0.6891
11210TIP3   OH233562   7.659   7.798   1.666  0.3223 -0.0878  0.1109
11210TIP3    H133563   7.644   7.716   1.712 -1.1553  0.6225  0.9518
11210TIP3    H233564   7.573   7.841   1.665  0.1321 -0.3308 -3.9007
11211TIP3   OH233565   1.384   3.729   5.946  0.0161 -0.7210 -0.5078
11211TIP3    H133566   1.361   3.638   5.966 -0.3500 -0.6884 -0.7781
11211TIP3    H233567   1.320   3.781   5.995  0.8857 -0.5866  0.4947
11212TIP3   OH233568   3.499   4.086   6.255 -0.2419 -0.5039  0.0932
11212TIP3    H133569   3.438   4.067   6.185 -0.9920  0.3247  0.5134
11212TIP3    H233570   3.563   4.015   6.252  0.5025  0.2312 -2.2859
11213TIP3   OH233571   7.896   1.117   0.309 -0.4660 -0.1764  0.3488
11213TIP3    H133572   7.892   1.058   0.234 -0.3152  2.3892 -1.7688
11213TIP3    H233573   7.985   1.108   0.342  0.0339 -0.0469 -0.9164
11214TIP3   OH233574   6.335   2.446   5.799  0.1462  0.3724 -0.3117
11214TIP3    H133575   6.402   2.510   5.774 -0.4402  0.8855 -0.5874
11214TIP3    H233576   6.256   2.475   5.753 -0.1878 -0.4032 -0.2274
11215TIP3   OH233577   2.234   4.591   4.053  0.3594 -0.8551 -0.2524
11215TIP3    H133578   2.178   4.521   4.085  1.2224 -1.5384 -0.2370
11215TIP3    H233579   2.323   4.562   4.071  0.8101 -0.6351 -1.9923
11216TIP3   OH233580   3.797   5.129   4.628 -0.5958 -0.5507 -0.1475
11216TIP3    H133581   3.780   5.035   4.622 -0.0640 -0.6381 -0.3338
11216TIP3    H233582   3.784   5.162   4.539  1.7844 -0.8961 -0.6507
11217TIP3   OH233583   2.570   5.661   6.191  0.1709 -0.1292  0.0452
11217TIP3    H133584   2.539   5.644   6.280  0.7966  1.3625  0.5672
11217TIP3    H233585   2.657   5.698   6.203  0.1466  0.3311 -1.1789
11218TIP3   OH233586   3.765   4.786   5.962  0.2909 -0.0657  0.4584
11218TIP3    H133587   3.682   4.768   5.919  0.7662  0.2703 -0.6303
11218TIP3    H233588   3.758   4.876   5.993 -0.1068 -0.3558  1.2199
11219TIP3   OH233589   2.690   3.017   5.538 -0.2217 -0.0358 -0.3055
11219TIP3    H133590   2.739   3.067   5.472  0.6512 -0.5610 -0.0614
11219TIP3    H233591   2.705   3.064   5.620  1.0554 -1.0136  0.0206
11220TIP3   OH233592   0.539   5.764   4.628 -1.0186  0.3115  0.4306
11220TIP3    H133593   0.566   5.855   4.615 -0.3161  0.3344  1.9285
11220TIP3    H233594   0.568   5.743   4.716 -1.3113 -1.3262  0.1536
11221TIP3   OH233595   3.938   4.968   4.823  0.6782 -0.2259 -0.6884
11221TIP3    H133596   3.933   5.064   4.822 -0.3551 -0.2529  0.7463
11221TIP3    H233597   3.943   4.943   4.731 -0.3112  1.1484 -1.1200
11222TIP3   OH233598   0.685   6.442   4.409  0.4223 -0.0315 -0.5746
11222TIP3    H133599   0.684   6.368   4.469  0.6596 -0.4656 -1.1068
11222TIP3    H233600   0.698   6.518   4.466  1.2303 -0.4907 -0.1271
11223TIP3   OH233601   1.476   5.413   5.421  0.6211 -0.1420 -0.0154
11223TIP3    H133602   1.439   5.497   5.395  0.0389 -0.1299  0.8485
11223TIP3    H233603   1.549   5.436   5.479 -0.4898 -0.2656  1.4451
11224TIP3   OH233604   2.017   2.805   4.213 -0.4691 -0.2116  0.0909
11224TIP3    H133605   1.994   2.861   4.287 -1.6200 -1.4636  0.7053
11224TIP3    H233606   2.111   2.787   4.224 -0.6228 -0.3421  1.2175
11225TIP3   OH233607   3.156   4.961   5.892  0.6117 -0.1489  0.3381
11225TIP3    H133608   3.201   4.932   5.812  2.3594 -0.1358  1.2903
11225TIP3    H233609   3.222   4.953   5.961 -0.2231  1.8190  1.4188
11226TIP3   OH233610   2.834   6.445   5.750 -0.2701  0.0034 -0.1383
11226TIP3    H133611   2.824   6.540   5.756  0.5957  0.1022 -0.2372
11226TIP3    H233612   2.926   6.429   5.771  0.1012 -0.6283 -2.1597
11227TIP3   OH233613   7.032   7.164   1.653  0.0469 -0.1331 -0.1157
11227TIP3    H133614   7.093   7.213   1.708 -0.4519 -0.0910  0.4029
11227TIP3    H233615   6.991   7.101   1.713  0.7090 -1.2193 -0.7707
11228TIP3   OH233616   6.477   6.307   0.580  0.4535  0.6215 -0.2668
11228TIP3    H133617   6.505   6.394   0.606  2.0181  0.0292  0.1007
11228TIP3    H233618   6.519   6.292   0.495  0.8706 -0.0713  0.0489
11229TIP3   OH233619   2.033   6.484   4.852  0.4066 -0.9348  0.1708
11229TIP3    H133620   1.965   6.547   4.877  1.2770  0.2335 -0.3560
11229TIP3    H233621   1.985   6.409   4.818 -0.5844  0.6849 -2.1023
11230TIP3   OH233622   4.446   4.958   6.159  0.2211  0.2850 -0.4385
11230TIP3    H133623   4.486   4.873   6.143 -0.3914  0.2771 -2.0047
11230TIP3    H233624   4.389   4.973   6.083 -1.0625  1.2711  0.6830
11231TIP3   OH233625   4.074   5.136   4.266  0.3735  0.2769 -0.0009
11231TIP3    H133626   4.164   5.103   4.274 -0.2595 -1.7318 -0.7924
11231TIP3    H233627   4.078   5.197   4.192  1.0309 -0.0313 -0.2280
11232TIP3   OH233628   1.382   3.218   6.719  0.1924 -0.0823  0.6033
11232TIP3    H133629   1.432   3.258   6.790  1.9650  0.8698 -1.1350
11232TIP3    H233630   1.338   3.292   6.676  1.3283 -0.2834 -0.9659
11233TIP3   OH233631   2.145   6.139   3.612  1.0414  0.1676  0.3001
11233TIP3    H133632   2.218   6.079   3.627 -0.5200 -1.7198  0.5890
11233TIP3    H233633   2.120   6.168   3.700  0.0573 -0.9160  0.3922
11234TIP3   OH233634   8.153   1.066   0.486  0.4343 -0.0501 -0.0225
11234TIP3    H133635   8.248   1.063   0.493  0.4136 -0.1410  0.2238
11234TIP3    H233636   8.136   1.073   0.392  0.7064  0.7379 -0.0140
11235TIP3   OH233637   0.916   2.742   6.033 -0.3799  0.0146  0.6155
11235TIP3    H133638   0.963   2.664   6.062 -1.0356 -0.2221  1.0512
11235TIP3    H233639   0.897   2.726   5.941 -1.6173 -0.9076  1.0114
11236TIP3   OH233640   1.952   2.807   6.484 -0.5792 -0.2193 -0.3507
11236TIP3    H133641   1.893   2.882   6.474 -0.6140 -0.0728  0.8844
11236TIP3    H233642   2.023   2.840   6.540  0.9108 -0.2644 -2.1629
11237TIP3   OH233643   2.828   3.431   5.544 -0.2078 -0.3227 -0.1222
11237TIP3    H133644   2.832   3.365   5.475 -0.2486 -1.7352  1.1901
11237TIP3    H233645   2.912   3.476   5.540 -0.2405 -0.3571 -1.1332
11238TIP3   OH233646   8.332   0.127   1.252 -0.0904 -0.2872 -0.4786
11238TIP3    H133647   8.326   0.106   1.159 -0.9079 -0.6960 -0.3383
11238TIP3    H233648   8.295   0.051   1.297 -0.4273  0.2346  0.1463
11239TIP3   OH233649   3.157   3.879   5.355 -0.4544 -0.1007  0.1733
11239TIP3    H133650   3.095   3.847   5.290 -0.3495 -2.2631  1.0933
11239TIP3    H233651   3.121   3.852   5.439  0.4068  0.9312  0.9031
11240TIP3   OH233652   6.104   1.410   0.740  0.8561  0.1582 -0.4155
11240TIP3    H133653   6.034   1.345   0.736 -0.1171  1.3549 -4.1163
11240TIP3    H233654   6.061   1.490   0.770  1.0614  0.3877 -0.7348
11241TIP3   OH233655   3.458   3.782   5.765  0.0696 -0.3799  0.3066
11241TIP3    H133656   3.439   3.701   5.717 -1.3724 -0.6142  1.2233
11241TIP3    H233657   3.409   3.850   5.718  1.6987  0.0707 -0.7718
11242TIP3   OH233658   0.224   4.680   4.228 -0.3401  0.0678 -0.2308
11242TIP3    H133659   0.305   4.640   4.259 -0.5812  1.4279  2.2636
11242TIP3    H233660   0.252   4.745   4.163  0.5485  0.3764  0.4642
11243TIP3   OH233661   2.784   5.816   5.184 -0.0919  0.6782 -0.3509
11243TIP3    H133662   2.732   5.839   5.261  0.6881 -1.1042  0.7503
11243TIP3    H233663   2.811   5.900   5.147 -0.3485  1.5581  1.4113
11244TIP3   OH233664   1.100   4.232   5.664 -0.0683  0.9153 -0.8757
11244TIP3    H133665   1.195   4.243   5.673  0.0660  0.8070 -2.1390
11244TIP3    H233666   1.081   4.150   5.709  0.0550  2.2183  1.6518
11245TIP3   OH233667   2.832   4.008   5.388 -0.1869  0.4649 -0.6358
11245TIP3    H133668   2.773   3.945   5.347 -0.6124 -1.0284  2.1239
11245TIP3    H233669   2.784   4.038   5.465  2.2065 -0.0166  1.0956
11246TIP3   OH233670   5.137   5.013   6.643  0.7291  0.2348  0.0222
11246TIP3    H133671   5.132   5.027   6.548  1.6681 -0.2422 -0.1021
11246TIP3    H233672   5.172   5.096   6.677  2.6014 -0.4018 -0.3039
11247TIP3   OH233673   7.775   1.350   0.363  0.1454 -0.0049  0.3408
11247TIP3    H133674   7.760   1.366   0.456  1.3370  0.0293  0.5452
11247TIP3    H233675   7.810   1.261   0.359 -1.1764 -0.5176 -0.2216
11248TIP3   OH233676   1.985   4.426   5.306  0.5524  0.2015  0.5395
11248TIP3    H133677   1.956   4.470   5.226 -1.1317 -2.8398 -0.6061
11248TIP3    H233678   1.960   4.486   5.377 -1.0913  1.3848 -0.9893
11249TIP3   OH233679   2.255   5.695   6.878 -0.8434 -0.1832 -0.1291
11249TIP3    H133680   2.249   5.628   6.945  0.9168 -2.4758 -2.1940
11249TIP3    H233681   2.189   5.670   6.813 -0.4888  0.3273 -0.6926
11250TIP3   OH233682   4.488   6.711   4.200 -0.1475  0.3426 -0.0687
11250TIP3    H133683   4.536   6.644   4.249 -1.7572 -0.4513  0.4592
11250TIP3    H233684   4.460   6.774   4.267 -1.1892 -0.0393 -0.1253
11251TIP3   OH233685   2.205   4.388   4.777 -0.2458 -0.1738 -0.0295
11251TIP3    H133686   2.151   4.453   4.822  0.6566 -0.5424  1.6357
11251TIP3    H233687   2.295   4.416   4.794  0.1248 -0.9031 -0.7519
11252TIP3   OH233688   3.153   4.523   6.219 -0.2723  0.2688  0.0112
11252TIP3    H133689   3.201   4.564   6.291 -1.2364  0.8921  0.3017
11252TIP3    H233690   3.187   4.433   6.217  0.2735  0.4431  0.7817
11253TIP3   OH233691   5.941   7.119   1.669  0.3047 -0.4481  0.3780
11253TIP3    H133692   5.946   7.198   1.615  0.9773  0.0723  1.1858
11253TIP3    H233693   5.976   7.050   1.612 -0.5547 -0.2360 -0.4332
11254TIP3   OH233694   6.193   0.594   0.631  0.0208 -0.5406 -0.5638
11254TIP3    H133695   6.220   0.523   0.689  1.5039  0.5493  0.1204
11254TIP3    H233696   6.175   0.552   0.548  1.6722 -1.6188 -0.3902
11255TIP3   OH233697   2.185   3.020   4.642 -0.4862  0.2657  0.1442
11255TIP3    H133698   2.093   3.042   4.629 -0.3066  1.8687  1.4795
11255TIP3    H233699   2.195   3.011   4.736  0.4314 -1.2940 -0.0862
11256TIP3   OH233700   0.332   0.793   1.343 -0.2554 -0.0233 -0.3097
11256TIP3    H133701   0.242   0.772   1.319 -0.7820  0.1819  1.4042
11256TIP3    H233702   0.324   0.860   1.411  1.1993  0.0088 -0.1384
11257TIP3   OH233703   6.514   1.742   2.935 -0.2490  0.1870  0.4159
11257TIP3    H133704   6.538   1.802   3.006  3.1130 -0.4416 -0.0712
11257TIP3    H233705   6.422   1.722   2.950 -0.1301  1.6161  3.4528
11258TIP3   OH233706   7.076   0.994   1.378  0.0372  0.8281  0.3745
11258TIP3    H133707   7.129   0.919   1.350 -0.7727  0.8497 -1.2882
11258TIP3    H233708   7.141   1.062   1.398  0.8098 -0.5298  2.6647
11259TIP3   OH233709   0.462   4.262   4.730 -0.3719  0.0392  0.1884
11259TIP3    H133710   0.442   4.316   4.806  0.6607  0.6102  0.0659
11259TIP3    H233711   0.394   4.284   4.666 -0.0181  1.1302  0.1779
11260TIP3   OH233712   4.739   7.997   0.415  0.2162 -0.0046  0.7529
11260TIP3    H133713   4.659   7.957   0.382  1.2762 -2.2614  0.8446
11260TIP3    H233714   4.721   8.013   0.508 -1.0016  1.7992  0.2196
11261TIP3   OH233715   2.427   5.737   4.731  0.3298 -0.2471  0.3564
11261TIP3    H133716   2.432   5.704   4.641 -0.7132 -0.4520  0.3666
11261TIP3    H233717   2.448   5.661   4.785  2.9056  0.3554  0.2418
11262TIP3   OH233718   0.507   1.176   0.953 -0.2430 -0.4666 -0.1542
11262TIP3    H133719   0.584   1.119   0.954  1.0480  1.1739 -2.4285
11262TIP3    H233720   0.458   1.151   1.031  2.1482 -2.1412  0.8750
11263TIP3   OH233721   6.122   0.928   1.945  0.4111  0.3542  0.1281
11263TIP3    H133722   6.111   0.851   1.889  0.0938  0.6000 -0.1463
11263TIP3    H233723   6.053   0.919   2.011 -0.0502  0.7437 -0.2929
11264TIP3   OH233724   2.888   3.248   5.312 -1.0141 -0.0664 -0.2066
11264TIP3    H133725   2.909   3.155   5.302 -0.0141  0.2782 -1.5042
11264TIP3    H233726   2.829   3.267   5.240  0.7771  0.8619 -1.4874
11265TIP3   OH233727   2.205   6.610   5.654  0.2185 -0.4253 -0.0402
11265TIP3    H133728   2.134   6.553   5.683 -0.4743 -0.2305 -1.3164
11265TIP3    H233729   2.204   6.602   5.558  0.3781  1.4105 -0.2052
11266TIP3   OH233730   2.551   0.811   0.490 -0.0109 -0.2699  0.0628
11266TIP3    H133731   2.545   0.844   0.401  0.1132 -0.8204 -0.1552
11266TIP3    H233732   2.485   0.741   0.494  0.5067 -0.7587  0.1692
11267TIP3   OH233733   1.257   3.838   6.377  0.6481 -0.3954 -0.3723
11267TIP3    H133734   1.199   3.792   6.438  0.8845 -1.6248 -1.0593
11267TIP3    H233735   1.310   3.896   6.432 -0.4091 -0.1352  0.3824
11268TIP3   OH233736   1.981   6.447   4.082 -0.0607 -0.1851  0.2704
11268TIP3    H133737   2.042   6.486   4.020  0.2141 -0.5139  0.3329
11268TIP3    H233738   2.025   6.368   4.113 -0.1411  0.0467  0.9896
11269TIP3   OH233739   2.141   0.285   0.961  0.0001  0.0699 -0.2062
11269TIP3    H133740   2.215   0.225   0.961  1.0102  1.2976 -0.4133
11269TIP3    H233741   2.065   0.230   0.945  0.6021 -1.5309  2.1906
11270TIP3   OH233742   5.985   4.998   1.627  0.9126  0.3414 -0.0848
11270TIP3    H133743   6.033   5.049   1.562  2.2214 -1.4326 -0.5328
11270TIP3    H233744   5.922   4.947   1.576  0.6599  0.3444  0.2202
11271TIP3   OH233745   4.336   5.592   5.968 -0.5117  0.0903 -0.4073
11271TIP3    H133746   4.383   5.582   5.885  0.8257 -0.6928  0.4390
11271TIP3    H233747   4.357   5.513   6.018 -0.2266  1.1770  1.2277
11272TIP3   OH233748   2.010   0.961   0.608  0.2630  0.2172 -0.0859
11272TIP3    H133749   1.929   0.977   0.559 -0.2838  1.1849  1.1150
11272TIP3    H233750   2.049   1.048   0.618  0.1645  0.0824  1.5363
11273TIP3   OH233751   4.942   5.428   6.450 -0.0774 -0.4371  0.2043
11273TIP3    H133752   4.927   5.355   6.509  1.9339 -0.8611  0.2449
11273TIP3    H233753   4.937   5.389   6.362  1.8449 -0.8330  0.2451
11274TIP3   OH233754   0.541   0.300   0.902  0.1139  0.5062 -0.2246
11274TIP3    H133755   0.504   0.388   0.907 -0.2987  0.2591  1.1167
11274TIP3    H233756   0.520   0.270   0.813 -0.6893  1.3432 -0.3192
11275TIP3   OH233757   5.373   6.710   0.509 -0.5409 -0.2640  0.3287
11275TIP3    H133758   5.303   6.756   0.462  0.4323  0.3393 -0.5372
11275TIP3    H233759   5.354   6.725   0.601 -0.7467  1.0831  0.0669
11276TIP3   OH233760   1.970   4.438   6.518 -0.9720 -0.1820  0.2835
11276TIP3    H133761   2.027   4.507   6.551  0.2487 -0.5579 -1.0094
11276TIP3    H233762   2.009   4.357   6.550 -1.8194 -0.3579  0.9114
11277TIP3   OH233763   4.483   7.715   0.636  0.1861  0.2445 -0.1889
11277TIP3    H133764   4.540   7.764   0.695 -1.3370  0.1530  1.4270
11277TIP3    H233765   4.398   7.715   0.680 -0.4965 -1.5582 -1.4471
11278TIP3   OH233766   2.402   4.084   6.863 -0.4181  0.0637 -0.6897
11278TIP3    H133767   2.378   4.040   6.781 -0.8691 -1.9496  0.4945
11278TIP3    H233768   2.390   4.017   6.931  1.0671  1.3524  0.8889
11279TIP3   OH233769   5.616   7.489   0.258  0.0748  0.5282 -0.0539
11279TIP3    H133770   5.622   7.415   0.319 -0.7456 -0.5634 -1.2807
11279TIP3    H233771   5.542   7.541   0.291 -0.5597 -0.2217 -0.2960
11280TIP3   OH233772   7.793   0.760   0.593  0.0969  0.0756 -0.0630
11280TIP3    H133773   7.756   0.848   0.588 -0.0147  0.0255 -0.1300
11280TIP3    H233774   7.864   0.760   0.529  0.5114  0.3131  0.3909
11281TIP3   OH233775   2.906   1.297   1.951  0.1698  0.0366  0.0536
11281TIP3    H133776   2.963   1.374   1.943  1.4996 -0.9938 -0.4694
11281TIP3    H233777   2.920   1.266   2.040  1.1775 -0.7898 -0.3855
11282TIP3   OH233778   1.814   4.560   5.111 -0.3555  0.1312  0.0354
11282TIP3    H133779   1.767   4.531   5.189  0.9940 -1.8332  0.1435
11282TIP3    H233780   1.752   4.548   5.040 -0.3395 -1.5945  0.3014
11283TIP3   OH233781   1.155   4.222   5.357 -0.1848 -0.0503  0.7863
11283TIP3    H133782   1.099   4.219   5.435 -0.6690  1.8621  0.5254
11283TIP3    H233783   1.101   4.265   5.291  0.0971 -1.9912 -0.7343
11284TIP3   OH233784   0.754   1.278   1.600 -0.0905  0.8177  0.9912
11284TIP3    H133785   0.809   1.320   1.667  0.1576  0.7736  0.8139
11284TIP3    H233786   0.807   1.205   1.568  0.9047  2.4553 -1.1763
11285TIP3   OH233787   2.285   3.634   6.078  0.0404  0.3521 -0.0117
11285TIP3    H133788   2.226   3.703   6.047  0.9377  1.0147 -0.2839
11285TIP3    H233789   2.303   3.581   6.000  1.4171  1.3637 -0.4037
11286TIP3   OH233790   2.913   5.804   6.634 -0.5530 -0.1840  0.1739
11286TIP3    H133791   2.820   5.793   6.617 -0.5480  0.7377 -0.4653
11286TIP3    H233792   2.954   5.805   6.548  0.0065 -0.1865  0.4329
11287TIP3   OH233793   3.611   5.815   6.178  0.3593  0.3346 -0.2870
11287TIP3    H133794   3.563   5.751   6.229 -0.3585 -0.4308 -1.8978
11287TIP3    H233795   3.655   5.764   6.110  1.6910  1.2789 -0.1552
11288TIP3   OH233796   2.005   2.796   1.382 -0.1585 -0.2349 -0.0419
11288TIP3    H133797   1.974   2.821   1.469  0.4780  1.2361 -0.2288
11288TIP3    H233798   2.076   2.735   1.399 -1.6483 -1.8743  0.4210
11289TIP3   OH233799   3.154   5.649   6.557  0.0300 -0.2989 -0.0280
11289TIP3    H133800   3.245   5.623   6.568  0.4709  1.8621  1.7786
11289TIP3    H233801   3.105   5.568   6.574  1.6067 -1.7608 -2.2161
11290TIP3   OH233802   3.714   3.873   5.643 -0.1775  0.9366  0.4110
11290TIP3    H133803   3.649   3.861   5.574 -0.0035 -0.7951  0.5105
11290TIP3    H233804   3.669   3.845   5.723  0.9730 -1.2398  0.3300
11291TIP3   OH233805   3.385   4.481   5.272 -0.5211 -0.0071 -0.1225
11291TIP3    H133806   3.476   4.452   5.284 -0.4851 -0.0437 -0.4818
11291TIP3    H233807   3.334   4.400   5.271 -0.6622  0.0618  0.9733
11292TIP3   OH233808   3.589   5.420   6.227  0.1308  0.1943  0.1666
11292TIP3    H133809   3.528   5.351   6.253  1.6982 -2.2613 -2.4892
11292TIP3    H233810   3.661   5.413   6.291  0.5182 -0.9962 -0.3793
11293TIP3   OH233811   2.211   5.287   6.869  0.6143  0.0621 -0.1099
11293TIP3    H133812   2.120   5.295   6.840  0.3356 -0.5308  0.6057
11293TIP3    H233813   2.234   5.195   6.852  0.4903 -0.2630  1.4206
11294TIP3   OH233814   4.478   3.192   4.048  0.1449 -0.1094  0.2212
11294TIP3    H133815   4.384   3.176   4.059 -0.1259 -0.2211 -2.0274
11294TIP3    H233816   4.519   3.106   4.060 -0.1836 -0.3309 -0.2442
11295TIP3   OH233817   7.596   7.498   2.035  0.0394  0.1582  0.4491
11295TIP3    H133818   7.651   7.422   2.056 -0.3311 -0.2331  0.0162
11295TIP3    H233819   7.515   7.483   2.084 -0.8000 -0.7216 -1.1688
11296TIP3   OH233820   5.380   5.101   0.772 -0.3453 -0.4274 -0.0443
11296TIP3    H133821   5.375   5.194   0.751  0.5348 -0.8622 -2.2724
11296TIP3    H233822   5.472   5.085   0.790 -0.5054 -0.8838  0.4066
11297TIP3   OH233823   2.851   3.793   4.853  0.3092  0.0000 -0.3850
11297TIP3    H133824   2.930   3.846   4.858  0.5554 -0.2307 -1.6866
11297TIP3    H233825   2.801   3.830   4.780 -0.6820 -0.0153  0.2613
11298TIP3   OH233826   1.517   1.669   0.057 -0.3861  0.0222  0.0213
11298TIP3    H133827   1.472   1.626   0.129  0.7009  1.8876  1.8533
11298TIP3    H233828   1.468   1.749   0.041  1.2263  1.2215  0.8913
11299TIP3   OH233829   1.294   2.063   0.368  0.1578 -0.1154 -0.0169
11299TIP3    H133830   1.246   1.996   0.320  0.4183 -0.2296 -0.1215
11299TIP3    H233831   1.387   2.041   0.353  0.2384 -0.4398  0.9474
11300TIP3   OH233832   4.134   3.659   3.808  0.1865  0.0126 -0.0548
11300TIP3    H133833   4.219   3.689   3.777  0.1797 -1.1748 -1.2781
11300TIP3    H233834   4.121   3.704   3.891  1.5598  0.9601 -0.3402
11301TIP3   OH233835   3.943   3.670   5.458 -0.1744  0.3540  0.8442
11301TIP3    H133836   4.032   3.667   5.494  0.3500 -0.0503 -0.4744
11301TIP3    H233837   3.938   3.752   5.410  0.1704 -0.5708 -0.8040
11302TIP3   OH233838   7.292   7.631   1.534  0.1204  0.0626 -0.3536
11302TIP3    H133839   7.352   7.557   1.539 -0.0098  0.0323  0.8475
11302TIP3    H233840   7.220   7.601   1.478  0.9808 -0.0640 -1.4017
11303TIP3   OH233841   7.287  -0.005   0.883  0.2489  0.5448 -0.3877
11303TIP3    H133842   7.307   0.057   0.954  2.1584 -0.2568 -0.1891
11303TIP3    H233843   7.191  -0.007   0.879  0.1134  0.8683  1.9485
11304TIP3   OH233844   2.978   4.460   6.638  0.2408 -0.7753 -0.9270
11304TIP3    H133845   2.950   4.474   6.729  2.3533 -0.4770 -0.3045
11304TIP3    H233846   3.029   4.379   6.641 -1.2591 -1.8028 -2.2148
11305TIP3   OH233847   5.498   3.300   6.866 -0.1198  0.8631  0.4922
11305TIP3    H133848   5.535   3.374   6.818 -1.3045  1.1081 -0.0746
11305TIP3    H233849   5.502   3.227   6.804  0.8409  0.5017  0.9738
11306TIP3   OH233850   3.657   2.166   6.803 -0.1625  0.0320  0.0014
11306TIP3    H133851   3.719   2.095   6.790 -0.2198 -0.1235  0.5455
11306TIP3    H233852   3.622   2.185   6.716  0.3292 -0.1706 -0.2396
11307TIP3   OH233853   0.203   1.003   1.544 -0.2136  0.3755  0.0708
11307TIP3    H133854   0.127   1.011   1.486  0.2187  0.7217 -0.4451
11307TIP3    H233855   0.207   1.086   1.590 -1.6770 -0.5695  1.9867
11308TIP3   OH233856   4.335   5.109   5.940  0.3776 -0.2856  0.1205
11308TIP3    H133857   4.328   5.116   5.845 -0.9738  0.6399  0.2744
11308TIP3    H233858   4.322   5.199   5.972  0.1004 -0.7050  1.2125
11309TIP3   OH233859   5.126   4.588   2.835  0.5828 -0.0333  0.7911
11309TIP3    H133860   5.031   4.587   2.831  0.5488  2.0409  0.3722
11309TIP3    H233861   5.152   4.499   2.811 -1.1721  0.0857 -1.7808
11310TIP3   OH233862   2.266   3.432   5.870 -0.2514 -0.0207  0.5033
11310TIP3    H133863   2.245   3.339   5.871 -1.7649  0.3082  1.2868
11310TIP3    H233864   2.300   3.449   5.782 -1.1275 -1.0570 -0.0377
11311TIP3   OH233865   3.742   7.157   6.669  0.2764 -0.5524 -0.2188
11311TIP3    H133866   3.714   7.068   6.647 -2.3731  0.1886 -0.0059
11311TIP3    H233867   3.715   7.169   6.760  0.6613  0.4700 -0.2366
11312TIP3   OH233868   0.877   5.584   6.490 -0.0789 -0.4254  0.4881
11312TIP3    H133869   0.816   5.556   6.559  1.2648 -0.6052  1.6258
11312TIP3    H233870   0.855   5.676   6.475  1.4967  0.4487  3.2276
11313TIP3   OH233871   7.273   7.630   2.148  0.2684 -0.1738 -0.4868
11313TIP3    H133872   7.335   7.703   2.153 -0.1850  0.2929 -1.6393
11313TIP3    H233873   7.324   7.554   2.175  1.0556  0.3753 -0.4026
11314TIP3   OH233874   4.225   6.676   6.189  0.6860 -0.0344  0.5107
11314TIP3    H133875   4.296   6.616   6.163 -0.2791 -0.4934 -1.1120
11314TIP3    H233876   4.187   6.705   6.106 -0.0443  1.4146  1.3397
11315TIP3   OH233877   1.849   2.555   0.366  0.4845 -0.5467  0.9795
11315TIP3    H133878   1.906   2.612   0.315  0.9673 -0.5320  1.5315
11315TIP3    H233879   1.812   2.494   0.302  3.0405 -2.1640  0.9582
11316TIP3   OH233880   3.397   6.236   5.830 -0.1733  0.1074 -0.1389
11316TIP3    H133881   3.369   6.148   5.856  1.2535  0.0960  1.5156
11316TIP3    H233882   3.453   6.221   5.754 -1.7029 -0.1927 -1.2239
11317TIP3   OH233883   4.277   4.903   5.233  0.5976 -0.0506  0.5682
11317TIP3    H133884   4.234   4.819   5.215  0.0689  0.3485 -0.0608
11317TIP3    H233885   4.369   4.888   5.211  0.5336 -0.5141  0.6115
11318TIP3   OH233886   3.784   4.461   6.707 -0.0547  0.1827  0.1316
11318TIP3    H133887   3.826   4.544   6.728 -3.5266  1.5801  1.8428
11318TIP3    H233888   3.759   4.468   6.615 -1.2405  1.4671  0.5419
11319TIP3   OH233889   3.898   4.971   5.264 -0.4646  0.3440 -0.0430
11319TIP3    H133890   3.951   4.929   5.197 -0.1312  2.1796 -0.9756
11319TIP3    H233891   3.817   4.920   5.267  0.8553 -1.7526  0.5482
11320TIP3   OH233892   3.390   5.662   6.267 -0.3709 -0.1253 -0.0538
11320TIP3    H133893   3.359   5.574   6.247 -1.5218  0.5917 -1.5456
11320TIP3    H233894   3.396   5.665   6.362  1.9173 -2.5492 -0.0853
11321TIP3   OH233895   3.470   5.920   6.647  0.2567  0.0740  0.2890
11321TIP3    H133896   3.522   5.929   6.727  0.9490 -2.1826  0.1366
11321TIP3    H233897   3.380   5.912   6.678  0.4727 -0.2654  0.8430
11322TIP3   OH233898   3.892   6.462   5.902 -0.0666  0.0770 -0.0012
11322TIP3    H133899   3.970   6.438   5.952  0.2307  2.0069  0.4771
11322TIP3    H233900   3.830   6.494   5.967 -1.5732 -2.1512 -0.2916
11323TIP3   OH233901   1.117   0.339   0.651 -0.0318  0.7492  0.2352
11323TIP3    H133902   1.148   0.343   0.741 -3.1926  0.5632  1.3716
11323TIP3    H233903   1.060   0.415   0.641  0.0308  0.5918 -1.5264
11324TIP3   OH233904   0.523   0.603   0.497 -0.2985  0.8290 -0.0433
11324TIP3    H133905   0.442   0.582   0.544 -0.0634  0.3458  0.1446
11324TIP3    H233906   0.593   0.583   0.560  0.0854 -1.0433 -1.0402
11325TIP3   OH233907   1.430   1.521   0.286 -0.4069 -0.0134 -0.0894
11325TIP3    H133908   1.445   1.427   0.273 -0.7614 -0.0609 -0.1609
11325TIP3    H233909   1.370   1.525   0.360 -0.3122  0.1635 -0.0222
11326TIP3   OH233910   6.935   7.761   0.307  0.3872  0.0726 -0.0224
11326TIP3    H133911   6.927   7.849   0.273  1.3214  0.1547 -0.0475
11326TIP3    H233912   6.976   7.772   0.393 -0.4118 -0.2611  0.4095
11327TIP3   OH233913   3.985   4.639   5.848  0.5230 -0.3194  0.8588
11327TIP3    H133914   4.049   4.685   5.902 -0.8518  1.1804  1.2396
11327TIP3    H233915   3.901   4.661   5.886 -0.3796 -0.4116 -1.0416
11328TIP3   OH233916   8.433   6.803   0.807  0.1786  0.4311  0.2429
11328TIP3    H133917   8.481   6.723   0.826  0.2078  0.1447 -0.9937
11328TIP3    H233918   8.370   6.811   0.878 -0.2351 -1.0182  0.0530
11329TIP3   OH233919   2.733   3.676   6.057 -0.4354 -0.0630 -0.6390
11329TIP3    H133920   2.784   3.611   6.105 -1.2765 -0.0571  0.2820
11329TIP3    H233921   2.798   3.737   6.021  0.1966 -0.0089  0.5809
11330TIP3   OH233922   2.495   2.341   6.880 -0.3301  0.2629  0.1114
11330TIP3    H133923   2.565   2.337   6.815 -0.6812  1.7988 -0.3914
11330TIP3    H233924   2.446   2.260   6.869  1.9640 -1.3134  1.1677
11331TIP3   OH233925   3.293   3.482   5.406  0.1092 -0.1637 -0.3281
11331TIP3    H133926   3.320   3.467   5.315  1.5404 -0.3260  0.1186
11331TIP3    H233927   3.240   3.405   5.428  0.9422 -0.8084 -0.5620
11332TIP3   OH233928   5.084   5.536   1.278 -0.1382  0.1446 -0.2637
11332TIP3    H133929   5.040   5.616   1.308 -0.4858 -0.0330 -0.3020
11332TIP3    H233930   5.142   5.512   1.350  0.7647  1.0366 -0.6823
11333TIP3   OH233931   7.411   7.801   0.242 -0.5144 -0.0148  0.4903
11333TIP3    H133932   7.363   7.727   0.279 -0.2856 -0.3359  0.1456
11333TIP3    H233933   7.503   7.777   0.252 -0.4281  0.5216  0.9959
11334TIP3   OH233934   0.665   5.041   5.964  0.7894 -0.3332  0.2576
11334TIP3    H133935   0.611   5.036   5.885 -0.0351 -0.5545  0.8304
11334TIP3    H233936   0.755   5.043   5.931  0.4365  0.0982 -0.7036
11335TIP3   OH233937   3.353   6.155   1.409 -0.0256 -0.2174 -0.0614
11335TIP3    H133938   3.408   6.077   1.405  1.1009  0.6615 -2.4428
11335TIP3    H233939   3.282   6.131   1.469  0.3988 -2.9857 -0.6130
11336TIP3   OH233940   4.353   5.686   6.240  0.0762 -1.1165  0.3926
11336TIP3    H133941   4.332   5.667   6.148  0.8398  0.7623 -0.1773
11336TIP3    H233942   4.440   5.649   6.253 -0.2203 -1.7912  0.5107
11337TIP3   OH233943   5.208   4.993   6.919 -0.1137  0.0098 -0.5931
11337TIP3    H133944   5.210   4.949   6.834  0.8411 -0.2471 -0.4441
11337TIP3    H233945   5.155   5.071   6.904 -0.4534 -0.3420 -1.2743
11338TIP3   OH233946   3.078   4.312   5.734  0.2160  0.9364  0.1427
11338TIP3    H133947   2.991   4.351   5.743 -0.8248 -0.9186 -1.4889
11338TIP3    H233948   3.082   4.281   5.644  1.0018 -2.5559  1.2951
11339TIP3   OH233949   3.952   4.067   6.633 -0.9077 -0.2964  0.8317
11339TIP3    H133950   3.922   3.981   6.604 -0.5096 -0.0435 -0.3658
11339TIP3    H233951   3.993   4.106   6.556 -0.3599  0.6461  1.5777
11340TIP3   OH233952   0.752   2.256   1.607  0.2936  0.3106  0.0269
11340TIP3    H133953   0.708   2.195   1.667 -1.3080  2.2864  0.8992
11340TIP3    H233954   0.709   2.241   1.523 -1.6868  1.7687  0.7306
11341TIP3   OH233955   2.199   2.220   5.605 -0.3467  0.7468  0.3109
11341TIP3    H133956   2.160   2.292   5.555 -0.2414  0.0755 -0.7565
11341TIP3    H233957   2.289   2.216   5.573 -0.4258 -0.0196  0.1811
11342TIP3   OH233958   8.222   7.118   0.977 -0.1528  0.2734 -0.0932
11342TIP3    H133959   8.312   7.123   1.011 -0.9048  0.5419  1.9431
11342TIP3    H233960   8.201   7.024   0.979  0.0541  0.2199 -0.4740
11343TIP3   OH233961   2.176   4.234   6.918  0.6677  0.7228  0.0523
11343TIP3    H133962   2.264   4.207   6.942  0.3521 -0.1506  0.2637
11343TIP3    H233963   2.137   4.156   6.879 -0.1965  0.9321  0.4748
11344TIP3   OH233964   6.664   7.157   5.959  0.4168 -0.1095 -0.5229
11344TIP3    H133965   6.741   7.206   5.990  0.9315  0.2988 -2.4067
11344TIP3    H233966   6.589   7.208   5.992  0.9460  0.8784 -0.8114
11345TIP3   OH233967   5.427   5.254   6.956 -0.0972  0.6078 -0.3462
11345TIP3    H133968   5.443   5.277   6.864  2.4849 -1.8171 -0.5833
11345TIP3    H233969   5.460   5.164   6.964  0.7067  1.1599  3.2217
11346TIP3   OH233970   5.695   5.558   5.234 -0.4494 -0.3571  0.2125
11346TIP3    H133971   5.617   5.509   5.210  0.8429 -2.0248 -0.7831
11346TIP3    H233972   5.767   5.509   5.193  0.8783  2.6642 -1.2319
11347TIP3   OH233973   6.360   5.421   6.407  0.5314  0.0803  0.0857
11347TIP3    H133974   6.309   5.484   6.457 -2.6575 -1.8606 -0.5896
11347TIP3    H233975   6.377   5.350   6.469 -2.3970 -1.7729 -1.1099
11348TIP3   OH233976   5.297   1.920   5.557  0.5139 -0.0570 -0.2598
11348TIP3    H133977   5.205   1.944   5.543  0.9205  1.1505 -0.9144
11348TIP3    H233978   5.309   1.839   5.508  0.5333  1.3046 -2.5641
11349TIP3   OH233979   2.914   4.718   6.849  0.1619 -0.0120  0.1901
11349TIP3    H133980   2.892   4.786   6.913 -1.3893 -1.6096  1.4330
11349TIP3    H233981   3.009   4.712   6.851  0.1885  0.7002  1.5902
11350TIP3   OH233982   3.514   5.439   4.903 -0.2906  0.2259  0.0819
11350TIP3    H133983   3.556   5.378   4.842 -1.5877 -1.4288  0.7913
11350TIP3    H233984   3.554   5.524   4.885  0.1442 -0.4609 -2.3018
11351TIP3   OH233985   7.639   0.863   5.154 -0.0140 -0.0262 -0.5451
11351TIP3    H133986   7.675   0.860   5.243 -2.2621 -0.7638  0.3766
11351TIP3    H233987   7.559   0.914   5.163  0.5175  1.1669 -2.4554
11352TIP3   OH233988   3.572   4.797   5.525  0.1952  0.0405 -0.1233
11352TIP3    H133989   3.645   4.842   5.568  1.4279 -0.5817 -1.5329
11352TIP3    H233990   3.603   4.780   5.436 -2.4787  1.6937 -1.4206
11353TIP3   OH233991   5.209   6.135   6.141 -0.2287 -0.0684 -0.2796
11353TIP3    H133992   5.174   6.191   6.210 -1.9131 -0.9482 -0.3953
11353TIP3    H233993   5.264   6.072   6.188  1.2120  1.2890 -0.0917
11354TIP3   OH233994   1.623   0.299   0.454 -0.1865  0.0921 -0.3939
11354TIP3    H133995   1.670   0.247   0.388 -0.5612  2.2469 -2.4314
11354TIP3    H233996   1.553   0.342   0.405 -0.4413  1.7964  1.4129
11355TIP3   OH233997   2.000   2.304   0.192 -0.0020  0.3513 -0.2377
11355TIP3    H133998   1.919   2.277   0.235  0.5460  0.1556  0.6855
11355TIP3    H233999   2.036   2.223   0.155 -0.0875  0.3958 -0.4226
11356TIP3   OH234000   2.075   7.257   0.497 -0.2917 -0.0229 -0.3899
11356TIP3    H134001   2.126   7.334   0.521  0.4308 -0.7918  0.5470
11356TIP3    H234002   2.061   7.266   0.402 -1.0079  1.7251 -0.1449
11357TIP3   OH234003   2.929   3.887   5.990 -0.8190  0.2995  0.0850
11357TIP3    H134004   2.892   3.970   5.959  0.5787  0.9445  0.0671
11357TIP3    H234005   3.023   3.897   5.976 -0.3823 -0.3283  2.3291
11358TIP3   OH234006   2.764   4.364   6.482 -0.4188  0.2593 -0.5226
11358TIP3    H134007   2.674   4.364   6.516  0.3291 -2.6591  1.6329
11358TIP3    H234008   2.818   4.379   6.559  1.0469  0.2043 -1.5249
11359TIP3   OH234009   5.085   3.237   6.062  0.1807 -0.5961  0.1881
11359TIP3    H134010   5.047   3.160   6.018  0.5336 -0.9998  0.5825
11359TIP3    H234011   5.113   3.293   5.990 -0.4071 -0.6674 -0.1077
11360TIP3   OH234012   7.864   7.922   0.932 -0.2673  0.4376  0.2472
11360TIP3    H134013   7.947   7.967   0.914 -0.0544  0.5984  1.6030
11360TIP3    H234014   7.872   7.892   1.022 -1.7199  0.5303  0.4165
11361TIP3   OH234015   5.137   3.010   5.575  0.1574 -0.2751 -0.8222
11361TIP3    H134016   5.227   3.006   5.542 -0.9730  1.1315 -4.2048
11361TIP3    H234017   5.089   2.946   5.522 -1.5157  1.3812 -1.3356
11362TIP3   OH234018   2.789   5.195   6.921 -0.0685 -0.5719  0.1316
11362TIP3    H134019   2.705   5.239   6.916 -0.3362 -1.1149 -0.3322
11362TIP3    H234020   2.811   5.176   6.829  0.3616 -0.7916  0.2782
11363TIP3   OH234021   2.470   5.197   6.580 -0.1595  0.0888 -0.2764
11363TIP3    H134022   2.528   5.151   6.640 -0.5990  1.2393  1.0729
11363TIP3    H234023   2.398   5.136   6.564  1.0237 -1.0583 -1.3719
11364TIP3   OH234024   1.570   0.014   0.185 -0.2570  0.8070  0.3594
11364TIP3    H134025   1.628  -0.062   0.192 -1.6581 -0.2633  0.8176
11364TIP3    H234026   1.628   0.088   0.170  1.3604  0.1058  2.8979
11365TIP3   OH234027   4.298   3.864   5.802  0.1753 -0.0135  0.3998
11365TIP3    H134028   4.372   3.834   5.855 -0.2768  0.2380  1.1730
11365TIP3    H234029   4.261   3.937   5.851  0.7095  1.2268 -1.0290
11366TIP3   OH234030   2.637   4.076   5.106  0.2491 -0.0817  0.0721
11366TIP3    H134031   2.688   4.151   5.075  0.1818 -0.1547 -0.2171
11366TIP3    H234032   2.593   4.108   5.185 -0.0225  0.2758 -0.2234
11367TIP3   OH234033   4.056   6.882   4.572  0.6352 -0.3009 -0.4826
11367TIP3    H134034   4.083   6.969   4.542 -1.2339  0.2457 -0.6948
11367TIP3    H234035   4.070   6.825   4.496 -0.5343  0.3396 -1.2010
11368TIP3   OH234036   3.992   2.279   6.815  0.3118  0.1151 -0.7354
11368TIP3    H134037   4.006   2.257   6.723 -0.2013  0.0233 -0.7913
11368TIP3    H234038   3.931   2.353   6.813 -0.4740 -0.5181 -0.4368
11369TIP3   OH234039   5.640   2.217   5.879  0.1705  0.5331 -0.2456
11369TIP3    H134040   5.551   2.217   5.844 -0.5322  1.0652  1.4743
11369TIP3    H234041   5.650   2.304   5.919  0.8407 -0.1685  1.1281
11370TIP3   OH234042   4.345   3.416   5.696  0.0255 -0.3028 -0.4847
11370TIP3    H134043   4.286   3.419   5.621  1.1966 -0.6102 -1.4438
11370TIP3    H234044   4.367   3.324   5.707 -0.8093 -0.3667  0.7886
11371TIP3   OH234045   4.931   6.487   6.046 -0.0609  0.1537  0.3550
11371TIP3    H134046   5.011   6.528   6.078 -1.0343  2.3487  0.0917
11371TIP3    H234047   4.932   6.502   5.951  0.2953 -1.7703  0.0435
11372TIP3   OH234048   4.336   0.675   0.039  0.0854 -0.4303  0.6410
11372TIP3    H134049   4.298   0.663   0.126  1.5460  0.9202  1.4693
11372TIP3    H234050   4.260   0.674  -0.020 -1.0316 -0.0444  2.0460
11373TIP3   OH234051   4.703   5.350   6.011 -0.7525  0.6581  0.2466
11373TIP3    H134052   4.726   5.347   5.918  0.7774  2.2403  0.5361
11373TIP3    H234053   4.741   5.271   6.048 -1.7769 -0.2145 -0.5521
11374TIP3   OH234054   1.186   4.741   6.340 -0.1679 -0.6524  0.2965
11374TIP3    H134055   1.111   4.762   6.396  0.6757  2.1380  0.4746
11374TIP3    H234056   1.260   4.735   6.400  0.1641 -1.0372 -0.1478
11375TIP3   OH234057   3.549   1.226   0.240  0.2717 -0.2795  0.4532
11375TIP3    H134058   3.642   1.243   0.253  0.2874 -0.3029  0.3678
11375TIP3    H234059   3.514   1.308   0.204  0.3812 -0.4811 -0.1210
11376TIP3   OH234060   2.067   2.161   0.540 -0.0838 -0.5849  0.4017
11376TIP3    H134061   2.117   2.239   0.515  1.4764 -1.3501  1.0768
11376TIP3    H234062   1.987   2.196   0.579  1.4642  0.7612  2.5299
11377TIP3   OH234063   4.595   6.815   6.017 -0.2901 -0.0420 -0.1565
11377TIP3    H134064   4.688   6.824   5.997 -0.2007  3.3933  1.3857
11377TIP3    H234065   4.592   6.791   6.109 -0.9360  0.5111 -0.0287
11378TIP3   OH234066   5.193   4.610   4.411  0.3764 -0.0102 -0.2616
11378TIP3    H134067   5.119   4.579   4.358  0.6200  0.1520 -0.6979
11378TIP3    H234068   5.232   4.531   4.447 -1.2634  0.0261  1.6551
11379TIP3   OH234069   4.953   3.811   5.901 -0.2723  0.1210  0.0937
11379TIP3    H134070   5.010   3.825   5.826 -0.0975  1.4393  0.4603
11379TIP3    H234071   4.870   3.783   5.864 -0.0700  0.4059 -0.5705
11380TIP3   OH234072   4.047   5.642   3.467 -0.3877  0.6505  0.2123
11380TIP3    H134073   4.005   5.677   3.546 -2.1789  0.9404 -0.8382
11380TIP3    H234074   3.975   5.608   3.415  0.8502 -0.1685 -1.0029
11381TIP3   OH234075   3.652   3.167   6.705 -0.2890 -0.0552 -0.3193
11381TIP3    H134076   3.601   3.154   6.785  1.4906 -1.6683  0.6039
11381TIP3    H234077   3.604   3.117   6.638  0.3084 -1.9871  0.6523
11382TIP3   OH234078   1.988   4.252   0.355 -0.3817 -0.6168 -0.3463
11382TIP3    H134079   1.913   4.192   0.356 -0.5457 -0.4076  0.1772
11382TIP3    H234080   1.968   4.316   0.423  0.5031 -0.8251  0.1048
11383TIP3   OH234081   3.032   3.752   6.710 -0.8813  0.4800 -0.6931
11383TIP3    H134082   2.992   3.744   6.797  0.1771 -0.3619 -0.2652
11383TIP3    H234083   3.059   3.662   6.688 -0.2419  0.8482 -1.4521
11384TIP3   OH234084   6.916   3.861   6.001  0.3854 -0.2194 -0.4868
11384TIP3    H134085   6.867   3.788   6.041  0.9681  0.0001  0.6631
11384TIP3    H234086   6.982   3.818   5.947 -0.0415 -0.5289 -0.7733
11385TIP3   OH234087   4.396   6.838   5.093  0.3233  0.4402  0.0917
11385TIP3    H134088   4.348   6.903   5.145 -0.0414 -0.7193  1.2374
11385TIP3    H234089   4.454   6.795   5.156  0.7391 -0.1949 -0.7077
11386TIP3   OH234090   8.226   3.703   1.468  0.6694  0.1270  0.1142
11386TIP3    H134091   8.268   3.752   1.397  0.9879 -0.7567 -0.3127
11386TIP3    H234092   8.224   3.612   1.436  2.4708 -0.6099  1.9775
11387TIP3   OH234093   3.755   3.288   4.192  0.1510  0.3455 -0.3927
11387TIP3    H134094   3.791   3.376   4.199 -1.7595  1.0661  0.7929
11387TIP3    H234095   3.678   3.289   4.250 -1.0608 -1.4788 -1.9231
11388TIP3   OH234096   3.679   4.309   6.397  0.2378 -0.2448  0.1360
11388TIP3    H134097   3.713   4.382   6.448 -1.7077  0.7654  0.0526
11388TIP3    H234098   3.608   4.273   6.451 -0.2555 -0.6687 -0.7788
11389TIP3   OH234099   3.983   5.647   3.891  0.3561 -0.1835 -0.1138
11389TIP3    H134100   3.954   5.629   3.802  0.8862 -0.5250 -0.2198
11389TIP3    H234101   3.936   5.584   3.945 -0.6179  0.5942 -0.0505
11390TIP3   OH234102   3.768   5.564   4.289  1.0026 -0.0795  0.8032
11390TIP3    H134103   3.838   5.499   4.290 -0.5402 -1.8782 -1.9118
11390TIP3    H234104   3.691   5.516   4.319  0.3299  1.1190  1.0112
11391TIP3   OH234105   4.374   7.022   6.543  0.6644  0.0817  0.2251
11391TIP3    H134106   4.413   7.075   6.612  2.6653 -0.1914 -0.6578
11391TIP3    H234107   4.367   6.934   6.581 -0.7889  0.5350  1.0064
11392TIP3   OH234108   5.094   5.536   6.011 -0.0193  0.1143 -0.5120
11392TIP3    H134109   5.012   5.514   5.967 -0.6051 -2.9996  1.9253
11392TIP3    H234110   5.160   5.533   5.941 -1.1447 -3.1648 -1.5378
11393TIP3   OH234111   6.210   6.637   6.933  0.4204 -0.1099 -0.3586
11393TIP3    H134112   6.289   6.602   6.974  0.6550 -0.0658 -0.7696
11393TIP3    H234113   6.161   6.560   6.904  2.0814 -0.1099 -3.4360
11394TIP3   OH234114   3.960   5.364   5.735 -0.0635  0.4207  0.2392
11394TIP3    H134115   3.967   5.414   5.654 -0.8019  0.7602  0.3873
11394TIP3    H234116   4.020   5.409   5.795  0.6660  0.0291 -0.1790
11395TIP3   OH234117   2.055   1.357   0.083 -0.4901 -0.0270 -0.0831
11395TIP3    H134118   1.975   1.344   0.134 -0.1427 -1.6347  0.0798
11395TIP3    H234119   2.106   1.420   0.134 -0.6110 -0.8233  1.0450
11396TIP3   OH234120   4.536   4.467   4.569 -0.9422 -0.1563  0.1808
11396TIP3    H134121   4.550   4.414   4.648  0.6488 -0.0942 -0.0308
11396TIP3    H234122   4.520   4.555   4.602 -0.3542 -0.1441  0.4417
11397TIP3   OH234123   4.140   5.547   5.077 -0.5750  0.2980 -0.0426
11397TIP3    H134124   4.159   5.628   5.125  0.6700  1.3904 -2.3394
11397TIP3    H234125   4.059   5.566   5.029 -1.3265 -0.5002  0.8632
11398TIP3   OH234126   2.964   0.047   0.772  0.1017 -0.0350 -0.0110
11398TIP3    H134127   2.935   0.136   0.752  0.8638  0.3506  0.5737
11398TIP3    H234128   2.976   0.006   0.687  0.0602  0.5245 -0.2891
11399TIP3   OH234129   1.920   4.446   5.659 -1.0788  0.7275  0.3372
11399TIP3    H134130   1.836   4.471   5.699 -1.8275 -1.3342  0.1025
11399TIP3    H234131   1.922   4.351   5.666  0.8979  0.7034 -0.3908
11400TIP3   OH234132   0.217   7.138   0.906 -0.0556  0.1468 -0.1404
11400TIP3    H134133   0.193   7.105   0.993  1.0497  1.4927  0.7129
11400TIP3    H234134   0.136   7.136   0.856 -0.6614 -0.8681  0.8640
11401TIP3   OH234135   4.671   1.141   1.315 -0.1035 -0.0562  0.1169
11401TIP3    H134136   4.738   1.094   1.365 -0.9464 -1.6388 -0.2256
11401TIP3    H234137   4.702   1.139   1.225 -0.2513 -0.1729  0.0676
11402TIP3   OH234138   3.787   4.927   5.650  0.3738  1.0935  0.2956
11402TIP3    H134139   3.790   5.023   5.642 -0.9067  1.1543  0.5246
11402TIP3    H234140   3.808   4.911   5.742 -0.2139  1.1970  0.4482
11403TIP3   OH234141   3.436   3.894   5.317  0.1854  0.3325 -0.2172
11403TIP3    H134142   3.480   3.854   5.392 -0.7844 -1.8016 -0.7295
11403TIP3    H234143   3.343   3.892   5.341 -0.0967 -0.0725 -1.3425
11404TIP3   OH234144   6.372   5.206   5.712 -0.1628 -0.8253  0.3845
11404TIP3    H134145   6.438   5.141   5.739  1.3144  0.2269 -0.6374
11404TIP3    H234146   6.378   5.275   5.778  0.3373 -0.3547 -0.1426
11405TIP3   OH234147   5.933   6.648   5.583 -0.2594 -0.0692  0.1276
11405TIP3    H134148   5.866   6.634   5.650 -0.3782  0.6072  0.1534
11405TIP3    H234149   5.892   6.616   5.502  1.2061 -4.2717  0.9430
11406TIP3   OH234150   3.303   5.048   4.430  0.3483 -0.1390  0.1094
11406TIP3    H134151   3.395   5.037   4.409  0.0952 -4.3318  0.8055
11406TIP3    H234152   3.300   5.048   4.526 -0.2442  1.9073  0.1293
11407TIP3   OH234153   3.206   5.809   4.101 -0.2324 -0.0820 -0.3686
11407TIP3    H134154   3.285   5.782   4.149 -0.4009  1.2837  0.7193
11407TIP3    H234155   3.175   5.886   4.148 -0.4742  1.2471 -2.6299
11408TIP3   OH234156   6.541   7.764   1.118  0.4591 -0.0681 -0.2555
11408TIP3    H134157   6.505   7.839   1.072 -1.5306 -0.1043  1.1809
11408TIP3    H234158   6.633   7.761   1.091  0.3966  2.4524 -0.8524
11409TIP3   OH234159   3.174   4.784   4.487 -0.1879  0.3908  0.5425
11409TIP3    H134160   3.180   4.850   4.418  0.5704  0.2823  0.5027
11409TIP3    H234161   3.083   4.755   4.483 -0.2183  0.5598 -0.2525
11410TIP3   OH234162   4.789   5.897   5.588  0.3093 -0.1310  0.4961
11410TIP3    H134163   4.855   5.828   5.589  1.1624  0.5869 -1.9112
11410TIP3    H234164   4.816   5.955   5.516 -1.6645  1.4321  0.9635
11411TIP3   OH234165   3.528   1.790   0.098  0.0247  0.0748 -0.2664
11411TIP3    H134166   3.470   1.794   0.022  0.5347  1.0245 -0.6194
11411TIP3    H234167   3.594   1.724   0.074 -0.3091 -0.2510 -0.2905
11412TIP3   OH234168   3.818   5.533   5.214  0.6415 -0.1904  0.0758
11412TIP3    H134169   3.840   5.444   5.242  0.7302 -0.9455 -2.3005
11412TIP3    H234170   3.747   5.560   5.272 -0.0868 -2.2111  0.1434
11413TIP3   OH234171   5.048   3.207   5.751  0.0124  0.0515  0.3025
11413TIP3    H134172   5.090   3.136   5.702 -0.8568  0.2961 -0.8055
11413TIP3    H234173   5.071   3.286   5.702  0.1840  0.4496  1.0073
11414TIP3   OH234174   6.599   6.893   1.077 -0.5238 -0.0264 -0.0754
11414TIP3    H134175   6.659   6.936   1.016 -0.5174  0.2993  0.1577
11414TIP3    H234176   6.654   6.867   1.151 -0.7279  0.6087  0.3095
11415TIP3   OH234177   2.981   3.806   5.152 -0.0873  0.1036  0.1779
11415TIP3    H134178   2.891   3.837   5.163  0.3478  2.2507 -1.7338
11415TIP3    H234179   3.013   3.854   5.075  1.8462 -2.5724 -0.7451
11416TIP3   OH234180   4.295   4.424   5.624  0.3241 -0.1822 -0.1172
11416TIP3    H134181   4.220   4.421   5.682  2.1299  1.0107  2.3687
11416TIP3    H234182   4.323   4.332   5.617  0.3797 -0.2888  1.3280
11417TIP3   OH234183   2.606   5.005   4.689 -0.4058 -0.3437 -0.4114
11417TIP3    H134184   2.542   4.973   4.626 -2.0242  2.0507 -0.0786
11417TIP3    H234185   2.582   4.963   4.771 -0.2266 -1.0784 -0.7336
11418TIP3   OH234186   5.054   7.459   4.827  0.2866 -0.0332 -0.5343
11418TIP3    H134187   5.049   7.475   4.922 -0.7298  1.3244 -0.7944
11418TIP3    H234188   5.011   7.375   4.814 -0.7192  0.3875  0.0608
11419TIP3   OH234189   2.924   6.628   6.327  0.4580 -0.0546  0.2817
11419TIP3    H134190   2.942   6.672   6.410 -2.2112 -0.7274  1.2834
11419TIP3    H234191   2.942   6.694   6.260  1.8792  0.7459  1.4370
11420TIP3   OH234192   3.674   2.947   0.764 -0.2100 -0.3041 -0.5193
11420TIP3    H134193   3.667   2.860   0.724 -0.7231  0.2076 -1.5263
11420TIP3    H234194   3.591   2.959   0.810  0.3487 -0.8605  0.6696
11421TIP3   OH234195   2.835   1.397   0.990 -0.3592 -0.3775 -0.8508
11421TIP3    H134196   2.848   1.312   1.032 -0.3577 -0.7017 -1.4965
11421TIP3    H234197   2.771   1.442   1.045 -0.0804 -0.6542 -0.3032
11422TIP3   OH234198   4.510   3.609   6.204  0.6848 -0.4000 -0.3893
11422TIP3    H134199   4.586   3.576   6.155  0.4259 -0.7422 -0.5602
11422TIP3    H234200   4.438   3.553   6.177  0.1265  0.6298 -1.0660
11423TIP3   OH234201   4.586   3.185   5.953 -0.2116  0.0827  0.0701
11423TIP3    H134202   4.636   3.166   5.873 -0.1816  0.0231  0.1039
11423TIP3    H234203   4.505   3.135   5.943  0.6520 -1.5281  1.0091
11424TIP3   OH234204   4.462   5.872   6.440  0.3256 -0.4946  0.4562
11424TIP3    H134205   4.405   5.880   6.517  1.0221  0.5007  0.8811
11424TIP3    H234206   4.433   5.791   6.397 -1.1499 -0.2040  0.8738
11425TIP3   OH234207   3.715   5.585   5.505 -0.1682 -0.0994 -0.2322
11425TIP3    H134208   3.686   5.594   5.596 -1.0625 -1.5024 -0.3748
11425TIP3    H234209   3.810   5.597   5.509 -0.4660  2.3810  0.5272
11426TIP3   OH234210   4.950   5.221   5.427 -0.0905  0.1758  0.1302
11426TIP3    H134211   4.863   5.259   5.413 -0.1869  0.3025  1.0998
11426TIP3    H234212   4.982   5.202   5.338 -0.5520  1.3622 -0.3011
11427TIP3   OH234213   5.462   3.764   5.432  0.5956 -0.3383 -0.1596
11427TIP3    H134214   5.377   3.795   5.464  1.1135  0.1740  0.7471
11427TIP3    H234215   5.476   3.812   5.351  0.5684  0.4633  0.3077
11428TIP3   OH234216   5.192   6.495   5.642  0.3270  0.5111 -0.2004
11428TIP3    H134217   5.150   6.553   5.706  2.0887  0.4831  1.0377
11428TIP3    H234218   5.269   6.462   5.688  0.2896 -1.4689 -1.4931
11429TIP3   OH234219   4.759   4.955   5.543  0.3983 -0.0365 -0.0722
11429TIP3    H134220   4.730   5.000   5.622  0.5224  0.4126 -0.2792
11429TIP3    H234221   4.751   5.021   5.474 -2.9493 -1.3845 -1.0722
11430TIP3   OH234222   4.261   4.190   4.664  0.1682  0.2634 -0.6564
11430TIP3    H134223   4.280   4.265   4.720 -0.9001 -0.1279  0.2570
11430TIP3    H234224   4.177   4.210   4.623 -0.2893 -0.5578 -0.1493
11431TIP3   OH234225   5.692   3.568   4.746  0.2833 -0.0366  0.4307
11431TIP3    H134226   5.618   3.558   4.687  0.2580  0.9331  0.2839
11431TIP3    H234227   5.769   3.547   4.693  0.1245 -0.9095  0.5456
11432TIP3   OH234228   4.666   4.706   6.843  0.0932 -0.3170 -0.2156
11432TIP3    H134229   4.726   4.774   6.875 -0.8462  0.4997 -0.1512
11432TIP3    H234230   4.592   4.755   6.808  0.4619 -1.2356 -2.3833
11433TIP3   OH234231   1.425   2.325   0.065  0.5090  0.0130  0.8086
11433TIP3    H134232   1.467   2.271  -0.002  0.1810  1.3249 -0.4912
11433TIP3    H234233   1.344   2.355   0.024 -0.3015 -0.1338  2.2434
11434TIP3   OH234234   6.864   5.460   5.413  0.3355  0.7226 -0.1896
11434TIP3    H134235   6.925   5.461   5.339  0.5131  0.3299 -0.0513
11434TIP3    H234236   6.911   5.505   5.483  1.6307 -2.0214  0.8138
11435TIP3   OH234237   3.083   3.928   2.818  0.0954 -0.0799 -0.2372
11435TIP3    H134238   3.040   3.973   2.745 -1.4587 -1.8024 -0.4286
11435TIP3    H234239   3.114   3.998   2.875 -1.8512  1.2438 -0.7634
11436TIP3   OH234240   6.713   5.197   4.211 -0.1097  0.0023 -0.2930
11436TIP3    H134241   6.660   5.274   4.229  0.1382  0.3871 -1.1782
11436TIP3    H234242   6.802   5.230   4.199 -0.4994  0.0132 -3.7200
11437TIP3   OH234243   4.402   3.511   3.855  0.2426  0.0522 -0.0365
11437TIP3    H134244   4.443   3.593   3.881  2.4473 -0.5641 -1.4675
11437TIP3    H234245   4.419   3.504   3.761 -1.8750 -0.9677 -0.3851
11438TIP3   OH234246   1.355   3.704   0.812  0.6961  0.1464 -0.4666
11438TIP3    H134247   1.326   3.735   0.898  1.5922  1.4596 -0.6206
11438TIP3    H234248   1.294   3.745   0.750 -1.0048 -2.1535 -0.3627
11439TIP3   OH234249   4.882   6.466   4.641  1.0555  0.5757 -0.0232
11439TIP3    H134250   4.905   6.407   4.712  1.7995  2.1941  1.1221
11439TIP3    H234251   4.966   6.490   4.602  0.7448  0.7060 -0.6189
11440TIP3   OH234252   4.736   4.779   3.629 -0.4633 -0.3744  0.4971
11440TIP3    H134253   4.783   4.696   3.620 -1.1538 -0.7029 -0.1811
11440TIP3    H234254   4.739   4.818   3.541  1.0271  0.9724  1.1245
11441TIP3   OH234255   5.949   4.331   6.585  0.0023 -0.2422 -0.3140
11441TIP3    H134256   6.027   4.370   6.623 -0.5441  2.1586 -1.5303
11441TIP3    H234257   5.981   4.255   6.536  1.8087  1.5153 -1.9758
11442TIP3   OH234258   2.124   3.405   0.377  0.2445 -0.4576 -0.4288
11442TIP3    H134259   2.051   3.345   0.391  0.2121 -0.3234  0.0000
11442TIP3    H234260   2.143   3.399   0.284  0.3910 -1.3004 -0.3446
11443TIP3   OH234261   3.263   5.753   5.412 -0.3386 -0.0188 -0.6415
11443TIP3    H134262   3.271   5.728   5.320 -1.2465 -0.8182 -0.5110
11443TIP3    H234263   3.179   5.799   5.417  0.4150  1.3486 -0.5009
11444TIP3   OH234264   6.556   4.787   6.423 -0.4254  0.0555 -0.0483
11444TIP3    H134265   6.569   4.832   6.340 -0.1666 -0.0838 -0.0825
11444TIP3    H234266   6.642   4.785   6.464 -0.8592  1.5591  0.9633
11445TIP3   OH234267   7.529   7.379   1.146  0.2478  0.0364  0.5192
11445TIP3    H134268   7.555   7.425   1.226 -1.9967  0.5619  0.9788
11445TIP3    H234269   7.597   7.313   1.134  0.5614 -0.1337  2.9367
11446TIP3   OH234270   5.793   7.592   6.460 -0.2386  0.0618  0.2096
11446TIP3    H134271   5.748   7.587   6.376 -1.8664  0.4560  1.0330
11446TIP3    H234272   5.864   7.655   6.446 -0.8301  0.5311 -0.7142
11447TIP3   OH234273   4.984   7.206   5.005  0.3005  0.0712 -0.3975
11447TIP3    H134274   4.893   7.176   5.016  0.5061 -0.5638 -0.4344
11447TIP3    H234275   5.037   7.134   5.038  0.8138  0.0602 -1.2372
11448TIP3   OH234276   3.301   3.344   5.715  0.0447 -0.1957 -0.1862
11448TIP3    H134277   3.368   3.406   5.688  0.3477 -0.3424  0.2290
11448TIP3    H234278   3.227   3.398   5.744 -0.5280 -0.0352 -1.8921
11449TIP3   OH234279   4.727   7.308   4.278 -0.3324  0.1923 -0.0981
11449TIP3    H134280   4.746   7.387   4.329  1.9844 -0.2777 -0.1779
11449TIP3    H234281   4.752   7.236   4.335  0.0780 -0.4091 -1.0288
11450TIP3   OH234282   2.966   6.664   6.897 -0.0732  0.0251  0.2675
11450TIP3    H134283   2.928   6.716   6.826  0.4499 -0.0746 -0.0879
11450TIP3    H234284   3.053   6.641   6.866 -0.0311 -0.4519  0.7307
11451TIP3   OH234285   1.382   1.889   0.092  0.1920 -0.3492  0.6364
11451TIP3    H134286   1.331   1.954   0.044 -0.8365 -1.7746 -0.2342
11451TIP3    H234287   1.443   1.941   0.145  0.3273  1.2741 -1.0612
11452TIP3   OH234288   4.456   6.234   3.023 -0.5255 -0.0692  0.2278
11452TIP3    H134289   4.503   6.290   2.961 -0.4959  1.8637  1.9722
11452TIP3    H234290   4.511   6.156   3.032  0.6752  0.7127 -0.2924
11453TIP3   OH234291   4.471   3.652   4.512 -0.0366 -0.0848 -0.1596
11453TIP3    H134292   4.555   3.616   4.539  0.1488  0.6947  0.3065
11453TIP3    H234293   4.494   3.726   4.455 -0.3964  0.7146  0.7332
11454TIP3   OH234294   4.358   3.545   6.850 -0.1527 -0.2876 -0.0498
11454TIP3    H134295   4.397   3.630   6.871 -2.5172  1.2893 -1.7154
11454TIP3    H234296   4.276   3.544   6.899  0.4374 -2.1966  0.9616
11455TIP3   OH234297   2.712   1.012   0.090 -0.0834 -0.3674  0.3408
11455TIP3    H134298   2.657   0.936   0.109  1.2126 -1.0725  1.3763
11455TIP3    H234299   2.766   0.985   0.016  0.1318 -0.3296  0.4833
11456TIP3   OH234300   2.644   0.891   0.740 -0.3633 -0.5352 -0.0690
11456TIP3    H134301   2.588   0.900   0.817  0.6953 -1.3218  0.8082
11456TIP3    H234302   2.583   0.884   0.667 -1.3942 -0.4363  0.7697
11457TIP3   OH234303   3.691   4.463   5.320 -0.4213  0.1526  0.0869
11457TIP3    H134304   3.667   4.433   5.408 -1.3103  2.5187  0.6639
11457TIP3    H234305   3.689   4.383   5.267  2.0026 -1.6485  2.5806
11458TIP3   OH234306   6.222   5.669   6.182 -0.0854 -0.2666  0.2988
11458TIP3    H134307   6.312   5.643   6.162  0.3458  1.2171  0.2624
11458TIP3    H234308   6.218   5.761   6.158 -1.8686 -0.5289 -0.5078
11459TIP3   OH234309   4.196   2.834   4.679 -0.5003 -0.4195  0.2610
11459TIP3    H134310   4.155   2.919   4.696  1.4193  0.4446  0.7082
11459TIP3    H234311   4.288   2.847   4.703  0.4326 -1.7697 -2.3551
11460TIP3   OH234312   4.428   6.175   3.992 -0.1213 -0.4064  0.3384
11460TIP3    H134313   4.383   6.125   4.059 -1.1872  2.0781  1.5613
11460TIP3    H234314   4.372   6.252   3.978  1.1775  0.1934 -1.8235
11461TIP3   OH234315   3.555   4.282   5.528  0.4427  0.2065 -0.3341
11461TIP3    H134316   3.538   4.357   5.586 -0.2340  1.1424 -1.7314
11461TIP3    H234317   3.468   4.243   5.514  0.6228 -0.0881 -0.6256
11462TIP3   OH234318   6.051   4.044   6.816  0.0926  0.4544 -0.0337
11462TIP3    H134319   6.000   4.006   6.745  0.1954  0.1659  0.0442
11462TIP3    H234320   6.011   4.129   6.832 -0.0454  0.4429 -0.3138
11463TIP3   OH234321   5.341   4.721   5.202 -0.6165 -0.6101  0.6339
11463TIP3    H134322   5.423   4.770   5.196 -0.6847 -0.7550 -1.8521
11463TIP3    H234323   5.368   4.629   5.212 -0.3910 -0.9845 -2.8122
11464TIP3   OH234324   3.680   6.289   5.112  0.2086 -0.2908 -0.2195
11464TIP3    H134325   3.692   6.230   5.187  1.7996 -0.2979 -0.4662
11464TIP3    H234326   3.626   6.238   5.050 -2.0375  0.1176  1.3414
11465TIP3   OH234327   5.144   1.812   4.695 -0.0676  0.0878 -0.4231
11465TIP3    H134328   5.056   1.821   4.660 -0.7101 -1.5820  0.6488
11465TIP3    H234329   5.197   1.785   4.621 -0.7695 -0.3396 -0.7801
11466TIP3   OH234330   6.457   6.963   4.785 -0.0340 -0.2885  0.5104
11466TIP3    H134331   6.495   6.973   4.872  1.6156  0.7243 -0.2865
11466TIP3    H234332   6.396   7.036   4.776 -1.2293 -1.1697  1.3052
11467TIP3   OH234333   5.243   3.445   6.195  0.2028  0.5607 -0.7479
11467TIP3    H134334   5.234   3.350   6.196 -0.9884  0.6435  1.4254
11467TIP3    H234335   5.337   3.461   6.187  0.6491 -0.8631  1.1309
11468TIP3   OH234336   1.897   5.974   3.664  0.4854 -0.6207  0.3574
11468TIP3    H134337   1.993   5.978   3.666  0.4928  0.5616 -1.5184
11468TIP3    H234338   1.869   6.064   3.679 -0.3268 -0.7918 -0.1281
11469TIP3   OH234339   8.317   3.756   0.500  0.3292  0.4449  0.3520
11469TIP3    H134340   8.363   3.821   0.446  2.8842 -0.4112  1.4184
11469TIP3    H234341   8.346   3.671   0.465 -0.1050 -0.1145  1.3369
11470TIP3   OH234342   5.885   4.671   6.590 -0.1443 -0.6740  0.2726
11470TIP3    H134343   5.940   4.662   6.667 -0.3199 -0.1556  0.4607
11470TIP3    H234344   5.809   4.614   6.608 -0.6257  0.1575  0.8848
11471TIP3   OH234345   1.176   1.142   0.194 -0.3315  0.6312 -0.6045
11471TIP3    H134346   1.266   1.150   0.227  0.0821 -0.9070 -1.2939
11471TIP3    H234347   1.122   1.136   0.273  0.0881  2.2903 -0.1808
11472TIP3   OH234348   4.521   3.886   4.359 -0.1873 -0.8477 -0.0674
11472TIP3    H134349   4.517   3.963   4.415 -0.1499 -0.2620 -0.8678
11472TIP3    H234350   4.614   3.868   4.348 -0.1528  0.0845 -1.3659
11473TIP3   OH234351   4.193   5.712   5.323  0.5328  0.1784 -0.1214
11473TIP3    H134352   4.248   5.674   5.392  1.3527 -1.1015 -1.4483
11473TIP3    H234353   4.229   5.800   5.310  1.4277 -0.1656 -0.0355
11474TIP3   OH234354   3.158   6.024   6.203  0.4734  0.2098 -0.0099
11474TIP3    H134355   3.207   6.092   6.248  0.2079 -0.3594  1.1693
11474TIP3    H234356   3.132   6.064   6.120  0.9079  1.3057  0.3717
11475TIP3   OH234357   3.604   5.000   1.920  0.6412 -0.0164 -0.1388
11475TIP3    H134358   3.595   5.091   1.890 -1.7389  0.1879  1.0896
11475TIP3    H234359   3.647   5.008   2.006 -2.3282  0.2334  1.3893
11476TIP3   OH234360   0.943   2.890   1.535  0.3941 -0.1778 -0.7828
11476TIP3    H134361   0.899   2.811   1.567  0.2630 -0.2900 -1.2377
11476TIP3    H234362   0.945   2.948   1.611  2.4158 -1.4380  0.1951
11477TIP3   OH234363   3.726   4.581   6.471 -0.8713  0.5089 -0.6604
11477TIP3    H134364   3.802   4.635   6.450 -0.9948 -0.2214 -3.1696
11477TIP3    H234365   3.651   4.632   6.438 -1.3380  0.5330  0.4249
11478TIP3   OH234366   1.014   1.631   0.271  0.2194 -0.3675 -0.2388
11478TIP3    H134367   0.941   1.691   0.283 -0.1035 -0.9460  0.7394
11478TIP3    H234368   1.016   1.579   0.351  2.8179  0.8515  0.5847
11479TIP3   OH234369   4.323   4.630   6.597  0.0794  0.5672 -0.2650
11479TIP3    H134370   4.240   4.657   6.637 -0.4444  0.1019 -1.0342
11479TIP3    H234371   4.390   4.681   6.644 -0.3206 -1.4119  2.6232
11480TIP3   OH234372   3.709   5.540   6.017  0.0810 -0.3607  0.1333
11480TIP3    H134373   3.635   5.521   6.075  0.6093  0.3412  1.0653
11480TIP3    H234374   3.785   5.506   6.063  0.3724 -0.8705 -0.7139
11481TIP3   OH234375   2.975   1.911   2.877 -0.0114 -0.1309  0.6741
11481TIP3    H134376   3.033   1.912   2.801 -0.6406 -1.5216  0.1556
11481TIP3    H234377   3.032   1.888   2.951  0.3138 -0.3890  0.3429
11482TIP3   OH234378   4.005   5.242   6.088 -0.0403 -0.0708 -0.3835
11482TIP3    H134379   3.936   5.246   6.021  0.6804 -1.2452 -1.2236
11482TIP3    H234380   4.037   5.152   6.083 -0.4656 -0.3946  2.0467
11483TIP3   OH234381   4.654   7.617   5.332  0.9091 -0.5298  0.7533
11483TIP3    H134382   4.589   7.617   5.262  0.7009  1.8957  0.9161
11483TIP3    H234383   4.734   7.582   5.291  0.0922 -1.5269 -0.0033
11484TIP3   OH234384   2.768   4.728   4.782  0.2941 -0.1901  0.1342
11484TIP3    H134385   2.677   4.714   4.759  0.7474 -4.3637  0.6417
11484TIP3    H234386   2.770   4.732   4.878  0.2401  3.6282  0.0706
11485TIP3   OH234387   3.855   4.324   5.560 -0.1333 -0.5975 -0.7446
11485TIP3    H134388   3.893   4.245   5.521 -1.6291 -2.3293  1.2012
11485TIP3    H234389   3.763   4.301   5.576 -0.1366  0.8799  1.5721
11486TIP3   OH234390   2.219   0.159   0.309  0.7133 -0.1310  0.6136
11486TIP3    H134391   2.289   0.099   0.334  0.8197 -0.0593  0.4900
11486TIP3    H234392   2.150   0.103   0.275  1.5344 -0.0637 -1.2281
11487TIP3   OH234393   4.860   2.162   0.291  1.0279  0.0896  0.5674
11487TIP3    H134394   4.832   2.114   0.213  0.2638 -0.0570  0.9212
11487TIP3    H234395   4.905   2.239   0.257  0.1782  0.3349 -0.0334
11488TIP3   OH234396   3.925   6.408   5.284  0.3172 -0.2732 -0.3222
11488TIP3    H134397   3.874   6.333   5.252 -3.7468  2.1450  0.0278
11488TIP3    H234398   3.946   6.385   5.375  1.7772 -2.2164 -1.1055
11489TIP3   OH234399   1.424   3.437   0.970 -0.2264  0.2984  0.3205
11489TIP3    H134400   1.489   3.464   1.035  0.4360  2.8418 -1.3486
11489TIP3    H234401   1.345   3.486   0.992 -0.7059 -0.5478  0.5367
11490TIP3   OH234402   5.358   4.767   6.559  0.0567  0.0453  0.0349
11490TIP3    H134403   5.308   4.848   6.566 -1.5942 -0.9310 -0.1836
11490TIP3    H234404   5.296   4.698   6.582  1.1488 -1.2403 -0.7673
11491TIP3   OH234405   4.012   5.514   4.725  0.1800  0.2014 -0.5148
11491TIP3    H134406   3.987   5.573   4.654  1.9962  1.4668 -0.1122
11491TIP3    H234407   3.962   5.545   4.800  1.0339  1.1721 -0.3359
11492TIP3   OH234408   2.574   2.090  -0.004 -0.3078  0.4978 -0.3930
11492TIP3    H134409   2.493   2.086   0.048  0.3148  0.1190  0.5581
11492TIP3    H234410   2.586   2.001  -0.036 -0.7913  0.7751 -1.3453
11493TIP3   OH234411   4.702   0.890   1.724  0.0833 -0.2095  0.2537
11493TIP3    H134412   4.643   0.825   1.687  0.6940 -0.2906 -0.5889
11493TIP3    H234413   4.746   0.844   1.796  0.5658 -0.7643 -0.3823
11494TIP3   OH234414   6.601   5.704   6.944 -0.3944  0.9184  0.2482
11494TIP3    H134415   6.689   5.671   6.931  0.0911  3.0115 -2.2832
11494TIP3    H234416   6.545   5.644   6.895  0.2314  2.4365 -2.4262
11495TIP3   OH234417   4.450   5.346   6.447 -0.1750  0.4254  0.5893
11495TIP3    H134418   4.492   5.268   6.411 -1.6472  0.0460 -0.3877
11495TIP3    H234419   4.499   5.419   6.411  0.7609 -0.0333  0.9226
11496TIP3   OH234420   1.848   0.171   0.306 -0.2187  0.2195  0.6012
11496TIP3    H134421   1.922   0.118   0.276 -2.6526 -1.1182 -3.2978
11496TIP3    H234422   1.885   0.259   0.316  2.1298 -0.6122 -0.4006
11497TIP3   OH234423   4.056   4.883   5.052 -0.7966  0.0186 -0.3504
11497TIP3    H134424   4.018   4.901   4.966 -0.3004  0.4580 -0.4804
11497TIP3    H234425   4.106   4.803   5.040  0.3770  0.8122 -0.8144
11498TIP3   OH234426   4.739   6.281   5.520 -0.1806  0.3522  0.5511
11498TIP3    H134427   4.814   6.337   5.537 -0.7098  0.2901  3.3889
11498TIP3    H234428   4.674   6.308   5.584 -2.0583 -0.5800 -0.9027
11499TIP3   OH234429   0.093   2.791   0.431  0.3614  0.3442 -0.0052
11499TIP3    H134430   0.064   2.799   0.340 -0.3067  0.4959  0.2180
11499TIP3    H234431   0.176   2.838   0.434 -0.0633  1.1228 -0.3296
11500TIP3   OH234432   5.520   6.920   0.260  0.1963  0.0377 -0.1868
11500TIP3    H134433   5.605   6.879   0.274 -0.0430 -0.6572 -0.7357
11500TIP3    H234434   5.497   6.958   0.345 -0.2841 -2.2604  0.7370
11501TIP3   OH234435   4.673   5.081   6.902 -0.4893 -0.2654  1.0488
11501TIP3    H134436   4.591   5.066   6.948  0.0669 -1.3024  1.7271
11501TIP3    H234437   4.665   5.169   6.866 -2.1801 -0.6240  0.5038
11502TIP3   OH234438   2.649   2.599   2.173  0.3044 -0.1586  0.5422
11502TIP3    H134439   2.619   2.577   2.084  0.5707  1.5279  0.0254
11502TIP3    H234440   2.582   2.659   2.207  0.7826  0.0898  1.0607
11503TIP3   OH234441   7.577   5.781   5.426 -0.3108  0.2638 -0.3603
11503TIP3    H134442   7.639   5.823   5.485 -0.3315 -1.1148  0.6757
11503TIP3    H234443   7.587   5.827   5.343  2.2151 -0.0678 -0.2592
11504TIP3   OH234444   5.014   5.308   4.539  0.0194  0.3326  0.2381
11504TIP3    H134445   4.997   5.355   4.457 -0.7285  0.5871  0.5322
11504TIP3    H234446   5.013   5.215   4.513 -5.5988  0.0430  0.7791
11505TIP3   OH234447   6.136   5.380   6.229 -0.1604 -0.3937 -0.3176
11505TIP3    H134448   6.145   5.457   6.173 -1.0936  0.6511  0.9576
11505TIP3    H234449   6.209   5.386   6.290  0.6138 -1.3147 -1.1156
11506TIP3   OH234450   6.759   5.213   4.688  0.0146  0.4153  0.6004
11506TIP3    H134451   6.774   5.130   4.643  0.6646 -0.1260  1.7956
11506TIP3    H234452   6.678   5.199   4.737 -0.6234  0.9633 -0.2669
11507TIP3   OH234453   1.374   3.559   0.307  0.2270 -0.8654 -0.3228
11507TIP3    H134454   1.383   3.620   0.234 -0.3630 -0.2954  0.0820
11507TIP3    H234455   1.444   3.584   0.368 -0.4579 -0.1540  0.1626
11508TIP3   OH234456   5.700   4.820   6.736 -0.8307 -0.0399 -0.0616
11508TIP3    H134457   5.694   4.852   6.646  0.2689  2.2848  0.6599
11508TIP3    H234458   5.752   4.740   6.730  0.0464  0.6206 -1.3696
11509TIP3   OH234459   4.146   6.442   4.704  0.1845  0.4296 -0.1112
11509TIP3    H134460   4.136   6.537   4.712  0.2362  0.2031  3.6416
11509TIP3    H234461   4.237   6.425   4.729 -0.2032 -0.6986  0.5865
11510TIP3   OH234462   5.063   5.995   4.357  0.8123  0.0263 -0.0743
11510TIP3    H134463   5.055   6.044   4.439  0.2573 -0.0896 -0.0587
11510TIP3    H234464   5.034   6.057   4.290 -0.1279 -0.3492 -0.0298
11511TIP3   OH234465   5.762   4.506   6.090 -0.3842 -0.1483 -0.4836
11511TIP3    H134466   5.745   4.517   6.183  2.0172 -1.1670  0.1321
11511TIP3    H234467   5.850   4.543   6.077 -0.1816 -1.1119 -2.0707
11512TIP3   OH234468   1.329   4.316   5.045 -0.1209  0.7842 -0.0145
11512TIP3    H134469   1.363   4.353   4.964  1.4532  1.2977  0.8696
11512TIP3    H234470   1.348   4.222   5.038 -0.2903  0.7765 -0.3834
11513TIP3   OH234471   4.724   6.642   6.728  0.4146  0.0289  0.3942
11513TIP3    H134472   4.777   6.578   6.680  0.1528  1.2163 -1.5435
11513TIP3    H234473   4.659   6.590   6.774  0.5519 -1.1404 -0.7036
11514TIP3   OH234474   2.587   2.340   1.036  1.1407  0.1375  0.0721
11514TIP3    H134475   2.652   2.409   1.025  0.0197  0.9381 -1.5158
11514TIP3    H234476   2.512   2.383   1.078  0.4129 -0.0940 -0.9874
11515TIP3   OH234477   5.738   2.411   6.093 -0.0982 -0.0252 -0.0636
11515TIP3    H134478   5.742   2.473   6.165  0.5463 -1.0907  0.8374
11515TIP3    H234479   5.828   2.377   6.086  0.2084  1.1396 -2.3249
11516TIP3   OH234480   4.906   3.589   6.422  0.1917  0.7240 -0.1350
11516TIP3    H134481   4.965   3.514   6.409 -0.9379 -0.6471  2.3417
11516TIP3    H234482   4.933   3.652   6.355  0.9338 -2.0250 -2.5323
11517TIP3   OH234483   4.740   4.908   5.946 -0.1660  0.2381  0.1923
11517TIP3    H134484   4.656   4.866   5.927  0.4215 -0.6381 -0.4494
11517TIP3    H234485   4.744   4.982   5.885 -0.3974  0.1830  0.1104
11518TIP3   OH234486   5.581   4.908   6.449 -0.5900 -0.5943 -0.0146
11518TIP3    H134487   5.510   4.846   6.466 -1.3198 -0.4178 -2.1814
11518TIP3    H234488   5.600   4.896   6.356 -0.2779  1.9566 -0.3072
11519TIP3   OH234489   2.912   4.649   6.334  0.1007 -0.6721  0.1211
11519TIP3    H134490   2.999   4.628   6.300 -0.0845 -0.6714 -0.3499
11519TIP3    H234491   2.851   4.615   6.269 -0.1931  1.6588 -0.8672
11520TIP3   OH234492   1.768   1.230   1.063  0.3696 -0.3387 -0.0857
11520TIP3    H134493   1.840   1.239   1.126 -0.2309 -1.1013  0.7102
11520TIP3    H234494   1.809   1.194   0.984  1.0705  0.3476 -0.0385
11521TIP3   OH234495   4.258   4.172   5.705  1.0208 -0.1220  0.4251
11521TIP3    H134496   4.236   4.158   5.613  0.6546 -0.6104  0.5848
11521TIP3    H234497   4.174   4.172   5.750  1.2008  0.0912  0.7632
11522TIP3   OH234498   1.112   4.097   0.452 -0.2822 -0.3189 -0.0011
11522TIP3    H134499   1.046   4.148   0.404 -0.7392 -0.9330 -0.0397
11522TIP3    H234500   1.158   4.161   0.506 -1.2909  0.0408  0.4524
11523TIP3   OH234501   4.939   4.373   6.715 -0.0970  0.1424 -0.9022
11523TIP3    H134502   4.938   4.386   6.620  0.8670  0.7552 -0.8377
11523TIP3    H234503   4.847   4.359   6.738 -0.3364 -0.0652 -1.9308
11524TIP3   OH234504   1.313   3.368   0.708  0.1412 -0.0668  0.3729
11524TIP3    H134505   1.330   3.431   0.779 -0.1806 -0.8175  1.1253
11524TIP3    H234506   1.217   3.364   0.702  0.0924 -2.4521  2.1289
11525TIP3   OH234507   3.565   1.827   3.904 -0.4836 -0.2946 -0.5969
11525TIP3    H134508   3.564   1.746   3.853 -0.6292  0.0305 -1.1160
11525TIP3    H234509   3.657   1.845   3.918 -0.3363  1.0932 -3.1338
11526TIP3   OH234510   2.031   5.052   5.396  0.3313  0.1906  0.0435
11526TIP3    H134511   2.113   5.044   5.447 -0.0581  0.0881  0.6629
11526TIP3    H234512   2.005   5.143   5.408 -0.3312 -0.1099  0.9182
11527TIP3   OH234513   4.613   4.371   5.804 -0.3385  0.0534  0.1565
11527TIP3    H134514   4.574   4.290   5.834 -0.6450  0.7500  1.6710
11527TIP3    H234515   4.556   4.401   5.733 -1.2992 -0.0649  0.8795
11528TIP3   OH234516   2.668   0.533   1.080 -0.4616  0.0193  0.0019
11528TIP3    H134517   2.573   0.528   1.073 -0.3753  1.2939 -3.1327
11528TIP3    H234518   2.699   0.517   0.991  2.1001  2.4579  0.3948
11529TIP3   OH234519   2.002   6.068   5.455 -0.1375  0.0461  0.2873
11529TIP3    H134520   1.975   6.012   5.528 -0.9590 -0.4094 -0.3578
11529TIP3    H234521   1.926   6.123   5.437  0.2870  0.6028  0.1942
11530TIP3   OH234522   0.448   0.162   5.886  1.1402  0.5111 -0.2056
11530TIP3    H134523   0.484   0.108   5.816  1.6506  0.4313  0.1153
11530TIP3    H234524   0.382   0.107   5.927 -1.4358  1.6746 -2.6230
11531TIP3   OH234525   0.677   3.170   1.420  0.2365  0.2040  0.0336
11531TIP3    H134526   0.634   3.084   1.414 -1.9025  1.2462 -0.1097
11531TIP3    H234527   0.702   3.178   1.513  0.5759 -0.6205  0.0192
11532TIP3   OH234528   5.108   3.991   6.805 -0.2877 -0.0550  0.0927
11532TIP3    H134529   5.088   4.082   6.785  1.0808  0.3799  0.6560
11532TIP3    H234530   5.070   3.941   6.732  1.3006  1.1793 -1.6235
11533TIP3   OH234531   6.426   1.878   4.917 -0.1536 -0.1907 -0.3673
11533TIP3    H134532   6.519   1.876   4.895 -0.1839  0.7097 -0.6050
11533TIP3    H234533   6.381   1.867   4.833 -0.2630  1.7910 -0.5900
11534TIP3   OH234534   5.348   5.595   4.702 -0.3233  0.4003  0.7945
11534TIP3    H134535   5.370   5.513   4.659 -2.0436  0.3581 -0.0165
11534TIP3    H234536   5.422   5.611   4.761 -0.2106 -2.0024  1.3675
11535TIP3   OH234537   4.703   3.868   5.431 -0.0140 -0.2759  0.3814
11535TIP3    H134538   4.630   3.816   5.397  0.7842 -0.3041 -1.3171
11535TIP3    H234539   4.672   3.959   5.427  0.4522 -0.1684 -1.4916
11536TIP3   OH234540   8.500   2.800   1.774  0.4482 -0.0153 -0.0963
11536TIP3    H134541   8.572   2.829   1.718  0.8754  1.3197  1.1368
11536TIP3    H234542   8.422   2.834   1.731  0.5234 -1.5724 -1.5073
11537TIP3   OH234543   4.356   5.247   5.039  0.6218  0.1335  0.2625
11537TIP3    H134544   4.326   5.309   4.973 -1.0026 -0.5926  0.2804
11537TIP3    H234545   4.277   5.227   5.091  1.4626 -0.7144  1.2503
11538TIP3   OH234546   3.867   3.923   4.907  0.1338  0.0537 -0.0993
11538TIP3    H134547   3.884   4.012   4.874  2.8724  0.3700  2.0114
11538TIP3    H234548   3.876   3.867   4.830  0.1407  1.4337 -1.1258
11539TIP3   OH234549   7.845   3.168   0.616  0.2488 -0.8754 -0.5196
11539TIP3    H134550   7.789   3.112   0.670  0.3759  0.2397  0.8128
11539TIP3    H234551   7.788   3.240   0.590  1.1150  0.4305  1.1023
11540TIP3   OH234552   3.195   3.603   5.779  0.3390  0.0634  0.2206
11540TIP3    H134553   3.147   3.659   5.839 -0.5335  0.0479 -0.4610
11540TIP3    H234554   3.287   3.628   5.792  0.0525  0.8875  0.7004
11541TIP3   OH234555   7.324   7.977   0.796  0.3851  0.0006 -0.0191
11541TIP3    H134556   7.323   7.882   0.794  2.3166 -0.0951  1.9102
11541TIP3    H234557   7.369   8.003   0.715  0.7334 -0.7523 -0.0658
11542TIP3   OH234558   4.414   3.132   6.364 -0.1221  0.0226 -0.3277
11542TIP3    H134559   4.490   3.097   6.410 -1.1112 -1.8792 -0.0526
11542TIP3    H234560   4.407   3.223   6.393  1.4791 -0.0671  0.3624
11543TIP3   OH234561   2.898   1.209   1.692  0.2767 -0.9723  0.7168
11543TIP3    H134562   2.896   1.290   1.641 -0.4669 -0.9681  0.7470
11543TIP3    H234563   2.900   1.237   1.783 -0.6697 -0.9826  0.7477
11544TIP3   OH234564   3.432   1.643   1.370  0.2263  0.2362  0.1202
11544TIP3    H134565   3.512   1.694   1.359  0.1769  0.2588 -0.1368
11544TIP3    H234566   3.400   1.668   1.456  0.2891  0.5180  0.0635
11545TIP3   OH234567   5.542   3.549   5.969 -0.0644 -0.1484 -0.3780
11545TIP3    H134568   5.605   3.566   6.038  0.3371 -0.3492 -0.6924
11545TIP3    H234569   5.553   3.456   5.949 -0.3384 -0.1443 -0.5507
11546TIP3   OH234570   3.974   3.245   5.639  0.3375  0.2897 -0.6138
11546TIP3    H134571   4.004   3.311   5.701 -0.9853  0.7877 -0.5022
11546TIP3    H234572   3.921   3.294   5.576 -0.7577 -0.6921 -0.4551
11547TIP3   OH234573   2.361   1.523   1.688  0.1258 -0.1912  0.0467
11547TIP3    H134574   2.299   1.564   1.628  0.9392  0.1321 -0.5837
11547TIP3    H234575   2.411   1.595   1.725  0.1989 -0.4585  0.4802
11548TIP3   OH234576   7.929   7.127   0.991 -0.5295  0.2602 -0.6127
11548TIP3    H134577   7.884   7.109   0.909  0.0539  0.0351 -0.8914
11548TIP3    H234578   8.019   7.147   0.965  0.5353 -3.1333  0.1805
11549TIP3   OH234579   0.139   6.881   2.261  0.1618 -0.5936 -0.4908
11549TIP3    H134580   0.075   6.830   2.310  0.0018  0.5744  0.5394
11549TIP3    H234581   0.135   6.846   2.172 -0.4096 -1.9198  0.0580
11550TIP3   OH234582   1.462   6.886   5.616  0.1689  0.0791 -0.1182
11550TIP3    H134583   1.528   6.875   5.547  0.1085 -0.1912 -0.1318
11550TIP3    H234584   1.489   6.965   5.662 -1.4638  1.9660 -2.3256
11551TIP3   OH234585   2.924   4.191   6.071 -0.2807  0.5774  0.9172
11551TIP3    H134586   3.015   4.186   6.041 -0.6872 -1.2149 -0.0926
11551TIP3    H234587   2.931   4.214   6.164  1.2014  0.3256  0.8878
11552TIP3   OH234588   5.670   1.110   4.783  0.2608  0.0700 -0.3786
11552TIP3    H134589   5.618   1.041   4.743  0.0780 -0.1412  0.2125
11552TIP3    H234590   5.612   1.147   4.850 -0.0575  1.5427 -1.4274
11553TIP3   OH234591   2.227   4.856   4.359 -0.3838  0.0606  0.3090
11553TIP3    H134592   2.182   4.851   4.444 -1.2581  0.6160 -0.1046
11553TIP3    H234593   2.156   4.850   4.295 -0.0474  2.4805 -0.3474
11554TIP3   OH234594   7.232   4.587   5.170 -0.2491  0.1136  0.0449
11554TIP3    H134595   7.244   4.508   5.223 -1.8812 -0.1287  0.0728
11554TIP3    H234596   7.139   4.586   5.147  0.1070  1.0783 -1.4701
11555TIP3   OH234597   1.275   0.284   0.421  0.3148 -0.0564 -0.2958
11555TIP3    H134598   1.260   0.373   0.388  0.4228  0.2534  0.5012
11555TIP3    H234599   1.228   0.281   0.504 -0.8567 -1.1860 -0.9890
11556TIP3   OH234600   3.457   1.435   0.505 -0.1351  0.1401  0.1628
11556TIP3    H134601   3.467   1.436   0.410  1.1930  0.1608  0.2817
11556TIP3    H234602   3.366   1.457   0.521 -0.4502 -0.2095 -1.1214
11557TIP3   OH234603   3.257   4.835   4.765  0.0553 -0.5585 -0.8929
11557TIP3    H134604   3.207   4.828   4.683  1.6961 -2.0818 -1.7871
11557TIP3    H234605   3.192   4.817   4.833 -0.9986 -0.7951 -1.9296
11558TIP3   OH234606   2.410   0.149   1.665 -0.5273  0.6058 -0.1907
11558TIP3    H134607   2.376   0.108   1.744 -0.0564  3.4207  1.5566
11558TIP3    H234608   2.495   0.186   1.691  0.5968 -0.1513 -2.5687
11559TIP3   OH234609   4.902   5.896   6.703  0.2953  0.6652 -0.1315
11559TIP3    H134610   4.900   5.821   6.643  2.7777  0.5108 -0.0762
11559TIP3    H234611   4.892   5.857   6.790  3.5145  0.1478  0.0522
11560TIP3   OH234612   6.305   4.588   6.047  0.4644 -0.0659 -0.2903
11560TIP3    H134613   6.358   4.568   5.969  1.8030 -0.5404  0.7244
11560TIP3    H234614   6.361   4.564   6.121  0.2891  2.9265  0.9022
11561TIP3   OH234615   5.975   4.926   3.158  0.0538 -0.6600  0.3461
11561TIP3    H134616   5.960   5.020   3.155  0.3311 -0.5995  0.6880
11561TIP3    H234617   6.049   4.916   3.218  0.8533 -0.9960 -0.6851
11562TIP3   OH234618   3.215   4.207   5.968 -0.3653  0.2346  0.0249
11562TIP3    H134619   3.163   4.228   5.890  0.0370  0.6233 -0.1365
11562TIP3    H234620   3.256   4.123   5.948 -0.4724  0.2040 -0.0724
11563TIP3   OH234621   6.342   6.259   5.197 -0.2651  0.0665  0.4859
11563TIP3    H134622   6.286   6.183   5.181 -1.4575  0.8970  0.6574
11563TIP3    H234623   6.430   6.222   5.206 -0.9923 -1.4229  1.7381
11564TIP3   OH234624   3.632   4.387   6.024  0.1787 -0.6885  0.2357
11564TIP3    H134625   3.609   4.294   6.022 -0.8884 -0.4309  0.2255
11564TIP3    H234626   3.560   4.428   6.073 -0.4069  0.4209 -1.5258
11565TIP3   OH234627   5.915   4.210   6.087  0.0333 -0.0824  0.0236
11565TIP3    H134628   5.948   4.299   6.091  1.6503 -0.7055  1.0056
11565TIP3    H234629   5.917   4.189   5.993  1.4298  0.2779 -0.0469
11566TIP3   OH234630   5.343   4.404   4.466  0.2945 -0.0670  0.0905
11566TIP3    H134631   5.297   4.333   4.512  1.0488 -0.8018 -0.2780
11566TIP3    H234632   5.435   4.393   4.490  0.4770  0.5365 -0.3091
11567TIP3   OH234633   4.722   5.500   3.767 -0.0583 -0.4987 -0.2575
11567TIP3    H134634   4.746   5.591   3.749  0.8018  0.0017  3.1664
11567TIP3    H234635   4.644   5.506   3.822 -0.1037 -1.8246 -0.1643
11568TIP3   OH234636   4.862   3.060   6.347 -0.4936  0.1462 -0.2430
11568TIP3    H134637   4.805   3.119   6.397 -1.9131 -0.8372 -0.6951
11568TIP3    H234638   4.831   3.066   6.257 -0.9583 -1.6607 -0.2081
11569TIP3   OH234639   6.439   4.658   2.539 -0.2790  0.6711  0.5147
11569TIP3    H134640   6.394   4.585   2.581 -1.8681  1.0631 -0.4721
11569TIP3    H234641   6.529   4.653   2.573 -0.3383 -1.7690  0.3988
11570TIP3   OH234642   5.746   5.863   4.924  0.1826  0.0168  0.3189
11570TIP3    H134643   5.651   5.851   4.921  0.0530  1.0067  0.0875
11570TIP3    H234644   5.760   5.950   4.885  1.1848 -0.1482  0.2991
11571TIP3   OH234645   4.716   4.105   4.064 -0.1367 -0.0560 -0.4724
11571TIP3    H134646   4.725   4.020   4.107  0.6133 -0.9269 -2.3031
11571TIP3    H234647   4.733   4.169   4.134  2.5114 -1.4382  0.2133
11572TIP3   OH234648   7.431   4.535   5.481 -0.6363  0.1152  0.0967
11572TIP3    H134649   7.412   4.626   5.458  0.2510  0.0609 -0.9171
11572TIP3    H234650   7.526   4.532   5.491 -0.5540 -0.9110 -0.8959
11573TIP3   OH234651   5.614   6.022   6.151  0.1490 -0.5096 -0.0304
11573TIP3    H134652   5.679   6.022   6.080  0.8930 -0.4033  0.6514
11573TIP3    H234653   5.602   6.114   6.173  1.8580 -0.6930  1.7475
11574TIP3   OH234654   5.458   4.820   4.071  0.4207 -0.2541 -0.1779
11574TIP3    H134655   5.533   4.842   4.015 -0.6606  0.6929 -1.3052
11574TIP3    H234656   5.383   4.860   4.026 -0.2837  1.8314  2.7488
11575TIP3   OH234657   7.220   6.104   5.362  0.0883  0.0367  0.0481
11575TIP3    H134658   7.265   6.019   5.358 -1.0759 -0.5424 -1.1315
11575TIP3    H234659   7.256   6.146   5.440  0.1422 -1.8478  1.0750
11576TIP3   OH234660   4.201   4.386   5.356  0.0430 -0.4086 -0.2026
11576TIP3    H134661   4.125   4.444   5.364  0.6205 -0.0998  3.6656
11576TIP3    H234662   4.257   4.409   5.430  2.6225 -2.5569 -1.4091
11577TIP3   OH234663   7.140   5.283   4.914 -0.3269 -0.5364  0.0061
11577TIP3    H134664   7.096   5.360   4.950 -1.8955 -0.7024 -1.5012
11577TIP3    H234665   7.176   5.312   4.831  2.7964 -0.3127  1.3799
11578TIP3   OH234666   4.507   6.841   4.801  0.3489  0.1677  0.3541
11578TIP3    H134667   4.567   6.776   4.765  1.0893 -0.5633  2.8350
11578TIP3    H234668   4.504   6.823   4.895 -1.0991  2.3712  0.7910
11579TIP3   OH234669   5.041   1.424   0.471  0.0175 -0.1787  0.0808
11579TIP3    H134670   5.079   1.337   0.456  0.0449 -0.4182  1.4400
11579TIP3    H234671   4.948   1.412   0.452  0.1565 -0.2930 -0.5424
11580TIP3   OH234672   2.894   0.508   0.576  0.6212 -0.3500 -0.0977
11580TIP3    H134673   2.894   0.602   0.555 -2.3007 -0.4216 -0.6191
11580TIP3    H234674   2.987   0.483   0.573  1.1834  1.7072 -3.7401
11581TIP3   OH234675   7.118   5.276   5.491  0.4197  0.2248 -0.1813
11581TIP3    H134676   7.030   5.312   5.477 -0.8940 -2.2653  1.1890
11581TIP3    H234677   7.120   5.196   5.439  1.3587 -0.4546  0.8617
11582TIP3   OH234678   3.246   4.537   5.036  0.2763  0.7672  0.2790
11582TIP3    H134679   3.209   4.452   5.059  0.0609  0.9900  0.7715
11582TIP3    H234680   3.181   4.576   4.978  0.0152  0.9102  0.6632
11583TIP3   OH234681   4.910   4.446   4.621 -0.0885 -0.1595 -0.5312
11583TIP3    H134682   4.875   4.495   4.546  1.2713  1.2747 -0.2655
11583TIP3    H234683   4.898   4.505   4.695  1.4604 -0.2711 -0.1774
11584TIP3   OH234684   4.886   6.090   5.814 -0.7672  0.0113 -0.0831
11584TIP3    H134685   4.960   6.085   5.874  1.0327 -0.7234 -2.2951
11584TIP3    H234686   4.881   6.003   5.776 -1.4048  0.6723 -1.5275
11585TIP3   OH234687   5.573   3.788   6.427  0.3388 -0.0823 -0.2766
11585TIP3    H134688   5.542   3.806   6.338  0.9231  1.7972 -0.1303
11585TIP3    H234689   5.596   3.875   6.461 -0.5290 -0.7048  1.9405
11586TIP3   OH234690   4.425   7.269   4.828 -0.3796  0.2006 -0.0675
11586TIP3    H134691   4.389   7.285   4.916  0.6123  0.2957  0.3188
11586TIP3    H234692   4.392   7.343   4.776 -1.9627 -0.4967 -0.0722
11587TIP3   OH234693   7.936   5.738   4.715  0.1531  0.2070  0.2765
11587TIP3    H134694   7.865   5.711   4.656  0.1026  1.8231 -0.4254
11587TIP3    H234695   8.012   5.688   4.687  0.1710  1.1000 -1.2940
11588TIP3   OH234696   7.126   5.175   6.241  0.2102  0.1675 -0.1749
11588TIP3    H134697   7.097   5.264   6.221  0.3362  0.0226 -1.0008
11588TIP3    H234698   7.176   5.148   6.164  1.0092 -0.2544  0.4913
11589TIP3   OH234699   3.254   1.013   1.030 -0.3978  0.0627  0.0007
11589TIP3    H134700   3.347   1.010   1.010 -0.5637 -1.0403 -0.6076
11589TIP3    H234701   3.235   0.930   1.073 -1.1318  0.2334  0.0253
11590TIP3   OH234702   6.876   6.078   3.183 -0.4125 -0.4126  0.2337
11590TIP3    H134703   6.965   6.112   3.174  1.1066 -3.8714  1.0027
11590TIP3    H234704   6.861   6.031   3.101 -1.2893 -0.3657  0.3683
11591TIP3   OH234705   7.267   4.978   6.714  0.1425 -0.3948 -0.0728
11591TIP3    H134706   7.347   4.965   6.764  0.9141 -1.8890 -1.6274
11591TIP3    H234707   7.246   5.070   6.724  2.0598  0.0001  0.3807
11592TIP3   OH234708   6.416   5.007   4.340 -0.1245  0.3080  0.1995
11592TIP3    H134709   6.429   5.094   4.377  1.5250  1.0753 -2.0436
11592TIP3    H234710   6.505   4.974   4.326 -0.7338 -1.2758 -0.0301
11593TIP3   OH234711   5.751   5.611   4.202  0.2003  0.4169 -0.2458
11593TIP3    H134712   5.778   5.669   4.274 -0.5255 -0.7469  0.9659
11593TIP3    H234713   5.672   5.568   4.234  0.4366 -0.8595 -1.3533
11594TIP3   OH234714   5.015   4.866   5.406 -0.2321  0.1618  0.5637
11594TIP3    H134715   5.074   4.899   5.474 -2.0354 -0.0162  2.2688
11594TIP3    H234716   4.928   4.896   5.433 -1.1861 -1.2347 -0.8603
11595TIP3   OH234717   6.411   4.524   5.803 -0.3332 -0.1590 -0.0169
11595TIP3    H134718   6.451   4.439   5.785 -0.1428 -0.1205  0.2232
11595TIP3    H234719   6.417   4.571   5.720  1.2740  0.3133  0.3449
11596TIP3   OH234720   5.883   5.358   5.156  0.6979  0.3406  0.0938
11596TIP3    H134721   5.895   5.274   5.110  0.6958  0.4911 -0.1828
11596TIP3    H234722   5.932   5.348   5.237  0.2137 -0.1452  0.3278
11597TIP3   OH234723   6.541   4.278   6.707  0.1054 -0.1067 -0.3471
11597TIP3    H134724   6.529   4.236   6.622  1.0441 -0.5514 -0.2738
11597TIP3    H234725   6.622   4.239   6.741 -0.2518  0.0772  0.7357
11598TIP3   OH234726   6.373   4.990   3.736  0.1465  0.2891  0.3979
11598TIP3    H134727   6.381   4.905   3.693  1.2164  0.4741  0.2162
11598TIP3    H234728   6.462   5.013   3.762 -0.1148  1.3909  0.3786
11599TIP3   OH234729   3.622   0.081   0.254  0.1531 -0.1938 -0.2472
11599TIP3    H134730   3.549   0.067   0.194 -0.9257 -1.2357  1.2897
11599TIP3    H234731   3.582   0.111   0.335  1.4925 -0.0405  0.3765
11600TIP3   OH234732   5.547   6.173   3.196 -0.1495 -0.0303 -0.1045
11600TIP3    H134733   5.513   6.236   3.133  1.2934 -0.7684 -1.6697
11600TIP3    H234734   5.641   6.189   3.197  0.3828 -2.8443 -1.3462
11601TIP3   OH234735   5.836   2.625   1.444 -0.0803  0.1821  0.3524
11601TIP3    H134736   5.817   2.607   1.352  0.3472 -2.1268  0.6841
11601TIP3    H234737   5.771   2.691   1.469 -1.6186 -0.7756 -1.0263
11602TIP3   OH234738   7.577   4.797   4.191  0.1425  0.2042  0.2230
11602TIP3    H134739   7.605   4.805   4.283 -1.6595 -0.1595  0.8267
11602TIP3    H234740   7.569   4.703   4.176  0.9615  0.2411 -0.4885
11603TIP3   OH234741   6.828   5.649   3.666 -0.3334  0.6729 -0.2286
11603TIP3    H134742   6.848   5.672   3.757 -1.6964  1.3630 -0.0933
11603TIP3    H234743   6.738   5.616   3.669  0.5284 -1.8754 -0.9151
11604TIP3   OH234744   3.164   3.811   1.560  0.4738 -0.1884  0.1933
11604TIP3    H134745   3.145   3.786   1.470  1.6657  0.0283 -0.1351
11604TIP3    H234746   3.220   3.888   1.552 -1.3409  1.2691  1.1666
11605TIP3   OH234747   4.820   3.530   6.926 -0.0934 -0.1382  0.8394
11605TIP3    H134748   4.857   3.618   6.925  0.7690 -0.5058  0.3704
11605TIP3    H234749   4.737   3.539   6.879  0.8609  0.0579 -0.8709
11606TIP3   OH234750   5.920   4.982   6.640 -0.3996  0.3811  0.2801
11606TIP3    H134751   5.925   5.075   6.663 -2.5782  0.7229 -0.4983
11606TIP3    H234752   5.888   4.939   6.719  1.2415  0.1570  0.8574
11607TIP3   OH234753   6.849   5.306   6.462  0.3797  0.0254  0.7251
11607TIP3    H134754   6.932   5.353   6.450 -0.1111  0.8813  0.6126
11607TIP3    H234755   6.794   5.338   6.391 -0.6385  0.8045  1.8447
11608TIP3   OH234756   6.486   4.929   4.635  0.3959 -0.0666 -0.3624
11608TIP3    H134757   6.397   4.901   4.615  0.5098 -2.2703  1.8624
11608TIP3    H234758   6.475   4.999   4.700  0.2472  0.8738 -1.4012
11609TIP3   OH234759   3.427   5.008   4.102  0.0016 -0.4407 -0.4416
11609TIP3    H134760   3.513   5.025   4.064 -0.1588 -0.4522 -0.8068
11609TIP3    H234761   3.440   5.023   4.196 -0.2671  2.2918 -0.7919
11610TIP3   OH234762   7.816   3.589   2.230  0.2045 -0.3521 -0.8615
11610TIP3    H134763   7.845   3.679   2.245 -1.5131  0.0336  0.2954
11610TIP3    H234764   7.764   3.593   2.150  0.9146 -0.4908 -1.3276
11611TIP3   OH234765   1.052   1.336   5.266  0.3651  0.3554 -0.0723
11611TIP3    H134766   1.122   1.401   5.264  0.4952  0.2167 -0.0969
11611TIP3    H234767   0.971   1.387   5.275  0.6039  0.4392  1.7086
11612TIP3   OH234768   0.278   6.038   4.665 -0.4543 -0.1977 -0.2319
11612TIP3    H134769   0.374   6.037   4.662 -0.3824 -0.1120  1.5878
11612TIP3    H234770   0.253   5.947   4.647  0.0375 -0.5924  1.0268
11613TIP3   OH234771   6.259   7.729   5.742 -0.0942 -0.6159  0.0066
11613TIP3    H134772   6.206   7.773   5.809 -0.3549 -0.7034 -0.1418
11613TIP3    H234773   6.336   7.784   5.733  0.8032 -1.5423  1.6840
11614TIP3   OH234774   5.030   5.059   4.388 -1.0739 -0.0401 -0.0809
11614TIP3    H134775   5.073   4.974   4.383 -1.9271 -0.5091  0.4224
11614TIP3    H234776   5.038   5.095   4.300  0.8559  0.1492  0.1454
11615TIP3   OH234777   6.648   6.054   3.553 -0.1584  0.0091 -0.4327
11615TIP3    H134778   6.715   6.037   3.620  0.8032  0.1918 -1.3500
11615TIP3    H234779   6.571   6.079   3.604  1.2451  2.5390  0.5587
11616TIP3   OH234780   5.743   5.372   4.837 -0.2984 -0.2826  0.1095
11616TIP3    H134781   5.838   5.381   4.843 -0.1418  0.3009 -2.4946
11616TIP3    H234782   5.729   5.279   4.819 -0.2550 -0.4466  0.9066
11617TIP3   OH234783   4.831   4.272   4.879 -0.3844  0.4247  0.7408
11617TIP3    H134784   4.751   4.322   4.896 -0.9002 -0.2139  0.2189
11617TIP3    H234785   4.882   4.280   4.960 -0.9202  0.9325  1.0343
11618TIP3   OH234786   5.889   3.131   4.082  0.0041  0.1482  0.2888
11618TIP3    H134787   5.852   3.095   4.000  0.2311  0.2001  0.1628
11618TIP3    H234788   5.982   3.110   4.077 -0.0766 -0.3357  0.7919
11619TIP3   OH234789   6.506   5.612   5.004 -0.3931  0.3822  0.2596
11619TIP3    H134790   6.578   5.553   5.026  0.0936  0.2561 -1.6102
11619TIP3    H234791   6.547   5.697   4.989 -0.8425  0.7168  0.8985
11620TIP3   OH234792   4.396   3.832   2.895 -0.4751 -0.2232 -0.2166
11620TIP3    H134793   4.412   3.887   2.971 -1.1316  1.3277 -1.1705
11620TIP3    H234794   4.349   3.756   2.929  0.2024 -0.0734  1.0783
11621TIP3   OH234795   6.896   4.993   5.644  0.5716  0.4768  0.6537
11621TIP3    H134796   6.861   4.983   5.733 -0.5105 -1.0774  0.0661
11621TIP3    H234797   6.832   5.047   5.599 -0.0406 -0.6429  0.1703
11622TIP3   OH234798   6.173   4.399   6.716  0.4967 -0.0883  0.0222
11622TIP3    H134799   6.190   4.361   6.802 -0.4580  3.6436  1.9689
11622TIP3    H234800   6.250   4.452   6.698 -1.2909  2.8716  0.7920
11623TIP3   OH234801   5.679   3.951   5.145  0.0107 -0.0832  0.0859
11623TIP3    H134802   5.746   4.017   5.159 -0.7054  0.5200  0.6644
11623TIP3    H234803   5.728   3.869   5.137  0.7514  0.2227  1.4098
11624TIP3   OH234804   6.001   5.314   4.703 -0.0344  0.0862 -0.5227
11624TIP3    H134805   6.032   5.374   4.770 -2.5701 -0.4479  1.2069
11624TIP3    H234806   6.058   5.237   4.711 -0.5019 -0.0994  1.2668
11625TIP3   OH234807   6.188   5.482   3.425 -0.5427  0.6174  0.3927
11625TIP3    H134808   6.222   5.427   3.495 -0.2398  1.3125  0.7928
11625TIP3    H234809   6.139   5.551   3.470 -1.7399  0.1295 -0.1449
11626TIP3   OH234810   3.918   4.744   6.398 -0.3504 -0.0230 -0.3629
11626TIP3    H134811   3.961   4.701   6.324  0.5087 -0.6616  0.5089
11626TIP3    H234812   3.915   4.837   6.373 -0.1878 -0.2494 -1.2532
11627TIP3   OH234813   7.425   3.136   5.262  0.1729  0.2361  0.5269
11627TIP3    H134814   7.403   3.055   5.216  0.8127 -0.1476  0.8991
11627TIP3    H234815   7.358   3.144   5.329 -2.0199  1.8830 -1.7634
11628TIP3   OH234816   5.730   2.508   0.415  0.1057  0.1755 -0.0041
11628TIP3    H134817   5.801   2.445   0.427  0.3227  0.4203 -0.0061
11628TIP3    H234818   5.756   2.559   0.339  0.3532  0.8502  0.5277
11629TIP3   OH234819   6.231   4.064   4.645  0.6595 -0.5046  0.4761
11629TIP3    H134820   6.137   4.075   4.634  0.6485 -0.1357  0.9302
11629TIP3    H234821   6.266   4.153   4.649  0.9949 -0.6369  0.5817
11630TIP3   OH234822   5.738   3.380   6.344  0.4869 -0.0610 -0.0818
11630TIP3    H134823   5.801   3.441   6.307 -0.3850  0.4100 -0.7996
11630TIP3    H234824   5.767   3.293   6.316  1.4948  0.0494  0.6028
11631TIP3   OH234825   0.255   7.762   4.001 -0.2623  0.4375  0.2462
11631TIP3    H134826   0.339   7.797   4.031 -0.1787 -1.0059  1.7535
11631TIP3    H234827   0.278   7.678   3.961 -0.8596  0.5976 -0.4415
11632TIP3   OH234828   2.940   0.485   0.031 -0.0776 -0.2971 -0.1336
11632TIP3    H134829   2.992   0.562   0.011  1.2692 -0.9921  0.5847
11632TIP3    H234830   2.884   0.512   0.104 -0.5453  0.3741 -0.7336
11633TIP3   OH234831   5.117   1.421   1.437 -0.0370  0.6175  0.3489
11633TIP3    H134832   5.093   1.510   1.464 -0.9572  0.1569  1.0452
11633TIP3    H234833   5.116   1.424   1.342 -0.8107  1.1488  0.3757
11634TIP3   OH234834   7.888   5.140   5.134  0.0402  0.4895  0.5765
11634TIP3    H134835   7.918   5.100   5.215  2.6397  0.7723 -0.2118
11634TIP3    H234836   7.859   5.066   5.080 -0.7567  0.2153  1.3772
11635TIP3   OH234837   5.356   1.037   1.602  0.4062  1.0270 -0.1856
11635TIP3    H134838   5.355   0.943   1.623  1.0798  0.7265 -1.4100
11635TIP3    H234839   5.421   1.044   1.532 -0.1512  2.3191 -0.5719
11636TIP3   OH234840   3.890   5.457   6.211  0.2312  0.0070  0.2586
11636TIP3    H134841   3.967   5.505   6.243  0.5739 -0.3146 -0.0639
11636TIP3    H234842   3.927   5.376   6.175 -0.0735  0.6192 -1.4695
11637TIP3   OH234843   0.379   7.934   0.238 -0.8514 -0.1232 -0.1182
11637TIP3    H134844   0.458   7.971   0.199 -1.1795  1.6717  0.8894
11637TIP3    H234845   0.395   7.840   0.239  1.7363  0.2919  1.0458
11638TIP3   OH234846   5.200   5.093   6.372  0.6291 -0.1860  0.0861
11638TIP3    H134847   5.284   5.139   6.370  0.0864  0.8451  0.4608
11638TIP3    H234848   5.208   5.025   6.305  2.0283 -0.5769  0.6253
11639TIP3   OH234849   3.682   5.037   3.925  0.3038  0.3676 -0.1685
11639TIP3    H134850   3.772   5.045   3.956 -0.0246 -1.0599  1.2065
11639TIP3    H234851   3.689   4.982   3.847  0.5428 -0.3638  0.3632
11640TIP3   OH234852   1.004   4.708   6.594 -0.1280 -0.4339  0.1227
11640TIP3    H134853   0.909   4.698   6.602 -0.0352 -1.7609 -0.2841
11640TIP3    H234854   1.026   4.779   6.654 -1.2801 -0.6207  0.7851
11641TIP3   OH234855   5.947   5.712   4.779 -0.1232  0.1203 -0.2819
11641TIP3    H134856   5.932   5.644   4.713  0.4098  0.2454 -0.5392
11641TIP3    H234857   5.863   5.722   4.824  0.3432 -2.1913  1.1622
11642TIP3   OH234858   4.658   3.538   6.538  0.5343 -0.1128  0.2782
11642TIP3    H134859   4.625   3.623   6.570 -0.7164 -0.0835 -1.0716
11642TIP3    H234860   4.712   3.560   6.462 -0.0059 -0.5524 -0.2316
11643TIP3   OH234861   7.516   5.774   6.444 -0.3325 -0.2810  0.2164
11643TIP3    H134862   7.466   5.793   6.523  0.1222  0.7635  0.2496
11643TIP3    H234863   7.526   5.858   6.400 -0.6890 -0.8630 -1.0252
11644TIP3   OH234864   4.105   3.044   3.522  0.3566 -0.2405  0.0351
11644TIP3    H134865   4.135   2.975   3.581 -0.1356  0.2978  0.9286
11644TIP3    H234866   4.145   3.124   3.556  1.7067 -0.2010 -1.5599
11645TIP3   OH234867   6.547   6.082   4.617  0.4412 -0.2575 -0.3866
11645TIP3    H134868   6.518   6.134   4.691 -0.9948 -2.3249  0.5596
11645TIP3    H234869   6.470   6.032   4.591  1.4112 -0.9047 -2.1305
11646TIP3   OH234870   3.420   0.736   0.401  0.0347  0.1267 -0.2061
11646TIP3    H134871   3.329   0.753   0.428  0.1951 -1.2019  1.2415
11646TIP3    H234872   3.446   0.815   0.355 -1.9657  0.4138 -0.8975
11647TIP3   OH234873   5.489   3.095   6.659  0.0949  0.3092  0.5332
11647TIP3    H134874   5.398   3.072   6.641 -0.1687  1.3644  0.4948
11647TIP3    H234875   5.517   3.033   6.726 -0.7899  0.2567  0.8521
11648TIP3   OH234876   7.726   3.657   4.844  0.0269 -0.2787 -0.1459
11648TIP3    H134877   7.787   3.675   4.773 -0.2710  1.2910 -0.0126
11648TIP3    H234878   7.774   3.599   4.903  0.5744 -0.8962 -1.1818
11649TIP3   OH234879   7.948   3.816   5.073 -0.0090  0.2533  0.1190
11649TIP3    H134880   7.908   3.903   5.075  0.8406  0.6621  0.0058
11649TIP3    H234881   7.932   3.780   5.160 -1.3204  0.0717 -0.1919
11650TIP3   OH234882   5.102   5.019   4.669  0.5391 -0.3588  0.5303
11650TIP3    H134883   5.051   5.045   4.593 -0.6457  0.4024  1.5645
11650TIP3    H234884   5.121   4.926   4.656  0.5122 -0.1811 -0.7718
11651TIP3   OH234885   7.872   5.291   6.402  0.2148 -0.0710 -0.3035
11651TIP3    H134886   7.812   5.347   6.451  0.2805  0.5961 -0.9880
11651TIP3    H234887   7.836   5.203   6.413 -0.2745  0.1874  0.1900
11652TIP3   OH234888   5.072   7.629   3.875 -0.3891 -0.4484 -0.3983
11652TIP3    H134889   5.044   7.601   3.788  1.7857 -1.9091 -0.6631
11652TIP3    H234890   5.083   7.723   3.868  1.9201 -0.8446 -2.3497
11653TIP3   OH234891   5.639   5.194   5.540 -0.6016  0.0705  0.8310
11653TIP3    H134892   5.544   5.189   5.535 -0.5357 -0.2586 -0.0990
11653TIP3    H234893   5.665   5.243   5.462  0.0772 -0.8697  0.4542
11654TIP3   OH234894   6.384   5.391   5.933  0.2568 -0.3853  0.4930
11654TIP3    H134895   6.388   5.462   5.997 -2.1788 -0.2653  0.5805
11654TIP3    H234896   6.404   5.312   5.982  1.5771  0.0590  0.6983
11655TIP3   OH234897   6.688   5.523   6.569 -0.0860  0.2628  0.8687
11655TIP3    H134898   6.768   5.571   6.590 -0.6185  0.7630  1.8004
11655TIP3    H234899   6.619   5.589   6.576 -0.7619 -0.5180  1.6679
11656TIP3   OH234900   6.322   6.541   5.116 -0.2959  0.4273  0.3504
11656TIP3    H134901   6.384   6.476   5.084  0.5451  1.3049  0.1881
11656TIP3    H234902   6.303   6.597   5.041 -3.0276 -1.1559 -0.2192
11657TIP3   OH234903   5.946   4.534   6.354  0.2306 -0.4005  1.2990
11657TIP3    H134904   5.967   4.611   6.406 -0.2991  0.6869 -0.0528
11657TIP3    H234905   5.892   4.480   6.411  1.7480 -0.4314  2.7409
11658TIP3   OH234906   6.808   5.465   4.055 -0.0315 -0.7497  0.0533
11658TIP3    H134907   6.871   5.439   4.122  0.1214 -2.3040 -0.6467
11658TIP3    H234908   6.845   5.431   3.973 -0.6937  0.2496 -0.6785
11659TIP3   OH234909   5.952   6.317   4.294  0.5402  0.1940 -0.4581
11659TIP3    H134910   6.001   6.397   4.311 -0.9404  0.9543  0.4238
11659TIP3    H234911   5.988   6.253   4.356  3.1560 -0.4708 -2.6007
11660TIP3   OH234912   1.962   0.075   0.904 -0.2100 -0.0928 -0.4851
11660TIP3    H134913   1.905   0.066   0.981  0.4107 -0.7769 -0.1038
11660TIP3    H234914   2.002  -0.011   0.894 -2.1462 -0.7815 -3.0466
11661TIP3   OH234915   6.899   7.353   4.035 -0.1433 -0.2594 -0.1283
11661TIP3    H134916   6.926   7.414   3.966 -0.2976 -0.7827 -0.6515
11661TIP3    H234917   6.821   7.393   4.073 -0.5361 -0.3880 -0.8064
11662TIP3   OH234918   3.598   6.053   4.520  0.6278 -0.2152 -0.4100
11662TIP3    H134919   3.672   6.054   4.581  1.1238 -1.0498 -0.9878
11662TIP3    H234920   3.601   5.967   4.479  0.5289  0.4730 -1.9098
11663TIP3   OH234921   4.507   5.422   4.352 -0.0018 -0.3080  0.3035
11663TIP3    H134922   4.575   5.387   4.410  1.4577  1.6937 -0.1515
11663TIP3    H234923   4.523   5.379   4.268 -0.7479 -1.5588  0.7877
11664TIP3   OH234924   3.983   5.565   5.527 -0.2140 -0.1222 -0.4879
11664TIP3    H134925   4.051   5.632   5.530 -2.3508  2.0804 -0.3469
11664TIP3    H234926   4.014   5.504   5.460  2.7873 -0.1941  0.8742
11665TIP3   OH234927   8.401   7.487   1.016 -0.2694 -0.1163 -0.8994
11665TIP3    H134928   8.455   7.408   1.021  0.0964  0.1131 -1.1708
11665TIP3    H234929   8.382   7.497   0.922 -1.3380 -0.5669 -0.7341
11666TIP3   OH234930   4.679   3.801   5.807 -0.2292  0.1682 -0.1083
11666TIP3    H134931   4.707   3.767   5.721 -1.3025 -1.2129  0.0888
11666TIP3    H234932   4.614   3.739   5.838 -1.9081  2.1452  0.4765
11667TIP3   OH234933   4.116   1.210   0.430  0.1406  0.1259  0.3946
11667TIP3    H134934   4.135   1.212   0.524  1.6924 -2.1107  0.1890
11667TIP3    H234935   4.152   1.292   0.396  1.5415 -0.0306  1.4365
11668TIP3   OH234936   6.606   3.701   5.749  0.5349  0.2259  0.4821
11668TIP3    H134937   6.633   3.633   5.811  0.3796 -1.4681 -1.2660
11668TIP3    H234938   6.536   3.748   5.795  0.4575 -0.9691  1.6256
11669TIP3   OH234939   6.325   5.451   4.801  0.0863  0.1777  0.0466
11669TIP3    H134940   6.251   5.456   4.862  1.3871 -0.6875  1.7463
11669TIP3    H234941   6.393   5.506   4.841  0.5702  0.5049 -1.2003
11670TIP3   OH234942   5.623   4.083   5.420  0.2940 -0.2195 -0.1619
11670TIP3    H134943   5.662   4.002   5.454  0.0327 -0.7135 -1.0119
11670TIP3    H234944   5.630   4.074   5.325 -3.5407 -1.1637 -0.4379
11671TIP3   OH234945   6.588   3.752   4.647 -0.1429  0.5368 -0.3884
11671TIP3    H134946   6.639   3.777   4.570  0.3392  0.4753 -0.0925
11671TIP3    H234947   6.496   3.761   4.620  0.0009 -1.1818 -1.5276
11672TIP3   OH234948   5.288   4.848   4.951 -0.3181 -0.3986  0.0965
11672TIP3    H134949   5.302   4.798   5.031 -1.2384 -0.2307  0.3712
11672TIP3    H234950   5.193   4.844   4.937 -0.3180  0.7372 -0.2322
11673TIP3   OH234951   0.351   7.715   1.204 -0.5362  0.0474  0.1696
11673TIP3    H134952   0.392   7.639   1.162  0.9413  0.7721  0.2604
11673TIP3    H234953   0.272   7.731   1.153 -0.8713 -1.5569  0.1576
11674TIP3   OH234954   7.151   4.916   2.708  0.5541 -0.4161 -0.2469
11674TIP3    H134955   7.229   4.942   2.660  1.9662  0.5094  2.4455
11674TIP3    H234956   7.080   4.922   2.644  2.0661  2.5200 -1.7500
11675TIP3   OH234957   3.200   4.557   5.538 -0.5750  0.1180  0.2510
11675TIP3    H134958   3.160   4.591   5.619  2.2175  0.0952  1.6820
11675TIP3    H234959   3.130   4.564   5.473 -3.0944 -0.3515  2.7570
11676TIP3   OH234960   3.447   1.501   0.212 -0.6154 -0.2388  0.8138
11676TIP3    H134961   3.489   1.586   0.211  0.7545 -0.8959 -0.7502
11676TIP3    H234962   3.376   1.508   0.147 -0.5714 -0.2442  0.7649
11677TIP3   OH234963   7.938   5.641   3.231  0.6098  0.1918  0.0133
11677TIP3    H134964   7.991   5.561   3.231  0.0766 -0.1820  1.7499
11677TIP3    H234965   7.871   5.625   3.166  2.7260  0.7551 -2.3764
11678TIP3   OH234966   1.177   6.893   0.132 -0.4219 -0.3005  0.2854
11678TIP3    H134967   1.096   6.849   0.159 -0.3138  0.5184  1.9613
11678TIP3    H234968   1.246   6.831   0.152 -0.3707  0.1820  1.6188
11679TIP3   OH234969   3.615   4.829   3.715 -0.2381 -0.2650 -0.1822
11679TIP3    H134970   3.705   4.858   3.702 -0.2435  0.4616  1.3116
11679TIP3    H234971   3.618   4.734   3.701  1.1272 -0.5248  1.7165
11680TIP3   OH234972   0.797   3.319   0.160  0.3103  0.6929  0.2736
11680TIP3    H134973   0.869   3.354   0.213  0.5988  2.1571 -1.0714
11680TIP3    H234974   0.839   3.292   0.078 -0.2130 -1.1239  0.5765
11681TIP3   OH234975   6.018   7.719   6.393 -0.0749 -0.3630  0.0958
11681TIP3    H134976   6.065   7.710   6.476  1.0061 -1.7327 -0.6482
11681TIP3    H234977   6.065   7.661   6.333 -1.8727 -0.6696 -1.0315
11682TIP3   OH234978   4.109   4.523   4.351  0.1149  0.1051  0.4105
11682TIP3    H134979   4.071   4.470   4.421 -0.0319  0.1261  0.3474
11682TIP3    H234980   4.128   4.460   4.281  1.2077 -0.0747  0.8552
11683TIP3   OH234981   7.452   5.417   2.640 -0.0578 -0.2450 -0.3990
11683TIP3    H134982   7.369   5.374   2.663 -0.3755 -0.4358 -1.8345
11683TIP3    H234983   7.474   5.382   2.554  2.2297 -1.1863  0.5357
11684TIP3   OH234984   5.460   7.360   5.362  0.1456  0.0760 -0.1323
11684TIP3    H134985   5.468   7.269   5.390 -0.5712  0.2749  0.7628
11684TIP3    H234986   5.390   7.360   5.296  1.0417 -0.2153 -1.0952
11685TIP3   OH234987   3.431   5.129   3.802 -0.5865  0.5533 -0.2440
11685TIP3    H134988   3.517   5.119   3.842  0.2110 -0.5481 -2.2007
11685TIP3    H234989   3.385   5.048   3.822 -0.7685  0.6637 -0.2056
11686TIP3   OH234990   5.420   5.096   4.850  0.3383  0.3285 -0.2277
11686TIP3    H134991   5.357   5.160   4.817  0.0322 -1.4136 -3.2849
11686TIP3    H234992   5.368   5.016   4.864  1.0557  0.1767  1.6631
11687TIP3   OH234993   6.720   6.106   4.870  0.2845  0.2072 -0.2625
11687TIP3    H134994   6.653   6.040   4.891  0.6997  0.1599  0.9930
11687TIP3    H234995   6.719   6.112   4.775 -2.9056  1.6392 -0.2070
11688TIP3   OH234996   8.336   5.412   4.239  0.3824 -0.1949 -0.2588
11688TIP3    H134997   8.398   5.483   4.245 -0.6027  0.6800 -0.2780
11688TIP3    H234998   8.284   5.418   4.319  0.0173 -0.6300 -0.4576
11689TIP3   OH234999   3.675   2.793   1.165 -0.2125  0.4812 -0.3604
11689TIP3    H135000   3.656   2.787   1.258  1.4688  1.1260  0.0390
11689TIP3    H235001   3.658   2.705   1.131  1.5101 -0.4146  1.0212
11690TIP3   OH235002   4.687   4.493   4.970 -0.0816 -0.5141 -0.4049
11690TIP3    H135003   4.712   4.570   4.921 -3.2971  1.2319  0.5272
11690TIP3    H235004   4.736   4.499   5.052 -0.6567  0.8237 -0.1476
11691TIP3   OH235005   7.779   5.382   6.125  0.0841 -0.3432 -0.4355
11691TIP3    H135006   7.786   5.354   6.217 -3.1182  2.7674  0.8989
11691TIP3    H235007   7.732   5.311   6.082  0.2889 -1.1745  0.6861
11692TIP3   OH235008   4.031   4.684   3.991 -0.0427  0.1704  1.4217
11692TIP3    H135009   3.967   4.672   3.922  2.7219 -1.0947 -1.0238
11692TIP3    H235010   4.068   4.771   3.975  0.3705  0.0176  1.5453
11693TIP3   OH235011   5.122   4.365   6.921  0.1178 -0.4523 -0.2945
11693TIP3    H135012   5.180   4.318   6.861  1.1996  0.0216  0.3700
11693TIP3    H235013   5.035   4.327   6.904  0.3432 -0.1243 -2.3490
11694TIP3   OH235014   7.260   4.106   4.981 -0.3053 -0.4968  0.2973
11694TIP3    H135015   7.215   4.183   4.947  1.1179  0.9029  1.5249
11694TIP3    H235016   7.211   4.081   5.059  1.4237  1.5139  2.0992
11695TIP3   OH235017   5.144   3.538   5.857  0.4417  0.1469  0.3696
11695TIP3    H135018   5.195   3.608   5.898 -0.8308 -0.3584  2.8960
11695TIP3    H235019   5.208   3.468   5.841  0.5789 -0.5458  3.6389
11696TIP3   OH235020   5.489   6.508   4.358  0.5515 -0.0831 -0.4459
11696TIP3    H135021   5.482   6.518   4.263  0.9564  1.7189 -0.3079
11696TIP3    H235022   5.560   6.446   4.371 -0.7487 -1.8226 -1.3474
11697TIP3   OH235023   4.772   5.103   6.126 -0.0353 -0.4545  0.0099
11697TIP3    H135024   4.742   5.037   6.064 -0.5890 -1.5359  1.3968
11697TIP3    H235025   4.798   5.053   6.203 -0.6289  0.9571  1.1445
11698TIP3   OH235026   5.423   2.746   0.548  0.4282 -0.0494  0.1702
11698TIP3    H135027   5.398   2.666   0.502 -0.1954 -0.4787  1.2427
11698TIP3    H235028   5.509   2.727   0.586  0.5621  0.0153 -0.0954
11699TIP3   OH235029   6.337   5.096   6.863  0.5153 -0.3009  0.7479
11699TIP3    H135030   6.364   5.169   6.919  1.8210  0.2342 -0.5453
11699TIP3    H235031   6.287   5.137   6.792  1.1921 -0.6615  0.0512
11700TIP3   OH235032   2.985   1.421   0.402 -0.3900  0.2583 -0.3766
11700TIP3    H135033   3.039   1.447   0.476 -0.0333 -0.3399 -0.4186
11700TIP3    H235034   2.901   1.464   0.417 -0.3474  0.0753  0.4234
11701TIP3   OH235035   4.950   3.764   6.888  0.1358 -0.1707  0.3082
11701TIP3    H135036   4.995   3.765   6.804  0.8462  2.4017  0.6705
11701TIP3    H235037   4.897   3.844   6.888 -1.5766 -1.2580  1.4099
11702TIP3   OH235038   7.034   3.261   6.591 -0.2056 -0.3918  0.8053
11702TIP3    H135039   7.078   3.322   6.650  0.0735 -0.2051  0.4093
11702TIP3    H235040   6.986   3.202   6.649 -0.2865  0.0564  1.2007
11703TIP3   OH235041   5.222   4.212   6.244 -0.1548 -0.1597  0.4312
11703TIP3    H135042   5.161   4.145   6.215  0.5401 -0.4873 -0.3049
11703TIP3    H235043   5.232   4.271   6.169 -0.7125  0.7440  1.0504
11704TIP3   OH235044   7.164   4.587   6.318  0.0845 -0.0404 -0.3639
11704TIP3    H135045   7.176   4.614   6.227  1.5969  2.3766  0.5112
11704TIP3    H235046   7.071   4.605   6.336  0.2869  1.5199 -0.7982
11705TIP3   OH235047   4.430   1.853   0.982 -0.1177 -0.0088 -0.3622
11705TIP3    H135048   4.516   1.894   0.993  0.4775 -1.3977  0.3107
11705TIP3    H235049   4.395   1.892   0.901  1.0731  0.6783 -0.5579
11706TIP3   OH235050   5.203   4.228   4.641 -0.1231 -0.3701 -0.6824
11706TIP3    H135051   5.197   4.240   4.736 -0.6463  1.0938 -0.8935
11706TIP3    H235052   5.112   4.225   4.612  0.0382 -0.8412 -1.1497
11707TIP3   OH235053   6.216   4.260   5.132  0.1776 -0.0378 -0.1535
11707TIP3    H135054   6.163   4.269   5.052  0.6376 -1.5534 -0.6414
11707TIP3    H235055   6.294   4.213   5.105 -0.2054 -1.6396  1.4245
11708TIP3   OH235056   7.325   6.227   4.792 -0.0243 -0.3677  0.0541
11708TIP3    H135057   7.290   6.275   4.717 -1.8215  2.0810  2.3429
11708TIP3    H235058   7.414   6.258   4.802 -0.5453  1.0838  0.3131
11709TIP3   OH235059   4.109   5.301   4.066 -0.0072  0.0492 -0.2682
11709TIP3    H135060   4.035   5.361   4.064 -0.5838 -0.3969  3.9270
11709TIP3    H235061   4.186   5.357   4.058 -0.4956  1.6186  4.3337
11710TIP3   OH235062   5.752   4.563   4.944 -0.3234 -0.3064 -0.1059
11710TIP3    H135063   5.688   4.503   4.906 -0.4647  1.0919 -2.1483
11710TIP3    H235064   5.738   4.646   4.897  0.6816  0.9830  1.7974
11711TIP3   OH235065   4.743   7.361   6.747  0.1151  0.5143  0.1335
11711TIP3    H135066   4.741   7.339   6.654  0.4528  3.5365 -0.6294
11711TIP3    H235067   4.834   7.347   6.773  0.0407 -0.2326  0.0067
11712TIP3   OH235068   8.424   6.484   5.085  0.4005  0.1302 -0.2286
11712TIP3    H135069   8.374   6.545   5.140  0.8668  1.5648 -1.3674
11712TIP3    H235070   8.379   6.400   5.096 -0.9394  0.9131  0.4826
11713TIP3   OH235071   7.084   4.543   3.581 -0.3495  0.1007  0.0434
11713TIP3    H135072   7.132   4.588   3.651 -0.5196  0.6784 -0.2114
11713TIP3    H235073   7.097   4.598   3.504 -2.3963  0.8779  0.2381
11714TIP3   OH235074   6.540   5.207   4.833 -0.5304 -0.6401 -0.2500
11714TIP3    H135075   6.480   5.153   4.884 -0.7159  0.8219  1.0978
11714TIP3    H235076   6.548   5.288   4.882 -0.2093  0.5608 -2.2243
11715TIP3   OH235077   5.707   4.624   4.471  0.0336  0.5849  0.4867
11715TIP3    H135078   5.729   4.680   4.546 -1.1540  0.6099  0.8341
11715TIP3    H235079   5.639   4.672   4.425  0.7043  0.5244 -0.5719
11716TIP3   OH235080   0.064   6.431   2.330  0.0802 -0.3353 -0.2494
11716TIP3    H135081   0.033   6.517   2.357  0.2304 -1.0765  2.4831
11716TIP3    H235082   0.149   6.448   2.290 -2.0074  1.2714 -4.1960
11717TIP3   OH235083   6.050   4.679   5.599 -0.3250  0.0210 -0.1103
11717TIP3    H135084   6.036   4.614   5.530  0.7289 -1.0509  0.6638
11717TIP3    H235085   6.127   4.647   5.646 -0.4738  1.2485  0.9770
11718TIP3   OH235086   6.127   6.142   6.063  0.0961 -0.8422  0.0406
11718TIP3    H135087   6.116   6.202   6.138  0.1629 -0.1425 -0.5036
11718TIP3    H235088   6.083   6.187   5.991  2.4524 -0.1901 -1.0445
11719TIP3   OH235089   7.989   2.552   5.680 -0.3214  0.1275  0.2141
11719TIP3    H135090   7.895   2.549   5.699 -0.4687  0.5331 -0.4135
11719TIP3    H235091   8.031   2.523   5.761 -0.9381  1.2827  0.9616
11720TIP3   OH235092   7.485   4.502   3.903 -0.3186  0.0826  0.1931
11720TIP3    H135093   7.461   4.550   3.823 -1.5094  0.5676  0.8247
11720TIP3    H235094   7.579   4.517   3.912 -0.0560 -0.4536 -1.4225
11721TIP3   OH235095   5.864   5.696   3.669 -0.1929 -0.2664  0.0457
11721TIP3    H135096   5.815   5.678   3.749 -1.5909  1.8171 -0.3045
11721TIP3    H235097   5.799   5.692   3.599  0.9336 -1.5892 -0.9550
11722TIP3   OH235098   5.740   5.429   6.396 -0.2436 -0.2772  0.3954
11722TIP3    H135099   5.663   5.483   6.413 -1.4209 -1.7495 -0.1968
11722TIP3    H235100   5.715   5.341   6.424  1.4834 -0.6326  0.9012
11723TIP3   OH235101   6.817   5.035   5.932 -0.6956  0.7393  0.7048
11723TIP3    H135102   6.883   4.990   5.985 -0.4534 -1.2678 -1.2230
11723TIP3    H235103   6.819   5.126   5.963  2.9690  0.7293  0.7244
11724TIP3   OH235104   6.243   5.331   4.126  0.0474  0.6534 -0.1146
11724TIP3    H135105   6.201   5.245   4.122  0.6840  0.2411  1.5608
11724TIP3    H235106   6.331   5.317   4.091  0.2744  0.5420  0.5027
11725TIP3   OH235107   2.628   0.152   0.085 -0.1309 -0.3303 -0.2320
11725TIP3    H135108   2.569   0.096   0.035  0.2285  0.1583 -1.2184
11725TIP3    H235109   2.604   0.137   0.176 -2.1397  0.2436 -0.6387
11726TIP3   OH235110   7.621   4.489   3.098  0.1809  0.0138 -0.0865
11726TIP3    H135111   7.551   4.438   3.057 -0.3731  1.1092 -0.5263
11726TIP3    H235112   7.654   4.546   3.028 -0.8579  1.9888  0.9820
11727TIP3   OH235113   6.076   5.366   3.706 -0.1530 -0.7413  0.2274
11727TIP3    H135114   5.998   5.390   3.656 -0.1534 -2.1302 -0.4809
11727TIP3    H235115   6.131   5.444   3.703 -1.7350  0.4530  1.2102
11728TIP3   OH235116   5.075   3.765   6.643 -0.6081 -0.4088 -0.0411
11728TIP3    H135117   5.010   3.724   6.586 -0.7763 -0.6061  0.2879
11728TIP3    H235118   5.159   3.731   6.613 -0.6589 -0.1778 -0.4487
11729TIP3   OH235119   7.154   4.436   5.717 -0.0643  0.5379 -0.0157
11729TIP3    H135120   7.068   4.394   5.721  0.9859 -1.7841 -0.8789
11729TIP3    H235121   7.210   4.381   5.771  1.4541  0.5485 -1.5263
11730TIP3   OH235122   7.481   4.129   5.137  0.0808 -0.1182  0.1638
11730TIP3    H135123   7.460   4.061   5.201 -0.9448  1.5425  1.6583
11730TIP3    H235124   7.410   4.125   5.073  0.3004 -0.7906 -0.0403
11731TIP3   OH235125   0.797   4.139   6.859 -0.3664 -0.0784 -0.6315
11731TIP3    H135126   0.873   4.110   6.810 -0.8636 -0.7542 -1.0077
11731TIP3    H235127   0.815   4.231   6.879  0.9310 -0.4562  0.0170
11732TIP3   OH235128   6.731   4.121   5.890 -0.5664 -0.0612 -0.2540
11732TIP3    H135129   6.739   4.069   5.970 -2.2807  0.4230  0.2588
11732TIP3    H235130   6.785   4.198   5.906  0.8791 -1.0127 -0.4660
11733TIP3   OH235131   5.517   4.760   4.347 -0.3272  0.0563 -0.3095
11733TIP3    H135132   5.501   4.852   4.371 -1.1855 -0.2714  0.4010
11733TIP3    H235133   5.513   4.760   4.252  1.8449  1.1472 -0.4305
11734TIP3   OH235134   0.054   3.716   6.659  0.6059  0.1340 -0.4206
11734TIP3    H135135   0.079   3.737   6.749  0.1313 -0.5585 -0.1292
11734TIP3    H235136   0.103   3.636   6.639 -2.5914 -2.1856  0.7180
11735TIP3   OH235137   5.516   2.230   3.514  0.1177  0.6287 -0.2066
11735TIP3    H135138   5.513   2.137   3.537 -0.0876  0.3906 -1.1588
11735TIP3    H235139   5.589   2.265   3.566 -0.8363  0.3011  1.3917
11736TIP3   OH235140   6.661   2.971   5.728  0.1537  0.1043  0.1514
11736TIP3    H135141   6.717   2.899   5.758  0.2924  0.0278 -0.2731
11736TIP3    H235142   6.626   2.940   5.644 -0.9274 -0.0549  0.6517
11737TIP3   OH235143   5.279   6.973   4.893  0.2057 -0.0660 -0.0863
11737TIP3    H135144   5.185   6.962   4.878  0.3441 -0.9708 -0.3035
11737TIP3    H235145   5.317   6.970   4.805  0.3012  1.8015 -0.1400
11738TIP3   OH235146   6.668   5.372   6.201 -0.3850 -0.0292  0.2553
11738TIP3    H135147   6.717   5.379   6.119 -0.9236 -0.7928 -0.1371
11738TIP3    H235148   6.615   5.452   6.204  0.2106  0.3667  0.2380
11739TIP3   OH235149   4.358   3.273   0.907 -0.5130 -0.1312 -0.1456
11739TIP3    H135150   4.427   3.240   0.964  0.2188 -0.4423 -1.1904
11739TIP3    H235151   4.405   3.307   0.830 -1.4199  1.0225 -0.2084
11740TIP3   OH235152   5.587   6.437   5.405 -0.3913 -0.0167 -1.1192
11740TIP3    H135153   5.597   6.365   5.467  1.2958  0.6328 -0.6199
11740TIP3    H235154   5.674   6.451   5.369 -0.8370  1.3363 -1.7089
11741TIP3   OH235155   6.469   4.478   6.271  0.0715  0.6634 -0.1998
11741TIP3    H135156   6.457   4.540   6.343  0.3984 -0.7255  1.0674
11741TIP3    H235157   6.435   4.395   6.304 -0.7637  0.2483 -2.0413
11742TIP3   OH235158   6.579   5.208   6.596 -0.0976  0.3849 -0.1558
11742TIP3    H135159   6.512   5.198   6.664  0.0278  0.8515  0.0418
11742TIP3    H235160   6.567   5.133   6.539 -0.9908  0.6238 -0.2962
11743TIP3   OH235161   0.951   3.664   6.190  0.0229 -0.4277 -0.2467
11743TIP3    H135162   0.931   3.575   6.161 -0.7644 -0.4770  0.4169
11743TIP3    H235163   0.890   3.719   6.142  0.1712 -0.2956 -0.2836
11744TIP3   OH235164   2.532   4.839   1.541 -0.2825 -0.0221 -0.3219
11744TIP3    H135165   2.446   4.879   1.529  0.2198  0.8771 -1.0166
11744TIP3    H235166   2.588   4.885   1.479  0.9197  0.0813  0.8246
11745TIP3   OH235167   4.907   4.763   6.124 -0.2339 -0.5289  0.1715
11745TIP3    H135168   4.828   4.721   6.090 -0.6089 -0.1944  0.6189
11745TIP3    H235169   4.910   4.848   6.079 -0.9828  0.1047  1.3089
11746TIP3   OH235170   4.766   4.681   4.534 -0.5085 -0.0685 -0.1887
11746TIP3    H135171   4.802   4.693   4.623  0.5282  0.0634 -0.6182
11746TIP3    H235172   4.674   4.660   4.549 -0.5126  0.6347  0.9001
11747TIP3   OH235173   4.609   5.082   5.776  0.1247  0.2778 -0.1756
11747TIP3    H135174   4.647   5.162   5.740  0.9720  0.2903  0.7188
11747TIP3    H235175   4.515   5.091   5.761  0.1797  1.5870  0.1988
11748TIP3   OH235176   6.016   5.262   5.394  0.1500 -0.6487  0.9353
11748TIP3    H135177   5.982   5.288   5.479 -2.2027 -0.4219 -0.0336
11748TIP3    H235178   6.005   5.167   5.392  0.9542 -0.7509  1.1895
11749TIP3   OH235179   4.326   4.705   5.641  0.1594 -0.1396 -0.5254
11749TIP3    H135180   4.250   4.752   5.607 -0.4136 -1.0943 -0.5821
11749TIP3    H235181   4.307   4.613   5.624  0.4236 -0.5483  1.2451
11750TIP3   OH235182   0.285   6.302   5.759 -0.3060  0.1245 -0.3986
11750TIP3    H135183   0.210   6.244   5.775 -0.1055 -0.2780 -0.9374
11750TIP3    H235184   0.315   6.326   5.847 -0.1105 -0.9464 -0.1652
11751TIP3   OH235185   7.167   2.717   6.369 -0.2631  0.0234 -0.4346
11751TIP3    H135186   7.166   2.763   6.454 -0.6701 -1.1294  0.1854
11751TIP3    H235187   7.256   2.731   6.336  0.6357 -1.5145  1.2839
11752TIP3   OH235188   7.290   5.295   5.184  0.1392 -0.1351 -0.3170
11752TIP3    H135189   7.367   5.350   5.172 -1.0442  1.5498 -0.2914
11752TIP3    H235190   7.238   5.308   5.105 -0.6945 -0.3368  0.1869
11753TIP3   OH235191   6.164   4.239   5.674 -0.0634  0.3976 -1.0225
11753TIP3    H135192   6.100   4.173   5.646  2.6690 -1.6712 -2.6425
11753TIP3    H235193   6.199   4.274   5.593  3.6775 -1.3758 -0.2852
11754TIP3   OH235194   6.310   4.333   4.640  0.3747  0.6429 -0.0942
11754TIP3    H135195   6.241   4.398   4.627 -0.9245 -0.9206 -1.2560
11754TIP3    H235196   6.391   4.379   4.618 -0.3621  2.2889  0.5633
11755TIP3   OH235197   7.818   7.692   1.377 -0.3218 -0.0145  0.2544
11755TIP3    H135198   7.877   7.663   1.307 -0.6406  2.8385 -1.2629
11755TIP3    H235199   7.875   7.705   1.453  0.3062 -1.4359  0.0478
11756TIP3   OH235200   6.483   2.671   5.276  0.2274 -0.0754  0.0462
11756TIP3    H135201   6.427   2.712   5.210  0.9897  1.3252  0.2425
11756TIP3    H235202   6.496   2.582   5.245 -3.3709 -0.9279  0.7838
11757TIP3   OH235203   4.628   2.799   6.121  0.2561 -0.1628 -0.8704
11757TIP3    H135204   4.591   2.717   6.088  0.6370 -1.0103  0.7183
11757TIP3    H235205   4.594   2.806   6.210  0.4516  1.2771 -0.8994
11758TIP3   OH235206   6.938   0.877   5.625 -0.2838  0.2600  0.2243
11758TIP3    H135207   7.015   0.859   5.572 -1.3429 -0.8030 -1.0049
11758TIP3    H235208   6.907   0.962   5.594  0.7269  0.9663  1.1369
11759TIP3   OH235209   4.223   4.060   4.914  0.3513  0.0414  0.4005
11759TIP3    H135210   4.132   4.037   4.893 -0.7144  0.9098  3.8259
11759TIP3    H235211   4.265   4.071   4.828 -3.1708  1.2305 -1.2753
11760TIP3   OH235212   5.060   2.049   6.556 -0.0756 -0.3797  0.5774
11760TIP3    H135213   5.061   2.076   6.464 -0.0867  0.2458  0.7591
11760TIP3    H235214   5.010   1.967   6.557  0.5723 -0.7891 -0.0818
11761TIP3   OH235215   4.161   3.624   4.257 -0.1289 -0.2387 -0.1115
11761TIP3    H135216   4.233   3.569   4.225 -0.0415  0.5630 -1.3168
11761TIP3    H235217   4.123   3.663   4.178 -0.7806  0.7148  0.6546
11762TIP3   OH235218   5.006   4.984   4.091  0.4076 -0.5236 -0.3697
11762TIP3    H135219   5.065   4.922   4.132  0.6420  1.0627  1.7915
11762TIP3    H235220   4.919   4.958   4.121  0.3946 -0.4955 -0.3832
11763TIP3   OH235221   6.175   5.079   2.853 -0.2550 -0.0698 -0.2754
11763TIP3    H135222   6.092   5.038   2.879  1.1871 -1.5712  2.1848
11763TIP3    H235223   6.188   5.149   2.917 -0.4330  1.3129 -1.7045
11764TIP3   OH235224   6.282   4.493   4.338 -0.0703  0.0992  0.3039
11764TIP3    H135225   6.223   4.454   4.274 -0.0173  0.1582  0.2187
11764TIP3    H235226   6.227   4.551   4.390 -0.0581  0.2726  0.1247
11765TIP3   OH235227   7.265   6.146   6.703 -0.2737 -0.0843 -0.2374
11765TIP3    H135228   7.326   6.215   6.677 -2.2172  1.8641  0.1282
11765TIP3    H235229   7.190   6.158   6.645 -2.0376  0.2727  2.0532
11766TIP3   OH235230   4.221   4.660   4.955  0.2273 -0.0501 -0.0836
11766TIP3    H135231   4.296   4.607   4.980 -0.5815 -0.3708  1.7095
11766TIP3    H235232   4.145   4.605   4.972 -0.4311  0.1520 -2.1876
11767TIP3   OH235233   6.174   6.793   6.439 -0.8262 -0.1017  0.0139
11767TIP3    H135234   6.131   6.715   6.403 -0.5633  1.0921 -3.0504
11767TIP3    H235235   6.115   6.865   6.418  0.7110  1.0103 -0.5539
11768TIP3   OH235236   0.260   3.558   6.555 -0.3501 -0.5812  0.4270
11768TIP3    H135237   0.331   3.614   6.585 -0.3268  0.1058 -0.8956
11768TIP3    H235238   0.266   3.480   6.610  0.9963 -0.2412  0.7776
11769TIP3   OH235239   1.035   6.256   2.151 -0.0132 -0.1323  0.3475
11769TIP3    H135240   1.060   6.240   2.242 -0.7845  1.7033  0.8891
11769TIP3    H235241   0.943   6.232   2.146 -0.2243  0.6625  0.2944
11770TIP3   OH235242   8.293   3.765   6.532 -0.2779  0.6143 -0.7407
11770TIP3    H135243   8.388   3.762   6.545 -0.2150  2.2006 -0.6643
11770TIP3    H235244   8.277   3.704   6.461  0.7630  0.0876 -0.5442
11771TIP3   OH235245   0.060   5.631   3.531 -0.0685 -0.0882  0.8954
11771TIP3    H135246   0.107   5.548   3.528 -0.4280 -0.3213  1.6758
11771TIP3    H235247   0.119   5.691   3.577 -0.0225 -0.0388  0.7746
11772TIP3   OH235248   2.472   6.562   5.741 -0.4045 -0.0152  0.4314
11772TIP3    H135249   2.521   6.526   5.667  0.3397 -1.1387  1.4466
11772TIP3    H235250   2.381   6.563   5.711 -0.1375 -0.6713 -0.4232
11773TIP3   OH235251   0.333   4.445   4.573  0.4279  0.2224 -0.4623
11773TIP3    H135252   0.285   4.452   4.490 -1.1717 -0.4404  0.3778
11773TIP3    H235253   0.423   4.430   4.547  0.3331  2.2167 -2.1035
11774TIP3   OH235254   4.984   5.207   5.133 -0.0677 -0.2681  0.2305
11774TIP3    H135255   5.013   5.146   5.065  1.3288  0.5543  0.0632
11774TIP3    H235256   4.920   5.264   5.088  0.3343 -0.1670 -0.2173
11775TIP3   OH235257   1.105   6.927   4.276  0.5418  0.0291 -0.0981
11775TIP3    H135258   1.053   6.848   4.296  1.6229 -0.5985  0.2807
11775TIP3    H235259   1.059   6.998   4.320  0.6991 -0.7277  1.3095
11776TIP3   OH235260   7.441   4.891   5.906  0.1612 -0.1549  0.2775
11776TIP3    H135261   7.376   4.897   5.837  1.4788 -1.5809 -1.1313
11776TIP3    H235262   7.525   4.893   5.860  1.0510 -1.2391  1.8083
11777TIP3   OH235263   0.040   5.106   3.541 -0.0411 -0.5672  0.1924
11777TIP3    H135264   0.114   5.044   3.547  0.4920  0.0744  0.2788
11777TIP3    H235265   0.056   5.168   3.612  0.5140  0.8573 -1.1595
11778TIP3   OH235266   7.054   4.460   2.482  0.6855 -0.4365  0.2208
11778TIP3    H135267   6.996   4.439   2.556  1.6327  0.0347  1.1222
11778TIP3    H235268   7.082   4.550   2.499  2.5201 -1.0172  0.3785
11779TIP3   OH235269   7.872   5.029   5.448  0.2029  0.1669  0.0042
11779TIP3    H135270   7.858   4.934   5.446  2.0018 -0.0944 -1.0801
11779TIP3    H235271   7.892   5.048   5.539 -1.7067 -0.2409  0.5422
11780TIP3   OH235272   6.904   4.516   6.023  0.1750 -0.3905  0.4386
11780TIP3    H135273   6.837   4.583   6.032  1.5457  1.0871 -0.2307
11780TIP3    H235274   6.895   4.485   5.933  0.5328 -0.0563  0.2907
11781TIP3   OH235275   7.017   5.854   4.983 -0.3523  0.3115 -0.0263
11781TIP3    H135276   7.018   5.940   5.025 -0.8056  0.6336 -0.6753
11781TIP3    H235277   7.110   5.831   4.975 -0.2336  0.6493  0.3202
11782TIP3   OH235278   8.467   4.111   2.702  0.1668  0.0150  0.6950
11782TIP3    H135279   8.495   4.182   2.760 -1.5914  0.6633  0.7948
11782TIP3    H235280   8.378   4.089   2.732 -0.1497 -0.7213 -0.7259
11783TIP3   OH235281   0.092   5.638   6.224  0.1817  0.0946 -0.5658
11783TIP3    H135282   0.002   5.653   6.252  0.8510 -1.2468  2.6365
11783TIP3    H235283   0.112   5.710   6.165 -2.7417  0.8066 -0.7548
11784TIP3   OH235284   7.514   5.339   3.685 -0.2787  0.1235  0.0297
11784TIP3    H135285   7.529   5.414   3.627  2.2878  0.1616  0.6636
11784TIP3    H235286   7.599   5.325   3.727 -1.8997 -0.3092  3.3240
11785TIP3   OH235287   1.336   3.945   2.818  0.1746  0.5613 -0.4438
11785TIP3    H135288   1.250   3.961   2.781  0.0476 -0.0900 -0.4330
11785TIP3    H235289   1.358   3.856   2.790  0.5405  0.4680  0.1389
11786TIP3   OH235290   8.108   4.427   6.158 -0.3258  0.2563 -0.4223
11786TIP3    H135291   8.059   4.477   6.223  1.5632 -0.0617  1.2638
11786TIP3    H235292   8.169   4.490   6.120  1.1290 -0.4220  0.7510
11787TIP3   OH235293   7.922   5.497   4.462 -0.8017  0.2847  0.0455
11787TIP3    H135294   7.936   5.562   4.393 -0.8065  1.3967  1.0651
11787TIP3    H235295   7.987   5.520   4.528 -0.6245 -0.9341  0.2952
11788TIP3   OH235296   0.737   5.138   5.678  0.1429  0.3609 -0.1480
11788TIP3    H135297   0.722   5.072   5.610 -1.5673  1.9153 -1.3150
11788TIP3    H235298   0.796   5.095   5.740 -0.2107 -1.9389 -1.3537
11789TIP3   OH235299   0.843   3.695   5.451  0.1242  0.5157  0.2590
11789TIP3    H135300   0.814   3.684   5.360  1.0470 -0.5696  0.0925
11789TIP3    H235301   0.908   3.765   5.447  1.8247 -1.0604 -0.2844
11790TIP3   OH235302   0.412   5.938   5.166 -0.1144 -0.7048 -0.2804
11790TIP3    H135303   0.378   5.892   5.243 -1.6004  1.4348  0.3683
11790TIP3    H235304   0.333   5.969   5.121  0.8736  1.1770 -0.7211
11791TIP3   OH235305   0.048   4.708   3.938 -0.3708 -0.7813  0.2794
11791TIP3    H135306  -0.014   4.643   3.973 -1.4452  1.1198  2.0043
11791TIP3    H235307   0.020   4.722   3.848 -1.9285 -0.5796  0.7850
11792TIP3   OH235308   1.689   5.843   6.833 -0.1884 -1.0141  0.4724
11792TIP3    H135309   1.748   5.880   6.899  1.0969 -0.6421 -0.8414
11792TIP3    H235310   1.616   5.807   6.882 -0.2604  1.1052  1.9547
11793TIP3   OH235311   7.195   5.926   4.505  0.3399 -0.1846  0.2667
11793TIP3    H135312   7.227   5.971   4.426  0.7185  0.8166  0.9826
11793TIP3    H235313   7.142   5.854   4.471  1.1642 -0.2507 -0.9193
11794TIP3   OH235314   0.788   2.772   4.353 -0.0477 -0.0803  0.1614
11794TIP3    H135315   0.758   2.786   4.264 -0.1547 -2.3678 -0.1824
11794TIP3    H235316   0.728   2.823   4.407 -0.3365  0.8401 -1.0123
11795TIP3   OH235317   4.154   2.159   0.691  0.3555  0.1117 -0.0016
11795TIP3    H135318   4.070   2.199   0.668  0.0112 -0.2595  0.6088
11795TIP3    H235319   4.185   2.211   0.765  0.0726 -0.5308  0.5707
11796TIP3   OH235320   0.204   6.399   5.032  0.0556  0.0937  0.4364
11796TIP3    H135321   0.118   6.430   5.060 -0.1622  0.4299 -0.6089
11796TIP3    H235322   0.189   6.308   5.004 -0.1307  0.4495 -0.6134
11797TIP3   OH235323   6.040   4.432   5.835 -0.1704 -0.0356  0.0198
11797TIP3    H135324   6.074   4.440   5.923  2.2668 -0.2321 -0.8717
11797TIP3    H235325   6.094   4.365   5.794 -1.1792  0.1405 -1.6648
11798TIP3   OH235326   4.698   4.026   5.977 -0.5680  0.2763  0.2226
11798TIP3    H135327   4.683   3.934   5.955  0.8302  0.2880 -0.8774
11798TIP3    H235328   4.620   4.072   5.945 -1.0951 -0.4627  0.4286
11799TIP3   OH235329   6.233   5.420   5.286  0.0783  0.0134 -0.7583
11799TIP3    H135330   6.179   5.494   5.257 -0.3531  0.4774  1.1523
11799TIP3    H235331   6.171   5.361   5.329  0.3037 -1.8085 -2.8383
11800TIP3   OH235332   7.542   6.092   5.912 -0.2502 -0.3140  1.3592
11800TIP3    H135333   7.582   6.179   5.917 -0.7231 -0.1081  1.5138
11800TIP3    H235334   7.613   6.032   5.934 -0.0179  0.0538  1.6185
11801TIP3   OH235335   7.372   5.708   2.013 -0.7200  0.2026 -0.4851
11801TIP3    H135336   7.297   5.743   1.966  0.3902  1.5466 -1.2943
11801TIP3    H235337   7.336   5.638   2.067 -2.4103  0.2620 -1.4995
11802TIP3   OH235338   7.596   4.964   2.457 -0.6888  0.2217 -0.4841
11802TIP3    H135339   7.587   4.895   2.391 -0.8065 -1.1140  0.9005
11802TIP3    H235340   7.661   4.931   2.519 -0.6576  1.4072  0.1378
11803TIP3   OH235341   5.732   2.679   4.310 -0.2327  1.1490  0.0527
11803TIP3    H135342   5.719   2.689   4.215  1.7298  0.5368 -0.3185
11803TIP3    H235343   5.820   2.642   4.318 -0.7883  0.1733  2.0885
11804TIP3   OH235344   2.179   5.788   4.145  0.3307  0.2213 -0.4192
11804TIP3    H135345   2.112   5.748   4.089 -0.2589  2.1133 -1.1188
11804TIP3    H235346   2.132   5.854   4.195  0.6838 -2.0510  3.0818
11805TIP3   OH235347   8.007   5.680   2.574 -0.4950  0.1483 -0.5019
11805TIP3    H135348   8.081   5.699   2.516 -0.9263 -0.3326 -1.2279
11805TIP3    H235349   8.013   5.746   2.643  1.2114 -0.5168  0.0175
11806TIP3   OH235350   4.945   5.910   4.902  0.0477 -0.3195 -0.1153
11806TIP3    H135351   4.957   5.976   4.970  1.3307  0.5697 -1.1696
11806TIP3    H235352   5.007   5.840   4.925 -1.4460 -1.2651  1.1063
11807TIP3   OH235353   6.284   5.995   2.648  0.1574 -0.4662 -0.1763
11807TIP3    H135354   6.213   6.059   2.641  1.3532  1.2318  2.3797
11807TIP3    H235355   6.240   5.914   2.674 -1.0882 -0.0085 -0.8123
11808TIP3   OH235356   8.296   6.147   5.341  0.0488  0.6320  0.5889
11808TIP3    H135357   8.364   6.164   5.406  0.9230  1.3221 -0.4942
11808TIP3    H235358   8.314   6.209   5.271  0.1796 -1.2935 -1.1226
11809TIP3   OH235359   7.227   5.803   6.396  0.1363  0.0300 -0.1547
11809TIP3    H135360   7.243   5.712   6.371  2.3352 -0.3888  2.4806
11809TIP3    H235361   7.219   5.800   6.491 -0.3864  2.5071 -0.0996
11810TIP3   OH235362   7.589   5.545   6.306  0.0205 -0.1045  0.1610
11810TIP3    H135363   7.576   5.626   6.356  1.7244  0.4006 -0.2121
11810TIP3    H235364   7.641   5.571   6.230 -1.2603 -1.1640 -1.1078
11811TIP3   OH235365   7.920   4.789   5.676  0.1752  0.2676 -0.4274
11811TIP3    H135366   7.957   4.733   5.744  0.6872 -0.4801 -1.3145
11811TIP3    H235367   7.948   4.749   5.594 -1.2660  0.5957 -1.0938
11812TIP3   OH235368   7.895   5.306   2.857  0.1620 -0.1769  0.1439
11812TIP3    H135369   7.945   5.340   2.783  1.2955  1.6815  1.7023
11812TIP3    H235370   7.805   5.333   2.840  0.3812  0.0997 -0.6114
11813TIP3   OH235371   7.946   5.722   4.288  0.9885  0.5364  0.6659
11813TIP3    H135372   7.944   5.813   4.317  1.8923  0.4114  1.1515
11813TIP3    H235373   8.019   5.717   4.227  0.6661  0.2320  0.3004
11814TIP3   OH235374   8.460   6.585   4.388 -0.3955 -0.1385 -0.0154
11814TIP3    H135375   8.449   6.651   4.456  0.1601 -0.0530 -0.0038
11814TIP3    H235376   8.376   6.539   4.385 -0.7554  0.5160  0.0280
11815TIP3   OH235377   6.002   4.840   5.839 -0.2945  0.0794 -0.7623
11815TIP3    H135378   6.030   4.780   5.770  0.2363 -0.3119 -0.2200
11815TIP3    H235379   6.020   4.927   5.804  0.6221 -0.1340 -0.8500
11816TIP3   OH235380   0.437   4.183   2.848  0.2331 -0.1285 -0.4384
11816TIP3    H135381   0.385   4.143   2.778 -0.4559  0.2690 -0.1621
11816TIP3    H235382   0.520   4.204   2.807  0.6644 -1.9648 -0.5613
11817TIP3   OH235383   1.513   4.122   6.246 -0.1764 -0.7313  0.7435
11817TIP3    H135384   1.595   4.156   6.209  0.9246 -2.6994  1.2911
11817TIP3    H235385   1.455   4.111   6.171 -0.3432  1.6562  0.4661
11818TIP3   OH235386   8.106   5.779   6.514  0.2617 -0.1459 -0.3309
11818TIP3    H135387   8.011   5.779   6.520  0.3172  0.4266  0.5221
11818TIP3    H235388   8.129   5.688   6.496 -0.3152 -0.6656  1.5127
11819TIP3   OH235389   0.308   4.131   6.007  0.2225 -0.2819  0.2933
11819TIP3    H135390   0.398   4.163   6.016 -0.1908  1.0731 -0.2059
11819TIP3    H235391   0.260   4.176   6.077 -0.1444 -0.6500  0.2774
11820TIP3   OH235392   8.441   4.190   4.504 -0.0633  0.3571 -0.4614
11820TIP3    H135393   8.381   4.117   4.520 -0.2839  0.6811  0.1901
11820TIP3    H235394   8.466   4.221   4.591  0.4830  0.6914 -0.7330
11821TIP3   OH235395   8.009   5.928   5.719 -0.3757 -0.3086  0.3459
11821TIP3    H135396   8.026   5.916   5.812 -0.8313 -2.3933  0.1766
11821TIP3    H235397   8.080   5.881   5.675 -0.1747  0.6432 -0.3766
11822TIP3   OH235398   5.987   6.351   3.324  0.1444  0.2127  0.3892
11822TIP3    H135399   5.966   6.402   3.245 -2.1640 -0.2281  0.7098
11822TIP3    H235400   5.920   6.283   3.328  1.5859 -1.1770  1.4999
11823TIP3   OH235401   0.784   3.589   3.848  0.2608  0.2709  0.1018
11823TIP3    H135402   0.849   3.623   3.787  0.3518  1.0281  0.5983
11823TIP3    H235403   0.743   3.668   3.885 -0.4694 -0.1873  0.2859
11824TIP3   OH235404   0.631   5.695   3.510  0.1319 -0.4790 -0.3590
11824TIP3    H135405   0.670   5.648   3.436 -0.5889 -2.1167  0.2835
11824TIP3    H235406   0.698   5.691   3.578  0.9623  1.3910 -1.0394
11825TIP3   OH235407   0.654   5.246   6.144  0.1235  0.1995  0.9980
11825TIP3    H135408   0.748   5.237   6.158  0.3921  1.1432 -0.1304
11825TIP3    H235409   0.632   5.177   6.081 -0.3012 -1.2469  2.6898
11826TIP3   OH235410   7.709   5.213   4.086 -0.2679  0.4312 -0.0046
11826TIP3    H135411   7.637   5.151   4.091 -0.5041  0.6842 -0.3155
11826TIP3    H235412   7.739   5.222   4.177 -2.2865  2.2947  0.4991
11827TIP3   OH235413   0.493   4.599   3.189 -0.1197  0.0982 -0.0602
11827TIP3    H135414   0.405   4.614   3.223  0.3870 -0.5443  1.5914
11827TIP3    H235415   0.486   4.517   3.139 -0.4048 -0.1015  0.3032
11828TIP3   OH235416   7.697   3.554   5.671 -0.1165 -0.5988 -0.1233
11828TIP3    H135417   7.759   3.596   5.731 -1.1190  0.9428 -0.1426
11828TIP3    H235418   7.726   3.463   5.666  3.5205  0.5887 -1.9343
11829TIP3   OH235419   6.109   4.292   4.877 -0.2415 -0.3170 -0.2083
11829TIP3    H135420   6.172   4.304   4.806 -0.0008  0.4967  0.1469
11829TIP3    H235421   6.027   4.271   4.832 -0.0035 -0.1848 -0.7114
11830TIP3   OH235422   7.636   5.563   3.564  0.0304 -0.2455 -0.4508
11830TIP3    H135423   7.709   5.597   3.615 -2.1406  0.7460  2.1703
11830TIP3    H235424   7.589   5.642   3.535  0.2168 -0.8526 -2.4844
11831TIP3   OH235425   4.681   3.546   0.735 -0.1291 -0.3227 -0.6331
11831TIP3    H135426   4.730   3.621   0.700 -0.3556  0.0585 -0.1456
11831TIP3    H235427   4.744   3.474   0.735  0.3003  0.0497 -0.4338
11832TIP3   OH235428   5.972   4.547   4.384  0.3805  0.3462 -0.3561
11832TIP3    H135429   6.003   4.617   4.326 -1.8647  2.1941  0.6252
11832TIP3    H235430   5.885   4.575   4.411  0.4730 -1.6196  2.1045
11833TIP3   OH235431   8.296   3.382   2.065 -0.4281 -0.4103 -0.0120
11833TIP3    H135432   8.354   3.339   2.003  0.2769  1.4273 -0.6342
11833TIP3    H235433   8.352   3.405   2.139 -0.4878  0.7944 -0.3379
11834TIP3   OH235434   4.491   0.902   1.214 -0.5111 -0.1489 -0.1997
11834TIP3    H135435   4.508   0.812   1.241 -0.3972  0.1091  0.6026
11834TIP3    H235436   4.578   0.938   1.194 -0.7332 -0.7858 -2.3437
11835TIP3   OH235437   0.290   6.115   6.042  0.5812  0.2719  0.2538
11835TIP3    H135438   0.350   6.185   6.017 -1.2364  0.9405 -2.4317
11835TIP3    H235439   0.346   6.037   6.046  1.9767  1.2183 -0.1870
11836TIP3   OH235440   8.003   5.166   5.804  0.1851 -0.6665 -0.0802
11836TIP3    H135441   7.908   5.161   5.811  0.2650  0.3523  2.4386
11836TIP3    H235442   8.031   5.201   5.889  2.7662 -0.4970 -0.9596
11837TIP3   OH235443   6.578   4.459   5.184 -0.2910  0.4528  0.5010
11837TIP3    H135444   6.579   4.383   5.126  0.0304  1.6465 -1.0958
11837TIP3    H235445   6.631   4.432   5.260 -3.4771 -2.3156  1.8712
11838TIP3   OH235446   8.042   4.573   3.487 -0.8567 -0.2159 -0.8422
11838TIP3    H135447   7.957   4.617   3.497 -1.2168 -0.9230 -0.7368
11838TIP3    H235448   8.082   4.577   3.574 -0.8314  0.0141 -0.8639
11839TIP3   OH235449   7.813   5.583   2.386 -0.1529 -0.6145 -0.0754
11839TIP3    H135450   7.882   5.603   2.449  1.2956 -2.2317 -1.0910
11839TIP3    H235451   7.844   5.620   2.303 -1.8695  1.1739  0.0546
11840TIP3   OH235452   7.154   5.541   5.012 -0.6415 -0.1966 -0.2494
11840TIP3    H135453   7.219   5.611   5.004 -1.9599  0.9885 -0.7428
11840TIP3    H235454   7.117   5.552   5.100  1.3936 -2.2947  0.9468
11841TIP3   OH235455   6.924   2.272   0.376 -0.1987 -0.1271  0.4414
11841TIP3    H135456   6.898   2.364   0.372  0.5753  0.1268  1.0657
11841TIP3    H235457   6.841   2.224   0.380 -0.6038  0.5446  0.2110
11842TIP3   OH235458   8.107   4.538   3.746  0.3513  0.3690 -0.1058
11842TIP3    H135459   8.102   4.481   3.822 -1.9939  0.4824 -0.1180
11842TIP3    H235460   8.095   4.626   3.782  0.0195  0.4915 -0.5189
11843TIP3   OH235461   6.657   5.995   5.578 -0.0829  0.2036 -0.5813
11843TIP3    H135462   6.663   5.903   5.552 -3.6275  0.2446 -1.8299
11843TIP3    H235463   6.578   5.999   5.631  0.1657  2.4996 -0.3714
11844TIP3   OH235464   6.849   6.154   6.300 -0.0336  0.2016  0.6613
11844TIP3    H135465   6.891   6.142   6.385 -0.8723  0.6635  1.1492
11844TIP3    H235466   6.808   6.240   6.304  0.0136  0.2753 -0.2500
11845TIP3   OH235467   7.362   5.458   5.393 -0.2021  0.3994 -0.3969
11845TIP3    H135468   7.289   5.416   5.346  0.4826 -3.3342  1.6847
11845TIP3    H235469   7.321   5.501   5.468 -0.5388  0.4189 -0.5905
11846TIP3   OH235470   5.052   6.912   4.528  0.2980  0.1968 -0.0704
11846TIP3    H135471   5.098   6.840   4.485 -0.5642 -0.9252  0.8474
11846TIP3    H235472   5.060   6.893   4.621  0.3398  1.4715  0.1919
11847TIP3   OH235473   0.107   5.295   4.476 -0.1301  0.0307 -0.0324
11847TIP3    H135474   0.189   5.284   4.523 -0.5565  0.6787  0.9069
11847TIP3    H235475   0.132   5.331   4.391  0.4395  2.4480  1.0884
11848TIP3   OH235476   5.427   2.305   1.028  0.4380  0.4290 -0.2651
11848TIP3    H135477   5.453   2.216   1.050 -1.2043 -0.1739 -0.7361
11848TIP3    H235478   5.348   2.321   1.079  0.9099  1.7393  0.0788
11849TIP3   OH235479   8.210   4.959   3.237  0.2485 -0.4494 -0.1363
11849TIP3    H135480   8.225   5.008   3.318 -0.4420  1.0019 -0.8730
11849TIP3    H235481   8.270   4.999   3.174 -1.9741  1.0356 -1.3687
11850TIP3   OH235482   8.202   7.923   2.165  0.5349 -0.7585 -0.2659
11850TIP3    H135483   8.109   7.941   2.177  0.5811 -0.9966  0.4655
11850TIP3    H235484   8.233   7.993   2.108 -0.3005 -1.2205 -1.3262
11851TIP3   OH235485   7.460   4.472   4.951  0.6254  0.0294  0.0490
11851TIP3    H135486   7.410   4.402   4.992  0.5816 -0.6266 -1.1040
11851TIP3    H235487   7.532   4.489   5.012 -0.1519 -0.0495  0.9965
11852TIP3   OH235488   5.843   4.300   4.721 -0.1575  0.1930  0.3969
11852TIP3    H135489   5.777   4.368   4.736 -0.6147 -0.1357 -0.1235
11852TIP3    H235490   5.795   4.218   4.727  0.3001 -0.0712  0.5093
11853TIP3   OH235491   7.222   5.555   3.833  0.1919  0.1479 -0.4624
11853TIP3    H135492   7.225   5.630   3.775  0.5430  0.6806  0.2296
11853TIP3    H235493   7.314   5.542   3.860  0.1828 -0.7255 -0.8383
11854TIP3   OH235494   7.577   5.825   5.142  0.0203  0.2201  0.0722
11854TIP3    H135495   7.637   5.899   5.132 -0.9418  0.8471 -1.2147
11854TIP3    H235496   7.634   5.750   5.154  1.0134  1.1716  1.4481
11855TIP3   OH235497   0.027   7.664   4.155  0.1092  0.0327 -0.5739
11855TIP3    H135498  -0.007   7.753   4.147  0.9090  0.2072 -2.1948
11855TIP3    H235499   0.078   7.651   4.075  0.1778 -1.8030 -0.2371
11856TIP3   OH235500   8.336   5.723   6.345  0.0731 -0.2239  0.1139
11856TIP3    H135501   8.372   5.686   6.426 -1.2447 -1.8323 -0.0339
11856TIP3    H235502   8.281   5.795   6.374  0.8829  0.2369  0.5323
11857TIP3   OH235503   1.462   7.096   5.217  0.1985  0.2442 -0.1987
11857TIP3    H135504   1.463   7.046   5.135 -0.8930 -0.0904 -0.0141
11857TIP3    H235505   1.526   7.166   5.203  1.4290 -0.9292 -0.6215
11858TIP3   OH235506   0.661   6.421   4.137 -0.2535  0.7318 -0.3879
11858TIP3    H135507   0.608   6.345   4.113  2.1048 -0.9379 -0.3978
11858TIP3    H235508   0.679   6.409   4.230  1.3671  0.4869 -0.7194
11859TIP3   OH235509   0.052   7.286   2.191  0.3589  0.5607 -0.1607
11859TIP3    H135510  -0.015   7.257   2.254 -0.2733  2.8112  0.2625
11859TIP3    H235511   0.039   7.230   2.114 -1.0265 -0.0164  0.4799
11860TIP3   OH235512   7.050   5.586   5.576  0.4056  0.7278 -0.2922
11860TIP3    H135513   7.117   5.616   5.637 -2.9069  0.9709  3.4603
11860TIP3    H235514   7.022   5.665   5.530  0.3387  1.2472  0.6262
11861TIP3   OH235515   8.391   5.071   5.451  0.4879  0.1044 -0.1995
11861TIP3    H135516   8.381   5.077   5.546  3.3811  0.1628  0.1507
11861TIP3    H235517   8.332   5.138   5.417  1.4090  1.9570  1.7126
11862TIP3   OH235518   0.109   6.168   4.837  0.2200 -0.6489  0.0848
11862TIP3    H135519   0.028   6.189   4.791 -0.4682 -0.1780  1.4863
11862TIP3    H235520   0.157   6.110   4.777 -0.6387 -0.0167 -1.2179
11863TIP3   OH235521   6.188   4.643   4.803  0.0379  0.5125  0.0234
11863TIP3    H135522   6.143   4.590   4.737  1.5226  0.3627 -0.9060
11863TIP3    H235523   6.174   4.598   4.885  0.4464 -0.7972 -0.6122
11864TIP3   OH235524   0.403   5.361   4.867  0.8058  0.2869 -0.1634
11864TIP3    H135525   0.433   5.373   4.957  0.8952  1.2245 -0.3102
11864TIP3    H235526   0.327   5.419   4.860  1.5762  1.1979 -1.0673
11865TIP3   OH235527   0.055   5.571   4.236 -0.4049  0.4022  0.0468
11865TIP3    H135528   0.113   5.509   4.194 -0.8063  0.0858 -0.0486
11865TIP3    H235529   0.100   5.655   4.230 -0.7573  0.4923 -1.6131
11866TIP3   OH235530   0.506   5.704   1.421  0.2956  0.2835 -0.0068
11866TIP3    H135531   0.543   5.623   1.456  0.0200  0.5599  0.9533
11866TIP3    H235532   0.476   5.681   1.333  1.6164 -0.2575 -0.3271
11867TIP3   OH235533   0.432   6.330   6.308 -0.5867 -0.0849  0.1803
11867TIP3    H135534   0.415   6.408   6.361  1.1062  0.3009  0.2029
11867TIP3    H235535   0.452   6.365   6.221  1.9035 -0.3572  0.6154
11868TIP3   OH235536   8.235   4.174   5.999 -0.0042 -0.0172 -0.6654
11868TIP3    H135537   8.223   4.154   5.906  1.6271  1.3756 -1.1982
11868TIP3    H235538   8.329   4.180   6.011 -0.1726 -0.8819  1.2542
11869TIP3   OH235539   8.280   5.090   4.388  0.3450  0.0456  0.0749
11869TIP3    H135540   8.303   5.155   4.454 -0.5878  0.0284  0.4197
11869TIP3    H235541   8.364   5.054   4.359  0.8230  0.9434  0.3430
11870TIP3   OH235542   6.791   7.996   1.633 -0.3809  0.2615 -0.5111
11870TIP3    H135543   6.761   7.940   1.562 -1.6438 -0.3350  0.4732
11870TIP3    H235544   6.713   8.013   1.685  0.7152 -0.2854  1.3887
11871TIP3   OH235545   0.927   3.270   4.383 -0.3655 -0.4372 -0.6205
11871TIP3    H135546   0.860   3.253   4.318 -0.0149 -1.3940 -0.7298
11871TIP3    H235547   1.008   3.281   4.332 -0.5220  1.3197 -0.5466
11872TIP3   OH235548   2.360   6.079   5.479 -0.6930 -0.3540 -0.1592
11872TIP3    H135549   2.340   6.029   5.400 -2.2669 -0.0511  0.0287
11872TIP3    H235550   2.275   6.114   5.507 -0.0102  0.2676  1.1647
11873TIP3   OH235551   6.904   2.206   2.584  0.7694  0.1257 -0.2072
11873TIP3    H135552   6.974   2.235   2.643  0.8023 -0.4510  0.0446
11873TIP3    H235553   6.930   2.237   2.498  1.1862  0.1775 -0.0648
11874TIP3   OH235554   1.533   7.288   4.510 -0.1733  0.0360  0.3465
11874TIP3    H135555   1.438   7.279   4.503 -0.1901 -1.2596  1.8444
11874TIP3    H235556   1.564   7.288   4.420 -1.5271 -0.3573 -0.1371
11875TIP3   OH235557   4.679   7.544   4.397 -0.4493 -0.2486  0.3392
11875TIP3    H135558   4.627   7.575   4.471  0.3893 -1.2320  1.3604
11875TIP3    H235559   4.763   7.588   4.406 -0.2937 -0.4838  0.0628
11876TIP3   OH235560   6.027   5.723   5.804 -0.1248  0.0530 -0.3140
11876TIP3    H135561   5.940   5.721   5.766 -0.9693 -2.3235  1.5648
11876TIP3    H235562   6.020   5.783   5.878  0.2644  1.0580 -1.0827
11877TIP3   OH235563   4.268   3.190   1.245  0.0041  0.1498  0.4463
11877TIP3    H135564   4.335   3.257   1.255  1.8398 -1.6092  0.2370
11877TIP3    H235565   4.215   3.219   1.171  0.3148  1.7243  0.8194
11878TIP3   OH235566   7.255   2.284   0.715 -0.3519 -0.1078  0.4555
11878TIP3    H135567   7.337   2.319   0.682 -0.0337  0.0754  1.4191
11878TIP3    H235568   7.197   2.280   0.638  0.8783 -1.2208 -0.4323
11879TIP3   OH235569   0.527   4.437   2.377 -0.0847  0.5275 -0.0164
11879TIP3    H135570   0.456   4.372   2.373  2.0358 -1.7828 -1.5621
11879TIP3    H235571   0.601   4.389   2.415  1.4406  2.1393 -0.8967
11880TIP3   OH235572   0.116   5.100   4.152  0.1790 -0.3628  0.3310
11880TIP3    H135573   0.034   5.120   4.107  0.2540 -2.4026 -0.7726
11880TIP3    H235574   0.090   5.057   4.233  0.1409 -0.4077  0.2950
11881TIP3   OH235575   7.996   6.007   6.874 -0.6464  0.0118  0.3027
11881TIP3    H135576   8.028   5.917   6.870  0.5170  0.4217  0.1656
11881TIP3    H235577   7.976   6.029   6.783  0.7115  0.4602  0.0985
11882TIP3   OH235578   7.768   5.044   2.849  0.2501 -0.0873  0.2151
11882TIP3    H135579   7.684   5.036   2.805  0.1048 -0.7696  0.6026
11882TIP3    H235580   7.831   5.010   2.786  0.1366 -0.3321  0.2316
11883TIP3   OH235581   0.152   5.668   6.594 -0.0133 -0.1429 -0.4080
11883TIP3    H135582   0.075   5.616   6.570  1.4109 -1.3949 -2.4220
11883TIP3    H235583   0.168   5.724   6.519 -0.3957  1.8968  1.0032
11884TIP3   OH235584   0.798   3.293   4.049  0.2988 -0.1428 -0.0797
11884TIP3    H135585   0.810   3.206   4.011  1.2792 -0.7045  1.4675
11884TIP3    H235586   0.731   3.280   4.117  1.6925 -0.0657  1.3309
11885TIP3   OH235587   8.025   5.339   6.026  0.1095  0.4501 -0.1739
11885TIP3    H135588   7.947   5.384   6.058 -0.6018 -1.0245  0.1903
11885TIP3    H235589   8.063   5.298   6.104  0.8393  0.5539 -0.4734
11886TIP3   OH235590   1.155   5.878   4.820 -0.0629 -0.2927 -0.1217
11886TIP3    H135591   1.086   5.933   4.783  1.7094  1.3670 -1.0226
11886TIP3    H235592   1.122   5.853   4.906 -1.1054  1.8199  0.1235
11887TIP3   OH235593   7.987   4.107   3.827  0.4937  0.1164 -0.0449
11887TIP3    H135594   8.005   4.143   3.740  1.1625 -0.6127 -0.2082
11887TIP3    H235595   8.059   4.046   3.844  0.4070  0.3060  1.0500
11888TIP3   OH235596   7.291   4.863   4.301 -0.1697 -0.1258  0.3905
11888TIP3    H135597   7.351   4.937   4.305  0.3839 -0.6325  1.6232
11888TIP3    H235598   7.265   4.858   4.209 -1.6470  2.7402  0.6129
11889TIP3   OH235599   7.024   4.260   4.499  0.1710 -0.0474 -0.6800
11889TIP3    H135600   7.096   4.300   4.450  0.6598 -1.4626 -1.1548
11889TIP3    H235601   7.049   4.168   4.507 -0.2353  0.0265  1.6479
11890TIP3   OH235602   1.958   6.034   3.949 -0.3289  0.1347 -0.2564
11890TIP3    H135603   1.926   6.062   4.035 -0.2930  0.5051 -0.3636
11890TIP3    H235604   2.051   6.058   3.950 -0.1385 -0.5966 -0.0879
11891TIP3   OH235605   8.257   5.797   5.673  0.0258 -0.2682 -0.7887
11891TIP3    H135606   8.337   5.846   5.692 -0.9450  1.0237  0.0742
11891TIP3    H235607   8.267   5.715   5.720  0.9554 -0.2269 -0.9064
11892TIP3   OH235608   5.365   0.508   0.372  0.3535  0.3377 -0.0009
11892TIP3    H135609   5.380   0.417   0.399  0.9553  0.9754  1.8290
11892TIP3    H235610   5.326   0.500   0.285 -1.2649 -1.7401  0.8603
11893TIP3   OH235611   8.026   4.550   5.504 -0.3833 -0.6589 -0.3484
11893TIP3    H135612   8.105   4.563   5.556 -0.8154  1.7411 -0.2610
11893TIP3    H235613   8.057   4.519   5.419  0.5945 -0.4445 -0.0698
11894TIP3   OH235614   0.344   5.080   6.187  0.6674 -0.4152 -0.4122
11894TIP3    H135615   0.349   4.997   6.139  1.4277 -0.6542  0.0759
11894TIP3    H235616   0.360   5.147   6.120 -0.8124 -0.6008 -0.9773
11895TIP3   OH235617   0.586   6.621   5.853  0.1104  0.0616 -0.7923
11895TIP3    H135618   0.584   6.688   5.785  0.7806 -0.1892 -1.0639
11895TIP3    H235619   0.648   6.654   5.918  0.6976 -0.4401 -1.0892
11896TIP3   OH235620   4.663   1.758   0.062  0.5292  0.5584  0.2960
11896TIP3    H135621   4.632   1.814  -0.009 -0.3357  0.6588  0.7587
11896TIP3    H235622   4.743   1.802   0.093  0.6361  0.7804 -0.2796
11897TIP3   OH235623   6.338   1.451   0.134 -0.2159 -0.2660 -0.0815
11897TIP3    H135624   6.421   1.483   0.098 -0.0204 -0.7683 -0.0855
11897TIP3    H235625   6.271   1.506   0.094  0.0097 -0.7174 -1.1020
11898TIP3   OH235626   8.388   5.016   6.695  0.0292 -0.1458 -0.1299
11898TIP3    H135627   8.427   5.084   6.749  0.2885  0.2079 -0.7758
11898TIP3    H235628   8.430   4.935   6.725  0.4342  0.0934 -0.0572
11899TIP3   OH235629   2.862   7.642   1.418  0.1317  0.6382 -0.1683
11899TIP3    H135630   2.913   7.666   1.495  1.9399  0.1507 -1.1840
11899TIP3    H235631   2.845   7.548   1.429  2.8131 -0.0839 -1.6756
11900TIP3   OH235632   8.450   4.668   6.439  0.1285 -0.3956 -0.2357
11900TIP3    H135633   8.389   4.739   6.417  0.4277  0.2069  0.8430
11900TIP3    H235634   8.467   4.680   6.532  1.2222 -1.0880 -0.3451
11901TIP3   OH235635   0.468   5.369   5.507  0.4401 -0.3568  0.3128
11901TIP3    H135636   0.529   5.443   5.510  1.7430 -1.3791 -0.3566
11901TIP3    H235637   0.431   5.373   5.419  0.7278 -0.6551  0.1741
11902TIP3   OH235638   0.652   6.032   5.244 -0.4296  0.7525 -0.7939
11902TIP3    H135639   0.702   5.997   5.171 -0.4563  0.6813 -0.7780
11902TIP3    H235640   0.561   6.008   5.225 -0.5400  1.4603 -1.1559
11903TIP3   OH235641   7.090   4.739   5.474 -0.1452 -0.1101  0.1034
11903TIP3    H135642   7.011   4.764   5.427  0.5787  0.5813 -0.7694
11903TIP3    H235643   7.086   4.644   5.480  0.8982 -0.4511 -3.4816
11904TIP3   OH235644   7.667   7.889   3.852  0.2033  0.1311  0.0463
11904TIP3    H135645   7.577   7.866   3.832  0.2096 -0.1018  0.2888
11904TIP3    H235646   7.675   7.980   3.824 -0.4730  0.5609  1.2072
11905TIP3   OH235647   5.452   5.464   5.118  0.3654 -0.5658  0.3081
11905TIP3    H135648   5.452   5.374   5.151  1.7558 -0.1437  1.5215
11905TIP3    H235649   5.365   5.475   5.079 -0.4237 -1.9206  1.6071
11906TIP3   OH235650   1.961   5.110   6.517  0.2947 -0.5923 -0.3277
11906TIP3    H135651   1.908   5.034   6.544  1.7041 -1.7108 -0.6290
11906TIP3    H235652   1.960   5.106   6.421 -1.8115  1.3409 -0.4221
11907TIP3   OH235653   6.147   2.436   0.324 -0.2691  0.2129 -0.0015
11907TIP3    H135654   6.195   2.501   0.377 -0.2529  1.0326 -0.9963
11907TIP3    H235655   6.208   2.413   0.254 -0.0090 -1.4332  0.7642
11908TIP3   OH235656   1.355   0.098   4.232  1.0794  0.1345 -0.3166
11908TIP3    H135657   1.433   0.070   4.279  0.9935  1.1145  0.4357
11908TIP3    H235658   1.297   0.022   4.233  1.7568 -0.3776 -0.2846
11909TIP3   OH235659   0.038   4.809   3.357  0.0139 -0.2534  0.9188
11909TIP3    H135660  -0.052   4.804   3.325  0.3146 -1.9023  0.2828
11909TIP3    H235661   0.086   4.854   3.288  0.1883 -1.7295  0.0502
11910TIP3   OH235662   6.173   4.215   4.221  0.2931 -0.7268  0.0674
11910TIP3    H135663   6.257   4.189   4.259  0.4805  0.4792  0.4881
11910TIP3    H235664   6.146   4.139   4.168  1.5958 -1.1497 -0.0005
11911TIP3   OH235665   6.095   3.091   6.781  0.3501  0.5278 -0.0344
11911TIP3    H135666   6.038   3.156   6.741  0.8984  0.5503 -0.7862
11911TIP3    H235667   6.136   3.045   6.707  1.4105  0.6115  0.4818
11912TIP3   OH235668   8.163   6.009   3.530 -0.6494  0.0773  0.2394
11912TIP3    H135669   8.133   5.919   3.540 -0.5750  0.0683  0.3772
11912TIP3    H235670   8.146   6.049   3.616 -2.3481  0.6764 -0.3479
11913TIP3   OH235671   8.181   4.093   2.134 -0.1905 -0.3789  0.3292
11913TIP3    H135672   8.264   4.053   2.159 -0.0261  0.1931  0.7119
11913TIP3    H235673   8.203   4.185   2.117 -0.3087 -0.7374 -1.8553
11914TIP3   OH235674   6.867   6.426   6.626  0.6155  0.2417 -0.2009
11914TIP3    H135675   6.773   6.430   6.645  0.4327 -1.7192 -0.5673
11914TIP3    H235676   6.909   6.456   6.707 -0.3118 -0.6955  0.6467
11915TIP3   OH235677   6.024   5.564   6.037  0.4620 -0.1486 -0.1334
11915TIP3    H135678   6.074   5.624   6.093 -0.3430  1.0458 -0.6707
11915TIP3    H235679   6.052   5.586   5.948  0.8440 -1.2167 -0.2878
11916TIP3   OH235680   6.990   6.451   5.119 -0.0301 -0.3429 -0.5940
11916TIP3    H135681   7.080   6.446   5.085  0.6885  1.4627  0.9493
11916TIP3    H235682   6.959   6.537   5.092 -0.3791  0.0606  1.0459
11917TIP3   OH235683   7.254   5.774   6.708  0.4425 -0.2075  0.3160
11917TIP3    H135684   7.268   5.865   6.732 -1.6213  0.8037 -2.0438
11917TIP3    H235685   7.263   5.725   6.790  1.0624  2.1443  1.6937
11918TIP3   OH235686   7.476   6.426   3.295  0.2535 -0.4267 -0.0296
11918TIP3    H135687   7.435   6.341   3.310  0.5682 -0.5766 -0.0151
11918TIP3    H235688   7.447   6.451   3.207 -1.7346  0.5334  0.8572
11919TIP3   OH235689   8.182   4.940   1.703  0.1677  0.1396  0.1955
11919TIP3    H135690   8.168   4.851   1.733  0.3625 -0.8094 -2.3860
11919TIP3    H235691   8.102   4.986   1.726 -0.2688 -0.9101  0.8060
11920TIP3   OH235692   8.506   5.559   3.037  0.0236 -0.3048 -0.8426
11920TIP3    H135693   8.553   5.635   3.003 -0.5246  0.2658 -0.3416
11920TIP3    H235694   8.434   5.596   3.089 -1.0325 -1.1540 -1.6658
11921TIP3   OH235695   4.894   3.238   1.031  0.3998 -0.0035 -0.8432
11921TIP3    H135696   4.947   3.206   0.958  2.7355 -0.0161  0.7945
11921TIP3    H235697   4.928   3.192   1.108 -1.2537  0.8495  0.4428
11922TIP3   OH235698   8.197   5.697   2.957  0.2761  0.3964  0.2222
11922TIP3    H135699   8.281   5.735   2.984  0.0671 -0.2069  1.7979
11922TIP3    H235700   8.137   5.771   2.953 -0.2360  0.2691  3.6715
11923TIP3   OH235701   8.475   5.957   4.302 -0.5681  0.0916 -0.2249
11923TIP3    H135702   8.387   5.993   4.298 -0.3395  1.0914  2.3338
11923TIP3    H235703   8.521   6.014   4.364  1.4601 -1.2205 -0.4813
11924TIP3   OH235704   0.012   5.430   5.294 -0.1206  0.0523 -0.4809
11924TIP3    H135705   0.035   5.461   5.381  0.2413 -0.9907 -0.1949
11924TIP3    H235706   0.057   5.489   5.234 -0.9526  1.2090  0.0240
11925TIP3   OH235707   6.953   4.141   3.482 -0.1222 -0.0315  0.3402
11925TIP3    H135708   6.892   4.068   3.479 -0.1136 -0.1031  1.6145
11925TIP3    H235709   6.901   4.215   3.513  0.2073  0.1337  0.5050
11926TIP3   OH235710   1.255   4.662   3.231  0.3989 -0.6794 -0.5131
11926TIP3    H135711   1.218   4.691   3.315  0.0272 -3.0379  0.1875
11926TIP3    H235712   1.341   4.703   3.228 -0.6796  1.7278 -0.3273
11927TIP3   OH235713   0.364   5.346   5.255 -0.7888 -0.9749  0.5211
11927TIP3    H135714   0.376   5.434   5.220  3.0589 -2.0957 -1.2306
11927TIP3    H235715   0.290   5.310   5.206 -1.3591  0.6891  0.1221
11928TIP3   OH235716   7.005   4.991   4.194 -0.1244 -0.7794 -0.0748
11928TIP3    H135717   7.009   4.997   4.289  1.8455  0.1289 -0.1878
11928TIP3    H235718   7.062   4.917   4.172 -1.4499 -1.6925 -0.4923
11929TIP3   OH235719   0.076   6.104   1.879  0.7119  0.2558 -0.1901
11929TIP3    H135720   0.103   6.102   1.971  2.3148  0.0651 -0.6483
11929TIP3    H235721   0.088   6.196   1.854 -0.6507  0.5047  0.0504
11930TIP3   OH235722   7.769   5.306   3.409 -0.4298 -0.0496  0.5974
11930TIP3    H135723   7.864   5.303   3.396 -0.7906  1.7718 -3.3597
11930TIP3    H235724   7.753   5.390   3.451 -0.3847  0.3267 -0.1245
11931TIP3   OH235725   7.953   4.942   4.716  0.3162 -0.1121 -0.1392
11931TIP3    H135726   7.941   4.859   4.671 -0.0823 -0.4861  0.6621
11931TIP3    H235727   7.872   4.956   4.764 -0.2457  1.4921 -1.4772
11932TIP3   OH235728   8.446   3.567   2.902 -0.4877 -0.2636  0.4327
11932TIP3    H135729   8.416   3.565   2.993 -0.0254 -1.3961  0.5740
11932TIP3    H235730   8.404   3.644   2.864  0.8035  1.3335  2.1122
11933TIP3   OH235731   0.142   6.100   0.856 -0.1453  0.0172 -0.4091
11933TIP3    H135732   0.220   6.137   0.815 -0.2594  1.7611  0.9167
11933TIP3    H235733   0.161   6.102   0.950 -2.3560  1.8154  0.0394
11934TIP3   OH235734   7.051   5.659   4.463 -0.0149 -0.0255  0.1401
11934TIP3    H135735   7.055   5.640   4.557  2.4571  0.0933  0.0766
11934TIP3    H235736   7.072   5.575   4.422  0.3154  0.2630 -0.2799
11935TIP3   OH235737   7.732   6.450   3.136  0.2770 -0.3215 -0.0374
11935TIP3    H135738   7.698   6.380   3.192  1.7305 -1.6544 -0.7926
11935TIP3    H235739   7.727   6.415   3.048  1.4632  0.3615 -0.3779
11936TIP3   OH235740   0.417   5.332   2.412 -0.6049 -0.3775 -0.0725
11936TIP3    H135741   0.431   5.306   2.321  2.8028  3.0304 -0.6505
11936TIP3    H235742   0.483   5.284   2.461 -0.0050  0.6082  0.0795
11937TIP3   OH235743   1.866   4.321   5.975  0.1001  0.1127  0.2899
11937TIP3    H135744   1.959   4.312   5.953 -0.0652 -0.5483 -0.1407
11937TIP3    H235745   1.867   4.349   6.067  0.7041 -1.3047  0.7353
11938TIP3   OH235746   2.296   3.964   6.599  0.0839  0.0181 -0.2005
11938TIP3    H135747   2.306   4.015   6.518 -0.5371 -0.5205 -0.6217
11938TIP3    H235748   2.290   3.873   6.569  1.3925 -0.3357  0.5595
11939TIP3   OH235749   3.376   6.723   6.318 -0.5103 -0.3791 -0.2254
11939TIP3    H135750   3.347   6.640   6.280 -1.5989  0.2784 -0.8423
11939TIP3    H235751   3.421   6.768   6.247 -0.4772 -0.1646 -0.0680
11940TIP3   OH235752   1.744   7.720   6.686 -0.1547  0.2576  0.8426
11940TIP3    H135753   1.808   7.776   6.643  1.0984 -1.5204  0.3741
11940TIP3    H235754   1.676   7.706   6.620  1.1131 -1.3884 -0.1371
11941TIP3   OH235755   3.173   7.604   5.380  0.3393  0.9219  0.2103
11941TIP3    H135756   3.187   7.587   5.287  0.6080  1.0800  0.2206
11941TIP3    H235757   3.243   7.666   5.403  0.6540  0.3927  0.6671
11942TIP3   OH235758   7.491   0.253   1.250 -0.2585 -0.3334 -0.7898
11942TIP3    H135759   7.544   0.199   1.308 -1.6972 -0.9320 -0.0147
11942TIP3    H235760   7.524   0.342   1.263 -1.1809 -0.3324  1.6236
11943TIP3   OH235761   0.597   5.586   5.163  0.0434 -0.4002 -0.2016
11943TIP3    H135762   0.619   5.593   5.256 -1.1165  0.4873  0.0115
11943TIP3    H235763   0.617   5.495   5.140 -2.2304 -1.4081  1.6106
11944TIP3   OH235764   1.966   5.060   6.805  0.0718 -0.7772  0.2587
11944TIP3    H135765   2.002   5.032   6.721  0.3735 -0.0731  0.1492
11944TIP3    H235766   1.954   5.155   6.795 -2.3834 -1.0817  0.0814
11945TIP3   OH235767   1.949   5.524   6.578 -0.5633  0.2343 -0.1199
11945TIP3    H135768   1.872   5.538   6.523 -1.4797  0.2624  1.1563
11945TIP3    H235769   1.956   5.604   6.630 -0.6177 -0.4250  0.9129
11946TIP3   OH235770   6.868   4.277   0.291 -0.0446  0.0863  0.2274
11946TIP3    H135771   6.871   4.348   0.227 -0.3493  0.7108  0.9022
11946TIP3    H235772   6.949   4.228   0.276  0.6812  1.1951  0.4599
11947TIP3   OH235773   7.536   0.587   1.855  0.1534  0.6112 -0.1255
11947TIP3    H135774   7.462   0.594   1.795  0.3232  2.7948 -0.1205
11947TIP3    H235775   7.611   0.565   1.800  0.1264  1.6474 -0.5666
11948TIP3   OH235776   6.858   1.214   0.406  0.4094  0.0229 -0.1150
11948TIP3    H135777   6.934   1.270   0.423 -0.1456  0.5179  0.8002
11948TIP3    H235778   6.791   1.246   0.467 -0.4968 -0.4735 -0.8410
11949TIP3   OH235779   7.166   2.516   2.349  0.0189  0.5050  0.3778
11949TIP3    H135780   7.137   2.569   2.276 -3.0413  1.2422  2.0574
11949TIP3    H235781   7.227   2.572   2.397  0.8557  0.5568 -0.7168
11950TIP3   OH235782   3.425   3.883   6.549 -0.1250  0.1141 -0.0645
11950TIP3    H135783   3.447   3.856   6.638  0.9846 -1.0252 -0.6668
11950TIP3    H235784   3.493   3.842   6.494 -0.9525  0.5738 -1.4547
11951TIP3   OH235785   3.757   5.365   6.841  0.3356  0.0526 -0.3233
11951TIP3    H135786   3.789   5.425   6.909  1.5086 -1.0372  0.1136
11951TIP3    H235787   3.836   5.331   6.800 -0.3342 -0.5669 -1.1228
11952TIP3   OH235788   7.965   2.790   0.407  0.2003  0.4206 -0.0859
11952TIP3    H135789   7.957   2.886   0.414 -1.4702  0.2085  1.0352
11952TIP3    H235790   8.049   2.770   0.449  0.7246  1.4089 -0.6208
11953TIP3   OH235791   0.098   2.131   0.355 -0.2653 -0.2904  0.4096
11953TIP3    H135792   0.077   2.214   0.314  2.4251  0.6422  0.8119
11953TIP3    H235793   0.055   2.065   0.301  1.3569  1.0517 -2.5766
11954TIP3   OH235794   7.552   0.255   2.217  0.2416  0.2939 -0.1839
11954TIP3    H135795   7.608   0.279   2.292  0.7147 -2.5069  0.4221
11954TIP3    H235796   7.479   0.317   2.221 -0.1599 -0.2973  3.0990
11955TIP3   OH235797   0.256   5.500   6.010  0.1203  0.3174  0.5568
11955TIP3    H135798   0.209   5.542   6.082 -0.2743 -1.1320  1.1560
11955TIP3    H235799   0.307   5.570   5.970  0.4689  1.0964  2.3609
11956TIP3   OH235800   7.753   0.974   0.894 -0.0020  0.1559  0.2828
11956TIP3    H135801   7.736   0.978   0.799 -0.5411  1.2031  0.4181
11956TIP3    H235802   7.687   0.914   0.927  0.0278 -0.0172  0.0348
11957TIP3   OH235803   2.297   7.628   6.275  0.5399 -0.8465 -0.5208
11957TIP3    H135804   2.230   7.589   6.331  1.1846  0.4832  1.1908
11957TIP3    H235805   2.253   7.641   6.190 -1.6576  0.8938  0.8418
11958TIP3   OH235806   0.496   5.964   5.999 -0.3384  0.4796  0.1628
11958TIP3    H135807   0.522   5.992   5.912  0.4313  1.9083  0.8432
11958TIP3    H235808   0.578   5.955   6.048 -0.7158 -0.8843  0.5916
11959TIP3   OH235809   4.179   6.793   6.433 -0.0842 -0.3875 -0.1455
11959TIP3    H135810   4.220   6.756   6.355  1.2166  0.2429  0.2240
11959TIP3    H235811   4.168   6.886   6.413  0.4305 -0.1886  0.4906
11960TIP3   OH235812   0.717   2.530   0.793  0.5182 -0.2347 -0.7512
11960TIP3    H135813   0.799   2.579   0.784  0.6610 -0.0835  1.1734
11960TIP3    H235814   0.727   2.455   0.734  2.0679 -0.2499 -0.4884
11961TIP3   OH235815   1.174   7.763   3.957 -0.3627 -0.1738 -0.5732
11961TIP3    H135816   1.260   7.766   3.999 -0.7409 -0.2822  0.2198
11961TIP3    H235817   1.116   7.727   4.024 -1.6738  2.9153  0.0725
11962TIP3   OH235818   0.480   5.792   5.461  0.9518  0.4534 -0.0292
11962TIP3    H135819   0.395   5.783   5.417 -0.0729 -0.0749  1.9845
11962TIP3    H235820   0.485   5.885   5.483  0.1523  0.1977  1.2661
11963TIP3   OH235821   1.852   7.368   6.667  0.1678 -0.2963  0.5156
11963TIP3    H135822   1.814   7.298   6.614  1.9939 -1.9245  1.2642
11963TIP3    H235823   1.852   7.445   6.610 -1.6875 -0.9618 -0.3937
11964TIP3   OH235824   3.909   0.371   5.153 -0.1172 -0.1142  0.4747
11964TIP3    H135825   3.900   0.391   5.060  0.0770  0.4011  0.5631
11964TIP3    H235826   4.003   0.359   5.166 -0.1079  0.1842  0.6788
11965TIP3   OH235827   1.362   6.422   5.133  0.1928  0.5476 -0.2096
11965TIP3    H135828   1.324   6.429   5.220  0.3675  1.2424 -0.1792
11965TIP3    H235829   1.289   6.397   5.076 -0.4790  2.5439 -0.2640
11966TIP3   OH235830   1.289   5.904   6.346 -0.0129  0.0745  0.5529
11966TIP3    H135831   1.299   5.958   6.424 -1.6013 -0.5182  1.2036
11966TIP3    H235832   1.265   5.817   6.381  0.2615 -0.4498 -0.5550
11967TIP3   OH235833   5.921   2.939   1.263  0.0453  0.0964  0.3140
11967TIP3    H135834   5.973   2.977   1.334  1.6083  0.5826 -1.0612
11967TIP3    H235835   5.830   2.952   1.290  0.5705  3.0978  0.7453
11968TIP3   OH235836   2.542   6.879   6.793  0.0404  0.3439 -0.3590
11968TIP3    H135837   2.604   6.808   6.776  0.3550  0.1989  1.3055
11968TIP3    H235838   2.512   6.864   6.882  1.2555  3.1454  0.5864
11969TIP3   OH235839   0.866   5.693   5.570 -0.3049  0.0774  0.6679
11969TIP3    H135840   0.907   5.610   5.544  0.4568  0.7769 -0.3944
11969TIP3    H235841   0.890   5.703   5.662  0.1342 -0.5725  0.6320
11970TIP3   OH235842   6.942   1.536   0.284  0.3399  0.1510  0.6187
11970TIP3    H135843   7.000   1.470   0.321  0.4752  1.1740  2.2919
11970TIP3    H235844   7.000   1.609   0.261  0.4539 -0.9720 -2.9371
11971TIP3   OH235845   1.339   7.516   5.829  0.2872  0.4664  0.6434
11971TIP3    H135846   1.324   7.424   5.850  1.6107  0.0249 -0.2787
11971TIP3    H235847   1.288   7.531   5.749  1.1772  0.1602  0.0158
11972TIP3   OH235848   7.739   1.854   0.315  0.1351  0.0826 -0.5403
11972TIP3    H135849   7.653   1.853   0.357 -0.3036 -1.0014 -1.4440
11972TIP3    H235850   7.801   1.845   0.387 -0.6141 -1.8978 -0.1168
11973TIP3   OH235851   8.049   1.201   1.276  0.5668 -0.4036 -0.1929
11973TIP3    H135852   8.005   1.161   1.201  0.0671 -1.6098  0.7315
11973TIP3    H235853   7.990   1.186   1.349  1.8721 -0.7992  0.7932
11974TIP3   OH235854   8.320   6.018   6.399  0.0764  0.2011  0.5999
11974TIP3    H135855   8.379   6.028   6.324  0.3517  1.5353  0.9790
11974TIP3    H235856   8.377   6.026   6.475 -0.2006 -1.1945  0.9528
11975TIP3   OH235857   2.124   6.380   6.445  0.2856  0.3343  0.2649
11975TIP3    H135858   2.109   6.413   6.534 -0.3354  0.8048 -0.0156
11975TIP3    H235859   2.036   6.367   6.409  0.5346  2.1969 -1.0523
11976TIP3   OH235860   1.917   7.595   2.551 -0.4320  0.3564  0.3345
11976TIP3    H135861   1.845   7.644   2.591 -1.9821 -1.4194 -0.2565
11976TIP3    H235862   1.915   7.622   2.459  1.0654  1.9541  0.7440
11977TIP3   OH235863   0.741   7.233   4.738  0.0962 -0.4341 -0.1533
11977TIP3    H135864   0.746   7.328   4.724  0.8148 -0.7422 -2.1425
11977TIP3    H235865   0.830   7.208   4.763 -0.2658 -0.4878  1.1086
11978TIP3   OH235866   6.478   1.887   0.070 -0.4146  0.4914  0.4544
11978TIP3    H135867   6.573   1.894   0.072 -0.5349  2.2227  2.2771
11978TIP3    H235868   6.452   1.920  -0.016  0.5340  1.7270  0.6305
11979TIP3   OH235869   6.996   5.640   5.928  0.2598  0.0456 -0.2165
11979TIP3    H135870   6.933   5.671   5.993  2.3503  0.7463  1.5249
11979TIP3    H235871   7.041   5.719   5.899  2.0045 -0.7079  0.3747
11980TIP3   OH235872   1.351   7.196   6.299  0.3624  0.3232 -0.1486
11980TIP3    H135873   1.316   7.266   6.244  0.0027 -0.4947 -0.9861
11980TIP3    H235874   1.284   7.182   6.366  1.1504  1.8537  0.9879
11981TIP3   OH235875   1.588   6.360   6.476 -0.3156 -0.5666  0.0402
11981TIP3    H135876   1.555   6.284   6.523 -2.2218  0.3189  0.1809
11981TIP3    H235877   1.534   6.365   6.397  0.4185  0.0810 -0.4272
11982TIP3   OH235878   1.331   6.538   5.644  0.0266  0.0808  0.2357
11982TIP3    H135879   1.274   6.608   5.675  0.0595  2.2408 -4.1597
11982TIP3    H235880   1.418   6.578   5.638 -0.1249  0.0917 -3.1973
11983TIP3   OH235881   8.367   6.199   3.959 -0.0318 -0.1909  0.0057
11983TIP3    H135882   8.405   6.138   3.895 -0.1701 -0.4987  0.2144
11983TIP3    H235883   8.305   6.251   3.908  1.2720  0.8820 -0.5139
11984TIP3   OH235884   8.382   6.065   6.822  0.1536 -0.0279  0.4196
11984TIP3    H135885   8.368   5.970   6.820 -1.7462  0.2580 -1.6870
11984TIP3    H235886   8.330   6.095   6.896 -0.4126 -0.4631  0.2040
11985TIP3   OH235887   8.157   3.452   1.271 -0.0044  0.6662 -0.1052
11985TIP3    H135888   8.174   3.501   1.191 -0.3667  1.3382  0.2241
11985TIP3    H235889   8.239   3.406   1.289  0.1270  0.6305 -0.7749
11986TIP3   OH235890   0.843   5.585   6.230 -0.0720 -0.2741  0.1396
11986TIP3    H135891   0.925   5.628   6.207  0.5095 -2.0651 -1.2490
11986TIP3    H235892   0.847   5.573   6.325  0.9575  0.2747  0.1626
11987TIP3   OH235893   4.385   0.197   5.578  0.1293 -0.7014 -0.3753
11987TIP3    H135894   4.340   0.153   5.651  0.2481  1.8435  1.2873
11987TIP3    H235895   4.322   0.192   5.506 -1.4581 -0.1989  0.9270
11988TIP3   OH235896   2.873   6.805   6.683 -0.5576  0.4326  0.7340
11988TIP3    H135897   2.853   6.896   6.703 -0.4730  1.7009 -4.2895
11988TIP3    H235898   2.951   6.808   6.628 -0.3088 -2.6755  0.8020
11989TIP3   OH235899   1.403   5.046   5.014  0.4969  0.6999  0.4296
11989TIP3    H135900   1.465   5.043   4.942  0.6993  0.8877  0.5929
11989TIP3    H235901   1.430   5.123   5.065  0.2091  0.7081  0.5703
11990TIP3   OH235902   1.605   7.108   6.301 -0.5271 -0.1046  0.3501
11990TIP3    H135903   1.670   7.167   6.263 -1.4946  0.2394 -0.8099
11990TIP3    H235904   1.521   7.151   6.283 -1.1213 -0.9229  1.1365
11991TIP3   OH235905   2.478   4.967   5.004 -0.4143 -0.8538  0.0989
11991TIP3    H135906   2.421   4.964   5.081 -1.3345  0.6716 -0.5023
11991TIP3    H235907   2.547   4.904   5.023 -0.9444 -0.9050  1.9256
11992TIP3   OH235908   0.399   5.045   5.069 -0.0714  0.7397  0.2652
11992TIP3    H135909   0.338   5.089   5.130  0.0887  2.2494 -0.6342
11992TIP3    H235910   0.485   5.083   5.091  0.0458  0.9889 -0.6193
11993TIP3   OH235911   0.791   6.722   6.035 -0.1772 -0.4171  0.0689
11993TIP3    H135912   0.855   6.792   6.048  1.3932 -1.6044 -0.9459
11993TIP3    H235913   0.816   6.655   6.098 -0.2914 -0.9590 -0.4520
11994TIP3   OH235914   3.162   7.263   4.456  0.4210  0.4071  0.3148
11994TIP3    H135915   3.235   7.322   4.440  0.4113  0.5366  0.7641
11994TIP3    H235916   3.109   7.307   4.522  1.0946 -0.6981  1.5997
11995TIP3   OH235917   6.177   3.705   0.402  0.5533  0.1241 -0.1938
11995TIP3    H135918   6.250   3.710   0.340  0.3487  2.2423 -0.2851
11995TIP3    H235919   6.118   3.640   0.363  0.2409  1.6926 -2.4606
11996TIP3   OH235920   8.328   5.166   5.718 -0.5286  0.0081 -0.3212
11996TIP3    H135921   8.245   5.208   5.696 -0.6296 -0.4949 -0.9268
11996TIP3    H235922   8.381   5.235   5.758 -1.2260  0.3366  0.0308
11997TIP3   OH235923   2.017   6.904   5.448  0.0181  0.0437  0.2294
11997TIP3    H135924   1.932   6.946   5.442  0.8187  1.8868  1.4643
11997TIP3    H235925   2.029   6.861   5.363 -0.7964  2.3603 -1.0793
11998TIP3   OH235926   3.013   7.173   2.218 -0.0301  0.5000  0.1190
11998TIP3    H135927   3.090   7.210   2.261  0.2244  1.7180 -1.3350
11998TIP3    H235928   2.983   7.103   2.277  1.2183  1.0927  1.4797
11999TIP3   OH235929   5.315   1.377   0.591  0.6426  0.5114 -0.4034
11999TIP3    H135930   5.358   1.444   0.644 -0.2720  0.9011 -0.1325
11999TIP3    H235931   5.352   1.389   0.503  0.5538  1.3208 -0.3390
12000TIP3   OH235932   6.520   7.837   0.352 -0.3113  0.6693 -0.5064
12000TIP3    H135933   6.457   7.878   0.412  0.0551 -0.8332  0.9595
12000TIP3    H235934   6.606   7.862   0.386 -0.0979  0.0988 -0.6231
12001TIP3   OH235935   2.643   1.450   0.356  0.8345  0.5370  0.5781
12001TIP3    H135936   2.672   1.480   0.442  2.2880 -0.4421  0.4604
12001TIP3    H235937   2.597   1.368   0.374  1.0519  0.3837  0.4314
12002TIP3   OH235938   2.414   2.864   6.386 -0.1172  0.1790  0.8192
12002TIP3    H135939   2.496   2.898   6.422 -0.7463  0.8525  1.6365
12002TIP3    H235940   2.347   2.926   6.415 -0.7903  0.1509 -0.6414
12003TIP3   OH235941   3.550   6.131   5.575 -0.1843 -0.2905  0.5716
12003TIP3    H135942   3.614   6.202   5.568 -0.3559 -0.2266 -0.2983
12003TIP3    H235943   3.566   6.075   5.499  1.9081 -2.8152  2.7377
12004TIP3   OH235944   7.002   3.449   0.480 -0.4845 -0.0874  0.2128
12004TIP3    H135945   7.049   3.436   0.398 -0.8850  0.3538 -0.0882
12004TIP3    H235946   6.929   3.507   0.457 -0.0948  0.7539  1.0443
12005TIP3   OH235947   1.676   6.176   5.249 -0.2055  0.3622 -0.0455
12005TIP3    H135948   1.662   6.107   5.314  1.2761 -1.9113 -2.0141
12005TIP3    H235949   1.606   6.163   5.185  0.8579 -0.2130 -1.1168
12006TIP3   OH235950   7.066   2.929   0.408  0.7986  0.8514 -0.0913
12006TIP3    H135951   7.036   3.014   0.438 -0.5055  0.1998  0.5071
12006TIP3    H235952   7.111   2.891   0.484 -1.3323 -0.2485  0.6538
12007TIP3   OH235953   5.041   0.847   1.983 -0.1884  0.4614 -0.0318
12007TIP3    H135954   5.036   0.876   1.892  1.4665 -0.9503 -0.6008
12007TIP3    H235955   4.975   0.778   1.990 -1.1229  1.3638  0.1643
12008TIP3   OH235956   5.903   5.808   6.596  0.5528 -0.1427 -0.2225
12008TIP3    H135957   5.986   5.835   6.558 -0.3590  2.0506 -0.7672
12008TIP3    H235958   5.841   5.876   6.568 -0.4106  0.9866  4.2523
12009TIP3   OH235959   7.357   2.970  -0.018 -0.6374 -0.2801 -0.0414
12009TIP3    H135960   7.315   2.892   0.018  0.3831 -0.9117 -0.1984
12009TIP3    H235961   7.360   3.032   0.055  1.3701 -1.5292  0.9907
12010TIP3   OH235962   2.275   5.921   4.903 -0.5410  0.4706 -0.0767
12010TIP3    H135963   2.284   5.873   4.821 -0.7493  0.4369 -0.0795
12010TIP3    H235964   2.313   5.862   4.969 -1.9490 -0.2370  0.1112
12011TIP3   OH235965   7.964   1.746   0.761 -0.4906  0.1850 -0.4812
12011TIP3    H135966   8.013   1.669   0.790 -0.9255 -0.3525 -1.1654
12011TIP3    H235967   8.016   1.820   0.792  0.1382 -0.3829 -0.1641
12012TIP3   OH235968   4.657   2.397   0.884  0.4488 -0.5074  0.0770
12012TIP3    H135969   4.625   2.434   0.966  1.6721 -2.4125  1.4709
12012TIP3    H235970   4.741   2.440   0.869 -0.7979  1.4748 -1.3921
12013TIP3   OH235971   7.394   1.346   0.050  0.1660  0.1147 -0.0708
12013TIP3    H135972   7.444   1.417   0.090  0.1567 -0.0836  0.2970
12013TIP3    H235973   7.413   1.270   0.104 -0.4000 -0.0001 -0.0282
12014TIP3   OH235974   2.582   5.509   5.358 -0.1211  0.2271 -0.1674
12014TIP3    H135975   2.637   5.478   5.430 -0.0148  1.0102  0.0987
12014TIP3    H235976   2.494   5.480   5.382 -0.1429  0.8027  0.4742
12015TIP3   OH235977   1.698   6.516   5.967 -0.4874 -0.3116 -0.0574
12015TIP3    H135978   1.698   6.605   5.933  0.6054 -0.8026 -1.4095
12015TIP3    H235979   1.643   6.519   6.045 -1.2284  1.3357 -0.6376
12016TIP3   OH235980   3.103   6.799   2.516  0.1804 -0.3397  0.1084
12016TIP3    H135981   3.162   6.803   2.442 -0.8020  0.2224 -0.6556
12016TIP3    H235982   3.147   6.847   2.586  0.7277 -0.1543 -0.3698
12017TIP3   OH235983   0.080   0.572   2.535  0.2804 -0.2429  0.1425
12017TIP3    H135984   0.055   0.662   2.511  2.3968  0.4054  0.2942
12017TIP3    H235985  -0.003   0.529   2.555 -0.8356  1.4540 -0.6975
12018TIP3   OH235986   0.992   4.442   6.668  0.0990  0.5017 -0.3760
12018TIP3    H135987   0.997   4.406   6.580 -1.6410  2.5153 -1.3400
12018TIP3    H235988   0.994   4.537   6.656  0.5846  0.8072  1.8127
12019TIP3   OH235989   1.110   5.207   5.570 -0.2074  0.1570  0.4331
12019TIP3    H135990   1.037   5.152   5.541  0.5035 -1.0186  0.8474
12019TIP3    H235991   1.176   5.197   5.501 -0.1529  0.6493  0.4142
12020TIP3   OH235992   5.714   0.017   2.252 -0.4490  0.1158 -1.2776
12020TIP3    H135993   5.690   0.032   2.343 -1.6871  0.8532 -1.7045
12020TIP3    H235994   5.746   0.102   2.221  1.8648 -0.6201 -0.9961
12021TIP3   OH235995   3.022   4.274   6.884  0.4302  0.6416  0.0560
12021TIP3    H135996   2.960   4.203   6.898  1.5768 -0.2536  0.6664
12021TIP3    H235997   3.066   4.252   6.803  1.1138  0.4100  0.4868
12022TIP3   OH235998   2.781   6.386   6.533 -0.3823 -0.3506 -0.1406
12022TIP3    H135999   2.812   6.405   6.444 -0.6571  0.3004 -0.0977
12022TIP3    H236000   2.827   6.306   6.558  1.3385  0.6557 -0.0261
12023TIP3   OH236001   0.109   2.579   0.684  0.3253 -0.5617 -0.1994
12023TIP3    H136002   0.033   2.637   0.679  0.2300 -0.6021  0.7246
12023TIP3    H236003   0.124   2.552   0.594  0.4209  0.9703 -0.6589
12024TIP3   OH236004   6.647   0.735   0.454 -0.5357 -0.2509 -0.4616
12024TIP3    H136005   6.733   0.776   0.461  0.3165 -2.2832  1.6946
12024TIP3    H236006   6.641   0.706   0.363  1.3235 -0.6050 -0.4808
12025TIP3   OH236007   0.938   0.560   1.014  0.2122 -0.5465 -0.2320
12025TIP3    H136008   1.019   0.576   0.966  0.3639 -0.3816  0.0760
12025TIP3    H236009   0.896   0.488   0.967  0.2352 -0.2114 -0.7613
12026TIP3   OH236010   0.530   1.479   0.266  1.0226  0.3812 -0.4030
12026TIP3    H136011   0.516   1.572   0.251 -0.9981  0.0231 -0.7822
12026TIP3    H236012   0.569   1.447   0.185  0.8974  0.7206 -0.5958
12027TIP3   OH236013   7.490   1.787   1.487  0.1903 -0.3134 -0.2094
12027TIP3    H136014   7.554   1.716   1.493 -0.9718 -1.4153 -0.7475
12027TIP3    H236015   7.407   1.748   1.513 -0.8098  0.3577 -2.2520
12028TIP3   OH236016   1.612   3.325   6.566  0.5827 -0.3033  0.1723
12028TIP3    H136017   1.575   3.267   6.632  0.4550 -0.0525  0.3203
12028TIP3    H236018   1.696   3.353   6.603  0.5741 -0.2722  0.1680
12029TIP3   OH236019   8.458   1.149   0.288 -0.0913 -0.0609 -0.6029
12029TIP3    H136020   8.466   1.224   0.347 -2.8938 -0.5229  0.4401
12029TIP3    H236021   8.517   1.170   0.215  0.5197  2.3200  0.5246
12030TIP3   OH236022   2.149   7.792   3.943  0.2654 -0.4019  0.1266
12030TIP3    H136023   2.201   7.859   3.987  2.7081 -1.6330 -0.7800
12030TIP3    H236024   2.068   7.836   3.918 -0.0065  1.0410  3.3303
12031TIP3   OH236025   6.182   3.439   0.787 -0.0217 -0.4411 -0.5110
12031TIP3    H136026   6.248   3.409   0.849 -0.6906  0.4404  0.6537
12031TIP3    H236027   6.139   3.359   0.757  0.0271 -0.8446  0.4900
12032TIP3   OH236028   1.937   5.326   6.805 -0.6237 -0.1864  0.1630
12032TIP3    H136029   1.919   5.380   6.727 -0.8366 -1.9732 -1.0497
12032TIP3    H236030   1.865   5.346   6.865  0.1573  2.0730  0.3962
12033TIP3   OH236031   2.472   5.556   5.825  0.0676  0.0712  0.2687
12033TIP3    H136032   2.395   5.518   5.867 -0.2615  1.9096  1.3792
12033TIP3    H236033   2.463   5.650   5.837  0.9350  0.5382 -2.3253
12034TIP3   OH236034   2.252   4.764   6.882  0.0433 -0.4118  0.1908
12034TIP3    H136035   2.333   4.780   6.930 -0.8233  0.0726  1.5141
12034TIP3    H236036   2.262   4.675   6.847  0.3891 -1.0540  1.8888
12035TIP3   OH236037   1.599   7.552   5.214 -0.3418 -0.2963  0.0295
12035TIP3    H136038   1.640   7.631   5.250 -2.3804  0.6948  0.2457
12035TIP3    H236039   1.661   7.481   5.234  0.2997  0.8353  2.1754
12036TIP3   OH236040   4.059   0.019   6.553 -0.1394  0.3626  0.0162
12036TIP3    H136041   4.099   0.020   6.640 -2.6286 -1.8078  1.2483
12036TIP3    H236042   4.119  -0.033   6.499  0.2711 -0.2227  1.0242
12037TIP3   OH236043   0.662   2.686   0.449 -0.3765  0.8278 -0.2885
12037TIP3    H136044   0.739   2.702   0.395 -0.5253  2.5689 -0.0069
12037TIP3    H236045   0.667   2.752   0.518 -0.9705 -0.4378  0.9932
12038TIP3   OH236046   8.213   5.837   6.828 -0.2537 -0.6793 -0.3874
12038TIP3    H136047   8.174   5.763   6.875  0.3916 -2.9313 -3.2467
12038TIP3    H236048   8.179   5.829   6.739  2.0382  0.8270 -1.4331
12039TIP3   OH236049   2.451   5.691   4.460  0.5673 -0.1181 -0.4015
12039TIP3    H136050   2.470   5.782   4.441  2.3064 -0.2945  0.4190
12039TIP3    H236051   2.400   5.661   4.384  0.6243  1.3151 -1.0227
12040TIP3   OH236052   7.803   0.160   0.348 -0.1369  0.3066 -0.1991
12040TIP3    H136053   7.716   0.121   0.345  0.2357 -0.5941  0.5142
12040TIP3    H236054   7.798   0.225   0.419 -0.3705  0.6289 -0.5064
12041TIP3   OH236055   5.326   2.190   0.684 -0.0869 -0.6456 -0.0529
12041TIP3    H136056   5.351   2.245   0.759  1.5595 -1.3890 -0.0282
12041TIP3    H236057   5.263   2.243   0.636  1.1956  1.1393  0.1654
12042TIP3   OH236058   4.213   0.476   5.835 -0.1759 -0.6479  0.5393
12042TIP3    H136059   4.299   0.454   5.873  1.3754  3.8224 -0.0261
12042TIP3    H236060   4.163   0.510   5.909 -0.0518  0.4241  0.1352
12043TIP3   OH236061   6.165   8.021   2.779  0.0621  0.0112  0.2944
12043TIP3    H136062   6.130   8.080   2.846 -1.4160 -1.3591  0.7484
12043TIP3    H236063   6.157   7.934   2.817  0.4570 -0.6594 -1.1352
12044TIP3   OH236064   0.226   6.628   6.705 -0.4607  0.5167  0.1639
12044TIP3    H136065   0.235   6.721   6.725 -1.5970  0.3624  1.5027
12044TIP3    H236066   0.231   6.585   6.791 -0.6263 -0.5921 -0.3766
12045TIP3   OH236067   7.828   5.911   5.285  0.5857  0.3006 -0.2685
12045TIP3    H136068   7.862   5.871   5.205  0.9746  1.2408 -0.5777
12045TIP3    H236069   7.907   5.940   5.332  0.2927  0.9428 -0.1735
12046TIP3   OH236070   0.197   4.235   5.521 -0.0269  0.4510 -0.2099
12046TIP3    H136071   0.201   4.312   5.578  0.4736 -0.4265  0.9580
12046TIP3    H236072   0.289   4.212   5.504 -0.1732 -0.0536 -0.3341
12047TIP3   OH236073   0.147   1.851   0.991 -0.4546  0.5164  0.0472
12047TIP3    H136074   0.084   1.923   0.990  0.0709  0.9685 -0.4688
12047TIP3    H236075   0.224   1.885   0.945  0.4453  0.2037  1.2936
12048TIP3   OH236076   1.031   5.136   6.195  0.2074  0.2910 -0.0491
12048TIP3    H136077   1.023   5.200   6.124 -1.0929  0.7029  0.4470
12048TIP3    H236078   1.038   5.052   6.150  0.7232  0.6672 -0.6846
12049TIP3   OH236079   6.964   1.891   0.454 -0.3390 -0.2380 -0.2361
12049TIP3    H136080   6.869   1.884   0.466 -0.4021 -0.5781 -0.9271
12049TIP3    H236081   6.977   1.884   0.360  0.1698  2.0295 -0.3746
12050TIP3   OH236082   1.514   5.330   6.311 -0.2134 -0.0764  0.5637
12050TIP3    H136083   1.514   5.292   6.399  0.2902 -0.8648  0.2246
12050TIP3    H236084   1.426   5.312   6.277  0.1036 -1.1733  0.3087
12051TIP3   OH236085   1.173   5.688   6.514  0.6420 -0.5323  0.1790
12051TIP3    H136086   1.256   5.656   6.479  0.8583  0.7048 -0.4841
12051TIP3    H236087   1.150   5.626   6.584  1.8421 -1.1851  0.0033
12052TIP3   OH236088  -0.004   6.053   6.582  0.4254 -0.1755  0.1711
12052TIP3    H136089  -0.048   6.046   6.667  1.1085  0.0150  0.5447
12052TIP3    H236090   0.075   6.104   6.600  0.6728 -0.2977 -0.5442
12053TIP3   OH236091   1.140   1.062   1.215  0.2451  0.2004  0.1728
12053TIP3    H136092   1.062   1.008   1.202  0.0976  0.2707  0.7689
12053TIP3    H236093   1.210   1.013   1.171 -0.1171  0.1019 -0.2944
12054TIP3   OH236094   1.196   0.885   0.437  0.5386 -0.4044  0.1647
12054TIP3    H136095   1.103   0.875   0.457  0.6840  0.7634  1.4776
12054TIP3    H236096   1.215   0.977   0.455  2.1706 -0.8616  0.9237
12055TIP3   OH236097   6.556   2.369   2.340  0.2437 -0.2075 -0.3528
12055TIP3    H136098   6.578   2.287   2.384  1.4513  0.8504  1.0740
12055TIP3    H236099   6.641   2.409   2.319 -0.3237  0.6580 -1.0880
12056TIP3   OH236100   4.655   0.114   5.951  0.0140  0.5924 -0.5942
12056TIP3    H136101   4.628   0.074   5.868 -0.5468  1.0067 -0.6138
12056TIP3    H236102   4.732   0.064   5.978  1.5193  1.8118 -2.4586
12057TIP3   OH236103   2.833   5.992   5.734  0.2176 -0.1959 -1.1433
12057TIP3    H136104   2.758   6.020   5.681 -0.6481 -1.1085 -0.4193
12057TIP3    H236105   2.814   5.901   5.757  1.7521 -0.5808 -1.2970
12058TIP3   OH236106   4.398   5.340   6.088  0.3319  0.2190 -0.4988
12058TIP3    H136107   4.405   5.280   6.161 -1.0043  0.5879 -0.0595
12058TIP3    H236108   4.487   5.348   6.054  0.9104 -0.1320  0.9387
12059TIP3   OH236109   6.094   7.776   0.893  0.0873  0.2832 -0.0873
12059TIP3    H136110   6.143   7.858   0.906 -0.7992  0.7043  0.6499
12059TIP3    H236111   6.047   7.790   0.811 -0.2135  0.6006  0.1335
12060TIP3   OH236112   2.428   4.947   5.277 -0.3108 -0.4645  0.0329
12060TIP3    H136113   2.488   4.980   5.345 -1.0723 -0.0187  0.5009
12060TIP3    H236114   2.444   4.853   5.275  0.4674 -0.3392  0.0951
12061TIP3   OH236115   0.912   5.015   5.852  0.4903  0.3059  0.1342
12061TIP3    H136116   0.981   5.041   5.913  0.6267 -0.0910  0.1522
12061TIP3    H236117   0.950   4.942   5.802 -0.5541 -1.1217  1.3784
12062TIP3   OH236118   3.641   6.070   6.052  0.1488 -0.3431  0.1014
12062TIP3    H136119   3.645   5.983   6.094 -0.4683 -0.7250 -0.6209
12062TIP3    H236120   3.615   6.052   5.962  0.6895  0.5463 -0.2382
12063TIP3   OH236121   7.982   2.345   0.146 -0.4574  0.3526 -0.3306
12063TIP3    H136122   7.959   2.402   0.219  0.1042  0.2584 -0.0762
12063TIP3    H236123   7.962   2.397   0.068  1.6829  1.5935 -0.1027
12064TIP3   OH236124   2.372   6.189   4.878  0.2567 -0.0397 -0.5634
12064TIP3    H136125   2.376   6.098   4.909  2.3183 -0.6363 -2.4193
12064TIP3    H236126   2.345   6.239   4.954 -0.0525 -2.0998  0.7305
12065TIP3   OH236127   5.073   0.229   6.130 -0.0702 -0.0581 -0.2624
12065TIP3    H136128   5.146   0.174   6.159 -0.9391 -0.7736  0.6050
12065TIP3    H236129   5.008   0.167   6.098 -0.5787  0.5402 -0.3946
12066TIP3   OH236130   7.169   8.027   1.026 -0.0120 -0.4897  0.3500
12066TIP3    H136131   7.165   7.939   1.063 -0.9281 -0.5195  0.1964
12066TIP3    H236132   7.202   8.013   0.937  0.3118 -0.6289  0.4919
12067TIP3   OH236133   7.939   3.592   0.082 -0.7582 -0.1532 -0.7193
12067TIP3    H136134   8.026   3.632   0.079 -0.0662 -1.4068  1.5549
12067TIP3    H236135   7.879   3.665   0.094  0.2112  0.5101  0.1148
12068TIP3   OH236136   4.223   7.662   4.018 -0.3073 -0.1983 -0.3322
12068TIP3    H136137   4.314   7.660   3.986 -0.5093  0.5274 -0.9749
12068TIP3    H236138   4.231   7.685   4.110  0.0400  2.8264 -1.0563
12069TIP3   OH236139   1.755   4.052   5.892  0.4141 -0.0596  0.3503
12069TIP3    H136140   1.799   3.976   5.930 -0.2899  0.9315  3.2063
12069TIP3    H236141   1.809   4.127   5.916 -0.0312  0.5877 -0.6348
12070TIP3   OH236142   3.572   6.644   6.582 -0.4952  0.1475 -0.3300
12070TIP3    H136143   3.487   6.612   6.551 -0.6758 -0.3405  0.6421
12070TIP3    H236144   3.608   6.571   6.631 -0.8830  1.3784  1.8733
12071TIP3   OH236145   5.229   5.402   5.557 -0.0159 -0.2682  0.2674
12071TIP3    H136146   5.254   5.315   5.527 -0.7331 -0.7690  1.1250
12071TIP3    H236147   5.156   5.388   5.616  0.2272  0.8644  0.8597
12072TIP3   OH236148   0.274   0.592   0.641 -0.1239 -0.4465  0.1284
12072TIP3    H136149   0.318   0.636   0.714  1.3067  0.9114 -1.5214
12072TIP3    H236150   0.201   0.650   0.619 -1.4551 -1.5922  1.4095
12073TIP3   OH236151   4.922   7.674   4.348 -0.3541  0.1727  0.2823
12073TIP3    H136152   4.997   7.731   4.328  0.2225 -0.6685  0.0446
12073TIP3    H236153   4.935   7.597   4.293 -1.8326  0.3742 -0.3608
12074TIP3   OH236154   3.370   4.743   6.068 -0.6620  0.4953  0.3856
12074TIP3    H136155   3.436   4.768   6.002  0.7441 -1.4764  0.9683
12074TIP3    H236156   3.359   4.649   6.054  1.6201 -0.5110  4.6105
12075TIP3   OH236157   2.830   5.496   6.241  0.1536  0.1315  0.1026
12075TIP3    H136158   2.778   5.490   6.161  0.8040  0.6353 -0.3583
12075TIP3    H236159   2.770   5.470   6.310 -0.4022 -0.3461 -0.5508
12076TIP3   OH236160   2.251   4.820   5.960 -0.3639 -0.2307 -0.0247
12076TIP3    H136161   2.208   4.816   5.874 -0.1644  0.2666 -0.1512
12076TIP3    H236162   2.300   4.738   5.965  2.6962  1.3604 -2.0544
12077TIP3   OH236163   6.992   3.800   0.255  0.5176 -0.4033  0.5624
12077TIP3    H136164   6.945   3.728   0.296 -0.4689  0.3390  0.7435
12077TIP3    H236165   6.975   3.790   0.162  1.8511 -1.4371  0.4008
12078TIP3   OH236166   6.436   0.228   4.745 -0.2984  0.4586 -0.1891
12078TIP3    H136167   6.458   0.320   4.754  1.2410  0.0290  0.6466
12078TIP3    H236168   6.469   0.204   4.658  0.7534  0.3099  0.2465
12079TIP3   OH236169   0.620   1.588   0.982  0.4851 -0.0690 -0.2199
12079TIP3    H136170   0.573   1.630   1.054 -1.8058  0.4766 -1.9640
12079TIP3    H236171   0.555   1.530   0.942  1.2542  0.7480 -2.7356
12080TIP3   OH236172   2.979   5.146   5.980  0.3273  0.2410 -0.2394
12080TIP3    H136173   2.978   5.215   5.914 -0.6242 -0.6910 -1.2206
12080TIP3    H236174   3.039   5.080   5.945 -0.5077 -0.4481 -0.4013
12081TIP3   OH236175   0.929   5.743   5.881  0.0515  0.4982 -0.6389
12081TIP3    H136176   0.997   5.710   5.939  1.0993  2.3415 -0.7899
12081TIP3    H236177   0.847   5.726   5.927  0.6781 -0.8308 -0.0142
12082TIP3   OH236178   1.483   7.217   2.923  0.4018 -0.1208 -0.3367
12082TIP3    H136179   1.462   7.158   2.850 -0.5091 -0.2401  0.0153
12082TIP3    H236180   1.517   7.296   2.881  0.4808 -0.4318 -0.8622
12083TIP3   OH236181   3.107   5.544   4.436 -0.1351 -0.3556  0.0542
12083TIP3    H136182   3.104   5.639   4.444 -1.1984 -0.1474 -2.4894
12083TIP3    H236183   3.163   5.516   4.509  0.0216  2.1734  0.9612
12084TIP3   OH236184   2.721   7.093   6.582  0.2688  0.0887 -0.0069
12084TIP3    H136185   2.708   7.059   6.493  0.2123  0.7714 -0.2626
12084TIP3    H236186   2.639   7.139   6.602  1.6334  2.9959 -0.9732
12085TIP3   OH236187   2.130   1.038   3.337 -0.1545  0.2906 -0.0019
12085TIP3    H136188   2.068   0.966   3.347 -0.7980  0.7653 -0.4891
12085TIP3    H236189   2.102   1.082   3.257 -1.0330  2.2970  1.3499
12086TIP3   OH236190   2.936   7.762   3.242 -0.5105  0.0978 -0.0875
12086TIP3    H136191   2.922   7.772   3.336  0.1423 -0.2563  0.0513
12086TIP3    H236192   2.999   7.690   3.235  1.0383  1.4768 -0.6989
12087TIP3   OH236193   7.648   2.141   0.632 -0.0766 -0.0395  0.7148
12087TIP3    H136194   7.615   2.052   0.644  0.1678 -0.2731 -0.2455
12087TIP3    H236195   7.734   2.141   0.675  0.0768 -0.3741  0.4126
12088TIP3   OH236196   2.026   0.907   0.219 -0.0590 -0.5929 -0.2088
12088TIP3    H136197   1.991   0.996   0.209  1.4107  0.2158  1.5300
12088TIP3    H236198   1.949   0.852   0.229 -0.9558  0.6493 -0.1115
12089TIP3   OH236199   2.396   7.515   5.711  0.6100 -0.7999  0.0176
12089TIP3    H136200   2.451   7.471   5.776 -1.1630 -0.4109  1.8401
12089TIP3    H236201   2.456   7.572   5.662  2.0563 -1.5074  0.9585
12090TIP3   OH236202   2.270   6.253   6.239 -0.3360  0.2498 -0.2785
12090TIP3    H136203   2.210   6.288   6.304  1.5542  1.9479  0.6036
12090TIP3    H236204   2.335   6.204   6.289  0.1059  0.0539 -1.0258
12091TIP3   OH236205   2.251   7.743   5.933 -0.4831 -0.3170 -0.4159
12091TIP3    H136206   2.251   7.828   5.889  1.3581 -0.9397 -1.6884
12091TIP3    H236207   2.179   7.695   5.891 -1.6046  0.6210  0.3848
12092TIP3   OH236208   3.142   6.988   4.375 -0.1712 -0.0808  0.1546
12092TIP3    H136209   3.133   7.072   4.419 -2.5350  0.0335 -0.5015
12092TIP3    H236210   3.123   6.923   4.443 -0.9826  0.0083  0.0182
12093TIP3   OH236211   0.115   3.322   0.308 -0.0781 -0.1962 -0.2482
12093TIP3    H136212   0.105   3.315   0.403  0.1529  1.6358 -0.0728
12093TIP3    H236213   0.027   3.306   0.274 -0.3569  0.0672  0.3342
12094TIP3   OH236214   1.727   6.488   6.738  0.0900  0.0832  0.5550
12094TIP3    H136215   1.700   6.551   6.672 -0.8426 -0.5997  0.2713
12094TIP3    H236216   1.656   6.489   6.802  0.5357  0.0376  1.0544
12095TIP3   OH236217   3.006   6.344   4.681  0.1040 -0.1239 -0.7057
12095TIP3    H136218   2.913   6.365   4.689  0.2378  0.4076 -0.5064
12095TIP3    H236219   3.046   6.381   4.760  0.8234  1.6592 -1.8591
12096TIP3   OH236220   4.569   5.716   6.683  0.1766  0.2678 -0.3343
12096TIP3    H136221   4.574   5.768   6.603  0.8718  0.7791  0.0380
12096TIP3    H236222   4.607   5.772   6.750  0.9949 -0.7455  0.0639
12097TIP3   OH236223   3.569   6.084   5.277  0.1510 -0.4889  0.7158
12097TIP3    H136224   3.479   6.115   5.287  0.4428  0.2456  1.1241
12097TIP3    H236225   3.568   5.996   5.314 -0.4502 -0.5824  0.4991
12098TIP3   OH236226   4.950   5.608   6.805  0.5567  0.1492  0.4787
12098TIP3    H136227   4.913   5.533   6.851  1.2297 -0.0314  0.7393
12098TIP3    H236228   4.933   5.590   6.712  0.5014 -0.2129  0.5574
12099TIP3   OH236229   5.415   5.835   5.980 -0.1061  0.5291  0.2399
12099TIP3    H136230   5.363   5.850   6.059 -1.4667 -1.6508 -0.2063
12099TIP3    H236231   5.478   5.768   6.005 -1.1560 -0.8599 -0.7711
12100TIP3   OH236232   1.968   5.975   6.114 -0.3725 -0.0912  0.3298
12100TIP3    H136233   1.992   5.886   6.142 -0.4758  0.4270  2.1320
12100TIP3    H236234   1.995   5.979   6.023  3.7948 -0.5308  1.4380
12101TIP3   OH236235   7.731   1.625   0.712  0.0905  0.2559 -0.2001
12101TIP3    H136236   7.802   1.687   0.728  0.2557  0.4303 -1.5444
12101TIP3    H236237   7.652   1.677   0.719  0.1934  0.4639 -0.5572
12102TIP3   OH236238   5.978   2.542   1.123 -0.4652  0.0671 -0.1744
12102TIP3    H136239   6.003   2.620   1.073 -0.5054  0.4247  0.3522
12102TIP3    H236240   5.888   2.558   1.150 -0.6430 -0.3898 -0.4915
12103TIP3   OH236241   2.616   5.485   6.428  0.6821 -0.3030 -0.6893
12103TIP3    H136242   2.641   5.569   6.466  0.9000 -0.8075  0.3000
12103TIP3    H236243   2.583   5.434   6.502  0.1250 -0.9293 -1.3624
12104TIP3   OH236244   3.627   7.205   4.929 -0.1203 -0.2514 -0.2549
12104TIP3    H136245   3.628   7.231   5.021  2.7258  1.4802 -0.7210
12104TIP3    H236246   3.651   7.112   4.931  1.0940  0.0623  0.7001
12105TIP3   OH236247   2.783   6.350   5.452  1.0224  0.1253 -0.2968
12105TIP3    H136248   2.779   6.368   5.546  0.8210  1.1794 -0.5014
12105TIP3    H236249   2.875   6.360   5.429  0.5136  3.9936 -0.9810
12106TIP3   OH236250   3.721   0.725   2.738 -0.7776  0.0319 -0.3058
12106TIP3    H136251   3.778   0.784   2.690  1.3470 -1.1872  0.6672
12106TIP3    H236252   3.736   0.747   2.830 -1.4553 -0.6863 -0.0165
12107TIP3   OH236253   7.328   3.745   0.417  0.0933  0.0897  0.0578
12107TIP3    H136254   7.380   3.777   0.343 -0.4495 -0.2629 -0.4825
12107TIP3    H236255   7.270   3.680   0.378  0.3087 -0.6273  0.9232
12108TIP3   OH236256   0.879   0.643   0.261  0.5304 -0.1973  0.1379
12108TIP3    H136257   0.884   0.558   0.218  0.4923 -0.7754  1.2400
12108TIP3    H236258   0.790   0.673   0.243  0.8914  0.1151 -1.1659
12109TIP3   OH236259   2.472   7.083   4.936  1.0016 -0.2106  0.4845
12109TIP3    H136260   2.470   7.159   4.878  0.3990 -0.3901  0.2731
12109TIP3    H236261   2.483   7.120   5.024  0.9104  0.1057  0.3620
12110TIP3   OH236262   2.878   7.406   5.113 -0.3521  0.4532 -0.1444
12110TIP3    H136263   2.832   7.418   5.029 -0.8513  2.9157  0.4266
12110TIP3    H236264   2.829   7.460   5.175  1.3705  0.4926  1.2288
12111TIP3   OH236265   7.126   3.274   1.310  0.0706  0.9910  0.3005
12111TIP3    H136266   7.172   3.230   1.238 -1.7646  1.3984 -1.1531
12111TIP3    H236267   7.109   3.362   1.278 -1.8739  0.7951  0.7149
12112TIP3   OH236268   8.335   2.283   0.404 -0.1839 -0.6018 -0.0036
12112TIP3    H136269   8.403   2.243   0.458 -0.0954 -1.2175 -0.5618
12112TIP3    H236270   8.339   2.376   0.426  1.2039 -0.5421 -0.4276
12113TIP3   OH236271   6.303   7.713   3.045 -1.3042 -0.7999 -0.1637
12113TIP3    H136272   6.322   7.648   3.113 -0.1474 -0.5102 -0.1847
12113TIP3    H236273   6.210   7.702   3.026 -1.7728 -0.5232  1.8497
12114TIP3   OH236274   1.073   7.135   5.949 -0.5411 -0.4756 -0.3315
12114TIP3    H136275   1.051   7.056   5.998 -1.0924 -0.4680 -0.5664
12114TIP3    H236276   1.042   7.117   5.860  1.8546 -1.1450 -1.0960
12115TIP3   OH236277   1.806   5.571   4.744 -0.0520 -0.4007 -0.1314
12115TIP3    H136278   1.731   5.620   4.709 -0.9981 -1.3050  0.5670
12115TIP3    H236279   1.858   5.636   4.791 -1.4024 -0.0864  0.9672
12116TIP3   OH236280   7.264   1.729   0.560  0.0409 -0.1056 -0.5409
12116TIP3    H136281   7.264   1.740   0.655  1.7918 -0.9264 -0.4358
12116TIP3    H236282   7.186   1.676   0.543 -0.7593  0.7610  0.3415
12117TIP3   OH236283   0.812   5.798   5.320  0.2622 -0.0491 -0.6582
12117TIP3    H136284   0.818   5.777   5.413  2.4198  1.2087 -0.4701
12117TIP3    H236285   0.733   5.852   5.313 -0.1543 -0.5106  0.3694
12118TIP3   OH236286   2.819   4.385   5.768 -0.6151  0.3749  0.9023
12118TIP3    H136287   2.776   4.457   5.722  0.4775  0.6634  0.3011
12118TIP3    H236288   2.764   4.308   5.750 -1.2205  0.8581  0.6861
12119TIP3   OH236289   3.228   5.682   5.151 -0.6612  0.9718 -0.6855
12119TIP3    H136290   3.175   5.652   5.077  2.2781 -1.4679 -1.9262
12119TIP3    H236291   3.264   5.766   5.124 -1.4456  1.1825 -1.0749
12120TIP3   OH236292   3.212   5.844   6.762  0.4261 -0.7035 -0.7233
12120TIP3    H136293   3.173   5.786   6.697  0.6216 -1.6410 -0.0042
12120TIP3    H236294   3.143   5.906   6.784  0.3377 -0.4223 -1.7749
12121TIP3   OH236295   3.542   5.840   5.460  0.3917  0.1647 -0.4124
12121TIP3    H136296   3.556   5.762   5.405 -1.7020  0.6722 -1.7317
12121TIP3    H236297   3.459   5.823   5.504  0.2402  1.3923 -0.2274
12122TIP3   OH236298   1.166   0.065   0.792  0.1736  0.2111  0.5958
12122TIP3    H136299   1.071   0.053   0.789 -0.0680  2.0606  0.6713
12122TIP3    H236300   1.200  -0.022   0.816 -1.5235 -0.3399  1.0570
12123TIP3   OH236301   1.143   4.694   5.168 -0.2907  0.4192 -0.1449
12123TIP3    H136302   1.193   4.637   5.226 -1.7006 -0.7217 -0.0165
12123TIP3    H236303   1.070   4.726   5.222 -0.7511  0.5659 -0.8454
12124TIP3   OH236304   2.206   1.169   0.607  0.3390  0.8971 -0.1997
12124TIP3    H136305   2.183   1.216   0.526  0.7834  0.8166 -0.3709
12124TIP3    H236306   2.183   1.231   0.677  1.5838  1.6578 -0.4458
12125TIP3   OH236307   1.562   6.381   4.170  0.4291  0.1864  0.0598
12125TIP3    H136308   1.600   6.304   4.211  0.9973  1.0479  1.1933
12125TIP3    H236309   1.468   6.375   4.191  0.7780  0.8831  2.0123
12126TIP3   OH236310   3.544   5.463   4.452  0.3353  0.2659  0.4426
12126TIP3    H136311   3.488   5.538   4.472 -0.2282 -0.3388  1.1588
12126TIP3    H236312   3.562   5.422   4.537 -1.4969 -1.9203 -0.1805
12127TIP3   OH236313   2.618   7.938   5.272  0.8518 -0.1351 -1.3657
12127TIP3    H136314   2.564   7.997   5.324  0.1313 -1.4297 -0.6377
12127TIP3    H236315   2.697   7.925   5.324  0.8318 -0.1414 -1.3370
12128TIP3   OH236316   7.910   1.155   0.679  0.3066 -0.3926 -0.3629
12128TIP3    H136317   8.000   1.183   0.659  0.4197 -0.8813 -0.5376
12128TIP3    H236318   7.857   1.233   0.662  0.3555 -0.8883 -3.0293
12129TIP3   OH236319   6.536   0.245   0.212 -0.2942  0.2325 -0.0592
12129TIP3    H136320   6.532   0.326   0.161 -1.6254 -0.5662 -1.2731
12129TIP3    H236321   6.612   0.198   0.177 -0.9905 -0.1498 -1.0684
12130TIP3   OH236322   1.404   5.935   4.708  0.3983 -0.2234 -0.1491
12130TIP3    H136323   1.409   6.008   4.647 -0.8132  0.6735  0.7889
12130TIP3    H236324   1.315   5.938   4.742  0.4155 -1.9758  0.1219
12131TIP3   OH236325   1.961   3.920   5.320  0.0019  0.3885 -0.1029
12131TIP3    H136326   1.946   4.012   5.299  0.3143  0.3906 -0.3169
12131TIP3    H236327   1.984   3.921   5.413 -2.6860  0.2412  0.6306
12132TIP3   OH236328   1.559   7.577   6.000 -0.1225  0.2696  0.2025
12132TIP3    H136329   1.596   7.651   5.953 -0.8842  0.2759 -0.3991
12132TIP3    H236330   1.481   7.553   5.950  0.5430 -1.4235 -0.0451
12133TIP3   OH236331   2.307   0.970   1.475 -0.2338  0.0816 -0.6591
12133TIP3    H136332   2.305   0.946   1.568  1.6679  1.1936 -0.3080
12133TIP3    H236333   2.378   1.033   1.468  0.1874 -0.6239 -3.0449
12134TIP3   OH236334   0.406   0.981   0.550 -0.1522 -0.3548 -0.7146
12134TIP3    H136335   0.364   0.933   0.479  1.3421 -0.3188 -1.6285
12134TIP3    H236336   0.485   1.019   0.511 -0.4837  1.5444  0.3833
12135TIP3   OH236337   2.083   7.030   6.405 -0.4391  0.1584 -0.3810
12135TIP3    H136338   2.054   7.085   6.477 -0.8378 -0.3962 -0.1148
12135TIP3    H236339   2.109   6.947   6.446 -0.2622 -0.0075 -0.8218
12136TIP3   OH236340   5.153   6.024   6.772  0.6995  0.7746 -0.0433
12136TIP3    H136341   5.074   5.986   6.735 -0.3934  2.1724  0.8119
12136TIP3    H236342   5.193   5.953   6.822  1.6021 -0.8162 -2.8689
12137TIP3   OH236343   2.386   6.533   6.628  0.5164 -0.7791 -0.0633
12137TIP3    H136344   2.481   6.542   6.632  0.5225 -0.6529 -0.4555
12137TIP3    H236345   2.366   6.538   6.534  0.0719 -0.2852  0.0575
12138TIP3   OH236346   2.055   4.662   5.522 -0.2684 -0.3381  0.2442
12138TIP3    H136347   1.994   4.709   5.466  0.9840  0.2036 -0.6895
12138TIP3    H236348   2.004   4.591   5.559 -1.1542 -0.6276 -1.4967
12139TIP3   OH236349   5.184   0.219   5.800 -0.8272  0.0024  0.0379
12139TIP3    H136350   5.192   0.234   5.894 -0.0491 -0.0769 -0.0150
12139TIP3    H236351   5.215   0.300   5.760 -1.0787  0.0049 -0.1543
12140TIP3   OH236352   1.658   4.081   4.194  0.2566  0.0353  0.0894
12140TIP3    H136353   1.708   4.002   4.176  0.5254 -0.0039  0.9754
12140TIP3    H236354   1.638   4.117   4.108  0.1698 -0.9669 -0.3149
12141TIP3   OH236355   1.691   5.352   5.217 -0.3788  0.4783  0.4082
12141TIP3    H136356   1.609   5.361   5.265 -0.5961  0.3517  0.0668
12141TIP3    H236357   1.664   5.337   5.126 -0.0309 -1.8033  0.6521
12142TIP3   OH236358   1.967   6.204   2.640  0.3630 -1.0356 -0.5517
12142TIP3    H136359   2.040   6.209   2.702 -1.3559  0.6555  1.4328
12142TIP3    H236360   1.962   6.112   2.616  2.2541 -1.4149  0.3886
12143TIP3   OH236361   0.150   5.067   5.532  0.0897 -0.1518  0.2955
12143TIP3    H136362   0.062   5.090   5.502  0.2426  0.4734  0.3398
12143TIP3    H236363   0.148   4.971   5.538  0.3546 -0.3923 -2.6713
12144TIP3   OH236364   7.844   1.529   1.307  0.5338  0.3881  0.1229
12144TIP3    H136365   7.812   1.604   1.256  0.4567  0.1719 -0.1476
12144TIP3    H236366   7.826   1.553   1.398 -0.5809  0.1968 -0.0310
12145TIP3   OH236367   0.639   1.373   0.028 -0.1240  0.3798  0.5506
12145TIP3    H136368   0.697   1.298   0.038  0.9591  1.1235 -0.0350
12145TIP3    H236369   0.693   1.440  -0.014 -0.8157  1.7969  1.8562
12146TIP3   OH236370   3.519   4.826   5.866 -0.3002 -0.2687  0.9856
12146TIP3    H136371   3.453   4.823   5.796  1.5318 -2.1034 -0.7260
12146TIP3    H236372   3.541   4.919   5.873  0.2684 -0.1435 -1.6733
12147TIP3   OH236373   8.044   0.901   4.231  0.5516  0.0458  0.3251
12147TIP3    H136374   7.988   0.858   4.296 -0.7151 -0.0617 -0.7995
12147TIP3    H236375   8.074   0.981   4.275 -1.0920  0.4761  0.7219
12148TIP3   OH236376   3.902   7.063   3.889  0.1128 -0.0427 -0.4787
12148TIP3    H136377   3.965   7.121   3.934  0.7207 -1.2219  0.2090
12148TIP3    H236378   3.928   6.975   3.915 -1.8486 -0.5442 -0.1868
12149TIP3   OH236379   2.099   1.687   0.501  0.4882  0.5278 -0.2882
12149TIP3    H136380   2.161   1.725   0.564  1.4050  0.5817 -1.2092
12149TIP3    H236381   2.024   1.660   0.555  0.5430  2.0879  0.6137
12150TIP3   OH236382   1.536   6.248   2.982  0.1974 -0.0801  0.2063
12150TIP3    H136383   1.602   6.240   2.913  1.1604 -1.1141  1.2109
12150TIP3    H236384   1.512   6.157   3.003 -0.4365  0.2351  0.8824
12151TIP3   OH236385   1.705   5.627   4.367 -0.1364  0.3042  0.3463
12151TIP3    H136386   1.786   5.678   4.374  2.6525 -3.3512 -2.6348
12151TIP3    H236387   1.730   5.539   4.396 -2.2280 -1.5782 -3.1907
12152TIP3   OH236388   0.637   2.939   0.625 -0.1684 -0.2884  0.0970
12152TIP3    H136389   0.692   2.932   0.703  2.2895  1.2667 -1.4462
12152TIP3    H236390   0.567   2.999   0.650  1.6616  1.6993  0.5186
12153TIP3   OH236391   0.871   1.766   0.638 -0.4469  0.0897  0.5116
12153TIP3    H136392   0.862   1.746   0.731  2.8175 -2.2948  0.4216
12153TIP3    H236393   0.827   1.694   0.593 -2.4924  1.5170  0.1600
12154TIP3   OH236394   7.724   5.923   5.609 -0.0124  0.0436 -0.7248
12154TIP3    H136395   7.818   5.909   5.620  0.3842  1.8388 -1.7532
12154TIP3    H236396   7.710   6.013   5.637 -1.6556 -0.6041  0.6251
12155TIP3   OH236397   3.829   6.996   4.728 -0.2015 -0.3713  0.0290
12155TIP3    H136398   3.893   6.944   4.679  1.4510  1.7158 -0.0915
12155TIP3    H236399   3.833   7.083   4.688  1.2173  1.4218  3.8712
12156TIP3   OH236400   3.447   7.715   5.344  0.2104 -0.1308  0.0829
12156TIP3    H136401   3.480   7.744   5.259  2.8388 -1.5484  0.5760
12156TIP3    H236402   3.501   7.761   5.408 -1.0587  0.1203  1.0088
12157TIP3   OH236403   8.495   3.890   1.327 -0.0726 -0.4887 -0.1044
12157TIP3    H136404   8.424   3.897   1.263  1.1422  2.5847 -1.2156
12157TIP3    H236405   8.527   3.801   1.319 -0.9756 -0.6085 -2.6551
12158TIP3   OH236406   4.022   4.525   5.083  0.0367 -0.6281  0.4718
12158TIP3    H136407   3.997   4.534   5.175  0.0372 -1.7349  0.5843
12158TIP3    H236408   4.040   4.432   5.072  0.8750 -0.3662 -0.4389
12159TIP3   OH236409   3.492   5.092   5.643  0.3966 -0.1445 -0.5730
12159TIP3    H136410   3.575   5.139   5.634  1.7062 -1.9560  1.6928
12159TIP3    H236411   3.497   5.022   5.578  0.6278 -0.2510 -0.4382
12160TIP3   OH236412   1.554   7.879   4.769 -0.1550 -0.6332  0.6672
12160TIP3    H136413   1.536   7.790   4.740 -0.1626 -0.9535  1.6611
12160TIP3    H236414   1.568   7.928   4.687  1.8141 -1.9583  0.1633
12161TIP3   OH236415   2.211   5.237   6.247 -0.4049  0.6638  0.0110
12161TIP3    H136416   2.194   5.291   6.324  1.4139  2.4490 -0.8170
12161TIP3    H236417   2.306   5.229   6.243 -0.6258 -3.9958  1.0238
12162TIP3   OH236418   2.739   5.405   5.094 -0.0851  0.2090  0.0172
12162TIP3    H136419   2.680   5.449   5.155 -1.8677  1.2441 -2.3953
12162TIP3    H236420   2.723   5.311   5.109 -2.2769  0.4769 -0.5111
12163TIP3   OH236421   2.239   6.061   3.886  0.0870 -0.0459  0.3286
12163TIP3    H136422   2.291   6.009   3.948 -1.1137  0.2526  1.6132
12163TIP3    H236423   2.260   6.024   3.800  1.1452 -1.0142  0.9868
12164TIP3   OH236424   2.825   5.188   4.677 -0.2114 -0.2203  0.1854
12164TIP3    H136425   2.794   5.276   4.697  0.0622 -0.2762  0.8399
12164TIP3    H236426   2.746   5.134   4.676 -0.3860  0.0385 -0.2813
12165TIP3   OH236427   0.468   0.551   0.920  0.0364  0.3591 -0.4986
12165TIP3    H136428   0.443   0.637   0.885 -1.9312 -0.0840 -0.2721
12165TIP3    H236429   0.457   0.559   1.015  0.4017  0.0314 -0.4273
12166TIP3   OH236430   2.685   6.913   6.375 -0.4029  0.0333 -0.0724
12166TIP3    H136431   2.597   6.882   6.393  0.0672 -0.1638  1.9886
12166TIP3    H236432   2.719   6.852   6.309 -1.5651 -0.2582 -0.4065
12167TIP3   OH236433   5.779   0.572   5.826  0.1890  0.5512  0.5338
12167TIP3    H136434   5.838   0.610   5.761  0.4751  2.7422  1.9826
12167TIP3    H236435   5.829   0.577   5.908 -1.0306  0.0002  1.3220
12168TIP3   OH236436   2.284   5.914   3.667 -0.1253 -0.0059 -0.3103
12168TIP3    H136437   2.238   5.840   3.626 -0.4231 -0.3770  0.6759
12168TIP3    H236438   2.376   5.888   3.668 -0.5911 -1.8044  2.9411
12169TIP3   OH236439   8.111   2.447   1.803 -0.4506 -0.2812  0.4827
12169TIP3    H136440   8.189   2.421   1.853 -0.3541 -0.2670  0.3406
12169TIP3    H236441   8.043   2.387   1.832 -0.5582  0.1364  1.1021
12170TIP3   OH236442   8.011   0.437   0.594 -0.3951  0.2307  0.2059
12170TIP3    H136443   8.027   0.530   0.607  0.7067  0.6462 -3.4637
12170TIP3    H236444   8.091   0.394   0.625 -0.1007  0.6889  0.0839
12171TIP3   OH236445   5.998   0.329   5.099 -0.4100  0.0784  0.3573
12171TIP3    H136446   6.024   0.239   5.079 -0.4611  0.0050  0.6108
12171TIP3    H236447   6.039   0.382   5.031 -1.5381 -0.2765 -0.6132
12172TIP3   OH236448   0.325   3.459   0.195  0.0061  0.8850  0.1980
12172TIP3    H136449   0.389   3.388   0.186 -0.4668  0.7017 -2.1069
12172TIP3    H236450   0.246   3.416   0.226  0.2142  0.6667  0.4288
12173TIP3   OH236451   7.402   3.134   1.500 -0.1242  0.3630  0.1944
12173TIP3    H136452   7.383   3.153   1.408 -1.5348  0.8769  0.5884
12173TIP3    H236453   7.433   3.217   1.536 -0.4940  0.4059  0.4179
12174TIP3   OH236454   3.577   7.026   6.373  0.2772 -0.1739 -0.4650
12174TIP3    H136455   3.663   7.058   6.346  1.0478 -0.8796  1.0675
12174TIP3    H236456   3.597   6.953   6.432 -1.3914 -1.0014 -0.8985
12175TIP3   OH236457   3.270   7.514   5.112 -0.4592 -0.0819 -0.2361
12175TIP3    H136458   3.258   7.475   5.025 -0.5560  0.4500 -0.4632
12175TIP3    H236459   3.305   7.443   5.165  1.2603  0.0693 -1.1427
12176TIP3   OH236460   0.044   0.702   0.550  0.1760 -0.1977 -0.2774
12176TIP3    H136461   0.065   0.678   0.460  0.7015  2.0204 -0.7765
12176TIP3    H236462   0.023   0.796   0.546  0.3639 -0.0304  1.9226
12177TIP3   OH236463   2.134   7.390   6.874  0.4270 -0.0293  0.2058
12177TIP3    H136464   2.187   7.311   6.867  1.2748  0.6268 -0.9734
12177TIP3    H236465   2.198   7.462   6.877 -0.3626  0.7709 -1.2629
12178TIP3   OH236466   1.123   1.542   0.015  0.2792 -0.4042 -0.1921
12178TIP3    H136467   1.101   1.554   0.107  1.6585  1.4159 -0.0796
12178TIP3    H236468   1.091   1.621  -0.028  2.3001  0.1282 -0.7726
12179TIP3   OH236469   1.525   5.277   5.896  0.5657 -0.2689  0.3170
12179TIP3    H136470   1.589   5.266   5.967  0.4889  0.3749  0.4876
12179TIP3    H236471   1.451   5.320   5.937 -0.1779 -1.4370  0.2217
12180TIP3   OH236472   6.878   1.748   1.369  0.0806 -0.1310  0.2555
12180TIP3    H136473   6.921   1.779   1.449 -4.0830  2.3511  1.6849
12180TIP3    H236474   6.904   1.811   1.302 -1.0572  1.1891  1.0410
12181TIP3   OH236475   1.579   3.101   2.203  0.1141 -0.0896 -0.1366
12181TIP3    H136476   1.531   3.029   2.163  0.8450 -0.8490  0.3476
12181TIP3    H236477   1.578   3.083   2.296  1.8692 -0.4557 -0.1669
12182TIP3   OH236478   4.393   6.355   4.669  0.5251 -0.2059  0.1469
12182TIP3    H136479   4.481   6.370   4.636  1.4130 -1.0148  2.0844
12182TIP3    H236480   4.351   6.303   4.601  1.3063  0.7507 -1.0923
12183TIP3   OH236481   3.370   0.097   6.246 -0.4071 -0.2547  0.5189
12183TIP3    H136482   3.316   0.058   6.314  0.0213 -1.9892 -0.1223
12183TIP3    H236483   3.439   0.034   6.230 -0.6516 -0.0176 -1.7166
12184TIP3   OH236484   3.786   7.125   3.637  0.0837  0.2406  0.1295
12184TIP3    H136485   3.815   7.215   3.654  1.5811 -0.5062  1.6145
12184TIP3    H236486   3.786   7.083   3.723  0.0319 -1.3845 -0.6495
12185TIP3   OH236487   1.706   5.215   6.106 -0.2921 -0.2768  0.2433
12185TIP3    H136488   1.653   5.229   6.184 -1.7170  1.3651 -0.9741
12185TIP3    H236489   1.794   5.198   6.139 -1.1061 -0.7563  2.2273
12186TIP3   OH236490   1.090   6.616   6.226  0.7613  0.2069 -0.5932
12186TIP3    H136491   1.164   6.661   6.187  2.5621 -0.1082  2.2492
12186TIP3    H236492   1.127   6.534   6.259 -1.2982 -0.8886 -0.9166
12187TIP3   OH236493   8.152   2.142   0.091 -1.1776  0.3853 -0.2162
12187TIP3    H136494   8.092   2.073   0.118 -1.6047  0.8041 -0.0796
12187TIP3    H236495   8.109   2.223   0.118  0.1529  0.6229  1.2417
12188TIP3   OH236496   7.452   3.469   0.430  0.1414 -0.1136 -0.3175
12188TIP3    H136497   7.527   3.530   0.435 -1.3344  1.7656 -0.5088
12188TIP3    H236498   7.383   3.521   0.389 -1.4648 -1.6624  0.4200
12189TIP3   OH236499   2.289   7.759   5.499 -0.0879 -0.8247 -0.3564
12189TIP3    H136500   2.338   7.815   5.439 -0.0932 -1.2009 -0.7131
12189TIP3    H236501   2.207   7.807   5.515  1.0666  0.6162  1.5618
12190TIP3   OH236502   6.569   0.650   4.617 -0.1921  0.2723 -0.1607
12190TIP3    H136503   6.647   0.594   4.622  0.1455  0.8100  0.5500
12190TIP3    H236504   6.603   0.739   4.613 -0.7993  0.5619  1.1617
12191TIP3   OH236505   0.152   0.692   0.285  0.4630 -0.3902  0.4110
12191TIP3    H136506   0.202   0.614   0.263  0.7494 -0.2251  0.4820
12191TIP3    H236507   0.099   0.709   0.207 -0.3110 -1.2145  0.7487
12192TIP3   OH236508   3.764   5.993   6.655  0.0696  0.0659  0.1856
12192TIP3    H136509   3.797   5.905   6.671 -0.5315  0.1001  1.6949
12192TIP3    H236510   3.809   6.021   6.576  0.6729 -1.3912 -0.0043
12193TIP3   OH236511   0.516   6.162   6.626 -0.0694 -0.3247  0.2113
12193TIP3    H136512   0.438   6.204   6.660 -0.3830 -2.6024  2.4665
12193TIP3    H236513   0.589   6.215   6.659 -0.5606  0.7339 -0.3733
12194TIP3   OH236514   3.230   5.444   6.326 -0.2228  0.7032  0.1696
12194TIP3    H136515   3.281   5.379   6.375  0.2876  1.1110  0.1923
12194TIP3    H236516   3.173   5.393   6.269 -0.2198  0.2317  0.5909
12195TIP3   OH236517   4.665   6.267   4.131 -0.2171  0.3864  0.1492
12195TIP3    H136518   4.584   6.262   4.081  0.0301 -0.8334 -0.1471
12195TIP3    H236519   4.734   6.280   4.065 -0.1278  0.9435  0.3552
12196TIP3   OH236520   8.370   2.565   1.396 -0.0540  0.1953 -0.0164
12196TIP3    H136521   8.366   2.475   1.425  0.8836  0.0662 -0.2854
12196TIP3    H236522   8.291   2.577   1.342 -1.1752  0.1072  1.5969
12197TIP3   OH236523   8.416   2.770   0.680  0.0982 -0.0446  0.2071
12197TIP3    H136524   8.456   2.821   0.610 -0.4982 -0.0941 -0.1664
12197TIP3    H236525   8.459   2.802   0.760  0.6637  0.1177 -0.1611
12198TIP3   OH236526   6.795   3.186   0.018  0.0973 -0.5358 -0.2738
12198TIP3    H136527   6.792   3.112   0.078  0.5859  0.0470  0.4830
12198TIP3    H236528   6.886   3.190  -0.012  0.3585  0.4511  0.5937
12199TIP3   OH236529   1.457   4.140   0.311 -0.3536 -0.1628 -0.7629
12199TIP3    H136530   1.523   4.108   0.372  1.7406 -0.5166 -3.1479
12199TIP3    H236531   1.373   4.122   0.355  1.1103  1.2548  2.7555
12200TIP3   OH236532   4.342   5.371   6.703 -0.4885 -0.7115 -0.3185
12200TIP3    H136533   4.360   5.365   6.609 -2.0625  1.2466 -0.7693
12200TIP3    H236534   4.293   5.291   6.722 -0.4762 -0.9454 -1.2227
12201TIP3   OH236535   7.039   2.085   1.347  0.2675  0.0782 -0.3484
12201TIP3    H136536   6.978   2.159   1.339 -1.6596 -1.1714  2.0323
12201TIP3    H236537   7.107   2.117   1.407 -1.4449 -0.5563  2.0077
12202TIP3   OH236538   0.117   2.879   0.862 -0.4899 -0.3476 -0.2389
12202TIP3    H136539   0.177   2.809   0.889 -0.8470 -0.9767 -1.0554
12202TIP3    H236540   0.175   2.947   0.827 -0.0889  0.1051  1.2532
12203TIP3   OH236541   0.306   2.620   1.394 -0.1076  0.3669  0.4417
12203TIP3    H136542   0.252   2.626   1.315 -0.5486  0.2732  0.7351
12203TIP3    H236543   0.359   2.541   1.381  2.4033  2.2931 -1.3649
12204TIP3   OH236544   2.987   5.572   5.999  0.5202 -0.1362  0.1258
12204TIP3    H136545   2.977   5.556   6.093  2.0715 -1.3819  0.1110
12204TIP3    H236546   3.066   5.626   5.993  0.0266  0.5325 -0.4299
12205TIP3   OH236547   2.528   2.135   2.574 -0.1105  0.1741  0.3839
12205TIP3    H136548   2.608   2.182   2.599 -0.1534  0.7568 -0.5305
12205TIP3    H236549   2.551   2.043   2.582 -0.0484  0.3453  2.2852
12206TIP3   OH236550   7.023   7.863   2.695 -0.0667  0.2706  0.1737
12206TIP3    H136551   7.007   7.876   2.602 -0.4429  0.6793  0.2960
12206TIP3    H236552   6.942   7.891   2.738  0.7706  1.8656  0.7528
12207TIP3   OH236553   6.813   7.617   1.879  0.0449 -0.1307  0.1961
12207TIP3    H136554   6.808   7.700   1.926 -1.5769 -0.1666  0.1496
12207TIP3    H236555   6.888   7.625   1.821 -0.8749  1.8302 -0.7651
12208TIP3   OH236556   4.602   5.538   6.329 -0.8509  0.0599 -0.1729
12208TIP3    H136557   4.641   5.615   6.371 -0.7401 -0.5539  0.8848
12208TIP3    H236558   4.656   5.522   6.252 -0.4369  0.6108 -0.0008
12209TIP3   OH236559   8.143   6.280   3.769  0.2852 -0.0053 -0.0434
12209TIP3    H136560   8.218   6.275   3.710  0.6666  1.7793  0.2701
12209TIP3    H236561   8.135   6.373   3.790 -2.3688 -0.0900 -0.5225
12210TIP3   OH236562   2.446   7.380   4.744 -0.2301 -0.5979  0.0969
12210TIP3    H136563   2.392   7.390   4.666  0.6077  3.3029 -0.0627
12210TIP3    H236564   2.384   7.382   4.817 -0.5794  1.1154 -0.2264
12211TIP3   OH236565   2.217   6.728   6.972 -0.5926  0.0609  0.2114
12211TIP3    H136566   2.159   6.777   6.914  0.5484  2.8022  1.2807
12211TIP3    H236567   2.223   6.642   6.932 -3.2945  0.5216 -1.3393
12212TIP3   OH236568   3.248   7.210   3.901 -0.1949  0.0550  0.9325
12212TIP3    H136569   3.155   7.222   3.885 -0.0145  0.9699  0.5408
12212TIP3    H236570   3.258   7.217   3.996 -0.1847  2.5833  0.7964
12213TIP3   OH236571   6.168   7.413   4.974 -0.1426  0.5053  0.5661
12213TIP3    H136572   6.187   7.495   4.929  1.1375  0.7003  1.4459
12213TIP3    H236573   6.114   7.364   4.912  0.5395  1.2965 -0.6726
12214TIP3   OH236574   1.950   7.507   3.716  0.2885  0.0738 -0.1051
12214TIP3    H136575   1.920   7.598   3.707  0.3030  0.4170  2.9016
12214TIP3    H236576   2.039   7.508   3.680  1.6460  2.1102  3.0436
12215TIP3   OH236577   1.098   2.334   3.055  0.2083  0.2037  0.6176
12215TIP3    H136578   1.041   2.257   3.051  0.4902 -0.0607  1.6667
12215TIP3    H236579   1.186   2.298   3.065  0.2289  0.6787  2.2575
12216TIP3   OH236580   2.704   7.877   6.231 -0.3564 -0.0737  0.4790
12216TIP3    H136581   2.719   7.904   6.140 -1.1706 -0.8203  0.1283
12216TIP3    H236582   2.786   7.836   6.257 -1.4043 -3.3315 -1.1565
12217TIP3   OH236583   0.284   4.737   5.767 -0.1655 -0.0659  0.1512
12217TIP3    H136584   0.279   4.745   5.671  0.1687 -0.0662  0.1313
12217TIP3    H236585   0.336   4.812   5.795 -1.7507  0.8982  0.5108
12218TIP3   OH236586   5.764   0.619   6.449 -0.0300  0.6942  0.3597
12218TIP3    H136587   5.771   0.682   6.377  1.4822  0.4026  0.2273
12218TIP3    H236588   5.796   0.667   6.525 -1.9062  1.0953  0.9125
12219TIP3   OH236589   3.731   7.351   6.032 -0.5588  0.2527  0.1771
12219TIP3    H136590   3.802   7.287   6.041  0.6245  1.5769  0.5218
12219TIP3    H236591   3.652   7.302   6.052  0.5249 -0.6043  2.5194
12220TIP3   OH236592   2.146   4.085   4.722  0.4490 -0.2861  0.1077
12220TIP3    H136593   2.184   4.173   4.722  1.7177 -0.8181 -0.8782
12220TIP3    H236594   2.209   4.031   4.771 -0.2926 -0.6550  0.6636
12221TIP3   OH236595   2.113   4.807   3.931  0.2891  0.0710 -0.0503
12221TIP3    H136596   2.065   4.856   3.997  1.5221 -0.4772  1.2849
12221TIP3    H236597   2.145   4.729   3.977  1.9698  0.1476 -1.0244
12222TIP3   OH236598   3.352   6.918   6.550  0.0280 -0.0584  0.1609
12222TIP3    H136599   3.381   6.855   6.483  1.4658  0.2522  0.4700
12222TIP3    H236600   3.378   7.003   6.515 -0.3542  0.2129  0.5405
12223TIP3   OH236601   1.883   1.984   1.765 -0.2549  0.3007  0.0979
12223TIP3    H136602   1.876   2.078   1.777 -0.6710  0.1310  1.3106
12223TIP3    H236603   1.965   1.960   1.810 -0.2708  0.0527 -0.0008
12224TIP3   OH236604   2.286   2.280   1.378 -0.0971 -0.1710  0.1403
12224TIP3    H136605   2.217   2.216   1.393  0.3194 -0.5055  0.6603
12224TIP3    H236606   2.365   2.227   1.367  0.1428  0.2264 -0.0726
12225TIP3   OH236607   4.407   6.493   6.489  0.2845 -0.0559  0.3100
12225TIP3    H136608   4.421   6.489   6.395  0.8065  1.4551  0.3133
12225TIP3    H236609   4.394   6.402   6.515  0.1482 -0.4840 -1.2115
12226TIP3   OH236610   3.451   4.409   6.668 -0.0015 -0.2912  0.1912
12226TIP3    H136611   3.423   4.339   6.609 -1.9306  0.5785  0.0626
12226TIP3    H236612   3.544   4.392   6.682 -0.5237 -3.1679  0.5433
12227TIP3   OH236613   8.384   1.905   1.244 -0.4236 -0.4061 -0.1283
12227TIP3    H136614   8.308   1.959   1.224  0.0970 -0.3433 -2.0831
12227TIP3    H236615   8.367   1.822   1.200  0.6971 -0.3379 -0.7119
12228TIP3   OH236616   7.796   1.790   1.183 -0.0060  0.1978  0.1414
12228TIP3    H136617   7.793   1.812   1.090  1.6105  2.6529  0.6436
12228TIP3    H236618   7.707   1.806   1.215 -0.8673 -1.7537 -1.1840
12229TIP3   OH236619   4.064   7.029   6.397  0.4199 -0.7750  0.1432
12229TIP3    H136620   3.999   7.098   6.405  2.5858  1.1729  1.7528
12229TIP3    H236621   4.085   7.026   6.303  0.3997  0.8461  0.0821
12230TIP3   OH236622   0.860   1.234   1.878  0.0661 -0.1155  0.1406
12230TIP3    H136623   0.794   1.189   1.931  0.0862 -1.9587 -1.3570
12230TIP3    H236624   0.919   1.165   1.849  1.3535  1.1970 -0.4494
12231TIP3   OH236625   3.751   4.558   4.933 -0.3852 -0.3940 -0.4774
12231TIP3    H136626   3.827   4.562   4.991 -1.0775  0.2696  0.3835
12231TIP3    H236627   3.738   4.648   4.904 -0.9472 -0.4797 -0.4939
12232TIP3   OH236628   2.887   7.643   4.258  0.1396  0.4391 -0.7345
12232TIP3    H136629   2.810   7.699   4.247  1.0582  1.7024 -0.7561
12232TIP3    H236630   2.862   7.560   4.215 -1.4443  0.6002 -0.1542
12233TIP3   OH236631   0.431   2.965   0.278 -0.7999  0.2799 -0.0553
12233TIP3    H136632   0.524   2.960   0.301 -0.9744 -0.3481  0.5010
12233TIP3    H236633   0.385   2.949   0.360 -1.4057 -0.0458 -0.4587
12234TIP3   OH236634   2.599   6.203   6.342 -0.6696  0.0804  0.1666
12234TIP3    H136635   2.616   6.231   6.252  0.9823  0.2718  0.5200
12234TIP3    H236636   2.645   6.267   6.396 -1.3565 -0.2350  1.1438
12235TIP3   OH236637   4.441   6.734   6.633  0.3619  0.1497 -0.0324
12235TIP3    H136638   4.534   6.750   6.650  0.4622  0.8155 -1.1528
12235TIP3    H236639   4.440   6.654   6.579  0.1840 -0.6615  1.1410
12236TIP3   OH236640   1.873   5.579   6.175 -0.2659 -0.3831 -0.6251
12236TIP3    H136641   1.910   5.505   6.126  1.0198  0.0330 -0.3075
12236TIP3    H236642   1.949   5.634   6.196 -1.1506  0.7778 -0.4357
12237TIP3   OH236643   7.879   4.251   5.556  0.7451  0.0553 -0.8727
12237TIP3    H136644   7.843   4.274   5.642 -0.7622 -0.5861 -1.3214
12237TIP3    H236645   7.838   4.168   5.534  0.3319  0.7078 -2.6659
12238TIP3   OH236646   3.550   6.814   5.380 -0.6269  0.8677 -0.5437
12238TIP3    H136647   3.628   6.763   5.403 -0.9738  0.1865 -0.8630
12238TIP3    H236648   3.516   6.772   5.301 -1.3110  1.1735 -0.4190
12239TIP3   OH236649   7.305   1.662   2.141  0.2543 -0.1462  0.3741
12239TIP3    H136650   7.368   1.733   2.129 -0.5004  0.2213 -1.5135
12239TIP3    H236651   7.222   1.706   2.161 -0.1493 -0.4977 -0.5007
12240TIP3   OH236652   0.425   6.543   6.484 -0.1940 -0.4480  0.2353
12240TIP3    H136653   0.516   6.553   6.509  0.1180  0.2148 -1.0907
12240TIP3    H236654   0.376   6.598   6.546  0.3194 -0.7052  0.8640
12241TIP3   OH236655   1.425   7.623   4.584 -0.6342  0.1473  0.0307
12241TIP3    H136656   1.477   7.566   4.527  0.0648  1.1217 -0.3358
12241TIP3    H236657   1.367   7.564   4.631  0.7206 -0.9622  0.3484
12242TIP3   OH236658   1.250   5.240   0.318 -0.0770  0.3090  0.1013
12242TIP3    H136659   1.196   5.169   0.283  0.3920  0.5251 -1.0818
12242TIP3    H236660   1.216   5.255   0.406 -2.0529  0.5295 -0.6724
12243TIP3   OH236661   1.000   3.224   0.002  0.2329 -0.1905 -0.3256
12243TIP3    H136662   1.095   3.217  -0.002  0.3378 -0.1870  1.6265
12243TIP3    H236663   0.971   3.139   0.033 -0.2421  0.4222  0.9386
12244TIP3   OH236664   8.043   0.527   1.728  0.6688  0.1565  0.4911
12244TIP3    H136665   8.112   0.472   1.764  0.7521  0.2698  0.5053
12244TIP3    H236666   8.005   0.570   1.804  0.7757  0.3181  0.4534
12245TIP3   OH236667   4.204   0.069   5.788  0.2469  0.7319  0.5087
12245TIP3    H136668   4.201  -0.023   5.764 -1.2091 -0.0116  3.3359
12245TIP3    H236669   4.230   0.070   5.881  1.3041  3.2154  0.2475
12246TIP3   OH236670   4.223   6.983   6.810  0.0103  0.2317  0.0252
12246TIP3    H136671   4.158   6.967   6.742 -0.7229 -0.0641  0.7918
12246TIP3    H236672   4.227   6.901   6.860  2.0220 -0.2440 -0.8968
12247TIP3   OH236673   2.808   7.505   5.734  0.2159  0.0019  0.2495
12247TIP3    H136674   2.785   7.557   5.812  0.9869 -1.6833  1.6195
12247TIP3    H236675   2.866   7.437   5.767 -0.2987 -1.3765 -1.6526
12248TIP3   OH236676   5.088   0.030   4.453  0.1600 -0.1696 -0.2433
12248TIP3    H136677   5.175  -0.003   4.433  0.0831 -0.1797 -0.5658
12248TIP3    H236678   5.032  -0.007   4.385  0.0159  0.3675 -0.4214
12249TIP3   OH236679   6.736   0.655   5.931 -0.1094  0.0936 -0.6409
12249TIP3    H136680   6.728   0.646   5.836 -1.8842 -0.9882 -0.4128
12249TIP3    H236681   6.677   0.587   5.966 -0.0523  0.9894  1.2197
12250TIP3   OH236682   4.524   0.201   4.738  0.1949  0.3509  0.1770
12250TIP3    H136683   4.436   0.238   4.735  0.5103  1.0115 -1.1446
12250TIP3    H236684   4.513   0.119   4.787 -0.8545  1.2091  1.4199
12251TIP3   OH236685   1.330   5.854   5.863  0.7649  0.2547  0.3542
12251TIP3    H136686   1.370   5.824   5.945 -0.2205 -0.4845  0.5708
12251TIP3    H236687   1.272   5.782   5.837 -0.4155  1.2978  0.0470
12252TIP3   OH236688   3.071   7.869   4.503  0.6032  0.5810  0.0511
12252TIP3    H136689   3.066   7.957   4.467 -0.9696  0.9422  1.0695
12252TIP3    H236690   3.000   7.865   4.568  0.8381 -1.3241  0.2467
12253TIP3   OH236691   7.438   7.453   2.540 -0.0647 -0.2586  0.5348
12253TIP3    H136692   7.427   7.548   2.536 -2.1110 -0.4824  0.7658
12253TIP3    H236693   7.501   7.439   2.611  1.0821  0.9716 -0.2092
12254TIP3   OH236694   1.638   6.196   4.765  0.0863  0.4356  0.8336
12254TIP3    H136695   1.616   6.155   4.849  1.7068 -1.3854  0.4002
12254TIP3    H236696   1.562   6.250   4.744 -1.1605 -0.6257  2.5023
12255TIP3   OH236697   6.316   0.076   6.467  0.1494  0.0814 -0.1952
12255TIP3    H136698   6.235   0.037   6.499 -0.8671  1.2436 -1.2488
12255TIP3    H236699   6.331   0.151   6.524 -0.2380  0.6236 -0.7952
12256TIP3   OH236700   3.287   6.479   6.527 -0.1195  0.1941 -0.3618
12256TIP3    H136701   3.289   6.384   6.542  0.3039  0.0657 -1.1787
12256TIP3    H236702   3.292   6.488   6.432  0.8717  1.0688 -0.2381
12257TIP3   OH236703   6.360   2.270   1.935 -0.1323 -0.3610  0.5311
12257TIP3    H136704   6.386   2.179   1.950 -0.0035 -0.8046 -2.0518
12257TIP3    H236705   6.268   2.274   1.958 -0.2894 -1.3207  0.0709
12258TIP3   OH236706   3.420   5.287   6.450  0.7855 -0.5121 -0.0156
12258TIP3    H136707   3.477   5.356   6.485 -0.5957  0.1996  0.8788
12258TIP3    H236708   3.394   5.236   6.526 -0.2881 -0.4360 -0.3173
12259TIP3   OH236709   2.920   7.676   5.478  0.0398 -0.1786 -0.1914
12259TIP3    H136710   2.986   7.638   5.420  0.8047  0.0483  0.5225
12259TIP3    H236711   2.848   7.613   5.478  0.8777 -1.1529  0.1950
12260TIP3   OH236712   2.660   5.493   6.001 -0.6719 -0.0032  0.5796
12260TIP3    H136713   2.627   5.518   5.915 -0.6991  0.1297  0.6287
12260TIP3    H236714   2.609   5.546   6.063 -1.4194 -0.8809  0.7437
12261TIP3   OH236715   6.659   4.960   0.051  0.0433  0.1257 -0.5530
12261TIP3    H136716   6.678   4.888  -0.009  0.7463  0.6141 -0.9316
12261TIP3    H236717   6.668   5.039  -0.003  0.3661  0.5547  0.1193
12262TIP3   OH236718   1.257   3.579   5.134 -0.1396 -0.0472  0.6899
12262TIP3    H136719   1.350   3.570   5.154 -0.3701 -0.0562  1.7778
12262TIP3    H236720   1.224   3.489   5.131 -0.2455 -0.0183  0.9574
12263TIP3   OH236721   1.272   1.477   0.504 -0.5094  0.2181  0.5180
12263TIP3    H136722   1.179   1.498   0.507 -0.2153  1.6217  0.3437
12263TIP3    H236723   1.302   1.490   0.594 -0.5759 -0.7248  0.6825
12264TIP3   OH236724   1.303   5.210   6.877 -0.1990 -0.2354 -0.0746
12264TIP3    H136725   1.242   5.193   6.949 -2.6049 -1.6306 -2.3322
12264TIP3    H236726   1.269   5.289   6.835  0.0803 -0.5157 -0.8313
12265TIP3   OH236727   2.660   7.214   5.541  0.7270  0.2037  0.3209
12265TIP3    H136728   2.587   7.212   5.603  0.7858  1.4615  0.4648
12265TIP3    H236729   2.720   7.146   5.572 -0.4484 -0.9406  0.1051
12266TIP3   OH236730   7.419   0.237   0.183 -0.0908  0.2192 -0.5018
12266TIP3    H136731   7.509   0.224   0.213 -0.1418  0.4293 -0.2575
12266TIP3    H236732   7.405   0.166   0.119  1.7532  2.7865 -3.9309
12267TIP3   OH236733   2.133   6.166   6.868  0.1819  0.2145  0.2279
12267TIP3    H136734   2.187   6.244   6.879  3.7653 -1.7612 -2.1419
12267TIP3    H236735   2.163   6.106   6.936 -0.2522 -0.2800 -0.0138
12268TIP3   OH236736   1.665   6.086   3.877 -0.7862 -0.0491 -0.0233
12268TIP3    H136737   1.712   6.065   3.958 -0.2104  2.0968  0.2276
12268TIP3    H236738   1.732   6.080   3.808 -0.8125  0.1190 -0.0632
12269TIP3   OH236739   6.996   0.326   6.540 -0.1823  0.2476 -0.1533
12269TIP3    H136740   6.971   0.308   6.449  0.8098  0.8258 -0.5521
12269TIP3    H236741   7.016   0.240   6.577  0.5469  0.1185 -0.8343
12270TIP3   OH236742   5.314   6.221   6.618 -1.0453 -0.3942  0.4328
12270TIP3    H136743   5.280   6.171   6.692 -1.3883  0.0623  0.5886
12270TIP3    H236744   5.240   6.228   6.557 -0.8686 -0.4634  0.2066
12271TIP3   OH236745   4.792   7.178   6.218 -0.2909  0.5521  0.3838
12271TIP3    H136746   4.797   7.088   6.189 -0.4831  1.4943 -2.7086
12271TIP3    H236747   4.702   7.204   6.199  0.4270  2.1027 -1.0475
12272TIP3   OH236748   1.742   4.144   1.345 -0.1444  0.7775 -1.0159
12272TIP3    H136749   1.836   4.144   1.365 -0.2506  0.6307 -0.4938
12272TIP3    H236750   1.704   4.200   1.413 -0.4607  0.6608 -1.0966
12273TIP3   OH236751   1.533   3.546   0.033 -0.5454  0.1896 -0.1163
12273TIP3    H136752   1.527   3.515  -0.058 -1.2364  1.3077 -0.4659
12273TIP3    H236753   1.623   3.576   0.042  0.1370 -1.8395  0.2218
12274TIP3   OH236754   4.341   6.960   5.933  0.7241  1.3055 -0.5972
12274TIP3    H136755   4.341   6.928   5.843 -0.2420 -2.0507  0.5070
12274TIP3    H236756   4.423   6.929   5.970 -0.2680 -0.0793  0.5226
12275TIP3   OH236757   3.692   7.775   4.039 -0.1987  0.2284  0.1652
12275TIP3    H136758   3.646   7.717   4.099 -0.0043  0.1125  0.2001
12275TIP3    H236759   3.707   7.855   4.089 -0.9516  0.5166 -0.0524
12276TIP3   OH236760   2.200   3.298   0.879 -0.7924  0.3321 -0.0851
12276TIP3    H136761   2.123   3.256   0.918 -0.8676  0.0023 -0.5754
12276TIP3    H236762   2.203   3.262   0.790  0.8228 -0.8437  0.4290
12277TIP3   OH236763   6.709   0.061   5.007 -0.5478 -0.2635 -0.2920
12277TIP3    H136764   6.630   0.050   5.060 -0.1118 -0.2987  0.3603
12277TIP3    H236765   6.766  -0.011   5.035  0.9259  1.5051  1.4469
12278TIP3   OH236766   4.555   5.867   5.170  0.0202  0.0710 -0.5081
12278TIP3    H136767   4.608   5.936   5.130  1.2731 -0.7879 -0.3742
12278TIP3    H236768   4.529   5.902   5.255  2.3655 -0.3549  0.4500
12279TIP3   OH236769   6.322   5.496   5.572 -0.2170 -0.6085 -0.3814
12279TIP3    H136770   6.411   5.459   5.575 -0.8322 -2.0950  0.2285
12279TIP3    H236771   6.297   5.490   5.480 -0.2566 -1.6582 -0.3179
12280TIP3   OH236772   3.973   6.948   5.689  0.9451  0.2105 -0.2825
12280TIP3    H136773   3.950   6.861   5.656  0.0545  0.5554 -0.5882
12280TIP3    H236774   3.917   7.008   5.639  0.0745  0.8024  1.3735
12281TIP3   OH236775   3.782   6.269   6.147 -0.2348  0.3002  0.4067
12281TIP3    H136776   3.756   6.346   6.097 -1.9090 -0.8909 -0.6072
12281TIP3    H236777   3.721   6.200   6.119  1.5474 -1.5400  0.8843
12282TIP3   OH236778   4.753   5.267   4.905 -0.0859 -0.0883 -0.6852
12282TIP3    H136779   4.741   5.181   4.866 -1.8719 -0.0738 -0.1993
12282TIP3    H236780   4.747   5.327   4.830  2.3113 -0.4023 -1.2034
12283TIP3   OH236781   1.394   3.969   0.115  0.2808  0.5082 -0.9099
12283TIP3    H136782   1.341   4.015   0.049  1.2662  2.3680 -0.4276
12283TIP3    H236783   1.419   4.037   0.177  3.0017 -0.3949 -0.9562
12284TIP3   OH236784   7.920   5.935   4.944  0.4718 -0.1025 -0.1933
12284TIP3    H136785   7.888   5.973   4.861 -0.7913  0.5171  0.5605
12284TIP3    H236786   7.893   5.844   4.940  0.5016 -0.1006 -0.5142
12285TIP3   OH236787   5.530   5.773   5.313  0.6702  0.3050 -0.1597
12285TIP3    H136788   5.599   5.723   5.269  1.4930 -0.2205  1.6993
12285TIP3    H236789   5.501   5.717   5.385 -0.2827  1.3848  0.3135
12286TIP3   OH236790   3.699   4.738   5.272 -0.3746  0.2595 -0.2176
12286TIP3    H136791   3.709   4.643   5.265  1.1026  0.5258 -1.8563
12286TIP3    H236792   3.657   4.764   5.190 -0.3894  1.0828  0.0494
12287TIP3   OH236793   3.404   7.697   3.968  0.2726 -0.2324 -0.0570
12287TIP3    H136794   3.489   7.740   3.957 -0.1238  1.1111  1.9075
12287TIP3    H236795   3.423   7.604   3.962  1.6021  0.1164 -1.4738
12288TIP3   OH236796   7.215   0.050   3.748 -0.1535 -0.4937  0.0277
12288TIP3    H136797   7.166   0.067   3.829  0.9233 -0.4127  0.6671
12288TIP3    H236798   7.148   0.021   3.686 -1.2964  1.3145  0.3589
12289TIP3   OH236799   5.929   5.334   5.630  0.0942  0.1630 -0.1593
12289TIP3    H136800   5.853   5.392   5.622 -1.3112 -1.2105  2.5942
12289TIP3    H236801   5.996   5.389   5.670  0.0217  0.9273 -1.0631
12290TIP3   OH236802   0.451   1.950   0.513 -0.0439  0.6053 -0.0730
12290TIP3    H136803   0.377   2.010   0.518 -0.2201  0.5567 -1.8218
12290TIP3    H236804   0.505   1.972   0.589 -1.8401  0.6320  1.2237
12291TIP3   OH236805   7.019   0.543   4.877 -0.1550 -0.2178 -0.4955
12291TIP3    H136806   7.022   0.636   4.899 -1.6138 -0.2922  0.0750
12291TIP3    H236807   6.942   0.510   4.923  0.4247 -1.7394 -0.5869
12292TIP3   OH236808   2.444   7.212   6.622 -0.1968 -0.4684  0.6179
12292TIP3    H136809   2.457   7.300   6.587  0.0906 -0.6314  0.3194
12292TIP3    H236810   2.372   7.222   6.684 -0.4037 -0.0889  0.3204
12293TIP3   OH236811   1.673   3.460   1.118 -0.2137  0.1769  0.3402
12293TIP3    H136812   1.718   3.428   1.196 -0.5591  1.7296  1.1962
12293TIP3    H236813   1.738   3.451   1.047 -0.3280 -2.4391  0.5179
12294TIP3   OH236814   4.037   6.440   4.444 -0.7354 -0.0618 -0.0089
12294TIP3    H136815   4.076   6.420   4.529 -0.6231  1.1386  0.2298
12294TIP3    H236816   4.102   6.411   4.380 -0.9663 -1.2858  0.2910
12295TIP3   OH236817   5.072   7.200   6.550  0.1571 -0.2411  0.4275
12295TIP3    H136818   5.132   7.190   6.624  0.2300  0.8870  0.5294
12295TIP3    H236819   5.071   7.294   6.533  1.8823 -0.6990 -2.4530
12296TIP3   OH236820   2.837   6.942   3.328 -0.1828  0.0055 -0.2437
12296TIP3    H136821   2.767   6.959   3.391 -0.5289  0.0251 -0.6273
12296TIP3    H236822   2.833   6.848   3.312  0.2446 -0.0801  0.1572
12297TIP3   OH236823   6.507   0.477   4.820  0.4028 -0.0149  0.7480
12297TIP3    H136824   6.535   0.537   4.752  1.1332  0.7416  1.7068
12297TIP3    H236825   6.573   0.485   4.889 -0.1080 -1.0565  1.3845
12298TIP3   OH236826   3.777   6.988   4.998 -0.7251 -0.1848  0.0338
12298TIP3    H136827   3.776   6.895   5.019  1.3979  0.0318  1.2480
12298TIP3    H236828   3.813   6.992   4.910 -0.5116 -0.5028  0.1048
12299TIP3   OH236829   3.196   5.915   4.722  0.0756  0.5503  0.1374
12299TIP3    H136830   3.121   5.937   4.778  1.6098  0.5183  2.2430
12299TIP3    H236831   3.230   6.000   4.693 -0.7163  0.5668 -0.7660
12300TIP3   OH236832   5.740   6.989   3.970  0.0235 -0.1944 -0.2480
12300TIP3    H136833   5.683   7.018   4.041  1.4004 -1.0494  1.2257
12300TIP3    H236834   5.679   6.959   3.902 -1.3066  0.6915  0.5227
12301TIP3   OH236835   5.448   5.643   4.014  0.0387  0.3598 -0.0064
12301TIP3    H136836   5.506   5.618   3.942 -0.6373  0.7027 -0.6875
12301TIP3    H236837   5.480   5.729   4.041  0.9403 -0.2197  0.8081
12302TIP3   OH236838   5.309   7.416   4.719  0.1042  0.6063 -0.4862
12302TIP3    H136839   5.222   7.382   4.743 -0.3140  1.5367 -0.6731
12302TIP3    H236840   5.290   7.492   4.665  1.0462  2.2735  1.5065
12303TIP3   OH236841   4.876   6.999   6.524 -0.1538  0.0782 -0.0437
12303TIP3    H136842   4.889   6.934   6.593 -0.4175 -0.2812 -0.3265
12303TIP3    H236843   4.949   7.059   6.533 -1.1485  1.0775  1.7099
12304TIP3   OH236844   3.939   5.779   5.265 -0.0728  0.2010  0.7683
12304TIP3    H136845   4.030   5.768   5.294 -0.0162  0.3883  0.6574
12304TIP3    H236846   3.910   5.690   5.245 -0.0307  0.0973  1.1570
12305TIP3   OH236847   3.044   6.426   5.413  0.4542 -0.4750 -0.8054
12305TIP3    H136848   3.123   6.375   5.395  1.0716 -0.0589  0.5939
12305TIP3    H236849   3.074   6.494   5.474 -1.1869 -0.9616  0.5766
12306TIP3   OH236850   7.695   2.251   0.364 -0.4365 -0.1677 -0.4944
12306TIP3    H136851   7.737   2.336   0.363  2.1587 -1.3645  1.4527
12306TIP3    H236852   7.687   2.229   0.457 -2.0388 -1.6069 -0.9288
12307TIP3   OH236853   4.513   6.013   5.437  0.0401 -0.2000 -0.1231
12307TIP3    H136854   4.509   6.108   5.431  0.5830 -0.3858 -4.9273
12307TIP3    H236855   4.579   5.997   5.505  0.6292  2.8306  0.1059
12308TIP3   OH236856   0.200   0.592   6.880 -0.1381  0.3702  1.0519
12308TIP3    H136857   0.111   0.597   6.844 -0.6247  0.9989  2.2914
12308TIP3    H236858   0.228   0.503   6.862 -1.7995 -0.4701  2.3977
12309TIP3   OH236859   4.237   5.707   5.655  0.3410 -0.0190 -0.0423
12309TIP3    H136860   4.192   5.792   5.663  0.4669 -0.0612  1.1217
12309TIP3    H236861   4.327   5.729   5.632  0.6729  0.2216  1.4400
12310TIP3   OH236862   1.274   4.317   0.511  0.2241 -0.4544  0.2483
12310TIP3    H136863   1.294   4.400   0.468  1.9335 -0.3196  1.2760
12310TIP3    H236864   1.298   4.331   0.603  3.1616 -2.9644 -0.0695
12311TIP3   OH236865   4.259   7.369   2.875 -0.0466 -0.1821 -0.4368
12311TIP3    H136866   4.180   7.364   2.930 -0.2487 -0.1732 -0.7265
12311TIP3    H236867   4.268   7.281   2.839  0.8147 -0.5320  0.6236
12312TIP3   OH236868   5.672   7.624   6.210  0.5260  0.3662  0.2735
12312TIP3    H136869   5.587   7.586   6.190 -0.2180  2.0120  0.2430
12312TIP3    H236870   5.654   7.716   6.227  1.7828  0.0603  3.8448
12313TIP3   OH236871   3.042   4.376   3.551  0.2965  0.3821 -0.1055
12313TIP3    H136872   3.116   4.426   3.587 -1.2656  2.5329  0.2297
12313TIP3    H236873   3.083   4.306   3.501  2.5957  2.0816 -0.6916
12314TIP3   OH236874   1.241   7.390   6.150 -0.3787  0.3303 -0.0487
12314TIP3    H136875   1.149   7.414   6.140 -0.6342 -0.3312  0.6044
12314TIP3    H236876   1.276   7.388   6.061 -0.2185  3.5162 -0.1471
12315TIP3   OH236877   3.666   7.325   5.189 -0.1566  0.3570 -0.0519
12315TIP3    H136878   3.578   7.302   5.219 -0.6464  1.4676 -0.6076
12315TIP3    H236879   3.685   7.408   5.231  0.1841  0.6561 -0.7844
12316TIP3   OH236880   0.497   1.748   0.320  0.0082 -0.3672 -0.6242
12316TIP3    H136881   0.490   1.790   0.406 -0.0944  0.0565 -0.8357
12316TIP3    H236882   0.460   1.812   0.260  0.4864 -0.4831 -1.0434
12317TIP3   OH236883   2.371   6.392   6.005  0.1339  0.2957 -0.0223
12317TIP3    H136884   2.334   6.357   6.087  0.1380  0.0855 -0.1094
12317TIP3    H236885   2.349   6.326   5.939  1.9973 -0.5682  0.2002
12318TIP3   OH236886   2.875   4.091   0.926 -0.2657  0.8084  0.4166
12318TIP3    H136887   2.892   4.120   0.837 -1.5956 -1.5277 -0.6486
12318TIP3    H236888   2.931   4.014   0.938  0.9550  1.9179  2.1151
12319TIP3   OH236889   5.660   7.489   5.944 -0.3290 -0.2318  0.3635
12319TIP3    H136890   5.622   7.515   5.860  0.1736  0.3380  0.3087
12319TIP3    H236891   5.643   7.563   6.003 -1.6796 -1.0896  1.0908
12320TIP3   OH236892   3.514   6.602   4.925 -0.6553 -0.2691  0.5264
12320TIP3    H136893   3.500   6.574   4.834 -0.4007 -0.2409  0.4749
12320TIP3    H236894   3.606   6.579   4.942 -0.1477  1.3914  0.1530
12321TIP3   OH236895   6.360   0.520   5.413 -0.5393  0.3133  0.2830
12321TIP3    H136896   6.422   0.585   5.378  0.3003  0.1743  1.4610
12321TIP3    H236897   6.384   0.512   5.506  0.7775 -3.2641 -0.2825
12322TIP3   OH236898   3.806   5.251   5.237 -0.6435  0.0303 -0.5435
12322TIP3    H136899   3.819   5.156   5.237 -3.7781 -0.5261  2.9065
12322TIP3    H236900   3.726   5.264   5.185  0.0483  0.8297 -1.4094
12323TIP3   OH236901   7.120   0.021   4.994 -0.0188  0.2562 -0.4169
12323TIP3    H136902   7.026   0.005   5.000 -0.0500  0.3273 -0.6780
12323TIP3    H236903   7.143   0.065   5.076  0.1540 -1.5057  0.4830
12324TIP3   OH236904   3.140   4.252   0.796 -0.3694  0.1445 -0.9966
12324TIP3    H136905   3.223   4.251   0.842 -0.5574 -1.6889 -0.6512
12324TIP3    H236906   3.103   4.339   0.813  0.3201  0.0723  0.9163
12325TIP3   OH236907   6.820   0.897   4.143 -0.1775  0.1291  0.5131
12325TIP3    H136908   6.840   0.945   4.224 -0.9961 -0.3145  0.9764
12325TIP3    H236909   6.732   0.924   4.120 -0.2557 -0.3786  0.2126
12326TIP3   OH236910   4.660   4.892   6.531  0.3634  0.1094  0.2256
12326TIP3    H136911   4.635   4.876   6.440 -0.7497  0.6587  0.4285
12326TIP3    H236912   4.684   4.985   6.533  2.7879 -0.4688 -0.0369
12327TIP3   OH236913   5.591   4.227   6.282 -0.1394  0.0275 -0.5083
12327TIP3    H136914   5.529   4.236   6.209 -0.0755  1.7671 -0.3852
12327TIP3    H236915   5.615   4.318   6.303  0.8441 -0.5342  0.8183
12328TIP3   OH236916   4.005   5.001   6.310  0.1342  0.2709 -0.0558
12328TIP3    H136917   4.050   5.061   6.370 -0.0598  1.5647 -1.1603
12328TIP3    H236918   4.049   5.014   6.226  1.0810 -2.2784  0.0113
12329TIP3   OH236919   4.545   7.317   2.855 -0.0186 -0.3104 -0.7926
12329TIP3    H136920   4.494   7.237   2.846 -1.1694  0.3313 -0.1496
12329TIP3    H236921   4.557   7.327   2.949  2.6313 -1.2624 -0.9967
12330TIP3   OH236922   4.752   4.587   5.963 -0.8404 -0.8187 -0.0647
12330TIP3    H136923   4.756   4.631   5.878  2.6010 -0.3766  0.2637
12330TIP3    H236924   4.728   4.497   5.942  1.9631 -1.2384 -1.7732
12331TIP3   OH236925   2.435   4.968   4.488  0.3512 -0.4751  0.2503
12331TIP3    H136926   2.374   4.920   4.433 -0.1876 -0.8557  1.1591
12331TIP3    H236927   2.427   5.059   4.460  0.0847 -0.6699 -0.2966
12332TIP3   OH236928   5.732   6.612   6.697  0.2995 -0.3935  0.4529
12332TIP3    H136929   5.679   6.548   6.746  2.7485 -2.1163  0.9422
12332TIP3    H236930   5.801   6.637   6.758 -0.4128  2.4909  0.1220
12333TIP3   OH236931   5.080   6.689   2.854  0.0101  0.3359 -0.0268
12333TIP3    H136932   5.110   6.758   2.913  1.5426 -0.3269 -0.0100
12333TIP3    H236933   4.985   6.702   2.848  0.1615  1.8707  0.6921
12334TIP3   OH236934   1.836   3.387   0.901 -0.0262  0.7267 -0.0461
12334TIP3    H136935   1.885   3.314   0.938  0.1767  1.9533  2.1612
12334TIP3    H236936   1.773   3.346   0.842  0.5564 -1.1712  0.6207
12335TIP3   OH236937   5.146   5.512   4.166 -0.2399  0.7344  0.7721
12335TIP3    H136938   5.124   5.555   4.083 -0.2867 -2.6123 -1.0099
12335TIP3    H236939   5.062   5.482   4.200  0.0199  0.3047  1.0269
12336TIP3   OH236940   2.442   0.453   0.874  0.6937 -0.3593 -0.1996
12336TIP3    H136941   2.521   0.441   0.821 -0.7532 -0.8754 -2.2697
12336TIP3    H236942   2.423   0.547   0.867  0.0483 -0.5721 -1.2284
12337TIP3   OH236943   3.416   6.053   4.274 -0.0425  0.3372 -0.1233
12337TIP3    H136944   3.428   6.074   4.181  4.0620  0.4514  0.3539
12337TIP3    H236945   3.467   6.120   4.320 -2.2733  0.4670  2.2703
12338TIP3   OH236946   4.355   6.651   3.960  0.3009 -0.5435  0.1688
12338TIP3    H136947   4.325   6.734   3.921  1.8493 -0.1624 -0.2307
12338TIP3    H236948   4.401   6.678   4.040 -2.8373 -1.3038  2.3705
12339TIP3   OH236949   6.299   0.281   5.233  0.0007 -0.4973  0.1076
12339TIP3    H136950   6.309   0.263   5.140  0.5511 -0.2623  0.1180
12339TIP3    H236951   6.269   0.198   5.270  0.8891 -0.9242 -0.1074
12340TIP3   OH236952   3.832   6.370   6.394  0.3626 -0.0527  0.1589
12340TIP3    H136953   3.907   6.426   6.372 -0.9589  2.2116  1.2695
12340TIP3    H236954   3.795   6.346   6.309  0.3491  1.6404 -0.3427
12341TIP3   OH236955   3.088   5.674   4.911 -0.5454 -0.2749  0.0768
12341TIP3    H136956   3.088   5.626   4.829 -1.6749  0.3330 -0.3010
12341TIP3    H236957   3.022   5.742   4.899 -1.2711 -0.6386  1.7505
12342TIP3   OH236958   4.860   6.980   5.872 -0.0464  0.5635  0.3239
12342TIP3    H136959   4.859   6.887   5.892 -0.1327  0.3191 -0.7825
12342TIP3    H236960   4.770   7.001   5.849  0.4226  0.3565 -1.8586
12343TIP3   OH236961   4.026   7.385   4.833 -0.0949  0.3378 -0.0573
12343TIP3    H136962   4.064   7.298   4.845 -1.6623 -0.8440 -3.0803
12343TIP3    H236963   3.980   7.403   4.915 -0.9808 -2.3566  0.0689
12344TIP3   OH236964   4.284   5.712   4.672  0.0359 -0.5182  0.2641
12344TIP3    H136965   4.237   5.794   4.689  0.0189 -0.5672  0.4480
12344TIP3    H236966   4.282   5.665   4.755  0.2040 -0.6252  0.2072
12345TIP3   OH236967   3.407   4.986   5.085 -0.2725 -0.0497 -1.1466
12345TIP3    H136968   3.337   5.003   5.148 -0.4262 -1.5904 -0.8918
12345TIP3    H236969   3.458   5.067   5.084 -0.7934  0.3137  0.2792
12346TIP3   OH236970   7.557   0.930   6.723 -0.1776 -0.3132 -0.6854
12346TIP3    H136971   7.597   0.893   6.801 -1.0371  0.4096  0.0976
12346TIP3    H236972   7.617   0.904   6.652  0.6266 -0.9308  0.1950
12347TIP3   OH236973   4.266   7.432   5.009  0.2141 -0.3924  0.0829
12347TIP3    H136974   4.194   7.457   5.068 -0.3704 -0.8374 -0.4339
12347TIP3    H236975   4.232   7.449   4.921  0.2252 -1.8774 -0.2289
12348TIP3   OH236976   4.096   7.876   4.368 -0.2488  0.3146  0.2762
12348TIP3    H136977   4.149   7.935   4.420  0.2993 -0.2663  0.3852
12348TIP3    H236978   4.007   7.911   4.374  0.3748  2.2028 -1.2222
12349TIP3   OH236979   2.389   5.200   4.378  0.5600  0.0863  0.2419
12349TIP3    H136980   2.309   5.162   4.343  0.9010 -0.6134  0.2121
12349TIP3    H236981   2.442   5.221   4.301  0.8019 -0.3242  0.2986
12350TIP3   OH236982   2.716   1.973   0.255 -0.0408  0.1927 -0.1726
12350TIP3    H136983   2.681   1.918   0.326  2.9634 -0.8714  0.5630
12350TIP3    H236984   2.715   2.062   0.291  2.3188 -0.4583  1.6185
12351TIP3   OH236985   6.422   5.987   5.671  0.0628  0.1985  0.7033
12351TIP3    H136986   6.344   6.035   5.644 -0.2786 -1.2776 -0.9822
12351TIP3    H236987   6.391   5.900   5.693  1.3902 -0.8368 -1.3598
12352TIP3   OH236988   4.929   6.496   5.553 -0.1564 -0.1546 -0.1272
12352TIP3    H136989   5.021   6.492   5.579  0.6830  3.3108 -2.1451
12352TIP3    H236990   4.883   6.531   5.629  0.7382  1.1237 -0.1653
12353TIP3   OH236991   4.659   5.626   6.075 -0.2928  0.0425 -0.3331
12353TIP3    H136992   4.654   5.536   6.041  1.6670 -0.9008  1.6722
12353TIP3    H236993   4.631   5.681   6.003 -0.8470 -2.1584 -1.8518
12354TIP3   OH236994   5.685   7.416   4.695 -0.2890 -0.1834 -0.2762
12354TIP3    H136995   5.645   7.335   4.724 -1.8591  0.7566  0.2434
12354TIP3    H236996   5.641   7.437   4.613  0.5589 -0.1797 -0.7376
12355TIP3   OH236997   4.115   5.411   5.328  0.5248 -0.5395 -0.3713
12355TIP3    H136998   4.135   5.466   5.252  1.5166  0.7865  0.8213
12355TIP3    H236999   4.083   5.329   5.290 -1.9370  1.1755 -2.1919
12356TIP3   OH237000   1.843   1.781   0.618  0.4059 -0.7951 -0.1246
12356TIP3    H137001   1.817   1.797   0.528 -0.4364 -0.6322  0.1419
12356TIP3    H237002   1.761   1.787   0.668  1.0567  0.4069  0.8201
12357TIP3   OH237003   2.287   6.616   5.371 -0.3214  0.3180  0.2366
12357TIP3    H137004   2.214   6.629   5.310 -0.3989  0.9556  0.4662
12357TIP3    H237005   2.359   6.666   5.334 -0.1772  0.1844  0.3353
12358TIP3   OH237006   2.207   3.219   0.605  0.0209 -0.3699 -0.1353
12358TIP3    H137007   2.113   3.207   0.586 -0.2587 -1.9129  2.0266
12358TIP3    H237008   2.248   3.139   0.571 -0.0672 -1.7035  2.7983
12359TIP3   OH237009   5.534   6.845   6.049 -0.2398 -0.1233 -0.0137
12359TIP3    H137010   5.493   6.887   5.974 -1.6395  0.0053  0.7987
12359TIP3    H237011   5.498   6.891   6.125  0.4306 -0.8724  0.7668
12360TIP3   OH237012   4.064   7.502   6.839 -0.7936  0.3224  0.4893
12360TIP3    H137013   4.077   7.559   6.914 -2.2661  0.9126  0.3111
12360TIP3    H237014   4.072   7.413   6.874 -2.5022  0.5691  1.5441
12361TIP3   OH237015   4.436   5.288   2.995  0.0797  0.4560  0.1410
12361TIP3    H137016   4.488   5.368   2.992  0.4800  0.1707 -0.7719
12361TIP3    H237017   4.418   5.274   3.088  0.4042  1.3464  0.3407
12362TIP3   OH237018   6.816   0.572   4.136 -0.2843  0.2558  0.0901
12362TIP3    H137019   6.780   0.546   4.052  1.0577 -1.4859  0.0188
12362TIP3    H237020   6.821   0.667   4.133 -2.3833  0.3551 -0.8901
12363TIP3   OH237021   7.195   6.572   4.258  0.2300 -0.3927 -0.2147
12363TIP3    H137022   7.184   6.657   4.301 -0.9308 -0.2619 -0.7491
12363TIP3    H237023   7.153   6.510   4.317 -2.8990  0.0130 -1.9256
12364TIP3   OH237024   6.752   4.934   4.664 -0.4190  0.0479  0.4790
12364TIP3    H137025   6.763   4.936   4.759  0.5132 -3.4444  0.5088
12364TIP3    H237026   6.658   4.920   4.651 -0.2745 -1.4524  0.9541
12365TIP3   OH237027   3.453   5.262   5.850 -0.2467 -0.4553 -0.4832
12365TIP3    H137028   3.450   5.181   5.801 -2.2288 -1.0079  0.5022
12365TIP3    H237029   3.421   5.329   5.789  0.6235 -0.5478 -1.0401
12366TIP3   OH237030   3.687   6.511   6.048  0.2257 -0.8809 -0.4369
12366TIP3    H137031   3.670   6.594   6.093  1.0952  0.9554 -3.4147
12366TIP3    H237032   3.603   6.490   6.006  0.1402 -1.3062 -0.0615
12367TIP3   OH237033   4.074   7.338   3.470  0.0770 -0.0883 -0.4833
12367TIP3    H137034   4.138   7.282   3.427  2.1421  1.7805  0.0549
12367TIP3    H237035   4.098   7.335   3.563 -1.8442 -0.9153  0.0039
12368TIP3   OH237036   3.567   6.468   5.308  0.4411 -0.0504 -0.0907
12368TIP3    H137037   3.659   6.492   5.297  0.3602  1.1807  1.7307
12368TIP3    H237038   3.564   6.374   5.290  1.7873  0.1849 -1.6426
12369TIP3   OH237039   4.532   5.786   5.628  0.0184  0.0024 -0.3001
12369TIP3    H137040   4.524   5.760   5.720  1.0591 -2.6113 -0.9185
12369TIP3    H237041   4.620   5.823   5.622  0.4091 -0.9382 -0.4847
12370TIP3   OH237042   5.451   5.503   6.411 -0.3115 -0.4316  0.5810
12370TIP3    H137043   5.414   5.555   6.340  1.0561 -0.7765 -0.3887
12370TIP3    H237044   5.459   5.565   6.484  1.2485  0.7196 -0.5459
12371TIP3   OH237045   3.550   5.765   3.697  0.1414  0.3169 -0.4585
12371TIP3    H137046   3.510   5.769   3.610  0.7101  0.9553 -0.7000
12371TIP3    H237047   3.478   5.781   3.758 -0.1228  0.5980 -0.8450
12372TIP3   OH237048   5.015   6.593   5.301  0.1362  0.0999 -0.0528
12372TIP3    H137049   4.930   6.632   5.279  0.1014 -0.0221 -0.1318
12372TIP3    H237050   5.004   6.559   5.389  0.2714  0.5754  0.1498
12373TIP3   OH237051   7.561   0.864   4.385  0.0256 -0.0999  0.0447
12373TIP3    H137052   7.548   0.946   4.433 -2.1355  0.0606 -0.7854
12373TIP3    H237053   7.589   0.801   4.452 -1.2796  0.5519  1.2353
12374TIP3   OH237054   7.727   7.803   0.340 -0.1489 -0.2006  0.6800
12374TIP3    H137055   7.713   7.797   0.434  0.7969  2.9676  1.0791
12374TIP3    H237056   7.822   7.816   0.330 -0.2821 -0.1305 -0.6703
12375TIP3   OH237057   4.787   6.554   6.377 -0.7684 -0.3193  0.3046
12375TIP3    H137058   4.795   6.649   6.364 -0.4047 -0.0940  2.0517
12375TIP3    H237059   4.709   6.530   6.328  1.0351  0.2885 -3.0500
12376TIP3   OH237060   3.455   7.917   3.742 -0.3143  0.1131 -0.1634
12376TIP3    H137061   3.433   7.877   3.658  0.2096  0.5519 -0.5124
12376TIP3    H237062   3.526   7.978   3.722 -1.7583  1.9375  0.2003
12377TIP3   OH237063   3.587   5.640   6.918  0.3740  1.0259  0.0389
12377TIP3    H137064   3.506   5.681   6.890  0.2962  0.9083  0.0930
12377TIP3    H237065   3.607   5.680   7.002  0.8133  1.6643 -0.3618
12378TIP3   OH237066   2.830   6.692   4.184  0.3155  0.2935  0.1763
12378TIP3    H137067   2.876   6.776   4.179 -0.3843  0.7044  0.4250
12378TIP3    H237068   2.806   6.684   4.276  1.8834 -1.0181  0.4880
12379TIP3   OH237069   2.113   2.435   0.448  0.0190 -0.0816 -0.0018
12379TIP3    H137070   2.104   2.511   0.504 -0.5056 -1.1727  1.4234
12379TIP3    H237071   2.032   2.431   0.398 -0.7318 -0.7296  1.2419
12380TIP3   OH237072   4.212   3.740   4.817 -0.1250  0.3311  0.3209
12380TIP3    H137073   4.196   3.660   4.767  1.2615 -0.1430  0.5840
12380TIP3    H237074   4.182   3.811   4.761 -0.4211 -0.3179 -0.3496
12381TIP3   OH237075   4.453   7.433   5.411 -0.6431 -0.4873  0.2013
12381TIP3    H137076   4.375   7.486   5.428  0.2799  0.5055  1.5101
12381TIP3    H237077   4.513   7.493   5.368  0.7152 -0.2005  2.4202
12382TIP3   OH237078   6.894   0.541   3.661 -0.1987  0.5382 -0.3101
12382TIP3    H137079   6.968   0.555   3.602  0.1698  0.1090  0.0475
12382TIP3    H237080   6.822   0.518   3.603  0.1587  0.1287 -0.5954
12383TIP3   OH237081   3.654   5.285   4.145 -0.4935 -0.4384 -0.4134
12383TIP3    H137082   3.648   5.265   4.052  1.0349  1.7531 -1.0238
12383TIP3    H237083   3.566   5.316   4.169 -0.4538  0.5975 -1.5387
12384TIP3   OH237084   5.450   6.477   4.882 -0.1087 -0.1767 -0.4294
12384TIP3    H137085   5.503   6.550   4.915  0.5505 -0.6846 -0.3528
12384TIP3    H237086   5.503   6.399   4.900 -1.7046 -0.8835  1.3318
12385TIP3   OH237087   5.578   5.470   5.814  0.2466 -0.3190 -0.2279
12385TIP3    H137088   5.622   5.386   5.827 -0.8594 -1.2017 -2.0344
12385TIP3    H237089   5.643   5.524   5.769  1.2341  0.0905  1.6238
12386TIP3   OH237090   7.940   1.884   0.493  0.1271 -0.5416 -0.7455
12386TIP3    H137091   7.920   1.858   0.583  0.7166 -1.7095 -0.9351
12386TIP3    H237092   8.003   1.955   0.501 -1.1419  0.5567 -0.2167
12387TIP3   OH237093   4.043   5.545   5.913 -0.0679  0.0282 -0.5499
12387TIP3    H137094   4.050   5.484   5.986 -0.4106 -0.8508 -1.2302
12387TIP3    H237095   4.131   5.580   5.902  0.1579 -0.4243 -0.2080
12388TIP3   OH237096   4.645   4.677   5.526 -0.5651 -0.2530 -0.1290
12388TIP3    H137097   4.671   4.762   5.490 -0.0438 -0.1666  0.4356
12388TIP3    H237098   4.569   4.696   5.581 -0.1632 -0.0640  0.3759
12389TIP3   OH237099   8.165   7.019   4.420 -0.1866  0.0308 -0.5307
12389TIP3    H137100   8.226   7.010   4.346  0.6805 -0.6214  0.2471
12389TIP3    H237101   8.085   7.053   4.381  0.5036  0.3980 -1.6628
12390TIP3   OH237102   2.868   7.489   4.571  0.2269  0.8456 -0.0931
12390TIP3    H137103   2.820   7.551   4.625 -1.5990 -0.3138 -0.3172
12390TIP3    H237104   2.857   7.521   4.482 -2.4307 -0.8120 -0.4291
12391TIP3   OH237105   5.919   5.969   5.614  0.4511 -0.3337  0.0940
12391TIP3    H137106   5.894   5.888   5.658 -2.8981  0.9595  0.6753
12391TIP3    H237107   5.860   6.035   5.650  1.9106  2.0221 -1.7207
12392TIP3   OH237108   2.831   7.214   6.113 -0.5448 -0.3187  0.4307
12392TIP3    H137109   2.887   7.208   6.190 -1.2073 -0.0925  0.9373
12392TIP3    H237110   2.763   7.277   6.138 -2.4458 -2.3969  0.7347
12393TIP3   OH237111   4.924   7.583   6.209 -0.2557 -0.3593  0.1067
12393TIP3    H137112   4.966   7.616   6.130 -0.4309  0.8309  0.4971
12393TIP3    H237113   4.857   7.648   6.229 -1.0127 -1.2702  0.5598
12394TIP3   OH237114   3.797   6.350   4.522 -0.2286 -0.4694  0.9750
12394TIP3    H137115   3.878   6.361   4.472 -0.2932  0.0401  0.9804
12394TIP3    H237116   3.731   6.331   4.455 -0.3225  0.2539  0.8645
12395TIP3   OH237117   7.819   0.449   4.873 -0.4379 -0.5502 -0.1135
12395TIP3    H137118   7.766   0.442   4.794 -0.6933  1.9917 -0.2030
12395TIP3    H237119   7.759   0.428   4.944 -0.8175 -0.5230 -0.4252
12396TIP3   OH237120   3.106   7.217   5.522  0.1524 -0.4003  0.6221
12396TIP3    H137121   3.061   7.258   5.448  1.6895  0.2590  0.0337
12396TIP3    H237122   3.111   7.125   5.499  1.0814 -0.1144 -0.3486
12397TIP3   OH237123   3.160   2.765   0.101  0.2815 -0.6205 -0.3314
12397TIP3    H137124   3.235   2.725   0.056  1.4703  0.6254  0.4680
12397TIP3    H237125   3.200   2.829   0.160 -1.5092  1.0100 -0.8371
12398TIP3   OH237126   4.377   5.954   2.167 -0.4720  0.2060 -0.3254
12398TIP3    H137127   4.469   5.929   2.170 -0.9975 -1.7611 -0.1160
12398TIP3    H237128   4.377   6.047   2.190  1.7265  1.0139 -3.2938
12399TIP3   OH237129   4.711   7.985   5.739  0.0403 -0.1034 -0.5118
12399TIP3    H137130   4.740   8.072   5.711  1.7669 -1.0625 -1.7889
12399TIP3    H237131   4.690   7.940   5.657 -0.4267 -1.0481  0.1176
12400TIP3   OH237132   3.622   5.736   4.926  0.2503  0.0358 -0.4590
12400TIP3    H137133   3.641   5.827   4.947  0.9318 -0.2311  0.0868
12400TIP3    H237134   3.534   5.738   4.887  0.4959  0.9847 -0.9556
12401TIP3   OH237135   0.644   3.962   0.026 -0.4142  0.0492  0.2821
12401TIP3    H137136   0.706   3.908   0.074  0.4316  1.4025  0.7443
12401TIP3    H237137   0.591   3.900  -0.024  1.1824 -1.1456  0.0446
12402TIP3   OH237138   2.284   7.437   3.146 -0.2643  0.2317  0.3131
12402TIP3    H137139   2.294   7.354   3.192 -0.2099  0.8045  1.3639
12402TIP3    H237140   2.305   7.503   3.212 -0.3179  1.0771 -0.5078
12403TIP3   OH237141   2.663   2.026   1.072 -0.1334  0.2149  0.2915
12403TIP3    H137142   2.722   2.049   1.144 -1.5968 -0.0582  1.5970
12403TIP3    H237143   2.613   1.951   1.104 -1.9922  1.1411 -0.3393
12404TIP3   OH237144   1.286   3.105   0.226  0.0991  0.1098 -0.4554
12404TIP3    H137145   1.282   3.175   0.291  0.9613 -0.6437  0.4509
12404TIP3    H237146   1.195   3.086   0.204 -0.1181  1.7011 -0.9288
12405TIP3   OH237147   3.777   7.580   5.683  0.1016  0.2834 -0.4710
12405TIP3    H137148   3.788   7.635   5.605 -0.4846 -0.6428 -1.2203
12405TIP3    H237149   3.855   7.524   5.684 -0.6142 -0.7629 -1.2793
12406TIP3   OH237150   3.589   4.682   0.287 -0.4886 -0.1344  0.4440
12406TIP3    H137151   3.622   4.689   0.376 -0.6981  0.8364  0.4485
12406TIP3    H237152   3.494   4.676   0.298 -0.6115  1.2886  0.2302
12407TIP3   OH237153   4.094   6.432   3.665  0.4299  0.0261  0.0047
12407TIP3    H137154   4.018   6.488   3.656 -1.2072 -2.0827  0.1784
12407TIP3    H237155   4.156   6.464   3.599 -0.0215  2.6323  0.8010
12408TIP3   OH237156   5.174   6.631   6.686  0.8537 -0.4903 -0.0643
12408TIP3    H137157   5.158   6.580   6.607  3.2586 -1.4780  0.0398
12408TIP3    H237158   5.245   6.691   6.662  3.1124 -2.2828  1.9228
12409TIP3   OH237159   4.559   7.645   4.620  0.2873  0.2787  0.1833
12409TIP3    H137160   4.482   7.599   4.588  0.8217 -1.1824  0.9599
12409TIP3    H237161   4.526   7.710   4.681 -0.4724  0.9280 -0.9061
12410TIP3   OH237162   0.765   4.944   1.095 -0.3053  0.2155  0.3644
12410TIP3    H137163   0.817   4.924   1.017 -1.0173 -0.3467  0.0216
12410TIP3    H237164   0.805   4.892   1.164 -0.5496 -0.3889  0.0532
12411TIP3   OH237165   4.571   6.358   5.084 -0.2699 -0.1426 -0.0142
12411TIP3    H137166   4.505   6.324   5.023 -0.4713  0.9610 -0.4343
12411TIP3    H237167   4.608   6.434   5.039 -1.1963  1.3702  1.6764
12412TIP3   OH237168   5.256   6.180   4.604 -0.7809 -0.0186 -0.0878
12412TIP3    H137169   5.274   6.274   4.612  0.5272 -0.3238  0.6485
12412TIP3    H237170   5.162   6.176   4.584 -0.8359  1.4437 -0.2265
12413TIP3   OH237171   4.167   5.162   6.718  0.5766  0.4153 -0.3441
12413TIP3    H137172   4.165   5.073   6.753  1.8993 -0.2766 -1.9706
12413TIP3    H237173   4.134   5.216   6.790 -0.1422 -1.3586  0.7077
12414TIP3   OH237174   2.932   3.628   1.054 -0.0845  0.3492  0.5817
12414TIP3    H137175   2.932   3.536   1.082  0.8365 -0.2644 -1.3188
12414TIP3    H237176   2.842   3.644   1.026  0.4527 -0.9507 -2.0308
12415TIP3   OH237177   1.134   3.135   0.566  0.0637  0.8247 -0.3615
12415TIP3    H137178   1.182   3.155   0.646  0.8282 -1.5020 -0.1997
12415TIP3    H237179   1.166   3.200   0.502  1.2491  1.1519  0.5470
12416TIP3   OH237180   4.754   6.113   6.650  0.2354 -0.1143 -0.2982
12416TIP3    H137181   4.815   6.042   6.669 -0.5577 -0.5711  0.5404
12416TIP3    H237182   4.736   6.104   6.557  2.0862  0.5333 -0.7552
12417TIP3   OH237183   6.802   5.767   4.393 -0.8601 -0.3701 -0.4055
12417TIP3    H137184   6.873   5.706   4.415 -0.0620  0.2628 -1.2117
12417TIP3    H237185   6.747   5.768   4.471 -1.0830 -2.3941 -0.4896
12418TIP3   OH237186   4.328   4.285   6.867 -0.4738  0.0013 -0.1167
12418TIP3    H137187   4.358   4.302   6.778  0.7408  0.0776  0.3024
12418TIP3    H237188   4.262   4.216   6.857 -0.3367 -0.0017 -1.0697
12419TIP3   OH237189   6.611   6.888   6.959 -0.2031 -0.1417  0.2479
12419TIP3    H137190   6.619   6.942   6.881 -0.0085  0.2359  0.5258
12419TIP3    H237191   6.629   6.799   6.929 -0.1172  0.0031 -0.1318
12420TIP3   OH237192   8.278   2.670   0.230 -0.8186 -0.1237  0.2694
12420TIP3    H137193   8.355   2.684   0.176 -1.2614  0.7564 -0.1427
12420TIP3    H237194   8.230   2.600   0.186 -1.0085  0.3635 -0.2974
12421TIP3   OH237195   3.102   2.846   0.871  0.3076 -0.2750 -0.0346
12421TIP3    H137196   3.042   2.900   0.820  0.7595 -1.1800 -1.5462
12421TIP3    H237197   3.045   2.797   0.931 -0.4736 -1.1263 -1.4594
12422TIP3   OH237198   7.733   0.619   5.952 -0.2388  0.0800  0.0704
12422TIP3    H137199   7.817   0.610   5.998 -0.6446 -0.5954  0.6985
12422TIP3    H237200   7.726   0.540   5.899 -0.6784 -0.0679  0.3491
12423TIP3   OH237201   2.396   6.916   2.923 -0.2785  0.5071 -0.1365
12423TIP3    H137202   2.427   6.982   2.985 -0.5989  1.2622 -0.7645
12423TIP3    H237203   2.451   6.929   2.845  0.9158 -1.2125  0.3937
12424TIP3   OH237204   1.432   7.461   3.954  0.5521  0.0049 -0.3897
12424TIP3    H137205   1.345   7.426   3.973 -0.3304  1.4304 -1.7036
12424TIP3    H237206   1.483   7.384   3.928 -0.0223 -0.9847  1.2828
12425TIP3   OH237207   3.245   7.862   5.551 -0.3741 -0.1699 -0.0980
12425TIP3    H137208   3.224   7.799   5.619 -0.3358  0.6970  0.7208
12425TIP3    H237209   3.220   7.947   5.587  0.8801  0.4415 -0.6275
12426TIP3   OH237210   2.393   4.970   2.105 -0.4291 -0.0099  0.0038
12426TIP3    H137211   2.472   5.016   2.077 -0.6878  1.1529  1.1473
12426TIP3    H237212   2.423   4.909   2.173 -0.4575  0.1207  0.1321
12427TIP3   OH237213   3.787   7.634   6.661  0.2006  0.0303  0.0952
12427TIP3    H137214   3.732   7.565   6.698 -0.1563  0.2673  0.0075
12427TIP3    H237215   3.868   7.630   6.711  0.3215 -0.6993 -0.1601
12428TIP3   OH237216   6.572   0.803   6.348  0.1564 -0.4303  0.1714
12428TIP3    H137217   6.537   0.838   6.266  1.4128 -1.4137 -0.8017
12428TIP3    H237218   6.549   0.869   6.414 -1.6074 -0.0282 -0.7973
12429TIP3   OH237219   2.926   3.484   0.620 -1.1384 -0.1711  0.0976
12429TIP3    H137220   2.917   3.579   0.620 -0.1343 -0.0613  1.1878
12429TIP3    H237221   2.879   3.455   0.699  0.5903 -0.3462  1.0885
12430TIP3   OH237222   5.393   5.368   4.512  0.2539 -0.1081 -0.9671
12430TIP3    H137223   5.420   5.287   4.555  0.3507 -0.2481 -1.2879
12430TIP3    H237224   5.324   5.342   4.452 -0.7322  0.2791 -0.0198
12431TIP3   OH237225   2.852   6.940   5.231  0.6954  0.1226 -0.2391
12431TIP3    H137226   2.773   6.941   5.284  0.8963 -2.2227  0.1660
12431TIP3    H237227   2.840   7.011   5.168 -2.8841 -1.7606 -1.8358
12432TIP3   OH237228   6.015   6.318   5.509  0.1403 -0.1445  0.6956
12432TIP3    H137229   6.063   6.391   5.470  0.7241 -1.0733 -0.3366
12432TIP3    H237230   5.926   6.329   5.476  0.3504 -0.2144  0.1091
12433TIP3   OH237231   5.506   5.821   5.696  0.3354 -0.7845  0.5508
12433TIP3    H137232   5.507   5.903   5.647 -0.9126 -1.0974 -0.0197
12433TIP3    H237233   5.478   5.846   5.784 -0.5686 -0.6666  0.2345
12434TIP3   OH237234   4.994   6.103   5.074  0.2486 -0.5456  0.3846
12434TIP3    H137235   5.088   6.117   5.079  0.1497  1.1885 -1.7472
12434TIP3    H237236   4.963   6.110   5.165  2.0012  0.0600  0.9487
12435TIP3   OH237237   5.435   5.026   4.303  0.0855 -0.3872 -0.1086
12435TIP3    H137238   5.403   4.978   4.227  2.0298  0.2959 -1.3780
12435TIP3    H237239   5.482   5.100   4.266  0.7890  0.1177  1.7733
12436TIP3   OH237240   1.363   1.845   0.728  0.3957  0.3738 -0.1381
12436TIP3    H137241   1.341   1.813   0.815  1.5257  1.0448  0.4065
12436TIP3    H237242   1.281   1.842   0.679 -0.1401 -0.4461  0.8108
12437TIP3   OH237243   3.557   7.471   5.562  0.1249 -0.0458  0.0399
12437TIP3    H137244   3.631   7.486   5.621 -0.4153 -1.5885  1.1759
12437TIP3    H237245   3.593   7.483   5.474  1.9326 -1.4661  0.5412
12438TIP3   OH237246   1.361   3.362   1.671 -0.0433  0.4789  0.1206
12438TIP3    H137247   1.376   3.456   1.670  1.5328  0.2396 -2.0254
12438TIP3    H237248   1.270   3.351   1.642  0.8598  1.2074 -3.1651
12439TIP3   OH237249   4.927   5.270   3.642 -0.1660 -0.5355 -0.1520
12439TIP3    H137250   4.997   5.257   3.578 -0.1068 -0.6354 -0.0669
12439TIP3    H237251   4.955   5.221   3.719 -0.5407 -0.9523 -0.2718
12440TIP3   OH237252   3.589   3.185   3.293  0.0910 -0.4901  0.3697
12440TIP3    H137253   3.638   3.208   3.371 -0.2616  0.8519  0.2170
12440TIP3    H237254   3.639   3.114   3.252  1.0546 -0.1908  1.0294
12441TIP3   OH237255   4.437   6.125   5.949 -0.0151 -0.1130  0.1551
12441TIP3    H137256   4.517   6.164   5.913  0.0511 -0.5140 -0.1399
12441TIP3    H237257   4.366   6.172   5.907  0.0452  1.9240  2.2340
12442TIP3   OH237258   6.037   5.496   4.202 -0.4032  0.4101  0.2612
12442TIP3    H137259   6.011   5.575   4.155  0.0647  0.0665 -0.5862
12442TIP3    H237260   6.092   5.448   4.140  2.2383  1.0903  2.0123
12443TIP3   OH237261   3.955   6.663   5.705 -0.4920  0.3573  0.0063
12443TIP3    H137262   4.049   6.646   5.693 -0.8461 -1.7193 -0.0401
12443TIP3    H237263   3.926   6.594   5.765 -1.9682  1.0406  0.0868
12444TIP3   OH237264   8.204   5.509   4.002 -0.0946 -0.4981  0.0295
12444TIP3    H137265   8.264   5.501   3.928 -0.1563  2.9451 -0.4416
12444TIP3    H237266   8.259   5.492   4.079  0.8339 -0.2113 -0.5617
12445TIP3   OH237267   4.075   6.727   4.352  0.0379  0.0152 -0.0185
12445TIP3    H137268   4.156   6.679   4.331  0.4674  0.9647 -0.5645
12445TIP3    H237269   4.011   6.658   4.368  0.3534 -0.7729 -1.9343
12446TIP3   OH237270   4.085   5.897   5.065  0.1701 -0.0449  0.2063
12446TIP3    H137271   4.176   5.920   5.080 -0.0485  1.0328 -0.0715
12446TIP3    H237272   4.047   5.886   5.152  0.3734  0.2795  0.3349
12447TIP3   OH237273   3.451   7.393   4.475  0.1860 -0.1053 -0.2657
12447TIP3    H137274   3.505   7.324   4.436 -1.3010 -1.6233  0.2932
12447TIP3    H237275   3.401   7.348   4.543 -0.8284  1.5361  0.0969
12448TIP3   OH237276   3.882   6.133   5.256 -0.5303  0.3613  0.5699
12448TIP3    H137277   3.973   6.160   5.270 -0.6369  0.6858  0.6228
12448TIP3    H237278   3.869   6.062   5.319 -0.2237  0.1153  0.3594
12449TIP3   OH237279   4.543   4.053   4.995 -0.1676 -0.3880 -0.2559
12449TIP3    H137280   4.505   3.965   4.996  1.0916 -0.9715 -1.9156
12449TIP3    H237281   4.636   4.040   5.016  0.0151  0.5500 -0.4303
12450TIP3   OH237282   2.420   6.669   6.017  0.4409 -0.7819  0.2419
12450TIP3    H137283   2.452   6.661   5.927  0.5139 -1.0666  0.2939
12450TIP3    H237284   2.393   6.581   6.041  0.1277 -0.6471  0.3915
12451TIP3   OH237285   8.151   0.555   4.163 -0.8525 -0.0670  0.4146
12451TIP3    H137286   8.075   0.585   4.114  0.6235 -0.9333 -2.5202
12451TIP3    H237287   8.212   0.628   4.160 -0.6787 -0.1965  0.7980
12452TIP3   OH237288   1.255   1.907   1.454 -0.1505 -0.2322 -0.1357
12452TIP3    H137289   1.231   1.912   1.546 -0.0799  3.0055 -0.2483
12452TIP3    H237290   1.173   1.919   1.406  0.1453  0.3563 -0.4993
12453TIP3   OH237291   0.973   4.298   0.236 -0.1374 -0.3393 -1.0363
12453TIP3    H137292   0.991   4.375   0.182  1.9937 -0.9677 -1.2827
12453TIP3    H237293   0.967   4.226   0.173  1.9916 -1.0153 -0.5071
12454TIP3   OH237294   0.783   1.371   1.037  0.5364 -0.2102 -0.1784
12454TIP3    H137295   0.771   1.361   1.131  1.5509 -0.5057 -0.0763
12454TIP3    H237296   0.731   1.448   1.014  0.4028 -0.0522  0.6521
12455TIP3   OH237297   6.215   0.551   5.871 -0.1878  0.0291 -0.1424
12455TIP3    H137298   6.265   0.631   5.887 -0.0358  0.1265 -1.0609
12455TIP3    H237299   6.210   0.508   5.956  1.5978 -0.0660 -0.0664
12456TIP3   OH237300   4.465   7.774   5.886 -0.5307 -0.0665 -0.0199
12456TIP3    H137301   4.442   7.710   5.819 -0.6916  0.2971 -0.3116
12456TIP3    H237302   4.561   7.776   5.884 -0.4809 -1.1670  0.8128
12457TIP3   OH237303   5.514   6.630   6.329  0.2018 -0.2115  0.1948
12457TIP3    H137304   5.423   6.636   6.298 -0.2338 -3.3598  0.7232
12457TIP3    H237305   5.565   6.616   6.249  0.1783  0.9405 -0.0351
12458TIP3   OH237306   6.557   0.965   4.039  0.6200 -0.3049 -0.2710
12458TIP3    H137307   6.525   0.956   4.129  1.5056  1.8532  0.3062
12458TIP3    H237308   6.480   0.952   3.984 -0.2763  0.0607  0.8785
12459TIP3   OH237309   5.943   7.273   4.260  0.2247 -0.4190 -0.1051
12459TIP3    H137310   5.854   7.307   4.273  0.1109 -0.4847 -0.6756
12459TIP3    H237311   5.999   7.332   4.309 -0.1975 -0.7402  0.7758
12460TIP3   OH237312   4.079   7.900   5.129  0.2404 -0.0923  0.1436
12460TIP3    H137313   4.095   7.809   5.155 -1.2089 -0.2529  0.5345
12460TIP3    H237314   4.055   7.945   5.210 -1.7212  0.0008 -0.4441
12461TIP3   OH237315   4.032   5.904   5.617 -0.5744 -0.0117  0.4436
12461TIP3    H137316   3.983   5.873   5.694  0.6439 -1.5056  0.6457
12461TIP3    H237317   3.985   5.865   5.543 -0.7913  0.1006  0.5195
12462TIP3   OH237318   2.974   6.932   5.978 -0.2391 -0.1043 -0.2810
12462TIP3    H137319   2.885   6.954   5.952 -1.2730 -2.0882  1.4427
12462TIP3    H237320   3.003   7.006   6.031 -0.7104  0.7084 -1.1487
12463TIP3   OH237321   4.265   7.232   5.873  0.3204 -0.3940  0.3451
12463TIP3    H137322   4.248   7.140   5.890 -0.4879 -0.1119  1.1014
12463TIP3    H237323   4.360   7.239   5.866  0.5648 -0.8443  2.8911
12464TIP3   OH237324   2.833   6.021   6.042 -0.4670 -0.5688 -0.3410
12464TIP3    H137325   2.913   6.073   6.034 -1.1460  1.5179  4.4393
12464TIP3    H237326   2.789   6.031   5.957  2.8506  0.7307 -1.9908
12465TIP3   OH237327   4.502   7.565   5.118 -0.6105 -0.1718  0.3841
12465TIP3    H137328   4.428   7.516   5.085 -0.4873  0.1025 -0.3145
12465TIP3    H237329   4.482   7.657   5.097 -0.8991  0.1004  1.7819
12466TIP3   OH237330   6.936   5.003   6.421 -0.2210  0.2214 -0.0448
12466TIP3    H137331   6.878   5.042   6.485  0.0010  0.6379 -0.0983
12466TIP3    H237332   6.981   5.077   6.380  1.0239 -0.1373  0.6360
12467TIP3   OH237333   6.880   5.471   4.622  0.0682  0.6361 -0.1161
12467TIP3    H137334   6.859   5.381   4.645 -0.3263  0.4159 -1.2890
12467TIP3    H237335   6.795   5.513   4.611  0.2495  1.2460  0.7586
12468TIP3   OH237336   2.652   4.786   4.391  0.2654 -0.1311  0.1808
12468TIP3    H137337   2.590   4.739   4.335  0.2961  0.9658 -0.7875
12468TIP3    H237338   2.597   4.827   4.458 -0.1417  1.2654 -0.9737
12469TIP3   OH237339   1.136   7.983   6.912  0.3428  0.6978 -0.2846
12469TIP3    H137340   1.173   7.907   6.868  1.4476  1.4535 -0.6865
12469TIP3    H237341   1.198   8.054   6.895 -1.2705  2.0013 -0.9602
12470TIP3   OH237342   4.164   4.921   6.852 -0.0847  0.6088  0.2138
12470TIP3    H137343   4.146   4.890   6.940 -0.8884  1.2584  0.2818
12470TIP3    H237344   4.097   4.879   6.797 -0.6701  1.5740  0.1828
12471TIP3   OH237345   2.946   4.895   5.616  0.0864 -0.6610  0.4286
12471TIP3    H137346   3.007   4.862   5.682 -0.0081 -0.8970  0.3992
12471TIP3    H237347   2.941   4.989   5.632  1.1911 -0.4888 -0.1612
12472TIP3   OH237348   5.099   5.881   6.410  0.3981 -0.2207  0.2603
12472TIP3    H137349   5.118   5.795   6.448  1.8463 -0.1702 -0.2820
12472TIP3    H237350   5.140   5.877   6.323 -2.2029 -0.0816 -1.0079
12473TIP3   OH237351   2.654   5.734   6.584 -0.3023 -0.1874 -0.4525
12473TIP3    H137352   2.633   5.821   6.551  1.4994  0.6042  0.4120
12473TIP3    H237353   2.603   5.726   6.665  0.7021  0.6927  0.2802
12474TIP3   OH237354   1.105   5.972   4.206  0.3386  0.6008 -0.5625
12474TIP3    H137355   1.071   5.955   4.118 -0.3454  0.0631 -0.2006
12474TIP3    H237356   1.038   5.936   4.264  1.5736 -0.5453  0.1650
12475TIP3   OH237357   1.003   2.250   0.538  0.0170  0.0432  0.0493
12475TIP3    H137358   0.968   2.209   0.459  0.6863 -1.2819  0.4294
12475TIP3    H237359   1.091   2.278   0.514 -0.0164  0.2336  0.1429
12476TIP3   OH237360   3.659   7.249   5.729 -0.1988 -0.2957  0.2679
12476TIP3    H137361   3.634   7.301   5.806  1.2395  1.0191 -0.1334
12476TIP3    H237362   3.590   7.266   5.665  0.3137  1.2175  0.1033
12477TIP3   OH237363   2.338   7.699   4.576  0.0274 -0.4121  0.0546
12477TIP3    H137364   2.338   7.697   4.480 -0.6205 -0.1563  0.0488
12477TIP3    H237365   2.246   7.693   4.601  0.0344  1.2997  0.6056
12478TIP3   OH237366   7.255   0.524   5.926 -0.4013  0.1348 -0.1730
12478TIP3    H137367   7.162   0.543   5.937 -0.2826  0.2173  0.7031
12478TIP3    H237368   7.299   0.603   5.956  0.0217 -0.6647  1.3296
12479TIP3   OH237369   2.138   2.042   1.461 -0.4498  0.3578  0.4673
12479TIP3    H137370   2.069   2.022   1.398 -1.7555  1.7952  1.3818
12479TIP3    H237371   2.191   1.963   1.465 -0.3148  0.2627 -2.4236
12480TIP3   OH237372   6.012   6.362   6.502 -0.4744  0.0210 -0.6052
12480TIP3    H137373   6.044   6.328   6.586 -0.5746 -0.6637 -0.8420
12480TIP3    H237374   5.923   6.328   6.495 -0.7199  0.6706 -0.6616
12481TIP3   OH237375   1.052   5.659   4.381 -0.6337  0.3402 -0.0006
12481TIP3    H137376   0.986   5.713   4.338 -0.7237 -1.8469 -2.7316
12481TIP3    H237377   1.004   5.615   4.452 -1.2769  1.3619  0.2121
12482TIP3   OH237378   6.898   7.005   0.232 -0.3256  0.2300  0.5358
12482TIP3    H137379   6.941   7.021   0.148 -0.5260 -2.3389 -0.1083
12482TIP3    H237380   6.966   7.023   0.297  0.9610 -1.2550 -0.3523
12483TIP3   OH237381   4.078   6.415   1.005  0.4083 -0.0877  0.3496
12483TIP3    H137382   4.033   6.347   0.955 -0.8810 -0.7773  2.3642
12483TIP3    H237383   4.028   6.495   0.986  0.7364 -0.0819 -0.4955
12484TIP3   OH237384   2.955   2.288   0.656 -0.4397  0.3842 -0.4266
12484TIP3    H137385   2.902   2.210   0.670  0.8936 -0.5137 -0.2414
12484TIP3    H237386   2.893   2.361   0.660 -1.6509 -0.6385 -0.2879
12485TIP3   OH237387   0.345   0.302   5.173  0.2949 -0.6078  0.3167
12485TIP3    H137388   0.313   0.390   5.194  2.9068  0.5204 -0.2076
12485TIP3    H237389   0.398   0.314   5.094  0.0985 -2.7913 -0.1853
12486TIP3   OH237390   6.863   0.854   3.572  0.0266 -0.4344 -0.2193
12486TIP3    H137391   6.884   0.774   3.523 -1.8913 -0.4730 -1.0272
12486TIP3    H237392   6.827   0.822   3.655  1.8592 -0.3752  0.6189
12487TIP3   OH237393   2.743   3.156   5.764  0.0363  0.0482  0.1097
12487TIP3    H137394   2.732   3.250   5.778 -1.3575 -0.1884  0.7841
12487TIP3    H237395   2.825   3.148   5.716 -1.1102  1.7868 -2.2256
12488TIP3   OH237396   3.668   6.237   4.301 -0.1146 -0.2537  0.0598
12488TIP3    H137397   3.655   6.258   4.208  1.2001 -0.4807 -0.1901
12488TIP3    H237398   3.698   6.146   4.301 -1.1666 -0.6097  0.7942
12489TIP3   OH237399   7.908   5.271   4.778 -0.5599 -0.1677 -0.3831
12489TIP3    H137400   7.898   5.176   4.771  0.0491 -0.3021  0.4961
12489TIP3    H237401   7.919   5.301   4.688 -0.7145 -0.9327 -0.6608
12490TIP3   OH237402   6.529   6.594   5.465  0.0165  0.0551 -0.4885
12490TIP3    H137403   6.434   6.593   5.450 -0.1299  0.8364  0.3639
12490TIP3    H237404   6.556   6.683   5.444  0.3077  0.2688  0.7607
12491TIP3   OH237405   4.190   4.688   4.570 -0.1445 -0.1443 -0.0996
12491TIP3    H137406   4.188   4.632   4.492  2.4106 -0.3426 -0.0573
12491TIP3    H237407   4.283   4.695   4.592 -0.8237  0.0868  2.8242
12492TIP3   OH237408   2.741   0.372   1.309  0.5285  0.0724 -0.4546
12492TIP3    H137409   2.829   0.396   1.338  0.2767  0.0162  0.3669
12492TIP3    H237410   2.728   0.422   1.229  1.7084 -0.7003 -1.1415
12493TIP3   OH237411   6.387   5.558   6.846  0.0339 -0.1195  0.4379
12493TIP3    H137412   6.317   5.601   6.797 -0.9877 -0.8338  1.2573
12493TIP3    H237413   6.360   5.467   6.851  0.3612 -0.1383  1.9347
12494TIP3   OH237414   5.397   4.421   5.194 -0.1213 -0.4021  0.5371
12494TIP3    H137415   5.459   4.371   5.142  0.8852  1.4965 -0.1555
12494TIP3    H237416   5.334   4.357   5.226 -0.2948 -1.7210 -2.3365
12495TIP3   OH237417   2.089   2.684   0.607 -0.4957  0.2130 -0.1688
12495TIP3    H137418   2.113   2.761   0.659 -0.3668  0.8014 -1.0984
12495TIP3    H237419   2.087   2.715   0.517  0.5972 -1.1162 -0.6730
12496TIP3   OH237420   4.716   6.366   6.151 -0.3779 -0.7112  0.3379
12496TIP3    H137421   4.685   6.334   6.066 -2.4481 -0.8462  1.0961
12496TIP3    H237422   4.787   6.426   6.130 -1.7000  0.2345 -1.5816
12497TIP3   OH237423   6.115   5.653   5.240 -0.1989  0.6165  0.2811
12497TIP3    H137424   6.033   5.673   5.194  0.7319  2.0344 -0.8098
12497TIP3    H237425   6.094   5.663   5.333 -1.5343 -0.0894  0.0596
12498TIP3   OH237426   4.161   4.291   5.103 -0.7429  0.1007  0.3961
12498TIP3    H137427   4.199   4.336   5.179 -0.2907 -1.1731  0.9532
12498TIP3    H237428   4.234   4.240   5.067 -1.3534 -0.5431  0.0635
12499TIP3   OH237429   7.699   0.069   4.307  0.3801  0.2053 -0.1053
12499TIP3    H137430   7.714   0.006   4.377 -0.8118 -1.3820 -1.2560
12499TIP3    H237431   7.636   0.131   4.345 -0.5605 -0.8656  0.1261
12500TIP3   OH237432   0.694   0.265   6.219 -0.3369  0.1519 -0.1740
12500TIP3    H137433   0.724   0.336   6.162  1.6766 -0.1217  0.5170
12500TIP3    H237434   0.729   0.186   6.178  2.0698  0.0435  2.0178
12501TIP3   OH237435   6.961   5.806   3.462  0.7858 -0.4956  0.3445
12501TIP3    H137436   6.924   5.753   3.533  2.1889 -1.0513  0.6776
12501TIP3    H237437   6.963   5.895   3.497 -0.7479 -0.3543  0.1131
12502TIP3   OH237438   3.808   5.931   5.441  0.3483 -0.4614  0.3707
12502TIP3    H137439   3.725   5.903   5.479 -0.1165  0.4119  0.0115
12502TIP3    H237440   3.824   5.868   5.371 -0.1180 -0.5074  0.3022
12503TIP3   OH237441   5.460   7.088   5.447  0.0372 -0.3130  0.4452
12503TIP3    H137442   5.519   7.057   5.516 -0.0738 -0.7127  0.3644
12503TIP3    H237443   5.388   7.025   5.447 -0.2899  0.0623  0.4106
12504TIP3   OH237444   5.594   7.358   6.387  0.1160  0.6379  0.5321
12504TIP3    H137445   5.529   7.423   6.414  0.3402  0.5241  1.3481
12504TIP3    H237446   5.672   7.380   6.438  0.2153 -0.2234  0.7569
12505TIP3   OH237447   7.224   6.410   4.989  0.0668  0.1952 -0.2368
12505TIP3    H137448   7.240   6.347   4.919 -0.2786  0.7787 -0.8417
12505TIP3    H237449   7.283   6.483   4.969  1.1788 -0.3358  0.9959
12506TIP3   OH237450   4.602   1.980   1.296 -0.0459  0.9024  0.4356
12506TIP3    H137451   4.582   1.997   1.389  0.8423 -0.8164  0.9669
12506TIP3    H237452   4.658   2.053   1.270 -0.5352  1.5519  1.1670
12507TIP3   OH237453   5.794   6.680   4.008 -0.2417  0.2331 -0.7508
12507TIP3    H137454   5.882   6.719   4.009 -0.9006  1.7609 -0.7845
12507TIP3    H237455   5.737   6.750   4.040 -0.8793 -2.2480  3.8671
12508TIP3   OH237456   7.000   6.371   4.320 -0.4904 -0.0627 -0.1230
12508TIP3    H137457   6.984   6.343   4.229 -0.2441  0.9138 -0.4758
12508TIP3    H237458   6.949   6.310   4.373 -0.1412 -1.0384 -0.8845
12509TIP3   OH237459   0.590   0.625   3.158  0.5203  0.3990  0.6261
12509TIP3    H137460   0.674   0.587   3.182  0.3892 -0.7033 -0.5880
12509TIP3    H237461   0.526   0.557   3.179 -0.0427  1.1227  1.2744
12510TIP3   OH237462   6.806   5.693   6.149  0.2203  0.0207 -0.1062
12510TIP3    H137463   6.725   5.742   6.139  0.8429  1.1816  0.4340
12510TIP3    H237464   6.841   5.721   6.234  0.7342 -1.1376  0.0749
12511TIP3   OH237465   4.287   6.392   3.928  0.4195 -0.3539 -0.3107
12511TIP3    H137466   4.305   6.482   3.953  1.7151 -0.6667 -0.0846
12511TIP3    H237467   4.220   6.399   3.860 -1.7771  0.5988  1.8702
12512TIP3   OH237468   7.333   0.574   3.544 -0.0065 -0.0508 -0.0895
12512TIP3    H137469   7.390   0.519   3.491 -1.0559 -0.4122 -0.8779
12512TIP3    H237470   7.360   0.558   3.634  0.1674 -1.3247 -0.3638
12513TIP3   OH237471   5.898   7.220   5.654 -0.8160 -0.3674 -0.4728
12513TIP3    H137472   5.858   7.305   5.638 -0.0694 -0.0154 -0.4818
12513TIP3    H237473   5.897   7.176   5.569  1.0461  0.6017 -1.0301
12514TIP3   OH237474   3.210   7.314   6.673  0.3664 -0.4140  0.4812
12514TIP3    H137475   3.236   7.264   6.595  0.1841  0.5667 -0.2217
12514TIP3    H237476   3.264   7.278   6.743  0.2646 -1.5720 -0.0162
12515TIP3   OH237477   6.119   7.028   5.083  0.7876 -0.2313  0.2480
12515TIP3    H137478   6.074   6.991   5.007  1.5345 -0.3582 -0.1399
12515TIP3    H237479   6.097   7.121   5.082 -0.1383 -0.4445  0.5439
12516TIP3   OH237480   4.216   6.573   5.645 -0.2291 -0.1260  0.7449
12516TIP3    H137481   4.270   6.647   5.673 -0.8695 -0.6630  3.5186
12516TIP3    H237482   4.265   6.496   5.671  0.4366 -0.7424 -2.1479
12517TIP3   OH237483   8.417   0.828   3.902  0.1826  0.6700 -0.3325
12517TIP3    H137484   8.442   0.847   3.811 -0.4007 -0.6029 -0.7649
12517TIP3    H237485   8.498   0.841   3.952  0.7752  0.3372 -1.1874
12518TIP3   OH237486   5.895   6.737   6.074  0.1555  0.1251 -0.2506
12518TIP3    H137487   5.909   6.700   6.162 -0.6570  1.5334  0.4901
12518TIP3    H237488   5.801   6.758   6.072 -0.0065 -0.7238 -1.7909
12519TIP3   OH237489   2.082   4.988   0.075  0.0683  0.2417 -0.0123
12519TIP3    H137490   2.157   4.955   0.025  1.4719  2.3984  0.6437
12519TIP3    H237491   2.117   5.012   0.160 -1.8651 -1.0857  1.2181
12520TIP3   OH237492   5.775   7.326   5.062  0.2616  0.2263 -0.1128
12520TIP3    H137493   5.840   7.296   4.998  1.5640  1.3956  0.6353
12520TIP3    H237494   5.811   7.408   5.096 -1.0589  0.2945  1.1545
12521TIP3   OH237495   6.156   5.393   5.785  0.2540  0.2160  0.0757
12521TIP3    H137496   6.224   5.416   5.849  1.3714  0.8186 -1.2925
12521TIP3    H237497   6.202   5.391   5.701 -1.7710  2.3069 -1.1326
12522TIP3   OH237498   4.545   6.605   4.561  0.2640  0.0538 -0.3972
12522TIP3    H137499   4.610   6.669   4.530 -0.1577  0.4201 -0.5242
12522TIP3    H237500   4.582   6.520   4.537  0.7296  0.2550 -0.4091
12523TIP3   OH237501   0.702   1.597   4.013 -0.3166 -0.0927  0.6225
12523TIP3    H137502   0.633   1.660   3.993  0.1928  0.0689 -0.6643
12523TIP3    H237503   0.740   1.628   4.095 -0.1069  1.2428  0.0275
12524TIP3   OH237504   3.915   2.904   1.098  0.4476  0.0308  0.1564
12524TIP3    H137505   3.831   2.861   1.111  0.1918  0.6043  0.4195
12524TIP3    H237506   3.893   2.987   1.056  1.2365 -1.7187 -3.9648
12525TIP3   OH237507   6.609   5.555   4.594 -0.0212  0.4024 -0.1643
12525TIP3    H137508   6.520   5.563   4.560 -0.2274  2.6326  0.8145
12525TIP3    H237509   6.617   5.626   4.657  1.4055 -1.6890  2.1114
12526TIP3   OH237510   6.748   5.471   4.971 -0.3806 -0.3401 -0.7102
12526TIP3    H137511   6.786   5.454   4.885  1.3513 -0.2566  0.0121
12526TIP3    H237512   6.798   5.415   5.031 -1.7089 -0.5595  0.2110
12527TIP3   OH237513   7.607   0.686   4.583  0.1701 -0.2681 -0.4260
12527TIP3    H137514   7.523   0.643   4.595  0.0239  0.5309  1.5416
12527TIP3    H237515   7.659   0.659   4.659  1.2770  0.2011 -1.0072
12528TIP3   OH237516   5.434   5.219   6.393  0.3962 -0.3519  0.1336
12528TIP3    H137517   5.526   5.212   6.420  0.9090 -0.8983 -1.6649
12528TIP3    H237518   5.411   5.310   6.410  1.1390 -0.3107  0.9768
12529TIP3   OH237519   6.299   4.918   5.237 -0.1401 -0.4290  0.2307
12529TIP3    H137520   6.329   4.993   5.288  0.6532 -0.5359 -0.0769
12529TIP3    H237521   6.221   4.887   5.284 -1.1688  1.2946 -0.2924
12530TIP3   OH237522   0.438   0.765   5.152  0.1724  0.1118  0.2421
12530TIP3    H137523   0.431   0.826   5.078 -0.4007 -1.0620 -0.6991
12530TIP3    H237524   0.483   0.814   5.220  0.2339  1.3944 -0.7085
12531TIP3   OH237525   8.258   0.398   4.610  0.7635  0.1473 -0.0083
12531TIP3    H137526   8.347   0.410   4.642  0.7902  2.6607 -0.9790
12531TIP3    H237527   8.268   0.383   4.516  0.1990 -0.3888  0.0080
12532TIP3   OH237528   6.676   5.699   5.528 -0.2392 -0.5205 -0.0857
12532TIP3    H137529   6.647   5.627   5.584 -1.2324  0.3334  0.5245
12532TIP3    H237530   6.614   5.699   5.455 -0.9235  0.4016  0.4838
12533TIP3   OH237531   7.238   1.293   3.722 -0.4196 -0.1630  0.0001
12533TIP3    H137532   7.330   1.276   3.741 -0.8094 -2.0719  0.2660
12533TIP3    H237533   7.207   1.214   3.677 -2.2107 -0.0389  0.9559
12534TIP3   OH237534   6.205   7.820   4.700 -0.2087  0.2126 -0.2837
12534TIP3    H137535   6.248   7.775   4.628 -0.0342  1.4865 -0.9772
12534TIP3    H237536   6.276   7.840   4.761 -0.0277  1.0359 -0.7588
12535TIP3   OH237537   6.636   5.427   4.324  0.0079  0.7955  0.5020
12535TIP3    H137538   6.684   5.503   4.290  0.5676  0.3952  0.3761
12535TIP3    H237539   6.665   5.420   4.415 -0.4266  1.0350  0.6576
12536TIP3   OH237540   4.353   5.409   5.493 -0.1468 -0.5004  0.0926
12536TIP3    H137541   4.390   5.493   5.465 -1.0973 -0.3861 -0.8374
12536TIP3    H237542   4.277   5.396   5.436  0.3379 -2.2898 -0.1710
12537TIP3   OH237543   5.639   4.914   6.180  0.4279 -0.0377  0.1287
12537TIP3    H137544   5.626   4.850   6.111 -0.6926  0.6339 -0.3000
12537TIP3    H237545   5.596   4.994   6.148 -1.3705 -0.1124  2.1550
12538TIP3   OH237546   6.674   6.393   6.276 -0.3522 -0.4465  0.0205
12538TIP3    H137547   6.725   6.469   6.249 -0.9412  0.4638  1.4048
12538TIP3    H237548   6.588   6.406   6.235 -0.3482 -0.5084 -0.0048
12539TIP3   OH237549   2.960   3.329   0.379 -0.5832 -0.0344 -0.7497
12539TIP3    H137550   2.978   3.337   0.473 -0.6572 -0.3678 -0.7058
12539TIP3    H237551   2.864   3.325   0.374 -0.5774 -0.0673 -0.8337
12540TIP3   OH237552   5.546   6.005   5.464  0.2405 -0.0353 -0.2513
12540TIP3    H137553   5.572   5.944   5.395 -0.3829 -0.9647  0.3195
12540TIP3    H237554   5.455   6.026   5.445 -0.3319 -1.2803  0.9600
12541TIP3   OH237555   6.266   5.799   3.849  0.7527  0.3501  0.1567
12541TIP3    H137556   6.321   5.874   3.828  0.1513  0.1661 -2.1685
12541TIP3    H237557   6.327   5.734   3.885  1.2439  1.9601  2.3722
12542TIP3   OH237558   5.584   0.351   2.430  0.1446  0.0423  0.2178
12542TIP3    H137559   5.626   0.345   2.344 -0.6752  1.2722 -0.2718
12542TIP3    H237560   5.495   0.380   2.412 -0.9092 -2.3435  1.2802
12543TIP3   OH237561   5.610   6.578   6.060  0.0345  0.0506  0.5540
12543TIP3    H137562   5.581   6.667   6.042  0.4042  0.0008 -0.3316
12543TIP3    H237563   5.534   6.524   6.043  0.1441  0.0880 -0.0887
12544TIP3   OH237564   1.136   0.834   4.969 -0.0142 -0.2274  0.5236
12544TIP3    H137565   1.104   0.771   4.905 -0.2612 -0.3511  0.7696
12544TIP3    H237566   1.093   0.916   4.945 -0.7262 -0.4559  1.0218
12545TIP3   OH237567   6.120   5.655   3.682 -0.1755 -0.1477  0.5914
12545TIP3    H137568   6.033   5.687   3.659 -0.6948 -1.8822  0.1282
12545TIP3    H237569   6.150   5.715   3.751 -0.7220  1.9227 -0.9478
12546TIP3   OH237570   6.742   7.164   4.678  0.3065  0.0669 -0.4394
12546TIP3    H137571   6.728   7.183   4.586 -0.6850  0.4166 -0.2245
12546TIP3    H237572   6.735   7.249   4.722 -1.6153 -0.4153  0.2312
12547TIP3   OH237573   5.832   7.491   5.561 -0.4764 -0.1265  0.1405
12547TIP3    H137574   5.859   7.561   5.502 -0.3433  0.7070  1.1940
12547TIP3    H237575   5.737   7.503   5.570 -0.5826 -0.5843 -0.3256
12548TIP3   OH237576   6.485   7.136   3.795 -0.0202 -0.6946  0.0755
12548TIP3    H137577   6.410   7.192   3.775  0.1882 -0.6636 -0.6210
12548TIP3    H237578   6.451   7.073   3.859 -0.3859 -0.0851  0.4923
12549TIP3   OH237579   5.739   6.842   3.533 -0.2301 -0.0598  0.5696
12549TIP3    H137580   5.795   6.856   3.456 -0.6660 -0.6411  0.1503
12549TIP3    H237581   5.717   6.749   3.531 -2.0198  0.3633  0.1980
12550TIP3   OH237582   3.838   8.017   6.180 -0.0637 -0.4436  0.1494
12550TIP3    H137583   3.784   8.003   6.257 -0.1387  0.4631  0.2700
12550TIP3    H237584   3.925   7.987   6.206 -1.0238 -4.4646 -0.9241
12551TIP3   OH237585   4.395   3.994   6.242  0.0025  0.3242 -0.4112
12551TIP3    H137586   4.381   3.925   6.307 -0.5246  0.8188 -0.0016
12551TIP3    H237587   4.464   4.048   6.280 -0.0037  0.3655 -0.4607
12552TIP3   OH237588   4.881   6.216   3.945 -0.2878 -0.1448 -0.3592
12552TIP3    H137589   4.871   6.234   3.851 -1.0251 -0.1503 -0.2832
12552TIP3    H237590   4.885   6.120   3.951  0.5006 -0.1223 -0.4537
12553TIP3   OH237591   3.473   2.711   0.321  0.0786 -0.4872 -0.6565
12553TIP3    H137592   3.500   2.787   0.269 -0.9305 -0.2835 -0.8972
12553TIP3    H237593   3.494   2.735   0.411 -0.3578  0.1460 -0.7157
12554TIP3   OH237594   6.971   4.980   5.155 -0.2569  0.0806 -0.2196
12554TIP3    H137595   7.013   5.018   5.233  2.6363  0.4815 -1.8855
12554TIP3    H237596   7.034   4.916   5.123 -1.9697 -0.9824 -1.5380
12555TIP3   OH237597   6.275   6.861   6.016  0.3862  0.4454  0.7368
12555TIP3    H137598   6.358   6.881   5.974  0.7834  0.8287  1.6974
12555TIP3    H237599   6.211   6.914   5.970  0.6845  0.2390  0.0724
12556TIP3   OH237600   3.177   3.057   0.640  0.2581 -0.2756 -0.2768
12556TIP3    H137601   3.165   3.092   0.728 -2.2958 -0.2665 -0.6041
12556TIP3    H237602   3.128   2.974   0.640 -0.3682  0.0679 -1.8782
12557TIP3   OH237603   5.011   5.354   6.200 -0.2733 -0.3321  0.0570
12557TIP3    H137604   5.013   5.400   6.116  1.7556  0.9104  0.7509
12557TIP3    H237605   5.030   5.263   6.178  1.2844  0.1737 -0.7328
12558TIP3   OH237606   1.817   4.196   0.603  0.4810 -0.5641 -0.4084
12558TIP3    H137607   1.822   4.157   0.690 -0.3385 -1.4089 -0.7239
12558TIP3    H237608   1.809   4.290   0.619  0.5480 -0.6994  0.4256
12559TIP3   OH237609   3.681   6.070   2.391  0.4272 -0.6491  0.1646
12559TIP3    H137610   3.737   5.993   2.378  1.9503  0.8094 -2.1499
12559TIP3    H237611   3.711   6.108   2.473  2.4100 -0.2613 -0.7214
12560TIP3   OH237612   3.212   0.278   3.414 -0.1307 -0.2920  0.1497
12560TIP3    H137613   3.189   0.324   3.495 -0.0897 -0.3182  0.1763
12560TIP3    H237614   3.269   0.206   3.443 -1.5793 -1.3963  0.3198
12561TIP3   OH237615   4.240   5.449   4.433  0.8065  0.0918 -0.1584
12561TIP3    H137616   4.330   5.448   4.402  1.2519 -0.1261  1.1295
12561TIP3    H237617   4.226   5.360   4.467 -0.1244 -0.0960 -1.0085
12562TIP3   OH237618   6.783   8.011   4.460 -0.2799  0.5255  0.0560
12562TIP3    H137619   6.692   7.984   4.447 -0.0145 -1.5122  2.1525
12562TIP3    H237620   6.823   8.002   4.373 -1.4602 -1.0235 -0.3526
12563TIP3   OH237621   7.761   4.576   2.849 -0.0331 -0.6839 -0.1880
12563TIP3    H137622   7.812   4.520   2.791  1.0312 -0.1730  0.2350
12563TIP3    H237623   7.823   4.642   2.880 -0.9617 -0.0257  0.3106
12564TIP3   OH237624   7.686   0.075   6.255  0.0502  0.5981 -0.1290
12564TIP3    H137625   7.678   0.095   6.161 -0.2439  1.7571  0.1349
12564TIP3    H237626   7.603   0.033   6.278  0.5827 -0.7486 -0.6427
12565TIP3   OH237627   3.094   6.438   5.836  0.1378  0.3801  0.3447
12565TIP3    H137628   3.125   6.466   5.750  0.2254  0.8893  0.5362
12565TIP3    H237629   3.108   6.515   5.892  1.8101 -0.5480  1.2446
12566TIP3   OH237630   6.258   6.163   5.502 -0.2499 -0.0610  0.4120
12566TIP3    H137631   6.290   6.246   5.466  0.1518 -0.2952  0.2282
12566TIP3    H237632   6.164   6.176   5.512 -0.8268 -0.9234 -3.2313
12567TIP3   OH237633   5.413   7.770   3.917  0.2515 -0.8011 -0.4611
12567TIP3    H137634   5.423   7.754   3.823 -0.6687 -0.3978 -0.6377
12567TIP3    H237635   5.403   7.865   3.924  0.5740 -0.8058  0.0713
12568TIP3   OH237636   7.488   0.282   4.068 -0.2645  0.2194 -0.4248
12568TIP3    H137637   7.425   0.347   4.036  0.6806  0.4873 -1.7694
12568TIP3    H237638   7.528   0.323   4.144  0.3447  1.2385 -1.2790
12569TIP3   OH237639   6.729   6.269   4.446  0.3221  0.4083 -0.1635
12569TIP3    H137640   6.744   6.321   4.525  3.0958 -0.0154 -0.3408
12569TIP3    H237641   6.684   6.191   4.476 -0.6736  1.2798  0.6450
12570TIP3   OH237642   6.358   0.710   3.699  0.6614 -0.6328  0.5396
12570TIP3    H137643   6.274   0.671   3.677  1.5676 -1.3152 -1.8484
12570TIP3    H237644   6.401   0.644   3.754  0.0343 -0.6668  0.9982
12571TIP3   OH237645   6.828   6.011   3.779 -0.4897 -0.3759 -0.4675
12571TIP3    H137646   6.915   5.980   3.754 -0.7514 -2.4282  0.9984
12571TIP3    H237647   6.844   6.097   3.819  0.7402 -0.2816 -1.1499
12572TIP3   OH237648   5.187   5.783   5.758 -0.5339  0.9065 -0.1481
12572TIP3    H137649   5.219   5.864   5.797  0.4059  0.8270 -0.7511
12572TIP3    H237650   5.225   5.713   5.810  0.9349  0.7925 -1.3324
12573TIP3   OH237651   5.972   5.539   6.510  0.2273  0.2123 -0.1987
12573TIP3    H137652   5.927   5.489   6.442  1.8662  2.6490 -3.2148
12573TIP3    H237653   5.920   5.619   6.520  0.0399 -0.0989  1.3745
12574TIP3   OH237654   1.986   1.437   6.811  0.4388 -0.3423  0.8243
12574TIP3    H137655   2.016   1.352   6.779  0.4619  0.0463 -0.1961
12574TIP3    H237656   1.890   1.428   6.816  0.3135  0.0038 -0.6027
12575TIP3   OH237657   0.079   0.904   5.139  0.0060 -0.4336  0.5248
12575TIP3    H137658   0.086   0.997   5.162 -0.1217 -0.4692  0.7098
12575TIP3    H237659   0.110   0.899   5.049  1.0482 -0.3833  0.8767
12576TIP3   OH237660   4.727   5.816   6.347  0.1816  0.1805 -0.3266
12576TIP3    H137661   4.647   5.864   6.370 -0.7232 -1.0943 -0.7864
12576TIP3    H237662   4.762   5.864   6.271 -0.1810  0.6850 -0.1782
12577TIP3   OH237663   6.889   5.266   5.100  0.2027  0.0944 -0.1215
12577TIP3    H137664   6.803   5.226   5.119 -0.1557  1.3361  0.9022
12577TIP3    H237665   6.948   5.191   5.092 -0.6992 -0.7215  0.5909
12578TIP3   OH237666   7.973   0.425   5.852 -0.2015 -0.1819  0.5208
12578TIP3    H137667   7.987   0.441   5.759  0.4207 -0.6614  0.5316
12578TIP3    H237668   8.008   0.503   5.895 -1.6239  0.6066  0.2899
12579TIP3   OH237669   7.732   6.495   2.180 -0.2670 -0.3595  0.2340
12579TIP3    H137670   7.765   6.479   2.092 -3.3956 -1.0460 -0.8792
12579TIP3    H237671   7.699   6.585   2.177 -2.6384 -1.2173 -0.0683
12580TIP3   OH237672   4.590   7.734   4.171 -0.2485  0.2928 -0.5706
12580TIP3    H137673   4.649   7.680   4.223 -1.0490 -0.8746 -0.8532
12580TIP3    H237674   4.637   7.816   4.159  1.2731 -0.5731 -0.6817
12581TIP3   OH237675   4.420   5.755   3.176  0.8089  0.1045  0.1507
12581TIP3    H137676   4.390   5.776   3.087  1.9534  2.0196  0.1656
12581TIP3    H237677   4.434   5.661   3.175 -0.4252 -0.0799 -1.3265
12582TIP3   OH237678   3.350   1.889   0.265 -0.2009  0.4248  0.8901
12582TIP3    H137679   3.377   1.906   0.355 -2.2438 -3.8244  2.4582
12582TIP3    H237680   3.422   1.837   0.228  0.0867  1.1183  0.4726
12583TIP3   OH237681   6.402   7.245   5.260  0.1971 -0.3951 -0.4325
12583TIP3    H137682   6.403   7.187   5.336  0.8519 -0.0739 -0.1988
12583TIP3    H237683   6.327   7.215   5.209  0.2616 -1.1583 -0.0869
12584TIP3   OH237684   4.247   7.261   3.259 -0.5156 -0.9355  0.7076
12584TIP3    H137685   4.276   7.352   3.262 -3.6416  0.2121 -1.1094
12584TIP3    H237686   4.318   7.214   3.215  0.3568  0.9774  0.0343
12585TIP3   OH237687   3.776   6.502   4.970 -0.3115 -0.1105  0.1898
12585TIP3    H137688   3.803   6.442   4.900  0.4504  0.6541 -0.1837
12585TIP3    H237689   3.741   6.445   5.038  2.4309 -1.1715  0.7714
12586TIP3   OH237690   7.255   0.449   4.078 -0.9246 -0.7304 -0.3000
12586TIP3    H137691   7.256   0.540   4.047  1.7164 -1.0706 -1.3227
12586TIP3    H237692   7.176   0.411   4.039 -0.6350  0.4115 -2.0586
12587TIP3   OH237693   4.854   6.368   6.665 -0.7544 -0.1585 -0.5301
12587TIP3    H137694   4.935   6.361   6.716 -1.3688 -0.9857  0.3446
12587TIP3    H237695   4.821   6.279   6.660 -0.9083 -0.0250 -2.0562
12588TIP3   OH237696   6.469   6.440   4.256  0.7929 -0.2769  0.3729
12588TIP3    H137697   6.527   6.366   4.237 -0.1265 -0.5106 -1.6644
12588TIP3    H237698   6.394   6.426   4.199  0.4507  2.0811  0.2114
12589TIP3   OH237699   5.220   6.498   5.144 -0.0742 -0.1545 -0.4001
12589TIP3    H137700   5.152   6.537   5.200 -0.9338 -0.4199 -1.2415
12589TIP3    H237701   5.177   6.486   5.059  0.5164 -1.9018 -0.4678
12590TIP3   OH237702   5.276   6.689   5.391 -0.1025 -0.3346 -0.0212
12590TIP3    H137703   5.329   6.627   5.339 -0.7325 -1.5495  0.7637
12590TIP3    H237704   5.188   6.680   5.355 -0.3291 -0.3921  0.5535
12591TIP3   OH237705   8.219   0.541   5.014 -0.1905 -0.4842  0.5140
12591TIP3    H137706   8.278   0.470   5.040  0.9905  0.2972  0.0411
12591TIP3    H237707   8.267   0.621   5.036 -1.0025  0.1666 -0.0555
12592TIP3   OH237708   0.595   5.321   2.765  0.3225  0.2636  0.9647
12592TIP3    H137709   0.532   5.389   2.787 -1.2858 -1.0666  0.5226
12592TIP3    H237710   0.583   5.254   2.832 -1.6174 -1.8510 -1.4104
12593TIP3   OH237711   8.040   0.068   4.901  0.3909 -0.3842 -0.4700
12593TIP3    H137712   7.948   0.043   4.900  0.9759 -2.7201 -0.5723
12593TIP3    H237713   8.041   0.158   4.930 -1.9167 -0.3981 -0.2844
12594TIP3   OH237714   1.508   2.657   0.156  0.6225  0.2791  0.3533
12594TIP3    H137715   1.540   2.747   0.170  1.5440  0.1463 -0.7976
12594TIP3    H237716   1.522   2.613   0.240  1.0842  0.9416  0.6275
12595TIP3   OH237717   0.411   5.036   5.441  0.5094 -0.2527  0.1037
12595TIP3    H137718   0.316   5.050   5.445  0.1903 -2.3577  0.3537
12595TIP3    H237719   0.448   5.124   5.450 -1.3175  0.2605  3.6081
12596TIP3   OH237720   0.684   0.844   6.272 -0.3185 -0.3086 -0.5077
12596TIP3    H137721   0.674   0.842   6.367 -0.4757  1.9197 -0.4495
12596TIP3    H237722   0.603   0.885   6.240 -0.2288 -0.9661 -1.5845
12597TIP3   OH237723   4.675   7.431   3.782 -0.2031  0.2030 -0.3931
12597TIP3    H137724   4.688   7.371   3.855  2.4931  1.2228  0.0333
12597TIP3    H237725   4.583   7.458   3.788 -0.1539 -0.1619  2.2913
12598TIP3   OH237726   3.985   1.940   0.336  0.1134 -0.1323  0.4348
12598TIP3    H137727   4.032   1.942   0.419  0.2444 -1.4213  0.3956
12598TIP3    H237728   4.051   1.963   0.270  0.5736 -1.3792  0.4436
12599TIP3   OH237729   6.586   6.751   5.154  0.6785 -0.0856 -0.4596
12599TIP3    H137730   6.547   6.664   5.158  0.1409  0.2096  1.2413
12599TIP3    H237731   6.622   6.758   5.065  1.5067 -2.3696 -0.3221
12600TIP3   OH237732   6.062   4.450   4.636 -0.0827 -0.8210  0.3574
12600TIP3    H137733   6.029   4.477   4.551 -0.2075 -0.3384  0.5557
12600TIP3    H237734   5.989   4.404   4.677 -0.3285 -0.2453  0.5716
12601TIP3   OH237735   1.565   1.210   4.485  0.2178  0.0083 -0.2842
12601TIP3    H137736   1.485   1.262   4.488 -0.7510 -1.2968 -2.4183
12601TIP3    H237737   1.617   1.249   4.415  0.3734 -0.6272 -0.5298
12602TIP3   OH237738   5.928   7.319   6.807 -0.0334 -0.3935 -0.1980
12602TIP3    H137739   5.986   7.387   6.842 -1.2576  0.0811  0.9641
12602TIP3    H237740   5.848   7.366   6.782 -0.2757 -1.1693 -0.9037
12603TIP3   OH237741   3.030   2.586   0.471  0.2089 -0.5172  0.4527
12603TIP3    H137742   3.067   2.642   0.538 -1.3006  3.1713 -1.6840
12603TIP3    H237743   3.106   2.559   0.418  0.7989  0.4532  0.7926
12604TIP3   OH237744   6.241   7.267   2.843 -0.3635 -0.4026  0.3300
12604TIP3    H137745   6.212   7.176   2.839 -1.3550 -0.0402 -0.9228
12604TIP3    H237746   6.301   7.269   2.917 -1.0483 -1.8730  0.9543
12605TIP3   OH237747   5.538   6.695   5.501 -0.0011 -0.0343  0.1986
12605TIP3    H137748   5.561   6.617   5.450  0.1756  0.8861 -1.1755
12605TIP3    H237749   5.445   6.708   5.484  0.0208  0.1776  0.2414
12606TIP3   OH237750   4.973   7.092   3.190  0.2755  0.4379 -0.1309
12606TIP3    H137751   5.044   7.153   3.207 -0.0692  0.6808  0.4476
12606TIP3    H237752   4.898   7.128   3.237  0.0388 -0.3659  0.1268
12607TIP3   OH237753   7.178   1.119   2.857 -0.2916 -0.2487 -0.0736
12607TIP3    H137754   7.121   1.057   2.810  0.6242 -0.7601 -0.5127
12607TIP3    H237755   7.159   1.102   2.950 -1.0087 -0.2702 -0.2181
12608TIP3   OH237756   1.340   0.846   6.488  0.6159  0.1968 -0.8259
12608TIP3    H137757   1.400   0.914   6.520 -1.5317  1.7233  0.0973
12608TIP3    H237758   1.308   0.804   6.568  1.5329 -1.5900 -1.3771
12609TIP3   OH237759   4.819   6.746   5.204  0.0548  0.7180  0.0861
12609TIP3    H137760   4.798   6.814   5.268  0.2325  0.0824  0.8373
12609TIP3    H237761   4.739   6.692   5.201  0.2583  0.4049  0.2264
12610TIP3   OH237762   5.886   7.781   4.666 -0.3073  0.8429  0.5068
12610TIP3    H137763   5.972   7.823   4.663  0.7465 -1.1306  2.0503
12610TIP3    H237764   5.854   7.797   4.755 -1.2126  0.8962  0.1820
12611TIP3   OH237765   1.943   2.034   0.085 -0.3191 -0.0853  0.1821
12611TIP3    H137766   2.001   1.958   0.093 -2.1297 -1.5100  0.0162
12611TIP3    H237767   1.875   2.007   0.025 -0.4582  2.0453 -0.6854
12612TIP3   OH237768   5.668   0.352   3.682  0.2773 -0.5843  0.1548
12612TIP3    H137769   5.682   0.275   3.626  2.6468 -0.7285  0.8899
12612TIP3    H237770   5.727   0.338   3.756 -1.2093  0.6784  1.6066
12613TIP3   OH237771   6.029   4.249   3.003  0.4692 -0.3928  0.3999
12613TIP3    H137772   6.078   4.260   3.084  0.9106  0.5453  0.0056
12613TIP3    H237773   5.962   4.318   3.006 -1.2504 -2.0519  1.2371
12614TIP3   OH237774   6.044   6.548   4.359  0.1282 -0.0341 -0.2088
12614TIP3    H137775   6.069   6.640   4.352  0.2838 -0.0457  0.2424
12614TIP3    H237776   6.037   6.531   4.453  1.9608 -0.9988 -0.2372
12615TIP3   OH237777   7.759   4.389   3.338  0.5870  0.0215  0.1024
12615TIP3    H137778   7.780   4.312   3.285 -0.7677 -0.9668  0.9927
12615TIP3    H237779   7.734   4.456   3.273 -3.1370 -1.8194 -0.4813
12616TIP3   OH237780   4.583   4.930   4.470 -0.2830  0.1577  0.2144
12616TIP3    H137781   4.573   5.004   4.529  1.2153 -0.3487  1.1193
12616TIP3    H237782   4.615   4.968   4.388 -1.1068  0.6953  0.1390
12617TIP3   OH237783   2.602   2.695   0.432  0.1507 -0.3500  0.7163
12617TIP3    H137784   2.555   2.619   0.465 -1.9547  0.3985 -0.4584
12617TIP3    H237785   2.604   2.756   0.506 -2.0055  0.1788  0.3495
12618TIP3   OH237786   5.359   5.925   6.266 -0.5513 -0.4330 -0.2907
12618TIP3    H137787   5.384   5.838   6.296  0.1955 -0.5407 -1.1950
12618TIP3    H237788   5.442   5.967   6.243 -0.8392  0.7557  0.7568
12619TIP3   OH237789   8.430   0.372   5.031  0.0996  0.4842 -0.3394
12619TIP3    H137790   8.479   0.382   5.113  0.9018  3.2285 -1.1083
12619TIP3    H237791   8.491   0.328   4.973  0.5861  1.1829 -0.3628
12620TIP3   OH237792   2.598   3.688   1.581  0.0365  0.4821 -0.1342
12620TIP3    H137793   2.692   3.676   1.574 -0.0353 -0.8962  0.9870
12620TIP3    H237794   2.564   3.600   1.600 -1.5871  0.7507 -1.6187
12621TIP3   OH237795   5.868   5.050   3.456  0.2219 -0.0165 -0.2425
12621TIP3    H137796   5.947   5.104   3.462  0.6940 -0.5778 -1.1257
12621TIP3    H237797   5.842   5.034   3.546  0.5374  1.0154  0.0391
12622TIP3   OH237798   8.176   6.412   6.842 -0.4628 -0.6706  0.1878
12622TIP3    H137799   8.235   6.370   6.778 -0.3589 -1.6295  0.9027
12622TIP3    H237800   8.234   6.443   6.911 -0.6063  0.1122 -0.0397
12623TIP3   OH237801   6.083   5.114   6.165  0.0873 -0.0232  0.0666
12623TIP3    H137802   6.012   5.138   6.106  0.4873 -0.9890 -0.8382
12623TIP3    H237803   6.103   5.194   6.213 -0.7923  0.5670 -0.5373
12624TIP3   OH237804   3.484   1.556   1.126  0.1054  0.6541 -0.1486
12624TIP3    H137805   3.429   1.481   1.106 -1.5060  1.8894 -0.4438
12624TIP3    H237806   3.456   1.585   1.212 -0.7296  2.1474 -0.8922
12625TIP3   OH237807   8.053   4.360   3.330 -0.0192 -0.3118  0.2492
12625TIP3    H137808   8.049   4.439   3.384  1.5850  0.9363 -1.4032
12625TIP3    H237809   8.137   4.320   3.353 -0.5219 -1.1985  0.5772
12626TIP3   OH237810   7.601   6.258   6.305  0.2590  0.1487  0.2138
12626TIP3    H137811   7.608   6.166   6.281 -0.2218  0.2692 -0.4264
12626TIP3    H237812   7.583   6.303   6.222 -0.9431  0.6438  0.7258
12627TIP3   OH237813   6.269   5.923   6.108  0.4475 -0.7724 -0.0059
12627TIP3    H137814   6.206   5.989   6.079 -0.3852  0.2841  3.9456
12627TIP3    H237815   6.350   5.948   6.064 -0.7706  0.5552 -1.6074
12628TIP3   OH237816   4.402   6.269   3.294 -0.0854 -1.1190  0.0492
12628TIP3    H137817   4.435   6.244   3.207 -1.7066 -0.6743 -0.7180
12628TIP3    H237818   4.391   6.187   3.341  1.4310 -1.3231  0.0867
12629TIP3   OH237819   5.641   6.961   5.608 -0.5959  0.5229 -0.1444
12629TIP3    H137820   5.722   6.978   5.562 -0.6810  1.6906  0.1316
12629TIP3    H237821   5.645   6.868   5.630  0.6460  0.5743 -0.1470
12630TIP3   OH237822   3.508   4.693   4.101  0.1573  0.6038 -0.1563
12630TIP3    H137823   3.486   4.640   4.024  0.7982  1.5101 -0.9791
12630TIP3    H237824   3.474   4.780   4.080  0.1374  0.8068  0.6922
12631TIP3   OH237825   8.378   0.134   5.381  0.0852  0.4933  0.1431
12631TIP3    H137826   8.391   0.194   5.455 -1.6960  1.6709 -0.4541
12631TIP3    H237827   8.451   0.154   5.322  0.9115  0.3056  1.0789
12632TIP3   OH237828   3.923   3.518   0.387 -0.4594 -0.0380 -0.0333
12632TIP3    H137829   3.851   3.579   0.403 -0.4062  0.2142 -0.7271
12632TIP3    H237830   3.916   3.497   0.294 -1.0858 -1.8868  0.4161
12633TIP3   OH237831   6.659   5.144   5.588 -1.0887 -0.0741 -0.3452
12633TIP3    H137832   6.685   5.164   5.678 -1.4198 -0.8927 -0.0675
12633TIP3    H237833   6.636   5.229   5.551 -0.8942  0.2766  0.3277
12634TIP3   OH237834   1.595   2.700   0.497 -0.3731 -0.5651 -0.1929
12634TIP3    H137835   1.669   2.641   0.501 -0.1580 -0.2262  1.1414
12634TIP3    H237836   1.523   2.647   0.463  1.0123 -0.3120 -3.7701
12635TIP3   OH237837   7.384   5.142   4.360  0.0462 -0.4482  0.1797
12635TIP3    H137838   7.454   5.186   4.407 -1.7655  2.3509  0.3358
12635TIP3    H237839   7.323   5.113   4.428 -1.1340  1.0537 -0.2161
12636TIP3   OH237840   6.776   6.290   3.877  0.0277 -0.0732  0.2580
12636TIP3    H137841   6.691   6.314   3.913 -0.6947 -2.0033 -0.0948
12636TIP3    H237842   6.769   6.309   3.783  0.9535  2.3576  0.6626
12637TIP3   OH237843   5.947   6.254   4.004  0.4757 -0.7602 -0.7065
12637TIP3    H137844   5.978   6.301   4.081 -2.5493  0.6597 -0.2637
12637TIP3    H237845   5.924   6.167   4.036 -0.7166 -0.1913 -0.0008
12638TIP3   OH237846   6.797   6.989   4.027  0.3446 -0.3149 -0.1198
12638TIP3    H137847   6.830   6.998   3.938 -2.2124  2.5712 -0.8945
12638TIP3    H237848   6.854   7.044   4.080 -0.6608  1.3623 -0.7421
12639TIP3   OH237849   6.279   6.778   4.972 -0.3577  0.3975  0.2628
12639TIP3    H137850   6.293   6.749   4.882  1.1459 -0.4071  0.7460
12639TIP3    H237851   6.265   6.873   4.965 -1.7079  0.1276 -0.9446
12640TIP3   OH237852   4.578   3.092   0.649  0.3171 -0.0553  0.3810
12640TIP3    H137853   4.552   3.005   0.679 -1.1975  0.1662 -0.2540
12640TIP3    H237854   4.511   3.151   0.685 -0.0382  0.5365 -1.1992
12641TIP3   OH237855   7.573   6.441   6.752 -0.1047  0.1110  0.2977
12641TIP3    H137856   7.585   6.434   6.847 -0.1637 -0.6382  0.2497
12641TIP3    H237857   7.661   6.453   6.718 -0.0363 -0.1077  0.4003
12642TIP3   OH237858   4.265   1.305   0.081  0.5752 -0.1338 -0.6652
12642TIP3    H137859   4.314   1.224   0.093 -0.4473 -0.8314 -1.1466
12642TIP3    H237860   4.204   1.286   0.010 -1.2506  0.3114  0.7330
12643TIP3   OH237861   7.681   6.553   1.906  0.1662  0.2589 -0.1494
12643TIP3    H137862   7.654   6.561   1.815  0.9932  0.4548 -0.3777
12643TIP3    H237863   7.603   6.518   1.951  0.0205 -0.6091 -1.0647
12644TIP3   OH237864   6.810   6.253   5.082 -0.3942  0.5376 -0.1755
12644TIP3    H137865   6.895   6.296   5.070  1.4872 -2.8741  0.2910
12644TIP3    H237866   6.800   6.199   5.003 -1.9134  0.5092  0.0217
12645TIP3   OH237867   0.047   4.979   3.123  0.0246 -0.4148 -0.3118
12645TIP3    H137868   0.131   5.020   3.102  1.1478  0.2987  4.9141
12645TIP3    H237869  -0.018   5.036   3.083  1.8889  1.7727 -0.2989
12646TIP3   OH237870   7.295   6.001   3.468 -0.0699  0.2919  0.2619
12646TIP3    H137871   7.361   6.015   3.535  0.3698  0.7669 -0.2711
12646TIP3    H237872   7.309   6.070   3.404  0.2892 -0.8658 -0.9464
12647TIP3   OH237873   2.993   7.298   5.774  0.1026  0.7260 -0.3722
12647TIP3    H137874   3.054   7.258   5.836 -1.2963  0.0703  0.5956
12647TIP3    H237875   3.029   7.276   5.688  1.3355  0.5230  0.1780
12648TIP3   OH237876   5.810   6.371   6.114  0.2803 -0.0183 -0.2492
12648TIP3    H137877   5.802   6.305   6.045 -0.0014  0.5894 -0.8114
12648TIP3    H237878   5.731   6.425   6.105  1.6640  1.9090 -1.4325
12649TIP3   OH237879   7.838   5.698   3.679 -0.0208  0.1791  0.3803
12649TIP3    H137880   7.912   5.744   3.641 -0.5313  0.7892  0.1186
12649TIP3    H237881   7.846   5.714   3.773  0.2257  0.1717  0.3611
12650TIP3   OH237882   5.254   6.132   4.908 -0.5778 -0.8135 -0.1850
12650TIP3    H137883   5.228   6.119   4.817 -1.4935 -0.6869  0.0567
12650TIP3    H237884   5.317   6.062   4.925 -0.1195 -0.6181 -1.0251
12651TIP3   OH237885   2.246   1.985   6.094  0.1378  0.4157 -0.3067
12651TIP3    H137886   2.154   2.000   6.073  0.3700  0.4363 -1.3180
12651TIP3    H237887   2.278   1.928   6.024  0.0562 -2.3524  1.8366
12652TIP3   OH237888   7.178   6.126   4.247 -0.8065  0.2557 -0.1086
12652TIP3    H137889   7.122   6.050   4.262 -1.9064  1.3546  1.4920
12652TIP3    H237890   7.118   6.194   4.217  0.0732  0.6926 -0.8924
12653TIP3   OH237891   8.353   5.485   5.614 -0.0032  0.6881 -0.2010
12653TIP3    H137892   8.416   5.452   5.678  0.8045  0.4366 -1.1060
12653TIP3    H237893   8.270   5.488   5.661  0.8149  1.6769  1.2081
12654TIP3   OH237894   4.348   3.152   5.710  0.3189 -0.9161  0.4859
12654TIP3    H137895   4.254   3.140   5.720  0.2054  0.4244  1.1761
12654TIP3    H237896   4.378   3.072   5.667 -1.3582 -0.6791 -1.1803
12655TIP3   OH237897   5.605   4.852   4.865 -0.5144  0.4100  0.0050
12655TIP3    H137898   5.525   4.853   4.814 -0.8862 -0.1406  0.5702
12655TIP3    H237899   5.675   4.868   4.802 -0.8160 -1.7922 -0.9253
12656TIP3   OH237900   4.029   6.663   5.256  0.1518  0.0021  0.1965
12656TIP3    H137901   4.092   6.655   5.185  0.9065  0.9932  0.7498
12656TIP3    H237902   3.990   6.575   5.263 -0.4007  0.0566 -1.8510
12657TIP3   OH237903   0.948   0.784   5.785 -0.1663 -0.7508 -0.4204
12657TIP3    H137904   0.919   0.697   5.811 -0.2855 -0.1254  1.7198
12657TIP3    H237905   1.025   0.801   5.840 -0.7839  0.8872 -0.0124
12658TIP3   OH237906   5.243   2.862   0.323  0.2135 -0.4889  0.2183
12658TIP3    H137907   5.320   2.882   0.271  1.7994 -0.2437  2.6023
12658TIP3    H237908   5.241   2.930   0.390 -2.3380 -0.2313 -0.0669
12659TIP3   OH237909   6.202   5.058   4.194  0.1495  0.8045 -0.4161
12659TIP3    H137910   6.121   5.045   4.244  0.5852 -2.3437 -0.4447
12659TIP3    H237911   6.271   5.023   4.250  1.3931  2.5689 -0.8054
12660TIP3   OH237912   8.220   0.874   2.772 -0.8320  0.6868  0.9541
12660TIP3    H137913   8.268   0.794   2.794 -0.1680  0.7757 -0.1359
12660TIP3    H237914   8.288   0.939   2.758 -1.1608  0.4714 -2.0024
12661TIP3   OH237915   5.478   5.106   6.704 -0.5177  0.0658  0.3873
12661TIP3    H137916   5.407   5.164   6.677 -1.2040 -0.8838  0.0938
12661TIP3    H237917   5.496   5.053   6.626  2.1281  1.8708 -0.2880
12662TIP3   OH237918   6.343   1.596   6.792 -0.3554 -0.0448 -0.1703
12662TIP3    H137919   6.313   1.530   6.855 -0.7135  1.5088  1.3072
12662TIP3    H237920   6.304   1.678   6.822  1.2230  1.0981 -1.1843
12663TIP3   OH237921   4.325   8.026   5.455  0.5641 -0.6143 -0.3224
12663TIP3    H137922   4.339   7.933   5.441  0.5336 -0.5665 -0.6769
12663TIP3    H237923   4.356   8.042   5.544 -2.6413 -1.6177  1.0472
12664TIP3   OH237924   5.725   6.069   6.915  1.0390 -0.3439  0.2827
12664TIP3    H137925   5.631   6.082   6.900  1.1832 -1.1013 -1.4134
12664TIP3    H237926   5.738   5.974   6.904  1.8014 -0.4152  1.7228
12665TIP3   OH237927   7.387   7.739   2.554 -0.1004 -0.0808  0.5353
12665TIP3    H137928   7.390   7.822   2.602  1.0066  1.8114 -2.6107
12665TIP3    H237929   7.303   7.740   2.507  0.2871 -0.3156 -0.1821
12666TIP3   OH237930   7.436   6.570   4.887 -0.3668 -0.6104  0.4202
12666TIP3    H137931   7.506   6.521   4.930  1.4155  1.2960 -0.1761
12666TIP3    H237932   7.450   6.555   4.794 -1.8399 -1.6285  0.3595
12667TIP3   OH237933   2.258   1.134   5.585 -0.6800  0.2291  0.0555
12667TIP3    H137934   2.293   1.101   5.503 -1.6281  1.8559 -1.0544
12667TIP3    H237935   2.277   1.228   5.583 -1.2580  0.3913  1.4021
12668TIP3   OH237936   4.201   2.870   0.016 -0.0580 -0.1729 -0.6100
12668TIP3    H137937   4.154   2.940  -0.030  0.5403 -0.3545 -1.5080
12668TIP3    H237938   4.134   2.827   0.070 -0.2070  1.8200  0.8420
12669TIP3   OH237939   4.639   6.352   4.561  0.1173  0.2771 -0.4664
12669TIP3    H137940   4.632   6.256   4.559 -0.6592  0.3452 -4.0516
12669TIP3    H237941   4.729   6.369   4.589  0.1691 -1.4872  0.5114
12670TIP3   OH237942   6.393   4.518   5.524 -0.4550 -0.2386  0.1428
12670TIP3    H137943   6.335   4.458   5.478 -3.1498  2.7097 -0.4753
12670TIP3    H237944   6.401   4.593   5.465  1.5092  0.7278  1.5903
12671TIP3   OH237945   5.798   6.928   5.870  0.2441  0.0496  0.4933
12671TIP3    H137946   5.741   6.873   5.818  0.8448  0.2926 -0.4455
12671TIP3    H237947   5.786   6.899   5.960  0.5481 -1.5929  0.0065
12672TIP3   OH237948   5.516   7.235   5.016  0.1273 -0.2364 -0.8343
12672TIP3    H137949   5.585   7.297   5.041 -0.2282 -0.4191  0.6590
12672TIP3    H237950   5.435   7.275   5.049 -0.5431  0.1421 -2.8557
12673TIP3   OH237951   6.262   5.879   5.435  0.2190 -0.0129  0.2326
12673TIP3    H137952   6.320   5.954   5.426  0.4017 -0.5031 -3.0863
12673TIP3    H237953   6.174   5.915   5.421  0.2613 -0.2912 -0.7997
12674TIP3   OH237954   5.742   5.530   5.514  0.2200 -0.5679 -0.2844
12674TIP3    H137955   5.730   5.507   5.422  0.6924 -0.5041 -0.3628
12674TIP3    H237956   5.659   5.570   5.540  0.4049  0.2714 -0.9433
12675TIP3   OH237957   3.755   1.435   0.497  0.0059  0.1169 -0.1349
12675TIP3    H137958   3.695   1.510   0.506 -0.8159 -0.6258  0.7991
12675TIP3    H237959   3.760   1.398   0.585 -1.0560 -2.0142 -0.9149
12676TIP3   OH237960   4.192   5.014   5.528  0.5352 -0.0711  0.5455
12676TIP3    H137961   4.138   4.935   5.521 -1.3541  1.1113  1.3304
12676TIP3    H237962   4.189   5.054   5.441 -0.2402  0.2318  0.7109
12677TIP3   OH237963   6.323   5.953   4.626 -0.3089  0.0932  0.3623
12677TIP3    H137964   6.351   5.861   4.625 -1.7621 -0.3665 -0.1736
12677TIP3    H237965   6.246   5.953   4.684  0.7110  1.2959  1.7351
12678TIP3   OH237966   5.883   6.285   1.076  0.3522  0.3962  0.5855
12678TIP3    H137967   5.924   6.371   1.090 -0.0758  0.5235  1.0859
12678TIP3    H237968   5.805   6.287   1.131 -0.7782  0.4657 -0.9821
12679TIP3   OH237969   6.674   4.942   4.355  0.4944 -0.5406  0.2443
12679TIP3    H137970   6.714   4.978   4.434  0.6384  0.7049 -0.3945
12679TIP3    H237971   6.700   5.001   4.285 -1.8755 -0.1029 -0.3068
12680TIP3   OH237972   0.941   2.670   3.724  0.3160 -0.2571 -0.3192
12680TIP3    H137973   0.848   2.693   3.725 -0.3098 -2.6073  0.7761
12680TIP3    H237974   0.958   2.641   3.634 -0.2997 -0.8163 -0.2626
12681TIP3   OH237975   5.119   6.827   6.101  0.0385 -0.6714  0.0048
12681TIP3    H137976   5.114   6.920   6.124 -0.0238 -0.6696 -0.0148
12681TIP3    H237977   5.194   6.821   6.042 -0.3125 -0.5343 -0.4583
12682TIP3   OH237978   2.364   2.437   0.293  0.0438 -0.1029  0.2617
12682TIP3    H137979   2.279   2.435   0.336  0.9265 -1.2784  1.9990
12682TIP3    H237980   2.428   2.438   0.364  1.5438 -1.8993 -1.0012
12683TIP3   OH237981   5.327   6.084   5.779 -0.6224 -0.3728  0.0015
12683TIP3    H137982   5.280   6.113   5.701  0.5439 -1.1851 -1.0118
12683TIP3    H237983   5.257   6.058   5.840 -1.5377 -2.3319 -1.7837
12684TIP3   OH237984   6.601   1.307   5.094 -0.0355 -0.2783  0.4415
12684TIP3    H137985   6.601   1.391   5.048  0.0782 -1.3595 -1.6164
12684TIP3    H237986   6.510   1.277   5.088  0.3905 -1.3628 -0.9023
12685TIP3   OH237987   3.142   0.385   0.620  0.2485  0.2257 -0.0675
12685TIP3    H137988   3.222   0.424   0.657  0.9413  0.2589 -1.5641
12685TIP3    H237989   3.161   0.376   0.527 -1.4801  0.1750 -0.4314
12686TIP3   OH237990   0.602   6.028   4.694 -0.0561 -0.1159 -0.7917
12686TIP3    H137991   0.682   5.977   4.709 -0.2751 -0.2982 -0.2183
12686TIP3    H237992   0.574   6.054   4.782 -0.2298  0.5566 -1.0455
12687TIP3   OH237993   4.062   0.195   2.985  0.0945  0.2141 -0.5491
12687TIP3    H137994   4.032   0.151   3.064 -0.3120 -0.6611 -1.1892
12687TIP3    H237995   4.029   0.141   2.913 -1.0954  1.9868 -1.3653
12688TIP3   OH237996   7.064   5.861   3.826  0.0169 -0.5050  0.0894
12688TIP3    H137997   7.128   5.847   3.756 -0.4188  0.3709 -0.4806
12688TIP3    H237998   7.092   5.943   3.868  0.8160 -1.4840  1.5336
12689TIP3   OH237999   5.764   7.796   4.215 -0.3918 -0.0593 -0.5596
12689TIP3    H138000   5.676   7.791   4.177 -1.3617  3.7135  0.9362
12689TIP3    H238001   5.810   7.860   4.160  0.7026 -0.3900 -0.0453
12690TIP3   OH238002   4.875   7.093   4.397 -0.1679 -0.1952 -0.4198
12690TIP3    H138003   4.943   7.028   4.416 -1.3223 -0.8189  1.8061
12690TIP3    H238004   4.794   7.052   4.427 -1.4851  0.6987 -2.6659
12691TIP3   OH238005   6.005   7.866   4.378  0.2208 -0.7085 -0.5054
12691TIP3    H138006   5.988   7.899   4.466 -0.2757 -1.9490 -0.1130
12691TIP3    H238007   5.922   7.875   4.332  0.1637 -1.1030 -0.4877
12692TIP3   OH238008   6.002   7.868   5.505 -0.1502 -0.1676 -0.1061
12692TIP3    H138009   6.014   7.942   5.445 -0.7197 -0.5799 -0.7368
12692TIP3    H238010   5.948   7.902   5.576 -1.0286 -0.1727 -0.7670
12693TIP3   OH238011   6.651   5.088   5.151 -0.8455 -0.0824  0.4184
12693TIP3    H138012   6.666   5.030   5.226 -0.2117 -1.9377 -1.1173
12693TIP3    H238013   6.556   5.095   5.145 -1.0214 -2.8389 -0.7390
12694TIP3   OH238014   7.751   6.404   4.604  0.4714  0.7205  0.1687
12694TIP3    H138015   7.719   6.351   4.531  0.0322  0.2946  0.6624
12694TIP3    H238016   7.841   6.375   4.618  0.1658 -0.0277  0.5628
12695TIP3   OH238017   0.070   5.673   2.484  0.6974 -0.2765 -0.2899
12695TIP3    H138018   0.154   5.642   2.517  0.1928 -1.5935 -0.1890
12695TIP3    H238019   0.018   5.593   2.472 -0.8070  0.5728  0.3847
12696TIP3   OH238020   7.822   7.575   3.867  0.4638  0.0882  0.1349
12696TIP3    H138021   7.848   7.590   3.958 -0.6565  0.2742  0.4266
12696TIP3    H238022   7.835   7.660   3.824 -2.0019  0.8710  0.8546
12697TIP3   OH238023   7.282   4.509   2.237 -0.8446 -0.4703  0.3410
12697TIP3    H138024   7.220   4.579   2.216 -1.1874 -0.7416  0.4519
12697TIP3    H238025   7.265   4.441   2.172 -0.0546 -0.1760 -0.1890
12698TIP3   OH238026   6.167   5.642   6.714 -0.2930 -0.0236  0.4451
12698TIP3    H138027   6.095   5.580   6.712 -1.1978  0.9328  1.9522
12698TIP3    H238028   6.166   5.684   6.628 -1.6312  0.0972  0.5174
12699TIP3   OH238029   0.357   6.559   4.804 -0.2031  0.0765  0.3786
12699TIP3    H138030   0.448   6.569   4.835 -0.7587 -0.4257  2.2318
12699TIP3    H238031   0.315   6.505   4.871 -1.8842  0.3189 -0.4664
12700TIP3   OH238032   7.448   7.071   4.117  0.3828  0.1177 -0.0102
12700TIP3    H138033   7.418   7.012   4.048  0.7029 -0.4915  0.3683
12700TIP3    H238034   7.373   7.081   4.175  0.5725 -0.5692  0.3649
12701TIP3   OH238035   8.006   5.292   1.642 -0.4610  0.5769 -0.1384
12701TIP3    H138036   7.982   5.378   1.676 -2.1392  0.1412 -0.1468
12701TIP3    H238037   8.016   5.237   1.721  1.1244  0.8870 -0.1052
12702TIP3   OH238038   1.625   0.356   4.548 -0.4422 -0.2920 -0.2254
12702TIP3    H138039   1.564   0.353   4.474 -0.7512 -1.0317  0.0451
12702TIP3    H238040   1.684   0.428   4.528 -1.3475  0.3722 -0.5443
12703TIP3   OH238041   6.314   6.857   5.276  0.2504 -0.7269 -0.0948
12703TIP3    H138042   6.316   6.792   5.205 -0.2932 -1.0430  0.1735
12703TIP3    H238043   6.404   6.890   5.281  0.2947 -0.7018 -0.9342
12704TIP3   OH238044   7.429   4.635   6.391  0.5782  0.0611  0.0090
12704TIP3    H138045   7.468   4.626   6.304 -0.4785 -0.3721 -0.4222
12704TIP3    H238046   7.338   4.608   6.380  0.4843 -0.1816  1.2914
12705TIP3   OH238047   8.481   7.716   4.537 -0.0345  0.1512 -0.6516
12705TIP3    H138048   8.422   7.653   4.578  0.0437 -0.2098 -1.0882
12705TIP3    H238049   8.435   7.744   4.458  0.2373  0.1119 -0.8248
12706TIP3   OH238050   1.034   6.469   4.837 -0.2377 -0.4297  0.3539
12706TIP3    H138051   1.049   6.562   4.817 -0.2880 -1.0461 -2.8373
12706TIP3    H238052   0.956   6.468   4.891 -0.8833  1.3384 -0.5043
12707TIP3   OH238053  -0.024   6.016   2.845 -0.5074 -0.2040  0.1544
12707TIP3    H138054   0.002   5.945   2.787  2.8832  0.8101  0.3651
12707TIP3    H238055   0.033   6.007   2.921 -1.1099  1.8067  0.8801
12708TIP3   OH238056   6.947   7.539   4.405 -0.4420  0.3042 -0.0401
12708TIP3    H138057   6.952   7.607   4.473  0.6099  0.3234 -0.1372
12708TIP3    H238058   7.037   7.511   4.392 -0.7145 -0.1586 -0.9720
12709TIP3   OH238059   0.616   6.247   2.771  0.3575 -0.1203  0.6447
12709TIP3    H138060   0.584   6.203   2.850  0.1011  0.9777  1.1528
12709TIP3    H238061   0.671   6.318   2.803 -0.1072  0.6131 -0.1514
12710TIP3   OH238062   0.875   6.172   2.391 -0.0176 -0.1193  0.1773
12710TIP3    H138063   0.800   6.124   2.355 -1.7414  3.2535 -0.8742
12710TIP3    H238064   0.853   6.188   2.482 -0.2976  0.3420  0.0280
12711TIP3   OH238065   6.904   6.930   2.685  0.0256  0.6310 -0.8846
12711TIP3    H138066   6.951   6.918   2.768 -3.4102 -1.1468  0.9109
12711TIP3    H238067   6.958   6.884   2.621  1.3375 -0.3806  0.8692
12712TIP3   OH238068   0.191   7.894   1.928  0.3202 -0.0393  0.0268
12712TIP3    H138069   0.105   7.890   1.969  0.7788  0.4930  1.0800
12712TIP3    H238070   0.203   7.809   1.887 -1.0680  0.1981 -0.8876
12713TIP3   OH238071   7.133   6.914   3.651  0.4960 -0.3017  0.1903
12713TIP3    H138072   7.147   6.855   3.725  1.0032 -0.9063 -0.3882
12713TIP3    H238073   7.197   6.888   3.586 -0.2808 -0.0996 -0.6691
12714TIP3   OH238074   4.262   0.490   6.779  0.1341  0.0061 -0.4559
12714TIP3    H138075   4.324   0.558   6.753  1.0516 -1.1276 -1.2342
12714TIP3    H238076   4.302   0.449   6.855  1.7177 -2.5807 -2.6133
12715TIP3   OH238077   1.313   6.242   4.187 -0.2981  0.2924  0.0997
12715TIP3    H138078   1.269   6.269   4.106  0.4640  0.9564 -0.1094
12715TIP3    H238079   1.334   6.150   4.174 -0.3693  0.3445 -0.3776
12716TIP3   OH238080   7.967   6.176   3.930 -0.4587  0.1944 -0.1907
12716TIP3    H138081   8.024   6.206   3.859 -1.2300 -0.2836 -1.0150
12716TIP3    H238082   7.878   6.198   3.901 -0.9247 -1.5977 -0.1762
12717TIP3   OH238083   0.676   0.745   4.957 -0.3060  0.1365 -0.1506
12717TIP3    H138084   0.595   0.795   4.959 -0.8371 -0.7251  0.3470
12717TIP3    H238085   0.674   0.699   4.874  0.7805  1.8861 -1.1762
12718TIP3   OH238086   1.199   0.397   5.420  0.2862 -0.9339 -0.0496
12718TIP3    H138087   1.264   0.338   5.458  0.3427  0.4329  2.0915
12718TIP3    H238088   1.248   0.448   5.355  0.9505 -1.1458  0.2765
12719TIP3   OH238089   8.139   6.735   4.331  0.4679 -0.0772 -0.7708
12719TIP3    H138090   8.214   6.766   4.280  2.5510  0.6138  2.5592
12719TIP3    H238091   8.129   6.799   4.401 -0.4808 -2.4363  1.3520
12720TIP3   OH238092   0.166   0.321   5.800  0.0763  0.5851  0.8354
12720TIP3    H138093   0.184   0.283   5.715 -1.1696  0.6766  0.5233
12720TIP3    H238094   0.229   0.393   5.808  1.1695 -0.3370  0.6316
12721TIP3   OH238095   7.848   7.828   4.179 -0.1587 -0.5744 -0.5248
12721TIP3    H138096   7.811   7.901   4.129 -0.6292 -0.0943  0.5109
12721TIP3    H238097   7.906   7.784   4.117 -0.7019  0.0351 -1.4849
12722TIP3   OH238098   5.114   6.156   6.418  0.5600 -0.3976 -0.4466
12722TIP3    H138099   5.026   6.188   6.401  0.1406 -0.7473  0.9945
12722TIP3    H238100   5.106   6.061   6.415  0.6059 -0.4642  0.9181
12723TIP3   OH238101   7.879   6.745   4.170  0.0357 -0.3912  0.2829
12723TIP3    H138102   7.913   6.775   4.086 -0.1912 -1.2231 -0.1105
12723TIP3    H238103   7.953   6.700   4.211  0.1511  0.0282  0.5453
12724TIP3   OH238104   0.211   5.176   1.438  0.0731  0.3894  0.2256
12724TIP3    H138105   0.153   5.203   1.367 -0.3392  0.0648  0.4305
12724TIP3    H238106   0.155   5.121   1.494  0.5483  0.1701  0.4886
12725TIP3   OH238107   6.692   5.313   2.363  0.2850  0.0426 -0.3698
12725TIP3    H138108   6.608   5.269   2.357 -0.1163  0.5138  1.3653
12725TIP3    H238109   6.683   5.390   2.306 -0.4212  0.0175 -0.2995
12726TIP3   OH238110   0.687   6.705   2.673  0.0535  0.0542 -0.4659
12726TIP3    H138111   0.743   6.765   2.722  0.6156 -0.3752 -0.5885
12726TIP3    H238112   0.686   6.740   2.584  0.7317 -0.3695 -0.6380
12727TIP3   OH238113   5.264   6.835   5.620 -0.3193 -0.0347  0.0421
12727TIP3    H138114   5.186   6.889   5.613 -0.9562 -1.0815 -1.0290
12727TIP3    H238115   5.272   6.793   5.535  0.9353 -0.5820  0.4246
12728TIP3   OH238116   6.882   5.953   2.707 -0.2518 -0.3366 -0.1672
12728TIP3    H138117   6.826   6.022   2.671  0.7815  0.2154 -0.7262
12728TIP3    H238118   6.844   5.935   2.794 -0.4982  0.9786  0.0126
12729TIP3   OH238119   0.770   6.171   3.500 -0.2078 -0.0902  0.0557
12729TIP3    H138120   0.850   6.200   3.545  0.4541 -0.1631 -1.0504
12729TIP3    H238121   0.750   6.243   3.440 -0.5056 -0.4454 -0.2667
12730TIP3   OH238122   7.943   5.463   4.077 -0.0497  0.6701 -0.0768
12730TIP3    H138123   8.036   5.475   4.056  0.3193  1.8289  1.9986
12730TIP3    H238124   7.931   5.368   4.078  1.9528  0.3700  2.8675
12731TIP3   OH238125   6.880   6.236   2.574  0.3615  0.2117  0.4109
12731TIP3    H138126   6.846   6.326   2.581  2.5126  1.0391  0.6675
12731TIP3    H238127   6.953   6.234   2.635  0.3953 -1.7186  0.3219
12732TIP3   OH238128   7.328   5.944   4.751  0.1865 -0.3978 -0.5642
12732TIP3    H138129   7.320   6.039   4.753  1.9823 -0.2679  2.0920
12732TIP3    H238130   7.256   5.916   4.693 -0.1349  2.5475 -1.7159
12733TIP3   OH238131   5.379   6.948   4.640 -0.7863 -0.6162  0.6134
12733TIP3    H138132   5.388   6.866   4.592  0.3779 -0.8211  1.1739
12733TIP3    H238133   5.463   6.992   4.629 -1.2630  0.3177  0.6645
12734TIP3   OH238134   7.198   4.248   2.671  0.2926  0.0088 -0.4184
12734TIP3    H138135   7.202   4.336   2.710  0.9589 -0.0730 -0.2995
12734TIP3    H238136   7.265   4.250   2.602  1.2383 -0.8368  0.4623
12735TIP3   OH238137   0.291   5.075   3.065  0.1343 -0.3006  0.3897
12735TIP3    H138138   0.360   5.141   3.061  0.2067 -0.3812  0.3203
12735TIP3    H238139   0.328   4.999   3.021 -0.4222  0.0329 -0.6741
12736TIP3   OH238140   0.104   5.776   3.273 -0.2978  0.1921 -0.4810
12736TIP3    H138141   0.196   5.777   3.300 -0.9023  1.7114  1.6312
12736TIP3    H238142   0.070   5.693   3.308  0.7170 -1.3570 -3.0130
12737TIP3   OH238143   1.424   7.776   3.197 -0.3231  0.2452  0.1101
12737TIP3    H138144   1.361   7.749   3.264  2.0737 -0.7273  2.0391
12737TIP3    H238145   1.433   7.699   3.141 -1.8981  0.8731 -1.0695
12738TIP3   OH238146   7.517   6.509   1.316 -0.2753 -0.4416 -0.4450
12738TIP3    H138147   7.529   6.556   1.234  0.6236  1.1442  0.5544
12738TIP3    H238148   7.571   6.431   1.308  0.7195  0.2815 -0.9383
12739TIP3   OH238149   8.192   6.562   3.883  0.0548  0.3734 -0.5455
12739TIP3    H138150   8.101   6.592   3.888  0.0180  0.4049 -1.2890
12739TIP3    H238151   8.243   6.643   3.883  0.0379  0.3851 -0.9268
12740TIP3   OH238152   7.845   6.022   4.692 -0.2715 -0.5393 -0.1610
12740TIP3    H138153   7.753   6.008   4.669 -0.2271  0.6686 -1.1734
12740TIP3    H238154   7.893   5.962   4.635 -0.3679 -0.1257 -0.6905
12741TIP3   OH238155   1.206   6.807   5.129 -0.1456  0.0904  0.1455
12741TIP3    H138156   1.233   6.850   5.210  0.0420 -0.2401  0.2592
12741TIP3    H238157   1.112   6.791   5.141 -0.4216  1.3375 -0.2973
12742TIP3   OH238158   0.559   7.410   3.339  0.3455 -0.3058 -0.1652
12742TIP3    H138159   0.510   7.482   3.379 -0.0969  0.2729 -1.7165
12742TIP3    H238160   0.587   7.356   3.413  0.0208  1.0415  0.9600
12743TIP3   OH238161   7.656   5.983   3.067  0.5001 -0.2326 -0.2320
12743TIP3    H138162   7.702   5.952   2.988  1.7670 -1.3855  0.9153
12743TIP3    H238163   7.718   5.966   3.138 -0.2307  1.7234  0.8957
12744TIP3   OH238164   1.442   5.762   3.092  0.0910  0.1414 -0.8905
12744TIP3    H138165   1.443   5.858   3.087  1.4329  0.1832  0.0543
12744TIP3    H238166   1.380   5.736   3.024 -1.2841  1.7256 -0.2956
12745TIP3   OH238167   7.240   5.096   6.015 -0.6368 -0.2116 -0.1521
12745TIP3    H138168   7.312   5.035   6.027  0.9360  1.4865 -0.5990
12745TIP3    H238169   7.227   5.100   5.920  0.3174  1.2573 -0.2487
12746TIP3   OH238170   0.748   5.609   3.277  0.0150  0.2022  0.2814
12746TIP3    H138171   0.741   5.671   3.204 -0.1284 -1.7249 -1.3617
12746TIP3    H238172   0.835   5.571   3.267 -0.8695 -1.7244 -0.2524
12747TIP3   OH238173   6.463   7.927   5.669  0.2994  0.0577 -0.4693
12747TIP3    H138174   6.465   7.974   5.586 -1.2766  0.9999  0.0120
12747TIP3    H238175   6.475   7.994   5.736  1.0218 -0.6269  0.1021
12748TIP3   OH238176   7.582   6.896   2.370  0.4131  0.5111 -0.4061
12748TIP3    H138177   7.588   6.980   2.323  0.1770  0.7446 -0.0199
12748TIP3    H238178   7.595   6.830   2.302 -0.7988  0.8255 -0.9503
12749TIP3   OH238179   7.465   5.518   3.940 -0.1785  0.3394  0.3416
12749TIP3    H138180   7.432   5.446   3.993  0.1857 -0.8065 -0.9567
12749TIP3    H238181   7.552   5.489   3.912  0.3043  1.6369  0.4919
12750TIP3   OH238182   1.011   1.175   4.982 -0.0929  0.4972 -0.4032
12750TIP3    H138183   0.971   1.242   4.926 -0.6105 -1.0338 -1.9030
12750TIP3    H238184   0.937   1.123   5.013  0.2550  0.9509  1.2293
12751TIP3   OH238185   6.653   7.928   4.015 -0.0648 -0.0186  0.1182
12751TIP3    H138186   6.628   8.006   3.965  2.4110  0.0677 -1.0800
12751TIP3    H238187   6.705   7.875   3.953 -0.8254 -2.1236  1.2230
12752TIP3   OH238188   0.914   7.939   4.235  0.0502  0.3970 -0.3037
12752TIP3    H138189   0.891   7.847   4.245 -0.2409  0.5085  0.0223
12752TIP3    H238190   0.938   7.948   4.142  1.1096 -0.2379 -0.0921
12753TIP3   OH238191   6.179   6.172   4.907  0.4224 -0.6421  0.1238
12753TIP3    H138192   6.124   6.113   4.855  0.6644 -1.5222  0.8604
12753TIP3    H238193   6.188   6.129   4.992 -0.4128  1.0438  1.1030
12754TIP3   OH238194   8.424   7.726   2.620 -0.1598  0.2679 -0.0796
12754TIP3    H138195   8.443   7.644   2.574  1.0930 -0.5001  1.7121
12754TIP3    H238196   8.362   7.772   2.564  0.9710 -0.8233 -2.2691
12755TIP3   OH238197   7.146   5.413   3.489  0.4619 -0.1198  0.1411
12755TIP3    H138198   7.165   5.465   3.411  1.5849  0.2080  0.6190
12755TIP3    H238199   7.051   5.410   3.493  0.3260  2.8156  0.6862
12756TIP3   OH238200   6.182   7.457   3.912  0.6013  0.4105 -0.2699
12756TIP3    H138201   6.087   7.469   3.911  0.3515 -1.1770  1.7846
12756TIP3    H238202   6.204   7.448   4.005  2.7929  0.9300 -0.7123
12757TIP3   OH238203   5.985   7.069   6.125 -0.2665  0.0030 -0.2081
12757TIP3    H138204   5.973   6.975   6.115  1.8454 -0.3870  0.7402
12757TIP3    H238205   6.035   7.095   6.048 -2.7381  0.7720 -1.6177
12758TIP3   OH238206   7.195   5.125   2.232  0.5736  0.2672 -0.2807
12758TIP3    H138207   7.118   5.173   2.260  0.8413  0.6514 -0.1926
12758TIP3    H238208   7.165   5.072   2.158  0.0925 -0.0269  0.1241
12759TIP3   OH238209   1.372   3.718   4.386 -0.2439  0.3887  0.3640
12759TIP3    H138210   1.395   3.628   4.406 -0.4852 -0.0637 -1.2757
12759TIP3    H238211   1.286   3.731   4.427 -0.0039  0.0292  0.9867
12760TIP3   OH238212   7.378   5.313   2.293 -0.6566  0.6743  0.4378
12760TIP3    H138213   7.310   5.246   2.290 -2.8552  2.8780 -0.3537
12760TIP3    H238214   7.331   5.396   2.298  1.9603  2.2858 -0.2396
12761TIP3   OH238215   5.070   7.693   5.293  0.1209  0.0940 -0.3099
12761TIP3    H138216   5.047   7.748   5.369 -1.8259 -1.0596 -0.0483
12761TIP3    H238217   5.012   7.723   5.224 -0.7695 -1.4593 -0.2397
12762TIP3   OH238218   1.984   5.929   2.556 -0.4614 -0.0838  0.1889
12762TIP3    H138219   1.929   5.940   2.478 -1.8689 -1.1432  1.0050
12762TIP3    H238220   1.993   5.834   2.566  0.8211  0.0630  0.5694
12763TIP3   OH238221   0.130   7.679   2.210  0.1137  0.0269  0.1828
12763TIP3    H138222   0.088   7.607   2.257 -0.7013 -0.0552 -0.6616
12763TIP3    H238223   0.220   7.650   2.197 -0.6340 -1.5623 -1.6302
12764TIP3   OH238224   2.373   1.638   2.046 -0.0093 -0.3871  0.2633
12764TIP3    H138225   2.438   1.572   2.022  0.1695 -0.2599  0.3906
12764TIP3    H238226   2.314   1.592   2.106  0.7282 -0.1491  1.1928
12765TIP3   OH238227   8.349   5.156   4.106 -0.0770  0.0225  0.3855
12765TIP3    H138228   8.258   5.131   4.118 -0.4206  0.6063 -0.9686
12765TIP3    H238229   8.359   5.236   4.159  0.4893 -1.7420  3.0433
12766TIP3   OH238230   7.248   7.739   4.637 -0.1181  0.4589 -0.8774
12766TIP3    H138231   7.237   7.781   4.722 -0.8205 -0.6044 -0.4319
12766TIP3    H238232   7.162   7.744   4.596  0.3727  1.5332 -1.8050
12767TIP3   OH238233   0.440   0.192   4.900  1.1376 -0.1295 -0.3844
12767TIP3    H138234   0.488   0.272   4.882 -0.1668  0.6390 -0.5319
12767TIP3    H238235   0.502   0.136   4.947  1.1239  2.1542  2.4871
12768TIP3   OH238236   7.091   6.075   3.673  0.1439  0.1886 -0.3538
12768TIP3    H138237   7.100   6.165   3.640  1.0962 -0.5839 -2.2791
12768TIP3    H238238   7.169   6.030   3.641 -0.1769 -1.2415  0.8759
12769TIP3   OH238239   7.315   5.608   5.744  0.3184 -0.7696 -0.0341
12769TIP3    H138240   7.390   5.557   5.774  1.1128  0.4468  0.0720
12769TIP3    H238241   7.338   5.699   5.764 -0.3163 -0.2005 -1.8141
12770TIP3   OH238242   7.851   7.568   3.421  0.2501 -0.1301 -0.7458
12770TIP3    H138243   7.798   7.488   3.414  1.2656 -0.7139 -1.9637
12770TIP3    H238244   7.938   7.537   3.447  0.1701  0.7640  0.6381
12771TIP3   OH238245   6.290   6.478   3.683 -0.1156  0.4978  0.2842
12771TIP3    H138246   6.268   6.425   3.760  0.4563 -0.1826 -0.0186
12771TIP3    H238247   6.205   6.496   3.641 -0.1303 -2.0614 -0.8491
12772TIP3   OH238248   0.689   7.827   3.697  0.1468 -0.0134  0.1459
12772TIP3    H138249   0.596   7.830   3.720  0.2531 -1.6703  0.8551
12772TIP3    H238250   0.708   7.914   3.662 -1.1947  0.9853  1.8284
12773TIP3   OH238251   7.704   7.450   2.876 -0.0389 -0.1320  0.1221
12773TIP3    H138252   7.707   7.496   2.791  3.2242 -0.2227  0.1359
12773TIP3    H238253   7.698   7.521   2.940  1.2777  0.1373 -0.0340
12774TIP3   OH238254   3.713   3.237   0.056  0.1223  0.1012  0.2246
12774TIP3    H138255   3.758   3.171   0.002  1.7679  0.1987  1.4199
12774TIP3    H238256   3.691   3.191   0.136 -3.1128 -0.2873 -0.7968
12775TIP3   OH238257   8.277   7.512   2.396  0.0145  0.2785 -0.3870
12775TIP3    H138258   8.368   7.510   2.366 -0.1607  0.6654 -0.9730
12775TIP3    H238259   8.234   7.573   2.336 -0.2088  1.5887  1.0706
12776TIP3   OH238260   7.935   6.373   6.279  0.2646  0.1695  0.1662
12776TIP3    H138261   7.846   6.370   6.313 -0.1322 -2.7299 -0.9322
12776TIP3    H238262   7.991   6.364   6.356 -0.5360 -2.0311  0.5366
12777TIP3   OH238263   5.636   4.603   3.034  0.2144  0.3261 -0.3094
12777TIP3    H138264   5.630   4.510   3.010 -1.5459  0.3318  0.0400
12777TIP3    H238265   5.718   4.610   3.082 -1.1233 -1.6854  2.3901
12778TIP3   OH238266   6.432   5.675   4.292 -0.7266 -0.1860 -0.4563
12778TIP3    H138267   6.354   5.663   4.238  0.2150  0.3355 -1.9796
12778TIP3    H238268   6.402   5.659   4.382 -1.9056 -3.0557 -1.2910
12779TIP3   OH238269   5.578   6.166   5.229  0.1066  0.1594 -0.3462
12779TIP3    H138270   5.523   6.204   5.298 -1.3124 -0.9059 -0.8554
12779TIP3    H238271   5.617   6.089   5.270  1.4070  1.0413  0.0819
12780TIP3   OH238272   8.136   5.981   4.725  0.8915  0.0350  0.1143
12780TIP3    H138273   8.194   5.907   4.708  1.4955 -0.4176  3.7762
12780TIP3    H238274   8.063   5.944   4.774  0.0662  1.4590 -0.0135
12781TIP3   OH238275   2.260   0.922   3.730  0.0839  0.3191 -0.1239
12781TIP3    H138276   2.343   0.886   3.763  0.8845  1.9420 -0.3208
12781TIP3    H238277   2.240   0.868   3.654  1.6985  0.7537 -0.8981
12782TIP3   OH238278   0.300   6.156   4.212 -0.2540  0.4377  0.1283
12782TIP3    H138279   0.260   6.148   4.299 -0.0702  2.6761  0.4457
12782TIP3    H238280   0.240   6.214   4.164  0.8754  1.1133 -0.4730
12783TIP3   OH238281   3.002  -0.024   3.555  0.2182 -0.5794 -0.3519
12783TIP3    H138282   2.940   0.040   3.591 -1.9241 -2.5603 -0.4268
12783TIP3    H238283   3.011   0.002   3.463 -1.7318 -1.1734 -0.7371
12784TIP3   OH238284   6.600   6.441   5.080 -0.2374  0.3443  0.5197
12784TIP3    H138285   6.596   6.440   5.176  1.3997  1.4215  0.6050
12784TIP3    H238286   6.663   6.372   5.059 -0.7276 -0.0093  0.1912
12785TIP3   OH238287   1.968   0.896   3.835 -0.3427  0.0997 -0.0006
12785TIP3    H138288   1.928   0.975   3.871  0.0722  1.1637 -1.8053
12785TIP3    H238289   2.055   0.924   3.807  0.3070 -1.3225  0.5348
12786TIP3   OH238290   6.451   7.305   4.170 -0.0892 -0.4354 -0.3156
12786TIP3    H138291   6.490   7.224   4.139  1.2104  0.8566 -2.2042
12786TIP3    H238292   6.357   7.286   4.177  0.7361 -3.5501  4.2048
12787TIP3   OH238293   8.188  -0.026   3.701 -0.2469  0.1769  0.7225
12787TIP3    H138294   8.168   0.066   3.685  0.6128  0.8110  3.1780
12787TIP3    H238295   8.278  -0.026   3.733  0.1780 -1.6585 -0.4028
12788TIP3   OH238296   0.311   5.957   5.687 -0.9261  0.0489  0.0430
12788TIP3    H138297   0.404   5.954   5.708 -1.0204  1.1452  0.6897
12788TIP3    H238298   0.304   6.020   5.615 -1.0932 -0.5067 -0.4278
12789TIP3   OH238299   8.212   6.488   3.304  0.0820 -0.9965  0.0984
12789TIP3    H138300   8.189   6.485   3.397  2.0406 -3.0041  0.5579
12789TIP3    H238301   8.303   6.520   3.303 -0.2161 -0.1631 -1.1881
12790TIP3   OH238302   7.601   4.206   6.094  0.6112 -0.6079  0.9871
12790TIP3    H138303   7.578   4.220   6.002  1.9410  2.9302  1.1208
12790TIP3    H238304   7.638   4.117   6.095  0.2065 -0.8763 -1.7933
12791TIP3   OH238305   8.073   6.326   4.163  0.4761  0.2137  0.7435
12791TIP3    H138306   8.056   6.281   4.080 -1.0530 -0.3896  1.3620
12791TIP3    H238307   7.999   6.301   4.220  1.8397  0.0877  2.5007
12792TIP3   OH238308   6.754   4.984   6.638  0.4712  0.2382  0.4990
12792TIP3    H138309   6.744   5.043   6.712  3.9308  0.0031  1.2788
12792TIP3    H238310   6.810   4.914   6.671  0.8400 -0.6495 -1.9045
12793TIP3   OH238311   6.573   5.360   5.373 -0.5569 -0.0022  0.0951
12793TIP3    H138312   6.664   5.386   5.385 -0.4385 -0.6540  0.6564
12793TIP3    H238313   6.561   5.358   5.278 -0.0819  0.4037  0.0240
12794TIP3   OH238314   0.052   4.221   3.398 -0.4054  0.4850 -0.4297
12794TIP3    H138315   0.144   4.209   3.373 -0.3368  0.4072 -0.1504
12794TIP3    H238316   0.029   4.307   3.364  0.4060  1.4199  1.3074
12795TIP3   OH238317   7.202   5.176   3.935  0.4350  0.3476 -0.0563
12795TIP3    H138318   7.292   5.209   3.940  0.4423  0.6182 -1.7697
12795TIP3    H238319   7.176   5.191   3.844 -1.4906  0.6191  0.5333
12796TIP3   OH238320   6.527   7.679   5.049  0.3293  0.8402 -0.0648
12796TIP3    H138321   6.548   7.762   5.006  2.1052 -0.9273 -2.8063
12796TIP3    H238322   6.607   7.657   5.098 -0.1912  0.8342  0.7841
12797TIP3   OH238323   6.761   6.458   5.324  0.4907  0.3438 -0.1924
12797TIP3    H138324   6.832   6.407   5.284  0.6978  1.0290 -0.7013
12797TIP3    H238325   6.794   6.548   5.325 -0.2400  0.6130 -0.1236
12798TIP3   OH238326   7.691   6.153   4.442 -0.1093  0.4468  0.0260
12798TIP3    H138327   7.612   6.175   4.394 -1.2616 -2.2522  0.6264
12798TIP3    H238328   7.660   6.108   4.521  2.0416 -1.4228 -0.1532
12799TIP3   OH238329   1.481   5.759   3.732 -0.3148 -0.2809  0.1207
12799TIP3    H138330   1.392   5.725   3.742 -0.2002 -0.6545 -0.1406
12799TIP3    H238331   1.477   5.847   3.770 -1.1177  0.2054 -1.0471
12800TIP3   OH238332   0.154   5.205   5.144 -0.1030 -0.3204 -0.1719
12800TIP3    H138333   0.109   5.157   5.075  0.2770 -0.0467 -0.6153
12800TIP3    H238334   0.084   5.241   5.198 -0.4854  1.8278 -2.0209
12801TIP3   OH238335   2.212   5.813   3.240 -0.1443  0.7397 -0.0138
12801TIP3    H138336   2.183   5.738   3.292 -0.2786 -0.0896 -1.2610
12801TIP3    H238337   2.137   5.873   3.239 -0.6991  0.0484 -0.5438
12802TIP3   OH238338   7.745   5.278   3.816  0.2136 -0.0180 -0.8755
12802TIP3    H138339   7.744   5.294   3.911 -1.4082  0.1455 -0.9050
12802TIP3    H238340   7.747   5.183   3.808 -1.8779 -0.1001 -0.6543
12803TIP3   OH238341   7.316   5.853   5.406  0.4363  0.0522 -0.4941
12803TIP3    H138342   7.285   5.838   5.495 -0.5283 -1.1110 -1.0115
12803TIP3    H238343   7.400   5.807   5.401 -0.1041 -0.9263 -0.5565
12804TIP3   OH238344   6.472   5.612   3.889 -0.1638  0.0808  0.1353
12804TIP3    H138345   6.491   5.596   3.797 -1.8523  0.5338 -0.3132
12804TIP3    H238346   6.548   5.659   3.922  0.1862  0.4487 -1.1928
12805TIP3   OH238347   8.395   6.501   2.054 -0.6037  0.2118  0.1159
12805TIP3    H138348   8.416   6.424   2.106 -0.4166 -0.3136 -0.7319
12805TIP3    H238349   8.300   6.510   2.062 -0.4374  0.8385  1.5168
12806TIP3   OH238350   8.236   5.577   2.246  0.4744 -0.1945  0.6815
12806TIP3    H138351   8.269   5.627   2.172  0.0337  0.0569  0.6484
12806TIP3    H238352   8.180   5.510   2.207  0.0130  0.1184  0.7993
12807TIP3   OH238353   0.598   2.006   3.504  0.4595 -0.5362 -0.2696
12807TIP3    H138354   0.620   1.924   3.459  2.0352 -0.0494 -0.4320
12807TIP3    H238355   0.600   1.983   3.597  0.1211 -0.8636 -0.3420
12808TIP3   OH238356   7.605   6.685   4.306  0.4306  0.0532 -0.2834
12808TIP3    H138357   7.596   6.610   4.249  1.2842 -1.0595  1.0107
12808TIP3    H238358   7.689   6.725   4.281  0.5222 -0.0925 -0.2100
12809TIP3   OH238359   6.610   5.842   3.401  0.0825 -0.2793  0.1877
12809TIP3    H138360   6.558   5.791   3.463 -0.1711 -2.2249 -1.5694
12809TIP3    H238361   6.612   5.930   3.438 -2.0004 -0.8656  1.7799
12810TIP3   OH238362   0.640   0.230   3.963  0.0641 -0.8434 -0.0607
12810TIP3    H138363   0.588   0.293   3.913 -0.2378 -0.7109  0.4218
12810TIP3    H238364   0.581   0.156   3.977  0.1894 -0.9323 -0.0051
12811TIP3   OH238365   6.520   5.777   5.894 -0.0370 -0.1570 -0.6006
12811TIP3    H138366   6.571   5.857   5.884 -1.5955  0.7635 -1.4153
12811TIP3    H238367   6.444   5.790   5.838 -1.6277 -1.1168  1.2663
12812TIP3   OH238368   1.273   6.760   4.868  0.0888  0.5371  0.0314
12812TIP3    H138369   1.319   6.831   4.824 -0.1483  0.1982 -0.7817
12812TIP3    H238370   1.262   6.790   4.958 -0.9923  1.9891 -0.5750
12813TIP3   OH238371   0.519   0.583   5.331  0.0907  0.3370  0.5508
12813TIP3    H138372   0.552   0.664   5.372  1.8884 -0.5167  0.8443
12813TIP3    H238373   0.517   0.603   5.238  2.1724  0.1926  0.4447
12814TIP3   OH238374   2.317   6.430   3.830 -0.8666 -0.2012  0.3540
12814TIP3    H138375   2.336   6.467   3.744 -1.0485 -2.2990 -0.6006
12814TIP3    H238376   2.222   6.438   3.839 -0.7086  1.2614  0.9709
12815TIP3   OH238377   1.613   7.704   5.754  0.1476 -0.4806 -0.3134
12815TIP3    H138378   1.615   7.663   5.668 -0.1910  1.5343 -1.3091
12815TIP3    H238379   1.699   7.746   5.762  0.5892 -1.5554  0.8053
12816TIP3   OH238380   8.344   6.307   6.653 -0.1565  0.3280  0.1691
12816TIP3    H138381   8.350   6.213   6.640 -0.0444  0.4280 -0.5203
12816TIP3    H238382   8.428   6.342   6.621 -0.7563  0.7988 -0.9269
12817TIP3   OH238383   1.922   6.822   5.739  0.1378 -0.3556 -0.1290
12817TIP3    H138384   2.005   6.867   5.722 -0.2409  0.7389  0.8327
12817TIP3    H238385   1.922   6.747   5.679  1.4782  0.0614 -0.6641
12818TIP3   OH238386   4.033   0.312   6.734  0.0653  0.3191  0.0298
12818TIP3    H138387   4.104   0.302   6.797 -0.6929  0.7790  0.9753
12818TIP3    H238388   4.045   0.400   6.698 -0.1772  0.4958  0.3801
12819TIP3   OH238389   1.644   7.906   3.573 -0.0669 -0.1135  0.4052
12819TIP3    H138390   1.698   7.976   3.611 -1.5516  1.8858 -1.0614
12819TIP3    H238391   1.676   7.899   3.483  0.2256 -1.5217  0.6061
12820TIP3   OH238392   3.673   0.774   4.838  0.7162 -1.1615  0.0399
12820TIP3    H138393   3.727   0.766   4.760  0.5100 -0.5504 -0.1685
12820TIP3    H238394   3.732   0.812   4.904  0.5496 -0.5042 -0.1853
12821TIP3   OH238395   5.851   0.266   5.476 -0.0137 -0.3747 -0.5910
12821TIP3    H138396   5.921   0.228   5.529 -0.7364 -1.2262 -0.2392
12821TIP3    H238397   5.770   0.229   5.511 -0.5045 -0.9296 -2.2527
12822TIP3   OH238398   6.704   4.519   1.545 -0.0747  0.1105 -0.2769
12822TIP3    H138399   6.743   4.558   1.623  0.2929 -0.1243 -0.3389
12822TIP3    H238400   6.710   4.587   1.478 -1.5084  0.7506  0.2239
12823TIP3   OH238401   4.445   2.306   4.354 -0.1462  0.5864 -0.1335
12823TIP3    H138402   4.378   2.238   4.360  0.4142  0.1117  0.9644
12823TIP3    H238403   4.459   2.319   4.260 -1.5641  0.4894 -0.3670
12824TIP3   OH238404   2.358   7.377   2.882 -0.6432 -0.3529  0.5451
12824TIP3    H138405   2.318   7.298   2.845 -0.0559 -0.3034 -0.1941
12824TIP3    H238406   2.312   7.389   2.966 -3.1785  0.5391 -0.9326
12825TIP3   OH238407   1.748   7.980   6.443  0.1955  0.0358 -0.0521
12825TIP3    H138408   1.800   8.023   6.376 -0.4266  3.0792  1.3355
12825TIP3    H238409   1.705   7.908   6.398  2.8994 -0.4449 -1.9710
12826TIP3   OH238410   1.531   6.813   5.247  0.0983  0.4280  0.1992
12826TIP3    H138411   1.613   6.857   5.266 -1.0180  2.3770  0.6961
12826TIP3    H238412   1.495   6.860   5.171 -2.5906  2.5109  2.6308
12827TIP3   OH238413   4.662   7.111   5.736  0.0068 -0.5047  0.4471
12827TIP3    H138414   4.603   7.056   5.684  0.7305 -1.2844  0.4294
12827TIP3    H238415   4.696   7.175   5.675 -1.1321  0.2056  0.5476
12828TIP3   OH238416   7.021   2.823   1.361  0.1261 -0.3028 -0.4359
12828TIP3    H138417   6.966   2.900   1.372 -1.9568 -2.1497  2.6930
12828TIP3    H238418   7.092   2.834   1.425  0.3393 -0.5237 -0.6320
12829TIP3   OH238419   7.160   4.668   6.061 -0.3417  0.1312  0.2849
12829TIP3    H138420   7.197   4.673   5.972 -0.8717  0.0923  0.0585
12829TIP3    H238421   7.067   4.650   6.047 -0.4973  0.4852  0.8415
12830TIP3   OH238422   3.444   7.913   4.344  0.0585 -0.0148 -0.2125
12830TIP3    H138423   3.390   7.899   4.265 -0.3398  0.0203  0.0514
12830TIP3    H238424   3.456   7.825   4.379  2.2420 -0.3114 -1.6164
12831TIP3   OH238425   2.373   5.706   5.055  0.4808  0.4242  0.2748
12831TIP3    H138426   2.422   5.653   4.992 -1.0436  0.3765 -0.9001
12831TIP3    H238427   2.308   5.645   5.092  0.4731  0.8027  0.8998
12832TIP3   OH238428   1.516   6.967   4.982 -0.8359 -0.1298 -0.3371
12832TIP3    H138429   1.586   6.913   4.945  0.9118  0.7004  1.6476
12832TIP3    H238430   1.482   7.017   4.908  0.7786 -0.4389 -1.3226
12833TIP3   OH238431   0.092   4.807   5.512  0.8314 -0.0623 -0.2009
12833TIP3    H138432   0.009   4.762   5.526  1.3847 -0.2704  2.8395
12833TIP3    H238433   0.154   4.736   5.493  1.1963 -0.3996  2.0919
12834TIP3   OH238434   6.613   4.220   1.470  0.2225 -0.0557  0.1445
12834TIP3    H138435   6.664   4.297   1.447  0.0261  0.2090  0.6098
12834TIP3    H238436   6.581   4.237   1.558 -0.1043 -0.5199  0.1165
12835TIP3   OH238437   1.385   5.974   4.105 -0.2222 -0.3986  0.0957
12835TIP3    H138438   1.315   5.927   4.150 -0.4230 -1.7007 -1.5035
12835TIP3    H238439   1.463   5.920   4.119 -0.3519 -1.0041 -1.3155
12836TIP3   OH238440   1.156   7.691   5.177 -0.0578  0.7138  0.2698
12836TIP3    H138441   1.237   7.733   5.147  1.3663 -0.1468  2.7804
12836TIP3    H238442   1.178   7.599   5.186 -0.8199  0.7094  2.5110
12837TIP3   OH238443   1.487   7.165   5.691  0.4493 -0.0205 -0.0575
12837TIP3    H138444   1.552   7.235   5.690 -2.7413  3.0788  0.2534
12837TIP3    H238445   1.432   7.185   5.766 -3.9484  0.4994 -3.2166
12838TIP3   OH238446   0.666   6.089   6.382 -0.3347 -0.3705  0.0875
12838TIP3    H138447   0.617   6.150   6.326  0.3412  1.1570  1.1135
12838TIP3    H238448   0.613   6.082   6.461  0.6916  0.6634  0.8763
12839TIP3   OH238449   6.099   2.750   1.604 -0.0500 -0.1782  0.0476
12839TIP3    H138450   6.112   2.745   1.699 -1.6097 -2.3733  0.1808
12839TIP3    H238451   6.031   2.816   1.592 -1.4976 -1.5231  0.6552
12840TIP3   OH238452   6.228   2.305   0.620  0.2508 -0.6138 -0.3543
12840TIP3    H138453   6.249   2.223   0.665 -1.6969 -0.2510  1.2441
12840TIP3    H238454   6.158   2.282   0.559  0.1092 -0.2505 -0.3286
12841TIP3   OH238455   5.192   0.649   6.004 -0.1778 -0.4067  0.4276
12841TIP3    H138456   5.226   0.729   5.963 -2.3016  0.1390 -0.3036
12841TIP3    H238457   5.271   0.598   6.026  1.0808 -0.6533 -4.1821
12842TIP3   OH238458   2.592   7.714   4.700  0.3555  0.6358  0.6932
12842TIP3    H138459   2.565   7.785   4.758 -0.6455  0.0174  0.9837
12842TIP3    H238460   2.511   7.683   4.660  0.7188 -0.7920  1.0534
12843TIP3   OH238461   2.118   7.246   6.608 -0.4497 -0.1998 -0.2919
12843TIP3    H138462   2.048   7.309   6.624 -2.1250 -2.1450  0.2024
12843TIP3    H238463   2.150   7.224   6.696  0.3366  0.1848 -0.4802
12844TIP3   OH238464   6.217   0.919   5.391  0.1572  0.4070  0.0624
12844TIP3    H138465   6.152   0.963   5.335  1.0460 -0.3057 -1.5638
12844TIP3    H238466   6.223   0.975   5.469 -1.6305  1.0427 -0.2231
12845TIP3   OH238467   5.925   0.713   5.168  0.3349 -0.5425  0.4668
12845TIP3    H138468   5.862   0.646   5.141 -0.4460  0.4253 -0.1240
12845TIP3    H238469   5.875   0.795   5.166  1.5742  0.2111  0.1304
12846TIP3   OH238470   6.812   3.336   0.267 -0.6326  0.0635  0.4452
12846TIP3    H138471   6.828   3.299   0.180 -0.7298  3.1602 -0.9804
12846TIP3    H238472   6.895   3.327   0.313 -0.6051 -1.6800  0.0908
12847TIP3   OH238473   3.805   4.967  -0.015  0.0907  0.3799  0.1864
12847TIP3    H138474   3.815   5.029   0.058  1.9955  1.0361 -0.5908
12847TIP3    H238475   3.854   4.889   0.014 -1.0280 -0.2116  0.5235
12848TIP3   OH238476   4.821   1.407   4.676  0.3102 -0.3113  0.3581
12848TIP3    H138477   4.767   1.353   4.618  0.4853 -0.9789  0.8035
12848TIP3    H238478   4.819   1.494   4.637  0.3590 -0.7315 -0.6033
12849TIP3   OH238479   6.307   0.886   5.008 -0.3662  0.0009  0.0669
12849TIP3    H138480   6.232   0.869   4.950  0.5300  0.2213 -1.1684
12849TIP3    H238481   6.304   0.814   5.071 -0.3292 -1.2458 -1.3242
12850TIP3   OH238482   3.996   0.248   6.413 -0.1396  0.4460 -0.0773
12850TIP3    H138483   3.948   0.227   6.332  0.3345 -0.9743 -0.0017
12850TIP3    H238484   3.975   0.175   6.472  0.7566  0.6930  0.5430
12851TIP3   OH238485   2.000   6.509   6.689 -0.0849 -0.0197 -0.5290
12851TIP3    H138486   1.979   6.601   6.704 -2.0083 -0.2637 -1.4987
12851TIP3    H238487   1.917   6.463   6.704  0.5312 -1.4419 -1.3444
12852TIP3   OH238488   0.353   2.071   0.193  0.0047  0.0608 -0.0821
12852TIP3    H138489   0.278   2.111   0.236  0.0436  0.1677 -0.1126
12852TIP3    H238490   0.331   2.072   0.100 -0.4573 -0.9621  0.0024
12853TIP3   OH238491   3.802   7.396   3.575  0.3972 -0.2174  0.3710
12853TIP3    H138492   3.811   7.458   3.648 -1.8782 -0.0818  0.5718
12853TIP3    H238493   3.892   7.381   3.546  1.2525  0.6350  2.4415
12854TIP3   OH238494   3.607   7.587   4.214 -0.2777  0.0913  0.1666
12854TIP3    H138495   3.578   7.584   4.305 -0.5335  0.0345  0.0814
12854TIP3    H238496   3.557   7.519   4.170  0.1203 -0.1349  0.0636
12855TIP3   OH238497   4.674   7.890   5.082  0.4529  0.2014 -0.8420
12855TIP3    H138498   4.697   7.969   5.034  2.4917  1.8047  2.5472
12855TIP3    H238499   4.754   7.836   5.079  0.1747 -0.2399 -0.3590
12856TIP3   OH238500   0.891   7.902   5.208  0.1117 -1.1816  0.2922
12856TIP3    H138501   0.978   7.871   5.185  0.5771 -0.1879  0.6831
12856TIP3    H238502   0.855   7.834   5.265  0.1402 -2.1834 -0.8725
12857TIP3   OH238503   7.382   6.053   0.027  0.2178 -0.3539 -0.6419
12857TIP3    H138504   7.305   6.096  -0.011  0.4485  2.0342  1.4151
12857TIP3    H238505   7.346   5.989   0.088 -0.1189 -2.1523 -2.6598
12858TIP3   OH238506   6.729   1.527   6.703 -0.1368 -0.1143 -0.1245
12858TIP3    H138507   6.774   1.461   6.650  0.1883 -0.5983  0.7379
12858TIP3    H238508   6.794   1.555   6.767  0.9094  3.7401 -2.7438
12859TIP3   OH238509   1.855   6.334   6.375  0.5690  0.0373 -0.7240
12859TIP3    H138510   1.772   6.349   6.420  0.8151 -0.8736  0.0471
12859TIP3    H238511   1.841   6.255   6.323  1.4306 -1.0198  0.6225
12860TIP3   OH238512   2.745   7.007   4.491  0.0794 -0.1816  0.2924
12860TIP3    H138513   2.733   7.098   4.518  2.1483  0.5753 -1.2223
12860TIP3    H238514   2.686   6.957   4.547 -0.5565  2.0228  1.6232
12861TIP3   OH238515   2.120   6.252   4.201 -0.7822  0.1312 -0.1045
12861TIP3    H138516   2.116   6.306   4.280  2.6376  0.5989 -0.1720
12861TIP3    H238517   2.154   6.168   4.231 -1.0496 -0.2440 -0.8382
12862TIP3   OH238518   3.672   6.903   6.614  0.4044 -0.2185  0.6176
12862TIP3    H138519   3.622   6.831   6.652 -1.6314  1.1778  0.6221
12862TIP3    H238520   3.737   6.860   6.557 -0.5059 -2.0541  0.9493
12863TIP3   OH238521   2.082   2.215   2.004 -0.1805 -0.2259  0.1697
12863TIP3    H138522   2.162   2.169   2.030 -0.4316 -1.3283 -0.9172
12863TIP3    H238523   2.012   2.168   2.050 -0.6170 -2.1438 -2.3470
12864TIP3   OH238524   6.045   0.327   3.914 -0.0576 -0.5775 -0.4701
12864TIP3    H138525   6.091   0.243   3.923 -0.0809 -0.7215 -1.6056
12864TIP3    H238526   5.954   0.307   3.935  0.3236 -0.3479  1.5230
12865TIP3   OH238527   0.795   4.016   0.476  0.3149  0.4111 -0.1804
12865TIP3    H138528   0.870   3.959   0.458  1.0075  2.0573 -2.8609
12865TIP3    H238529   0.719   3.966   0.447  0.7548  0.1942 -0.9761
12866TIP3   OH238530   4.719   0.789   4.327  0.0857  0.6948 -0.3830
12866TIP3    H138531   4.708   0.875   4.285 -2.1355  0.7527  0.2409
12866TIP3    H238532   4.630   0.755   4.334  0.8048 -0.9689  0.8415
12867TIP3   OH238533   3.814   0.276   5.570  0.3157  0.1442  0.5695
12867TIP3    H138534   3.840   0.258   5.480  0.4862 -1.6047  0.9385
12867TIP3    H238535   3.895   0.265   5.621 -0.1255 -0.5210  1.1311
12868TIP3   OH238536   3.525   7.594   4.766  0.0164  0.4468 -0.0640
12868TIP3    H138537   3.618   7.601   4.745  0.5901  1.6392  2.5698
12868TIP3    H238538   3.502   7.504   4.744  2.3188 -0.4728  1.1205
12869TIP3   OH238539   3.660   7.085   3.415 -0.5146  0.3083 -0.4055
12869TIP3    H138540   3.581   7.041   3.448  0.2213 -0.9967 -0.3558
12869TIP3    H238541   3.701   7.123   3.493  1.1770 -2.6965  0.2445
12870TIP3   OH238542   6.373   0.475   4.123 -0.5697  0.0330 -0.5371
12870TIP3    H138543   6.428   0.493   4.200 -0.6747  1.8422 -0.8516
12870TIP3    H238544   6.285   0.501   4.151 -0.1611  3.4953 -2.1471
12871TIP3   OH238545   4.249   2.706   5.676  0.5316  0.6768 -0.5182
12871TIP3    H138546   4.279   2.620   5.646 -0.3614  0.1314  0.1165
12871TIP3    H238547   4.320   2.766   5.654  0.6482 -0.0130 -2.0903
12872TIP3   OH238548   4.797   0.534   6.338 -0.1194  0.1405 -0.0906
12872TIP3    H138549   4.810   0.628   6.325 -0.0065 -0.0361 -1.2957
12872TIP3    H238550   4.884   0.501   6.362 -0.1296  0.3284  0.1999
12873TIP3   OH238551   5.652   3.635   0.207 -0.5197 -0.2532  0.7843
12873TIP3    H138552   5.690   3.711   0.163 -0.7371 -0.1823  0.7191
12873TIP3    H238553   5.557   3.648   0.201 -0.7139 -2.6694 -3.0662
12874TIP3   OH238554   1.867   6.239   4.519 -0.0158 -0.5054 -0.2924
12874TIP3    H138555   1.962   6.230   4.511  0.0373 -1.0091  0.8318
12874TIP3    H238556   1.850   6.229   4.613 -1.2644 -1.1941 -0.5848
12875TIP3   OH238557   1.465   6.401   4.677 -0.6213  0.4770 -0.2375
12875TIP3    H138558   1.479   6.461   4.750 -0.5767  0.5664 -0.3193
12875TIP3    H238559   1.415   6.451   4.614 -0.3711  0.5081 -0.4118
12876TIP3   OH238560   1.547   7.058   6.024  0.1648 -0.5307  0.4839
12876TIP3    H138561   1.570   7.043   6.115  0.2700 -1.4706  0.3069
12876TIP3    H238562   1.631   7.069   5.979  0.0315  2.6533  0.9481
12877TIP3   OH238563   3.307   8.025   5.859 -0.0758  0.3828 -0.2114
12877TIP3    H138564   3.356   7.943   5.850 -0.1980  0.1483  1.0712
12877TIP3    H238565   3.335   8.061   5.943 -1.4391  0.6773  0.1390
12878TIP3   OH238566   5.343   0.822   6.328  0.0685 -0.1681  0.1894
12878TIP3    H138567   5.256   0.840   6.363 -0.3963 -1.8722 -0.0337
12878TIP3    H238568   5.387   0.770   6.396  0.8997  0.6145  0.2710
12879TIP3   OH238569   3.861   7.831   3.714  0.3120  0.3250 -0.4115
12879TIP3    H138570   3.823   7.845   3.628 -0.0002  0.4354 -0.2565
12879TIP3    H238571   3.828   7.745   3.741 -0.3467  0.7128  0.0013
12880TIP3   OH238572   1.404   5.773   6.117 -0.3361  0.0631  0.6060
12880TIP3    H138573   1.489   5.734   6.096 -0.2579  0.4237  0.2584
12880TIP3    H238574   1.410   5.794   6.210  0.2403  0.8049  0.4037
12881TIP3   OH238575   4.794   1.403   2.637 -0.6885  0.4848  0.3796
12881TIP3    H138576   4.717   1.454   2.664 -1.3707  1.5259 -3.1275
12881TIP3    H238577   4.854   1.469   2.601  0.0116 -0.7611 -0.7794
12882TIP3   OH238578   1.750   7.811   5.267  0.8847 -0.3170 -0.4584
12882TIP3    H138579   1.832   7.772   5.237  1.5876  1.0259 -0.3250
12882TIP3    H238580   1.754   7.808   5.363 -0.0164 -1.8428 -0.4464
12883TIP3   OH238581   4.647   0.836   5.577  0.1566 -0.2239 -0.3742
12883TIP3    H138582   4.575   0.808   5.633 -1.4158 -0.6245 -2.5436
12883TIP3    H238583   4.721   0.781   5.603 -0.2349  0.3086  1.9928
12884TIP3   OH238584   1.523   7.407   6.840 -0.4431  0.4670  0.1275
12884TIP3    H138585   1.530   7.317   6.810  2.0164  0.0598  1.8216
12884TIP3    H238586   1.571   7.459   6.775  1.7513  0.0204  1.3490
12885TIP3   OH238587   2.683   6.962   5.651  0.2185  0.3738  0.5144
12885TIP3    H138588   2.766   6.932   5.687  0.0769  1.2501  1.5823
12885TIP3    H238589   2.638   7.003   5.725 -0.9494  0.3467 -0.1705
12886TIP3   OH238590   4.457   3.620   0.879  0.0545 -0.1454  0.1382
12886TIP3    H138591   4.462   3.587   0.968  1.4896  1.5165  0.7046
12886TIP3    H238592   4.545   3.609   0.844 -0.0011  0.9993 -0.3968
12887TIP3   OH238593   1.848   7.549   6.455  0.2530 -0.1021  0.2353
12887TIP3    H138594   1.771   7.539   6.399  0.0016  1.8838  0.1907
12887TIP3    H238595   1.870   7.642   6.450  0.6279  0.0055  2.8940
12888TIP3   OH238596   2.847   0.707   6.060 -0.3891  0.3287  0.6768
12888TIP3    H138597   2.805   0.622   6.043 -0.5020  0.5118  0.0331
12888TIP3    H238598   2.936   0.697   6.026 -0.1403  0.1910  1.3617
12889TIP3   OH238599   6.912   4.474   0.102 -0.1950 -0.1950  0.3193
12889TIP3    H138600   6.945   4.409   0.040  0.8318  1.1567 -0.5878
12889TIP3    H238601   6.963   4.553   0.083 -2.1085  1.1690  0.7304
12890TIP3   OH238602   6.970   4.695   0.861  0.2913 -0.5887  0.0085
12890TIP3    H138603   7.000   4.625   0.919 -0.5758 -0.6845  0.3516
12890TIP3    H238604   6.900   4.654   0.809  0.9661 -0.4653 -1.0061
12891TIP3   OH238605   1.340   7.798   5.795 -0.1896  0.2486 -0.2031
12891TIP3    H138606   1.299   7.721   5.834 -0.6020  0.9103  0.6852
12891TIP3    H238607   1.431   7.771   5.781 -0.5353 -0.6930 -0.7278
12892TIP3   OH238608   6.264   0.119   6.114 -0.2473 -0.2617 -0.1966
12892TIP3    H138609   6.251   0.058   6.187 -1.9251 -1.3324 -1.3421
12892TIP3    H238610   6.182   0.169   6.111  0.1283  0.3084 -0.8678
12893TIP3   OH238611   6.261   0.460   4.922 -0.3994 -0.0190  0.1442
12893TIP3    H138612   6.210   0.398   4.869 -0.8128  0.7117 -0.3155
12893TIP3    H238613   6.349   0.456   4.885 -0.3210 -0.6328  0.3810
12894TIP3   OH238614   6.669   2.440   1.382 -0.0256 -0.7580 -0.3460
12894TIP3    H138615   6.661   2.413   1.473 -0.5186 -0.7292 -0.3814
12894TIP3    H238616   6.711   2.527   1.387 -2.1287  0.2643 -0.0187
12895TIP3   OH238617   2.019   7.396   3.089  0.3391 -0.5768  0.3968
12895TIP3    H138618   2.107   7.427   3.110  0.1206  0.3138 -0.0001
12895TIP3    H238619   1.968   7.414   3.168  0.4522 -0.8813  0.5418
12896TIP3   OH238620   3.526   6.794   3.923  0.0002  0.5374  1.0155
12896TIP3    H138621   3.613   6.759   3.901 -0.0916  0.1743  1.2319
12896TIP3    H238622   3.528   6.884   3.890  0.0937  0.2084  0.1024
12897TIP3   OH238623   2.508   6.029   5.056  0.0342  0.0083  0.4319
12897TIP3    H138624   2.489   5.952   5.110 -2.8116  0.4723  0.1605
12897TIP3    H238625   2.516   6.101   5.119  0.3877 -0.0957  0.5066
12898TIP3   OH238626   2.341   5.877   6.552  0.2745 -0.2284  0.5042
12898TIP3    H138627   2.370   5.837   6.634 -2.4846 -0.3100  1.4941
12898TIP3    H238628   2.418   5.925   6.520  1.8078 -1.3366  2.3987
12899TIP3   OH238629   6.605   0.668   5.406  0.4495 -0.0944  0.8303
12899TIP3    H138630   6.687   0.664   5.357  0.8483 -1.7583  1.6036
12899TIP3    H238631   6.566   0.752   5.381  1.5154 -0.0998 -0.9215
12900TIP3   OH238632   2.896   6.369   4.256  0.8711 -0.7681  0.6978
12900TIP3    H138633   2.889   6.460   4.228 -0.2512 -0.9391  0.4198
12900TIP3    H238634   2.912   6.374   4.350  1.1312 -0.2747  0.6269
12901TIP3   OH238635   1.318   7.250   5.920  0.0878  0.7201  0.7601
12901TIP3    H138636   1.385   7.199   5.965  0.0932  0.6014  0.6188
12901TIP3    H238637   1.236   7.204   5.938  0.1500  0.4005  0.2600
12902TIP3   OH238638   8.363   5.485   3.740  0.0110  0.4908  0.2667
12902TIP3    H138639   8.296   5.418   3.727 -0.1368  0.4956  1.0317
12902TIP3    H238640   8.376   5.523   3.652 -0.7377  0.2601  0.0528
12903TIP3   OH238641   5.491   0.242   6.464  0.1136 -0.2530  0.4191
12903TIP3    H138642   5.500   0.206   6.376 -0.1383  0.5406  0.0621
12903TIP3    H238643   5.492   0.165   6.522  2.8797 -0.6100 -0.0463
12904TIP3   OH238644   7.093   2.376   0.187  0.0602  0.0979 -0.0984
12904TIP3    H138645   7.040   2.326   0.250  0.1155  0.9850  0.6539
12904TIP3    H238646   7.076   2.467   0.209  2.1325  0.3879  0.3453
12905TIP3   OH238647   4.715   0.122   6.238  0.5039  0.2784 -0.6695
12905TIP3    H138648   4.750   0.061   6.173 -0.0197 -0.4310 -0.2996
12905TIP3    H238649   4.783   0.126   6.306  0.4734 -0.0256 -0.6178
12906TIP3   OH238650   5.261   0.869   4.391  0.3511  0.3593  0.4719
12906TIP3    H138651   5.356   0.858   4.394  0.2445 -0.6244  0.2908
12906TIP3    H238652   5.240   0.871   4.298  0.4043  2.5261  0.4768
12907TIP3   OH238653   1.676   6.944   6.655 -0.0675 -0.1526  0.0034
12907TIP3    H138654   1.704   6.945   6.747 -0.7119 -0.0836  0.2015
12907TIP3    H238655   1.675   6.851   6.632  2.0936 -0.0469 -0.5560
12908TIP3   OH238656   3.263   6.717   3.588  0.6156  0.2187 -0.1356
12908TIP3    H138657   3.307   6.654   3.644  1.2033  0.5656 -0.1950
12908TIP3    H238658   3.238   6.668   3.510 -0.9457 -0.4604  0.7692
12909TIP3   OH238659   6.828   0.690   5.278 -0.0599 -0.9366  0.0412
12909TIP3    H138660   6.899   0.630   5.299  0.9680 -0.4811 -1.9481
12909TIP3    H238661   6.872   0.772   5.256 -1.3494  0.0508  1.0579
12910TIP3   OH238662   8.382   4.456   0.265  0.2377 -0.1642  0.1000
12910TIP3    H138663   8.435   4.468   0.343 -0.0758  2.5627 -0.0834
12910TIP3    H238664   8.318   4.389   0.289  0.6353  0.1018  1.9198
12911TIP3   OH238665   3.820   1.067   5.888 -0.1416 -0.1329  0.5805
12911TIP3    H138666   3.822   1.074   5.793  1.6742  3.5525  0.7830
12911TIP3    H238667   3.900   1.019   5.911  0.4353  0.6950  0.3224
12912TIP3   OH238668   4.241   0.445   4.814 -0.3830  1.4147  0.4765
12912TIP3    H138669   4.314   0.504   4.796  0.8863  0.0215  0.9514
12912TIP3    H238670   4.236   0.440   4.909 -0.4879  0.7839  0.4442
12913TIP3   OH238671   3.178   6.813   5.662  0.0786 -0.3252  0.1268
12913TIP3    H138672   3.139   6.855   5.585  1.2790 -0.3158 -0.4839
12913TIP3    H238673   3.222   6.885   5.708 -0.0749 -0.4512  0.4685
12914TIP3   OH238674   3.370   7.952   4.611 -0.1140 -0.1257  0.8408
12914TIP3    H138675   3.395   7.975   4.522  1.4118 -1.5853  0.8415
12914TIP3    H238676   3.275   7.941   4.608 -0.0016 -0.8264 -0.7720
12915TIP3   OH238677   3.407   1.346   5.318  0.0882  0.0920  0.3000
12915TIP3    H138678   3.437   1.398   5.393  0.4367  0.6702 -0.2328
12915TIP3    H238679   3.487   1.304   5.286  0.3596  1.6895 -1.1710
12916TIP3   OH238680   3.851   0.476   4.902 -0.5494 -0.2160  0.6915
12916TIP3    H138681   3.887   0.545   4.846 -0.4389 -1.8702 -1.3182
12916TIP3    H238682   3.765   0.457   4.865 -0.0134 -2.1132  0.3826
12917TIP3   OH238683   0.423   6.625   4.524 -0.3654 -0.1170  0.3715
12917TIP3    H138684   0.513   6.614   4.555 -0.8354 -1.3443  1.3638
12917TIP3    H238685   0.370   6.621   4.603 -1.3790 -0.4928 -0.3175
12918TIP3   OH238686   1.906   5.349   4.917 -0.1161 -0.0485 -0.2443
12918TIP3    H138687   1.945   5.396   4.991 -0.4984 -0.9185  0.5125
12918TIP3    H238688   1.861   5.417   4.866 -0.7692  0.3982  0.9128
12919TIP3   OH238689   0.621   4.388   0.114  0.6239 -0.0330 -0.5787
12919TIP3    H138690   0.551   4.328   0.142  2.3039 -0.8554  2.1102
12919TIP3    H238691   0.670   4.339   0.048  0.4770 -0.6694 -0.2236
12920TIP3   OH238692   4.364   7.718   6.506  0.1984  0.6571 -0.2052
12920TIP3    H138693   4.391   7.724   6.414 -1.2711 -1.0633 -0.7710
12920TIP3    H238694   4.278   7.677   6.503  0.1915  0.4707  1.9672
12921TIP3   OH238695   2.346   7.986   4.053 -0.1271 -0.1820 -0.5728
12921TIP3    H138696   2.335   8.021   3.964  0.0007  0.0327 -0.5046
12921TIP3    H238697   2.439   7.962   4.058 -0.3542 -1.1604 -0.8459
12922TIP3   OH238698   3.344   0.004   6.869  0.0379 -0.6295  0.3746
12922TIP3    H138699   3.253   0.034   6.862  0.2381  0.2096  1.3570
12922TIP3    H238700   3.381   0.020   6.782 -0.4126  0.1523  0.3251
12923TIP3   OH238701   6.018   0.055   5.022 -0.0918 -0.0091 -0.4938
12923TIP3    H138702   6.081   0.005   5.074 -2.1526  1.9259  4.1128
12923TIP3    H238703   5.957  -0.011   4.989  1.3578 -1.2959 -0.6897
12924TIP3   OH238704   0.576   6.683   3.516  0.2910  1.0110  0.1417
12924TIP3    H138705   0.486   6.654   3.524  0.8338 -1.0975 -1.0213
12924TIP3    H238706   0.602   6.705   3.606 -0.4767 -1.1688  0.9376
12925TIP3   OH238707   1.763   6.230   5.532 -0.1443  0.2786  0.3601
12925TIP3    H138708   1.720   6.315   5.525  0.7038  0.4975 -2.5981
12925TIP3    H238709   1.691   6.167   5.524 -0.3139  0.6837 -1.5414
12926TIP3   OH238710   6.640   3.946   0.534 -0.2727 -0.1714 -0.1855
12926TIP3    H138711   6.621   3.858   0.501 -1.4259  0.1425 -0.3826
12926TIP3    H238712   6.670   3.994   0.457  3.1952 -1.1723  0.4757
12927TIP3   OH238713   0.511   6.394   5.999  0.6377 -0.2312  0.1417
12927TIP3    H138714   0.489   6.476   5.953  0.4000  0.0110  0.6844
12927TIP3    H238715   0.606   6.392   5.998  0.6714  0.5596  1.0068
12928TIP3   OH238716   1.951   6.129   6.625 -0.3058 -0.3118  0.3915
12928TIP3    H138717   2.030   6.127   6.679 -1.3554  0.5562  2.0092
12928TIP3    H238718   1.957   6.211   6.576  0.3472 -0.8026 -0.3566
12929TIP3   OH238719   8.124   3.783   0.957 -0.1691  0.0670 -0.2073
12929TIP3    H138720   8.172   3.820   0.884 -0.2311  0.5287 -0.0150
12929TIP3    H238721   8.033   3.781   0.927  0.0014 -1.0455 -0.6677
12930TIP3   OH238722   6.805   7.759   3.849 -0.0831  0.0838 -0.3968
12930TIP3    H138723   6.865   7.687   3.865 -0.2796  0.0932  0.4206
12930TIP3    H238724   6.773   7.746   3.760 -0.6478 -1.2283 -0.0099
12931TIP3   OH238725   6.866   0.309   5.045  0.2665 -0.0737 -0.2807
12931TIP3    H138726   6.813   0.388   5.037 -0.1056  0.3607  4.6333
12931TIP3    H238727   6.814   0.240   5.004 -1.2420  1.4886 -1.0371
12932TIP3   OH238728   5.572   0.164   6.214  0.3182  0.1907 -0.3255
12932TIP3    H138729   5.650   0.204   6.254  1.5472 -2.3472 -0.0783
12932TIP3    H238730   5.599   0.144   6.125 -0.3351  0.0584 -0.4919
12933TIP3   OH238731   6.481   0.873   5.249  0.0262  1.0536 -0.2016
12933TIP3    H138732   6.490   0.965   5.273 -0.5374  1.4445 -1.4569
12933TIP3    H238733   6.390   0.851   5.269  1.2891 -0.5465  4.4643
12934TIP3   OH238734   2.813   7.727   6.650 -0.2341  0.2032 -0.2859
12934TIP3    H138735   2.882   7.661   6.651 -0.0775  0.3720  1.6941
12934TIP3    H238736   2.733   7.679   6.668 -0.1825  0.4883  0.7112
12935TIP3   OH238737   7.580   5.487   4.910 -0.7434  0.2949 -0.5666
12935TIP3    H138738   7.583   5.407   4.859 -0.4830  0.7916 -1.3373
12935TIP3    H238739   7.535   5.551   4.854  1.1458  1.3499 -0.9345
12936TIP3   OH238740   5.125   7.040   6.306 -0.0809  0.3155 -0.1845
12936TIP3    H138741   5.140   7.056   6.399 -1.6693 -1.0320  0.3232
12936TIP3    H238742   5.092   7.124   6.272 -0.2689  0.5716  0.6231
12937TIP3   OH238743   4.645   0.202   5.207 -0.3835  0.0532  0.3738
12937TIP3    H138744   4.639   0.197   5.303 -2.4929  0.0601  0.2663
12937TIP3    H238745   4.564   0.244   5.180 -0.0077 -0.3648 -1.4716
12938TIP3   OH238746   0.946   3.289   1.082  0.5063 -0.2270 -0.0531
12938TIP3    H138747   0.900   3.261   1.002  1.3323  0.0599 -0.6423
12938TIP3    H238748   0.876   3.306   1.145 -0.1051 -2.0731 -0.1720
12939TIP3   OH238749   7.169   1.100   3.121 -0.2890 -0.1029  0.3887
12939TIP3    H138750   7.110   1.162   3.164  0.9729  0.0435  1.9630
12939TIP3    H238751   7.209   1.052   3.194  0.6271 -1.0219 -0.7203
12940TIP3   OH238752   3.092   7.373   4.693 -0.1764  0.1184  0.0133
12940TIP3    H138753   3.061   7.463   4.677  1.5204  0.6576 -0.3873
12940TIP3    H238754   3.126   7.376   4.782  0.6466  0.1138 -0.2932
12941TIP3   OH238755   2.702   7.803   5.912  0.3270 -0.6955  0.0428
12941TIP3    H138756   2.633   7.743   5.940 -0.4979 -0.0836 -0.6330
12941TIP3    H238757   2.655   7.873   5.866  1.6307 -1.8985 -3.2590
12942TIP3   OH238758   2.202   6.250   5.854 -0.9096  0.1297  0.6179
12942TIP3    H138759   2.135   6.186   5.831 -1.5444  1.3653 -1.1413
12942TIP3    H238760   2.154   6.332   5.866  0.3665  1.4229 -2.3673
12943TIP3   OH238761   0.150   3.605   0.447  0.1677 -0.2841 -0.9153
12943TIP3    H138762   0.195   3.534   0.402 -1.0280 -0.7863 -1.3071
12943TIP3    H238763   0.154   3.678   0.386  2.3482  0.3489 -0.0877
12944TIP3   OH238764   8.131   2.517   2.149 -0.1380  0.0260  0.0159
12944TIP3    H138765   8.135   2.436   2.099 -0.6057 -0.6254  1.0154
12944TIP3    H238766   8.099   2.491   2.235  0.5177  1.1382  0.6215
12945TIP3   OH238767   7.449   3.856   1.144 -0.5575  0.1842  0.0901
12945TIP3    H138768   7.407   3.812   1.217 -0.1677 -0.4917 -0.0878
12945TIP3    H238769   7.521   3.905   1.183 -0.1718 -0.4092  0.1226
12946TIP3   OH238770   5.899   1.399   5.858  0.0137 -0.4673 -0.3394
12946TIP3    H138771   5.933   1.312   5.836  0.3518 -0.1479 -1.0885
12946TIP3    H238772   5.811   1.382   5.891  0.2816 -1.1449  0.0544
12947TIP3   OH238773   1.017   7.564   6.595  0.0513 -0.7087  0.2506
12947TIP3    H138774   0.971   7.513   6.661  0.6211 -2.0112 -0.3298
12947TIP3    H238775   0.985   7.531   6.511  0.7873 -0.4654 -0.1406
12948TIP3   OH238776   6.261   3.203   0.367  0.0289  0.2913  0.3436
12948TIP3    H138777   6.215   3.269   0.314 -1.2519  0.1599  1.2799
12948TIP3    H238778   6.306   3.253   0.434 -0.0709  0.2907  0.4105
12949TIP3   OH238779   8.353   3.006   0.475  0.6180 -0.3437 -0.1016
12949TIP3    H138780   8.427   2.974   0.423 -0.0114 -0.7856 -0.7457
12949TIP3    H238781   8.347   3.099   0.454  1.4867 -0.1328  0.5687
12950TIP3   OH238782   3.520   6.160   4.905  0.2523  0.0384  0.4056
12950TIP3    H138783   3.537   6.142   4.813  1.0655  0.8116  0.3969
12950TIP3    H238784   3.425   6.155   4.913  0.2874 -1.9586 -0.0610
12951TIP3   OH238785   0.208   0.473   2.082 -0.1074  0.0343 -0.1802
12951TIP3    H138786   0.299   0.460   2.106  0.1387  2.4169  0.3399
12951TIP3    H238787   0.160   0.467   2.164 -0.1180  1.1092 -0.0977
12952TIP3   OH238788   5.142   0.483   3.564 -0.0856  0.0953  0.1116
12952TIP3    H138789   5.216   0.425   3.583 -0.1705  0.0509  0.3000
12952TIP3    H238790   5.171   0.533   3.487 -0.3351 -0.7709 -0.5499
12953TIP3   OH238791   2.346   7.155   4.251 -0.1604 -0.1719  0.3160
12953TIP3    H138792   2.398   7.080   4.281 -0.0595 -0.3698 -0.3473
12953TIP3    H238793   2.343   7.145   4.156 -0.3093  0.5646  0.2457
12954TIP3   OH238794   5.360   0.285   6.842 -0.1446 -0.0578  0.1628
12954TIP3    H138795   5.383   0.259   6.931  0.4703 -1.4585 -0.3933
12954TIP3    H238796   5.268   0.262   6.833 -0.5558  1.2470  0.8374
12955TIP3   OH238797   1.755   6.973   5.232 -0.0961  0.1073 -0.0784
12955TIP3    H138798   1.819   6.953   5.163  2.3008  2.5075  1.3341
12955TIP3    H238799   1.716   7.056   5.205 -1.8733 -0.8105 -0.3846
12956TIP3   OH238800   7.652   1.860   3.845  0.7492 -0.4714  0.2292
12956TIP3    H138801   7.705   1.939   3.838  0.9407 -0.5203  1.0844
12956TIP3    H238802   7.569   1.883   3.803  1.0272 -0.0161 -0.0721
12957TIP3   OH238803   4.436   1.761   5.100 -0.2652  0.4311 -0.2121
12957TIP3    H138804   4.462   1.670   5.082  0.4803  0.4119  0.9868
12957TIP3    H238805   4.518   1.810   5.103 -0.5182  0.7805  1.2353
12958TIP3   OH238806   4.819   0.807   6.316  0.3588 -0.2555  0.0062
12958TIP3    H138807   4.747   0.869   6.326  0.0097 -0.6750  0.1061
12958TIP3    H238808   4.852   0.822   6.227  0.4231  0.2230  0.1084
12959TIP3   OH238809   4.031   0.285   5.737  0.5665  0.2380 -0.1059
12959TIP3    H138810   4.084   0.364   5.746 -0.6247  1.4656 -3.3482
12959TIP3    H238811   4.096   0.214   5.731  1.6636  1.0687  1.5046
12960TIP3   OH238812   5.808   0.212   5.903  0.3283  0.0181  0.0720
12960TIP3    H138813   5.772   0.216   5.814  1.3325  1.0057 -0.2992
12960TIP3    H238814   5.845   0.124   5.909  2.4248  0.7679 -1.3615
12961TIP3   OH238815   0.820   6.287   4.803 -0.5634 -0.0143 -0.0417
12961TIP3    H138816   0.862   6.278   4.717 -1.0135 -0.3002 -0.2358
12961TIP3    H238817   0.888   6.263   4.866  0.3046  1.8274 -0.2173
12962TIP3   OH238818   2.628   7.498   5.225 -0.1388  0.3425  0.1326
12962TIP3    H138819   2.603   7.590   5.234  2.3732  1.1135 -0.3332
12962TIP3    H238820   2.654   7.472   5.313  2.1855  1.0667 -0.2827
12963TIP3   OH238821   1.742   7.106   4.738 -0.2284  0.2161  0.0697
12963TIP3    H138822   1.679   7.174   4.762  0.1606  1.0790 -1.2935
12963TIP3    H238823   1.720   7.085   4.647  2.2116  1.3993 -0.8290
12964TIP3   OH238824   6.262   0.083   5.557  0.1646 -0.2943 -0.2710
12964TIP3    H138825   6.323   0.021   5.597  1.2430  0.5000 -0.6498
12964TIP3    H238826   6.284   0.082   5.464 -1.1789 -0.8490 -0.5905
12965TIP3   OH238827   1.260   2.316   0.302  0.3244 -0.0477  0.2568
12965TIP3    H138828   1.242   2.228   0.336  0.0752 -0.9043 -2.0524
12965TIP3    H238829   1.323   2.302   0.232  1.2558  1.7718  0.6945
12966TIP3   OH238830   4.440   6.278   5.408  0.2622  0.2067 -0.0784
12966TIP3    H138831   4.410   6.350   5.352 -1.8590  0.4639  1.3234
12966TIP3    H238832   4.461   6.320   5.491  0.2455 -0.6224  0.3452
12967TIP3   OH238833   2.934   6.137   4.457  0.7135  0.3235 -0.2428
12967TIP3    H138834   2.964   6.189   4.531  0.3290  0.5629 -0.2525
12967TIP3    H238835   2.889   6.062   4.497  2.8899 -1.0034 -0.2005
12968TIP3   OH238836   4.180   0.331   3.556 -0.5449 -0.1261  0.0746
12968TIP3    H138837   4.156   0.258   3.612  1.3523 -1.2508 -0.5399
12968TIP3    H238838   4.124   0.321   3.479  0.7824 -1.8658 -0.6946
12969TIP3   OH238839   5.705   0.819   5.958  0.3073 -0.0739 -0.0918
12969TIP3    H138840   5.718   0.736   5.913 -2.9398 -0.1863 -0.9530
12969TIP3    H238841   5.691   0.796   6.049 -0.8470 -0.5033 -0.3740
12970TIP3   OH238842   3.228   7.875   4.113 -0.0975  0.3945  1.0266
12970TIP3    H138843   3.193   7.808   4.172 -2.3132 -0.3871 -1.0764
12970TIP3    H238844   3.292   7.829   4.059 -0.5249  0.2916  0.5956
12971TIP3   OH238845   1.740   7.231   5.152  0.0389 -0.5564  0.4815
12971TIP3    H138846   1.726   7.288   5.076 -0.4424 -0.9698  0.2541
12971TIP3    H238847   1.794   7.282   5.211 -2.7836  1.2620  1.5588
12972TIP3   OH238848   3.822   6.723   5.464 -0.6525  0.1687 -0.0989
12972TIP3    H138849   3.870   6.685   5.537 -1.3260 -1.7750 -0.6377
12972TIP3    H238850   3.883   6.721   5.390 -1.3871 -1.9723 -0.6916
12973TIP3   OH238851   2.967   6.824   4.541 -0.1989  0.2266 -0.4983
12973TIP3    H138852   3.005   6.855   4.623 -0.0284  0.2831 -0.5985
12973TIP3    H238853   2.883   6.869   4.534  0.3712  1.2302 -1.0085
12974TIP3   OH238854   0.591   1.926   0.038 -0.3378 -0.8642  0.1509
12974TIP3    H138855   0.554   1.841   0.060 -1.6399 -0.4855 -0.5463
12974TIP3    H238856   0.591   1.974   0.121  1.0706 -1.7667  0.6990
12975TIP3   OH238857   1.012   2.700   1.942  0.3765 -0.0014 -0.2539
12975TIP3    H138858   0.986   2.628   1.998 -1.9377 -0.4565 -1.8575
12975TIP3    H238859   1.037   2.658   1.859  2.2982  0.7846 -0.1108
12976TIP3   OH238860   4.782   6.820   6.331  0.1421 -0.6997 -0.2988
12976TIP3    H138861   4.696   6.862   6.331  1.0620  1.2282 -1.2063
12976TIP3    H238862   4.830   6.865   6.400  0.5701 -1.5004 -0.0699
12977TIP3   OH238863   0.984   5.932   3.975  0.9760 -0.0611  0.0030
12977TIP3    H138864   0.994   5.877   3.897  0.9505  0.8093 -0.6150
12977TIP3    H238865   0.916   5.995   3.952 -0.7431 -1.2882  1.5622
12978TIP3   OH238866   3.247   7.329   4.909 -0.0349 -0.3321  0.1667
12978TIP3    H138867   3.326   7.315   4.857  1.5556  1.4338  2.0310
12978TIP3    H238868   3.225   7.242   4.943 -0.4934 -1.3192 -2.5114
12979TIP3   OH238869   3.412   7.556   6.175 -0.4339 -0.0403 -0.0125
12979TIP3    H138870   3.478   7.578   6.109 -1.1675  1.4164 -0.2794
12979TIP3    H238871   3.361   7.486   6.136 -1.6417  1.6380 -1.5223
12980TIP3   OH238872   0.107   2.765   2.742 -0.0063  0.0546  0.1139
12980TIP3    H138873   0.101   2.708   2.819 -0.9042  1.7046  1.2763
12980TIP3    H238874   0.170   2.832   2.766 -2.3201  2.1778  0.4891
12981TIP3   OH238875   3.474   7.603   3.166  0.0559  0.1677  0.0311
12981TIP3    H138876   3.540   7.602   3.097 -0.2390 -1.6667 -0.2419
12981TIP3    H238877   3.508   7.543   3.233 -1.1016 -0.4209  0.1019
12982TIP3   OH238878   2.986   7.562   2.060 -0.1933 -0.2009  0.2099
12982TIP3    H138879   2.893   7.540   2.062 -0.1370 -0.2860  2.1079
12982TIP3    H238880   3.020   7.532   2.144  1.4494  0.2803 -0.2718
12983TIP3   OH238881   2.684   7.464   6.145  0.0954  0.2637  0.7189
12983TIP3    H138882   2.642   7.546   6.122 -0.7799 -0.9292 -2.2165
12983TIP3    H238883   2.632   7.430   6.218 -1.2381  0.9950  0.1310
12984TIP3   OH238884   3.139   7.877   5.294 -0.2422  0.1865 -0.5445
12984TIP3    H138885   3.172   7.870   5.384 -0.1306  0.8786 -0.5308
12984TIP3    H238886   3.209   7.838   5.241  0.5219  1.4740 -0.4954
12985TIP3   OH238887   2.199   6.823   6.532 -0.5404 -0.0084 -0.1789
12985TIP3    H138888   2.222   6.734   6.506  0.3078  0.2776 -0.4235
12985TIP3    H238889   2.282   6.870   6.534 -0.9266  0.6637  0.4021
12986TIP3   OH238890   6.697   1.070   3.469 -0.3383  0.6617  0.0624
12986TIP3    H138891   6.653   1.079   3.553 -0.9959 -1.6334  0.0093
12986TIP3    H238892   6.760   0.999   3.482  0.2826  0.9906 -1.0732
12987TIP3   OH238893   2.888   7.747   3.522 -0.0014 -0.5785 -0.0647
12987TIP3    H138894   2.840   7.775   3.600 -0.6465  0.1540 -0.7050
12987TIP3    H238895   2.883   7.652   3.524  0.4738 -0.5861  1.0859
12988TIP3   OH238896   8.011   1.997   6.243 -0.2264  0.5556  0.5927
12988TIP3    H138897   8.091   1.997   6.296  1.2206  1.6825 -1.5079
12988TIP3    H238898   7.996   1.904   6.224  1.4100  0.4250 -0.1704
12989TIP3   OH238899   8.523   1.220   6.209  0.2975  0.7041 -0.3554
12989TIP3    H138900   8.507   1.213   6.303  0.3517  1.1971 -0.3092
12989TIP3    H238901   8.439   1.196   6.169 -0.0509  1.5704 -0.1538
12990TIP3   OH238902   4.918   0.913   5.832  0.0130  0.4592  0.3334
12990TIP3    H138903   4.983   0.977   5.802 -0.6223  0.3780 -1.2551
12990TIP3    H238904   4.834   0.953   5.813 -0.4119  0.1329  1.4686
12991TIP3   OH238905   0.986   7.124   4.409  0.0240 -0.2237  0.5271
12991TIP3    H138906   0.969   7.146   4.501  1.4479  2.3384  0.2344
12991TIP3    H238907   0.945   7.195   4.360  0.7187 -0.6778 -0.7293
12992TIP3   OH238908   5.250   1.261   4.737  0.5240  0.4357 -0.0082
12992TIP3    H138909   5.261   1.214   4.819  1.1167  0.4969 -0.0459
12992TIP3    H238910   5.238   1.193   4.671 -1.1363  0.4244  0.2926
12993TIP3   OH238911   7.716   0.296   4.638 -0.1373 -0.3683 -0.1043
12993TIP3    H138912   7.668   0.273   4.558  0.1494  0.4310 -0.5096
12993TIP3    H238913   7.795   0.340   4.607  0.4952 -1.0051  0.5894
12994TIP3   OH238914   5.039   7.293   5.562 -0.2207 -0.6743 -0.4210
12994TIP3    H138915   5.079   7.339   5.636  1.1356 -0.0838 -1.4860
12994TIP3    H238916   4.953   7.333   5.552 -0.1628 -0.3342  0.4483
12995TIP3   OH238917   7.533   0.712   4.153  0.8660 -0.0414 -0.2939
12995TIP3    H138918   7.452   0.731   4.106  1.9689  0.3663 -2.0801
12995TIP3    H238919   7.525   0.762   4.235 -0.6549  0.0383 -0.4778
12996TIP3   OH238920   4.108   7.692   5.747 -0.1231  0.6737 -0.9654
12996TIP3    H138921   4.076   7.643   5.671 -1.2117  0.2777 -0.2711
12996TIP3    H238922   4.048   7.766   5.755 -1.5624 -0.6459  0.9844
12997TIP3   OH238923   5.835   0.807   3.689  0.0890 -0.4231  0.0243
12997TIP3    H138924   5.796   0.878   3.639 -0.8906 -2.0660 -1.6238
12997TIP3    H238925   5.848   0.737   3.625  3.6684 -0.7545  1.0111
12998TIP3   OH238926   7.083   1.170   6.651 -0.6578 -0.1616  0.1388
12998TIP3    H138927   7.153   1.116   6.688 -0.5236 -0.5710 -0.7119
12998TIP3    H238928   7.100   1.258   6.685 -0.6050 -0.5484  1.1523
12999TIP3   OH238929   7.140   6.805   4.429 -0.0939 -0.3020  0.7042
12999TIP3    H138930   7.161   6.751   4.504 -1.0299 -2.1040 -0.3103
12999TIP3    H238931   7.049   6.831   4.441 -0.0145  0.0564  0.5698
13000TIP3   OH238932   2.822   7.478   3.386  0.1893  0.3000 -0.1105
13000TIP3    H138933   2.756   7.418   3.350  0.1764 -0.4448  1.1223
13000TIP3    H238934   2.891   7.481   3.319  0.7614 -2.0581  0.3407
13001TIP3   OH238935   5.873   1.040   4.299 -0.0033  0.2489 -1.0993
13001TIP3    H138936   5.806   1.099   4.265 -2.0231 -2.6682 -2.4294
13001TIP3    H238937   5.951   1.094   4.306 -1.6732  2.9718 -2.6085
13002TIP3   OH238938   8.511   1.950   5.442  0.1789  0.5238  0.2519
13002TIP3    H138939   8.428   1.911   5.467  0.8532 -0.6505  0.6933
13002TIP3    H238940   8.556   1.966   5.525 -0.3878  2.9462  0.1248
13003TIP3   OH238941   6.703   2.440   4.983  0.2705  0.2259  0.1343
13003TIP3    H138942   6.721   2.482   4.899 -0.2678 -0.4999 -0.3409
13003TIP3    H238943   6.776   2.379   4.995  0.3158  0.2864  0.1674
13004TIP3   OH238944   2.229   7.965   5.782 -0.3090  0.1527 -0.1801
13004TIP3    H138945   2.232   7.956   5.687 -1.2969 -0.6518 -0.1524
13004TIP3    H238946   2.273   8.048   5.801 -0.3936  0.4706 -1.3684
13005TIP3   OH238947   6.043   0.412   6.434  0.0045 -0.4831 -0.0760
13005TIP3    H138948   6.029   0.336   6.491 -0.4001  0.0294  0.5192
13005TIP3    H238949   5.955   0.447   6.419  0.2299  0.1108 -0.0157
13006TIP3   OH238950   7.090   5.589   0.161 -0.4465  0.1346  0.0354
13006TIP3    H138951   7.152   5.562   0.228  1.0915  1.3765 -0.8431
13006TIP3    H238952   7.016   5.626   0.210 -0.3287 -0.9883  1.0802
13007TIP3   OH238953   4.073   7.450   5.920  0.3730 -0.2552 -0.0178
13007TIP3    H138954   4.082   7.535   5.877 -1.6927  0.0656  0.1374
13007TIP3    H238955   4.139   7.395   5.879  2.1389  1.5732  0.2908
13008TIP3   OH238956   2.394   2.769   0.221  0.4152  0.4235  0.4076
13008TIP3    H138957   2.381   2.699   0.158 -0.8094  1.0402 -0.0383
13008TIP3    H238958   2.480   2.751   0.259 -0.1954 -1.7556  0.8590
13009TIP3   OH238959   7.373   2.919   5.095  0.0015  0.9502  0.1405
13009TIP3    H138960   7.376   2.842   5.152 -0.7643  1.9524  1.5665
13009TIP3    H238961   7.316   2.894   5.023 -0.3775  0.2240  0.6849
13010TIP3   OH238962   7.436   0.494   5.640 -0.0928 -0.5197 -0.0465
13010TIP3    H138963   7.359   0.477   5.695  1.2514 -1.0487  1.7170
13010TIP3    H238964   7.436   0.589   5.629 -0.8713 -0.4929  0.1535
13011TIP3   OH238965   4.226   6.117   5.598 -0.1604  0.2150  0.2599
13011TIP3    H138966   4.311   6.089   5.564  0.1316 -0.2659  1.3668
13011TIP3    H238967   4.165   6.049   5.569 -0.2880  0.8824 -1.0715
13012TIP3   OH238968   6.353   1.675   4.000  0.1676  0.8219  1.0092
13012TIP3    H138969   6.425   1.629   3.958 -0.9162 -0.7060  0.8102
13012TIP3    H238970   6.386   1.695   4.088  0.3811 -0.9813  1.3481
13013TIP3   OH238971   7.698   0.825   2.958  0.5841 -0.2837 -0.4493
13013TIP3    H138972   7.605   0.848   2.966  0.6448  0.2893 -1.2847
13013TIP3    H238973   7.744   0.888   3.013  0.4172 -1.1436  0.7019
13014TIP3   OH238974   6.994   0.406   5.290 -0.2228 -0.4257  0.9394
13014TIP3    H138975   7.031   0.331   5.336 -0.8938 -0.5237  1.3355
13014TIP3    H238976   6.960   0.370   5.208  1.1920 -0.2085  0.2473
13015TIP3   OH238977   7.281   1.529   5.852 -0.0545  0.7967  0.4734
13015TIP3    H138978   7.202   1.476   5.844  0.6580 -0.1653 -0.3274
13015TIP3    H238979   7.251   1.619   5.841 -1.4521  0.6827  2.9569
13016TIP3   OH238980   7.364   2.915   4.312 -0.7748 -0.0388  0.0659
13016TIP3    H138981   7.355   2.957   4.398 -1.2197 -1.1807  0.5959
13016TIP3    H238982   7.281   2.933   4.268  0.2196  2.2620 -0.9264
13017TIP3   OH238983   2.431   7.997   6.890  0.0057 -0.1088  0.2836
13017TIP3    H138984   2.503   7.960   6.839 -0.6504 -3.2037  1.4669
13017TIP3    H238985   2.474   8.049   6.958  1.0755 -0.5806 -0.0126
13018TIP3   OH238986   6.854   1.618   5.984  0.1891 -0.3009 -0.5541
13018TIP3    H138987   6.842   1.668   6.065  0.2847 -0.0327 -0.7039
13018TIP3    H238988   6.790   1.548   5.989 -0.4631  0.2835 -0.6890
13019TIP3   OH238989   6.683   0.379   3.544  0.8370  0.1029  0.7808
13019TIP3    H138990   6.654   0.288   3.536  0.1386  0.3616  0.3405
13019TIP3    H238991   6.612   0.430   3.506  1.5792  0.7860  0.2972
13020TIP3   OH238992   5.938   1.812   6.966 -0.5162 -0.1202  0.1516
13020TIP3    H138993   6.033   1.800   6.964 -0.1975  1.8295  2.0977
13020TIP3    H238994   5.913   1.820   6.874  1.4604  1.2540 -0.2886
13021TIP3   OH238995   4.141   5.952   4.716  0.1247  0.6566  0.1961
13021TIP3    H138996   4.106   6.015   4.653 -0.2795  0.4285  0.1889
13021TIP3    H238997   4.147   6.001   4.798  1.0685  1.0761 -0.1256
13022TIP3   OH238998   5.508   2.607   6.523  0.0597  0.4386  0.2201
13022TIP3    H138999   5.456   2.528   6.512 -0.8398  0.9564  0.6810
13022TIP3    H239000   5.461   2.658   6.590  0.6512  1.3350 -0.0342
13023TIP3   OH239001   4.376   7.652   5.656 -0.2425  0.0420 -0.1509
13023TIP3    H139002   4.377   7.667   5.561 -0.8456  0.2341 -0.1307
13023TIP3    H239003   4.283   7.643   5.677 -0.3818  3.4772  0.9830
13024TIP3   OH239004   6.183   0.801   6.175  0.0794 -0.4358 -0.1989
13024TIP3    H139005   6.253   0.864   6.160 -2.1827  2.5159  1.0455
13024TIP3    H239006   6.170   0.800   6.270  0.0700 -2.8516 -0.1753
13025TIP3   OH239007   3.757   7.005   5.534 -0.1988  0.4418  0.2506
13025TIP3    H139008   3.755   7.056   5.452 -0.5547 -0.8896 -0.5932
13025TIP3    H239009   3.763   6.914   5.505 -0.1660 -0.0350  1.7240
13026TIP3   OH239010   5.334   7.654   5.253 -0.3559  0.1555  0.3551
13026TIP3    H139011   5.357   7.627   5.164  0.0232 -0.0550  0.5185
13026TIP3    H239012   5.240   7.671   5.249 -0.1393  1.2662 -0.3840
13027TIP3   OH239013   1.427   6.035   5.628  0.2788 -0.5099  0.3299
13027TIP3    H139014   1.400   5.970   5.694  0.2089 -0.2831  0.5263
13027TIP3    H239015   1.485   6.094   5.675 -0.5803  0.2518  0.4575
13028TIP3   OH239016   4.475   7.805   4.809  0.5349  0.3253  0.1694
13028TIP3    H139017   4.388   7.766   4.816  1.2351 -1.1064  1.1618
13028TIP3    H239018   4.465   7.891   4.850 -0.3657  0.0914  0.4633
13029TIP3   OH239019   7.335   0.974   3.669  0.2904  0.1164  0.5844
13029TIP3    H139020   7.245   0.986   3.640  0.4281  1.7439  0.7860
13029TIP3    H239021   7.329   0.913   3.742 -0.8920  1.6987  1.8629
13030TIP3   OH239022   6.027   2.537   4.809  0.2474 -0.0360 -0.5437
13030TIP3    H139023   5.944   2.562   4.767  0.7168  1.2003 -0.7612
13030TIP3    H239024   6.081   2.505   4.736 -0.7732 -2.8843 -0.0938
13031TIP3   OH239025   0.427   1.219   6.352  0.1604 -0.0706 -0.4753
13031TIP3    H139026   0.396   1.244   6.265 -0.2231  2.2056  0.2884
13031TIP3    H239027   0.518   1.191   6.338  0.1163  0.3249 -1.5962
13032TIP3   OH239028   3.469   7.875   4.852 -0.1437 -0.2463 -0.1470
13032TIP3    H139029   3.438   7.915   4.771  0.8196  0.4039 -0.1976
13032TIP3    H239030   3.487   7.784   4.829 -3.3385 -1.0429  0.2091
13033TIP3   OH239031   5.437   6.737   6.648  0.1222 -0.2457 -0.0137
13033TIP3    H139032   5.490   6.791   6.708  1.0889 -0.3651 -0.7533
13033TIP3    H239033   5.501   6.692   6.593 -0.7332 -0.9246 -0.4705
13034TIP3   OH239034   8.147   0.432   6.808 -0.3855  0.0325  1.0162
13034TIP3    H139035   8.147   0.418   6.713 -0.0827 -0.2972  1.0635
13034TIP3    H239036   8.055   0.447   6.830 -0.4545  0.1386  0.6647
13035TIP3   OH239037   7.967   0.690   5.192  0.3033  0.0584  0.4247
13035TIP3    H139038   7.945   0.683   5.099 -0.0943 -0.4266  0.5497
13035TIP3    H239039   8.043   0.633   5.203  0.6135  0.4524  0.3123
13036TIP3   OH239040   7.116   1.368   2.953  0.1004  0.3763 -0.3697
13036TIP3    H139041   7.166   1.292   2.923  0.1015  0.1177  0.2773
13036TIP3    H239042   7.169   1.443   2.927 -0.1284  0.1730 -1.4342
13037TIP3   OH239043   3.673   7.147   4.022 -0.4224  0.3428  0.0081
13037TIP3    H139044   3.757   7.119   3.987  0.0584 -0.1426  1.5452
13037TIP3    H239045   3.609   7.119   3.956  0.3474 -1.6107  0.0632
13038TIP3   OH239046   1.042   6.803   5.441 -0.4730 -0.3802  0.3568
13038TIP3    H139047   1.133   6.828   5.424 -0.7062  1.0202  1.0988
13038TIP3    H239048   1.043   6.769   5.530 -0.8272  0.4312  0.6732
13039TIP3   OH239049   1.164   5.129   4.883 -0.1583 -0.4852 -0.2584
13039TIP3    H139050   1.115   5.052   4.913  1.9883 -1.5452  0.6272
13039TIP3    H239051   1.254   5.112   4.910  1.1100  0.5110 -3.6253
13040TIP3   OH239052   5.650   7.858   5.545  0.2517  0.0209  0.0394
13040TIP3    H139053   5.587   7.834   5.477 -0.1007 -0.6593  0.6067
13040TIP3    H239054   5.667   7.951   5.529  1.7818 -0.6067 -2.2838
13041TIP3   OH239055   7.222   0.342   4.880 -0.0895  0.0324 -0.2205
13041TIP3    H139056   7.221   0.304   4.968  1.8493 -0.7618 -0.5302
13041TIP3    H239057   7.144   0.398   4.877 -0.3991 -0.2730  1.8430
13042TIP3   OH239058   4.245   0.235   6.934  0.3399  0.0577 -0.3027
13042TIP3    H139059   4.314   0.249   6.870  1.9894  2.5679  1.9219
13042TIP3    H239060   4.288   0.189   7.007 -0.7962 -0.1056  0.2878
13043TIP3   OH239061   1.963   7.038   3.550  0.0036 -1.1020 -0.1932
13043TIP3    H139062   1.909   6.972   3.593 -2.6357 -0.1055 -1.8496
13043TIP3    H239063   1.975   7.106   3.616 -0.1409 -1.6747  0.4262
13044TIP3   OH239064   3.554   6.841   6.107  0.5056 -0.3533 -0.0055
13044TIP3    H139065   3.640   6.802   6.121  0.8954  1.3041  2.6674
13044TIP3    H239066   3.568   6.935   6.121 -1.6901 -0.0568  0.3513
13045TIP3   OH239067   3.068   7.246   5.258  0.3008 -0.3079  0.7039
13045TIP3    H139068   3.046   7.161   5.220  0.8054 -0.2094  0.1718
13045TIP3    H239069   3.012   7.308   5.211 -0.4693 -0.4099  1.4834
13046TIP3   OH239070   6.047   1.124   3.655 -0.2497  0.2767 -0.2987
13046TIP3    H139071   6.079   1.210   3.684  0.6531  0.0588 -0.6359
13046TIP3    H239072   5.993   1.093   3.728  1.3523  0.0882  0.8396
13047TIP3   OH239073   0.300   2.190   4.824 -0.5071  0.9454 -0.2535
13047TIP3    H139074   0.326   2.109   4.780  0.8691  1.8986 -1.2682
13047TIP3    H239075   0.282   2.164   4.914 -1.9446 -0.8025 -1.0139
13048TIP3   OH239076   2.824   6.393   6.247  0.0349 -0.3443 -0.4246
13048TIP3    H139077   2.783   6.388   6.161 -0.9769  0.4818  0.0069
13048TIP3    H239078   2.848   6.485   6.258 -0.8364 -0.2337  0.6303
13049TIP3   OH239079   6.181   0.603   5.149  0.0658  0.2290 -0.7794
13049TIP3    H139080   6.100   0.653   5.160 -0.2363 -0.2348 -0.8837
13049TIP3    H239081   6.195   0.600   5.054 -0.7075 -1.1249 -0.8711
13050TIP3   OH239082   1.913   7.808   3.706 -0.1192 -0.6257  0.5608
13050TIP3    H139083   1.875   7.809   3.794  0.6007  0.8249  0.8825
13050TIP3    H239084   1.892   7.895   3.670  1.1514 -0.5356 -0.0002
13051TIP3   OH239085   6.203   2.495   4.236  0.2097 -0.2282  0.6132
13051TIP3    H139086   6.256   2.417   4.254  0.8084  0.4732  1.9204
13051TIP3    H239087   6.250   2.567   4.279  0.6019  1.1640 -2.0419
13052TIP3   OH239088   0.371   0.043   4.670 -0.1022  0.3459 -0.1047
13052TIP3    H139089   0.393   0.106   4.738  1.5527  0.8430 -1.0707
13052TIP3    H239090   0.428  -0.031   4.687 -0.5088 -0.0044 -0.2650
13053TIP3   OH239091   8.089   2.502   5.922 -0.6019  0.0572  0.3168
13053TIP3    H139092   8.085   2.545   6.007 -0.9757  0.8942 -0.1157
13053TIP3    H239093   8.126   2.415   5.940  0.0430  0.5172  1.2125
13054TIP3   OH239094   6.294   6.702   2.411 -0.3323 -0.4568  0.1869
13054TIP3    H139095   6.284   6.767   2.342  0.7562  0.5245  0.9420
13054TIP3    H239096   6.381   6.663   2.396  0.4276  0.5926  1.6751
13055TIP3   OH239097   6.879   0.039   5.419  0.0626  0.0721  0.0926
13055TIP3    H139098   6.969   0.007   5.422  0.1591  0.3984  1.3153
13055TIP3    H239099   6.870   0.091   5.499 -0.4036  2.2122 -1.3089
13056TIP3   OH239100   2.644   7.233   2.888 -0.1635 -0.3198 -0.3403
13056TIP3    H139101   2.632   7.253   2.795 -0.6148  0.0415 -0.2033
13056TIP3    H239102   2.555   7.232   2.924 -0.0849 -1.5815 -0.1459
13057TIP3   OH239103   6.783   0.680   4.416  0.4122 -0.2501  0.0393
13057TIP3    H139104   6.836   0.752   4.449  0.8074 -0.6558  0.2864
13057TIP3    H239105   6.717   0.722   4.361 -0.1495  0.4088  1.2016
13058TIP3   OH239106   8.016   0.133   6.265  0.7725 -0.0208  0.6487
13058TIP3    H139107   7.948   0.066   6.259  0.4603  0.3866 -0.5558
13058TIP3    H239108   8.098   0.085   6.257  0.5729 -0.3427  0.5338
13059TIP3   OH239109   7.639   2.677   6.016  0.6658 -0.3445  0.1366
13059TIP3    H139110   7.611   2.625   5.940 -0.4910  0.3378  0.0845
13059TIP3    H239111   7.679   2.755   5.978  0.3495 -0.1406  0.2161
13060TIP3   OH239112   4.126   7.610   4.332  0.1475 -0.2265 -0.0807
13060TIP3    H139113   4.050   7.593   4.276  1.0049 -0.0012 -1.3139
13060TIP3    H239114   4.117   7.702   4.358 -1.7497 -1.0666  2.4561
13061TIP3   OH239115   3.725   1.403   4.365  0.3513  0.9000  0.6012
13061TIP3    H139116   3.652   1.383   4.423  1.0729 -3.5910  0.1527
13061TIP3    H239117   3.693   1.382   4.277  1.5377  0.6903  0.2075
13062TIP3   OH239118   2.249   6.850   5.181  0.2283 -0.1394 -0.1723
13062TIP3    H139119   2.205   6.916   5.235  0.1397  1.1643 -1.7736
13062TIP3    H239120   2.177   6.800   5.142  0.2989 -1.3281  1.1840
13063TIP3   OH239121   8.336   0.916   5.388 -0.0271  0.0966 -0.8121
13063TIP3    H139122   8.260   0.937   5.333 -0.0120  0.1849 -0.8000
13063TIP3    H239123   8.329   0.822   5.404  0.2010 -0.0069 -1.3147
13064TIP3   OH239124   6.455   1.749   2.649 -0.3086  0.4978  0.5408
13064TIP3    H139125   6.383   1.686   2.649  1.1618 -1.2370  0.2885
13064TIP3    H239126   6.491   1.745   2.738 -1.7930  2.9122  1.3028
13065TIP3   OH239127   7.126   1.354   0.479  0.0976  0.7135 -0.1788
13065TIP3    H139128   7.207   1.303   0.483 -0.2611  0.0947 -0.7646
13065TIP3    H239129   7.128   1.408   0.558  2.6423  3.0618 -1.7148
13066TIP3   OH239130   8.017   0.333   5.021 -0.1812  0.5001  0.2619
13066TIP3    H139131   8.052   0.416   5.053 -0.2395  1.1723 -1.3910
13066TIP3    H239132   7.946   0.357   4.963  0.9628 -0.6048 -1.6567
13067TIP3   OH239133   1.706   6.983   4.452 -0.4322  0.1018  0.4719
13067TIP3    H139134   1.720   7.038   4.375 -0.4629 -1.0017 -0.3391
13067TIP3    H239135   1.718   6.894   4.420 -0.4198 -0.3672  1.7579
13068TIP3   OH239136   2.050   7.147   2.961  0.2516 -0.2868 -0.0917
13068TIP3    H139137   2.027   7.233   2.996  0.4378 -0.2661 -0.0174
13068TIP3    H239138   2.088   7.166   2.875 -1.9494 -0.4920 -1.1191
13069TIP3   OH239139   3.422   8.020   5.284 -0.5881 -0.5746 -0.4283
13069TIP3    H139140   3.470   7.961   5.225 -2.1013  1.3566 -3.7346
13069TIP3    H239141   3.342   7.973   5.305 -0.0055 -1.3133  0.1420
13070TIP3   OH239142   3.365   0.835   2.978  0.0426 -0.1907 -0.2739
13070TIP3    H139143   3.271   0.849   2.974 -0.2321 -1.5603  1.1607
13070TIP3    H239144   3.375   0.742   2.993  1.6941 -0.3774 -2.2200
13071TIP3   OH239145   6.258   0.389   5.666  0.1508  0.4010 -0.3609
13071TIP3    H139146   6.237   0.452   5.735 -2.1503 -1.1326  0.3689
13071TIP3    H239147   6.178   0.339   5.653  1.1424 -0.6299 -2.8088
13072TIP3   OH239148   6.437   2.171   4.563  0.5377  0.2815 -0.1474
13072TIP3    H139149   6.514   2.196   4.615  0.0843 -0.1968  0.7606
13072TIP3    H239150   6.366   2.164   4.626 -0.0591 -0.1541 -0.8585
13073TIP3   OH239151   6.319   1.058   4.168 -0.8720 -0.0818 -0.1987
13073TIP3    H139152   6.320   0.996   4.094 -1.8046  0.6352 -0.8268
13073TIP3    H239153   6.375   1.017   4.234 -0.5200 -1.0322 -1.0651
13074TIP3   OH239154   1.646   6.458   5.687  0.0435 -0.5908 -0.0867
13074TIP3    H139155   1.675   6.504   5.766 -2.4038  0.2480  0.3608
13074TIP3    H239156   1.595   6.383   5.720 -2.2300  0.5782 -0.8406
13075TIP3   OH239157   4.712   7.744   6.226 -0.0647  0.6441  0.4340
13075TIP3    H139158   4.678   7.734   6.136 -0.5064 -0.4869  0.7223
13075TIP3    H239159   4.640   7.787   6.273  0.5587  2.1898  0.0091
13076TIP3   OH239160   8.032   0.780   5.488  0.6860  0.4363 -0.0591
13076TIP3    H139161   8.040   0.816   5.576  0.3442 -1.4630  0.7851
13076TIP3    H239162   8.122   0.766   5.458  0.8401  2.5885 -0.6852
13077TIP3   OH239163   6.304   7.248   4.529  0.0516 -0.4944  0.3495
13077TIP3    H139164   6.255   7.294   4.462 -0.9959 -1.0186  0.7421
13077TIP3    H239165   6.386   7.296   4.537  0.0804 -0.2881 -1.1261
13078TIP3   OH239166   4.838   5.511   3.115  0.6190  0.2913 -0.2306
13078TIP3    H139167   4.839   5.488   3.022 -0.9024 -0.5976 -0.0519
13078TIP3    H239168   4.902   5.452   3.156 -0.3443 -0.8926 -0.3887
13079TIP3   OH239169   3.909   6.309   4.774 -0.2862 -0.7926 -0.3405
13079TIP3    H139170   3.994   6.352   4.761 -0.2169 -0.7154  0.3523
13079TIP3    H239171   3.864   6.321   4.691  0.2861 -0.6109 -0.6293
13080TIP3   OH239172   3.013   7.162   4.849 -0.4720 -0.4986  0.3233
13080TIP3    H139173   3.074   7.090   4.834  1.2378  0.5869  1.8772
13080TIP3    H239174   3.021   7.218   4.771 -0.3309 -0.9338  0.0234
13081TIP3   OH239175   6.178   1.241   2.280 -0.1977 -0.5675 -0.2073
13081TIP3    H139176   6.210   1.268   2.366  0.0921  1.2258 -0.8456
13081TIP3    H239177   6.245   1.182   2.246  0.4504 -0.0423  0.1565
13082TIP3   OH239178   7.397   1.278   5.625 -0.0822 -0.5211  0.0590
13082TIP3    H139179   7.379   1.366   5.594 -1.8303 -0.6610  0.5878
13082TIP3    H239180   7.491   1.277   5.645  0.0984  0.9687 -0.6772
13083TIP3   OH239181   6.266   0.593   2.466 -0.1829 -0.1127 -0.7931
13083TIP3    H139182   6.344   0.597   2.522  0.7585  0.2650 -2.0941
13083TIP3    H239183   6.277   0.667   2.406 -0.8409 -0.9134 -1.8985
13084TIP3   OH239184   5.017   8.013   5.237  0.1580 -0.5947  0.4694
13084TIP3    H139185   4.953   8.072   5.197  1.5612  0.7448  0.1569
13084TIP3    H239186   5.020   7.938   5.178  0.5673  0.3752 -0.7665
13085TIP3   OH239187   6.355   0.148   4.990  0.4190  0.4747  0.0268
13085TIP3    H139188   6.343   0.053   4.987  1.1177  0.4219 -1.3214
13085TIP3    H239189   6.389   0.171   4.903 -4.5354  2.6377 -1.5155
13086TIP3   OH239190   3.575   7.801   5.111 -0.2534 -0.2276 -0.0975
13086TIP3    H139191   3.665   7.774   5.092 -0.1700 -0.1797  0.2317
13086TIP3    H239192   3.541   7.831   5.026  0.2072  0.2323 -0.1231
13087TIP3   OH239193   0.302   0.791   6.100  0.6561 -0.4171 -0.0306
13087TIP3    H139194   0.339   0.770   6.185  1.2967 -1.1687 -0.4873
13087TIP3    H239195   0.325   0.883   6.086  0.2652 -0.1948  0.7395
13088TIP3   OH239196   2.421   7.442   4.194 -0.4140  0.1988  0.0086
13088TIP3    H139197   2.439   7.397   4.112 -0.1101  2.0199 -0.9358
13088TIP3    H239198   2.377   7.376   4.248  0.4513 -1.3592 -1.1686
13089TIP3   OH239199   7.828   6.871   0.400  0.4420  0.1450 -0.1435
13089TIP3    H139200   7.764   6.835   0.461 -2.3610  2.0374 -1.8775
13089TIP3    H239201   7.832   6.806   0.329  1.3125 -0.4940  0.4697
13090TIP3   OH239202   4.951   7.850   5.528 -0.0246 -0.2430 -0.1253
13090TIP3    H139203   4.989   7.924   5.482 -2.8870  1.6950  0.5014
13090TIP3    H239204   4.994   7.849   5.614 -0.9369  1.5455  0.3637
13091TIP3   OH239205   3.274   7.783   5.087 -0.3293 -0.3222 -0.5907
13091TIP3    H139206   3.223   7.769   5.007 -0.3263  0.9163 -0.8261
13091TIP3    H239207   3.296   7.695   5.117 -2.1266 -0.8589 -0.7910
13092TIP3   OH239208   6.964   0.400   6.914  0.0928 -0.1927  0.5115
13092TIP3    H139209   6.941   0.466   6.979 -1.8117 -0.2529 -0.0886
13092TIP3    H239210   6.930   0.434   6.831  4.2789  0.8698 -0.8757
13093TIP3   OH239211   6.588   2.160   6.736 -0.0453  0.6139 -0.2873
13093TIP3    H139212   6.509   2.213   6.722  0.5318  1.8189  0.9649
13093TIP3    H239213   6.566   2.075   6.698 -2.0159  0.8804  0.2128
13094TIP3   OH239214   8.438   0.842   6.224  1.1135 -0.4541 -0.5025
13094TIP3    H139215   8.377   0.884   6.284  2.2038 -1.1662  1.1244
13094TIP3    H239216   8.521   0.837   6.272  1.6282 -2.2979 -1.5099
13095TIP3   OH239217   5.342   7.517   6.447  0.3827  0.0541  0.2195
13095TIP3    H139218   5.248   7.511   6.433 -0.1716  2.2576  2.5213
13095TIP3    H239219   5.362   7.611   6.439  1.8350  0.0046  2.5400
13096TIP3   OH239220   5.110   7.171   4.695 -0.3317  0.0534 -0.1134
13096TIP3    H139221   5.110   7.130   4.781  1.5836 -0.7547 -0.4693
13096TIP3    H239222   5.149   7.105   4.637 -1.7092  0.5356 -1.6294
13097TIP3   OH239223   6.755   0.437   2.817 -0.1891 -0.6097 -0.2431
13097TIP3    H139224   6.676   0.386   2.829  0.2412 -1.0363  0.8466
13097TIP3    H239225   6.734   0.523   2.854 -0.3953 -0.4741 -0.6672
13098TIP3   OH239226   4.444   7.871   5.214 -0.1636  0.0321  0.1620
13098TIP3    H139227   4.525   7.872   5.164  0.4731  0.2716  1.1802
13098TIP3    H239228   4.392   7.943   5.178  0.8063  1.0049  0.6624
13099TIP3   OH239229   5.772   6.676   6.424 -0.3032 -0.1553 -0.1200
13099TIP3    H139230   5.766   6.682   6.519  0.4654 -0.6399 -0.0378
13099TIP3    H239231   5.685   6.648   6.396 -0.8014  0.8707  0.3596
13100TIP3   OH239232   8.270   0.436   5.723  0.3023 -0.2872  0.1458
13100TIP3    H139233   8.190   0.460   5.676 -0.5808 -0.0531  1.7350
13100TIP3    H239234   8.266   0.486   5.805  1.7269 -0.8162  0.5657
13101TIP3   OH239235   2.936   6.177   6.561 -0.2018 -0.1587  0.3426
13101TIP3    H139236   3.029   6.198   6.547 -0.9477  1.3906 -2.5990
13101TIP3    H239237   2.914   6.117   6.490 -1.3550 -0.9039  1.3164
13102TIP3   OH239238   5.398   0.814   5.891  0.2460 -0.2405  0.1695
13102TIP3    H139239   5.488   0.829   5.922  0.0181  2.7652 -0.4545
13102TIP3    H239240   5.404   0.821   5.795 -1.0812  2.9807  0.2505
13103TIP3   OH239241   6.696   0.430   6.720  0.2309  0.5193  0.4333
13103TIP3    H139242   6.764   0.481   6.676 -0.3782  0.9175 -0.0627
13103TIP3    H239243   6.614   0.468   6.688 -0.2219 -0.3756  0.5228
13104TIP3   OH239244   5.868   2.088   2.888  0.5245 -0.1135  0.5098
13104TIP3    H139245   5.837   2.002   2.857 -0.8087  0.0699  1.3221
13104TIP3    H239246   5.892   2.073   2.979 -0.2026  0.5075  0.7998
13105TIP3   OH239247   6.873   0.801   6.720 -0.1044 -0.3167 -0.2786
13105TIP3    H139248   6.876   0.862   6.647  2.0687 -0.6829 -0.5102
13105TIP3    H239249   6.845   0.718   6.680  2.1896 -0.8054 -0.9182
13106TIP3   OH239250   6.726   0.803   3.292  0.3183 -0.2099  0.2255
13106TIP3    H139251   6.632   0.790   3.297  0.4822 -1.9825 -0.9239
13106TIP3    H239252   6.737   0.889   3.250 -0.7680 -0.1749  0.0136
13107TIP3   OH239253   7.071   0.108   4.419 -0.5852 -0.2852  0.1009
13107TIP3    H139254   7.125   0.124   4.496 -0.0882  1.1776 -0.5324
13107TIP3    H239255   7.133   0.090   4.349 -0.9443  0.5052 -0.4308
13108TIP3   OH239256   0.438   0.485   4.548 -0.0645 -0.5616  0.0657
13108TIP3    H139257   0.366   0.447   4.498 -0.7246 -0.2762  0.7760
13108TIP3    H239258   0.395   0.534   4.618  0.7912  0.9723 -0.4741
13109TIP3   OH239259   5.191   0.592   3.918 -0.3959 -0.1125 -0.5739
13109TIP3    H139260   5.163   0.504   3.891 -0.4853 -0.7739  1.6182
13109TIP3    H239261   5.285   0.584   3.930 -0.3109  0.2669 -0.9736
13110TIP3   OH239262   5.506   6.781   4.443  0.4837 -0.1481  0.7099
13110TIP3    H139263   5.591   6.810   4.409  0.3830 -1.0932 -0.3732
13110TIP3    H239264   5.503   6.688   4.423 -1.5435  0.2226 -0.8101
13111TIP3   OH239265   6.111   0.894   6.755  0.1456 -0.0102  0.3394
13111TIP3    H139266   6.096   0.988   6.755  0.9779  0.1330 -0.9598
13111TIP3    H239267   6.162   0.878   6.834 -0.8425  0.4780  1.0876
13112TIP3   OH239268   3.313   6.175   6.898  0.2350  0.3226 -0.0393
13112TIP3    H139269   3.398   6.215   6.877  0.9287 -1.9517 -1.8147
13112TIP3    H239270   3.335   6.085   6.924 -1.4595  0.3907  1.7209
13113TIP3   OH239271   0.189   1.301   5.359 -0.4073 -0.2013  0.2872
13113TIP3    H139272   0.238   1.242   5.415  0.2245  0.1715  0.1296
13113TIP3    H239273   0.170   1.377   5.415 -0.7366 -0.3127  0.3268
13114TIP3   OH239274   4.430   0.796   3.380  0.2987  0.4047  0.4563
13114TIP3    H139275   4.429   0.775   3.473  1.0561 -0.8917  0.1766
13114TIP3    H239276   4.521   0.819   3.362 -0.3256  3.2339  0.5763
13115TIP3   OH239277   3.398   6.527   4.670  0.3788 -0.2650 -0.8471
13115TIP3    H139278   3.411   6.610   4.624 -2.2543  0.0939 -1.0221
13115TIP3    H239279   3.400   6.461   4.601 -0.4016 -0.0571 -1.0651
13116TIP3   OH239280   4.592   7.499   5.772 -0.1938 -0.2736  0.3294
13116TIP3    H139281   4.642   7.564   5.821  0.1568 -1.0665  1.0339
13116TIP3    H239282   4.506   7.539   5.760 -0.0567  0.2162  0.9590
13117TIP3   OH239283   2.267   7.249   6.383 -0.0554 -0.2997 -0.0888
13117TIP3    H139284   2.222   7.258   6.467 -2.7863 -0.4347 -1.4715
13117TIP3    H239285   2.256   7.157   6.360 -0.8156  0.0942 -1.3643
13118TIP3   OH239286   7.420  -0.025   6.334 -0.0000 -0.4554 -0.1628
13118TIP3    H139287   7.402   0.065   6.362 -0.8975 -1.0295  1.1733
13118TIP3    H239288   7.374  -0.033   6.250  0.3613  0.4335 -0.4502
13119TIP3   OH239289   3.746   6.806   2.820  0.0870  0.0497 -0.6442
13119TIP3    H139290   3.808   6.877   2.838  1.5791 -1.2502 -0.5141
13119TIP3    H239291   3.754   6.790   2.726 -1.3224  1.0072 -0.9451
13120TIP3   OH239292   7.781   3.115   0.176  0.0045 -0.1461 -0.3305
13120TIP3    H139293   7.853   3.093   0.236  0.9828  1.8518 -0.7179
13120TIP3    H239294   7.707   3.134   0.233  0.0771 -1.1160  0.1108
13121TIP3   OH239295   5.148   0.328   5.430 -0.0238  0.3506 -0.0287
13121TIP3    H139296   5.114   0.300   5.515  2.3344  0.1488  0.8840
13121TIP3    H239297   5.176   0.419   5.445 -2.5267  1.4099 -1.4766
13122TIP3   OH239298   3.107   3.089   1.274  0.0065  0.0745  0.1671
13122TIP3    H139299   3.167   3.145   1.225  0.2638 -1.7788 -1.7127
13122TIP3    H239300   3.154   3.066   1.354  1.0115  0.2425 -0.3770
13123TIP3   OH239301   3.815   5.257   2.720 -0.0556  0.2362 -0.8556
13123TIP3    H139302   3.830   5.345   2.756  1.0338  0.5503 -2.0555
13123TIP3    H239303   3.895   5.209   2.741 -1.5487 -1.1792  1.8161
13124TIP3   OH239304   4.087   7.209   5.445 -0.0720  0.0236  0.6814
13124TIP3    H139305   4.064   7.191   5.536 -0.9487  0.5082  0.5584
13124TIP3    H239306   4.007   7.194   5.395  0.5340 -0.7227 -0.0835
13125TIP3   OH239307   3.373   5.913   5.127  0.0150  0.3658 -0.1779
13125TIP3    H139308   3.367   5.974   5.201  2.0364  0.1062  0.2207
13125TIP3    H239309   3.364   5.969   5.050 -1.7293  0.6861  0.2316
13126TIP3   OH239310   7.512   0.080   5.363 -0.1703  0.0714 -0.3286
13126TIP3    H139311   7.504  -0.001   5.413  1.6810  0.2661  0.3009
13126TIP3    H239312   7.482   0.056   5.275  2.3316 -1.8510 -0.7061
13127TIP3   OH239313   7.361   0.568   4.569 -0.3240 -0.2757  0.3211
13127TIP3    H139314   7.274   0.600   4.594 -0.3723 -0.2622  0.1312
13127TIP3    H239315   7.345   0.513   4.492 -0.2045 -0.5274  0.4740
13128TIP3   OH239316   5.010   7.350   6.810 -0.1256 -0.0579 -0.5697
13128TIP3    H139317   5.037   7.259   6.824 -1.6575 -0.6434 -1.2879
13128TIP3    H239318   5.089   7.401   6.827  0.7857 -1.5284 -0.2633
13129TIP3   OH239319   3.380   7.271   5.268 -0.1597  0.1264  0.2993
13129TIP3    H139320   3.397   7.254   5.361  0.9616 -0.3885  0.0119
13129TIP3    H239321   3.289   7.244   5.255 -1.0185  2.1978  1.7111
13130TIP3   OH239322   2.318   7.687   4.279 -0.1518 -0.0285 -0.8535
13130TIP3    H139323   2.230   7.656   4.259  0.2935 -0.4504 -2.2036
13130TIP3    H239324   2.375   7.614   4.257  0.6215  0.6076 -0.9836
13131TIP3   OH239325   4.082   1.674   4.006  0.2515 -0.2810 -0.3187
13131TIP3    H139326   4.008   1.621   4.036 -0.6692  0.5444 -1.0615
13131TIP3    H239327   4.137   1.685   4.083  1.4103 -3.8155 -0.5621
13132TIP3   OH239328   5.366   7.993   5.155  0.2765  0.5710  0.0287
13132TIP3    H139329   5.318   8.054   5.211 -2.0536 -1.8290  0.7531
13132TIP3    H239330   5.315   7.988   5.074  0.8730  0.1842 -0.3351
13133TIP3   OH239331   5.218   7.862   4.282  0.8254 -0.7339 -0.3424
13133TIP3    H139332   5.236   7.780   4.236  1.2956  0.4580 -2.3618
13133TIP3    H239333   5.244   7.930   4.219 -1.8752  0.9819  0.3465
13134TIP3   OH239334   3.610   5.650   5.768  0.4727 -0.3853  0.0654
13134TIP3    H139335   3.515   5.634   5.770  0.6066 -1.1891  0.0049
13134TIP3    H239336   3.642   5.614   5.850  0.4235  1.8883  1.1111
13135TIP3   OH239337   3.903   5.017   6.777  0.7114 -0.5120 -0.4759
13135TIP3    H139338   3.956   5.091   6.805  1.5382 -1.6585  1.0701
13135TIP3    H239339   3.814   5.052   6.770  1.0149  0.5216  0.6672
13136TIP3   OH239340   4.541   5.855   5.969 -0.8065 -0.1024  0.3015
13136TIP3    H139341   4.478   5.917   5.933  0.7691  0.8835 -0.8092
13136TIP3    H239342   4.582   5.902   6.042 -2.8721 -1.5311  2.4620
13137TIP3   OH239343   4.501   6.206   6.249 -0.4482  0.0692  0.6373
13137TIP3    H139344   4.477   6.172   6.163 -1.4325  1.2215  0.4496
13137TIP3    H239345   4.593   6.233   6.240 -1.2996  2.6035 -0.8098
13138TIP3   OH239346   1.808   3.428   0.309  0.2264  0.2874  0.4722
13138TIP3    H139347   1.760   3.357   0.267  0.1744  0.6507 -0.0781
13138TIP3    H239348   1.775   3.429   0.399 -0.3877  0.1706  0.2469
13139TIP3   OH239349   0.380   0.957   4.652 -0.2993 -0.1967  0.2784
13139TIP3    H139350   0.465   0.938   4.611  0.0410 -0.8074  1.2366
13139TIP3    H239351   0.316   0.915   4.595  0.0233  0.4769 -0.5865
13140TIP3   OH239352   0.824   0.577   6.196  0.3677 -0.1109 -0.2852
13140TIP3    H139353   0.796   0.664   6.224 -0.1073  0.0379 -1.1947
13140TIP3    H239354   0.867   0.539   6.273 -0.4619  0.4719  0.4668
13141TIP3   OH239355   0.711   2.827   4.079 -0.2224  0.4341  0.1657
13141TIP3    H139356   0.671   2.741   4.069  2.0369 -0.5979 -0.3770
13141TIP3    H239357   0.657   2.885   4.026  0.4494 -1.3951 -2.6200
13142TIP3   OH239358   1.853   1.388   6.159  0.3912 -0.4074  0.4778
13142TIP3    H139359   1.882   1.356   6.074 -0.4579  2.3537 -0.8941
13142TIP3    H239360   1.776   1.335   6.180 -0.2588 -0.1235 -1.1652
13143TIP3   OH239361   1.136   2.360   6.796  0.3996  0.5915  0.2538
13143TIP3    H139362   1.172   2.428   6.853 -0.8974  0.6713  0.9956
13143TIP3    H239363   1.043   2.358   6.817 -0.2219  1.0796 -2.3919
13144TIP3   OH239364   5.999   7.144   3.909 -0.0381  0.2122 -0.2225
13144TIP3    H139365   5.937   7.072   3.900  0.0916  0.3135 -2.0079
13144TIP3    H239366   5.945   7.223   3.902 -0.1382  0.3071  1.4318
13145TIP3   OH239367   1.012   2.245   4.888 -0.5556 -0.1378 -0.2372
13145TIP3    H139368   0.966   2.250   4.804 -0.8876  0.0926 -0.0405
13145TIP3    H239369   0.953   2.286   4.951 -0.9072 -1.5417  0.3712
13146TIP3   OH239370   0.991   0.896   3.925 -0.1833 -0.4526 -0.3707
13146TIP3    H139371   0.907   0.937   3.904 -0.2660  0.1019  0.9589
13146TIP3    H239372   1.011   0.840   3.849 -1.4527 -0.1278 -0.9549
13147TIP3   OH239373   4.814   7.453   3.162  0.0594  0.4096 -0.5443
13147TIP3    H139374   4.866   7.532   3.171  0.6553  0.0652 -0.9441
13147TIP3    H239375   4.839   7.399   3.237 -1.1012  1.0225  0.2959
13148TIP3   OH239376   7.336   0.264   5.917 -0.0336  0.2146 -0.0290
13148TIP3    H139377   7.293   0.350   5.916  1.1865  0.8398 -0.5048
13148TIP3    H239378   7.430   0.284   5.925  0.1238 -1.1475  1.9237
13149TIP3   OH239379   5.510   7.957   1.649 -0.2200  0.1198 -0.1114
13149TIP3    H139380   5.578   8.014   1.613 -0.5710  1.1524  0.8420
13149TIP3    H239381   5.531   7.951   1.742  0.1075 -1.7361 -0.2830
13150TIP3   OH239382   6.666   1.621   4.474 -0.2941 -0.3147  0.1661
13150TIP3    H139383   6.650   1.674   4.397  1.7005  0.4539  0.2381
13150TIP3    H239384   6.749   1.577   4.456 -0.9687 -1.9505  0.9051
13151TIP3   OH239385   6.331   1.776   4.638 -0.4203  0.2634 -0.1135
13151TIP3    H139386   6.397   1.720   4.677 -1.5404 -0.6615  0.5011
13151TIP3    H239387   6.252   1.722   4.636 -0.8055  0.8416 -2.1530
13152TIP3   OH239388   6.916   6.708   5.057 -0.3858  0.0090 -0.2155
13152TIP3    H139389   6.978   6.731   4.988  1.0517 -2.4414  0.1790
13152TIP3    H239390   6.832   6.741   5.026  0.7451  1.5376 -1.7608
13153TIP3   OH239391   5.920   7.489   5.241 -0.2950 -0.0594  0.0052
13153TIP3    H139392   5.829   7.515   5.254 -0.9645 -2.4588  0.5533
13153TIP3    H239393   5.969   7.570   5.244 -2.4710  1.3286 -0.7560
13154TIP3   OH239394   2.361   5.019   0.308  0.1535 -0.1207  0.2230
13154TIP3    H139395   2.417   5.088   0.272 -0.5142  0.0682 -0.4627
13154TIP3    H239396   2.385   4.941   0.259 -1.5271  0.3620 -1.4600
13155TIP3   OH239397   2.999   0.031   3.256  0.3691  0.1526  0.2808
13155TIP3    H139398   3.081  -0.015   3.237 -0.1832  0.3488 -2.9014
13155TIP3    H239399   2.953   0.032   3.172 -2.4737  0.8991  1.7968
13156TIP3   OH239400   6.524   0.209   6.058 -0.0496  0.5946 -0.0132
13156TIP3    H139401   6.587   0.158   6.108  0.2125  0.0605 -0.8789
13156TIP3    H239402   6.439   0.171   6.079 -0.2119  1.9809  1.9712
13157TIP3   OH239403   6.516   1.142   5.317  0.3561  0.3000 -0.6435
13157TIP3    H139404   6.453   1.155   5.388  0.4958 -0.4105 -0.3830
13157TIP3    H239405   6.490   1.205   5.250  0.0741  0.8116 -0.0632
13158TIP3   OH239406   7.638  -0.015   2.248 -0.0303  0.4107  0.0997
13158TIP3    H139407   7.619   0.075   2.224 -2.2039  0.1118  0.5884
13158TIP3    H239408   7.715  -0.009   2.305  1.1246  1.7194 -1.5623
13159TIP3   OH239409   6.137   7.978   6.718 -0.1889 -0.1924 -0.0368
13159TIP3    H139410   6.201   7.950   6.783 -0.7865 -0.6450  0.3570
13159TIP3    H239411   6.101   7.896   6.683  0.4092  0.0381 -1.2180
13160TIP3   OH239412   5.637   6.943   6.512  0.1810  0.0646 -0.1659
13160TIP3    H139413   5.677   6.873   6.460 -0.4551 -0.9167  0.6532
13160TIP3    H239414   5.576   6.985   6.453  2.6658  1.8248 -1.5659
13161TIP3   OH239415   0.287   3.770   1.663  0.5387  0.1840  1.0021
13161TIP3    H139416   0.247   3.695   1.619  0.5069 -1.0751  3.1378
13161TIP3    H239417   0.346   3.807   1.597  0.0212 -1.2655 -0.3163
13162TIP3   OH239418   1.147   2.029   4.096  0.0140  0.6070  0.6951
13162TIP3    H139419   1.139   1.988   4.182  0.0148 -1.5771 -0.3002
13162TIP3    H239420   1.058   2.056   4.073 -0.1098  0.5071  1.0540
13163TIP3   OH239421   5.876   7.536   4.532 -0.1293 -0.0753  0.0136
13163TIP3    H139422   5.848   7.479   4.604  0.1289 -0.7694 -0.4331
13163TIP3    H239423   5.869   7.625   4.568 -0.3985 -0.3936  0.7598
13164TIP3   OH239424   5.267   7.315   5.163 -0.1700 -0.5303  0.1514
13164TIP3    H139425   5.239   7.230   5.129  0.8999 -0.7916 -0.0999
13164TIP3    H239426   5.194   7.374   5.144  0.1357 -0.8127 -2.0033
13165TIP3   OH239427   7.217   1.286   2.229 -0.2547  0.1675 -0.4074
13165TIP3    H139428   7.272   1.350   2.275 -1.5874 -1.3566  3.4573
13165TIP3    H239429   7.268   1.206   2.229 -0.7581 -0.1548 -0.6222
13166TIP3   OH239430   8.179   2.524   3.764  0.0468  0.6911 -0.4856
13166TIP3    H139431   8.151   2.433   3.754 -2.8833  1.4992 -0.1406
13166TIP3    H239432   8.247   2.521   3.832 -1.5030 -0.9966  1.0452
13167TIP3   OH239433   7.950   1.134   4.420 -0.2661  0.7648 -0.5429
13167TIP3    H139434   7.911   1.222   4.424 -1.4470  0.2029  0.6748
13167TIP3    H239435   7.875   1.075   4.431  0.9608 -0.3371  2.2894
13168TIP3   OH239436   2.015   5.087   1.134 -0.3099 -0.0555  0.8888
13168TIP3    H139437   2.055   5.118   1.053 -0.1790 -1.1232  0.5434
13168TIP3    H239438   1.985   5.167   1.178 -0.8912  0.4834 -0.4781
13169TIP3   OH239439   1.603   1.126   3.747 -0.1239 -0.8814 -1.2642
13169TIP3    H139440   1.649   1.206   3.772 -0.4376 -0.6532 -1.4157
13169TIP3    H239441   1.554   1.149   3.669 -0.9307 -0.9693 -0.7934
13170TIP3   OH239442   5.731   6.912   4.353  0.0677 -0.0994 -0.2298
13170TIP3    H139443   5.749   6.969   4.428 -0.2533  0.9875 -0.9578
13170TIP3    H239444   5.794   6.940   4.287 -1.2021  0.5642 -1.1812
13171TIP3   OH239445   0.073   1.233   3.823 -0.3704 -0.0001  0.8411
13171TIP3    H139446   0.008   1.256   3.757  1.3838 -0.0065 -0.9240
13171TIP3    H239447   0.024   1.231   3.906 -1.8882  3.5695  0.1028
13172TIP3   OH239448   2.521   7.668   3.560 -0.3994  0.1749  0.1160
13172TIP3    H139449   2.574   7.607   3.611 -1.5699 -0.4274  0.6313
13172TIP3    H239450   2.486   7.730   3.624  0.1840  0.9459 -0.3060
13173TIP3   OH239451   8.337   0.827   3.166 -0.3828 -0.1177 -0.3589
13173TIP3    H139452   8.361   0.763   3.232 -2.1472  0.6813  1.1303
13173TIP3    H239453   8.279   0.888   3.213 -0.1189  1.5577 -2.1608
13174TIP3   OH239454   0.288   1.138   4.987  0.5979  0.1920  0.0836
13174TIP3    H139455   0.320   1.220   5.025  1.3560 -0.2126  0.3173
13174TIP3    H239456   0.211   1.116   5.041  0.7301  0.4517  0.3833
13175TIP3   OH239457   6.522   1.592   4.727  0.3836  0.0812  0.2374
13175TIP3    H139458   6.545   1.559   4.641  0.1005  0.1763  0.1240
13175TIP3    H239459   6.490   1.515   4.774  0.5931  0.0184  0.2776
13176TIP3   OH239460   6.404   0.981   4.667 -0.0289  0.0644 -0.2349
13176TIP3    H139461   6.310   0.999   4.658 -0.3764 -1.8188 -0.5183
13176TIP3    H239462   6.427   0.933   4.587  0.8409 -0.8361  0.5401
13177TIP3   OH239463   4.747   5.715   3.572  0.0882  0.2890 -0.0537
13177TIP3    H139464   4.733   5.751   3.484 -0.6197  0.9251  0.3062
13177TIP3    H239465   4.777   5.626   3.557  1.8141  1.0100 -0.9640
13178TIP3   OH239466   7.811   2.056   3.753  0.5939 -0.4602  0.2527
13178TIP3    H139467   7.801   2.038   3.659  0.9927 -1.5289  0.4052
13178TIP3    H239468   7.884   2.001   3.780  1.0915  0.5462  1.0069
13179TIP3   OH239469   0.320   1.018   5.438 -0.4038 -0.0291  0.5929
13179TIP3    H139470   0.359   1.061   5.515 -1.2582 -1.2095  1.7139
13179TIP3    H239471   0.371   1.050   5.364  1.9350 -0.6427  1.8889
13180TIP3   OH239472   0.388   1.142   5.670 -0.7015  0.5854  0.4625
13180TIP3    H139473   0.425   1.229   5.689 -1.0451  1.4771 -2.7778
13180TIP3    H239474   0.333   1.123   5.746 -0.0659  2.8795  1.5590
13181TIP3   OH239475   0.405   1.429   5.723 -0.0870  1.0092 -0.0178
13181TIP3    H139476   0.342   1.471   5.781  1.4497  0.2839  2.2495
13181TIP3    H239477   0.404   1.483   5.644 -1.0373  2.9925  1.3019
13182TIP3   OH239478   0.217   0.293   6.848  0.3201  0.4685  0.2436
13182TIP3    H139479   0.267   0.283   6.767 -0.1447  0.3830 -0.0343
13182TIP3    H239480   0.256   0.230   6.908  0.0392 -0.1472 -0.2154
13183TIP3   OH239481   5.456   7.158   4.443 -0.0700  0.0976 -0.1880
13183TIP3    H139482   5.498   7.198   4.519 -0.3688 -0.9406  0.5250
13183TIP3    H239483   5.379   7.113   4.478 -1.3466  1.3028 -1.3697
13184TIP3   OH239484   5.566   5.594   4.893 -0.8553 -0.2864  0.0661
13184TIP3    H139485   5.640   5.540   4.864 -1.2887  0.8090 -3.3080
13184TIP3    H239486   5.543   5.559   4.979  3.7052 -0.4918  1.3328
13185TIP3   OH239487   6.983   0.310   4.640 -0.6186 -0.5865 -0.8530
13185TIP3    H139488   6.990   0.241   4.706 -0.4535 -1.0546 -1.3607
13185TIP3    H239489   7.006   0.268   4.558 -0.7823  0.0084 -1.2101
13186TIP3   OH239490   3.924   7.894   5.739  0.5320 -0.1071  0.7204
13186TIP3    H139491   3.911   7.831   5.669  2.8082  0.8625 -0.6285
13186TIP3    H239492   3.905   7.979   5.699 -0.6502  0.2661  2.0042
13187TIP3   OH239493   3.773   6.513   0.140 -0.1206 -0.2827  0.0468
13187TIP3    H139494   3.762   6.420   0.163 -0.3005 -0.3544 -0.3364
13187TIP3    H239495   3.844   6.514   0.076  0.6009 -0.0447  0.8361
13188TIP3   OH239496   7.768   0.386   3.155 -0.2987  0.6030 -0.4292
13188TIP3    H139497   7.860   0.411   3.162 -1.0230  2.6795  3.2326
13188TIP3    H239498   7.722   0.467   3.135 -1.5352  0.0182 -0.0587
13189TIP3   OH239499   0.933   1.695   3.134 -0.5245 -0.7866  0.2737
13189TIP3    H139500   0.936   1.709   3.039  0.0413 -1.1770  0.2286
13189TIP3    H239501   1.005   1.748   3.168 -0.0156 -1.5307  0.3658
13190TIP3   OH239502   6.332   6.846   5.697 -0.2592 -0.6416 -0.9740
13190TIP3    H139503   6.344   6.762   5.653 -0.7475 -0.1292 -2.0906
13190TIP3    H239504   6.403   6.850   5.761  0.3431 -1.4701 -1.5874
13191TIP3   OH239505   5.494   7.967   2.601 -0.2081  0.5482  0.4939
13191TIP3    H139506   5.422   7.906   2.616  1.0976 -1.0950  0.3500
13191TIP3    H239507   5.572   7.918   2.629  0.9509  1.9128 -0.2795
13192TIP3   OH239508   5.452   7.042   6.284 -0.6399 -0.1160 -0.3331
13192TIP3    H139509   5.369   7.030   6.330  0.5674  0.7627  2.1510
13192TIP3    H239510   5.459   7.136   6.270 -0.0296 -0.1824 -0.5026
13193TIP3   OH239511   7.538   2.636   3.612  0.2878 -0.2967 -0.0331
13193TIP3    H139512   7.516   2.693   3.539 -1.6238  0.5042  1.1389
13193TIP3    H239513   7.609   2.681   3.657 -0.3609  0.5542  0.1543
13194TIP3   OH239514   7.531   1.088   4.553 -0.1683  0.0128 -0.0082
13194TIP3    H139515   7.438   1.098   4.570 -0.0619  0.8310  0.1288
13194TIP3    H239516   7.571   1.165   4.592  0.4966 -0.0164 -0.6144
13195TIP3   OH239517   5.404   6.970   5.846  0.0296  0.2222  0.1904
13195TIP3    H139518   5.387   6.910   5.774 -0.0395 -0.8379  1.0747
13195TIP3    H239519   5.317   7.003   5.870  0.1438  1.2674 -0.7817
13196TIP3   OH239520   1.411   0.539   5.186 -0.1692  0.1230  0.5078
13196TIP3    H139521   1.364   0.619   5.206 -2.0523 -0.5851 -0.9128
13196TIP3    H239522   1.499   0.552   5.223 -1.0032  2.0806  1.8455
13197TIP3   OH239523   7.103   7.164   4.923 -0.0064 -0.4035 -0.0923
13197TIP3    H139524   7.108   7.258   4.906  3.7693 -0.6735 -0.9197
13197TIP3    H239525   7.097   7.124   4.837  3.5751 -1.0825 -0.1113
13198TIP3   OH239526   8.131   1.808   5.012  0.0760  0.1401  0.1649
13198TIP3    H139527   8.054   1.800   5.068 -0.2272 -0.9926 -0.3976
13198TIP3    H239528   8.170   1.720   5.013  1.0674  0.5790  0.0364
13199TIP3   OH239529   0.196   0.041   4.122  0.0873 -0.1309  0.1664
13199TIP3    H139530   0.156   0.087   4.196  0.0361 -0.7936  0.5548
13199TIP3    H239531   0.216   0.110   4.059 -0.5532  0.3519  0.4817
13200TIP3   OH239532   1.881   1.298   4.642 -0.1055 -0.5701  0.0005
13200TIP3    H139533   1.823   1.364   4.603 -0.0764 -0.9251 -0.6408
13200TIP3    H239534   1.938   1.348   4.700  0.3130  0.0535 -0.9407
13201TIP3   OH239535   2.912   1.671   3.160  0.6713  0.5626 -0.5857
13201TIP3    H139536   2.945   1.631   3.241 -1.1934  0.1493 -0.0020
13201TIP3    H239537   2.989   1.676   3.103  1.8471  0.1216  0.9124
13202TIP3   OH239538   1.093   2.364   5.287 -0.7462 -0.0060  0.2986
13202TIP3    H139539   1.014   2.363   5.234 -1.8394  0.6184  1.8974
13202TIP3    H239540   1.095   2.451   5.326  1.6593  0.6150 -1.0699
13203TIP3   OH239541   0.570   1.414   3.171  0.2229 -0.3063 -0.3701
13203TIP3    H139542   0.502   1.479   3.154 -0.7605 -0.9958  0.9153
13203TIP3    H239543   0.560   1.350   3.100  1.4727  1.1373 -1.8879
13204TIP3   OH239544   7.188   7.001   4.246 -0.1234 -0.0656 -0.4131
13204TIP3    H139545   7.208   6.911   4.273 -1.0293 -0.3082 -0.5393
13204TIP3    H239546   7.172   7.048   4.327 -2.1019 -0.6140 -0.4635
13205TIP3   OH239547   6.645   1.339   3.099  0.0153 -0.0128  0.5166
13205TIP3    H139548   6.618   1.268   3.041  1.4130 -0.8877  0.8954
13205TIP3    H239549   6.594   1.414   3.072  2.2697  0.2256 -3.3901
13206TIP3   OH239550   4.935   6.488   2.608 -0.0691  0.2182 -0.5548
13206TIP3    H139551   4.918   6.399   2.577 -1.0583  0.8945 -2.0366
13206TIP3    H239552   5.030   6.497   2.605  0.0997 -1.0457  0.4011
13207TIP3   OH239553   0.529   1.439   6.913 -0.4687  0.4137 -0.3130
13207TIP3    H139554   0.473   1.463   6.840 -0.3025 -1.0313 -0.9484
13207TIP3    H239555   0.609   1.491   6.901 -0.3419  0.0027 -1.3100
13208TIP3   OH239556   2.019   1.317   4.116  0.2053 -0.4947 -0.5830
13208TIP3    H139557   2.021   1.290   4.208  2.0590 -0.1798 -0.5019
13208TIP3    H239558   2.029   1.412   4.119  0.5277 -0.5109 -1.1213
13209TIP3   OH239559   7.864   0.414   6.818 -0.0964 -0.2620  0.0857
13209TIP3    H139560   7.837   0.344   6.758  0.9528 -0.1615 -0.5290
13209TIP3    H239561   7.795   0.418   6.883 -0.4843 -1.4592 -0.2305
13210TIP3   OH239562   2.377   1.987   4.532  0.5768  0.1593  0.4774
13210TIP3    H139563   2.452   2.044   4.546 -0.5272  1.0870  2.9855
13210TIP3    H239564   2.370   1.936   4.613 -2.1472  0.9196  0.7747
13211TIP3   OH239565   7.439   1.398   3.184 -0.2353 -0.1174  0.0455
13211TIP3    H139566   7.379   1.471   3.195  0.5870  0.8746 -1.8252
13211TIP3    H239567   7.386   1.328   3.145 -0.3131  0.5833 -1.1341
13212TIP3   OH239568   8.051   1.550   3.104  0.2733  0.0726 -0.5174
13212TIP3    H139569   8.068   1.601   3.183 -1.3699  0.7819 -0.6027
13212TIP3    H239570   7.975   1.497   3.126  0.3104 -0.3362 -1.3608
13213TIP3   OH239571   6.892   1.089   4.348  0.2909  0.2525  0.7174
13213TIP3    H139572   6.947   1.148   4.296 -0.0256 -0.1525 -0.0927
13213TIP3    H239573   6.955   1.036   4.398  0.6036  0.5631  0.6557
13214TIP3   OH239574   6.641   7.425   4.853 -0.5993 -0.6712  0.4194
13214TIP3    H139575   6.700   7.473   4.911  0.6685 -1.5694 -0.0993
13214TIP3    H239576   6.607   7.490   4.793 -0.6895 -0.0196  1.1633
13215TIP3   OH239577   0.955   1.195   3.055 -0.2156 -0.1109  0.2534
13215TIP3    H139578   0.917   1.200   3.142 -1.0921 -0.0922 -0.1262
13215TIP3    H239579   0.933   1.279   3.014 -1.3236 -0.7881 -0.5895
13216TIP3   OH239580   1.449   1.901   6.860 -0.4541  0.1788 -0.3295
13216TIP3    H139581   1.439   1.841   6.786 -3.0867 -0.2930  0.3531
13216TIP3    H239582   1.368   1.952   6.860 -0.1648  0.6910  1.7602
13217TIP3   OH239583   0.470   0.936   4.931  0.2541 -0.1316  0.2155
13217TIP3    H139584   0.437   0.913   4.844  0.3150 -1.4002  0.5084
13217TIP3    H239585   0.420   1.013   4.957  0.2133  0.2280 -0.9288
13218TIP3   OH239586   6.867   7.617   3.586 -0.2631  0.5515 -0.0686
13218TIP3    H139587   6.861   7.688   3.521  1.0501 -0.9817 -1.9405
13218TIP3    H239588   6.888   7.540   3.534  2.2658 -0.4668  2.3417
13219TIP3   OH239589   1.627   1.039   5.555  0.0886  0.3924 -0.1305
13219TIP3    H139590   1.636   1.059   5.648 -1.8814 -1.4435  0.4889
13219TIP3    H239591   1.544   1.080   5.529 -0.2147 -0.5181 -0.6477
13220TIP3   OH239592   7.951   1.727   5.854 -0.0085  0.0723 -0.1320
13220TIP3    H139593   7.889   1.777   5.907  1.6228  0.4651  1.4555
13220TIP3    H239594   7.997   1.792   5.801 -1.6294 -0.3198 -2.0614
13221TIP3   OH239595   6.423   7.328   6.021  0.5274  0.5897 -0.0048
13221TIP3    H139596   6.393   7.368   5.940 -1.9297 -1.2672 -0.0808
13221TIP3    H239597   6.373   7.372   6.090  1.1010  0.7374  0.3257
13222TIP3   OH239598   7.066   0.601   4.578  0.3431  0.3077  0.5384
13222TIP3    H139599   7.034   0.556   4.499 -0.2960 -0.5820  1.2909
13222TIP3    H239600   7.072   0.532   4.644  0.2338  1.1690  1.4562
13223TIP3   OH239601   8.347   1.476   6.114 -0.3956 -0.2267 -0.2417
13223TIP3    H139602   8.290   1.400   6.103  0.4926 -1.3703  2.6660
13223TIP3    H239603   8.295   1.550   6.083 -2.1478 -1.6934 -0.8929
13224TIP3   OH239604   5.825   1.655   3.917  0.1619  0.7389  0.0061
13224TIP3    H139605   5.816   1.667   4.012 -0.0951  2.0175 -0.1634
13224TIP3    H239606   5.874   1.573   3.907 -0.9042 -0.0486  1.2117
13225TIP3   OH239607   1.112   2.631   4.976  0.0895 -0.3726  0.3733
13225TIP3    H139608   1.018   2.621   4.995  0.0717  1.6369  1.4710
13225TIP3    H239609   1.119   2.614   4.882 -1.8658  2.4067 -0.3310
13226TIP3   OH239610   5.794   7.060   5.171  0.3190 -0.3933  0.1997
13226TIP3    H139611   5.703   7.035   5.154 -0.1437  1.9080 -0.9313
13226TIP3    H239612   5.799   7.153   5.145  2.9455 -0.4434  0.3546
13227TIP3   OH239613   7.164   0.917   5.430  0.0254 -0.0951  0.0236
13227TIP3    H139614   7.200   0.841   5.385 -1.9476 -0.1666 -1.4797
13227TIP3    H239615   7.241   0.972   5.450  0.8914  0.3824 -4.2700
13228TIP3   OH239616   8.392   2.215   3.556  0.1492 -0.6573  0.2544
13228TIP3    H139617   8.448   2.170   3.619 -0.3563  0.2598  1.3880
13228TIP3    H239618   8.434   2.200   3.471  1.5371 -0.8596  0.9607
13229TIP3   OH239619   1.206   1.107   3.032  0.5589 -0.0812 -0.1183
13229TIP3    H139620   1.115   1.135   3.034  0.8302  0.7500  0.7255
13229TIP3    H239621   1.202   1.017   3.000 -0.5940 -0.1691  0.2370
13230TIP3   OH239622   4.435   3.139   1.990 -0.4745  0.2878 -0.4580
13230TIP3    H139623   4.397   3.183   2.066 -1.5756 -1.3546 -0.0152
13230TIP3    H239624   4.491   3.071   2.028  0.2652  0.5195 -1.1225
13231TIP3   OH239625   7.202   1.981   3.838  0.1617  0.2475  0.3445
13231TIP3    H139626   7.194   1.914   3.905  0.6375 -0.2300 -0.0718
13231TIP3    H239627   7.291   1.972   3.805  0.3795  1.3732  0.5895
13232TIP3   OH239628   0.299   1.704   4.810 -0.1930  0.1391 -0.2678
13232TIP3    H139629   0.213   1.744   4.816 -1.1736 -2.0563  1.0804
13232TIP3    H239630   0.319   1.677   4.900  1.6342  0.0692 -0.6721
13233TIP3   OH239631   7.013   0.857   5.884  0.0301  0.1170 -0.0380
13233TIP3    H139632   6.977   0.849   5.795 -0.0943 -0.2349  0.0429
13233TIP3    H239633   6.985   0.944   5.913 -3.9546 -1.5213  1.4004
13234TIP3   OH239634   1.480   1.307   3.580  0.5325 -0.0271  0.1373
13234TIP3    H139635   1.461   1.400   3.565 -0.2298 -0.3599 -1.0479
13234TIP3    H239636   1.434   1.286   3.661 -1.3099  0.0374 -0.8775
13235TIP3   OH239637   0.644   0.592   5.642  0.3233 -0.1909  0.0801
13235TIP3    H139638   0.626   0.669   5.694 -0.9108 -0.6779  0.3895
13235TIP3    H239639   0.567   0.537   5.652  0.8765 -1.1450 -0.7182
13236TIP3   OH239640   7.183   0.764   4.968 -0.3586 -0.3050  0.1728
13236TIP3    H139641   7.163   0.724   5.052  0.3480  3.1664  2.0998
13236TIP3    H239642   7.270   0.731   4.945  1.1556  1.6816  2.7808
13237TIP3   OH239643   1.083   1.463   6.342 -0.5521 -0.4671 -0.0540
13237TIP3    H139644   1.161   1.446   6.395  0.8804 -0.3720 -2.1036
13237TIP3    H239645   1.052   1.376   6.316 -0.8935 -0.4840  0.3954
13238TIP3   OH239646   6.588   7.054   5.031 -0.0063 -0.0875 -0.0135
13238TIP3    H139647   6.606   7.065   5.125 -0.8453  0.6227  0.0744
13238TIP3    H239648   6.539   7.133   5.007  2.8442  1.2094 -1.7509
13239TIP3   OH239649   5.797   1.587   2.857 -0.3973  0.3129  0.1017
13239TIP3    H139650   5.760   1.507   2.819 -1.8457 -0.6432  3.3737
13239TIP3    H239651   5.874   1.557   2.905  0.2903  1.2151 -0.4268
13240TIP3   OH239652   6.891   7.862   1.977 -0.3675  0.2442  0.9140
13240TIP3    H139653   6.944   7.840   1.900  0.0581 -0.3332  1.3680
13240TIP3    H239654   6.864   7.953   1.961  0.0545  0.2678  0.2755
13241TIP3   OH239655   6.952   1.397   5.372 -0.1834 -0.0723  0.9034
13241TIP3    H139656   7.042   1.366   5.367  0.5676  2.1885  0.1618
13241TIP3    H239657   6.921   1.398   5.282 -1.3010 -1.7644  1.2384
13242TIP3   OH239658   7.722   1.782   2.116 -0.2804 -0.0682  0.1172
13242TIP3    H139659   7.661   1.800   2.188 -0.8389 -0.3306 -0.2872
13242TIP3    H239660   7.786   1.722   2.154  0.0925  0.7031  0.7213
13243TIP3   OH239661   7.735   0.719   5.379  0.9923 -0.3452  0.8472
13243TIP3    H139662   7.746   0.801   5.428  0.2119 -0.1521  0.7106
13243TIP3    H239663   7.814   0.713   5.324 -0.0377  1.5566 -0.9200
13244TIP3   OH239664   6.368   7.592   3.752 -0.2021 -0.0461 -0.1932
13244TIP3    H139665   6.290   7.546   3.783 -1.1908  0.5723 -1.6528
13244TIP3    H239666   6.358   7.681   3.785 -0.7827  0.3653 -1.4158
13245TIP3   OH239667   7.608   0.479   4.290  0.3420  1.0278 -0.1106
13245TIP3    H139668   7.581   0.556   4.240  1.3054  0.7447 -1.0799
13245TIP3    H239669   7.694   0.502   4.324  0.8968  0.1491 -0.9032
13246TIP3   OH239670   0.509   0.888   5.697 -0.0681 -0.1028 -0.4340
13246TIP3    H139671   0.481   0.979   5.686 -1.5738 -0.4197  0.6623
13246TIP3    H239672   0.477   0.863   5.784  1.3628 -1.3204 -0.2259
13247TIP3   OH239673   1.062   1.564   4.096  0.2055  0.0529 -0.5210
13247TIP3    H139674   1.134   1.513   4.134  1.2689  0.5573 -1.8155
13247TIP3    H239675   1.013   1.501   4.044  1.1739  0.2226 -1.6453
13248TIP3   OH239676   0.609   0.846   5.408  0.2090  0.3883  0.1114
13248TIP3    H139677   0.654   0.845   5.492  0.1100  0.1940  0.1620
13248TIP3    H239678   0.591   0.939   5.392  1.9041  0.6144 -0.5976
13249TIP3   OH239679   6.307   7.465   3.178  0.2645 -0.3353 -0.3636
13249TIP3    H139680   6.370   7.408   3.134  0.2365 -1.8106  1.4596
13249TIP3    H239681   6.237   7.406   3.206 -0.7506  0.9122 -0.2102
13250TIP3   OH239682   5.438   7.289   6.007 -0.1891 -0.1939 -0.1347
13250TIP3    H139683   5.374   7.301   5.937 -1.9268  1.2615  1.6729
13250TIP3    H239684   5.386   7.272   6.086  1.7277 -1.5361  0.8927
13251TIP3   OH239685   5.033   7.668   5.981  0.1745  0.8664  0.1428
13251TIP3    H139686   5.029   7.755   5.940  1.4020  0.6843 -0.3708
13251TIP3    H239687   5.075   7.613   5.915  0.1063  0.0525  0.7764
13252TIP3   OH239688   3.643   3.351   0.610  0.0904 -0.0077 -0.6178
13252TIP3    H139689   3.709   3.407   0.651 -1.1654 -0.4116  2.0571
13252TIP3    H239690   3.569   3.408   0.595 -0.1627 -0.2937 -0.4765
13253TIP3   OH239691   7.615   0.383   6.453 -0.2397 -0.0423  0.3976
13253TIP3    H139692   7.590   0.472   6.426  0.5523  0.2071  0.4763
13253TIP3    H239693   7.689   0.361   6.396  0.6609  0.0079  1.5394
13254TIP3   OH239694   7.758   0.158   5.685 -0.3061 -0.4321 -0.2541
13254TIP3    H139695   7.743   0.197   5.599  0.0020 -0.7822 -0.4678
13254TIP3    H239696   7.853   0.162   5.696 -0.4473  0.7088  0.5823
13255TIP3   OH239697   5.710   7.911   4.472 -0.1082  0.6285 -0.0614
13255TIP3    H139698   5.741   7.843   4.533  0.6202  0.8020 -0.2357
13255TIP3    H239699   5.687   7.862   4.393  0.1669  0.5455 -0.0938
13256TIP3   OH239700   0.292   1.917   6.457  0.0411  0.1035  0.5148
13256TIP3    H139701   0.335   1.987   6.409 -0.2205  1.6192  2.4286
13256TIP3    H239702   0.239   1.962   6.523 -1.7181 -1.8387  0.4615
13257TIP3   OH239703   6.294   6.384   5.814 -0.5762 -0.0287  0.5687
13257TIP3    H139704   6.216   6.329   5.816  0.1522 -1.1339 -0.8551
13257TIP3    H239705   6.358   6.337   5.867  0.3261 -1.0123 -1.3493
13258TIP3   OH239706   0.656   0.156   3.281 -0.5974  0.0568  0.2537
13258TIP3    H139707   0.675   0.067   3.250  0.4461  0.3905 -0.0787
13258TIP3    H239708   0.576   0.147   3.333  1.0769 -1.5710  2.6358
13259TIP3   OH239709   5.143   5.985   3.753  0.5309  0.5140  0.6287
13259TIP3    H139710   5.049   5.992   3.770  0.4298  0.8532 -0.0505
13259TIP3    H239711   5.175   6.075   3.757  0.5323  0.5857 -0.7719
13260TIP3   OH239712   6.016   5.991   5.370 -0.0144 -0.0312 -0.1495
13260TIP3    H139713   5.999   6.011   5.462  1.2241  1.5863 -0.2477
13260TIP3    H239714   5.967   6.057   5.322 -0.3450 -0.6323 -0.6387
13261TIP3   OH239715   5.462   6.015   6.514 -0.3272  0.3451 -0.4255
13261TIP3    H139716   5.412   6.086   6.555  0.2072  0.0430  0.8001
13261TIP3    H239717   5.410   5.988   6.439 -2.9490 -1.2237  1.8731
13262TIP3   OH239718   7.761   0.149   2.460  0.1683 -0.2828 -0.2934
13262TIP3    H139719   7.827   0.155   2.529  1.7475  0.6552 -1.8368
13262TIP3    H239720   7.678   0.163   2.505  0.8958 -2.4302  1.8453
13263TIP3   OH239721   7.300   1.354   6.498  0.1298  0.1879 -0.2030
13263TIP3    H139722   7.241   1.358   6.573 -0.1282 -2.4955 -0.2332
13263TIP3    H239723   7.264   1.417   6.436 -0.2672  1.6412  1.4501
13264TIP3   OH239724   0.542   1.133   6.628  0.7736 -0.1941 -0.1682
13264TIP3    H139725   0.623   1.141   6.577  0.3657 -1.6294 -1.0717
13264TIP3    H239726   0.492   1.211   6.605  1.2354 -0.0779 -0.8093
13265TIP3   OH239727   7.963   0.453   4.488  0.3593  0.5444  0.0641
13265TIP3    H139728   7.973   0.544   4.460  1.0696 -0.1494 -2.0940
13265TIP3    H239729   8.046   0.411   4.462  0.8253 -0.3013  2.7773
13266TIP3   OH239730   8.227   1.984   6.777  0.1664 -0.1219 -0.2653
13266TIP3    H139731   8.174   1.909   6.750  0.7872 -0.7772  0.3101
13266TIP3    H239732   8.203   2.054   6.717 -0.3711 -0.8058 -0.8466
13267TIP3   OH239733   0.410   1.079   4.372 -0.6500 -0.2388  0.1709
13267TIP3    H139734   0.471   1.139   4.415 -0.3440 -0.2095 -0.2998
13267TIP3    H239735   0.466   1.016   4.327 -0.9592  0.3539 -1.0592
13268TIP3   OH239736   1.183   1.023   4.106  0.7409  0.6336 -0.6969
13268TIP3    H139737   1.152   0.934   4.120  1.1484  0.8027  1.4855
13268TIP3    H239738   1.124   1.059   4.040 -0.1201 -0.8870 -0.7771
13269TIP3   OH239739   0.741   1.008   4.113 -0.1346  0.2417  0.1012
13269TIP3    H139740   0.826   0.982   4.148 -0.5147 -1.1363  0.0017
13269TIP3    H239741   0.679   0.945   4.149 -0.7745 -0.1992 -1.7314
13270TIP3   OH239742   0.728   0.394   3.193  0.1080 -0.1580  0.1208
13270TIP3    H139743   0.821   0.404   3.173  0.0476 -1.0379 -0.6406
13270TIP3    H239744   0.719   0.303   3.223 -0.3454  0.2111  1.1437
13271TIP3   OH239745   0.099   0.935   4.879  0.5754 -0.2537  0.3792
13271TIP3    H139746   0.181   0.959   4.836 -0.8912  2.0821 -1.2171
13271TIP3    H239747   0.063   0.865   4.825  0.4545  0.2365 -0.1781
13272TIP3   OH239748   0.735   2.189   4.470 -0.1133  0.0248  0.0617
13272TIP3    H139749   0.732   2.249   4.545 -2.1715  1.4237 -1.0873
13272TIP3    H239750   0.705   2.241   4.396  0.0232 -1.8736 -1.3646
13273TIP3   OH239751   1.499   1.635   3.042 -0.1184 -0.1737  0.4811
13273TIP3    H139752   1.455   1.657   3.124  2.4368  1.1499  1.5485
13273TIP3    H239753   1.461   1.694   2.978  0.1290  1.0105  1.4079
13274TIP3   OH239754   1.000   1.439   2.804 -0.4616  0.6056  0.2378
13274TIP3    H139755   1.089   1.431   2.837 -0.1650 -1.2075 -0.9166
13274TIP3    H239756   0.983   1.533   2.804  0.9674  0.8924  1.6873
13275TIP3   OH239757   5.382   7.409   3.020  0.2012 -0.5251 -0.5484
13275TIP3    H139758   5.445   7.435   3.087 -0.9901  0.8706  0.0346
13275TIP3    H239759   5.424   7.434   2.937  0.8663 -0.5932 -0.2385
13276TIP3   OH239760   7.356   7.179   3.260 -0.2016  0.3274 -0.1267
13276TIP3    H139761   7.386   7.178   3.169  1.1621 -0.3595  0.3112
13276TIP3    H239762   7.314   7.264   3.270 -0.9432  0.1570 -1.5736
13277TIP3   OH239763   0.414   7.310   4.457 -0.1830 -0.3338 -0.1856
13277TIP3    H139764   0.425   7.252   4.533  0.1918 -1.1743 -0.8709
13277TIP3    H239765   0.321   7.303   4.435 -0.1811 -0.5095 -0.1379
13278TIP3   OH239766   7.667   7.443   4.285 -0.2869 -0.3909  0.0676
13278TIP3    H139767   7.622   7.417   4.205  3.1826 -0.8628 -1.8494
13278TIP3    H239768   7.660   7.367   4.343 -1.6416 -0.5638 -0.3226
13279TIP3   OH239769   1.811   0.030   3.696  0.2913  0.1059 -0.1540
13279TIP3    H139770   1.792   0.080   3.776 -1.0853 -0.7493  0.0748
13279TIP3    H239771   1.857   0.091   3.640 -1.1474  1.5792  0.2234
13280TIP3   OH239772   0.063   1.595   3.629 -0.6732  0.5325  0.3200
13280TIP3    H139773   0.143   1.594   3.682 -0.5426  0.6363  0.1225
13280TIP3    H239774   0.093   1.610   3.540 -1.0188  2.0481  0.4387
13281TIP3   OH239775   8.011   7.766   2.525  0.0301 -0.2159  0.0182
13281TIP3    H139776   7.929   7.753   2.477 -0.3535 -1.8929  1.0714
13281TIP3    H239777   8.036   7.678   2.554  1.5794  0.4339  0.7157
13282TIP3   OH239778   7.732   0.417   2.372 -0.2250  0.0276 -0.0757
13282TIP3    H139779   7.719   0.332   2.414  0.7280 -0.2514 -0.3405
13282TIP3    H239780   7.801   0.459   2.425 -0.9093  0.7686  0.2466
13283TIP3   OH239781   5.773   7.760   2.980  0.0537 -0.4759 -0.2775
13283TIP3    H139782   5.865   7.787   2.975 -0.4172  0.9689 -1.9394
13283TIP3    H239783   5.731   7.831   3.029 -0.0891 -1.3897  0.9257
13284TIP3   OH239784   0.564   1.071   3.331  0.0742 -0.0117 -0.4447
13284TIP3    H139785   0.473   1.074   3.361 -0.1821 -0.2945 -1.1723
13284TIP3    H239786   0.561   1.015   3.254  1.4826 -3.0430  1.6265
13285TIP3   OH239787   4.893   7.794   6.560 -0.6746 -0.4741  0.1262
13285TIP3    H139788   4.804   7.827   6.549 -0.6430 -0.6229 -0.6265
13285TIP3    H239789   4.925   7.836   6.639 -1.2386 -0.0236  0.1148
13286TIP3   OH239790   2.719   1.352   3.485  0.7176 -0.3009  0.3554
13286TIP3    H139791   2.643   1.407   3.501  0.4381 -0.0113 -1.7479
13286TIP3    H239792   2.689   1.263   3.504 -0.4425 -0.2901 -1.2791
13287TIP3   OH239793   5.498   7.185   4.733 -0.5631 -0.1494 -0.5291
13287TIP3    H139794   5.521   7.184   4.826 -1.2524 -1.7221 -0.3653
13287TIP3    H239795   5.435   7.257   4.725 -2.1934 -1.4081  0.6544
13288TIP3   OH239796   0.739   0.534   4.610 -0.1307  0.1925 -0.8970
13288TIP3    H139797   0.701   0.526   4.522 -1.1997 -0.2760 -0.4013
13288TIP3    H239798   0.833   0.543   4.595 -0.3410  0.4617 -2.1093
13289TIP3   OH239799   0.625   2.126   4.848  0.6386 -0.2245  0.4362
13289TIP3    H139800   0.567   2.070   4.798 -0.8267  1.2537  0.4326
13289TIP3    H239801   0.707   2.077   4.855  1.1777 -0.1539 -4.0867
13290TIP3   OH239802   0.825   0.504   5.466  0.3152 -0.1364 -0.0319
13290TIP3    H139803   0.898   0.565   5.473  0.1317 -0.0021  0.7035
13290TIP3    H239804   0.755   0.543   5.518 -0.6570  0.2884 -1.5986
13291TIP3   OH239805   7.425   7.013   2.809 -0.3332  0.0802 -0.2729
13291TIP3    H139806   7.465   7.092   2.846  0.8645  0.3874 -2.1579
13291TIP3    H239807   7.386   6.968   2.884  0.0056  1.8606  0.9930
13292TIP3   OH239808   6.978   6.624   3.961  0.8920  0.2946  0.4981
13292TIP3    H139809   7.017   6.711   3.969  0.0420  0.9683 -2.2003
13292TIP3    H239810   6.912   6.620   4.031  2.6234  0.8498  2.1988
13293TIP3   OH239811   7.831   7.062   3.498  0.3050  0.2072 -0.4471
13293TIP3    H139812   7.878   7.145   3.487 -0.6180  0.7569 -0.2045
13293TIP3    H239813   7.868   7.005   3.429  0.9400  0.8061 -0.6072
13294TIP3   OH239814   7.771   6.487   0.961  0.0907 -0.3103  0.1028
13294TIP3    H139815   7.698   6.484   1.024 -0.6304 -0.3871 -0.7268
13294TIP3    H239816   7.809   6.400   0.964 -0.6855 -0.6672 -0.4302
13295TIP3   OH239817   6.934   4.604   0.454  0.1728  0.0647 -0.6333
13295TIP3    H139818   6.844   4.616   0.483 -0.1438  0.0661 -1.5967
13295TIP3    H239819   6.968   4.534   0.509 -0.5375 -0.1970 -0.5262
13296TIP3   OH239820   4.665   2.528   6.703  0.0410  0.4995  0.1500
13296TIP3    H139821   4.637   2.597   6.643  0.2748  0.3104 -0.1812
13296TIP3    H239822   4.641   2.446   6.659  1.3177  0.3273 -0.2551
13297TIP3   OH239823  -0.001   6.611   1.006  0.2822  0.0145  0.3156
13297TIP3    H139824  -0.013   6.517   0.990 -0.2929 -0.1776  1.8319
13297TIP3    H239825   0.015   6.618   1.100 -1.8501  1.6273  0.5954
13298TIP3   OH239826   6.264   3.474   6.044 -0.1561 -0.5196 -0.0340
13298TIP3    H139827   6.216   3.535   6.100 -0.6511 -0.8705 -0.0793
13298TIP3    H239828   6.304   3.529   5.977 -0.6393 -0.2429 -0.0984
13299TIP3   OH239829   5.635   5.086   0.866 -0.0039 -0.0410 -0.4509
13299TIP3    H139830   5.626   5.181   0.867  2.1656  0.1881 -0.1924
13299TIP3    H239831   5.690   5.066   0.942 -0.5822 -1.5143 -0.4022
13300TIP3   OH239832   7.284   5.532   0.319 -0.0864  0.4330  0.0686
13300TIP3    H139833   7.366   5.576   0.295  0.6379 -0.3459  1.0484
13300TIP3    H239834   7.301   5.497   0.406 -0.8321 -1.2988 -0.4544
13301TIP3   OH239835   0.564   3.876   2.417 -0.3733 -0.0793  0.0835
13301TIP3    H139836   0.512   3.795   2.416  0.2426 -0.4649 -0.7185
13301TIP3    H239837   0.628   3.864   2.348 -0.8889  1.5076 -0.6789
13302TIP3   OH239838   6.384   2.131   0.296 -0.2132 -0.3618 -0.1176
13302TIP3    H139839   6.339   2.086   0.368  0.6432 -1.8656 -0.4854
13302TIP3    H239840   6.437   2.062   0.255 -0.1077  0.6499 -1.7125
13303TIP3   OH239841   7.594   4.683   1.274  0.1095  0.1904 -0.4309
13303TIP3    H139842   7.641   4.670   1.191  1.5549  0.2124  0.3700
13303TIP3    H239843   7.535   4.757   1.257  0.4955  0.2855 -1.3916
13304TIP3   OH239844   2.455   1.140   1.802 -0.0298  0.7886  0.0089
13304TIP3    H139845   2.534   1.140   1.856  0.5700  3.3295 -0.7702
13304TIP3    H239846   2.487   1.119   1.714 -0.5251 -0.2457  0.0807
13305TIP3   OH239847  -0.016   5.558   1.691  0.0732  0.3718 -0.3418
13305TIP3    H139848   0.038   5.519   1.760 -3.4944  0.4070  2.6044
13305TIP3    H239849   0.004   5.652   1.696  1.6594  0.0986 -1.0898
13306TIP3   OH239850   0.323   6.695   0.263 -0.4419  0.1958 -0.5993
13306TIP3    H139851   0.386   6.624   0.251 -2.7712 -2.5970  2.5284
13306TIP3    H239852   0.292   6.716   0.175  2.7148 -0.2936 -1.8966
13307TIP3   OH239853   8.420   3.638   0.852 -0.1131  0.0425  0.3700
13307TIP3    H139854   8.490   3.681   0.901 -0.8695 -0.3502  1.8167
13307TIP3    H239855   8.399   3.700   0.782  0.6925  0.7990  0.7849
13308TIP3   OH239856   5.123   0.984   6.210  0.6566 -0.0345 -0.5584
13308TIP3    H139857   5.207   0.947   6.235  0.7946  0.4657 -0.2846
13308TIP3    H239858   5.070   0.909   6.185  0.9468 -0.4134 -0.0267
13309TIP3   OH239859   7.721   7.046   2.171  0.2536  0.0527 -0.5107
13309TIP3    H139860   7.784   7.094   2.224 -0.8771  0.1136  0.7952
13309TIP3    H239861   7.691   7.109   2.105  0.0393  0.6367  0.1441
13310TIP3   OH239862   0.484   6.160   2.413  0.6116 -0.1723 -0.0718
13310TIP3    H139863   0.497   6.144   2.319  1.0043  1.3583 -0.2835
13310TIP3    H239864   0.466   6.073   2.449  0.4791 -0.7809 -1.5590
13311TIP3   OH239865   1.312   5.646   1.715  0.6218  0.6724 -0.9210
13311TIP3    H139866   1.349   5.725   1.676  1.2543  0.2107 -1.2530
13311TIP3    H239867   1.375   5.577   1.696 -0.5880 -0.2018 -1.8128
13312TIP3   OH239868   7.193   2.111   6.762  0.1070 -0.4248  0.4760
13312TIP3    H139869   7.142   2.170   6.818  0.5840 -1.2765  1.8460
13312TIP3    H239870   7.129   2.046   6.731 -0.3584  0.6396 -0.7940
13313TIP3   OH239871   7.271   3.646   2.738 -0.3968 -0.1744 -0.0277
13313TIP3    H139872   7.237   3.575   2.792  0.5882 -0.3554  0.3691
13313TIP3    H239873   7.317   3.703   2.800  2.3738 -1.3751 -0.9208
13314TIP3   OH239874   7.159   4.985   0.462 -0.3529 -0.4491 -0.0329
13314TIP3    H139875   7.083   4.956   0.512 -0.2216  0.2836  0.5990
13314TIP3    H239876   7.214   5.031   0.526  0.5155 -0.7846 -0.5302
13315TIP3   OH239877   8.119   7.978   0.745 -0.6134 -0.2509  0.1827
13315TIP3    H139878   8.064   7.906   0.712  0.6645 -2.1027  1.9775
13315TIP3    H239879   8.205   7.938   0.758  0.2009  1.6985  0.9145
13316TIP3   OH239880   7.711   4.998   1.446  0.0447  0.5164 -0.5419
13316TIP3    H139881   7.786   5.056   1.459 -0.6676  1.1869  0.7065
13316TIP3    H239882   7.666   5.032   1.369 -1.3247  2.6867  1.1749
13317TIP3   OH239883   7.259   7.052   1.084  0.0721 -0.1079 -0.3396
13317TIP3    H139884   7.238   6.968   1.124 -0.3670  0.2240  0.1356
13317TIP3    H239885   7.355   7.059   1.092  0.1639 -0.7821 -0.8263
13318TIP3   OH239886   1.167   6.096   0.505 -0.2834  0.0902  0.2265
13318TIP3    H139887   1.116   6.039   0.447  1.6633  0.4105 -1.8651
13318TIP3    H239888   1.149   6.184   0.473  0.0216  0.3523  0.7724
13319TIP3   OH239889   8.148   6.868   1.042  0.0735  0.0894  0.1304
13319TIP3    H139890   8.107   6.923   1.109  0.6116  1.6327 -0.7534
13319TIP3    H239891   8.092   6.791   1.037 -0.6385  0.4973  1.5201
13320TIP3   OH239892   6.749   6.839   0.714  0.6341 -0.4971 -0.4020
13320TIP3    H139893   6.693   6.835   0.637  1.1540 -0.8638 -0.7617
13320TIP3    H239894   6.713   6.911   0.766  0.0860 -0.4599 -0.8282
13321TIP3   OH239895   5.601   0.816   6.197  0.2102 -0.8573  0.2724
13321TIP3    H139896   5.653   0.875   6.253 -0.1400 -1.1298  0.8868
13321TIP3    H239897   5.520   0.802   6.246 -0.4074 -0.5134 -0.6410
13322TIP3   OH239898   1.553   7.592   1.946 -0.0190  0.2643 -0.1276
13322TIP3    H139899   1.635   7.608   1.899  0.1775 -0.7962 -0.1482
13322TIP3    H239900   1.580   7.584   2.038 -0.3789  2.1399  0.1697
13323TIP3   OH239901   8.142   5.186   0.528 -0.6154 -0.5512 -0.2103
13323TIP3    H139902   8.210   5.131   0.491 -1.3262 -1.1046 -0.6901
13323TIP3    H239903   8.153   5.176   0.623 -0.6646 -1.4081 -0.2957
13324TIP3   OH239904   0.052   5.958   0.410  0.0392  0.0103  0.3631
13324TIP3    H139905   0.018   6.046   0.425  1.5971  0.4387  1.5754
13324TIP3    H239906  -0.002   5.902   0.465 -1.2335  0.1349 -0.7359
13325TIP3   OH239907   5.891   2.121   5.924 -0.0250  0.6114 -0.0834
13325TIP3    H139908   5.801   2.148   5.902 -0.2657  1.6206  2.0602
13325TIP3    H239909   5.883   2.028   5.946 -0.0745  0.0282 -2.4364
13326TIP3   OH239910   0.498   5.776   1.714  0.4955 -0.5855  0.2296
13326TIP3    H139911   0.518   5.841   1.647  0.1740 -0.6538  0.0694
13326TIP3    H239912   0.582   5.762   1.759  0.2339  1.0705  1.2695
13327TIP3   OH239913   3.976   1.748   6.039 -0.6031 -0.1754  0.0224
13327TIP3    H139914   3.916   1.673   6.050 -0.4800 -0.3336 -0.3852
13327TIP3    H239915   3.936   1.801   5.970 -0.1106 -0.4444 -0.4728
13328TIP3   OH239916   1.180   6.289   1.671  0.0592 -0.0151 -0.1187
13328TIP3    H139917   1.090   6.259   1.683 -0.7827  1.8447 -1.6639
13328TIP3    H239918   1.209   6.313   1.760 -0.4883 -1.8604  0.5777
13329TIP3   OH239919   0.548   3.778   0.736  0.3600 -0.4420  0.1600
13329TIP3    H139920   0.497   3.719   0.791  0.2921 -0.9530 -0.4512
13329TIP3    H239921   0.561   3.856   0.790 -0.0400 -0.7879  0.7542
13330TIP3   OH239922   6.585   0.101   5.382  0.4430  0.2967  0.1093
13330TIP3    H139923   6.680   0.113   5.389  0.3809  0.8284  0.0969
13330TIP3    H239924   6.553   0.185   5.349 -0.2031  0.6503  1.5893
13331TIP3   OH239925   0.922   3.390   2.494 -0.6995 -0.2229 -0.1604
13331TIP3    H139926   0.917   3.365   2.401 -1.7755  1.7878 -0.6763
13331TIP3    H239927   0.844   3.351   2.533 -1.4736  0.8837 -0.5974
13332TIP3   OH239928   2.344   7.731   1.174  0.1340 -0.8498 -0.1206
13332TIP3    H139929   2.406   7.721   1.246 -0.5949 -0.6867  0.5407
13332TIP3    H239930   2.282   7.658   1.185  0.5808 -1.3896 -1.1528
13333TIP3   OH239931   1.368   0.483   3.722  0.1595  0.0194  0.4861
13333TIP3    H139932   1.378   0.394   3.689  3.3570 -0.0543  1.4916
13333TIP3    H239933   1.420   0.537   3.662 -0.0502  0.9127  1.1007
13334TIP3   OH239934   8.026   4.368   1.054 -0.3746  0.3428 -0.2253
13334TIP3    H139935   8.072   4.436   1.005  1.5489 -0.5407  0.2881
13334TIP3    H239936   7.983   4.315   0.986 -0.2959  0.9551 -0.7552
13335TIP3   OH239937   0.327   7.940   2.187  0.9427  0.2602 -0.3922
13335TIP3    H139938   0.367   7.861   2.222  1.9066  1.6139  1.6805
13335TIP3    H239939   0.306   7.919   2.097 -0.1549 -2.8514  0.5342
13336TIP3   OH239940   8.421   4.603   1.858 -0.2753 -0.0569  0.0688
13336TIP3    H139941   8.335   4.631   1.828  0.4040  2.4029  0.2543
13336TIP3    H239942   8.467   4.685   1.878  1.3310 -1.3946  2.1360
13337TIP3   OH239943   0.123   4.050   1.507  0.3166  0.2984  0.0614
13337TIP3    H139944   0.076   4.000   1.440 -0.5685  0.2468  0.7072
13337TIP3    H239945   0.083   4.023   1.590 -0.0538  1.9230  0.4325
13338TIP3   OH239946   1.301   7.698   1.275  0.9006 -0.0395  0.2964
13338TIP3    H139947   1.325   7.667   1.188 -0.1315  0.4923 -0.1822
13338TIP3    H239948   1.379   7.743   1.307  0.4237  2.0665 -1.4225
13339TIP3   OH239949   7.866   2.603   6.440 -0.3935 -0.2390  0.0331
13339TIP3    H139950   7.805   2.663   6.397 -0.2206  0.4237  0.7086
13339TIP3    H239951   7.838   2.516   6.411 -0.3727  0.1845 -1.3022
13340TIP3   OH239952   8.022   1.233   6.477  0.0981 -0.6178 -0.0536
13340TIP3    H139953   8.014   1.327   6.493 -0.6912 -0.8123  0.7593
13340TIP3    H239954   7.983   1.219   6.391  0.8446 -0.1041 -0.4765
13341TIP3   OH239955   7.850   6.860   2.516  0.0190 -0.2595  0.5361
13341TIP3    H139956   7.894   6.921   2.456  0.5371 -0.2800  0.8987
13341TIP3    H239957   7.761   6.853   2.481 -0.4613  1.7970  1.2812
13342TIP3   OH239958   7.860   5.715   0.862  0.0283  0.5522  0.2647
13342TIP3    H139959   7.942   5.731   0.817 -0.9336 -0.1969 -1.8296
13342TIP3    H239960   7.853   5.620   0.867 -0.6659  0.6129  0.5495
13343TIP3   OH239961   0.311   5.127   1.138  0.3342 -0.2972  0.4003
13343TIP3    H139962   0.291   5.151   1.228  0.2966  1.1663  0.0200
13343TIP3    H239963   0.406   5.134   1.131  0.1880  1.5462 -0.1772
13344TIP3   OH239964   7.766   3.461   1.266  0.5194 -0.3548 -0.3505
13344TIP3    H139965   7.675   3.469   1.294  0.8190 -0.8893  0.7830
13344TIP3    H239966   7.813   3.524   1.320  1.2421 -2.0520  1.0394
13345TIP3   OH239967   7.989   7.749   0.653  0.0347 -0.2376  0.1803
13345TIP3    H139968   8.004   7.707   0.738  0.6741 -0.0592  0.1551
13345TIP3    H239969   8.018   7.684   0.589  1.6098  0.4590  0.1535
13346TIP3   OH239970   4.262   1.467   6.834 -0.1395  0.8262  0.3848
13346TIP3    H139971   4.319   1.529   6.789  0.4810 -0.5727 -0.8069
13346TIP3    H239972   4.267   1.492   6.926  2.0974  0.9604  0.2466
13347TIP3   OH239973   0.762   3.836   2.242  0.3171 -0.4087 -0.3820
13347TIP3    H139974   0.834   3.799   2.293  0.6797  0.5748 -0.1537
13347TIP3    H239975   0.757   3.781   2.164  0.0603 -1.6343  0.5036
13348TIP3   OH239976   7.958   5.050   1.787 -0.1150  0.0694  1.0753
13348TIP3    H139977   7.941   4.975   1.844 -2.2054 -0.7234 -0.5013
13348TIP3    H239978   7.881   5.106   1.799 -1.2766 -0.7905 -1.9558
13349TIP3   OH239979   7.446   3.896   0.186  0.7523  0.0445  0.4475
13349TIP3    H139980   7.466   3.977   0.138 -1.3546 -0.1784 -0.8642
13349TIP3    H239981   7.475   3.826   0.128 -2.5190 -0.2505 -0.9643
13350TIP3   OH239982   7.260   4.147   2.282  0.0757  0.4591  0.0633
13350TIP3    H139983   7.230   4.209   2.350  0.3505  0.2379  0.3878
13350TIP3    H239984   7.217   4.178   2.202 -2.5759 -0.9786  0.8447
13351TIP3   OH239985   0.837   5.411   0.296 -0.4818 -0.3632  0.0935
13351TIP3    H139986   0.904   5.398   0.229 -0.5521 -0.2000 -0.0076
13351TIP3    H239987   0.844   5.503   0.320  0.5674 -0.7679  1.3970
13352TIP3   OH239988   7.552   2.397   5.961 -0.3091 -0.5241  0.2832
13352TIP3    H139989   7.472   2.444   5.987 -0.8009 -0.1266 -1.8557
13352TIP3    H239990   7.530   2.305   5.971 -1.7287 -0.4849 -2.1459
13353TIP3   OH239991   5.479   1.814   6.684  0.0574 -0.0482 -0.1644
13353TIP3    H139992   5.545   1.835   6.618  0.0834  1.6894  0.3805
13353TIP3    H239993   5.520   1.840   6.767 -1.3167  1.1404  0.1712
13354TIP3   OH239994   2.712   4.475   2.515  0.1049 -0.3946  0.2464
13354TIP3    H139995   2.720   4.453   2.607 -1.1901  0.5436  0.6007
13354TIP3    H239996   2.700   4.570   2.514 -0.4734 -0.4691 -0.8386
13355TIP3   OH239997   1.998   4.327   2.034 -0.1751  0.1545 -0.2653
13355TIP3    H139998   2.015   4.375   1.953 -0.9891  0.7033 -0.1148
13355TIP3    H239999   1.937   4.382   2.082 -2.1600 -1.6195 -0.6775
13356TIP3   OH240000   6.852   1.344   6.531  0.7376  0.3644 -0.3176
13356TIP3    H140001   6.908   1.269   6.551  1.6306  0.5658 -1.9957
13356TIP3    H240002   6.905   1.399   6.473 -0.7472  1.1538 -0.9559
13357TIP3   OH240003   7.978   6.614   3.158  0.1269  0.3691  0.0471
13357TIP3    H140004   7.898   6.580   3.198  0.0580  0.5264  0.0409
13357TIP3    H240005   8.048   6.579   3.213  0.0906 -0.2735 -0.3054
13358TIP3   OH240006   0.837   4.021   3.744  0.6589 -0.2078 -0.0386
13358TIP3    H140007   0.869   4.049   3.658  1.1514 -0.5992  0.0093
13358TIP3    H240008   0.788   4.096   3.777 -3.8314 -1.7942 -2.7653
13359TIP3   OH240009   7.016   6.214   1.703 -0.3308 -0.0273  0.4615
13359TIP3    H140010   7.080   6.187   1.769  2.1731  4.6378  0.1325
13359TIP3    H240011   6.937   6.233   1.754  0.2453 -0.5515  1.5805
13360TIP3   OH240012   5.696   5.496   1.443  0.2505 -0.2451 -0.3938
13360TIP3    H140013   5.766   5.557   1.465  1.1638 -1.5639  0.4202
13360TIP3    H240014   5.705   5.425   1.507 -1.8024 -0.4569 -0.3042
13361TIP3   OH240015   0.964   6.484   0.083  0.6761  0.4062  0.4994
13361TIP3    H140016   0.891   6.521   0.032 -0.0291 -0.2606  1.0198
13361TIP3    H240017   0.983   6.401   0.040  0.8358  0.3733  0.6344
13362TIP3   OH240018   4.484   0.717   5.795 -0.1471  0.1763 -0.3223
13362TIP3    H140019   4.496   0.639   5.742  1.8502 -0.5350  1.1089
13362TIP3    H240020   4.458   0.684   5.881  0.1787  1.1076  0.1485
13363TIP3   OH240021   5.666   1.832   6.503 -0.3554  0.0832  0.2721
13363TIP3    H140022   5.679   1.759   6.443 -0.6928  0.7839 -0.6738
13363TIP3    H240023   5.666   1.910   6.446 -0.9852  0.7299  1.1416
13364TIP3   OH240024   1.582   6.989   0.370  0.0293  0.0588 -0.1368
13364TIP3    H140025   1.522   6.916   0.379 -0.9692  0.9082  0.2289
13364TIP3    H240026   1.586   7.028   0.457  0.5530  0.4357 -0.3257
13365TIP3   OH240027   7.846   6.222   0.040 -0.3088 -0.1724  0.0909
13365TIP3    H140028   7.779   6.213  -0.028  0.1074  0.1215 -0.3613
13365TIP3    H240029   7.816   6.166   0.111 -1.0353 -0.0434 -0.1131
13366TIP3   OH240030   4.252   3.890   6.801 -0.2102 -0.6972  0.0318
13366TIP3    H140031   4.176   3.932   6.842 -0.0994  1.2611 -1.7082
13366TIP3    H240032   4.325   3.909   6.860  0.0123  2.3943 -1.1715
13367TIP3   OH240033   1.185   7.376   3.878 -0.3460  0.1628 -0.2137
13367TIP3    H140034   1.198   7.447   3.815  2.3134 -0.8242 -0.8672
13367TIP3    H240035   1.233   7.302   3.841 -0.2852 -0.9973  2.0636
13368TIP3   OH240036   7.753   6.738   0.891 -0.5084  0.1019  0.6483
13368TIP3    H140037   7.671   6.761   0.848 -1.1553  0.3663  2.0106
13368TIP3    H240038   7.750   6.643   0.900  1.3202 -0.4376 -3.2584
13369TIP3   OH240039   0.378   6.933   0.870  0.3333 -0.2871  0.1288
13369TIP3    H140040   0.438   6.982   0.814  1.0837 -0.1713  1.0145
13369TIP3    H240041   0.306   6.995   0.888  1.0941  0.3858  0.9385
13370TIP3   OH240042   0.950   6.675   0.902 -0.4315 -0.0531  0.1182
13370TIP3    H140043   1.009   6.701   0.973 -0.6085  0.4547  0.0810
13370TIP3    H240044   0.865   6.711   0.927 -0.2194  1.2877 -0.9936
13371TIP3   OH240045   1.658   7.789   6.269  0.1290 -0.5569 -0.0716
13371TIP3    H140046   1.687   7.698   6.273  4.0014  0.5884 -0.6454
13371TIP3    H240047   1.678   7.817   6.180  1.3162  1.5803  0.8393
13372TIP3   OH240048   1.431   7.987   0.142  0.1798  0.4648 -0.4005
13372TIP3    H140049   1.406   7.900   0.111 -0.7059  0.1363  1.1675
13372TIP3    H240050   1.413   7.985   0.236  1.1613  1.9928 -0.1574
13373TIP3   OH240051   4.730   1.804   0.809  0.1434 -0.5131 -0.1000
13373TIP3    H140052   4.766   1.891   0.790  0.3309 -0.6915 -0.5774
13373TIP3    H240053   4.700   1.772   0.724 -0.3262 -0.7357  0.1498
13374TIP3   OH240054   2.726   4.649   1.598  0.1523  0.4161 -0.4135
13374TIP3    H140055   2.787   4.719   1.573 -0.0558  0.2543 -1.4259
13374TIP3    H240056   2.640   4.685   1.579  0.0171  0.0951 -0.4081
13375TIP3   OH240057   6.603   4.156   6.442 -0.2082 -0.0662 -0.0327
13375TIP3    H140058   6.680   4.116   6.482 -0.3209 -0.8638 -0.6102
13375TIP3    H240059   6.596   4.116   6.356 -0.4690  1.0244 -0.5375
13376TIP3   OH240060   1.751   3.972   2.289  0.4989 -0.4519  0.7708
13376TIP3    H140061   1.664   3.945   2.259  1.1375 -3.4527  1.4347
13376TIP3    H240062   1.796   4.000   2.210 -0.4552 -0.6720  0.1291
13377TIP3   OH240063   2.562   6.045   0.487  0.1489 -0.4829  0.1334
13377TIP3    H140064   2.537   5.960   0.451 -1.2386  0.7017 -1.8280
13377TIP3    H240065   2.484   6.074   0.536  0.9453 -0.7226  1.5823
13378TIP3   OH240066   3.344   7.361   0.438 -0.8699  0.7841  0.0657
13378TIP3    H140067   3.282   7.430   0.460  0.3181  2.2091 -0.9903
13378TIP3    H240068   3.312   7.325   0.356 -0.6100  1.1492 -0.1968
13379TIP3   OH240069   3.755   5.917   0.096 -0.3213 -0.0896 -0.5095
13379TIP3    H140070   3.752   5.879   0.183 -0.1147 -1.7401 -1.2077
13379TIP3    H240071   3.846   5.906   0.068 -1.0186 -2.2386 -2.0642
13380TIP3   OH240072   1.534   6.341   0.634 -0.2136  0.0238  0.5654
13380TIP3    H140073   1.596   6.343   0.707  0.1927  0.4843  0.2084
13380TIP3    H240074   1.489   6.257   0.643  1.3540 -0.8995  0.0964
13381TIP3   OH240075   4.290   6.890   0.508  0.5119  0.0742  0.3264
13381TIP3    H140076   4.280   6.889   0.413 -1.1675  0.8198  0.4769
13381TIP3    H240077   4.279   6.799   0.535  0.9396 -0.1300 -0.1780
13382TIP3   OH240078   7.279   2.069   6.016 -0.7597  0.0832 -0.1294
13382TIP3    H140079   7.220   2.068   6.092  0.9404  0.5496  1.2507
13382TIP3    H240080   7.224   2.095   5.943 -2.3965 -0.1183  1.0019
13383TIP3   OH240081   2.900   5.265   1.187 -0.0530  0.4274  0.3564
13383TIP3    H140082   2.915   5.304   1.101  0.2696 -0.8932 -0.1925
13383TIP3    H240083   2.826   5.314   1.223  0.1334  1.3210 -0.4637
13384TIP3   OH240084   0.864   6.209   0.649  0.2726  0.0463 -0.2139
13384TIP3    H140085   0.802   6.136   0.651 -0.4864  0.7009  0.7038
13384TIP3    H240086   0.809   6.286   0.632  0.7507  0.6939  1.0853
13385TIP3   OH240087   4.643   7.574   6.923 -0.2352 -0.2031  0.3365
13385TIP3    H140088   4.698   7.652   6.916 -1.6835  0.9177  1.2878
13385TIP3    H240089   4.687   7.509   6.868  1.6755  0.8734  0.5590
13386TIP3   OH240090   0.067   4.482   5.958 -0.0192  0.4694  0.4336
13386TIP3    H140091   0.023   4.562   5.929  2.5279  2.1602  1.0741
13386TIP3    H240092   0.047   4.475   6.051 -0.9691 -0.1272  0.1851
13387TIP3   OH240093   1.683   4.945   6.667 -0.1946  0.7031  0.3295
13387TIP3    H140094   1.685   4.989   6.752 -2.4359 -1.0800  1.3891
13387TIP3    H240095   1.590   4.943   6.644 -0.0180 -2.1927 -0.3168
13388TIP3   OH240096   8.293   1.610   5.743 -0.1778  0.3197  0.7538
13388TIP3    H140097   8.268   1.551   5.673 -0.5669  0.2527  0.9502
13388TIP3    H240098   8.219   1.669   5.754  0.5084  1.3193  0.0627
13389TIP3   OH240099   2.025   2.497   6.084 -0.2294  0.5751 -0.0361
13389TIP3    H140100   2.060   2.503   6.173 -2.7018  1.0030  0.9704
13389TIP3    H240101   2.015   2.403   6.068  0.0412  0.5033  0.2195
13390TIP3   OH240102   1.357   6.981   2.015 -0.9268 -1.0867 -0.0580
13390TIP3    H140103   1.263   6.966   2.016 -1.2758  0.3101 -3.9718
13390TIP3    H240104   1.387   6.942   1.932  1.3627  1.4167 -0.4834
13391TIP3   OH240105   1.926   6.744   0.922  0.4420  0.1625  0.4260
13391TIP3    H140106   1.962   6.697   0.998  1.5242 -0.8709 -0.7078
13391TIP3    H240107   1.925   6.679   0.852  0.2195  1.3431 -0.6781
13392TIP3   OH240108   5.344   2.383   6.447 -0.6707 -0.0188 -0.2987
13392TIP3    H140109   5.370   2.309   6.392 -2.1753 -0.1969 -0.7707
13392TIP3    H240110   5.306   2.446   6.387 -1.3049  0.2546  0.3770
13393TIP3   OH240111   7.459   7.416   1.656 -0.6069 -0.0123 -0.2969
13393TIP3    H140112   7.472   7.325   1.683  0.4174  0.3718  0.5167
13393TIP3    H240113   7.542   7.459   1.676 -1.3982  1.3070  0.1547
13394TIP3   OH240114   7.252   3.623   5.618 -0.1186  0.1035  0.7410
13394TIP3    H140115   7.324   3.673   5.657 -0.2252 -0.1048  1.2119
13394TIP3    H240116   7.293   3.542   5.587  0.0451  0.4569  0.0281
13395TIP3   OH240117   6.135   2.157   5.816 -0.3903  0.5102  0.3308
13395TIP3    H140118   6.118   2.238   5.769 -2.1064 -0.8421 -1.4822
13395TIP3    H240119   6.056   2.142   5.868 -0.2682 -0.2141  0.3180
13396TIP3   OH240120   2.271   5.685   0.564  0.5384  0.3234 -0.1761
13396TIP3    H140121   2.184   5.720   0.548  0.0368  0.6119  2.9379
13396TIP3    H240122   2.266   5.594   0.535 -1.1523  0.0074  1.0798
13397TIP3   OH240123   6.825   6.829   1.892 -0.1036 -0.2139  0.0662
13397TIP3    H140124   6.779   6.756   1.850 -1.3533  0.7005 -0.1791
13397TIP3    H240125   6.918   6.811   1.877 -0.3975 -1.7889  0.0695
13398TIP3   OH240126   1.229   0.475   4.090  0.4185  0.0291  0.1189
13398TIP3    H140127   1.186   0.392   4.110  1.0930 -0.5408 -0.7762
13398TIP3    H240128   1.318   0.451   4.064  0.0693  0.8558 -1.9647
13399TIP3   OH240129   6.127   6.132   3.168 -0.1147  0.6848 -0.6070
13399TIP3    H140130   6.084   6.137   3.254  0.3232 -0.2302 -0.3268
13399TIP3    H240131   6.169   6.217   3.157 -0.3032  0.8618  0.0260
13400TIP3   OH240132   7.763   7.757   2.405  0.1326 -0.0173  0.1564
13400TIP3    H140133   7.727   7.675   2.370 -1.4239  0.2907  0.9962
13400TIP3    H240134   7.807   7.797   2.330 -1.5411 -0.2700 -1.0014
13401TIP3   OH240135   6.956   6.807   1.041 -0.4609  0.3657  0.4196
13401TIP3    H140136   6.950   6.716   1.012 -1.3838 -0.3273  2.6203
13401TIP3    H240137   7.047   6.817   1.068 -0.6848 -0.3517  1.4869
13402TIP3   OH240138   6.241   7.658   2.707  0.1893  0.7971 -0.3647
13402TIP3    H140139   6.272   7.579   2.664  0.4622  1.4170 -1.3274
13402TIP3    H240140   6.302   7.672   2.779  0.4780  0.4579 -0.5452
13403TIP3   OH240141   1.949   0.246   1.811 -0.3209 -0.9163  0.5158
13403TIP3    H140142   1.965   0.185   1.739 -1.6736  0.5769 -1.1063
13403TIP3    H240143   2.016   0.313   1.801 -0.9533 -0.3206  0.1727
13404TIP3   OH240144   0.422   0.295   0.303 -0.4105 -0.0743  0.5602
13404TIP3    H140145   0.449   0.224   0.245 -0.2456 -0.5420  1.2150
13404TIP3    H240146   0.499   0.313   0.357 -0.6120  0.2708  0.7362
13405TIP3   OH240147   2.519   1.231   1.041  0.2604 -0.0684  0.0959
13405TIP3    H140148   2.501   1.150   1.089  1.2848 -1.4435 -1.7349
13405TIP3    H240149   2.613   1.244   1.052  0.0950  0.8878  0.3862
13406TIP3   OH240150   8.474   1.773   3.210  0.2765 -0.4049 -0.0725
13406TIP3    H140151   8.504   1.814   3.291 -1.6536  1.6368 -0.3200
13406TIP3    H240152   8.380   1.759   3.224 -0.2604  0.8259 -2.2726
13407TIP3   OH240153   7.587   6.579   1.611 -0.2153 -0.0189  0.4400
13407TIP3    H140154   7.636   6.530   1.545 -2.1984  0.8085 -1.6955
13407TIP3    H240155   7.612   6.671   1.596 -1.1786  0.2362  0.4073
13408TIP3   OH240156   5.011   1.853   5.719 -0.6413 -0.2488  0.1137
13408TIP3    H140157   5.045   1.882   5.635 -0.2996  1.1879  0.7293
13408TIP3    H240158   4.934   1.800   5.697 -0.5012  0.0427 -1.0933
13409TIP3   OH240159   1.192   0.451   2.090  0.5901 -0.0287 -0.0409
13409TIP3    H140160   1.276   0.495   2.080  0.7310 -0.5285 -1.1310
13409TIP3    H240161   1.148   0.499   2.160  1.0095  1.4461 -0.7591
13410TIP3   OH240162   7.251   4.699   1.061 -0.1766  0.2518  0.3904
13410TIP3    H140163   7.201   4.780   1.054 -1.3322 -0.3367  1.6375
13410TIP3    H240164   7.186   4.633   1.088  0.7023 -1.1237 -0.7972
13411TIP3   OH240165   1.269   2.959   1.341  0.3972 -0.6243  0.0405
13411TIP3    H140166   1.303   3.047   1.358 -3.7719  1.0807  0.3375
13411TIP3    H240167   1.318   2.903   1.401  0.9157  2.0318  2.2423
13412TIP3   OH240168   0.327   0.606   4.807  0.4097  0.4650  0.0821
13412TIP3    H140169   0.237   0.612   4.839  0.3533 -0.0645  0.0271
13412TIP3    H240170   0.366   0.535   4.858  0.7992  0.6999  0.1126
13413TIP3   OH240171   6.817   7.064   0.960 -0.5715  0.4083 -0.0690
13413TIP3    H140172   6.867   7.110   1.027 -0.8297  1.4390 -0.5682
13413TIP3    H240173   6.846   6.973   0.966  0.8457  0.8571  0.1186
13414TIP3   OH240174   3.129   1.204   0.272  0.0182 -0.0272 -0.0917
13414TIP3    H140175   3.103   1.274   0.333  0.7360 -0.4785  0.7448
13414TIP3    H240176   3.060   1.138   0.283  0.2077 -0.1588  0.3212
13415TIP3   OH240177   7.611   6.331   1.138 -0.0015  0.0837  0.8525
13415TIP3    H140178   7.516   6.336   1.124  0.0034 -0.4151  0.6364
13415TIP3    H240179   7.635   6.243   1.107  0.2942 -0.3468  2.2621
13416TIP3   OH240180   7.348   6.524   1.516 -0.4904 -0.0068  0.0493
13416TIP3    H140181   7.418   6.518   1.581 -0.7655 -0.2456  0.3217
13416TIP3    H240182   7.394   6.533   1.432 -0.1316  1.4066  0.3758
13417TIP3   OH240183   2.655   1.749   3.084  0.0851  0.1929 -0.3376
13417TIP3    H140184   2.735   1.716   3.125 -1.1602 -1.3750  0.8640
13417TIP3    H240185   2.604   1.786   3.156 -0.8269  0.0866 -0.9190
13418TIP3   OH240186   5.007   2.730   6.620 -0.1035 -0.3179 -0.2947
13418TIP3    H140187   5.041   2.816   6.593 -2.6715  0.7397 -0.2549
13418TIP3    H240188   4.930   2.750   6.672  0.9968 -2.5861  2.3117
13419TIP3   OH240189   5.969   5.850   2.596  0.0681  0.5010 -0.1311
13419TIP3    H140190   5.886   5.806   2.611  0.7476 -1.5438 -2.0356
13419TIP3    H240191   6.030   5.807   2.656  0.2923  0.2263 -0.5504
13420TIP3   OH240192   6.751   4.967   1.543  0.8767 -0.0731 -0.0618
13420TIP3    H140193   6.836   5.009   1.526  1.0363 -0.3890 -0.0487
13420TIP3    H240194   6.774   4.880   1.575  0.5492  0.0360  0.4593
13421TIP3   OH240195   7.546   6.651   1.071 -0.8310  0.4924 -0.0145
13421TIP3    H140196   7.562   6.733   1.025  1.8457  0.2344  0.3726
13421TIP3    H240197   7.525   6.588   1.002  0.4151  0.7489 -0.6448
13422TIP3   OH240198   6.915   7.764   2.222  0.0756  0.2324 -0.2864
13422TIP3    H140199   6.940   7.797   2.136  1.2075  0.1523  0.0064
13422TIP3    H240200   6.835   7.812   2.243  0.5268  1.2427 -0.7959
13423TIP3   OH240201   4.405   3.618   5.527 -0.2233 -0.0819  0.0270
13423TIP3    H140202   4.400   3.582   5.438  0.8971  0.0602 -0.1063
13423TIP3    H240203   4.425   3.543   5.582 -0.7910 -0.1487  0.1419
13424TIP3   OH240204   4.860   1.163   6.758  0.4484 -0.2221 -0.1090
13424TIP3    H140205   4.884   1.096   6.695 -1.6805 -1.1221  0.0008
13424TIP3    H240206   4.788   1.211   6.717 -1.7588 -1.5539  1.9974
13425TIP3   OH240207   6.781   7.922   1.197 -0.2913 -0.4434 -0.3812
13425TIP3    H140208   6.723   7.924   1.121 -0.3120  0.8213 -0.3442
13425TIP3    H240209   6.833   8.002   1.189  0.3870 -0.8010  0.4082
13426TIP3   OH240210   3.858   7.740   5.036 -0.0982 -0.0017 -0.9395
13426TIP3    H140211   3.853   7.669   4.972  0.8772 -1.2734  0.3398
13426TIP3    H240212   3.940   7.723   5.083 -1.2956  0.2800  1.3181
13427TIP3   OH240213   8.394   0.164   0.330  0.0983  0.5463  0.6977
13427TIP3    H140214   8.397   0.068   0.320 -0.8839  0.5185  0.6312
13427TIP3    H240215   8.484   0.192   0.317  0.4710 -0.4209  1.1679
13428TIP3   OH240216   2.432   0.384   1.980 -0.0254 -0.0985 -0.2487
13428TIP3    H140217   2.499   0.438   2.022 -2.2135 -0.0231  3.3322
13428TIP3    H240218   2.447   0.296   2.016 -1.7276 -0.1006  0.5005
13429TIP3   OH240219   8.096   5.945   0.801 -0.1631 -0.5359 -0.2826
13429TIP3    H140220   8.127   5.856   0.787 -1.1166 -1.3082  2.2238
13429TIP3    H240221   8.166   5.988   0.849  0.0814 -0.0883 -1.0393
13430TIP3   OH240222   5.194   1.232   6.358  0.0357 -0.3778 -0.1128
13430TIP3    H140223   5.100   1.227   6.373  0.1913 -2.5237  0.3224
13430TIP3    H240224   5.210   1.178   6.281  0.6158  2.0726 -1.7781
13431TIP3   OH240225   7.037   6.386   0.938  0.3313  0.3824  0.5133
13431TIP3    H140226   7.024   6.441   0.860  1.2785 -0.8346 -0.5227
13431TIP3    H240227   6.957   6.333   0.943  0.7817 -0.3932 -0.3475
13432TIP3   OH240228   6.123   6.661   3.909  0.3893 -0.3957  0.3918
13432TIP3    H140229   6.062   6.664   3.835 -1.1451 -0.2538  1.6259
13432TIP3    H240230   6.202   6.702   3.876 -0.5990  0.5466 -0.8857
13433TIP3   OH240231   8.488   0.392   2.302  0.0388 -0.3750 -0.5305
13433TIP3    H140232   8.444   0.423   2.381 -2.0068 -1.4072 -1.2395
13433TIP3    H240233   8.565   0.346   2.334 -0.4918 -0.3297  0.8302
13434TIP3   OH240234   1.333   1.410   3.129  0.2575  0.1352 -0.2401
13434TIP3    H140235   1.247   1.446   3.153  1.2456  0.8331  2.4669
13434TIP3    H240236   1.379   1.482   3.088  0.4515  0.5178  0.6408
13435TIP3   OH240237   5.545   5.910   0.897 -0.0122  0.4940  0.1805
13435TIP3    H140238   5.569   5.999   0.872 -1.2849  1.1578  1.2608
13435TIP3    H240239   5.457   5.898   0.862  0.0211 -0.2164  0.3307
13436TIP3   OH240240   1.679   0.594   3.071  0.1336 -0.5811 -0.0929
13436TIP3    H140241   1.755   0.614   3.126  0.5664 -3.7203  0.5376
13436TIP3    H240242   1.605   0.634   3.117  0.9817 -0.0939  0.8655
13437TIP3   OH240243   4.840   7.361   1.424 -0.9124 -0.0474  0.2888
13437TIP3    H140244   4.837   7.454   1.400 -1.4977  0.1831  1.2184
13437TIP3    H240245   4.875   7.361   1.513 -2.2460 -0.6209  0.8151
13438TIP3   OH240246   1.785   0.150   0.049 -0.0256  0.1542  0.1728
13438TIP3    H140247   1.821   0.180   0.132  0.6455  1.5367 -0.5979
13438TIP3    H240248   1.803   0.221  -0.012  0.8266 -1.4716 -1.5073
13439TIP3   OH240249   3.827   3.840   6.517 -0.2785  0.5333 -0.4178
13439TIP3    H140250   3.908   3.791   6.501 -0.1595  0.9796 -1.2145
13439TIP3    H240251   3.775   3.827   6.437 -0.3775  1.4431 -0.5101
13440TIP3   OH240252   4.288   3.022   6.569 -0.3171 -0.8111 -0.2369
13440TIP3    H140253   4.315   2.930   6.563  1.7606 -0.1859 -0.7553
13440TIP3    H240254   4.315   3.060   6.486  1.4942  0.9710  1.1395
13441TIP3   OH240255   3.230   2.301   6.254  0.6744 -0.4782 -0.0224
13441TIP3    H140256   3.185   2.313   6.337  0.7208  1.8739 -0.3068
13441TIP3    H240257   3.176   2.239   6.206 -0.4839 -0.2170  0.9370
13442TIP3   OH240258   1.644   0.660   1.713  0.2730  0.3071 -0.3386
13442TIP3    H140259   1.654   0.577   1.667 -2.3608 -0.5646  0.5378
13442TIP3    H240260   1.582   0.710   1.659  0.2064  0.8283  0.2181
13443TIP3   OH240261   0.145   0.832   2.698 -0.7405  0.2928 -0.1884
13443TIP3    H140262   0.123   0.845   2.606 -1.5956 -0.9345 -0.1759
13443TIP3    H240263   0.066   0.792   2.736 -0.4108  0.8053  1.0808
13444TIP3   OH240264   6.159   6.354   0.261 -0.5059 -0.4867 -0.0344
13444TIP3    H140265   6.080   6.403   0.240 -0.8270 -0.3566  1.3778
13444TIP3    H240266   6.178   6.303   0.183 -0.6924  1.2033 -1.2136
13445TIP3   OH240267   4.834   2.488   6.909 -0.3911  0.1406 -0.1988
13445TIP3    H140268   4.793   2.500   6.823  1.5766 -1.1086 -1.3458
13445TIP3    H240269   4.917   2.534   6.902  0.8573 -2.0259  0.1960
13446TIP3   OH240270   8.041   0.187   1.292 -0.6790 -0.3485  0.7981
13446TIP3    H140271   8.129   0.162   1.319 -0.7770 -1.1525  0.3983
13446TIP3    H240272   8.002   0.228   1.370  0.0526  0.0321  0.9619
13447TIP3   OH240273   6.682   5.832   2.275 -0.1843  0.2455 -0.0982
13447TIP3    H140274   6.692   5.920   2.239 -2.2571  0.1386 -1.0370
13447TIP3    H240275   6.612   5.841   2.340 -1.2484 -0.9149 -1.0504
13448TIP3   OH240276   5.578   7.910   0.501  0.2543  0.0279 -0.4688
13448TIP3    H140277   5.564   7.858   0.422  0.0165  0.2921 -0.6030
13448TIP3    H240278   5.593   7.845   0.570 -0.4006 -0.2295 -0.5656
13449TIP3   OH240279   2.355   0.463   1.748  1.0683  0.6300 -0.6569
13449TIP3    H140280   2.403   0.425   1.821  1.4938 -1.2610 -1.8726
13449TIP3    H240281   2.419   0.465   1.676 -0.2607 -0.6170 -1.8979
13450TIP3   OH240282   0.085   7.356   0.268 -0.4592 -0.1857 -1.2557
13450TIP3    H140283   0.040   7.315   0.193 -1.8245 -0.5775 -0.2564
13450TIP3    H240284   0.073   7.293   0.339  1.9222 -0.3961 -1.0249
13451TIP3   OH240285   0.971   7.851   2.237  0.5980 -0.3418  0.4879
13451TIP3    H140286   1.052   7.834   2.188  0.5070  1.3300 -0.2777
13451TIP3    H240287   0.921   7.910   2.181 -0.0909  0.5432  2.0168
13452TIP3   OH240288   8.335   6.370   1.232  0.0517 -0.5154  0.4478
13452TIP3    H140289   8.383   6.360   1.150  0.4110 -1.9431  0.8196
13452TIP3    H240290   8.249   6.405   1.206  0.3929 -0.3630 -0.4602
13453TIP3   OH240291   5.836   7.649   0.194  0.3419 -0.0494 -0.4181
13453TIP3    H140292   5.875   7.658   0.281 -1.3946  1.5593  0.2292
13453TIP3    H240293   5.775   7.575   0.202  0.8704 -0.5051 -0.5465
13454TIP3   OH240294   6.854   7.482   2.782 -0.4900 -0.4859 -0.1671
13454TIP3    H140295   6.759   7.494   2.791 -0.6084 -0.7695 -1.0116
13454TIP3    H240296   6.866   7.387   2.785 -0.1727 -0.4292  0.4830
13455TIP3   OH240297   1.282   7.737   0.114 -0.2058 -0.3599  0.4477
13455TIP3    H140298   1.339   7.670   0.151 -1.8499 -2.5711 -0.9130
13455TIP3    H240299   1.247   7.699   0.034 -2.1821  1.6235  0.2869
13456TIP3   OH240300   7.298   7.420   2.851 -0.4982 -0.2012  0.3747
13456TIP3    H140301   7.241   7.349   2.820  0.1948 -0.2669 -0.7761
13456TIP3    H240302   7.239   7.494   2.864 -1.0682 -0.6897  0.5847
13457TIP3   OH240303   3.022   0.474   6.907 -0.0881  0.0809 -0.5544
13457TIP3    H140304   2.972   0.483   6.826 -0.8734  0.0343 -0.0851
13457TIP3    H240305   3.072   0.556   6.913 -0.8462  0.5540 -0.5439
13458TIP3   OH240306   4.868   7.227   1.029  0.2889 -0.0002  0.4612
13458TIP3    H140307   4.808   7.289   1.070  1.6203  1.4277  0.3046
13458TIP3    H240308   4.912   7.184   1.103 -2.3994 -2.6003  0.6275
13459TIP3   OH240309   1.553   0.491   0.089  0.2202  0.1952 -0.0531
13459TIP3    H140310   1.509   0.424   0.037 -0.4075 -1.0152  1.9713
13459TIP3    H240311   1.643   0.492   0.055  0.7657 -3.0790  1.1554
13460TIP3   OH240312   4.822   2.812   6.798 -0.4816 -0.0811 -0.1872
13460TIP3    H140313   4.834   2.780   6.887  0.3876 -0.6383 -0.5029
13460TIP3    H240314   4.727   2.824   6.789 -0.6010 -0.3684  0.6857
13461TIP3   OH240315   7.019   2.273   4.398 -0.0469  0.4854 -0.0021
13461TIP3    H140316   7.029   2.262   4.303  0.1490  2.0146 -0.1716
13461TIP3    H240317   7.042   2.364   4.414  0.5328  0.0765  1.6132
13462TIP3   OH240318   4.193   2.469   2.116  0.2163  0.5591 -0.5908
13462TIP3    H140319   4.146   2.549   2.138  0.1405  0.1754  0.6957
13462TIP3    H240320   4.126   2.401   2.116  0.5094  0.2680 -0.2697
13463TIP3   OH240321   6.538   7.939   1.749 -0.6350  0.0117  0.3303
13463TIP3    H140322   6.504   8.027   1.735 -0.4931  0.1061  0.5918
13463TIP3    H240323   6.471   7.881   1.711  0.1858  0.3080 -1.6507
13464TIP3   OH240324   1.554   4.600   3.104 -0.4340  0.3635 -0.0633
13464TIP3    H140325   1.597   4.601   3.019  1.2356 -0.2250  0.7563
13464TIP3    H240326   1.562   4.689   3.137 -1.4802  0.7057 -0.6903
13465TIP3   OH240327   0.657   6.408   0.605  0.1100  0.1937 -0.3672
13465TIP3    H140328   0.663   6.493   0.562  1.8732  0.3299  0.1174
13465TIP3    H240329   0.606   6.423   0.684 -1.8092  0.2635 -1.6022
13466TIP3   OH240330   0.623   2.228   1.358 -0.3908  0.0898  0.2432
13466TIP3    H140331   0.529   2.246   1.360 -0.5577 -0.8200  0.7317
13466TIP3    H240332   0.656   2.280   1.285 -1.3141  0.2033 -0.0962
13467TIP3   OH240333   6.549   5.612   0.306 -0.0572  0.2466  0.1793
13467TIP3    H140334   6.585   5.653   0.385 -0.1626 -0.7111  0.7350
13467TIP3    H240335   6.519   5.685   0.252  0.5423  0.9335  0.7726
13468TIP3   OH240336   3.108   0.390   1.094  0.4328 -0.1459  0.2675
13468TIP3    H140337   3.019   0.356   1.088  0.6719 -0.7704  0.2291
13468TIP3    H240338   3.162   0.313   1.111  0.8151  0.4043  1.6306
13469TIP3   OH240339   0.199   7.108   3.113  0.4685 -0.1608 -0.0365
13469TIP3    H140340   0.125   7.102   3.053  1.1015  1.4379 -1.0312
13469TIP3    H240341   0.256   7.174   3.073  0.5943  1.4141  2.6581
13470TIP3   OH240342   8.097   7.107   1.955  0.0869 -0.0566 -0.7101
13470TIP3    H140343   8.028   7.061   1.905 -1.1224  1.5849 -0.5818
13470TIP3    H240344   8.080   7.084   2.046  0.0568 -0.1094 -0.7290
13471TIP3   OH240345   7.162   7.424   3.578 -0.0053 -0.7638 -0.4611
13471TIP3    H140346   7.176   7.347   3.633 -1.1132  0.4279  1.5382
13471TIP3    H240347   7.204   7.495   3.625 -0.9640  0.2800 -1.1509
13472TIP3   OH240348   2.162   0.870   1.276  0.3750  0.3095  0.0190
13472TIP3    H140349   2.229   0.906   1.334 -1.0984  0.4097  1.7059
13472TIP3    H240350   2.108   0.815   1.332 -1.9018  1.4615 -0.9317
13473TIP3   OH240351   1.315   1.427   2.498 -0.0638 -0.0343  0.0236
13473TIP3    H140352   1.250   1.496   2.512 -0.3959 -0.4146  0.3613
13473TIP3    H240353   1.265   1.352   2.468  0.2538 -0.2430  0.0076
13474TIP3   OH240354   8.118   7.620   1.342 -0.1940  0.0582  0.7065
13474TIP3    H140355   8.054   7.623   1.270 -0.0926 -0.2034  0.6077
13474TIP3    H240356   8.075   7.668   1.413  0.2052  1.3771  0.0691
13475TIP3   OH240357   7.544   7.162   1.763 -0.5542 -0.3728  0.0971
13475TIP3    H140358   7.462   7.126   1.729 -0.3519 -1.1517  0.4238
13475TIP3    H240359   7.612   7.110   1.722 -0.3161 -1.5333  1.8976
13476TIP3   OH240360   2.745   0.496   2.481 -0.0926  0.0413  0.3558
13476TIP3    H140361   2.652   0.514   2.467  0.1004 -0.0309 -1.0138
13476TIP3    H240362   2.771   0.560   2.548 -1.2091 -0.2025  1.0543
13477TIP3   OH240363   2.149   1.057   2.715 -0.1164  0.1063 -0.0054
13477TIP3    H140364   2.207   1.013   2.777 -0.7563 -1.6905 -0.6527
13477TIP3    H240365   2.202   1.064   2.635 -0.4917 -0.7563 -0.3314
13478TIP3   OH240366   7.280   7.235   0.877  0.0614  0.1580  0.7997
13478TIP3    H140367   7.283   7.180   0.798  0.0150  1.5246 -0.1674
13478TIP3    H240368   7.270   7.172   0.949  1.3564 -1.1903 -0.1639
13479TIP3   OH240369   6.505   5.386   4.057 -0.3175 -0.4579 -0.1813
13479TIP3    H140370   6.501   5.476   4.025 -0.5181 -0.5698 -0.4686
13479TIP3    H240371   6.598   5.372   4.076 -0.5604  0.4924  1.8245
13480TIP3   OH240372   5.907   2.660   6.940 -0.0578  0.1935 -0.6119
13480TIP3    H140373   5.935   2.586   6.887  1.8951 -0.1767  0.9002
13480TIP3    H240374   5.821   2.634   6.973 -0.8019 -0.0274 -2.6578
13481TIP3   OH240375   0.821   7.277   3.492 -0.1461  0.5252 -0.4033
13481TIP3    H140376   0.861   7.251   3.575  1.5686 -0.8018 -1.6095
13481TIP3    H240377   0.852   7.366   3.477  0.6067  0.2926 -0.2521
13482TIP3   OH240378   2.049   0.124   1.199 -0.3055 -0.6733  0.0321
13482TIP3    H140379   1.983   0.193   1.194 -0.4409 -0.8773 -1.0125
13482TIP3    H240380   2.002   0.047   1.230 -0.2439 -0.4219  0.7644
13483TIP3   OH240381   6.906   5.700   2.401 -0.2581 -0.2746  0.0284
13483TIP3    H140382   6.987   5.679   2.356  0.5886  0.9292  0.9404
13483TIP3    H240383   6.853   5.746   2.336  0.1648 -0.2687 -0.3096
13484TIP3   OH240384   5.767   0.949   1.166  0.4052  0.4724 -0.0506
13484TIP3    H140385   5.730   0.917   1.248 -2.2174  1.4480 -0.8113
13484TIP3    H240386   5.744   0.881   1.102 -1.2714  1.7102 -0.7855
13485TIP3   OH240387   2.895   0.517   2.152  0.2334 -0.3616  0.4129
13485TIP3    H140388   2.817   0.547   2.105  1.2210  0.4532 -0.7519
13485TIP3    H240389   2.926   0.442   2.101 -0.2107 -1.1687  1.3117
13486TIP3   OH240390   8.222   6.940   3.233  0.0551 -0.0590 -0.4215
13486TIP3    H140391   8.300   6.921   3.180  0.8630 -0.2651  0.7917
13486TIP3    H240392   8.234   7.030   3.263  0.7205 -0.6630  1.1995
13487TIP3   OH240393   7.801   2.996   5.226 -0.3826  0.7810 -0.4471
13487TIP3    H140394   7.723   2.945   5.247  0.4863 -0.3462  0.0968
13487TIP3    H240395   7.808   3.059   5.298 -1.3883  1.5839 -1.0530
13488TIP3   OH240396   4.007   2.475   1.159  0.4310 -0.2438  0.0126
13488TIP3    H140397   3.970   2.508   1.241  0.7792 -0.2150  0.1597
13488TIP3    H240398   4.055   2.397   1.185 -1.1762 -1.4282 -0.4711
13489TIP3   OH240399   1.906   6.228   4.816  0.6630  0.0775 -0.9021
13489TIP3    H140400   1.962   6.180   4.877 -0.7969 -0.0819  0.3519
13489TIP3    H240401   1.821   6.183   4.821 -0.1727  1.5935 -1.1754
13490TIP3   OH240402   8.003   7.739   1.571  0.0171 -0.0029  0.2404
13490TIP3    H140403   8.032   7.653   1.603  1.1273  0.8341  1.5623
13490TIP3    H240404   8.019   7.798   1.645 -2.9738  0.9274  0.1989
13491TIP3   OH240405   8.298   7.553   0.114  0.3287  0.0751  0.2499
13491TIP3    H140406   8.298   7.482   0.050 -0.6880 -0.6475  1.0342
13491TIP3    H240407   8.206   7.576   0.125  0.6390  1.5123  0.0265
13492TIP3   OH240408   6.211   6.872   3.131  0.0855  0.5734  0.3438
13492TIP3    H140409   6.271   6.824   3.188  0.1610 -0.0968 -0.2899
13492TIP3    H240410   6.195   6.955   3.176  0.4821  0.2241  1.1280
13493TIP3   OH240411   2.638   0.118   1.223  0.1458 -0.0784  0.5448
13493TIP3    H140412   2.548   0.136   1.250 -0.5718  1.1288 -2.5222
13493TIP3    H240413   2.681   0.204   1.227  0.5241 -0.2275 -0.2997
13494TIP3   OH240414   0.057   6.365   0.718 -0.4537  0.0184  0.2783
13494TIP3    H140415   0.115   6.426   0.672 -0.9616  0.9733  0.8916
13494TIP3    H240416  -0.030   6.383   0.683 -0.7367  0.2484  1.0909
13495TIP3   OH240417   6.608   7.410   0.651 -0.0999 -0.6746 -0.5427
13495TIP3    H140418   6.612   7.462   0.571  2.2241 -0.0409 -0.0448
13495TIP3    H240419   6.661   7.458   0.714 -2.4964 -0.7944  1.6486
13496TIP3   OH240420   0.130   6.793   1.746 -0.8290  0.2871 -0.5190
13496TIP3    H140421   0.073   6.795   1.823  1.0676 -0.6458  0.9561
13496TIP3    H240422   0.156   6.884   1.733 -0.7240  0.3715  0.2770
13497TIP3   OH240423   5.092   0.953   1.709 -0.2452  0.7311 -0.3056
13497TIP3    H140424   5.040   1.031   1.691  0.2628  0.9408 -0.8875
13497TIP3    H240425   5.182   0.978   1.686  0.0273  0.1985  0.1639
13498TIP3   OH240426   8.115   7.511   4.341 -0.0402  0.3092 -0.2458
13498TIP3    H140427   8.204   7.499   4.307 -0.0639  2.0798 -1.0223
13498TIP3    H240428   8.060   7.465   4.279  0.3834 -1.3983  0.6285
13499TIP3   OH240429   7.546   6.962   1.394 -0.3591  0.0658 -0.2893
13499TIP3    H140430   7.479   6.914   1.442 -0.1206 -0.8819 -0.8818
13499TIP3    H240431   7.532   6.938   1.302  1.1356 -0.6127 -0.3693
13500TIP3   OH240432   0.017   5.634   1.250 -0.5716  0.4630 -0.4069
13500TIP3    H140433   0.076   5.576   1.300  0.3146  0.4661 -1.4233
13500TIP3    H240434   0.063   5.718   1.247  0.6114 -0.2148 -3.3649
13501TIP3   OH240435   3.832   2.015   2.323 -0.0319 -0.2655 -0.1504
13501TIP3    H140436   3.849   1.999   2.230  0.0547  0.3057 -0.2346
13501TIP3    H240437   3.782   1.938   2.352  2.1261 -1.6874 -0.0583
13502TIP3   OH240438   2.573   6.225   2.128 -0.2650 -1.0328 -0.3404
13502TIP3    H140439   2.612   6.309   2.102  1.2624 -1.6785 -0.1489
13502TIP3    H240440   2.480   6.245   2.140 -0.0025  0.5239 -0.7905
13503TIP3   OH240441   2.585   2.184   3.503 -0.2329 -0.4962  0.4596
13503TIP3    H140442   2.623   2.097   3.518  0.2730 -0.2262  0.7965
13503TIP3    H240443   2.494   2.167   3.481  0.3090 -1.2170 -1.3010
13504TIP3   OH240444   4.521   5.104   5.384 -0.5193 -0.0375 -0.2974
13504TIP3    H140445   4.438   5.058   5.372 -0.1191 -0.5126 -1.2910
13504TIP3    H240446   4.558   5.110   5.296 -0.4227  1.9301 -0.1429
13505TIP3   OH240447   1.273   0.417   1.432  0.4565 -0.5118 -0.0619
13505TIP3    H140448   1.218   0.374   1.498  0.7694  0.5868  0.9285
13505TIP3    H240449   1.223   0.410   1.351 -0.8371 -0.1616  0.6877
13506TIP3   OH240450   2.441   0.514   3.302 -0.1751 -0.0975  0.5398
13506TIP3    H140451   2.472   0.428   3.275 -1.6494 -0.6736  0.6812
13506TIP3    H240452   2.353   0.521   3.266 -2.5541 -1.2185  5.7413
13507TIP3   OH240453   7.938   8.032   2.517 -0.0240  0.7668 -0.1676
13507TIP3    H140454   7.984   7.948   2.509  2.0652  1.4445  3.6450
13507TIP3    H240455   7.870   8.016   2.583  0.0597  1.9339  0.2041
13508TIP3   OH240456   0.469   7.866   0.645  0.2674  0.2993  0.2242
13508TIP3    H140457   0.406   7.902   0.582 -1.6121 -0.8620  1.3931
13508TIP3    H240458   0.483   7.937   0.708  0.1761  0.5719 -0.0580
13509TIP3   OH240459   2.301   0.122   1.921 -0.0568 -0.4328  0.7030
13509TIP3    H140460   2.274   0.210   1.895  1.0912 -0.6006 -1.1715
13509TIP3    H240461   2.249   0.103   1.999 -0.0978  2.0071  1.3020
13510TIP3   OH240462   4.567   5.131   6.355 -0.5521 -0.1574 -0.4131
13510TIP3    H140463   4.656   5.144   6.323  0.1356 -2.9037  0.2731
13510TIP3    H240464   4.527   5.071   6.292 -2.0200  1.2331 -0.8414
13511TIP3   OH240465   0.827   0.824   1.847  0.1002  0.3192  0.1925
13511TIP3    H140466   0.739   0.858   1.864 -0.4217 -0.5558 -0.7475
13511TIP3    H240467   0.879   0.901   1.825 -0.4003  0.8523  0.8792
13512TIP3   OH240468   0.946   5.850   2.490  0.5036  0.0120  0.1738
13512TIP3    H140469   0.927   5.940   2.515  1.8442  0.0785  0.9893
13512TIP3    H240470   0.894   5.835   2.412  1.3744  1.9598 -0.8043
13513TIP3   OH240471   7.906   7.601   2.104  0.0548 -0.2958 -0.3539
13513TIP3    H140472   7.918   7.592   2.009 -1.2075 -1.6669 -0.3944
13513TIP3    H240473   7.870   7.517   2.132  0.2122  0.1738  1.3212
13514TIP3   OH240474   1.426   7.417   2.433 -0.1558 -0.3839 -0.0350
13514TIP3    H140475   1.339   7.448   2.408 -1.4481 -2.2907  1.7877
13514TIP3    H240476   1.434   7.333   2.388  0.8347 -0.1166 -0.3518
13515TIP3   OH240477   8.046   1.751   6.729  0.2367 -0.3261  0.4815
13515TIP3    H140478   8.058   1.664   6.768  0.0837  0.2622  1.8459
13515TIP3    H240479   7.987   1.797   6.789  2.1919  1.5478  1.0373
13516TIP3   OH240480   7.741   7.068   4.108  0.4921  0.3769  0.3867
13516TIP3    H140481   7.739   7.032   4.020 -0.1466  0.7813  0.2277
13516TIP3    H240482   7.653   7.052   4.142  0.3179  1.4256  0.4546
13517TIP3   OH240483   0.564   0.151   1.899 -0.2345 -0.1364 -0.3756
13517TIP3    H140484   0.562   0.238   1.939  1.9064 -0.9671  1.6220
13517TIP3    H240485   0.595   0.166   1.809  0.7854  1.1023  0.1735
13518TIP3   OH240486   1.379   7.470   0.786 -0.3535 -0.5356 -0.1332
13518TIP3    H140487   1.359   7.404   0.719  1.9136 -1.1602 -0.2583
13518TIP3    H240488   1.463   7.506   0.759  0.4365 -0.5543  2.1941
13519TIP3   OH240489   2.896   0.037   1.361  0.4796  0.6866  0.1456
13519TIP3    H140490   2.816   0.036   1.308  1.2036  0.4438 -0.9623
13519TIP3    H240491   2.881  -0.030   1.427  1.5400 -2.6707 -2.8075
13520TIP3   OH240492   0.137   6.386   1.343  0.3379 -0.3690  0.1281
13520TIP3    H140493   0.173   6.378   1.254  2.5042  1.8806  0.7365
13520TIP3    H240494   0.063   6.446   1.333  1.2135  0.7005 -0.0087
13521TIP3   OH240495   6.413   7.642   1.909  0.4669  0.4022  0.0126
13521TIP3    H140496   6.322   7.638   1.940  0.0829  0.7735 -1.0490
13521TIP3    H240497   6.457   7.699   1.972  0.0124  0.0872  0.6306
13522TIP3   OH240498   8.159   7.260   0.747 -0.4181  0.0310 -0.0820
13522TIP3    H140499   8.198   7.205   0.815 -0.9528 -1.0110 -0.6075
13522TIP3    H240500   8.146   7.345   0.790  1.0364 -0.0292  0.5361
13523TIP3   OH240501   6.194   7.229   3.726  0.4248  0.3524 -0.2989
13523TIP3    H140502   6.143   7.199   3.800  1.9518  0.3158  0.7789
13523TIP3    H240503   6.235   7.311   3.757 -0.7939  1.6100 -1.9165
13524TIP3   OH240504   3.590   0.058   1.763 -0.3924  0.0701 -0.3510
13524TIP3    H140505   3.523   0.020   1.707 -1.0985  0.7225  0.0553
13524TIP3    H240506   3.546   0.128   1.810  0.6299  0.6567 -0.2561
13525TIP3   OH240507   0.800   7.193   1.716 -0.1085  0.0983 -0.1011
13525TIP3    H140508   0.824   7.153   1.800  0.9772  1.2989  0.1771
13525TIP3    H240509   0.713   7.158   1.697  0.3016 -1.4395  0.7280
13526TIP3   OH240510   6.077   6.957   1.049 -0.5185  0.6696 -0.3977
13526TIP3    H140511   5.996   6.912   1.024  0.5038 -2.2846  1.3962
13526TIP3    H240512   6.144   6.919   0.993  0.2195  0.5460  0.5541
13527TIP3   OH240513   0.660   7.538   1.413  0.2778 -0.6469  0.2320
13527TIP3    H140514   0.656   7.554   1.318 -0.5335  0.4117  0.4353
13527TIP3    H240515   0.601   7.465   1.428 -2.4784  1.5279  0.3912
13528TIP3   OH240516   1.346   5.513   1.274  0.9975  0.1022  0.0125
13528TIP3    H140517   1.253   5.520   1.298  0.8039 -1.6453 -0.1157
13528TIP3    H240518   1.354   5.424   1.240  2.2416  1.0077 -2.1676
13529TIP3   OH240519   0.081   6.817   2.581 -0.3530 -0.4324  0.0132
13529TIP3    H140520   0.060   6.909   2.568  2.4127  0.0079 -1.7495
13529TIP3    H240521   0.083   6.806   2.676  0.7622  1.7142  0.2702
13530TIP3   OH240522   2.824   2.448   1.793  0.0884 -0.4306 -0.0790
13530TIP3    H140523   2.890   2.445   1.723  1.1266 -0.5107  0.9007
13530TIP3    H240524   2.782   2.362   1.790  0.6621 -0.7099 -0.0865
13531TIP3   OH240525   0.426   6.678   0.523 -0.1101  0.4833  0.5146
13531TIP3    H140526   0.415   6.682   0.429  1.4221 -1.3566  0.2089
13531TIP3    H240527   0.516   6.708   0.538 -0.4294  1.0203  1.4158
13532TIP3   OH240528   0.752   4.108   3.485  0.5028  0.0526  0.3467
13532TIP3    H140529   0.715   4.195   3.472 -1.1411 -0.8099 -0.9892
13532TIP3    H240530   0.846   4.119   3.473  0.2136  1.4940 -0.6205
13533TIP3   OH240531   4.547   2.316   6.922  0.2202  0.1071  0.0342
13533TIP3    H140532   4.600   2.239   6.941  1.2704  0.8352  0.0863
13533TIP3    H240533   4.593   2.360   6.850 -0.1130  0.9313  0.3181
13534TIP3   OH240534   0.135   7.861   2.426  0.1650 -0.0730 -0.4838
13534TIP3    H140535   0.139   7.816   2.341  0.1415 -0.2854 -0.3724
13534TIP3    H240536   0.221   7.901   2.436 -0.2818  1.1356 -1.2568
13535TIP3   OH240537   1.986   7.609   1.682  0.5451 -0.0990 -0.5710
13535TIP3    H140538   2.081   7.616   1.688  0.3858  1.8342  0.1592
13535TIP3    H240539   1.971   7.535   1.624  2.5361  0.7449 -2.2500
13536TIP3   OH240540   0.135   7.505   2.866  0.1720  0.3855  0.2229
13536TIP3    H140541   0.148   7.533   2.775  0.2518 -0.7028 -0.1138
13536TIP3    H240542   0.222   7.480   2.896 -0.0846 -0.6697  0.1067
13537TIP3   OH240543   6.690   3.367   6.191  0.0670  0.7445  0.3579
13537TIP3    H140544   6.600   3.343   6.171  1.4901 -3.1822 -1.7267
13537TIP3    H240545   6.699   3.350   6.285 -1.0775  0.1300  0.3585
13538TIP3   OH240546   8.053   7.455   1.617 -0.2841 -0.8214  0.0007
13538TIP3    H140547   8.046   7.397   1.541  2.7669 -1.7804  0.3782
13538TIP3    H240548   8.083   7.398   1.687 -0.8577  0.5153  1.3493
13539TIP3   OH240549   2.633   0.545   0.701  0.1910 -0.5759 -0.1199
13539TIP3    H140550   2.589   0.629   0.707 -0.0783 -0.6965 -0.3762
13539TIP3    H240551   2.667   0.541   0.612  1.6616 -0.0250  0.3981
13540TIP3   OH240552   7.861   7.323   2.171  0.1200 -0.3802 -0.0810
13540TIP3    H140553   7.827   7.279   2.093  1.2517 -1.6242  0.1210
13540TIP3    H240554   7.933   7.268   2.201  0.0791  0.3964  1.5144
13541TIP3   OH240555   7.439   3.573   6.359 -0.1521 -0.1076 -0.1777
13541TIP3    H140556   7.377   3.622   6.304  0.3628 -1.2190 -1.7978
13541TIP3    H240557   7.430   3.612   6.445 -2.4242  0.4029 -0.5980
13542TIP3   OH240558   1.573   5.362   2.959 -0.6042  0.2390  0.4975
13542TIP3    H140559   1.621   5.441   2.982  1.0995 -0.5961 -0.0831
13542TIP3    H240560   1.627   5.319   2.894 -1.9699 -0.9415  0.1098
13543TIP3   OH240561   2.475   0.174   0.552 -0.2135 -0.2685  0.2671
13543TIP3    H140562   2.391   0.213   0.577 -0.6342 -1.7939  1.3619
13543TIP3    H240563   2.471   0.086   0.589  1.4270 -0.7289 -0.6312
13544TIP3   OH240564   0.707   6.953   0.157  0.2607  0.4957 -0.4703
13544TIP3    H140565   0.710   6.879   0.097  2.1833 -0.2603  0.5069
13544TIP3    H240566   0.621   6.948   0.198  0.2383 -0.9898 -0.6800
13545TIP3   OH240567   0.847   0.634   2.419  0.1740 -0.7595 -0.5033
13545TIP3    H140568   0.849   0.728   2.402 -1.0435 -0.5813  0.2314
13545TIP3    H240569   0.839   0.628   2.514 -2.7132 -1.5177 -0.7333
13546TIP3   OH240570   5.357   1.971   5.184  0.4125 -0.2500  0.7246
13546TIP3    H140571   5.398   1.976   5.098 -0.7306 -1.2327  0.1115
13546TIP3    H240572   5.429   1.945   5.243  1.2545  0.7062  0.1237
13547TIP3   OH240573   1.447   1.061   2.338 -0.1691  0.0043  0.3753
13547TIP3    H140574   1.442   0.967   2.319 -3.2933  0.3609 -0.7925
13547TIP3    H240575   1.517   1.093   2.280 -2.1287 -0.8654 -2.6123
13548TIP3   OH240576   4.236   0.119   1.303  0.1941 -0.4341  0.5847
13548TIP3    H140577   4.329   0.100   1.297  0.4124  0.8425 -0.2578
13548TIP3    H240578   4.230   0.214   1.302 -1.0598 -0.4775  1.6892
13549TIP3   OH240579   1.138   0.809   2.948 -0.3153  0.4847  0.3390
13549TIP3    H140580   1.051   0.779   2.920  0.4010 -0.5536 -0.8071
13549TIP3    H240581   1.199   0.747   2.909  0.8978  0.5754  2.0047
13550TIP3   OH240582   2.807   0.925   1.724  0.2551  0.3485 -0.3864
13550TIP3    H140583   2.799   1.001   1.667  0.2986  0.5355 -0.1405
13550TIP3    H240584   2.800   0.850   1.664 -0.6653  0.5318 -0.5167
13551TIP3   OH240585   8.056   7.854   1.850 -0.3668  0.3131 -0.4168
13551TIP3    H140586   8.139   7.807   1.843 -0.7440 -0.7048  1.5917
13551TIP3    H240587   8.081   7.939   1.888  0.0541  0.9761 -2.1386
13552TIP3   OH240588   2.790   0.681   2.690  0.0949  0.2636 -0.0736
13552TIP3    H140589   2.802   0.765   2.646  1.4129 -0.3529 -0.9060
13552TIP3    H240590   2.730   0.700   2.762  1.0546  2.0839  0.2651
13553TIP3   OH240591   8.106   6.967   0.205  0.8965  0.4737  0.6226
13553TIP3    H140592   8.148   6.973   0.291 -1.8854  0.5993  2.0340
13553TIP3    H240593   8.091   7.058   0.180  0.8144  0.4218  0.4821
13554TIP3   OH240594   5.169   5.569   6.491 -0.4039  0.5120  0.7667
13554TIP3    H140595   5.237   5.561   6.424 -0.4341  1.2363  0.6430
13554TIP3    H240596   5.094   5.520   6.456 -0.0761  0.0373  0.7314
13555TIP3   OH240597   3.510   3.844   6.809 -0.1778  0.1266  0.1612
13555TIP3    H140598   3.445   3.859   6.877 -1.0709 -2.5631 -0.0683
13555TIP3    H240599   3.586   3.809   6.856  0.4889  1.5536  0.1887
13556TIP3   OH240600   7.710   8.026   0.177 -0.1261 -0.4238  0.5278
13556TIP3    H140601   7.705   7.949   0.233 -2.4487  0.0993  1.1147
13556TIP3    H240602   7.682   7.995   0.091  0.8746 -0.6598  0.2866
13557TIP3   OH240603   0.275   7.641   1.857 -0.0502 -0.1789  0.9166
13557TIP3    H140604   0.351   7.609   1.809  0.4454 -0.6746  2.0129
13557TIP3    H240605   0.304   7.645   1.948  0.3726  4.7256  0.6874
13558TIP3   OH240606   6.775   6.480   2.618 -0.3629 -0.3152 -0.2779
13558TIP3    H140607   6.683   6.471   2.645 -0.2850 -0.1185  0.0686
13558TIP3    H240608   6.777   6.562   2.569 -0.3202 -0.1705 -0.0381
13559TIP3   OH240609   0.637   5.540   0.745 -0.1249 -0.0200  0.0118
13559TIP3    H140610   0.723   5.547   0.703 -0.7817 -1.0804 -1.5497
13559TIP3    H240611   0.608   5.630   0.757  1.5924  0.3802  1.3903
13560TIP3   OH240612   8.499   6.643   1.268  0.2080 -1.1756  0.0655
13560TIP3    H140613   8.413   6.682   1.287  1.2523  1.8084 -0.9753
13560TIP3    H240614   8.536   6.623   1.354 -0.1897  0.6196  0.6721
13561TIP3   OH240615   0.180   7.676   1.453  0.3735 -0.4397 -0.4705
13561TIP3    H140616   0.094   7.671   1.412  0.1490  0.8604 -0.1921
13561TIP3    H240617   0.228   7.601   1.419 -0.4039 -0.3788 -1.7125
13562TIP3   OH240618   8.300   5.500   1.094  0.1964 -0.2651  0.2201
13562TIP3    H140619   8.389   5.530   1.114 -0.4443  1.1270  1.1019
13562TIP3    H240620   8.303   5.476   1.002  1.6355 -0.7631  0.3937
13563TIP3   OH240621   6.577   7.442   1.254 -0.3406 -0.2153  0.3486
13563TIP3    H140622   6.572   7.535   1.232 -1.2113 -0.1162  0.9390
13563TIP3    H240623   6.669   7.427   1.276 -0.3407  0.6695  0.9640
13564TIP3   OH240624   7.179   6.797   1.225 -0.0755  0.3306  0.2631
13564TIP3    H140625   7.233   6.823   1.299 -0.3694  0.2325  0.5104
13564TIP3    H240626   7.178   6.702   1.228 -0.5121  0.3391  0.4363
13565TIP3   OH240627   4.031   4.318   4.553  0.1558 -0.7942  0.3346
13565TIP3    H140628   3.983   4.386   4.600  1.6020  2.4444 -2.6448
13565TIP3    H240629   3.965   4.279   4.495  0.3659  1.6457 -1.6378
13566TIP3   OH240630   7.111   7.610   2.778 -0.1537  0.5990  0.2504
13566TIP3    H140631   7.100   7.695   2.736 -0.9686  1.0714  1.4153
13566TIP3    H240632   7.032   7.561   2.755 -0.4748  0.7617  1.0018
13567TIP3   OH240633   5.885   2.457   6.740 -0.4298  0.5697 -0.0246
13567TIP3    H140634   5.812   2.448   6.801 -0.1377  0.1189  0.2537
13567TIP3    H240635   5.871   2.387   6.676 -1.5153  1.8992 -1.2824
13568TIP3   OH240636   8.313   7.597   0.396 -0.2528  0.0436  0.2320
13568TIP3    H140637   8.222   7.567   0.401 -0.2576 -0.0585 -0.4609
13568TIP3    H240638   8.347   7.556   0.317 -0.3179  2.0325 -0.8572
13569TIP3   OH240639   4.072   5.100   5.765 -0.1824  0.3296  0.4550
13569TIP3    H140640   4.138   5.102   5.696  0.4686  1.0335  1.0959
13569TIP3    H240641   4.029   5.185   5.760 -1.2503 -0.2346 -0.1523
13570TIP3   OH240642   5.930   2.128   6.591  0.2218  0.1271 -0.2048
13570TIP3    H140643   5.856   2.175   6.630  1.3300  1.3998  0.3990
13570TIP3    H240644   5.892   2.081   6.517 -1.1275  1.0296 -0.0953
13571TIP3   OH240645   2.489   0.563   2.349  0.1003 -0.8829 -0.2175
13571TIP3    H140646   2.474   0.579   2.442 -1.3541  0.2476 -0.6374
13571TIP3    H240647   2.542   0.637   2.320  1.4172 -1.7476 -0.0932
13572TIP3   OH240648   4.063   1.802   6.492  0.4199  0.0392  0.3165
13572TIP3    H140649   4.107   1.728   6.533  0.0259  0.2271  1.0954
13572TIP3    H240650   3.987   1.819   6.548  1.2781  1.9216  0.9681
13573TIP3   OH240651   8.425   7.094   1.969  0.3212  0.2015  0.7254
13573TIP3    H140652   8.388   7.181   1.984  0.2485  0.4127 -0.6010
13573TIP3    H240653   8.370   7.036   2.021 -2.8984  0.3305 -2.3353
13574TIP3   OH240654   0.942   6.834   4.539 -0.2814 -0.1561  0.1993
13574TIP3    H140655   0.946   6.778   4.461  3.2176  0.5307 -0.1800
13574TIP3    H240656   0.897   6.913   4.509  1.0803  0.1162 -1.1554
13575TIP3   OH240657   7.928   7.542   1.176  0.2940 -0.2436  0.1067
13575TIP3    H140658   7.920   7.553   1.081 -0.6807  0.6182  0.2810
13575TIP3    H240659   7.870   7.469   1.197 -0.6625  0.5526  0.2407
13576TIP3   OH240660   7.362   7.529   0.312 -0.0384 -0.1197 -0.1355
13576TIP3    H140661   7.453   7.497   0.317  0.6845  1.2872 -3.2768
13576TIP3    H240662   7.316   7.461   0.263  0.1655  0.8767 -1.7194
13577TIP3   OH240663   6.274   6.874   0.875 -0.2236 -0.3880 -0.3234
13577TIP3    H140664   6.331   6.804   0.906  0.0973  0.5493  1.2453
13577TIP3    H240665   6.331   6.951   0.868 -1.1779  0.4439  0.8291
13578TIP3   OH240666   2.455   0.104   3.735  0.3153  0.0853 -0.3100
13578TIP3    H140667   2.534   0.141   3.696  0.3199 -1.5985 -1.9717
13578TIP3    H240668   2.384   0.134   3.678  0.0484 -0.4792 -0.2794
13579TIP3   OH240669   1.513   0.801   2.252  0.1250  0.1648  0.0730
13579TIP3    H140670   1.507   0.748   2.331 -0.2279  1.8291  1.1715
13579TIP3    H240671   1.602   0.837   2.254 -0.1205  0.7761  0.0806
13580TIP3   OH240672   4.838   2.447   6.027  0.0949  0.0165 -0.1762
13580TIP3    H140673   4.817   2.390   6.101  1.4594  0.1786  0.3502
13580TIP3    H240674   4.818   2.535   6.058  1.4742  0.1708  0.3235
13581TIP3   OH240675   0.677   6.700   0.941 -0.0583 -0.1614 -0.3908
13581TIP3    H140676   0.600   6.749   0.910 -0.7038 -0.5185  0.6300
13581TIP3    H240677   0.661   6.687   1.035  1.5661  0.3317 -0.0412
13582TIP3   OH240678   3.898   0.875   2.062 -0.0695  0.5612 -0.5599
13582TIP3    H140679   3.876   0.838   2.148  0.4545  2.8022  0.5547
13582TIP3    H240680   3.972   0.822   2.033  0.4360  0.4694  0.8387
13583TIP3   OH240681   2.422   2.015   3.869  0.1118  0.6787 -0.5934
13583TIP3    H140682   2.424   1.997   3.963  0.7617 -2.9596 -1.2344
13583TIP3    H240683   2.513   2.006   3.841 -0.5745 -1.7135 -2.1327
13584TIP3   OH240684   4.118   4.113   6.396 -0.4527  0.0478  0.1812
13584TIP3    H140685   4.042   4.143   6.346  0.3825 -1.0776 -1.8480
13584TIP3    H240686   4.193   4.138   6.342  0.4033 -2.3631  0.1810
13585TIP3   OH240687   1.154   6.784   1.086  0.1535  0.3313  0.1343
13585TIP3    H140688   1.243   6.749   1.078 -0.3231 -1.2381  1.2307
13585TIP3    H240689   1.162   6.855   1.150  1.0240  1.8172 -1.5976
13586TIP3   OH240690   6.283   7.730   3.505 -0.1511 -0.2087 -0.1326
13586TIP3    H140691   6.191   7.707   3.494  0.1075 -0.1569 -2.4978
13586TIP3    H240692   6.320   7.656   3.554 -1.3212 -0.4682  0.3732
13587TIP3   OH240693   1.130   0.033   2.401 -0.0397  0.0794  0.0480
13587TIP3    H140694   1.150   0.104   2.340  1.2084  0.9052  1.4114
13587TIP3    H240695   1.063  -0.019   2.355 -0.4838  1.7358 -1.2269
13588TIP3   OH240696   3.990   2.227   0.422 -0.4790  0.3033  0.1433
13588TIP3    H140697   3.990   2.137   0.388 -0.8379  0.3570 -0.0055
13588TIP3    H240698   3.931   2.224   0.497 -1.8752  0.8027 -0.9203
13589TIP3   OH240699   3.584   3.265   1.099 -0.1618 -0.3216  0.1582
13589TIP3    H140700   3.554   3.259   1.008  0.7833  1.6203 -0.2942
13589TIP3    H240701   3.677   3.287   1.092 -0.3523  1.0072  1.5863
13590TIP3   OH240702   2.892   0.717   2.340  0.2994 -0.3245  0.5190
13590TIP3    H140703   2.798   0.700   2.341  0.2332 -0.3519 -2.4136
13590TIP3    H240704   2.926   0.658   2.273  2.3280  0.1666  1.0902
13591TIP3   OH240705   0.622   6.983   1.368 -0.0845 -0.1863 -0.2933
13591TIP3    H140706   0.643   6.916   1.302  2.1577  0.0458  0.1380
13591TIP3    H240707   0.531   7.007   1.350 -0.2210 -1.7735 -1.8515
13592TIP3   OH240708   5.124   4.639   6.458 -0.3258 -0.0103  0.2530
13592TIP3    H140709   5.056   4.705   6.451  1.2016  1.7150  1.1495
13592TIP3    H240710   5.127   4.617   6.551  1.3964  1.1420  0.5085
13593TIP3   OH240711   7.935   7.978   2.204  0.3270  0.2173  0.4172
13593TIP3    H140712   7.944   8.051   2.266  1.9713  1.5701 -1.3663
13593TIP3    H240713   7.861   8.002   2.149  0.9942  0.6405 -0.2979
13594TIP3   OH240714   2.790   0.281   1.011  0.0499  0.0067  0.1113
13594TIP3    H140715   2.823   0.300   0.924 -0.7231 -0.3216 -0.2608
13594TIP3    H240716   2.806   0.187   1.023 -1.0123 -0.2220 -0.1978
13595TIP3   OH240717   5.367   0.199   1.350  0.3107  0.3206 -0.1414
13595TIP3    H140718   5.338   0.216   1.260  1.0464  2.5948  0.0126
13595TIP3    H240719   5.431   0.128   1.342 -1.5419 -1.2747 -1.0843
13596TIP3   OH240720   1.516   6.514   2.995  0.0595 -1.0342 -0.5348
13596TIP3    H140721   1.602   6.549   2.974  0.4907 -0.5817  1.8343
13596TIP3    H240722   1.522   6.421   2.973  1.2546 -1.0702 -0.0650
13597TIP3   OH240723   2.059   1.606   2.629 -0.1915 -0.4576 -0.0597
13597TIP3    H140724   2.118   1.538   2.663  1.9821  0.5983 -1.6248
13597TIP3    H240725   2.041   1.579   2.539  0.8001  1.1057 -0.7350
13598TIP3   OH240726   1.230   7.708   1.954  0.3207 -0.3959 -0.0287
13598TIP3    H140727   1.178   7.684   1.877 -0.8873 -2.5227  1.3699
13598TIP3    H240728   1.213   7.801   1.966 -0.1551 -0.2228 -1.8260
13599TIP3   OH240729   2.829   6.928   1.870 -0.3749  0.3815 -0.0935
13599TIP3    H140730   2.776   6.850   1.854  1.4583 -0.6558 -1.1721
13599TIP3    H240731   2.816   6.947   1.963 -0.8620 -1.1667  0.1670
13600TIP3   OH240732   5.169   2.043   5.868  0.2411 -0.6535 -0.0964
13600TIP3    H140733   5.245   1.987   5.854  0.5503 -0.2666  0.0353
13600TIP3    H240734   5.096   1.994   5.830  0.8502 -0.1761 -1.9174
13601TIP3   OH240735   6.766   3.955   6.581 -0.3784  0.2194  0.1467
13601TIP3    H140736   6.748   3.934   6.672  0.5177  0.3022  0.3397
13601TIP3    H240737   6.734   3.879   6.532  1.4862 -0.9547  0.7288
13602TIP3   OH240738   0.634   6.346   2.025  0.4715  0.2330 -0.4681
13602TIP3    H140739   0.566   6.293   1.983  0.3093  0.2806 -0.2665
13602TIP3    H240740   0.588   6.391   2.097  0.9706 -0.6769  0.4385
13603TIP3   OH240741   2.056   6.517   2.925  0.1688  0.0672  0.0301
13603TIP3    H140742   2.138   6.552   2.961 -0.2090  1.3132 -0.2697
13603TIP3    H240743   2.079   6.431   2.891  0.7811 -0.6797  2.2634
13604TIP3   OH240744   4.799   2.265   6.365 -0.4537 -0.5530 -0.3309
13604TIP3    H140745   4.895   2.263   6.365 -0.4808 -1.8427 -0.3093
13604TIP3    H240746   4.777   2.356   6.388  0.7515 -0.5082  0.6994
13605TIP3   OH240747   1.579   6.794   0.042  0.2340  0.0005 -0.1461
13605TIP3    H140748   1.521   6.756   0.109  0.4497  0.3154  0.2207
13605TIP3    H240749   1.613   6.718  -0.005 -1.2192 -0.1482 -0.9909
13606TIP3   OH240750   5.260   1.693   6.076 -0.0367  0.3599 -0.7692
13606TIP3    H140751   5.267   1.750   6.000 -1.0060 -0.0418 -1.1625
13606TIP3    H240752   5.213   1.745   6.142  1.7505  1.0984 -0.0485
13607TIP3   OH240753   6.069   2.644   6.613 -0.0360 -0.5288  0.1169
13607TIP3    H140754   6.001   2.583   6.643 -0.5871 -0.3780 -0.8273
13607TIP3    H240755   6.049   2.660   6.521 -0.1685  1.4301  0.4555
13608TIP3   OH240756   4.230   2.018   0.227 -0.4585 -0.7124 -0.0892
13608TIP3    H140757   4.282   2.007   0.148  0.0252 -0.4623  0.1919
13608TIP3    H240758   4.273   2.089   0.275 -0.9346 -0.6421  0.2442
13609TIP3   OH240759   3.049   0.642   1.842 -0.0117 -0.6442  0.2238
13609TIP3    H140760   3.030   0.608   1.755 -0.0485 -0.4434  0.1551
13609TIP3    H240761   3.037   0.567   1.900  0.6207 -0.9379 -0.0159
13610TIP3   OH240762   1.290   7.340   1.111  0.1403  0.7378 -0.2342
13610TIP3    H140763   1.255   7.390   1.037  1.6196  2.9181  0.4764
13610TIP3    H240764   1.385   7.353   1.106  0.4330 -0.7324  0.9114
13611TIP3   OH240765   3.299   0.388   1.363  0.6015  0.2115 -0.2744
13611TIP3    H140766   3.223   0.342   1.328  1.3986 -0.3576 -1.2658
13611TIP3    H240767   3.281   0.396   1.457  0.8096 -2.8703  0.0599
13612TIP3   OH240768   2.178   1.347   2.737 -0.1951  0.1021 -0.3590
13612TIP3    H140769   2.234   1.272   2.721 -1.3482 -0.7321 -0.5543
13612TIP3    H240770   2.096   1.309   2.770  0.0604  1.4001  1.8713
13613TIP3   OH240771   4.759   0.404   2.593  1.1127 -0.1948 -0.4311
13613TIP3    H140772   4.806   0.348   2.656  1.7742 -1.2640 -1.8630
13613TIP3    H240773   4.771   0.361   2.509 -4.0572 -1.5311 -0.6210
13614TIP3   OH240774   2.649   2.595   1.393 -0.2917  0.6631  0.0240
13614TIP3    H140775   2.625   2.568   1.482  0.1504  0.5816  0.1209
13614TIP3    H240776   2.701   2.522   1.360 -2.6035 -0.4640 -1.2419
13615TIP3   OH240777   2.911   0.872   1.373 -0.1430 -0.2513  0.1688
13615TIP3    H140778   2.925   0.806   1.306  2.8022  0.4421  0.0438
13615TIP3    H240779   2.844   0.930   1.336 -0.2202 -1.1705 -1.1718
13616TIP3   OH240780   4.341   2.091   2.520 -0.5145  0.2251  0.1278
13616TIP3    H140781   4.276   2.143   2.568 -1.4897 -0.4973 -0.3668
13616TIP3    H240782   4.320   2.105   2.428 -0.6276 -0.8233 -0.0147
13617TIP3   OH240783   1.197   6.047   3.246 -0.5858 -0.0268 -0.6044
13617TIP3    H140784   1.242   6.025   3.327 -2.0916  0.8248  0.4762
13617TIP3    H240785   1.147   6.126   3.266 -0.6794  0.4036 -2.4608
13618TIP3   OH240786   0.705   6.700   0.576  0.7276  0.0559  0.4687
13618TIP3    H140787   0.680   6.790   0.554 -0.0281 -0.7576 -2.2336
13618TIP3    H240788   0.783   6.709   0.630  1.4865  2.3154 -0.9617
13619TIP3   OH240789   8.348   7.788   3.127 -0.2449  0.5572 -0.7482
13619TIP3    H140790   8.436   7.750   3.134 -0.3656  0.1616 -1.4007
13619TIP3    H240791   8.363   7.879   3.101  0.0349  0.9062  0.6109
13620TIP3   OH240792   5.048   2.329   5.465 -0.5800  0.3435  0.0388
13620TIP3    H140793   5.140   2.331   5.491  0.3637  0.0612 -3.0772
13620TIP3    H240794   5.000   2.342   5.546  2.2129  0.7254  1.6962
13621TIP3   OH240795   7.504   7.420   0.873  0.1993  0.4884 -0.2047
13621TIP3    H140796   7.448   7.344   0.860 -0.6303  1.1298 -0.3975
13621TIP3    H240797   7.527   7.417   0.966 -0.4473  0.4319 -0.0457
13622TIP3   OH240798   0.305   6.255   0.206  0.5702  0.0037  0.1524
13622TIP3    H140799   0.231   6.310   0.181  0.9535 -0.2593 -1.6428
13622TIP3    H240800   0.277   6.211   0.286 -1.0834  0.1398 -0.3365
13623TIP3   OH240801   6.159   3.259   5.741  0.1980  0.1895  0.6790
13623TIP3    H140802   6.180   3.229   5.652  1.2850 -2.1884  1.6835
13623TIP3    H240803   6.221   3.212   5.797  0.1998  2.4261  2.6243
13624TIP3   OH240804   5.474   3.764   6.733  0.7088 -0.0565  0.3117
13624TIP3    H140805   5.470   3.695   6.666 -0.0977  0.4485 -0.1663
13624TIP3    H240806   5.484   3.845   6.684 -2.9404  0.6458  0.5966
13625TIP3   OH240807   7.285   7.972   2.690  0.3620 -0.0017  0.2147
13625TIP3    H140808   7.276   8.058   2.648  0.7284  1.3728  2.8335
13625TIP3    H240809   7.196   7.949   2.716  0.0581 -1.0871 -1.6435
13626TIP3   OH240810   3.772   0.841   5.693  0.3257 -0.2556  0.0360
13626TIP3    H140811   3.805   0.795   5.770  0.6003 -1.0584 -0.5556
13626TIP3    H240812   3.838   0.827   5.626 -0.3862 -0.4106 -0.6492
13627TIP3   OH240813   1.033   7.058   0.759  0.1968  0.2160  0.0554
13627TIP3    H140814   1.125   7.077   0.777  0.1733  0.4914 -0.1079
13627TIP3    H240815   1.005   7.130   0.702  0.5137 -1.1093 -1.8306
13628TIP3   OH240816   7.319   5.869   5.829  0.0389  0.2653  0.2707
13628TIP3    H140817   7.365   5.952   5.814  0.7936 -0.1366  0.3458
13628TIP3    H240818   7.321   5.857   5.923  0.6241 -0.2351  0.1918
13629TIP3   OH240819   1.502   0.224   1.991 -0.4209  0.2496  0.3094
13629TIP3    H140820   1.497   0.314   2.024  0.8101  0.0497  1.0801
13629TIP3    H240821   1.514   0.170   2.069 -0.9159 -0.5699 -0.1684
13630TIP3   OH240822   7.544   7.039   1.091  0.4068  0.0912 -0.3877
13630TIP3    H140823   7.557   7.058   0.998  0.4902 -2.4196 -0.9306
13630TIP3    H240824   7.629   7.054   1.131  0.3808  1.1505 -0.7028
13631TIP3   OH240825   8.352   6.982   3.668  0.4879 -0.4952  0.4119
13631TIP3    H140826   8.413   6.979   3.593  2.1944 -1.4608  1.8001
13631TIP3    H240827   8.348   7.074   3.692 -2.2276  0.2324 -2.5630
13632TIP3   OH240828   7.098   2.080   6.373 -0.3077  0.3609 -0.3604
13632TIP3    H140829   7.075   1.988   6.392  0.7716  0.1087 -0.2273
13632TIP3    H240830   7.051   2.100   6.293 -2.4981  0.4611  0.9105
13633TIP3   OH240831   5.556   0.959   0.895  0.3330  0.0800  0.3883
13633TIP3    H140832   5.524   0.953   0.805  2.2694  1.3797 -0.4149
13633TIP3    H240833   5.535   1.047   0.924 -1.0887 -0.6161  1.5526
13634TIP3   OH240834   0.232   7.567   0.385  0.2694  0.1833  0.5158
13634TIP3    H140835   0.197   7.570   0.474 -0.8829  0.0956  0.0732
13634TIP3    H240836   0.171   7.511   0.337  0.6100  0.6282 -0.4477
13635TIP3   OH240837   5.765   0.911   2.639 -0.7948 -0.3279 -0.0038
13635TIP3    H140838   5.791   0.881   2.552  1.2138  0.3968  0.3186
13635TIP3    H240839   5.790   1.004   2.641 -0.0948 -0.5239  1.5924
13636TIP3   OH240840   3.101   1.510   2.015 -0.3574 -0.1355  0.4173
13636TIP3    H140841   3.182   1.550   2.049  0.6033 -0.7623 -1.0996
13636TIP3    H240842   3.042   1.511   2.090  0.6563  1.4010  1.2443
13637TIP3   OH240843   1.239   6.845   0.773  0.1857  0.6439  0.2990
13637TIP3    H140844   1.255   6.931   0.733 -2.5517  1.2127  0.3563
13637TIP3    H240845   1.197   6.865   0.857 -1.7778 -0.7664 -0.3143
13638TIP3   OH240846   1.767   1.376   2.104 -0.4268 -0.0131  0.2833
13638TIP3    H140847   1.773   1.469   2.126 -0.5482  0.1000 -0.1653
13638TIP3    H240848   1.858   1.350   2.088 -0.2426 -0.2871  1.6900
13639TIP3   OH240849   5.900   1.607   0.800 -0.8420 -0.0819  0.0039
13639TIP3    H140850   5.861   1.646   0.721 -1.2196 -0.6855 -0.1157
13639TIP3    H240851   5.941   1.680   0.846 -0.5800  0.2690 -0.7789
13640TIP3   OH240852   4.804   1.486   1.347 -0.6316 -0.0693 -0.4093
13640TIP3    H140853   4.748   1.410   1.330 -0.3682 -0.3804  0.0831
13640TIP3    H240854   4.879   1.449   1.395  0.0909  0.3037 -1.2328
13641TIP3   OH240855   0.549   6.963   1.101 -0.2670 -0.0191 -0.0797
13641TIP3    H140856   0.492   6.964   1.024 -1.1082 -0.2748  0.5330
13641TIP3    H240857   0.611   7.034   1.085 -0.1530 -0.3565 -1.2012
13642TIP3   OH240858   0.102   3.705   6.359  0.3240 -0.0052  0.4789
13642TIP3    H140859   0.141   3.621   6.337 -0.8474 -0.5461  0.4818
13642TIP3    H240860   0.132   3.722   6.449  1.4731  0.1257  0.0864
13643TIP3   OH240861   3.972   0.499   1.752 -0.1098 -0.0755  0.0529
13643TIP3    H140862   3.895   0.554   1.735  0.4925  0.5090 -0.8778
13643TIP3    H240863   3.942   0.433   1.813 -1.3668  0.1365 -0.3259
13644TIP3   OH240864   2.628   0.785   2.312 -0.6810 -0.2057 -0.2948
13644TIP3    H140865   2.619   0.832   2.395 -1.3276 -0.4037 -0.2496
13644TIP3    H240866   2.632   0.853   2.245  3.9478  0.1712  0.1960
13645TIP3   OH240867   1.929   7.571   0.388 -0.2094  0.7861 -0.2450
13645TIP3    H140868   1.889   7.503   0.334  0.0800  1.1524 -0.9362
13645TIP3    H240869   1.901   7.653   0.348  1.9239  1.0498 -1.3038
13646TIP3   OH240870   4.137   2.719   1.037 -0.2732  0.2602  0.0635
13646TIP3    H140871   4.063   2.778   1.025 -0.9294 -0.4925  0.4183
13646TIP3    H240872   4.100   2.641   1.078  1.0638  0.7739  2.3492
13647TIP3   OH240873   4.178   0.381   0.027 -0.1730 -0.4549 -0.3243
13647TIP3    H140874   4.248   0.338   0.076  0.6691  1.1624 -0.0661
13647TIP3    H240875   4.192   0.354  -0.063  0.7481 -0.2204 -0.2623
13648TIP3   OH240876   3.799   7.696   1.243 -0.3170 -0.3748 -0.5805
13648TIP3    H140877   3.873   7.757   1.235  0.0915 -0.8393 -0.3784
13648TIP3    H240878   3.820   7.625   1.182  0.2325 -1.3342  0.7034
13649TIP3   OH240879   3.852   0.702   0.355 -0.0281  0.4551  0.7711
13649TIP3    H140880   3.915   0.709   0.426  0.2682 -2.2600  0.8130
13649TIP3    H240881   3.821   0.611   0.358 -0.6748  0.5307 -1.9792
13650TIP3   OH240882   7.772   5.629   6.000 -0.3163  0.2712 -0.3366
13650TIP3    H140883   7.772   5.602   5.908  0.4375  0.4088 -0.3801
13650TIP3    H240884   7.798   5.550   6.048  0.2764  0.4692 -0.3280
13651TIP3   OH240885   4.849   0.347   2.347 -0.2515 -0.5432  0.3047
13651TIP3    H140886   4.853   0.430   2.299  0.2275 -0.0147  1.2346
13651TIP3    H240887   4.805   0.287   2.288 -3.7618  1.2721  0.9202
13652TIP3   OH240888   3.868   1.310   0.699 -0.7887 -0.0271 -0.1156
13652TIP3    H140889   3.828   1.232   0.660 -1.4574 -0.0063  0.5299
13652TIP3    H240890   3.962   1.297   0.686 -0.8988 -0.9363 -0.0273
13653TIP3   OH240891   0.758   3.811   6.049  0.1281  0.1688  0.1243
13653TIP3    H140892   0.698   3.826   6.122  0.8574  0.9531  0.5747
13653TIP3    H240893   0.711   3.752   5.990 -0.9173  0.4593  0.6676
13654TIP3   OH240894   4.898   0.749   2.701 -0.5671  0.3366  0.1247
13654TIP3    H140895   4.886   0.826   2.756 -0.1540  0.2203  0.3841
13654TIP3    H240896   4.818   0.698   2.712 -0.5958  0.4425  0.4137
13655TIP3   OH240897   2.216   7.921   0.145 -0.4893  0.0197 -0.0102
13655TIP3    H140898   2.224   8.012   0.174 -0.7773  0.0504 -0.0271
13655TIP3    H240899   2.192   7.927   0.053 -0.2184 -0.0760 -0.0883
13656TIP3   OH240900   1.606   7.602   1.586 -0.0419 -0.5470 -0.0448
13656TIP3    H140901   1.523   7.566   1.617 -0.6698  1.7841  1.0951
13656TIP3    H240902   1.583   7.650   1.506 -0.1012  1.3320  1.0601
13657TIP3   OH240903   7.776   7.562   2.648  0.6966  0.1193  0.1257
13657TIP3    H140904   7.868   7.558   2.675  0.4549  0.4302  0.9991
13657TIP3    H240905   7.778   7.535   2.556  2.1196  3.3187 -0.8749
13658TIP3   OH240906   3.050   0.403   2.375  0.0911  0.7743  0.2896
13658TIP3    H140907   2.956   0.415   2.360  0.1501 -0.8330 -1.5336
13658TIP3    H240908   3.091   0.426   2.291  1.0231 -1.8246 -0.0041
13659TIP3   OH240909   5.885   4.916   6.285 -0.0053  0.2120  0.2931
13659TIP3    H140910   5.827   4.942   6.358 -0.9887 -0.1621 -0.3471
13659TIP3    H240911   5.825   4.897   6.213  0.9002 -0.7291 -0.2147
13660TIP3   OH240912   6.208   1.449   1.939 -0.5324 -0.0553 -0.2213
13660TIP3    H140913   6.149   1.487   2.004  1.0241 -0.3007  1.3859
13660TIP3    H240914   6.181   1.358   1.933 -0.3844 -0.1430  0.4311
13661TIP3   OH240915   4.740   2.813   6.426 -0.5178  0.1096 -0.4748
13661TIP3    H140916   4.817   2.849   6.383 -0.5016 -0.7665 -1.1902
13661TIP3    H240917   4.694   2.889   6.462  1.8925  0.4972  2.0124
13662TIP3   OH240918   4.171   1.769   1.450 -0.5087 -0.1378 -0.2597
13662TIP3    H140919   4.232   1.706   1.490  0.3986  1.4362  0.8540
13662TIP3    H240920   4.095   1.716   1.425 -1.5157 -1.0583  4.3451
13663TIP3   OH240921   7.584   7.372   0.213  0.6927 -0.0606  0.0443
13663TIP3    H140922   7.623   7.412   0.135 -0.4010 -0.2736 -0.6198
13663TIP3    H240923   7.545   7.290   0.181  0.5825 -0.3441  0.8869
13664TIP3   OH240924   4.509   2.051   3.080 -0.5335  0.5323  0.8300
13664TIP3    H140925   4.478   1.967   3.113 -0.6364 -0.2810 -1.2501
13664TIP3    H240926   4.598   2.033   3.049 -0.7728  1.0418 -0.1650
13665TIP3   OH240927   8.332   3.935   4.595 -0.0684 -0.7812 -0.0922
13665TIP3    H140928   8.364   3.858   4.643 -0.0784 -1.0343 -0.4922
13665TIP3    H240929   8.306   3.901   4.510 -0.1773 -0.3495 -0.2322
13666TIP3   OH240930   6.141   4.821   6.078 -0.0145 -0.2634 -0.1664
13666TIP3    H140931   6.092   4.832   5.996 -0.8587 -0.4988  0.3071
13666TIP3    H240932   6.195   4.743   6.062 -0.8812 -0.8746 -0.1580
13667TIP3   OH240933   4.832   1.266   0.738  0.6922 -0.2205 -0.1304
13667TIP3    H140934   4.825   1.356   0.706 -3.3348 -1.2282 -2.2863
13667TIP3    H240935   4.833   1.275   0.834 -4.5041  1.9853 -0.1224
13668TIP3   OH240936   5.104   1.888   1.897 -0.4317 -0.2477 -0.3514
13668TIP3    H140937   5.191   1.864   1.866 -0.6481 -0.3756 -0.8781
13668TIP3    H240938   5.086   1.973   1.856 -0.8967 -0.6206 -0.9324
13669TIP3   OH240939   0.308   7.970   0.960 -0.7775 -0.2186  0.5142
13669TIP3    H140940   0.259   8.023   0.897  0.7490 -0.1879 -0.6766
13669TIP3    H240941   0.346   8.034   1.021  0.4134  0.0168 -0.4587
13670TIP3   OH240942   2.538   7.485   1.534  0.5308  0.9702  0.0941
13670TIP3    H140943   2.571   7.493   1.623  0.6995 -0.1751  0.1430
13670TIP3    H240944   2.606   7.437   1.487 -0.8484 -1.0700  0.1079
13671TIP3   OH240945   2.992   7.962   1.550 -0.0181  0.6376  0.2241
13671TIP3    H140946   2.973   7.873   1.577 -2.2741  1.2634  0.7939
13671TIP3    H240947   2.951   7.971   1.464 -0.3016  1.2846  0.4210
13672TIP3   OH240948   2.677   1.541   0.075 -0.0346 -0.1085 -0.1714
13672TIP3    H140949   2.632   1.473   0.024  1.0499 -0.1721 -1.0604
13672TIP3    H240950   2.675   1.508   0.165  0.7597 -1.4937 -0.6332
13673TIP3   OH240951   7.891   3.680   4.607  0.3064  1.0147  0.2509
13673TIP3    H140952   7.891   3.738   4.530  2.2458  1.7569  0.7945
13673TIP3    H240953   7.975   3.636   4.603 -0.9098 -1.3787  0.1812
13674TIP3   OH240954   4.828   1.009   1.503 -0.3588  0.2513  0.4370
13674TIP3    H140955   4.786   0.982   1.584 -0.8532  0.7177  0.3345
13674TIP3    H240956   4.893   0.940   1.486 -1.5060 -0.8064  0.2545
13675TIP3   OH240957   6.708   4.028   0.296 -0.5742 -0.4942 -0.2291
13675TIP3    H140958   6.756   4.107   0.319  2.1036 -2.5114  1.4326
13675TIP3    H240959   6.732   4.012   0.204  2.5491 -1.8187  0.7590
13676TIP3   OH240960   6.488   0.496   0.485  0.3424 -0.4958 -0.2366
13676TIP3    H140961   6.475   0.583   0.523 -2.0615  0.2291 -2.5478
13676TIP3    H240962   6.561   0.507   0.424 -0.4590  0.1682 -1.1107
13677TIP3   OH240963   0.728   3.167   5.053 -1.0671  0.7681  0.0804
13677TIP3    H140964   0.738   3.257   5.084 -1.6772  0.7211  0.4082
13677TIP3    H240965   0.700   3.177   4.962  1.7389  0.9043 -0.8133
13678TIP3   OH240966   7.126   4.507   6.723 -0.1282 -0.1504 -0.0204
13678TIP3    H140967   7.125   4.594   6.682 -1.6318 -0.7966 -1.4209
13678TIP3    H240968   7.114   4.525   6.816 -0.5795  1.1537 -0.3135
13679TIP3   OH240969   5.545   0.723   0.345 -0.3788 -0.3179 -0.5369
13679TIP3    H140970   5.499   0.642   0.369 -0.3504 -0.1546  0.0583
13679TIP3    H240971   5.636   0.705   0.367 -0.4490  0.0615  0.0581
13680TIP3   OH240972   7.339   2.544   6.883 -0.4171 -0.1393 -0.1302
13680TIP3    H140973   7.276   2.475   6.903 -0.9058  0.2577 -0.3062
13680TIP3    H240974   7.421   2.497   6.865 -0.9242 -0.7172 -0.9560
13681TIP3   OH240975   1.780   5.247   2.834 -0.3056 -0.2427  0.0539
13681TIP3    H140976   1.829   5.303   2.774 -1.4136 -1.3725 -1.9503
13681TIP3    H240977   1.826   5.163   2.833 -0.2168 -0.2099  0.9459
13682TIP3   OH240978   7.863   7.600   0.883  0.2261 -0.0606 -0.2611
13682TIP3    H140979   7.815   7.558   0.811  0.1697  1.7164 -1.2853
13682TIP3    H240980   7.804   7.669   0.914 -0.0644 -1.2665  2.0276
13683TIP3   OH240981   7.826   1.260   6.224  0.4392  0.1491 -0.2440
13683TIP3    H140982   7.764   1.250   6.151  1.7455 -1.7958 -1.1353
13683TIP3    H240983   7.792   1.202   6.292  0.1331  0.7036  0.0827
13684TIP3   OH240984   2.092   1.089   2.052  0.6660  0.1925 -0.6313
13684TIP3    H140985   2.154   1.023   2.021 -1.4889 -1.9302 -0.4925
13684TIP3    H240986   2.022   1.088   1.987  0.0201  1.4890  0.0313
13685TIP3   OH240987   2.634   6.682   1.798  0.2441  0.3967  0.0134
13685TIP3    H140988   2.650   6.619   1.869 -1.4656 -1.4129 -1.1414
13685TIP3    H240989   2.704   6.664   1.735  0.4455  0.4744  0.2122
13686TIP3   OH240990   0.157   7.065   1.770  0.2101  0.2994 -0.6002
13686TIP3    H140991   0.215   7.075   1.845 -1.1961 -1.6487  0.8156
13686TIP3    H240992   0.069   7.079   1.805 -0.3376  1.3561 -2.3111
13687TIP3   OH240993   2.913   1.053   0.261 -0.0681 -0.3788 -0.4711
13687TIP3    H140994   2.939   0.963   0.280 -0.2579 -0.6553 -1.4942
13687TIP3    H240995   2.838   1.045   0.202 -0.4962  0.4432 -0.0574
13688TIP3   OH240996   8.304   1.975   5.991 -0.6345  0.1762  0.2511
13688TIP3    H140997   8.291   1.972   6.086  1.2226  0.6582  0.5452
13688TIP3    H240998   8.332   2.065   5.973 -3.2190  0.7580 -1.0878
13689TIP3   OH240999   7.547   2.084   5.992 -0.4294  0.0799 -0.6571
13689TIP3    H141000   7.580   1.999   5.961 -0.4966 -0.0525 -0.3646
13689TIP3    H241001   7.452   2.073   5.992 -0.4151 -0.0241 -0.0966
13690TIP3   OH241002   0.930   4.717   2.676 -0.5402  0.1794 -0.3492
13690TIP3    H141003   0.995   4.760   2.620  1.5238 -1.7922  0.4708
13690TIP3    H241004   0.978   4.694   2.755 -2.3258 -1.0415  0.4145
13691TIP3   OH241005   2.546   0.511   1.447  0.3139 -0.1374  0.1014
13691TIP3    H141006   2.458   0.480   1.426  0.8939 -0.2735 -2.1999
13691TIP3    H241007   2.604   0.455   1.397  1.6392  1.0733  0.2476
13692TIP3   OH241008   0.192   4.209   1.974 -0.0560 -0.4973  0.7551
13692TIP3    H141009   0.238   4.155   1.909 -0.3093 -1.9747  1.7630
13692TIP3    H241010   0.116   4.242   1.928  0.7807  0.0387 -0.2543
13693TIP3   OH241011   4.585   2.571   1.112  0.0885 -0.2418 -0.1998
13693TIP3    H141012   4.623   2.575   1.200 -0.6317  0.1135  0.0954
13693TIP3    H241013   4.565   2.662   1.091 -0.4634 -0.4115 -0.4141
13694TIP3   OH241014   0.975   6.276   1.332  0.0516  0.1659 -0.2695
13694TIP3    H141015   1.060   6.234   1.344  1.1217  1.8267 -1.6824
13694TIP3    H241016   0.950   6.253   1.242 -2.0923 -2.1739  0.8796
13695TIP3   OH241017   3.762   0.068   2.438  0.1056 -0.1190  0.4258
13695TIP3    H141018   3.700   0.006   2.476 -1.0947  1.4048  0.9747
13695TIP3    H241019   3.733   0.078   2.348  0.0645 -0.0584  0.4457
13696TIP3   OH241020   8.226   4.407   4.980  0.5061 -0.3311 -0.1482
13696TIP3    H141021   8.277   4.467   5.035  2.5056 -1.1472 -1.0419
13696TIP3    H241022   8.277   4.401   4.899 -1.0514 -1.1822 -1.0824
13697TIP3   OH241023   7.731   7.832   0.601 -0.2806 -0.1442 -0.3851
13697TIP3    H141024   7.815   7.804   0.636 -0.3574 -1.2526 -1.0466
13697TIP3    H241025   7.667   7.799   0.665 -0.1884  1.2870  0.4728
13698TIP3   OH241026   2.601   7.232   0.488 -0.7568 -0.1058  0.3678
13698TIP3    H141027   2.620   7.216   0.581  0.8725  1.2590  0.3064
13698TIP3    H241028   2.688   7.240   0.448 -1.4380  3.2759 -0.5388
13699TIP3   OH241029   1.038   7.732   3.672  0.4206  0.2720  0.7892
13699TIP3    H141030   1.069   7.729   3.763  0.5178  2.2573  0.8447
13699TIP3    H241031   0.945   7.710   3.678  0.2296  1.2506  1.4793
13700TIP3   OH241032   3.566   7.234   3.155  0.1261 -0.1495  0.0146
13700TIP3    H141033   3.602   7.145   3.158  0.9243  0.1874  0.3863
13700TIP3    H241034   3.598   7.270   3.073 -0.1002 -0.1646 -0.0794
13701TIP3   OH241035   5.311   0.856   0.322  0.5416  0.2570  0.1447
13701TIP3    H141036   5.355   0.773   0.338 -0.7199 -0.1706  1.5041
13701TIP3    H241037   5.373   0.922   0.355  0.8275 -0.2407  0.6168
13702TIP3   OH241038   0.916   6.997   1.004 -0.4799  0.2113  0.4271
13702TIP3    H141039   0.928   7.026   0.914  1.0085  2.7588  1.3853
13702TIP3    H241040   1.005   6.983   1.037 -0.9406  0.5164  1.8584
13703TIP3   OH241041   2.345   0.751   1.659  0.2452  0.0703 -0.1842
13703TIP3    H141042   2.254   0.779   1.646  0.1371  0.0122  0.4094
13703TIP3    H241043   2.341   0.655   1.654  0.6005  0.1371 -2.1305
13704TIP3   OH241044   4.647   1.269   1.600 -0.4071 -0.0275 -0.8584
13704TIP3    H141045   4.658   1.207   1.528  1.2110 -0.0398 -0.6319
13704TIP3    H241046   4.708   1.340   1.580 -0.2342  0.1534  0.2945
13705TIP3   OH241047   5.499   0.028   1.054 -0.3535 -0.1667  0.0841
13705TIP3    H141048   5.546   0.028   0.970 -1.4720  1.2886 -0.5745
13705TIP3    H241049   5.426  -0.032   1.040  0.4376 -1.2596  0.6029
13706TIP3   OH241050   1.433   7.610   1.030 -0.0265 -0.5855  0.3730
13706TIP3    H141051   1.490   7.682   1.001 -0.1843 -0.1238  1.2105
13706TIP3    H241052   1.383   7.587   0.952 -0.4332  0.6424  0.2643
13707TIP3   OH241053   6.202   1.245   0.251 -0.1372  0.4194 -0.2781
13707TIP3    H141054   6.239   1.326   0.214 -0.0224 -0.2650 -1.7047
13707TIP3    H241055   6.279   1.194   0.277 -0.2498  1.3502  1.9029
13708TIP3   OH241056   5.289   4.506   6.288 -0.0412 -0.2543 -0.0605
13708TIP3    H141057   5.261   4.552   6.367  0.5156  1.8253 -1.0439
13708TIP3    H241058   5.252   4.418   6.297 -0.7759  0.2501  2.0584
13709TIP3   OH241059   6.395   4.998   6.515 -0.2101  0.3815 -0.5408
13709TIP3    H141060   6.426   5.051   6.442 -0.6745 -1.7521 -2.3336
13709TIP3    H241061   6.446   4.917   6.509 -1.9636 -0.7910  0.0360
13710TIP3   OH241062   0.603   7.314   0.872  0.1506 -0.0903  0.0844
13710TIP3    H141063   0.689   7.355   0.879  0.3250 -0.7582  2.2806
13710TIP3    H241064   0.622   7.221   0.859 -0.2178 -0.2576  0.6989
13711TIP3   OH241065   8.269   7.397   2.059 -0.0528 -0.0951  0.3045
13711TIP3    H141066   8.276   7.457   2.133 -0.5944 -1.5409  1.5403
13711TIP3    H241067   8.176   7.377   2.052  0.3460 -2.3797  1.2003
13712TIP3   OH241068   1.635   7.525   0.688  0.2106  0.6686 -0.3842
13712TIP3    H141069   1.678   7.459   0.634  0.9060  0.2642  0.6405
13712TIP3    H241070   1.707   7.573   0.729 -0.3083  0.4721  0.7762
13713TIP3   OH241071   2.454   6.335   1.181 -0.9466 -0.2536 -0.0193
13713TIP3    H141072   2.455   6.270   1.251 -0.9555 -1.3108 -0.9914
13713TIP3    H241073   2.537   6.383   1.191 -1.3303  0.1597  1.2191
13714TIP3   OH241074   1.748   0.610   1.330 -0.4503  0.1067 -0.0484
13714TIP3    H141075   1.679   0.585   1.392  0.2682  0.4298  0.8979
13714TIP3    H241076   1.705   0.669   1.268 -1.2016 -0.2993  0.0800
13715TIP3   OH241077   1.386   7.295   1.609  0.4805  0.1221 -0.4873
13715TIP3    H141078   1.334   7.224   1.646  2.2563 -0.3977  1.1391
13715TIP3    H241079   1.367   7.370   1.665  1.5724 -0.1176  0.2298
13716TIP3   OH241080   2.086   0.100   0.550  0.0874 -0.5162 -0.1763
13716TIP3    H141081   2.173   0.118   0.585 -0.7134 -0.9519  2.1121
13716TIP3    H241082   2.078   0.004   0.553 -1.4261 -0.3596  2.1251
13717TIP3   OH241083   2.204   7.494   0.499 -0.5632 -0.2407 -0.8118
13717TIP3    H141084   2.274   7.558   0.517 -0.7170 -0.3911  0.3150
13717TIP3    H241085   2.123   7.544   0.510 -0.8239 -1.4552  3.6662
13718TIP3   OH241086   3.301   4.115   4.966 -0.4166 -0.3244 -0.0881
13718TIP3    H141087   3.354   4.193   4.955 -1.5509  0.4915  0.1007
13718TIP3    H241088   3.324   4.059   4.892  1.4651 -0.4445  0.5828
13719TIP3   OH241089   6.836   5.543   6.888 -0.4769  0.1119  0.3257
13719TIP3    H141090   6.822   5.449   6.891  2.1030 -0.2674  2.2879
13719TIP3    H241091   6.906   5.554   6.823 -0.1265  0.5881  0.7838
13720TIP3   OH241092   5.951   1.046   0.438  0.4180  0.4663 -0.2303
13720TIP3    H141093   5.955   1.099   0.517  0.4818 -1.3063  0.9842
13720TIP3    H241094   5.911   0.964   0.466  2.1644 -0.9108 -1.6106
13721TIP3   OH241095   2.483   0.933   0.228  0.1254  0.1656  0.1519
13721TIP3    H141096   2.416   0.919   0.294 -1.1239  0.6862 -0.9804
13721TIP3    H241097   2.435   0.960   0.150  1.3597 -2.5143 -1.6272
13722TIP3   OH241098   3.156   6.856   1.243  0.9226  0.4227 -0.5368
13722TIP3    H141099   3.126   6.919   1.177 -0.8391  0.8508  0.6323
13722TIP3    H241100   3.075   6.823   1.283  1.8892 -1.3276  0.0361
13723TIP3   OH241101   0.456   7.434   0.509  0.1172  0.1748 -0.0063
13723TIP3    H141102   0.385   7.461   0.449  0.6113  1.5148 -0.0163
13723TIP3    H241103   0.412   7.422   0.593 -0.2583  0.2192 -0.1920
13724TIP3   OH241104   3.413   2.038   1.810 -0.2462  0.0696 -0.4626
13724TIP3    H141105   3.443   1.947   1.806  0.7440  0.4163 -1.1343
13724TIP3    H241106   3.454   2.073   1.889  0.4094  0.2824 -0.8879
13725TIP3   OH241107   2.048   5.665   0.097  0.0185 -0.2528  0.5784
13725TIP3    H141108   2.028   5.572   0.086 -0.4155 -0.1977  0.8771
13725TIP3    H241109   2.140   5.667   0.124 -0.0437 -0.6063  0.8176
13726TIP3   OH241110   5.816   4.973   5.460  0.0096  0.2956  0.0772
13726TIP3    H141111   5.767   5.050   5.488 -0.3805 -0.1968  0.7557
13726TIP3    H241112   5.752   4.902   5.461  0.7116 -0.3262  0.8379
13727TIP3   OH241113   8.509   4.966   1.271  0.6105  0.0138  0.2591
13727TIP3    H141114   8.447   4.986   1.340  1.1463 -1.9422  1.3524
13727TIP3    H241115   8.536   5.051   1.237 -0.7852  0.9424  1.4425
13728TIP3   OH241116   2.667   7.890   0.163  0.4769 -0.3193 -0.3662
13728TIP3    H141117   2.597   7.942   0.203  0.8600 -0.9433  1.1524
13728TIP3    H241118   2.638   7.876   0.073 -0.6796  0.6378 -0.1512
13729TIP3   OH241119   4.338   1.634   1.622 -0.4625  0.4018  0.5307
13729TIP3    H141120   4.342   1.628   1.717  3.0478  0.2905  0.4341
13729TIP3    H241121   4.337   1.543   1.592  0.7824  0.4036  0.4388
13730TIP3   OH241122   6.743   3.992   6.232 -0.3749  0.1801  0.7114
13730TIP3    H141123   6.786   4.068   6.272 -2.4648  2.3675 -0.9860
13730TIP3    H241124   6.811   3.950   6.180  0.4347  1.8671  0.3611
13731TIP3   OH241125   0.002   5.226   6.841  0.0453 -0.5747  0.2694
13731TIP3    H141126   0.077   5.244   6.786 -0.5592  0.7677 -0.1291
13731TIP3    H241127   0.015   5.280   6.919 -0.5981 -0.1692  0.1046
13732TIP3   OH241128   5.905   5.064   5.216 -0.0915  0.1580 -0.5000
13732TIP3    H141129   5.913   4.995   5.151 -1.3392 -0.5835  0.1081
13732TIP3    H241130   5.883   5.019   5.297  1.3352  1.0848  0.4190
13733TIP3   OH241131   8.119   2.886   6.638 -0.1947 -0.0495  0.0438
13733TIP3    H141132   8.186   2.857   6.699  0.4782 -0.1548 -0.7404
13733TIP3    H241133   8.151   2.969   6.603 -0.6833  0.1292  0.0104
13734TIP3   OH241134   7.574   4.279   6.624 -0.9092  0.8535 -0.0266
13734TIP3    H141135   7.530   4.252   6.543 -0.1792 -0.9843  0.1734
13734TIP3    H241136   7.660   4.311   6.595 -0.4538 -0.2808  0.0709
13735TIP3   OH241137   5.684   3.043   6.207  0.2070 -0.1644  0.0320
13735TIP3    H141138   5.673   3.029   6.112 -0.3157 -0.6165  0.1503
13735TIP3    H241139   5.642   2.966   6.246  0.7011 -0.1276  0.6224
13736TIP3   OH241140   6.851   4.730   6.505 -0.3371  0.4121 -0.1509
13736TIP3    H141141   6.870   4.795   6.437 -1.9279  0.0947 -0.9347
13736TIP3    H241142   6.929   4.728   6.559  1.5792 -0.4143 -2.8798
13737TIP3   OH241143   6.393   4.511   6.611 -0.0995 -0.0727  0.2318
13737TIP3    H141144   6.452   4.441   6.640 -0.6073 -0.4820  0.2956
13737TIP3    H241145   6.426   4.589   6.655  0.9625 -0.1128 -0.4727
13738TIP3   OH241146   2.503   6.313   2.901 -0.1348  0.1364  0.1103
13738TIP3    H141147   2.538   6.386   2.951  0.3819  0.8729 -1.2877
13738TIP3    H241148   2.560   6.239   2.922  1.8986  1.1431 -1.5805
13739TIP3   OH241149   7.801   3.655   5.917 -0.3252 -0.1419  0.1039
13739TIP3    H141150   7.751   3.630   5.995  0.0370  0.2343  0.4567
13739TIP3    H241151   7.892   3.658   5.947 -0.0883 -0.8833 -0.5524
13740TIP3   OH241152   1.067   6.398   0.659 -0.3879  0.0127 -0.3137
13740TIP3    H141153   1.021   6.432   0.583  0.2937 -1.7567 -1.5416
13740TIP3    H241154   1.034   6.308   0.669 -1.5667  0.6625  2.3775
13741TIP3   OH241155   1.098   7.737   0.827 -0.2008 -0.1955  0.1779
13741TIP3    H141156   1.128   7.821   0.863 -2.2405  0.6053  0.0524
13741TIP3    H241157   1.023   7.760   0.772 -0.5883 -2.0742 -0.1013
13742TIP3   OH241158   4.642   4.455   6.934 -0.1520  0.0578 -0.0609
13742TIP3    H141159   4.651   4.533   6.879 -0.3132 -1.0304 -1.6704
13742TIP3    H241160   4.727   4.445   6.976  0.8373 -0.5917 -2.1678
13743TIP3   OH241161   5.804   1.373   2.069  0.0051 -0.2835 -0.5159
13743TIP3    H141162   5.787   1.430   1.994  1.6817 -2.7708 -2.8782
13743TIP3    H241163   5.883   1.409   2.109 -0.1135  0.2370 -0.7445
13744TIP3   OH241164   8.214   4.841   6.912  0.3082  0.3508 -0.0833
13744TIP3    H141165   8.254   4.759   6.883  2.6924  0.9783  1.2672
13744TIP3    H241166   8.232   4.844   7.006 -1.4480  1.5060  0.2259
13745TIP3   OH241167   4.175   1.614   1.019 -0.1211 -0.4562  0.1454
13745TIP3    H141168   4.238   1.637   0.951 -0.8067  1.2073  0.0488
13745TIP3    H241169   4.199   1.525   1.044  2.1512  0.0561 -0.0244
13746TIP3   OH241170   6.007   1.315   1.320 -0.2887 -0.1126 -0.4894
13746TIP3    H141171   5.940   1.270   1.372 -0.1682  0.7464  0.4244
13746TIP3    H241172   6.072   1.343   1.384  1.2499 -1.4530 -1.4456
13747TIP3   OH241173   0.830   4.445   6.876  0.7152 -0.2180  0.3047
13747TIP3    H141174   0.880   4.447   6.794  0.1831 -0.1763 -0.0220
13747TIP3    H241175   0.791   4.531   6.882  0.5434 -0.3087  0.4723
13748TIP3   OH241176   2.881   1.620   1.219  0.5620  0.5936  0.2178
13748TIP3    H141177   2.798   1.578   1.197  1.1114  0.1451 -1.1150
13748TIP3    H241178   2.936   1.549   1.252  0.8879  0.5954 -0.3022
13749TIP3   OH241179   6.283   3.866   6.353  0.4055  0.3625 -0.3366
13749TIP3    H141180   6.232   3.935   6.396 -0.9593 -0.4237 -0.6671
13749TIP3    H241181   6.340   3.832   6.423 -1.7022 -0.8127  0.8605
13750TIP3   OH241182   1.752   0.437   2.846 -0.2262 -0.2172  0.3218
13750TIP3    H141183   1.683   0.414   2.784 -0.5049 -0.7304  0.8106
13750TIP3    H241184   1.714   0.506   2.900  0.8597  1.9647 -1.6015
13751TIP3   OH241185   8.209   1.700   6.054  0.1368  0.0093  0.3390
13751TIP3    H141186   8.148   1.697   6.128  0.2597  1.0995  0.5021
13751TIP3    H241187   8.192   1.785   6.013 -0.2647 -0.7826 -1.1885
13752TIP3   OH241188   5.848   5.512   4.599 -0.0460  0.1035 -0.3399
13752TIP3    H141189   5.876   5.425   4.625 -0.2214 -0.4002 -1.7950
13752TIP3    H241190   5.753   5.507   4.596  0.0116 -0.2546 -2.3739
13753TIP3   OH241191   4.882   0.453   1.226 -0.2490 -0.1098 -0.2843
13753TIP3    H141192   4.888   0.516   1.298  0.5802  0.8679 -1.1869
13753TIP3    H241193   4.937   0.380   1.254 -1.4434 -0.5739  0.8942
13754TIP3   OH241194   2.593   0.793   1.450  0.2658  0.3964  0.3161
13754TIP3    H141195   2.510   0.827   1.483 -0.0088  0.0172  0.0072
13754TIP3    H241196   2.583   0.698   1.451  1.2884  0.2790  1.8670
13755TIP3   OH241197   0.367   1.515   6.689  0.3283  0.2821  0.1527
13755TIP3    H141198   0.373   1.594   6.637  0.7277  0.2623  0.1672
13755TIP3    H241199   0.330   1.449   6.629 -3.6521  1.4202  1.1838
13756TIP3   OH241200   8.013   4.582   6.785 -0.3165  0.2742 -0.0165
13756TIP3    H141201   8.106   4.566   6.802 -0.2774  0.3351 -0.1776
13756TIP3    H241202   7.975   4.495   6.772 -0.7532  0.0380  2.4645
13757TIP3   OH241203   3.023   5.812   6.380  0.2856  0.3762  0.1546
13757TIP3    H141204   3.087   5.742   6.384 -0.0141  0.0327 -0.8939
13757TIP3    H241205   3.070   5.886   6.342  0.1357  0.2015 -0.3773
13758TIP3   OH241206   1.040   6.290   2.987 -0.2434 -0.2139  0.6295
13758TIP3    H141207   1.073   6.239   2.913 -1.8567 -0.5802  0.1444
13758TIP3    H241208   1.055   6.381   2.961 -0.2353 -0.3561  0.1245
13759TIP3   OH241209   0.398   5.953   1.270  0.5854  0.0333  0.0606
13759TIP3    H141210   0.425   5.862   1.259 -1.4123 -0.5981  0.2257
13759TIP3    H241211   0.305   5.954   1.247  1.0413  2.4197 -1.9644
13760TIP3   OH241212   7.971   4.598   6.346 -0.0798  0.3600  0.2389
13760TIP3    H141213   7.889   4.568   6.384 -0.1168  2.1329  1.6399
13760TIP3    H241214   7.946   4.667   6.284  0.3251  0.8250  0.5827
13761TIP3   OH241215   8.356   6.084   1.254  0.3657  0.7156 -0.2348
13761TIP3    H141216   8.373   6.176   1.237 -0.8331  0.7045 -1.5921
13761TIP3    H241217   8.344   6.078   1.349  1.3075  1.8043 -0.0482
13762TIP3   OH241218   4.948   1.730   1.509 -0.2511 -0.1665 -0.2317
13762TIP3    H141219   4.953   1.821   1.538  0.5715 -0.1062 -0.5514
13762TIP3    H241220   4.905   1.734   1.423 -0.8264 -0.1456  0.0575
13763TIP3   OH241221   3.739   0.707   0.690  0.4405 -0.1671 -0.2099
13763TIP3    H141222   3.701   0.631   0.647 -1.5775  0.6113  0.1590
13763TIP3    H241223   3.685   0.781   0.662 -0.3864  0.5010  2.8926
13764TIP3   OH241224   0.687   2.879   6.532 -0.2862 -0.2286  0.2480
13764TIP3    H141225   0.593   2.881   6.549 -0.2288  0.1266  0.5342
13764TIP3    H241226   0.699   2.937   6.456 -0.4542 -1.2620 -0.5763
13765TIP3   OH241227   3.202   6.497   1.631 -0.0000  0.2744 -0.3524
13765TIP3    H141228   3.286   6.527   1.666 -1.3099  0.2021  3.0200
13765TIP3    H241229   3.212   6.502   1.536  3.7295  0.4758  0.0042
13766TIP3   OH241230   2.978   1.373   0.752 -0.0467 -0.0826  0.2364
13766TIP3    H141231   2.897   1.342   0.793 -0.4809  1.4899  0.6105
13766TIP3    H241232   3.001   1.452   0.802  1.7257 -0.5209  0.1383
13767TIP3   OH241233   7.190   1.065   0.653 -0.2163  0.0860  0.0657
13767TIP3    H141234   7.108   1.106   0.679 -0.6553  0.0977 -1.2738
13767TIP3    H241235   7.182   1.055   0.558  1.1157 -0.3895 -0.0017
13768TIP3   OH241236   6.424   1.345   1.128  0.7848 -0.2746 -0.1173
13768TIP3    H141237   6.381   1.274   1.175  1.1614  0.3497  1.2016
13768TIP3    H241238   6.493   1.375   1.188  2.0973 -0.2981 -1.5937
13769TIP3   OH241239   1.354   6.124   0.693  0.1672  0.1912 -0.2200
13769TIP3    H141240   1.286   6.112   0.626  0.7893 -0.3793 -0.7480
13769TIP3    H241241   1.318   6.083   0.771 -0.0721 -0.1708 -0.5189
13770TIP3   OH241242   2.214   7.391   0.096  0.2864 -0.2314  0.6519
13770TIP3    H141243   2.192   7.481   0.119  0.4095 -0.3840  1.3720
13770TIP3    H241244   2.255   7.355   0.175  1.8393 -0.3714 -0.1849
13771TIP3   OH241245   6.162   4.019   6.071  0.3766 -0.0211 -0.3812
13771TIP3    H141246   6.197   3.945   6.121  0.0504 -1.2403 -1.9222
13771TIP3    H241247   6.074   4.033   6.106  0.5341 -0.1855  0.0886
13772TIP3   OH241248   1.453   2.800   5.741  0.2505 -0.0063 -0.0399
13772TIP3    H141249   1.410   2.719   5.716  0.5389  0.4471 -2.0592
13772TIP3    H241250   1.510   2.775   5.814  0.4502 -1.6429 -0.7365
13773TIP3   OH241251   0.105   7.327   1.106  0.3166  0.4070 -0.8904
13773TIP3    H141252   0.183   7.280   1.078 -0.6533 -0.6221 -1.9123
13773TIP3    H241253   0.136   7.387   1.174  1.8149 -0.6618 -0.6147
13774TIP3   OH241254   5.542   4.012   6.651  0.2422 -0.3578  0.0906
13774TIP3    H141255   5.567   4.041   6.739  0.0107 -1.7028  0.6150
13774TIP3    H241256   5.506   4.090   6.609  0.5147  0.3361  1.1330
13775TIP3   OH241257   1.597   6.394   0.190  0.1607 -0.1008  0.4372
13775TIP3    H141258   1.633   6.356   0.270 -0.1661 -0.2173  0.5286
13775TIP3    H241259   1.606   6.488   0.202  1.3354 -0.1469  0.0438
13776TIP3   OH241260   3.942   4.663   6.123  0.4253 -0.9256  0.0423
13776TIP3    H141261   3.904   4.749   6.106 -1.4007 -1.5190  0.9607
13776TIP3    H241262   4.037   4.677   6.115  0.1717  1.1957  0.2715
13777TIP3   OH241263   8.265   4.501   6.860  0.1358  1.1162 -0.2048
13777TIP3    H141264   8.340   4.536   6.909 -0.0231 -1.1703  1.8300
13777TIP3    H241265   8.303   4.431   6.806 -0.3982  0.3528  0.3870
13778TIP3   OH241266   5.177   4.587   6.715  0.0119  0.1339 -0.1444
13778TIP3    H141267   5.207   4.496   6.727 -2.0434 -0.5392 -0.0184
13778TIP3    H241268   5.129   4.607   6.795 -0.7288  0.8670 -0.7739
13779TIP3   OH241269   6.399   4.273   3.072  0.0424 -0.3675 -0.6446
13779TIP3    H141270   6.314   4.269   3.115  0.6673 -3.2653  0.4737
13779TIP3    H241271   6.456   4.317   3.135  0.1997 -1.6957  0.1572
13780TIP3   OH241272   8.215   3.913   6.855  0.2465 -0.4590 -0.2778
13780TIP3    H141273   8.212   3.872   6.769 -2.1675  0.7156 -0.7989
13780TIP3    H241274   8.142   3.975   6.855  2.7589  2.6359  1.0868
13781TIP3   OH241275   3.899   7.625   0.319 -0.3500  0.1963 -0.1362
13781TIP3    H141276   3.827   7.592   0.372 -0.5936 -0.0095 -0.5907
13781TIP3    H241277   3.938   7.695   0.371  0.4446 -1.0832  1.0213
13782TIP3   OH241278   3.483   7.687   0.551  0.1651  0.2908 -0.5308
13782TIP3    H141279   3.513   7.748   0.484 -1.3054  1.1932 -0.3959
13782TIP3    H241280   3.400   7.653   0.517 -1.1031  1.5098  1.2405
13783TIP3   OH241281   5.799   0.615   1.546 -0.2339 -0.2997 -0.1263
13783TIP3    H141282   5.797   0.637   1.639 -0.2498 -0.5823 -0.0586
13783TIP3    H241283   5.718   0.566   1.531  0.4915 -1.5763  0.0510
13784TIP3   OH241284   0.911   5.445   6.921  0.8260  0.7145 -0.0474
13784TIP3    H141285   0.925   5.416   6.831 -1.8785  1.6041 -0.8115
13784TIP3    H241286   0.909   5.365   6.972  1.3032  0.1170 -0.9450
13785TIP3   OH241287   1.179   2.695   5.899  0.5461 -0.0396 -0.1209
13785TIP3    H141288   1.244   2.648   5.846 -0.2841  0.1294 -1.3214
13785TIP3    H241289   1.103   2.637   5.899  0.3294  0.2493  0.3778
13786TIP3   OH241290   4.133   1.249   0.732 -0.8597 -0.2730 -0.2344
13786TIP3    H141291   4.123   1.163   0.773 -3.0312  0.1829  0.2693
13786TIP3    H241292   4.217   1.282   0.765 -0.9067 -1.4005  1.0744
13787TIP3   OH241293   1.044   3.104   6.397 -0.3295  0.1049 -0.1596
13787TIP3    H141294   1.057   3.009   6.404 -0.9355  0.1443  1.6315
13787TIP3    H241295   0.956   3.113   6.361 -0.7253 -0.0148  0.7582
13788TIP3   OH241296   0.918   3.974   6.325  0.5214  0.0060 -0.1323
13788TIP3    H141297   0.951   3.966   6.415 -1.4982  0.0040  0.6137
13788TIP3    H241298   0.935   3.888   6.286 -0.6178 -0.7246  0.9472
13789TIP3   OH241299   1.804   3.505   6.808 -0.3547 -0.4578  0.6948
13789TIP3    H141300   1.857   3.481   6.732  0.7939 -1.9494  1.9265
13789TIP3    H241301   1.868   3.521   6.878 -1.4167  0.2541  1.5235
13790TIP3   OH241302   8.174   5.677   6.122 -0.4297 -0.0957 -0.0189
13790TIP3    H141303   8.102   5.642   6.175 -0.4719 -0.9427 -0.6391
13790TIP3    H241304   8.244   5.694   6.185 -0.8356 -0.1604  0.4501
13791TIP3   OH241305   2.164   1.522   0.307  0.3590 -0.5809  0.1972
13791TIP3    H141306   2.124   1.582   0.371  0.1305  0.1744 -0.6441
13791TIP3    H241307   2.155   1.436   0.347 -0.7932 -0.2472  0.6889
13792TIP3   OH241308   6.194   2.047   0.847 -0.0811  0.3376 -0.4211
13792TIP3    H141309   6.273   2.083   0.888 -0.9339 -0.7374  2.2161
13792TIP3    H241310   6.127   2.113   0.860 -0.6529 -0.4994  1.0061
13793TIP3   OH241311   6.268   5.308   6.674 -0.0385  0.7997 -0.2364
13793TIP3    H141312   6.220   5.364   6.734 -0.6462 -0.4202  0.4440
13793TIP3    H241313   6.202   5.276   6.613  0.1587  0.2816 -0.1873
13794TIP3   OH241314   1.704   6.717   0.647 -0.3052  0.0206  0.4312
13794TIP3    H141315   1.638   6.712   0.717 -0.0133 -0.7852  0.6579
13794TIP3    H241316   1.775   6.661   0.677 -1.3094 -2.5058 -1.6993
13795TIP3   OH241317   7.770   3.432   6.207  0.3801  0.2822  0.4207
13795TIP3    H141318   7.679   3.407   6.189  0.6776 -0.3509 -0.2179
13795TIP3    H241319   7.787   3.399   6.295 -0.3432  1.3423  0.9647
13796TIP3   OH241320   8.090   4.212   5.404 -0.3929 -0.2898  0.1993
13796TIP3    H141321   8.061   4.130   5.367  0.1216  0.2003 -1.3261
13796TIP3    H241322   8.023   4.235   5.469  1.2588 -3.6741  3.2741
13797TIP3   OH241323   5.748   1.424   0.474 -0.4685  0.3899 -0.6559
13797TIP3    H141324   5.836   1.393   0.451 -0.5424 -1.0899  0.9196
13797TIP3    H241325   5.745   1.514   0.441  0.6870 -0.3967 -3.0323
13798TIP3   OH241326   5.552   2.434   0.087  0.0895 -0.5068 -0.0984
13798TIP3    H141327   5.587   2.385   0.013  2.2108 -0.6127  0.9224
13798TIP3    H241328   5.613   2.507   0.098 -0.6929  0.0049  0.9854
13799TIP3   OH241329   6.481   5.581   6.099 -0.0689  0.2391  0.4965
13799TIP3    H141330   6.489   5.642   6.026  1.6264 -1.8330 -1.1148
13799TIP3    H241331   6.496   5.635   6.177 -0.1070  2.1425 -0.7857
13800TIP3   OH241332   7.139   3.755   5.870  0.3487 -0.1238 -0.3198
13800TIP3    H141333   7.176   3.683   5.922 -1.8541  0.4257  2.0867
13800TIP3    H241334   7.076   3.712   5.812  1.4589 -0.5146 -1.2514
13801TIP3   OH241335   5.404   1.821   1.191 -0.0122  0.0050  0.3274
13801TIP3    H141336   5.398   1.732   1.154  0.0737  0.4426 -0.7508
13801TIP3    H241337   5.314   1.841   1.218 -0.2631  0.0457 -0.5161
13802TIP3   OH241338   1.099   6.587   6.557  0.0578  0.4242 -0.5561
13802TIP3    H141339   1.115   6.534   6.635 -0.7173  0.3586 -0.4346
13802TIP3    H241340   1.148   6.543   6.488 -2.6768 -2.0190 -1.0406
13803TIP3   OH241341   1.594   2.480   6.564  0.1996 -0.2899  0.0005
13803TIP3    H141342   1.672   2.506   6.515 -0.1274  0.1812 -0.2681
13803TIP3    H241343   1.526   2.540   6.535 -0.1990 -0.5283  0.4376
13804TIP3   OH241344   7.496   4.904   4.653 -0.4015 -0.0082  0.1562
13804TIP3    H141345   7.414   4.865   4.684 -0.8354  0.0411 -0.8950
13804TIP3    H241346   7.468   4.977   4.598  0.3365 -0.2478 -0.5479
13805TIP3   OH241347   0.613   4.158   6.602 -0.3162 -0.4737 -0.3821
13805TIP3    H141348   0.685   4.150   6.540 -0.2690 -0.0473 -0.3886
13805TIP3    H241349   0.613   4.251   6.626 -0.1325 -0.6948  0.4990
13806TIP3   OH241350   0.867   4.170   5.510  0.1751 -0.0981 -0.3003
13806TIP3    H141351   0.908   4.227   5.575 -1.0290 -0.4160  0.7604
13806TIP3    H241352   0.846   4.228   5.437 -1.1591  0.8687  0.8204
13807TIP3   OH241353   6.916   0.102   1.093 -0.1146  0.4965 -0.2697
13807TIP3    H141354   6.904   0.151   1.175  1.4161 -0.4026  0.5088
13807TIP3    H241355   6.993   0.143   1.052  0.9354 -0.9648  0.1967
13808TIP3   OH241356   6.436   5.665   5.363  0.3254  0.3773 -0.1360
13808TIP3    H141357   6.383   5.724   5.416  0.7546 -0.6227  1.4767
13808TIP3    H241358   6.377   5.594   5.340  0.4378  0.2429 -0.0121
13809TIP3   OH241359   4.638   1.171   1.862 -0.4869 -0.2889  0.6477
13809TIP3    H141360   4.574   1.113   1.823  0.4155 -0.8931  0.0404
13809TIP3    H241361   4.687   1.207   1.788  0.3991 -0.4623  1.1329
13810TIP3   OH241362   3.959   1.674   0.551 -0.6951  0.0525  0.1815
13810TIP3    H141363   3.996   1.759   0.574 -1.4290  0.4068  0.0726
13810TIP3    H241364   3.937   1.681   0.458 -0.8647 -0.2184  0.1981
13811TIP3   OH241365   1.025   4.866   6.130  0.0766  0.2305  0.1497
13811TIP3    H141366   1.076   4.818   6.195  1.5076  2.1745  0.4918
13811TIP3    H241367   0.950   4.809   6.113  1.4057 -1.8405  0.9884
13812TIP3   OH241368   0.855   2.570   6.370 -0.5184 -0.0873  0.0957
13812TIP3    H141369   0.898   2.540   6.291  0.0936 -0.0121  0.3976
13812TIP3    H241370   0.813   2.652   6.345 -0.3250 -0.0619 -0.1480
13813TIP3   OH241371   4.772   1.292   3.083 -0.3990 -0.4396  0.3917
13813TIP3    H141372   4.717   1.322   3.156 -0.6839  1.9823 -0.7662
13813TIP3    H241373   4.714   1.239   3.030 -1.1743  0.6864  0.0890
13814TIP3   OH241374   7.079   3.453   6.805  0.0162 -0.1939 -0.3609
13814TIP3    H141375   7.157   3.423   6.851 -0.3158  0.6438  0.7902
13814TIP3    H241376   7.110   3.526   6.750  0.2632 -0.6602 -0.8409
13815TIP3   OH241377   0.194   2.090   1.718  0.0138  0.2338 -0.2443
13815TIP3    H141378   0.111   2.108   1.673  0.8577  1.7037 -1.2596
13815TIP3    H241379   0.240   2.174   1.717  0.6713 -0.0823  2.0933
13816TIP3   OH241380   4.665   7.638   2.811  0.0144  0.1584  0.0745
13816TIP3    H141381   4.577   7.630   2.774 -0.0964 -0.0694  0.3885
13816TIP3    H241382   4.658   7.599   2.898  0.5943 -0.5213 -0.1748
13817TIP3   OH241383   1.605   2.801   2.736  0.0750  0.0093  0.6803
13817TIP3    H141384   1.575   2.722   2.691 -0.9558  1.2408 -0.8408
13817TIP3    H241385   1.701   2.796   2.733  0.0120 -0.8776  0.0541
13818TIP3   OH241386   6.044   7.526   1.031  0.0028 -0.1084  0.4639
13818TIP3    H141387   6.107   7.551   1.098 -0.7959  1.3129  0.7049
13818TIP3    H241388   6.037   7.603   0.975 -0.7972 -0.5953 -0.1134
13819TIP3   OH241389   0.474   2.646   0.747 -0.1258  0.0098 -0.1966
13819TIP3    H141390   0.460   2.571   0.690  1.9037 -0.3551 -0.2504
13819TIP3    H241391   0.569   2.654   0.754 -0.2705  3.0979 -0.8908
13820TIP3   OH241392   6.747   1.331   2.701  0.1089  0.2039 -0.1290
13820TIP3    H141393   6.775   1.357   2.788  0.5551 -0.0244 -0.1994
13820TIP3    H241394   6.829   1.323   2.651 -0.1206  0.0315 -0.4793
13821TIP3   OH241395   3.275   7.326   1.504  0.2984 -0.0746 -0.3023
13821TIP3    H141396   3.352   7.383   1.516  0.7354 -0.5916 -0.6197
13821TIP3    H241397   3.312   7.243   1.474 -0.5477  0.4262 -2.9233
13822TIP3   OH241398   0.551   0.497   1.604  0.3482  0.0081 -0.3563
13822TIP3    H141399   0.641   0.516   1.632 -0.7722  3.6244  1.0204
13822TIP3    H241400   0.537   0.554   1.529 -1.0065 -0.1173 -0.2044
13823TIP3   OH241401   0.734   0.839   4.522 -0.1319  0.3361  0.4610
13823TIP3    H141402   0.795   0.879   4.584  1.1190 -0.8669  0.0273
13823TIP3    H241403   0.669   0.795   4.577 -0.6529  1.6542  0.9220
13824TIP3   OH241404   8.467   1.308   2.965  0.1752  0.2490  0.5715
13824TIP3    H141405   8.459   1.295   3.060 -1.3622 -0.8911  0.2922
13824TIP3    H241406   8.410   1.382   2.946 -0.2373 -0.1134  0.3974
13825TIP3   OH241407   5.515   1.059   2.490  0.0242  0.2777 -0.0993
13825TIP3    H141408   5.500   1.151   2.468 -1.7869  0.4608  1.6959
13825TIP3    H241409   5.588   1.061   2.552  0.4744  0.4397 -0.6371
13826TIP3   OH241410   7.517   3.609   1.036  0.2352  0.6963 -0.3010
13826TIP3    H141411   7.491   3.696   1.066 -1.5247  0.0837  0.0574
13826TIP3    H241412   7.606   3.620   1.002  0.3624  2.4370  0.5477
13827TIP3   OH241413   4.616   7.917   2.648 -0.2733 -0.0545  0.3299
13827TIP3    H141414   4.632   7.832   2.606 -0.1831  0.2487 -0.2436
13827TIP3    H241415   4.578   7.971   2.579  1.3206  0.9348  0.2227
13828TIP3   OH241416   2.789   5.813   6.204 -0.1531  0.7223 -0.3246
13828TIP3    H141417   2.870   5.819   6.254 -0.3192 -2.0046  0.3203
13828TIP3    H241418   2.806   5.867   6.126  2.0456  0.6904  0.0888
13829TIP3   OH241419   0.391   0.911   2.024  0.4643  0.0031  0.2821
13829TIP3    H141420   0.296   0.909   2.036  0.6274  0.7072  1.8487
13829TIP3    H241421   0.424   0.962   2.099  2.1095 -0.6470  0.0323
13830TIP3   OH241422   6.367   1.849   2.408  0.1187 -0.4441 -0.5122
13830TIP3    H141423   6.337   1.939   2.406 -0.2167 -0.5681 -1.1275
13830TIP3    H241424   6.376   1.828   2.501  0.4988  0.3166 -0.3772
13831TIP3   OH241425   5.512   7.727   1.484 -0.2528 -0.1881 -1.0740
13831TIP3    H141426   5.445   7.664   1.510  0.3922 -1.0961 -1.5934
13831TIP3    H241427   5.517   7.789   1.557 -0.7714 -0.8363 -0.4911
13832TIP3   OH241428   6.704   6.985   2.458  0.0098 -0.2195 -0.3007
13832TIP3    H141429   6.757   7.034   2.521 -1.9266  1.8400 -0.1600
13832TIP3    H241430   6.739   7.010   2.372 -0.1757  0.4725 -0.1808
13833TIP3   OH241431   5.335   0.186   2.781 -0.7577 -0.4066 -0.4244
13833TIP3    H141432   5.352   0.233   2.699 -1.7572  0.5136 -0.1150
13833TIP3    H241433   5.395   0.111   2.778  0.8700  0.8914 -0.9057
13834TIP3   OH241434   7.327   0.050   0.617 -0.4812 -0.1687 -0.2030
13834TIP3    H141435   7.279   0.018   0.693 -0.1656 -0.3861 -0.0951
13834TIP3    H241436   7.346   0.142   0.638 -0.3519 -0.2411  0.0050
13835TIP3   OH241437   6.991   7.532   1.661 -0.3903  0.2164  0.2571
13835TIP3    H141438   7.041   7.464   1.704  0.4509  1.0885  0.6762
13835TIP3    H241439   6.991   7.507   1.568  1.9766  0.9040  0.0426
13836TIP3   OH241440   6.694   1.232   0.840  0.0552 -0.0456 -0.5411
13836TIP3    H141441   6.648   1.302   0.887  1.6054  0.6859 -0.0782
13836TIP3    H241442   6.676   1.249   0.748 -0.8934  0.0191 -0.3505
13837TIP3   OH241443   0.571   1.121   1.889  0.3846 -0.6026 -0.1773
13837TIP3    H141444   0.508   1.054   1.913  0.0142  0.2360  1.2404
13837TIP3    H241445   0.552   1.140   1.797 -2.2869  0.5170  0.5507
13838TIP3   OH241446   0.712   0.970   1.390 -0.1088 -0.3106  0.0907
13838TIP3    H141447   0.714   0.877   1.369 -0.0399 -0.1984 -0.4126
13838TIP3    H241448   0.620   0.988   1.411  0.5581 -1.4179  4.5406
13839TIP3   OH241449   8.472   0.120   1.480 -0.1313 -0.5812 -0.3090
13839TIP3    H141450   8.558   0.136   1.440 -0.1290 -2.5669 -1.1520
13839TIP3    H241451   8.409   0.143   1.412 -0.1887 -1.8206 -0.6758
13840TIP3   OH241452   2.904   1.209   2.464  0.1073  0.2715 -0.9597
13840TIP3    H141453   2.987   1.213   2.511  0.7346 -3.1873 -1.6682
13840TIP3    H241454   2.842   1.253   2.522  1.5015 -1.2095  1.7477
13841TIP3   OH241455   0.662   0.057   4.977 -0.3056 -0.2116 -0.2445
13841TIP3    H141456   0.724   0.100   4.919 -0.0191 -1.5844 -0.9793
13841TIP3    H241457   0.716   0.020   5.047 -0.4071 -0.4521 -0.2917
13842TIP3   OH241458   4.007   6.628   2.771  0.4089 -0.1720  0.4047
13842TIP3    H141459   3.952   6.658   2.699  1.7525 -4.3653 -2.5795
13842TIP3    H241460   3.947   6.580   2.829  0.1219 -0.9763 -0.5370
13843TIP3   OH241461   5.909   7.599   0.468 -0.3341  0.0678  0.1081
13843TIP3    H141462   6.004   7.602   0.455 -0.6447  1.5669 -2.1781
13843TIP3    H241463   5.893   7.516   0.513  1.9064 -0.9911 -0.9777
13844TIP3   OH241464   2.813   0.106   2.379 -0.1037  0.5387  0.3154
13844TIP3    H141465   2.848   0.028   2.422 -0.2885  1.2804  1.8734
13844TIP3    H241466   2.718   0.102   2.394 -0.3104  0.2193 -1.0334
13845TIP3   OH241467   7.298   0.778   2.027  0.6032  0.1357 -0.0211
13845TIP3    H141468   7.275   0.702   2.081  0.9356 -0.1365 -0.2614
13845TIP3    H241469   7.216   0.803   1.985  0.3935  0.1939  0.4162
13846TIP3   OH241470   3.423   5.636   6.562  0.3646 -0.0524 -0.1564
13846TIP3    H141471   3.484   5.571   6.598 -0.5458 -0.7353  0.1831
13846TIP3    H241472   3.470   5.719   6.570  1.1459 -0.5264  0.3492
13847TIP3   OH241473   7.476   0.213   2.570 -0.2887  0.3389  0.5392
13847TIP3    H141474   7.401   0.166   2.532  0.0194 -0.1243  0.5041
13847TIP3    H241475   7.440   0.297   2.597 -0.6213  0.4862 -0.3450
13848TIP3   OH241476   1.558   0.052   2.187 -0.2645  0.0834 -0.0978
13848TIP3    H141477   1.514   0.067   2.271 -1.4840  0.8768 -0.8568
13848TIP3    H241478   1.626  -0.012   2.207  1.0274  2.0190  1.9918
13849TIP3   OH241479   1.813   0.722   0.272 -0.0388  0.5468 -0.2424
13849TIP3    H141480   1.718   0.734   0.270 -0.5121 -2.3554  1.2660
13849TIP3    H241481   1.828   0.674   0.354  2.6514  0.4395 -0.7838
13850TIP3   OH241482   6.619   1.691   1.407 -0.1374  0.2563 -0.2810
13850TIP3    H141483   6.713   1.696   1.390 -0.1197  1.4949  0.1179
13850TIP3    H241484   6.611   1.635   1.484  0.2529 -0.0558 -0.4666
13851TIP3   OH241485   1.034   1.893   0.976  0.0005  0.1581 -0.3588
13851TIP3    H141486   1.113   1.844   0.954  0.3946  1.7986 -2.8159
13851TIP3    H241487   0.968   1.859   0.916 -1.0430 -0.8537  1.3472
13852TIP3   OH241488   7.644   0.198   0.660  0.0690 -0.2113  0.9223
13852TIP3    H141489   7.641   0.250   0.741 -2.1632  0.3300  0.5170
13852TIP3    H241490   7.663   0.261   0.591 -1.8553 -0.0395  0.5325
13853TIP3   OH241491   7.529   8.007   2.852  0.0843 -0.0844 -0.5753
13853TIP3    H141492   7.592   7.943   2.821 -0.0685 -0.3024 -0.4368
13853TIP3    H241493   7.445   7.980   2.814  0.2147  0.6597 -1.4025
13854TIP3   OH241494   0.505   1.129   1.524  0.2060 -0.3703 -0.3631
13854TIP3    H141495   0.585   1.173   1.551  0.6687 -1.9185  0.8627
13854TIP3    H241496   0.440   1.199   1.516  1.0735  0.5949  0.9352
13855TIP3   OH241497   2.401   0.157   2.721 -0.1754 -0.3680  0.8326
13855TIP3    H141498   2.318   0.189   2.686  0.6205  0.1975 -0.6323
13855TIP3    H241499   2.428   0.088   2.659  0.4160 -0.5780  1.3162
13856TIP3   OH241500  -0.001   0.657   1.959 -0.3088  0.1335  0.3329
13856TIP3    H141501   0.014   0.601   2.035  0.1649  1.5060  1.2689
13856TIP3    H241502   0.057   0.622   1.891 -2.0419 -2.2129 -0.0097
13857TIP3   OH241503   0.386   7.089   2.197 -0.2352 -0.0059 -0.2827
13857TIP3    H141504   0.297   7.092   2.232 -0.4330 -0.0714 -0.7720
13857TIP3    H241505   0.440   7.063   2.271 -0.8731 -1.8729 -0.4390
13858TIP3   OH241506   7.312   7.733   1.805 -0.3665 -0.2170  0.6606
13858TIP3    H141507   7.299   7.724   1.711 -0.8561  2.6377  0.4153
13858TIP3    H241508   7.238   7.687   1.844 -1.0251 -0.0561 -0.3786
13859TIP3   OH241509   3.887   4.728   6.821  0.7668 -0.0278  0.2445
13859TIP3    H141510   3.843   4.812   6.808 -0.1950 -0.6535 -0.6202
13859TIP3    H241511   3.888   4.716   6.916  2.2107  1.6393  0.4685
13860TIP3   OH241512   6.715   7.560   0.877 -0.3618 -0.0180 -0.5149
13860TIP3    H141513   6.694   7.520   0.962  1.8855  0.2558  0.1810
13860TIP3    H241514   6.647   7.627   0.865 -0.4552  0.2211  1.2493
13861TIP3   OH241515   8.237   1.316   0.073  0.2450 -0.1046 -0.9899
13861TIP3    H141516   8.164   1.282   0.021 -1.3967  2.2195 -0.3111
13861TIP3    H241517   8.203   1.320   0.163  1.2301  0.9195 -0.6489
13862TIP3   OH241518   1.318   0.355   2.406  0.1789  0.2423  0.1628
13862TIP3    H141519   1.328   0.317   2.493 -0.2217  1.0396  0.5604
13862TIP3    H241520   1.277   0.285   2.354 -1.6118  0.4874  1.1817
13863TIP3   OH241521   0.076   0.733   1.675 -0.1494 -0.0776 -0.0432
13863TIP3    H141522   0.102   0.814   1.632  0.1238  0.0411  0.3398
13863TIP3    H241523   0.004   0.758   1.733  0.4891  0.0599  0.7072
13864TIP3   OH241524   0.637   1.850   3.769 -0.0801  0.2183 -0.2033
13864TIP3    H141525   0.716   1.872   3.818  0.9303 -1.9691 -0.7859
13864TIP3    H241526   0.584   1.798   3.829 -0.2012  0.0628 -0.4420
13865TIP3   OH241527   0.727   0.592   1.177 -0.0535  0.3277 -0.0669
13865TIP3    H141528   0.798   0.631   1.125 -0.6937  0.1547 -1.0774
13865TIP3    H241529   0.766   0.512   1.214  0.8756  1.2395  0.9903
13866TIP3   OH241530   0.463   4.108   0.811  0.4155 -0.3684 -0.3695
13866TIP3    H141531   0.385   4.052   0.811  0.7575 -0.8652  1.6483
13866TIP3    H241532   0.477   4.129   0.719 -2.1034 -0.2944 -0.7739
13867TIP3   OH241533   2.035   1.058   1.532  0.0222  0.1370 -0.0398
13867TIP3    H141534   2.044   0.974   1.577  1.7246  1.1238  1.5612
13867TIP3    H241535   2.115   1.066   1.481  1.6321  2.3702  2.6689
13868TIP3   OH241536   0.604   0.314   1.197 -0.1847 -0.1114 -0.4328
13868TIP3    H141537   0.525   0.368   1.209  0.1590  0.3894 -0.4210
13868TIP3    H241538   0.615   0.308   1.102  0.6720  1.1520 -0.4199
13869TIP3   OH241539   4.081   6.095   6.898 -0.3346 -0.0991  0.4699
13869TIP3    H141540   3.988   6.079   6.915 -0.3841 -0.1173  0.1834
13869TIP3    H241541   4.085   6.188   6.874 -0.2110  0.0231  0.9457
13870TIP3   OH241542   3.865   3.074   6.109  0.0252 -0.0332 -0.0780
13870TIP3    H141543   3.954   3.109   6.119 -0.0206 -0.1201  0.6230
13870TIP3    H241544   3.819   3.141   6.059  1.0501 -0.9150 -2.2807
13871TIP3   OH241545   0.856   3.208   1.925 -0.6334  0.6872 -0.5749
13871TIP3    H141546   0.854   3.299   1.952 -1.4872  0.0058  1.7476
13871TIP3    H241547   0.810   3.161   1.994 -0.0065 -1.5398 -1.6196
13872TIP3   OH241548   1.445   0.625   2.534 -0.2085 -0.1980  1.1190
13872TIP3    H141549   1.425   0.534   2.512  0.6297 -0.1036 -0.1024
13872TIP3    H241550   1.359   0.665   2.550 -0.9468 -0.1944 -2.4183
13873TIP3   OH241551   7.071   7.830   0.572 -0.5823 -0.0978  0.0546
13873TIP3    H141552   7.162   7.804   0.558 -0.5203  0.7341 -1.2012
13873TIP3    H241553   7.076   7.924   0.591 -0.9928 -0.4906  2.2631
13874TIP3   OH241554   7.516   0.523   1.225  0.1443 -0.3004  0.2047
13874TIP3    H141555   7.511   0.600   1.282  0.7383  0.1798 -0.3776
13874TIP3    H241556   7.576   0.549   1.155  0.3581 -1.2998  0.0048
13875TIP3   OH241557   0.709   1.074   1.106 -0.1473  0.4950 -0.0859
13875TIP3    H141558   0.747   1.011   1.167  0.2080 -0.5758 -1.3770
13875TIP3    H241559   0.694   1.152   1.158  2.9407  0.6224  0.7189
13876TIP3   OH241560   8.461   1.832   2.250  0.0032  0.1642  0.6209
13876TIP3    H141561   8.534   1.802   2.196 -1.2821 -0.2097 -0.9420
13876TIP3    H241562   8.481   1.799   2.337  1.6962  0.0637  0.2209
13877TIP3   OH241563   2.819   4.506   1.899  0.5594 -0.0634  0.2287
13877TIP3    H141564   2.731   4.468   1.901  1.3589 -1.9949  0.0883
13877TIP3    H241565   2.865   4.457   1.830  1.6151  1.2246 -0.0110
13878TIP3   OH241566   0.530   4.332   6.281  0.0306  0.8851  0.1438
13878TIP3    H141567   0.585   4.346   6.358 -3.0611  0.4956  2.4988
13878TIP3    H241568   0.533   4.416   6.234  2.4509  0.9182  0.2803
13879TIP3   OH241569   8.271   0.043   0.687 -0.7366  0.5513 -0.1033
13879TIP3    H141570   8.216   0.113   0.653  0.4701  1.3760 -0.3912
13879TIP3    H241571   8.311   0.004   0.609  0.2375  0.9322  0.2000
13880TIP3   OH241572   8.050   6.587   1.005 -0.2511 -0.3172 -0.5386
13880TIP3    H141573   7.957   6.577   0.986 -0.5400  1.6684 -0.2592
13880TIP3    H241574   8.057   6.575   1.099 -0.1418 -0.9457 -0.6227
13881TIP3   OH241575   0.314   2.368   0.058 -0.5230 -0.0718  0.0107
13881TIP3    H141576   0.349   2.288   0.018 -1.3640 -1.4654  1.9706
13881TIP3    H241577   0.369   2.438   0.023  0.0129 -1.4547 -2.0255
13882TIP3   OH241578   0.901   2.424   2.479  0.6223  0.5052  0.7912
13882TIP3    H141579   0.971   2.360   2.469  0.2489 -0.5548  4.3304
13882TIP3    H241580   0.821   2.376   2.456  0.7157  0.8279 -0.2400
13883TIP3   OH241581   1.347   2.789   1.549 -0.2646 -0.0710  0.2058
13883TIP3    H141582   1.438   2.778   1.576  0.1741  0.8510 -0.8544
13883TIP3    H241583   1.299   2.803   1.631  0.4657 -1.0142  0.8060
13884TIP3   OH241584   4.088   5.482   6.488  0.4767  0.0135 -0.0616
13884TIP3    H141585   4.122   5.544   6.424 -0.0478  0.2338 -0.1366
13884TIP3    H241586   4.122   5.397   6.460  0.9732  0.2294 -0.1185
13885TIP3   OH241587   1.580   4.462   0.663 -0.1664  0.2166  0.1784
13885TIP3    H141588   1.626   4.436   0.743 -0.6221 -1.2090  0.0076
13885TIP3    H241589   1.492   4.426   0.674  0.3466 -1.7735 -1.8120
13886TIP3   OH241590   5.770   4.512   5.738 -0.2940  0.0292  0.9499
13886TIP3    H141591   5.725   4.441   5.693 -0.2888 -0.9525  2.4536
13886TIP3    H241592   5.858   4.476   5.756  0.1999  0.9544  0.3939
13887TIP3   OH241593   6.506   7.542   0.377 -0.2503 -0.3801 -0.0164
13887TIP3    H141594   6.488   7.625   0.333  0.3498  0.7222  1.7757
13887TIP3    H241595   6.602   7.540   0.385 -0.3925 -0.2482  1.8113
13888TIP3   OH241596   7.365   7.781   0.562  0.1917 -0.2672 -0.5546
13888TIP3    H141597   7.432   7.717   0.534 -0.5708 -0.8023 -1.1793
13888TIP3    H241598   7.404   7.866   0.542  1.2386 -0.5278  0.3267
13889TIP3   OH241599   4.441   4.376   6.560 -0.0164  0.0704  0.0692
13889TIP3    H141600   4.415   4.466   6.580 -1.9071 -0.6964  1.2038
13889TIP3    H241601   4.432   4.369   6.465  0.5338  1.1737 -0.0780
13890TIP3   OH241602   5.497   6.169   1.487  0.0995  0.1110  0.1332
13890TIP3    H141603   5.423   6.124   1.446 -0.1766 -0.3359  1.0945
13890TIP3    H241604   5.570   6.153   1.428 -0.8360  1.5811 -1.4454
13891TIP3   OH241605   2.255   5.672   6.401  0.5182 -0.3614  0.0725
13891TIP3    H141606   2.275   5.755   6.444 -1.6235 -0.0220  0.4580
13891TIP3    H241607   2.267   5.606   6.469 -2.2673  0.1125  1.0802
13892TIP3   OH241608   0.955   0.148   0.518  0.4450  0.3057 -0.2663
13892TIP3    H141609   1.022   0.197   0.567  0.8676  1.2450 -1.7410
13892TIP3    H241610   0.883   0.211   0.507  0.0758 -0.1161 -0.2497
13893TIP3   OH241611   6.672   6.384   1.702 -0.3591  0.4464  0.0280
13893TIP3    H141612   6.699   6.463   1.747 -1.6535  0.4974  0.7270
13893TIP3    H241613   6.579   6.396   1.685 -0.7080 -1.1997  0.7151
13894TIP3   OH241614   1.703   3.441   0.559 -0.2747 -0.2008  0.7667
13894TIP3    H141615   1.674   3.349   0.558 -0.1766 -0.2261  0.1512
13894TIP3    H241616   1.689   3.469   0.650 -0.0605 -0.9007  1.0221
13895TIP3   OH241617   8.182   0.032   1.948 -0.2145  0.0334 -0.7960
13895TIP3    H141618   8.207   0.110   1.898 -0.7622  0.6639 -0.1090
13895TIP3    H241619   8.103   0.000   1.904  0.2299 -0.3508 -1.3072
13896TIP3   OH241620   0.895   0.879   0.428 -0.0234  0.1780 -0.0458
13896TIP3    H141621   0.902   0.797   0.379 -2.6130 -0.9170  1.3361
13896TIP3    H241622   0.811   0.917   0.400  0.4892  1.6679  0.3881
13897TIP3   OH241623   8.329   0.405   3.733 -0.4617 -0.1799  0.2405
13897TIP3    H141624   8.273   0.483   3.735  0.1133  0.2365  0.0371
13897TIP3    H241625   8.269   0.332   3.754 -1.1959  0.1954 -0.5188
13898TIP3   OH241626   1.198   1.165   2.415 -0.1169 -0.7465 -0.7773
13898TIP3    H141627   1.126   1.129   2.363  1.1084 -0.9943 -2.3066
13898TIP3    H241628   1.277   1.132   2.374  0.9075 -0.1742  0.6842
13899TIP3   OH241629   5.060   5.227   6.888 -0.3027 -0.5468  0.2904
13899TIP3    H141630   5.135   5.286   6.900  1.0210 -2.1446  0.1639
13899TIP3    H241631   4.990   5.266   6.940  0.4893  1.2281  0.0486
13900TIP3   OH241632   2.061   3.610   3.058 -0.0751  0.1939  0.8930
13900TIP3    H141633   2.136   3.664   3.034  0.1441 -0.8775 -0.9762
13900TIP3    H241634   2.091   3.556   3.130  2.8428 -4.1119 -3.2453
13901TIP3   OH241635   1.182   0.524   2.599 -1.0194  0.3237 -0.2859
13901TIP3    H141636   1.218   0.438   2.574 -2.1991  0.0512 -1.0766
13901TIP3    H241637   1.149   0.512   2.688 -1.7683 -0.2257 -0.6359
13902TIP3   OH241638   6.719   7.674   2.610 -0.2499  0.1247  0.5045
13902TIP3    H141639   6.732   7.738   2.680  2.0728  2.4375 -1.9119
13902TIP3    H241640   6.807   7.643   2.589 -0.9999 -1.2135 -0.7901
13903TIP3   OH241641   0.006   0.162   1.746 -0.1558 -0.7008 -0.2125
13903TIP3    H141642  -0.001   0.252   1.776 -1.4402 -1.0620  0.6216
13903TIP3    H241643   0.007   0.168   1.651  1.0347  0.2690 -0.1433
13904TIP3   OH241644   6.762   7.910   0.506  0.1986  0.1869 -0.4913
13904TIP3    H141645   6.758   7.872   0.594 -0.3658 -1.8263 -1.3592
13904TIP3    H241646   6.750   8.004   0.520 -0.4074 -0.1686  1.5374
13905TIP3   OH241647   0.987   4.680   0.423 -0.2213  0.4763 -0.2098
13905TIP3    H141648   0.928   4.617   0.382 -1.1477  0.5590  0.9820
13905TIP3    H241649   1.012   4.639   0.506  1.9552  0.1271 -1.0005
13906TIP3   OH241650   1.019   0.664   1.717  0.0936 -0.2814  0.2280
13906TIP3    H141651   0.945   0.625   1.670 -0.0405  0.5383 -0.2496
13906TIP3    H241652   0.981   0.736   1.767  0.6181  0.3816 -0.3159
13907TIP3   OH241653   1.911   0.122   1.555  0.0862 -0.0252 -0.1128
13907TIP3    H141654   1.940   0.083   1.472 -0.9638  1.3623 -1.1500
13907TIP3    H241655   1.866   0.050   1.600  0.7731 -0.8255 -0.6896
13908TIP3   OH241656   2.359   3.954   2.406  0.2384 -0.0825 -0.4407
13908TIP3    H141657   2.389   3.897   2.478  2.4984  0.9902 -0.4631
13908TIP3    H241658   2.338   3.893   2.335 -2.0134 -1.1625  1.0937
13909TIP3   OH241659   2.369   0.427   0.231  0.0948 -0.2440  0.3998
13909TIP3    H141660   2.389   0.419   0.138  0.7054 -0.6479  0.5650
13909TIP3    H241661   2.315   0.350   0.250 -0.0763 -0.1314  0.3611
13910TIP3   OH241662   1.699   2.931   0.780  0.2248  0.0109 -0.6138
13910TIP3    H141663   1.673   2.941   0.688 -0.7854 -0.9150 -0.4303
13910TIP3    H241664   1.633   2.980   0.829  1.1838  1.1307 -0.4227
13911TIP3   OH241665   1.553   1.093   1.355 -0.7840  0.2840 -0.3082
13911TIP3    H141666   1.625   1.142   1.394 -0.3382  0.9115 -1.8528
13911TIP3    H241667   1.595   1.039   1.288 -1.3633 -1.6521  0.8682
13912TIP3   OH241668   8.415   1.324   2.082 -0.5843 -0.3120 -0.2489
13912TIP3    H141669   8.373   1.393   2.132 -1.3939 -1.2216  0.3459
13912TIP3    H241670   8.363   1.246   2.099 -0.3603 -0.8367 -1.8021
13913TIP3   OH241671   0.503   1.355   2.472 -0.2814  0.5193  0.1965
13913TIP3    H141672   0.555   1.411   2.414 -0.6661  1.0032  0.3248
13913TIP3    H241673   0.457   1.296   2.412  2.2055 -1.4934  0.1607
13914TIP3   OH241674   6.123   7.776   1.305  0.2512 -0.5910  0.8293
13914TIP3    H141675   6.082   7.805   1.224  1.4765 -0.8076  0.1191
13914TIP3    H241676   6.092   7.838   1.371  0.9161  0.8903 -0.2227
13915TIP3   OH241677   2.056   1.152   3.090 -0.0184  0.4255 -0.3840
13915TIP3    H141678   2.079   1.243   3.103  1.2211  0.0504  0.1175
13915TIP3    H241679   1.962   1.153   3.068 -0.3303  1.6774  0.9714
13916TIP3   OH241680   0.876   0.136   1.223  0.1145 -0.0131 -0.0948
13916TIP3    H141681   0.788   0.104   1.243  1.1140 -2.6351  0.2420
13916TIP3    H241682   0.886   0.119   1.129  0.0921  0.7316 -0.2345
13917TIP3   OH241683   1.815   1.217   0.525 -0.4450 -0.0618 -0.0432
13917TIP3    H141684   1.728   1.196   0.559 -0.5256 -0.3434 -0.4233
13917TIP3    H241685   1.840   1.296   0.573 -1.1266  0.3194 -0.3055
13918TIP3   OH241686   1.904   2.722   2.654  0.3584 -0.2311  0.0123
13918TIP3    H141687   1.973   2.683   2.708  0.4408 -1.3233 -0.8677
13918TIP3    H241688   1.952   2.763   2.581  0.2183  0.8667  0.5228
13919TIP3   OH241689   1.398   0.928   1.564 -0.0714 -0.3596  0.0937
13919TIP3    H141690   1.343   0.851   1.549 -0.7533  0.0971  0.1904
13919TIP3    H241691   1.409   0.966   1.477  0.6525 -0.8233 -0.0178
13920TIP3   OH241692   4.169   6.176   5.200 -0.5662 -0.0462  0.2295
13920TIP3    H141693   4.183   6.269   5.220 -0.6439 -0.3632  1.8674
13920TIP3    H241694   4.203   6.164   5.112 -1.9319  1.8783 -0.5933
13921TIP3   OH241695   5.811   7.708   1.953 -0.2632 -0.0753  0.1832
13921TIP3    H141696   5.810   7.651   2.029 -0.8388 -0.0072  0.2273
13921TIP3    H241697   5.778   7.792   1.985  0.1610  0.1563  0.0201
13922TIP3   OH241698   1.302   0.973   0.764 -0.2891 -0.0708  0.6063
13922TIP3    H141699   1.385   1.019   0.758 -1.1370  1.1577 -2.5568
13922TIP3    H241700   1.236   1.042   0.764 -1.4567 -1.1603 -1.3141
13923TIP3   OH241701   0.884   0.009   1.452 -0.2284 -0.0301  0.2045
13923TIP3    H141702   0.816  -0.055   1.428  1.5121 -1.6847 -0.4407
13923TIP3    H241703   0.905   0.053   1.369 -0.3696  0.3347  0.3633
13924TIP3   OH241704   0.315   0.897   0.318 -0.0277  1.5684 -0.1920
13924TIP3    H141705   0.247   0.834   0.293 -0.9263  1.5767  2.1221
13924TIP3    H241706   0.292   0.977   0.271 -1.5510  1.5243  0.4411
13925TIP3   OH241707   4.449   3.883   5.564 -0.5197 -0.5030  0.5297
13925TIP3    H141708   4.384   3.904   5.631  0.7523  0.6386  1.4199
13925TIP3    H241709   4.450   3.787   5.561 -2.3497 -0.5354  0.3873
13926TIP3   OH241710   0.894   0.215   1.849  0.4379 -0.4279 -0.1074
13926TIP3    H141711   0.858   0.203   1.937 -1.2607  1.0146 -0.5671
13926TIP3    H241712   0.953   0.290   1.857  0.5154 -0.4857 -0.1351
13927TIP3   OH241713   5.066   7.210   0.834 -0.0804  0.4233  0.0081
13927TIP3    H141714   4.995   7.229   0.895 -0.7786  0.1808 -0.7235
13927TIP3    H241715   5.040   7.129   0.791  0.6550  0.3174 -0.2482
13928TIP3   OH241716   0.344   0.084   2.050  0.0446  0.1004  0.2760
13928TIP3    H141717   0.413   0.082   1.984  0.6761 -0.9160  0.9471
13928TIP3    H241718   0.360   0.164   2.100 -0.8969  1.2786 -1.2696
13929TIP3   OH241719   1.750   0.477   0.792 -0.2934 -0.6881 -0.3215
13929TIP3    H141720   1.831   0.525   0.810 -0.9427 -0.2531  1.4645
13929TIP3    H241721   1.780   0.397   0.749  0.9408  0.3899 -1.5337
13930TIP3   OH241722   5.967   1.337   0.336 -0.2973 -0.0823  0.2000
13930TIP3    H141723   5.984   1.408   0.274 -0.1368 -0.6177 -0.3747
13930TIP3    H241724   6.043   1.280   0.330 -0.3221 -0.1925  0.8287
13931TIP3   OH241725   4.983   5.275   5.677  0.2885  0.3851  0.1349
13931TIP3    H141726   4.995   5.199   5.735  0.8551 -0.1735 -0.7006
13931TIP3    H241727   4.980   5.237   5.589 -0.0696  1.2765 -0.2344
13932TIP3   OH241728   0.426   0.791   0.776 -0.4067  0.4741  0.6933
13932TIP3    H141729   0.434   0.833   0.861  2.2310  1.2239  0.1046
13932TIP3    H241730   0.440   0.862   0.713  3.9187 -1.1391 -0.3236
13933TIP3   OH241731   8.464   0.951   3.555 -0.0269 -0.0007  0.0453
13933TIP3    H141732   8.523   0.943   3.630  0.4190  2.0957 -0.0569
13933TIP3    H241733   8.377   0.951   3.594  0.0526 -2.2036  0.2733
13934TIP3   OH241734   1.397   1.856   1.184 -0.4039  0.1646  0.3225
13934TIP3    H141735   1.437   1.790   1.241 -1.6929  1.2090  2.5056
13934TIP3    H241736   1.392   1.935   1.239 -1.0220  1.4179 -1.4877
13935TIP3   OH241737   3.530   6.597   6.893 -0.5531 -0.3706  0.7998
13935TIP3    H141738   3.493   6.678   6.856  0.2368  1.3284  3.5917
13935TIP3    H241739   3.490   6.590   6.980  0.5526 -2.1789  1.1906
13936TIP3   OH241740   8.434   1.464   0.691  0.2204 -0.1416 -0.0632
13936TIP3    H141741   8.473   1.498   0.771 -0.5046 -2.3547  1.2513
13936TIP3    H241742   8.339   1.468   0.706 -0.0060  1.5005 -1.6991
13937TIP3   OH241743   1.092   1.819   1.997  0.2439  0.5693 -0.2974
13937TIP3    H141744   1.110   1.761   2.071  2.4664  0.8251 -0.6026
13937TIP3    H241745   1.016   1.780   1.954  0.2378 -0.7594  0.8761
13938TIP3   OH241746   2.328   4.576   5.094 -0.2821  0.0627  0.1199
13938TIP3    H141747   2.336   4.508   5.028 -0.0441 -0.2075  0.4274
13938TIP3    H241748   2.281   4.647   5.049  0.5842  0.1980 -0.5779
13939TIP3   OH241749   4.319   5.106   4.503 -0.7379  0.3020 -0.0854
13939TIP3    H141750   4.355   5.131   4.588 -1.1231  0.0248  0.1612
13939TIP3    H241751   4.227   5.133   4.507 -0.9095 -0.2700 -0.1802
13940TIP3   OH241752   0.303   0.593   2.816 -0.0556  0.4616 -0.5815
13940TIP3    H141753   0.217   0.629   2.793 -0.6317  0.0777  0.9167
13940TIP3    H241754   0.287   0.500   2.831  0.3281  0.6362  1.0783
13941TIP3   OH241755   0.524   0.577   2.424  0.5710  0.5225  0.5506
13941TIP3    H141756   0.440   0.579   2.377 -0.5262  1.4904  2.5022
13941TIP3    H241757   0.577   0.515   2.374 -2.1311 -2.0406  0.6681
13942TIP3   OH241758   2.262   0.671   1.962  0.7504  0.1462 -0.0121
13942TIP3    H141759   2.294   0.602   1.904 -0.7472  1.2166 -2.1749
13942TIP3    H241760   2.310   0.749   1.934 -0.3146  0.7641 -0.1400
13943TIP3   OH241761   2.963   4.219   6.335  0.1891  0.2503  0.0180
13943TIP3    H141762   3.053   4.239   6.359  0.2537  0.3560 -0.3111
13943TIP3    H241763   2.910   4.278   6.390  0.3843  1.4330 -1.0449
13944TIP3   OH241764   0.698   0.644   0.727  0.7173 -0.2089  0.4583
13944TIP3    H141765   0.738   0.725   0.757 -0.5170  1.2868 -1.7660
13944TIP3    H241766   0.646   0.614   0.801  1.6362  0.7363  1.4959
13945TIP3   OH241767   0.486   1.740   1.174  0.4858  0.0570  0.1806
13945TIP3    H141768   0.495   1.835   1.174  0.8631  0.0359 -2.3830
13945TIP3    H241769   0.392   1.725   1.186  0.2573  0.7926 -0.6442
13946TIP3   OH241770   0.192   1.699   2.138 -0.3411  0.0863 -0.0114
13946TIP3    H141771   0.244   1.644   2.196 -2.8425  0.4462  2.6811
13946TIP3    H241772   0.150   1.637   2.078  1.0045 -0.4434 -0.4124
13947TIP3   OH241773   6.850   1.446   2.933  0.0721  0.5329 -0.3347
13947TIP3    H141774   6.808   1.397   3.004 -2.6517 -0.9154 -2.8139
13947TIP3    H241775   6.939   1.411   2.930 -0.8230 -1.9388  0.1326
13948TIP3   OH241776   2.029   2.915   2.493 -0.0216  0.2833 -0.1434
13948TIP3    H141777   1.939   2.933   2.521  0.1989 -0.4814  1.1304
13948TIP3    H241778   2.052   2.990   2.438 -1.4315  0.4946 -0.4790
13949TIP3   OH241779   3.144   3.233   1.951  0.0459 -0.2385 -0.8095
13949TIP3    H141780   3.199   3.156   1.935 -0.3451 -0.4940 -0.9250
13949TIP3    H241781   3.076   3.229   1.883 -0.0074  0.1786 -0.7836
13950TIP3   OH241782   0.663   1.044   0.424 -0.4520  0.1513  0.1925
13950TIP3    H141783   0.707   1.094   0.493  1.0542 -1.8312  0.7107
13950TIP3    H241784   0.657   1.104   0.350  0.1922  1.4916  1.2125
13951TIP3   OH241785   0.527   7.278   1.394  0.2650 -0.0063 -0.1285
13951TIP3    H141786   0.464   7.208   1.410  1.7329 -1.0685  1.2375
13951TIP3    H241787   0.596   7.237   1.342  0.0529  1.0315 -1.2546
13952TIP3   OH241788   1.533   0.393   0.994 -0.0073 -0.1752 -0.4305
13952TIP3    H141789   1.483   0.457   1.045  0.2106 -0.7051  0.4493
13952TIP3    H241790   1.591   0.351   1.057  0.3438 -0.7662 -1.1349
13953TIP3   OH241791   2.552   2.628   2.528  0.1574  0.4563 -0.2466
13953TIP3    H141792   2.601   2.670   2.599  0.9107  0.8866 -1.0159
13953TIP3    H241793   2.480   2.584   2.572  1.2082 -0.1413  0.9031
13954TIP3   OH241794   0.442   0.887   1.075 -0.4613  0.3007 -0.1958
13954TIP3    H141795   0.418   0.979   1.086 -0.5510  0.2253  0.2643
13954TIP3    H241796   0.392   0.841   1.143 -0.4873 -0.0973 -0.4854
13955TIP3   OH241797   3.509   5.458   5.384 -0.1316  0.1521 -0.1168
13955TIP3    H141798   3.581   5.493   5.437 -0.9599 -0.9358  1.8068
13955TIP3    H241799   3.469   5.535   5.344 -0.1610  1.1659  1.7650
13956TIP3   OH241800   7.573   7.584   1.349  0.4978  0.3273 -0.5328
13956TIP3    H141801   7.665   7.568   1.369  0.4444  1.1430  0.3609
13956TIP3    H241802   7.539   7.629   1.426 -1.1372 -1.7231 -0.0125
13957TIP3   OH241803   8.240   7.728   1.041  0.4718  0.0195  0.8143
13957TIP3    H141804   8.307   7.666   1.071  2.4446  1.4388 -0.5330
13957TIP3    H241805   8.281   7.774   0.967 -2.2839  0.3820 -0.5593
13958TIP3   OH241806   0.927   4.310   0.507 -0.5018  0.6198  0.3957
13958TIP3    H141807   0.939   4.287   0.415 -0.7565  0.2986  0.4436
13958TIP3    H241808   0.847   4.265   0.533 -0.5119  0.8336  0.7345
13959TIP3   OH241809   3.476   4.731   5.082  0.2957 -0.0607  0.1032
13959TIP3    H141810   3.454   4.824   5.073 -0.1730 -0.2785 -1.0702
13959TIP3    H241811   3.530   4.711   5.005  0.7980 -0.6468  0.6027
13960TIP3   OH241812   2.672   0.171   1.796  0.0086  0.3098 -0.1521
13960TIP3    H141813   2.723   0.150   1.874  0.8097 -1.4097 -1.1120
13960TIP3    H241814   2.699   0.259   1.772  0.6897  0.3602  0.7772
13961TIP3   OH241815   0.940   1.094   1.487  0.1002 -0.0218 -0.0497
13961TIP3    H141816   1.007   1.120   1.424  0.2029 -1.1011 -0.3909
13961TIP3    H241817   0.897   1.019   1.446  1.2076 -1.7323  1.8692
13962TIP3   OH241818   3.475   5.000   6.510  0.2485 -0.2048 -0.3089
13962TIP3    H141819   3.395   4.961   6.545  0.1000  0.3941  0.0388
13962TIP3    H241820   3.459   5.006   6.416 -0.5251  0.7941 -0.1331
13963TIP3   OH241821   1.837   2.419   1.237  0.5890 -0.0592 -0.3448
13963TIP3    H141822   1.876   2.491   1.187  0.1975 -0.7534 -1.6878
13963TIP3    H241823   1.743   2.424   1.217  0.6937 -1.5575 -1.2671
13964TIP3   OH241824   3.458   3.563   5.602  0.3355 -0.5386 -0.1558
13964TIP3    H141825   3.405   3.538   5.526  1.1673 -1.4075 -0.4542
13964TIP3    H241826   3.532   3.611   5.565  0.7132 -0.9150  0.1045
13965TIP3   OH241827   7.232   0.620   2.782  0.2989 -0.2178 -0.0622
13965TIP3    H141828   7.248   0.567   2.860  2.2159 -1.8152 -1.4736
13965TIP3    H241829   7.297   0.590   2.719 -2.8023 -0.7583 -3.1729
13966TIP3   OH241830   0.184   1.713   0.061 -0.1021 -0.0317  0.4485
13966TIP3    H141831   0.104   1.713   0.008 -0.2081  0.9190  0.5929
13966TIP3    H241832   0.153   1.696   0.150 -0.2593  1.2459  0.6496
13967TIP3   OH241833   0.109   0.927   2.057 -0.3141  0.4921  0.0070
13967TIP3    H141834   0.086   0.991   1.990 -0.0788 -0.7974 -1.3279
13967TIP3    H241835   0.082   0.843   2.021  1.2326 -0.4055  0.8560
13968TIP3   OH241836   2.948   1.463   3.361  0.6205 -0.2527  0.1879
13968TIP3    H141837   2.881   1.425   3.418 -2.2842  1.4485 -1.9652
13968TIP3    H241838   3.008   1.391   3.343 -1.3681 -2.1961  1.0794
13969TIP3   OH241839   6.770   3.169   2.504  0.4614 -0.1702  0.2547
13969TIP3    H141840   6.760   3.236   2.436  0.1591  0.3909  0.8410
13969TIP3    H241841   6.842   3.202   2.558 -1.1282  0.8040  1.8344
13970TIP3   OH241842   4.455   4.817   5.864  0.0037 -0.2969 -0.0810
13970TIP3    H141843   4.428   4.909   5.859  1.2770  0.0711 -0.4507
13970TIP3    H241844   4.416   4.777   5.786 -0.1983  0.0213 -0.1465
13971TIP3   OH241845   1.588   3.363   3.360 -0.1986 -0.3369 -0.0165
13971TIP3    H141846   1.605   3.449   3.397  1.5307 -0.8338  0.3651
13971TIP3    H241847   1.601   3.302   3.432  0.6239 -1.0903 -0.7838
13972TIP3   OH241848   2.902   1.932   4.189  0.2436 -0.3529 -0.0912
13972TIP3    H141849   2.840   1.891   4.129  1.2599 -1.8199 -0.1572
13972TIP3    H241850   2.902   1.875   4.266  0.9581  0.0478  0.2082
13973TIP3   OH241851   1.369   2.914   1.078 -0.0723 -0.8663  0.3329
13973TIP3    H141852   1.318   2.952   1.006 -0.9048 -1.5280  0.5773
13973TIP3    H241853   1.318   2.933   1.156  1.2544  0.6082  0.8746
13974TIP3   OH241854   2.234   1.866   2.545  0.2363 -0.5659 -0.4205
13974TIP3    H141855   2.236   1.928   2.473  0.0628 -0.9787 -0.7827
13974TIP3    H241856   2.142   1.839   2.552  0.4499 -1.4156 -0.8155
13975TIP3   OH241857   1.263   1.581   1.348  0.2757  0.1795  0.0711
13975TIP3    H141858   1.321   1.533   1.407  1.7795  1.7102 -0.1266
13975TIP3    H241859   1.301   1.569   1.261 -0.3397  0.2608 -0.2131
13976TIP3   OH241860   8.275   0.440   2.871 -0.0450 -0.4624 -0.5274
13976TIP3    H141861   8.272   0.368   2.809 -2.1718 -0.8445 -0.0053
13976TIP3    H241862   8.266   0.399   2.957  0.6571  0.2649 -0.0920
13977TIP3   OH241863   1.382   0.090   0.608  0.5616  0.7235  0.3862
13977TIP3    H141864   1.355   0.156   0.544 -2.1637 -0.4807  0.2019
13977TIP3    H241865   1.305   0.080   0.665  0.9377 -2.2031  0.4431
13978TIP3   OH241866   6.777   7.471   0.148  0.5386  0.1602 -0.1738
13978TIP3    H141867   6.807   7.503   0.232  0.0126 -1.8434  0.8259
13978TIP3    H241868   6.846   7.495   0.086  1.5711  0.4667  1.0790
13979TIP3   OH241869   3.965   3.484   6.700 -0.1114 -0.2337 -0.0780
13979TIP3    H141870   3.966   3.545   6.773 -1.3564 -1.6020  1.1220
13979TIP3    H241871   3.975   3.539   6.622 -1.2268  1.4850  0.9648
13980TIP3   OH241872   8.427   0.626   0.774 -0.0882  0.1819  0.2148
13980TIP3    H141873   8.473   0.659   0.696 -0.5886 -0.3340 -0.3004
13980TIP3    H241874   8.424   0.532   0.762 -0.6701  0.1528  0.5865
13981TIP3   OH241875   0.208   1.175   0.568 -0.1711 -0.4056  0.0329
13981TIP3    H141876   0.238   1.209   0.484 -1.4973  0.3488 -0.1474
13981TIP3    H241877   0.245   1.087   0.573  2.3804  0.6460  0.0062
13982TIP3   OH241878   5.914   7.681   2.423 -0.0923 -0.1059 -0.3344
13982TIP3    H141879   5.991   7.624   2.421  0.5623  0.7204  0.6009
13982TIP3    H241880   5.856   7.641   2.488 -1.1936 -1.6402 -2.2281
13983TIP3   OH241881   7.619   2.154   2.293 -0.7889  0.3930  0.3989
13983TIP3    H141882   7.682   2.142   2.364 -0.3161 -0.1969 -0.1156
13983TIP3    H241883   7.647   2.235   2.249  0.1084 -0.2987 -0.3294
13984TIP3   OH241884   8.234   0.281   0.522 -0.0301 -0.4107 -0.5638
13984TIP3    H141885   8.299   0.245   0.462 -0.9281  0.1258 -1.8832
13984TIP3    H241886   8.155   0.291   0.469 -1.0450 -0.5639  0.8799
13985TIP3   OH241887   5.326   7.148   1.176 -0.3772  0.3493  0.0127
13985TIP3    H141888   5.255   7.087   1.156 -1.2116  1.0480  0.7992
13985TIP3    H241889   5.341   7.195   1.093 -0.3489 -0.2798 -0.3411
13986TIP3   OH241890   6.451   6.887   1.522 -0.2997 -0.1044  0.0926
13986TIP3    H141891   6.535   6.908   1.482 -0.0079  0.1530  0.8395
13986TIP3    H241892   6.445   6.945   1.598 -1.4580  0.3714 -0.3470
13987TIP3   OH241893   8.202   2.439   2.478 -0.1187 -0.1621 -0.3514
13987TIP3    H141894   8.120   2.401   2.445  0.5358 -0.5479 -1.5552
13987TIP3    H241895   8.233   2.375   2.543 -0.6799 -0.0932 -0.0046
13988TIP3   OH241896   1.147   2.238   1.934 -0.1696  0.1614 -0.4144
13988TIP3    H141897   1.078   2.187   1.891  1.1908 -0.9270 -1.3602
13988TIP3    H241898   1.122   2.329   1.918 -0.8052 -0.2207 -1.7139
13989TIP3   OH241899   2.450   1.883   2.141  0.0380  0.2917 -0.2411
13989TIP3    H141900   2.434   1.803   2.091 -0.3061  0.4638 -0.4043
13989TIP3    H241901   2.467   1.852   2.230 -1.0384  0.1026 -0.0974
13990TIP3   OH241902   2.482   5.249   6.291 -0.4261 -0.0048  0.3680
13990TIP3    H141903   2.521   5.336   6.300  0.4876 -0.5579  1.9198
13990TIP3    H241904   2.467   5.219   6.381 -1.0937 -1.2798 -0.1521
13991TIP3   OH241905   1.665   8.027   1.598  0.3872  0.1742  0.1069
13991TIP3    H141906   1.737   7.979   1.556 -1.3458 -0.8496 -1.7557
13991TIP3    H241907   1.624   7.962   1.655  0.0720  0.3697  0.1020
13992TIP3   OH241908   8.122   7.865   2.929  0.7654 -0.0141 -0.0362
13992TIP3    H141909   8.175   7.786   2.941  1.9544  0.9166  0.9498
13992TIP3    H241910   8.127   7.911   3.013  0.0696  1.1043 -0.5847
13993TIP3   OH241911   5.465   5.755   6.574  0.1004  0.2039  0.2827
13993TIP3    H141912   5.396   5.748   6.640 -1.2022 -1.2035 -1.1683
13993TIP3    H241913   5.480   5.849   6.564 -0.2157  0.4520  2.0394
13994TIP3   OH241914   7.634   6.749   2.143  0.3586 -0.6520 -0.4919
13994TIP3    H141915   7.666   6.815   2.083 -0.5785  0.8303  0.5860
13994TIP3    H241916   7.544   6.733   2.115 -1.0116  2.0164  2.0340
13995TIP3   OH241917   1.836   1.943   2.660  0.0256  0.1993 -0.0646
13995TIP3    H141918   1.887   1.990   2.594  0.2965 -0.1428 -0.1029
13995TIP3    H241919   1.823   1.856   2.622  0.4660 -0.1053  0.4690
13996TIP3   OH241920   7.269   7.693   0.803  0.3175 -0.2904 -0.5640
13996TIP3    H141921   7.299   7.727   0.719  0.2759  1.2458  0.0250
13996TIP3    H241922   7.251   7.600   0.787 -1.2004  0.3193 -2.6566
13997TIP3   OH241923   1.598   2.972   0.501 -0.6933 -0.2177 -0.0850
13997TIP3    H141924   1.582   2.884   0.535  1.9701 -0.3577  0.9292
13997TIP3    H241925   1.625   2.959   0.411 -0.1074 -0.4453  0.1259
13998TIP3   OH241926   2.110   2.203   1.695 -0.2367 -0.3613 -0.2752
13998TIP3    H141927   2.017   2.212   1.717 -0.4050 -1.6782 -0.3822
13998TIP3    H241928   2.110   2.149   1.616  0.6162 -0.3262 -0.3006
13999TIP3   OH241929   3.329   1.656   2.060  0.3333 -0.7790 -0.2511
13999TIP3    H141930   3.408   1.621   2.101  0.4980  0.4846  0.5330
13999TIP3    H241931   3.318   1.743   2.099 -1.4265 -0.9282 -0.3494
14000TIP3   OH241932   3.427   2.174   0.463 -0.0945 -0.0918 -0.2558
14000TIP3    H141933   3.375   2.102   0.499 -1.4230  0.9704  0.0081
14000TIP3    H241934   3.370   2.251   0.473  1.8533  1.2536  0.8153
14001TIP3   OH241935   1.447   2.073   1.856  0.2386  0.1610  0.5149
14001TIP3    H141936   1.358   2.069   1.822  0.7089  1.6730 -0.9559
14001TIP3    H241937   1.491   1.997   1.817 -0.4133 -0.6062  1.2733
14002TIP3   OH241938   2.041   0.532   0.143  0.0727  0.6215 -0.0892
14002TIP3    H141939   1.973   0.594   0.168  0.1159  1.1684 -1.3050
14002TIP3    H241940   2.095   0.580   0.080  0.2468 -0.5676 -0.8548
14003TIP3   OH241941   2.127   2.063   2.411  0.8645  0.1452 -0.1602
14003TIP3    H141942   2.187   2.137   2.413 -0.4169  1.1907  0.6187
14003TIP3    H241943   2.049   2.094   2.457 -0.0509 -1.3760 -0.6400
14004TIP3   OH241944   4.948   6.818   6.753 -0.3407  0.1769 -0.9756
14004TIP3    H141945   5.021   6.755   6.748 -1.0664 -1.0330  2.4447
14004TIP3    H241946   4.870   6.765   6.738 -0.7558  0.8885 -1.3456
14005TIP3   OH241947   4.381   2.225   1.859 -0.2944  0.3685 -0.1765
14005TIP3    H141948   4.399   2.314   1.890 -0.7215  0.3811  0.0411
14005TIP3    H241949   4.290   2.208   1.886  0.8334 -1.3676  2.7168
14006TIP3   OH241950   1.628   1.890   1.710 -0.4494  0.7605 -0.6239
14006TIP3    H141951   1.642   1.796   1.711  1.2709  0.9383 -2.7026
14006TIP3    H241952   1.712   1.927   1.741 -0.9820  1.6170 -0.1715
14007TIP3   OH241953   5.694   5.651   6.695 -0.1711 -0.0898  0.4484
14007TIP3    H141954   5.622   5.693   6.648 -0.0086  0.3807  0.6231
14007TIP3    H241955   5.773   5.682   6.650  0.0035  0.6458  1.2599
14008TIP3   OH241956   2.549   1.963   1.627  0.0616 -0.0254  0.0990
14008TIP3    H141957   2.590   1.898   1.685 -0.0720 -0.3715 -0.1886
14008TIP3    H241958   2.467   1.920   1.599 -1.5127  1.4426  2.2864
14009TIP3   OH241959   4.088   0.709   1.539 -0.0751  0.2531 -0.2505
14009TIP3    H141960   4.118   0.618   1.548 -1.3370 -0.0838  0.6494
14009TIP3    H241961   4.020   0.718   1.606 -0.4418  1.6603 -0.8105
14010TIP3   OH241962   2.035   0.443   2.384  0.4109 -0.2186 -0.4252
14010TIP3    H141963   2.120   0.444   2.341 -0.2352 -1.2708 -1.7552
14010TIP3    H241964   2.052   0.411   2.472  1.6258  1.1325 -0.1560
14011TIP3   OH241965   1.558   1.230   2.535  0.1031 -0.2570  0.5392
14011TIP3    H141966   1.555   1.135   2.526  0.2860 -0.2598  0.4917
14011TIP3    H241967   1.481   1.261   2.488 -0.0166 -0.3887  0.6499
14012TIP3   OH241968   2.388   1.387   2.499  0.5563  0.0726 -0.1357
14012TIP3    H141969   2.450   1.436   2.447 -0.0420 -0.8282 -1.7474
14012TIP3    H241970   2.347   1.452   2.556 -0.2850  1.4796 -2.2740
14013TIP3   OH241971   2.759   3.346   2.470 -0.5642  0.0192  0.1060
14013TIP3    H141972   2.748   3.358   2.375 -1.5149  0.6752  0.2919
14013TIP3    H241973   2.825   3.410   2.495 -0.6674  0.1857 -0.0411
14014TIP3   OH241974   7.600   7.925   1.333  0.1360  0.0510 -0.2169
14014TIP3    H141975   7.660   7.856   1.362  2.1594  0.9475 -2.1298
14014TIP3    H241976   7.518   7.880   1.316  0.5267 -1.3697  1.5194
14015TIP3   OH241977   3.109   0.869   2.924 -0.3472 -0.0571 -0.1352
14015TIP3    H141978   3.072   0.947   2.965  1.1926  1.7796 -2.1399
14015TIP3    H241979   3.093   0.882   2.830  1.6884 -1.2107 -0.6554
14016TIP3   OH241980   4.493   5.485   5.765 -0.5182  0.6779  0.2849
14016TIP3    H141981   4.458   5.482   5.676 -0.3064  4.0174  0.0042
14016TIP3    H241982   4.568   5.426   5.764 -0.9007  0.2089 -1.5795
14017TIP3   OH241983   1.142   1.996   2.920  0.0079  0.9132  0.3808
14017TIP3    H141984   1.100   1.989   2.834 -1.8136  2.3022  1.1365
14017TIP3    H241985   1.070   2.008   2.982  1.0706 -2.7092  2.4911
14018TIP3   OH241986   6.163   5.881   6.837 -0.2792  0.2044 -0.3740
14018TIP3    H141987   6.088   5.895   6.894 -0.0601  0.6935 -0.2053
14018TIP3    H241988   6.144   5.798   6.793 -1.1545  0.5734 -0.7090
14019TIP3   OH241989   2.078   6.589   2.041  0.5605 -0.6198  0.6691
14019TIP3    H141990   2.025   6.527   2.091  0.9107 -1.0363  0.5315
14019TIP3    H241991   2.038   6.675   2.058 -0.4316 -0.9834  0.1942
14020TIP3   OH241992   1.551   1.733   1.364  0.1196  0.1680  0.6034
14020TIP3    H141993   1.637   1.695   1.343 -1.0708 -1.8625 -0.7253
14020TIP3    H241994   1.522   1.686   1.442 -1.2700 -1.5640 -0.9261
14021TIP3   OH241995   2.393   0.939   3.362  0.3735 -0.6090 -0.2450
14021TIP3    H141996   2.319   0.991   3.333  1.0084 -0.4098 -1.5326
14021TIP3    H241997   2.354   0.867   3.412 -0.6546 -0.2771 -0.5655
14022TIP3   OH241998   6.069   5.508   4.930  0.1281  0.1298 -0.1008
14022TIP3    H141999   6.041   5.588   4.886 -1.8519 -1.2636 -1.4153
14022TIP3    H242000   6.018   5.505   5.011 -0.4900 -0.2899 -0.5067
14023TIP3   OH242001   1.743   3.106   1.737 -0.0350  0.3606  0.2813
14023TIP3    H142002   1.737   3.053   1.658  0.5295  1.9056 -0.8108
14023TIP3    H242003   1.652   3.123   1.761 -0.2073 -0.2087  0.0493
14024TIP3   OH242004   0.461   0.415   1.888  0.2077 -0.6580 -0.1006
14024TIP3    H142005   0.493   0.490   1.836 -0.5529 -1.2463 -1.4451
14024TIP3    H242006   0.367   0.431   1.897  0.1550 -1.1291  0.1734
14025TIP3   OH242007   3.968   2.320   2.368  0.2806  0.2624  0.1409
14025TIP3    H142008   3.954   2.394   2.427  0.1246  0.4353 -0.1105
14025TIP3    H242009   3.915   2.250   2.405  1.1493 -0.0087  0.8990
14026TIP3   OH242010   2.909   1.830   2.117 -0.2608 -0.0798  0.3206
14026TIP3    H142011   2.874   1.851   2.031  1.1463 -1.7776 -0.7008
14026TIP3    H242012   2.854   1.758   2.149  0.3237 -0.6561  0.0492
14027TIP3   OH242013   2.495   1.265   0.640 -0.4618  0.1516  0.0367
14027TIP3    H142014   2.505   1.268   0.545  0.0812 -0.3907  0.0755
14027TIP3    H242015   2.571   1.215   0.670 -0.1102  1.1392  0.8335
14028TIP3   OH242016   2.392   0.708   0.768 -0.2272  0.1035  0.1435
14028TIP3    H142017   2.327   0.697   0.699  0.3146 -0.7547 -0.2465
14028TIP3    H242018   2.342   0.739   0.844 -0.6292  2.3731 -1.0013
14029TIP3   OH242019   3.967   1.189   1.528 -0.0095 -0.3589 -0.1988
14029TIP3    H142020   3.913   1.263   1.499  0.2570 -0.4420 -0.9065
14029TIP3    H242021   4.011   1.222   1.607 -0.9270 -0.2204  0.2638
14030TIP3   OH242022   5.241   6.612   6.959  0.1284 -0.0125 -0.4321
14030TIP3    H142023   5.237   6.520   6.984 -1.9787  0.3988  0.8993
14030TIP3    H242024   5.220   6.612   6.865 -0.3675 -0.8349 -0.3283
14031TIP3   OH242025   3.260   1.222   1.992  0.6133 -0.2357 -0.4132
14031TIP3    H142026   3.204   1.157   2.035  0.1554  1.3985  1.5152
14031TIP3    H242027   3.343   1.176   1.979 -0.5343 -2.0752 -1.6089
14032TIP3   OH242028   5.021   7.578   6.467  0.1079  0.6832 -0.7105
14032TIP3    H142029   4.980   7.565   6.382  0.8240  0.7479 -1.0663
14032TIP3    H242030   4.964   7.641   6.512  0.4586  1.6826 -1.6491
14033TIP3   OH242031   3.972   3.931   6.162 -0.6374  0.0463 -0.4674
14033TIP3    H142032   4.015   3.977   6.089  0.5427  0.9657  0.7897
14033TIP3    H242033   3.967   3.996   6.232  1.5181 -1.8111  1.5293
14034TIP3   OH242034   2.272   0.097   2.973  0.4016 -0.0558 -0.4529
14034TIP3    H142035   2.338   0.094   2.903 -0.7476  0.3299 -1.5798
14034TIP3    H242036   2.317   0.063   3.050  2.0616  0.6472 -1.0854
14035TIP3   OH242037   0.031   2.806   0.158  0.4262  0.0089 -0.2149
14035TIP3    H142038   0.087   2.753   0.101  0.3831  0.3315 -0.5614
14035TIP3    H242039   0.044   2.896   0.127  0.5086  0.2072  0.3711
14036TIP3   OH242040   2.753   4.699   5.619  0.1581  0.2736  0.3678
14036TIP3    H142041   2.722   4.704   5.710 -2.1309  0.6257 -0.4043
14036TIP3    H242042   2.798   4.782   5.605  0.1564  0.3987  1.0543
14037TIP3   OH242043   1.784   2.755   1.001  0.1664 -0.2960  0.0358
14037TIP3    H142044   1.756   2.822   0.939 -0.7951 -0.5110  0.2384
14037TIP3    H242045   1.753   2.673   0.964  1.7591 -0.6968 -0.4567
14038TIP3   OH242046   2.314   5.352   0.214  0.5266  0.7959 -0.3576
14038TIP3    H142047   2.384   5.286   0.216 -3.0841 -3.2558 -0.2084
14038TIP3    H242048   2.283   5.351   0.124 -1.9828 -0.5250  0.4653
14039TIP3   OH242049   6.405   6.412   6.160  0.4265 -0.1338  0.0129
14039TIP3    H142050   6.339   6.480   6.145 -0.3498 -1.4460 -3.0206
14039TIP3    H242051   6.356   6.336   6.190  0.9108 -0.2418  0.5355
14040TIP3   OH242052   1.440   3.190   1.214 -0.3777  0.1267 -0.5716
14040TIP3    H142053   1.406   3.134   1.144  0.3799 -1.5992  0.4169
14040TIP3    H242054   1.529   3.209   1.187 -0.1145 -0.4671 -0.1344
14041TIP3   OH242055   4.688   1.852   1.821  0.1846  0.0493 -0.0172
14041TIP3    H142056   4.629   1.869   1.894  0.0510  1.8681 -0.5246
14041TIP3    H242057   4.657   1.909   1.751  1.1800 -0.6319 -1.0276
14042TIP3   OH242058   1.649   3.572   0.790 -0.0924 -0.3064 -0.3084
14042TIP3    H142059   1.559   3.601   0.805 -0.2599 -1.7780  1.6171
14042TIP3    H242060   1.697   3.600   0.868  0.4421 -2.2746  0.0987
14043TIP3   OH242061   2.700   0.612   3.076 -0.4482 -0.5282  0.1290
14043TIP3    H142062   2.755   0.615   3.154  2.3366  0.1533 -1.7832
14043TIP3    H242063   2.672   0.703   3.063 -1.6822 -0.7965  0.8347
14044TIP3   OH242064   2.761   1.760   1.639  0.6985  0.6006 -0.0006
14044TIP3    H142065   2.841   1.708   1.638  0.8899  0.8931 -0.3580
14044TIP3    H242066   2.728   1.754   1.549 -0.2067 -0.3204  0.3878
14045TIP3   OH242067   1.846   3.841   0.362 -0.2970 -0.3641  0.2097
14045TIP3    H142068   1.908   3.874   0.297 -0.4525 -0.5677 -0.0457
14045TIP3    H242069   1.876   3.752   0.382  0.6265  0.2427  1.5470
14046TIP3   OH242070   3.161   0.840   1.492 -0.5352 -0.1606 -0.4458
14046TIP3    H142071   3.077   0.862   1.453  0.4618  2.2907 -1.3727
14046TIP3    H242072   3.161   0.886   1.576 -0.6640 -1.2855  0.1743
14047TIP3   OH242073   1.980   0.772   3.509  0.3719  0.1612 -0.0771
14047TIP3    H142074   1.906   0.715   3.485 -1.2031  1.5076  1.4039
14047TIP3    H242075   2.008   0.740   3.595 -0.5707  1.6186  0.7969
14048TIP3   OH242076   3.175   4.683   6.883 -0.0876 -0.0589  0.4279
14048TIP3    H142077   3.156   4.595   6.915  2.5363 -0.2028  1.7656
14048TIP3    H242078   3.266   4.679   6.854 -0.1338  2.0458 -0.1048
14049TIP3   OH242079   3.028   7.929   6.939  0.1338  0.5478 -0.1582
14049TIP3    H142080   2.967   7.981   6.887 -0.9314 -1.0370 -0.5093
14049TIP3    H242081   3.037   7.846   6.891  0.1555 -0.4237  1.4916
14050TIP3   OH242082   2.039   1.534   0.876  0.2818  0.9761  0.2274
14050TIP3    H142083   1.999   1.504   0.794  0.0784  2.0499 -0.0797
14050TIP3    H242084   2.059   1.453   0.924 -1.5189  0.3854  0.0328
14051TIP3   OH242085   2.865   1.158   0.611  0.2610 -0.3469 -0.4331
14051TIP3    H142086   2.913   1.239   0.629  3.1235 -1.7094 -1.4615
14051TIP3    H242087   2.868   1.148   0.516  0.0985 -1.7180 -0.3163
14052TIP3   OH242088   2.064   1.800   2.907 -0.6639  0.8475  0.2968
14052TIP3    H142089   1.985   1.852   2.894 -1.0727  0.2880  0.5183
14052TIP3    H242090   2.066   1.741   2.832 -0.8449  0.3711  0.6662
14053TIP3   OH242091   0.751   1.140   0.090 -0.1615 -0.2517  0.2591
14053TIP3    H142092   0.800   1.140   0.007 -1.4815 -0.6531 -0.5359
14053TIP3    H242093   0.709   1.053   0.093 -0.6739  0.0199  1.0116
14054TIP3   OH242094   1.213   1.305  -0.030 -0.2793 -0.4636 -0.3411
14054TIP3    H142095   1.187   1.396  -0.021  2.6794  0.3483  0.4585
14054TIP3    H242096   1.191   1.265   0.054 -2.4268 -0.7621 -1.0058
14055TIP3   OH242097   0.346   1.566   2.314  0.9299 -0.2634 -0.2214
14055TIP3    H142098   0.433   1.591   2.285  1.4151 -0.7927  0.7481
14055TIP3    H242099   0.345   1.588   2.407 -0.1831  0.3153 -0.3573
14056TIP3   OH242100   4.307   0.381   1.300  0.0901  0.1098 -0.0730
14056TIP3    H142101   4.247   0.413   1.368  0.1666 -0.1770  0.1282
14056TIP3    H242102   4.314   0.454   1.239  1.4401  1.0496  1.1534
14057TIP3   OH242103   1.263   0.781   0.155  0.5079  0.1018  0.1134
14057TIP3    H142104   1.228   0.843   0.219  2.8711 -1.9745  3.5846
14057TIP3    H242105   1.222   0.698   0.178  2.4542 -0.9580 -0.1785
14058TIP3   OH242106   4.501   2.202   5.129 -0.4593  0.3178  0.0448
14058TIP3    H142107   4.477   2.209   5.037 -0.4574  1.7963  0.1474
14058TIP3    H242108   4.589   2.164   5.128 -1.0599 -1.0721 -0.4946
14059TIP3   OH242109   4.524   0.810   0.821  0.3668 -0.2273  0.3838
14059TIP3    H142110   4.609   0.844   0.793  0.4459 -0.2672  0.5754
14059TIP3    H242111   4.544   0.752   0.895  0.3662 -1.6968 -0.7405
14060TIP3   OH242112   3.733   0.279   1.424 -0.0017 -0.2457  0.1514
14060TIP3    H142113   3.718   0.186   1.436 -0.0446 -0.3069 -0.3515
14060TIP3    H242114   3.664   0.307   1.363  0.4921 -0.0482 -0.3211
14061TIP3   OH242115   1.137   0.284   0.152 -0.5522 -0.6715 -0.4434
14061TIP3    H142116   1.225   0.259   0.182  0.0620  0.3607 -1.3568
14061TIP3    H242117   1.134   0.252   0.061 -0.7036  0.2916 -0.7782
14062TIP3   OH242118   1.881   2.842   0.093 -0.3658 -0.0257 -0.4474
14062TIP3    H142119   1.837   2.836   0.009 -0.4115  0.2869 -0.4463
14062TIP3    H242120   1.936   2.763   0.097 -0.0964  0.1349 -0.9206
14063TIP3   OH242121   2.783   2.228   2.946 -0.4629 -0.3572  0.1525
14063TIP3    H142122   2.731   2.256   2.871 -0.8626 -0.4513  0.3897
14063TIP3    H242123   2.792   2.133   2.934  1.9110  0.0147 -1.2858
14064TIP3   OH242124   8.021   3.590   2.456 -0.0201 -0.3499  0.2196
14064TIP3    H142125   7.993   3.511   2.410  2.7600 -1.1074 -0.2536
14064TIP3    H242126   8.024   3.657   2.388  0.3394 -0.5243  0.0630
14065TIP3   OH242127   1.448   1.208   0.257  0.4281  0.4493  0.2525
14065TIP3    H142128   1.498   1.162   0.324  1.1549  1.4763  0.4228
14065TIP3    H242129   1.482   1.173   0.174  2.2143  1.9381  0.3451
14066TIP3   OH242130   1.171   3.439   1.952  0.5951  0.2116  0.3135
14066TIP3    H142131   1.131   3.521   1.924 -0.6558 -0.7840 -0.9139
14066TIP3    H242132   1.247   3.428   1.894 -0.9741 -0.9641 -1.6127
14067TIP3   OH242133   3.175   3.341   1.169 -0.1676 -0.0906 -0.4356
14067TIP3    H142134   3.199   3.397   1.095 -1.6327 -0.1262 -0.9547
14067TIP3    H242135   3.082   3.356   1.180 -0.2155 -1.1085  0.5538
14068TIP3   OH242136   2.022   1.362   1.251  0.0277  0.4066 -0.0365
14068TIP3    H142137   2.066   1.368   1.166  1.4387 -1.7002  0.5122
14068TIP3    H242138   2.042   1.445   1.294  0.2003  1.0525 -1.3344
14069TIP3   OH242139   2.406   1.019   2.823  0.3469  0.2534 -0.2312
14069TIP3    H142140   2.456   1.099   2.838 -0.4689  0.4699  1.5119
14069TIP3    H242141   2.380   0.991   2.911 -0.9537 -0.8933 -0.9717
14070TIP3   OH242142   5.211   4.877   5.628 -0.5107  0.0029  0.0623
14070TIP3    H142143   5.197   4.847   5.718 -0.4942 -1.2260 -0.3301
14070TIP3    H242144   5.303   4.904   5.625 -0.5355  0.1311  0.4338
14071TIP3   OH242145   1.772   0.738   0.620 -0.3600  0.1771  0.1786
14071TIP3    H142146   1.791   0.658   0.573  3.1461  1.5400 -0.8438
14071TIP3    H242147   1.724   0.793   0.557  2.3031  1.0994 -1.0946
14072TIP3   OH242148   2.253   1.773   1.189 -0.2919 -0.0922 -0.1106
14072TIP3    H142149   2.173   1.721   1.185 -0.6938  0.5297 -0.2523
14072TIP3    H242150   2.258   1.802   1.280 -0.5976  0.4282 -0.2524
14073TIP3   OH242151   1.012   1.717   1.349 -0.0335  0.0004  0.8696
14073TIP3    H142152   0.983   1.759   1.269 -1.0813 -0.9696  0.7382
14073TIP3    H242153   1.098   1.681   1.328 -1.0269 -1.7092 -0.3312
14074TIP3   OH242154   3.347   2.109   2.930 -0.3582 -0.1301  0.2886
14074TIP3    H142155   3.435   2.130   2.960 -1.1802  1.3640  1.6764
14074TIP3    H242156   3.323   2.030   2.979 -0.3551  0.2873  0.9554
14075TIP3   OH242157   7.675   7.155   3.223 -0.0370  0.2594  0.7015
14075TIP3    H142158   7.744   7.109   3.175 -0.1337  0.4455  0.3842
14075TIP3    H242159   7.603   7.162   3.160 -0.5004 -0.3117  1.1717
14076TIP3   OH242160   3.598   2.073   0.698  0.2657 -0.2031 -0.0293
14076TIP3    H142161   3.527   2.069   0.634  0.2885  0.0090 -0.0700
14076TIP3    H242162   3.555   2.099   0.780  0.2868 -0.1245 -0.0424
14077TIP3   OH242163   5.871   6.196   5.232 -0.0526  0.2481 -0.2243
14077TIP3    H142164   5.937   6.242   5.179 -0.2572  0.3942 -0.3518
14077TIP3    H242165   5.791   6.200   5.179 -0.1934  0.1741 -0.0156
14078TIP3   OH242166   2.871   0.306   0.762 -0.5150  0.1438  0.2049
14078TIP3    H142167   2.934   0.376   0.742 -0.5853 -0.3880 -1.9863
14078TIP3    H242168   2.790   0.335   0.721 -0.7548 -0.8660 -0.0380
14079TIP3   OH242169   2.703   3.293   1.855  0.0234 -0.1606 -0.7184
14079TIP3    H142170   2.697   3.262   1.946 -1.8142 -1.0253 -1.1144
14079TIP3    H242171   2.616   3.326   1.835  0.4033 -0.0231 -2.2036
14080TIP3   OH242172   7.332   2.746   0.149 -0.4246 -0.0639  0.1190
14080TIP3    H142173   7.414   2.759   0.197  0.1652  1.1526 -1.1945
14080TIP3    H242174   7.338   2.657   0.114 -0.1976 -0.4066  1.0118
14081TIP3   OH242175   1.619   1.648   2.788 -0.1931  0.0275 -0.3874
14081TIP3    H142176   1.605   1.555   2.804  0.3901  0.3280  1.9100
14081TIP3    H242177   1.670   1.678   2.862  0.9529  1.8685 -1.8895
14082TIP3   OH242178   8.482   1.330   1.342 -0.1993 -0.2100  0.6560
14082TIP3    H142179   8.403   1.357   1.295 -0.0002 -1.5670 -0.4823
14082TIP3    H242180   8.554   1.361   1.287  0.0326 -1.9130 -0.0373
14083TIP3   OH242181   0.359   1.384   1.421 -0.5194  0.1087 -0.6923
14083TIP3    H142182   0.287   1.369   1.482  0.2307 -0.4836  0.0705
14083TIP3    H242183   0.318   1.392   1.336 -1.4496 -0.6628 -0.3225
14084TIP3   OH242184   2.389   2.135   0.946  0.1495 -0.1860 -0.2900
14084TIP3    H142185   2.326   2.090   1.003  0.3211  0.8922  0.7890
14084TIP3    H242186   2.362   2.112   0.857 -0.9783 -0.7900  0.1945
14085TIP3   OH242187   3.253   3.855   1.236 -1.0891 -0.8501  0.3610
14085TIP3    H142188   3.263   3.942   1.274  2.4966 -1.0925  0.1386
14085TIP3    H242189   3.216   3.871   1.149 -1.5280  0.3587  0.7595
14086TIP3   OH242190   1.247   2.165   0.672 -0.2797  0.5549 -0.0029
14086TIP3    H142191   1.217   2.081   0.636 -1.6191  0.6708  0.8045
14086TIP3    H242192   1.246   2.151   0.767  1.9601  0.6695  0.0530
14087TIP3   OH242193   8.281   6.102   1.844  0.1803  0.1093 -1.2659
14087TIP3    H142194   8.366   6.144   1.850  0.2785 -0.3831  1.2747
14087TIP3    H242195   8.245   6.132   1.760  3.0307 -0.0722 -2.6233
14088TIP3   OH242196   2.385   0.157   0.933 -0.1927 -0.0006 -0.2272
14088TIP3    H142197   2.404   0.111   0.851 -0.0649  0.3249 -0.3774
14088TIP3    H242198   2.437   0.236   0.929 -1.2347  0.6873 -0.4509
14089TIP3   OH242199   4.718   3.947   6.855 -0.4480  0.1012 -0.1675
14089TIP3    H142200   4.663   4.014   6.895 -0.1253  0.0345  0.4040
14089TIP3    H242201   4.743   3.982   6.770 -1.6365 -0.0037 -0.5653
14090TIP3   OH242202   4.688   5.404   6.743 -0.3314  0.3683  0.4604
14090TIP3    H142203   4.677   5.484   6.691 -2.6450  0.6343  1.3256
14090TIP3    H242204   4.620   5.409   6.810 -1.8911 -3.3284 -0.7408
14091TIP3   OH242205   4.674   5.330   5.417  0.4117  0.0068 -0.1073
14091TIP3    H142206   4.604   5.264   5.419  0.8408 -0.4320  0.7221
14091TIP3    H242207   4.668   5.369   5.330 -0.7220 -0.1830 -0.1215
14092TIP3   OH242208   4.149   1.764   3.040 -0.3381  0.2001 -0.1682
14092TIP3    H142209   4.147   1.848   2.994 -0.6417  0.6585  0.6752
14092TIP3    H242210   4.190   1.704   2.978  1.0963  1.2718 -0.2738
14093TIP3   OH242211   2.845   2.117   1.292 -0.3082  0.4134 -0.6576
14093TIP3    H142212   2.844   2.108   1.387 -0.9010 -2.5712 -0.9038
14093TIP3    H242213   2.901   2.046   1.262 -0.5601  1.0022 -2.5760
14094TIP3   OH242214   2.808   2.043   0.603  0.0635  0.0032 -0.5975
14094TIP3    H142215   2.893   2.001   0.612 -0.1197  0.1907  2.6047
14094TIP3    H242216   2.746   1.971   0.587  0.5122 -0.3530 -0.7177
14095TIP3   OH242217   4.369   4.606   6.269  0.1742  0.1431 -0.2539
14095TIP3    H142218   4.455   4.642   6.247  0.0028 -0.1935 -1.4761
14095TIP3    H242219   4.360   4.623   6.363  1.0209  1.3549 -0.3767
14096TIP3   OH242220   0.834   7.635   1.824 -0.3040 -0.2434 -0.3101
14096TIP3    H142221   0.914   7.688   1.835 -1.8445  2.4309 -1.6111
14096TIP3    H242222   0.855   7.573   1.754  0.4169  0.8976 -1.1133
14097TIP3   OH242223   5.346   5.345   6.036  0.0905  0.6599 -0.1426
14097TIP3    H142224   5.381   5.431   6.011  0.3520  0.0395 -2.0095
14097TIP3    H242225   5.266   5.336   5.983  0.8355 -0.8524 -1.0400
14098TIP3   OH242226   2.473   1.658   0.288 -0.6743 -0.2597  0.0671
14098TIP3    H142227   2.546   1.598   0.276 -1.3117 -1.5103  2.0959
14098TIP3    H242228   2.397   1.608   0.257 -0.9631  0.1748  0.0803
14099TIP3   OH242229   1.431   0.739   0.527  0.0239  0.2003  0.0155
14099TIP3    H142230   1.423   0.676   0.455 -2.0324 -0.9739  1.2324
14099TIP3    H242231   1.349   0.789   0.524 -0.3523 -0.2842  1.9235
14100TIP3   OH242232   2.691   0.531   1.970  0.6886  0.0190 -0.0560
14100TIP3    H142233   2.675   0.481   1.890  0.2261 -0.5859  0.4077
14100TIP3    H242234   2.650   0.617   1.953 -0.2946 -0.4479 -0.0860
14101TIP3   OH242235   3.766   0.431   2.896  0.2426 -0.3286 -0.0311
14101TIP3    H142236   3.858   0.443   2.920 -0.0236  1.8482  0.0120
14101TIP3    H242237   3.769   0.377   2.817  1.7456  1.9635 -1.6123
14102TIP3   OH242238   5.108   3.849   5.685 -0.0217  0.4674  0.0315
14102TIP3    H142239   5.192   3.804   5.674 -0.1947 -0.2891  1.6405
14102TIP3    H242240   5.072   3.854   5.597  1.0647 -0.4730 -0.4848
14103TIP3   OH242241   4.073   4.706   6.633 -0.1075  0.1371 -0.3324
14103TIP3    H142242   4.017   4.729   6.559 -0.0098 -0.4298 -0.5795
14103TIP3    H242243   4.013   4.693   6.706 -0.5487 -3.0895 -1.2142
14104TIP3   OH242244   2.333   2.986   0.525 -0.7342  0.0932 -0.3579
14104TIP3    H142245   2.282   2.931   0.584  1.0395 -0.3190  0.8244
14104TIP3    H242246   2.302   2.962   0.437 -0.4389 -2.3460  0.1734
14105TIP3   OH242247   3.718   1.565   1.653  0.0324  0.5743 -0.1350
14105TIP3    H142248   3.625   1.568   1.676  0.5429  0.6540  2.0040
14105TIP3    H242249   3.751   1.486   1.697  0.7222 -0.1765 -1.9432
14106TIP3   OH242250   2.999   7.463   6.603 -0.1025  0.1442  0.1320
14106TIP3    H142251   3.068   7.410   6.643  0.8252  1.3495  0.1578
14106TIP3    H242252   3.026   7.473   6.511 -1.2047 -0.9392 -0.3239
14107TIP3   OH242253   8.212   3.532   1.002 -0.0093 -0.1960 -0.5145
14107TIP3    H142254   8.287   3.499   0.952  0.2276 -1.4470  0.6552
14107TIP3    H242255   8.194   3.618   0.963  1.9200  0.0538 -0.9104
14108TIP3   OH242256   5.267   6.943   6.911  0.3420  0.6298 -0.0065
14108TIP3    H142257   5.360   6.931   6.895 -0.1539 -1.0758 -1.7757
14108TIP3    H242258   5.240   6.864   6.957 -0.4426  0.6316 -0.4531
14109TIP3   OH242259   1.527   2.268   2.315 -0.0486 -0.6313  0.6032
14109TIP3    H142260   1.614   2.251   2.280 -0.1179 -0.2599  0.2531
14109TIP3    H242261   1.469   2.216   2.259 -0.1705  0.0502  0.0834
14110TIP3   OH242262   4.888   5.230   6.653  0.1551 -0.1125 -0.0684
14110TIP3    H142263   4.948   5.220   6.727  0.5016  0.3846 -0.2810
14110TIP3    H242264   4.813   5.278   6.689  0.2639  0.0115 -0.0065
14111TIP3   OH242265   5.570   6.400   6.463 -0.0778  0.2151 -0.0708
14111TIP3    H142266   5.562   6.481   6.413 -0.8027  0.6997  0.8287
14111TIP3    H242267   5.481   6.366   6.469  0.2879 -0.9450 -0.9139
14112TIP3   OH242268   2.577   3.236   2.111  0.1069 -0.2036 -0.0073
14112TIP3    H142269   2.570   3.145   2.142  1.6544 -0.4674 -0.3885
14112TIP3    H242270   2.660   3.267   2.147  0.7721  0.2632 -1.8700
14113TIP3   OH242271   2.417   3.837   2.649 -0.2311 -0.0521 -0.1820
14113TIP3    H142272   2.481   3.781   2.693 -2.2009 -0.7269  1.9047
14113TIP3    H242273   2.430   3.923   2.687 -1.6258 -0.5399  1.4775
14114TIP3   OH242274   5.842   7.075   6.613 -0.1810 -0.0114 -0.2011
14114TIP3    H142275   5.847   7.118   6.528 -0.9727  1.6862  0.6005
14114TIP3    H242276   5.777   7.006   6.601 -2.2587  1.9097 -0.2791
14115TIP3   OH242277   0.959   1.460   1.744 -0.7981  0.1768  0.3972
14115TIP3    H142278   0.910   1.434   1.821  0.4643  0.2750  1.2531
14115TIP3    H242279   1.041   1.411   1.750 -0.7295  0.1067 -0.9304
14116TIP3   OH242280   3.109   7.164   2.822  0.4113  0.4212 -0.0536
14116TIP3    H142281   3.056   7.240   2.842 -1.9177 -1.1670  0.0592
14116TIP3    H242282   3.194   7.182   2.862 -0.7451  2.0430  1.7482
14117TIP3   OH242283   2.596   0.445   0.411 -0.1058  0.6797  0.2271
14117TIP3    H142284   2.537   0.479   0.344 -1.2040 -1.0419  0.2751
14117TIP3    H242285   2.543   0.381   0.459  1.3591  0.1954  1.2329
14118TIP3   OH242286   4.832   4.743   5.127 -0.1064 -0.7761  0.0188
14118TIP3    H142287   4.910   4.713   5.173  0.3631  1.1372  0.5144
14118TIP3    H242288   4.849   4.725   5.035  0.7931 -0.6557  0.1562
14119TIP3   OH242289   2.500   3.851   1.190 -0.2368  0.5573  0.5297
14119TIP3    H142290   2.408   3.826   1.197 -0.2017 -0.2737 -1.5481
14119TIP3    H242291   2.548   3.773   1.217 -0.1544  0.1178 -0.8299
14120TIP3   OH242292   7.528   7.029   3.450 -0.1041  0.0056  0.6211
14120TIP3    H142293   7.482   7.064   3.374 -1.4440  1.9544  2.2689
14120TIP3    H242294   7.619   7.053   3.436 -0.4105  0.7398 -0.1660
14121TIP3   OH242295   7.349   6.457   0.241 -0.2019  0.0362  0.4522
14121TIP3    H142296   7.295   6.432   0.167 -0.1879  1.7628 -0.1783
14121TIP3    H242297   7.430   6.407   0.231 -0.8014 -0.8648  0.1440
14122TIP3   OH242298   1.921   2.903   1.624  0.7797  0.1225  0.2986
14122TIP3    H142299   1.884   2.888   1.711  0.7891  1.9017  0.6457
14122TIP3    H242300   2.011   2.933   1.641  0.7197  0.6609 -0.3041
14123TIP3   OH242301   0.785   2.833   3.124 -0.9617 -0.2714 -0.6427
14123TIP3    H142302   0.769   2.926   3.113  1.4210  0.0274 -1.9497
14123TIP3    H242303   0.880   2.826   3.135 -1.2691 -2.4090  0.9744
14124TIP3   OH242304   7.508   7.573   3.487  0.4364 -0.1954  0.4249
14124TIP3    H142305   7.596   7.555   3.454 -0.6493 -1.2285 -2.0018
14124TIP3    H242306   7.481   7.492   3.530 -0.6277 -1.1398 -1.8983
14125TIP3   OH242307   6.709   6.742   1.639 -0.1285 -0.1595  0.0785
14125TIP3    H142308   6.688   6.835   1.648 -1.3256 -0.3584 -0.5861
14125TIP3    H242309   6.667   6.715   1.557  0.8578 -1.1049 -0.1273
14126TIP3   OH242310   0.864   2.930   3.454  0.3273 -0.4357  0.0922
14126TIP3    H142311   0.906   3.010   3.486  4.6824 -2.8535  0.8281
14126TIP3    H242312   0.908   2.910   3.372  0.0556 -2.6416  0.4400
14127TIP3   OH242313   1.665   0.879   3.380  0.5263  0.0642 -0.5444
14127TIP3    H142314   1.658   0.969   3.412  0.2850  0.0695 -0.6132
14127TIP3    H242315   1.683   0.826   3.458  1.2138  0.2389 -0.5746
14128TIP3   OH242316   3.132   2.038   0.996 -0.1118  0.1354  0.3461
14128TIP3    H142317   3.205   2.067   1.050 -0.5751  1.6316  0.2057
14128TIP3    H242318   3.077   1.987   1.055  0.8937 -0.7576  0.5220
14129TIP3   OH242319   6.745   7.636   4.221  0.2817 -0.4396  0.4905
14129TIP3    H142320   6.698   7.594   4.149  1.2429 -1.5224  0.4656
14129TIP3    H242321   6.795   7.565   4.262  0.3417  0.3065  1.7513
14130TIP3   OH242322   1.176   3.320   0.354 -0.1144 -0.1305  0.3427
14130TIP3    H142323   1.229   3.399   0.350 -0.4303  0.0694 -0.0736
14130TIP3    H242324   1.086   3.352   0.357 -0.1445 -0.4102  3.8230
14131TIP3   OH242325   1.207   0.421   0.904  0.0608  0.6558  0.0392
14131TIP3    H142326   1.301   0.438   0.908  0.0632  1.0020 -1.2641
14131TIP3    H242327   1.183   0.398   0.993  1.8176 -1.7241 -0.0444
14132TIP3   OH242328   4.466   5.651   5.406 -0.2887 -0.0920 -0.3014
14132TIP3    H142329   4.530   5.675   5.339 -0.1493  0.3264 -0.0204
14132TIP3    H242330   4.493   5.700   5.484 -0.4668 -0.5536  0.0524
14133TIP3   OH242331   3.426   4.320   0.904  0.8641  0.4093  0.1584
14133TIP3    H142332   3.403   4.400   0.950 -0.9302 -0.0805  0.1644
14133TIP3    H242333   3.439   4.255   0.974 -2.2571 -0.4369  0.0397
14134TIP3   OH242334   1.339   4.872   0.276 -0.5509 -0.0001 -1.4744
14134TIP3    H142335   1.430   4.866   0.248 -0.0438  0.5190 -0.0147
14134TIP3    H242336   1.288   4.872   0.195  0.7714  0.1902 -2.3162
14135TIP3   OH242337   2.820   2.380   1.325 -0.3007 -0.2439 -0.5146
14135TIP3    H142338   2.883   2.414   1.261  1.5981 -1.2817  0.7640
14135TIP3    H242339   2.814   2.287   1.306 -0.5093 -0.3706  0.1878
14136TIP3   OH242340   3.214   3.426   0.319 -0.1808 -0.3501  0.0993
14136TIP3    H142341   3.285   3.373   0.354 -0.3986 -0.3790  0.4986
14136TIP3    H242342   3.134   3.383   0.349 -0.3733 -0.4716 -0.5784
14137TIP3   OH242343   5.284   4.315   6.705 -0.5749 -0.1201 -0.0198
14137TIP3    H142344   5.300   4.248   6.640  0.2737  1.1957 -1.1885
14137TIP3    H242345   5.370   4.335   6.742 -0.9238 -0.2199  0.8792
14138TIP3   OH242346   2.863   0.767   0.528  0.3867  0.6571 -0.0753
14138TIP3    H142347   2.856   0.820   0.448 -0.3033 -1.2621 -1.3013
14138TIP3    H242348   2.799   0.807   0.588 -0.6656  0.7720 -1.2446
14139TIP3   OH242349   2.622   1.666   1.404 -0.7412  0.6682 -0.3399
14139TIP3    H142350   2.535   1.701   1.424 -0.5606  0.7602  0.2867
14139TIP3    H242351   2.658   1.727   1.340 -1.9237 -0.4687 -2.1357
14140TIP3   OH242352   1.798   1.682   0.155  0.2167  0.7768 -0.3886
14140TIP3    H142353   1.783   1.670   0.249 -1.8540  0.0398 -0.7860
14140TIP3    H242354   1.712   1.708   0.120  0.3617 -1.3894 -2.4569
14141TIP3   OH242355   2.313   2.377   1.617  0.2451  0.0117  0.5051
14141TIP3    H142356   2.311   2.331   1.534  0.6139 -1.0970  1.1031
14141TIP3    H242357   2.246   2.335   1.670 -0.3014  1.0107  0.6251
14142TIP3   OH242358   1.444   0.573   0.752  0.3999 -0.4216  0.3193
14142TIP3    H142359   1.453   0.625   0.672 -0.2262 -0.5176  0.1860
14142TIP3    H242360   1.356   0.593   0.784  0.4469 -0.8055  0.6869
14143TIP3   OH242361   1.158   2.125   2.174  0.3079 -0.0470 -0.3915
14143TIP3    H142362   1.135   2.188   2.105  0.2209  2.2507  1.6837
14143TIP3    H242363   1.252   2.113   2.165  0.4817  1.1334 -0.1818
14144TIP3   OH242364   3.454   1.722   0.906  0.2043  0.5693  0.3097
14144TIP3    H142365   3.457   1.637   0.951 -0.6742  0.0211 -0.6489
14144TIP3    H242366   3.546   1.750   0.903  0.6325 -0.8577 -0.3006
14145TIP3   OH242367   5.388   1.560   1.125 -0.2075  0.3127  0.0347
14145TIP3    H142368   5.436   1.516   1.054 -0.7541 -0.7349  0.2931
14145TIP3    H242369   5.310   1.505   1.138 -0.5565  0.9932  0.8445
14146TIP3   OH242370   5.492   1.584   0.663 -0.0403 -0.3350  0.3778
14146TIP3    H142371   5.507   1.614   0.752  0.2790  0.9727 -0.1196
14146TIP3    H242372   5.578   1.588   0.621  0.4511 -3.9048  0.8751
14147TIP3   OH242373   4.374   1.550   1.877  0.2398  0.1202 -0.2260
14147TIP3    H142374   4.308   1.494   1.918 -0.0513  1.7342  1.6096
14147TIP3    H242375   4.387   1.622   1.940  1.3900  1.5306 -2.0114
14148TIP3   OH242376   6.841   0.924   0.458  0.2156 -0.3158  0.4754
14148TIP3    H142377   6.854   1.012   0.495 -1.2962  0.6131 -1.0976
14148TIP3    H242378   6.891   0.925   0.377  0.7090 -1.1509  0.7609
14149TIP3   OH242379   7.411   7.974   1.700  0.4753 -0.2451  0.2171
14149TIP3    H142380   7.338   8.035   1.703  1.0494  0.4709 -0.3282
14149TIP3    H242381   7.373   7.889   1.724 -0.7542 -0.0809 -1.1456
14150TIP3   OH242382   1.553   0.290   0.703  0.1150  0.0734  0.2751
14150TIP3    H142383   1.504   0.208   0.702 -0.0071  0.1377  0.9765
14150TIP3    H242384   1.592   0.295   0.616 -0.5157 -0.3412 -0.0358
14151TIP3   OH242385   1.156   2.540   1.470  0.1187  0.5938 -0.0655
14151TIP3    H142386   1.211   2.609   1.506  0.2430  0.4631 -0.0045
14151TIP3    H242387   1.212   2.463   1.467  0.0206  0.5262 -0.2565
14152TIP3   OH242388   0.942   5.349   2.148 -0.0956 -0.5911  0.0822
14152TIP3    H142389   0.986   5.348   2.232  0.3849  1.5616 -0.1230
14152TIP3    H242390   0.849   5.359   2.169  0.2579  2.5380  0.3168
14153TIP3   OH242391   1.388   7.842   0.629 -0.2721 -0.3892 -0.4597
14153TIP3    H142392   1.372   7.796   0.547  1.2429 -0.9432 -0.4647
14153TIP3    H242393   1.304   7.883   0.651 -0.8469 -0.7353 -1.9646
14154TIP3   OH242394   1.803   0.023   0.568 -0.2617  0.3427 -0.8113
14154TIP3    H142395   1.874   0.044   0.628 -0.5261  1.6776 -0.9531
14154TIP3    H242396   1.814   0.083   0.494 -1.3442  0.3477 -0.9829
14155TIP3   OH242397   3.127   0.939   0.750 -0.6882 -0.0480 -0.2615
14155TIP3    H142398   3.036   0.939   0.780 -1.3432  1.4436 -2.1468
14155TIP3    H242399   3.178   0.919   0.828 -2.4653  1.9190  1.4748
14156TIP3   OH242400   0.186   0.373   2.919  0.0991  0.0744  0.5463
14156TIP3    H142401   0.124   0.319   2.870  0.6721 -1.9177  1.9349
14156TIP3    H242402   0.144   0.387   3.004  0.5850  0.6059  0.7049
14157TIP3   OH242403   1.311   1.220   3.795  0.0538 -0.1467  0.7485
14157TIP3    H142404   1.318   1.125   3.804  0.9403 -0.1491  0.0719
14157TIP3    H242405   1.365   1.255   3.865  1.6521 -0.1570 -0.4491
14158TIP3   OH242406   1.796   2.262   2.216  0.0215 -0.5288 -0.2702
14158TIP3    H142407   1.784   2.284   2.123 -0.8868  1.6948  0.3122
14158TIP3    H242408   1.836   2.341   2.254  0.1203 -1.3043  1.2736
14159TIP3   OH242409   1.276   3.603   1.160 -0.7342 -0.4625 -0.0281
14159TIP3    H142410   1.188   3.639   1.153 -0.9202 -0.8509  0.3025
14159TIP3    H242411   1.333   3.672   1.125 -1.2648 -0.6663 -1.3004
14160TIP3   OH242412   2.853   0.655   1.568 -0.2006 -0.3661  0.7080
14160TIP3    H142413   2.917   0.591   1.539  0.0037  0.1114  0.1002
14160TIP3    H242414   2.831   0.705   1.490 -0.9681 -0.2203  1.0054
14161TIP3   OH242415   2.085   5.023   0.668 -0.5346  0.6736  0.3687
14161TIP3    H142416   2.162   5.067   0.632 -0.9412 -0.1292 -1.5050
14161TIP3    H242417   2.114   4.933   0.685 -0.9318  0.4984  0.1185
14162TIP3   OH242418   1.786   1.443   1.568 -0.5727 -0.4972 -0.1652
14162TIP3    H142419   1.857   1.424   1.629  0.3202 -0.2641 -1.1251
14162TIP3    H242420   1.794   1.375   1.500 -2.3666 -1.5600  0.6478
14163TIP3   OH242421   0.651   1.994   0.333 -0.0001 -0.3222  0.0928
14163TIP3    H142422   0.586   1.968   0.398  0.4446 -0.6656  0.4064
14163TIP3    H242423   0.684   2.078   0.366  1.3630 -1.2561  1.1725
14164TIP3   OH242424   3.687   0.562   1.702  0.0343 -0.2746  0.2431
14164TIP3    H142425   3.696   0.558   1.607  0.5909 -0.4837  0.3051
14164TIP3    H242426   3.617   0.626   1.717 -0.9022 -1.1651 -0.3409
14165TIP3   OH242427   1.179   4.847   0.053 -0.3805  0.6226 -0.3183
14165TIP3    H142428   1.197   4.761   0.090  0.1463  1.0315  0.3784
14165TIP3    H242429   1.195   4.836  -0.041  1.4275  0.4034 -0.0073
14166TIP3   OH242430   0.977   2.311   1.126 -0.6699  0.1829 -0.5299
14166TIP3    H142431   1.048   2.371   1.103 -0.4155  0.8113  1.7436
14166TIP3    H242432   1.022   2.230   1.150 -0.6897  0.5667  0.8646
14167TIP3   OH242433   0.739   3.980   2.613 -0.1982  0.8554 -0.4937
14167TIP3    H142434   0.685   3.937   2.547 -0.3779 -0.2478  0.3480
14167TIP3    H242435   0.713   3.938   2.696  1.7760  0.4723 -0.0356
14168TIP3   OH242436   2.493   0.901   0.978  0.5855 -0.1453  0.2489
14168TIP3    H142437   2.561   0.848   1.020 -0.2923  0.0440  1.9339
14168TIP3    H242438   2.411   0.857   1.001  0.0202  0.5777 -0.3733
14169TIP3   OH242439   3.276   1.399   1.046  0.3965  0.3533  0.2527
14169TIP3    H142440   3.192   1.442   1.029  0.3234  0.2192  0.2755
14169TIP3    H242441   3.283   1.332   0.977  0.8109  0.8337 -0.1807
14170TIP3   OH242442   4.379   2.736   0.168 -0.2867 -0.0743 -0.0454
14170TIP3    H142443   4.388   2.815   0.221  1.1466 -0.2330 -0.0162
14170TIP3    H242444   4.330   2.764   0.091 -0.7686  0.5812  0.4968
14171TIP3   OH242445   7.284   4.151   1.399 -0.1009 -0.1530 -0.1290
14171TIP3    H142446   7.285   4.092   1.474 -0.0556 -0.6645 -0.5325
14171TIP3    H242447   7.214   4.213   1.418 -1.5261 -1.5828 -0.6717
14172TIP3   OH242448   4.442   6.495   6.179  0.1432 -0.8192  0.0878
14172TIP3    H142449   4.396   6.480   6.097  0.2622  2.8882 -0.7327
14172TIP3    H242450   4.520   6.440   6.173  0.2381 -0.4823 -2.3512
14173TIP3   OH242451   2.970   1.456   1.587  0.2729 -0.1073  0.3372
14173TIP3    H142452   2.956   1.447   1.492 -1.6563  0.1097  0.5755
14173TIP3    H242453   3.065   1.456   1.597  0.6165  2.9319 -1.9336
14174TIP3   OH242454   2.026   7.993   1.205  0.4243  0.3571  0.3546
14174TIP3    H142455   1.971   7.944   1.266 -0.9915  1.0962 -0.3032
14174TIP3    H242456   1.972   8.068   1.180  2.4619  2.1202  1.1547
14175TIP3   OH242457   1.808   1.384   0.197 -0.3312 -0.3210  0.3488
14175TIP3    H142458   1.753   1.400   0.120  0.1821  0.8581  0.2259
14175TIP3    H242459   1.765   1.432   0.267 -0.7931 -1.3864  0.8094
14176TIP3   OH242460   2.070   0.393   0.372 -0.0523  0.6213 -0.3651
14176TIP3    H142461   2.073   0.421   0.281 -1.4541  0.5830 -0.4336
14176TIP3    H242462   2.146   0.336   0.382  0.4436  1.1001 -1.3484
14177TIP3   OH242463   4.394   6.212   6.757  1.0656 -0.1203 -0.0763
14177TIP3    H142464   4.428   6.213   6.668  0.1335 -1.2459 -0.4544
14177TIP3    H242465   4.343   6.132   6.763 -0.5983  0.9659  0.8226
14178TIP3   OH242466   7.997   7.836   1.148  0.5651  0.2225  0.2361
14178TIP3    H142467   8.033   7.858   1.234  1.3570  0.3627 -0.1177
14178TIP3    H242468   8.075   7.816   1.095  0.0841  0.1293 -0.4358
14179TIP3   OH242469   6.483   5.699   6.559  0.3913  0.1331 -0.3220
14179TIP3    H142470   6.398   5.680   6.521 -0.4450  4.3099 -0.7467
14179TIP3    H242471   6.466   5.767   6.624  2.7807 -2.2057  2.8988
14180TIP3   OH242472   6.214   6.256   6.339 -0.0848 -0.0018 -0.4863
14180TIP3    H142473   6.152   6.324   6.367 -1.0941 -1.2637  0.4103
14180TIP3    H242474   6.290   6.268   6.396 -1.3163 -1.2539  1.4900
14181TIP3   OH242475   2.790   5.452   4.835  0.5616  0.2876 -0.3853
14181TIP3    H142476   2.818   5.542   4.852 -0.3518  0.4972  0.0696
14181TIP3    H242477   2.780   5.414   4.923 -0.5264  0.2150 -0.5309
14182TIP3   OH242478   6.566   6.971   5.333  0.0762 -0.0478  0.1336
14182TIP3    H142479   6.634   7.038   5.340  0.4045 -0.5127  1.5425
14182TIP3    H242480   6.607   6.901   5.283  0.8270 -0.5522  1.4348
14183TIP3   OH242481   6.444   4.810   6.890 -0.4314 -0.2543 -0.4130
14183TIP3    H142482   6.484   4.826   6.976 -3.0457 -2.0051  1.1980
14183TIP3    H242483   6.395   4.889   6.870 -1.3063 -0.5219  0.6078
14184TIP3   OH242484   2.846   1.141   1.066  0.0101  0.1918 -0.0780
14184TIP3    H142485   2.856   1.098   0.982  0.8730  1.1647 -0.4890
14184TIP3    H242486   2.925   1.119   1.114  0.6375  1.5966 -0.4339
14185TIP3   OH242487   5.428   4.059   0.889 -0.0226  0.0976  0.2097
14185TIP3    H142488   5.439   4.128   0.954  0.7259 -1.2522  1.5563
14185TIP3    H242489   5.427   4.104   0.805  0.7885  1.7090  1.0501
14186TIP3   OH242490   5.273   7.920   5.956 -0.7269 -0.0048 -0.0964
14186TIP3    H142491   5.258   8.012   5.936  0.9426  0.5872  1.2552
14186TIP3    H242492   5.342   7.893   5.895  2.1971  0.9804  2.6469
14187TIP3   OH242493   3.307   3.116   0.423 -0.1997  0.1777  0.1310
14187TIP3    H142494   3.253   3.095   0.499  1.6696  1.5213  1.8990
14187TIP3    H242495   3.395   3.128   0.459  0.7784  0.5280 -2.2977
14188TIP3   OH242496   7.269   6.127   6.328  0.0232 -0.2189  0.0118
14188TIP3    H142497   7.309   6.163   6.406 -0.9428  2.5521 -0.7318
14188TIP3    H242498   7.253   6.035   6.350  0.8594  0.2177  2.6137
14189TIP3   OH242499   7.667   3.590   6.870  0.3241 -0.3468  0.0901
14189TIP3    H142500   7.701   3.612   6.957 -1.3254 -1.1265  0.9635
14189TIP3    H242501   7.607   3.661   6.848  0.5414 -0.2808 -0.2979
14190TIP3   OH242502   0.994   6.252   6.213 -0.3371  0.0678  0.6460
14190TIP3    H142503   0.965   6.287   6.298 -2.1439  1.5605 -0.5531
14190TIP3    H242504   1.089   6.249   6.219 -0.3761  1.4324  2.2314
14191TIP3   OH242505   5.137   1.352   0.873 -0.1899 -0.6008 -0.0674
14191TIP3    H142506   5.135   1.417   0.803  0.6550 -0.9786 -0.4512
14191TIP3    H242507   5.148   1.269   0.828  1.6477 -0.7267  0.5564
14192TIP3   OH242508   4.379   0.591   1.143  0.3998  0.5246  0.5071
14192TIP3    H142509   4.472   0.588   1.120  0.8186  3.9989  1.3999
14192TIP3    H242510   4.335   0.618   1.062  0.4824  1.3576  0.7365
14193TIP3   OH242511   4.037   1.000   0.784  0.1029  0.4820 -0.0089
14193TIP3    H142512   3.976   1.006   0.711  1.1663 -0.0751 -0.9610
14193TIP3    H242513   4.016   0.917   0.826  0.9959 -0.3069 -1.0813
14194TIP3   OH242514   3.628   1.835   2.388  0.2544 -0.0621 -0.4337
14194TIP3    H142515   3.540   1.867   2.405  0.4580  0.9191 -1.1433
14194TIP3    H242516   3.630   1.748   2.426 -0.5239  0.5216  0.9680
14195TIP3   OH242517   7.383   5.285   6.371 -0.1639  0.3777  0.4674
14195TIP3    H142518   7.474   5.279   6.343 -0.1252  1.5414  0.3475
14195TIP3    H242519   7.355   5.193   6.379  1.0726  0.0072  0.7295
14196TIP3   OH242520   4.356   0.205   0.981 -0.5499  0.9229 -0.2146
14196TIP3    H142521   4.445   0.186   1.011 -0.4142  1.7728 -0.0770
14196TIP3    H242522   4.300   0.162   1.046 -0.2445  1.3907  0.3653
14197TIP3   OH242523   5.578   2.064   1.001 -0.2052  0.2774 -0.2259
14197TIP3    H142524   5.628   2.133   0.957 -0.4734  1.1250  0.7920
14197TIP3    H242525   5.632   2.040   1.076  0.2478 -1.1608 -1.0042
14198TIP3   OH242526   8.033   7.539   0.463  0.3391 -0.0417 -0.2282
14198TIP3    H142527   8.048   7.446   0.480  0.1102 -0.0803 -0.2217
14198TIP3    H242528   7.952   7.540   0.412  1.0441  0.0609 -1.3673
14199TIP3   OH242529   2.076   1.595   1.377  0.4833 -0.1341  0.0264
14199TIP3    H142530   2.168   1.616   1.392  0.9104 -1.3592 -0.7606
14199TIP3    H242531   2.030   1.629   1.454  1.4063  1.6746 -0.1846
14200TIP3   OH242532   4.985   1.820   0.084 -0.1182  0.1180  0.0201
14200TIP3    H142533   5.060   1.767   0.056  1.0640  0.8562  1.7123
14200TIP3    H242534   4.994   1.901   0.035  0.5174  0.4180  0.6199
14201TIP3   OH242535   3.239   1.286   0.773  0.0612 -0.4973  0.0421
14201TIP3    H142536   3.156   1.332   0.761  0.3480 -0.0162 -0.0893
14201TIP3    H242537   3.231   1.208   0.717 -0.1576 -0.2700 -0.2467
14202TIP3   OH242538   6.108   3.991   6.519 -0.0637 -0.1349 -0.3360
14202TIP3    H142539   6.059   4.048   6.458 -0.3478  1.0604  0.9806
14202TIP3    H242540   6.173   4.049   6.558  0.1237 -0.9020  0.4938
14203TIP3   OH242541   6.549   6.706   4.227 -0.2681  0.7500 -0.3331
14203TIP3    H142542   6.525   6.614   4.236  0.3782  0.6401  0.2608
14203TIP3    H242543   6.465   6.752   4.223 -0.6479 -0.0433 -2.8211
14204TIP3   OH242544   5.311   2.914   1.331 -0.7020 -0.0472  0.1314
14204TIP3    H142545   5.226   2.891   1.368 -0.2621  0.0637  1.2612
14204TIP3    H242546   5.294   2.935   1.240 -2.0559  1.0058  0.6119
14205TIP3   OH242547   4.815   2.061   0.725  0.2101 -0.1291  0.3660
14205TIP3    H142548   4.800   2.091   0.635 -0.1480 -0.2931  0.3732
14205TIP3    H242549   4.909   2.073   0.738  0.3247 -0.4311 -0.1512
14206TIP3   OH242550   8.323   1.514   6.613  0.4056  0.0932 -0.1388
14206TIP3    H142551   8.261   1.486   6.681  0.1999 -0.2073 -0.4495
14206TIP3    H242552   8.396   1.552   6.662 -0.9626  2.4171  0.1575
14207TIP3   OH242553   5.026   4.712   6.915  0.0925 -0.5856 -0.0360
14207TIP3    H142554   5.089   4.775   6.949  0.5396 -1.5553  0.9576
14207TIP3    H242555   4.969   4.763   6.857  0.5193  0.7006  0.6744
14208TIP3   OH242556   7.089   4.326   6.132 -0.1006 -0.4090  0.0791
14208TIP3    H142557   7.177   4.362   6.134  0.1553 -0.9725 -0.6085
14208TIP3    H242558   7.037   4.391   6.085  0.0048 -0.1889  0.2706
14209TIP3   OH242559   3.949   2.904   0.604  0.3937 -0.5642  0.5952
14209TIP3    H142560   3.872   2.928   0.553  0.7700  0.8727  0.6971
14209TIP3    H242561   3.919   2.905   0.695  0.6289  0.3839  0.6646
14210TIP3   OH242562   4.476   5.654   4.501 -0.5389  0.5281  0.0867
14210TIP3    H142563   4.395   5.668   4.550 -0.3511  2.3764 -0.0652
14210TIP3    H242564   4.459   5.577   4.446 -2.4888  1.3761 -0.5348
14211TIP3   OH242565   5.653   2.178   5.136  0.2768  0.0016 -0.2257
14211TIP3    H142566   5.675   2.090   5.105 -0.7401 -0.2822 -0.1408
14211TIP3    H242567   5.733   2.208   5.179  1.1960 -0.2061 -1.7409
14212TIP3   OH242568   3.051   2.570   0.911 -0.4278 -0.8310 -0.2305
14212TIP3    H142569   3.124   2.509   0.922 -1.5366 -1.9031  1.3565
14212TIP3    H242570   3.038   2.574   0.816  1.7703 -0.5035 -0.5561
14213TIP3   OH242571   6.569   3.021   6.159  0.3745 -0.6932  0.6031
14213TIP3    H142572   6.502   2.964   6.120  0.3144  0.1747 -0.5839
14213TIP3    H242573   6.523   3.103   6.177  0.0928 -1.4663  3.6751
14214TIP3   OH242574   4.716   5.342   5.679 -0.2649 -0.5672  0.1669
14214TIP3    H142575   4.803   5.302   5.680 -0.7804 -1.7116  0.1163
14214TIP3    H242576   4.706   5.376   5.590  0.7403  0.9351  0.6209
14215TIP3   OH242577   5.775   5.461   6.116  0.1382  0.3110 -0.2281
14215TIP3    H142578   5.855   5.508   6.092  1.7098 -1.6325  1.0150
14215TIP3    H242579   5.773   5.465   6.211 -1.8945  1.3097 -0.2876
14216TIP3   OH242580   6.154   3.484   0.164  0.3734  0.2066 -0.3353
14216TIP3    H142581   6.216   3.531   0.109  0.7214  1.3032  0.9518
14216TIP3    H242582   6.118   3.416   0.108  0.1752  1.7542 -2.1178
14217TIP3   OH242583   3.289   1.961   0.558 -0.0765 -0.2225 -0.4288
14217TIP3    H142584   3.211   1.977   0.611  1.9039  0.3597  2.3789
14217TIP3    H242585   3.336   1.892   0.604  1.4424 -0.0648 -1.7100
14218TIP3   OH242586   3.146   1.854   0.074  0.6506 -0.1537  0.1383
14218TIP3    H142587   3.074   1.792   0.084  1.4033 -0.7403  2.1230
14218TIP3    H242588   3.190   1.853   0.159  2.9204  0.2844 -1.0009
14219TIP3   OH242589   6.716   5.972   6.553  0.2222  0.0252 -0.0905
14219TIP3    H142590   6.647   5.973   6.619  1.4848  1.3606  1.2531
14219TIP3    H242591   6.683   6.029   6.483  0.0023  0.7284  0.5819
14220TIP3   OH242592   3.310   2.452   0.891 -0.0470 -0.3005 -0.0580
14220TIP3    H142593   3.306   2.362   0.859 -0.3802 -0.6149  0.8654
14220TIP3    H242594   3.371   2.448   0.965 -0.3108  0.1735  0.1832
14221TIP3   OH242595   5.589   0.288   0.693 -0.0785 -0.2219  0.1073
14221TIP3    H142596   5.499   0.290   0.726  0.1165 -1.2035  0.6878
14221TIP3    H242597   5.604   0.378   0.661 -1.8827 -0.5104 -1.6798
14222TIP3   OH242598   0.292   5.021   6.860 -0.1719 -0.1872 -0.0471
14222TIP3    H142599   0.319   5.110   6.840  2.5746 -0.8322  0.4336
14222TIP3    H242600   0.308   5.012   6.954 -0.4491 -1.1687 -0.0847
14223TIP3   OH242601   8.070   5.922   6.002  0.1442  0.0553 -0.2839
14223TIP3    H142602   8.129   5.996   6.012  1.6363 -1.2435  0.7247
14223TIP3    H242603   8.114   5.849   6.046 -2.1263 -0.9929  0.3395
14224TIP3   OH242604   3.788   3.215   2.071 -0.0052 -0.1495 -0.2288
14224TIP3    H142605   3.837   3.199   1.990  0.9453 -1.5147  0.5836
14224TIP3    H242606   3.807   3.306   2.093  2.7715 -0.8385  0.4330
14225TIP3   OH242607   5.111   2.942   4.937 -0.1510  0.1914 -0.0106
14225TIP3    H142608   5.045   2.882   4.970  0.3265 -1.3827 -1.8259
14225TIP3    H242609   5.190   2.920   4.986 -0.2034 -0.0323 -0.0261
14226TIP3   OH242610   3.249   2.397   0.077 -0.1973 -0.6496 -0.1352
14226TIP3    H142611   3.326   2.351   0.111 -1.0215  0.4074  3.3465
14226TIP3    H242612   3.178   2.332   0.082 -0.1287 -0.7683 -0.6979
14227TIP3   OH242613   5.993   3.713   2.101 -0.0235  0.3378 -0.2463
14227TIP3    H142614   5.956   3.792   2.061  1.2705  1.4160  0.6401
14227TIP3    H242615   5.941   3.700   2.181  0.1907  0.6752 -0.0508
14228TIP3   OH242616   6.540   5.783   6.273  0.2658 -0.0731  0.3413
14228TIP3    H142617   6.525   5.763   6.366  2.9363  0.8535  1.0029
14228TIP3    H242618   6.586   5.867   6.274 -0.9937  0.6718 -1.9115
14229TIP3   OH242619   5.040   4.986   4.947 -0.0156 -0.0385  0.1411
14229TIP3    H142620   5.045   5.020   4.858  3.1992  0.7150  0.5609
14229TIP3    H242621   4.975   4.915   4.942 -0.1809  0.2559 -2.6891
14230TIP3   OH242622   6.048   4.872   5.058  0.3324  0.3197 -0.1767
14230TIP3    H142623   6.124   4.881   5.115 -0.7626 -0.6050  1.4777
14230TIP3    H242624   6.030   4.778   5.057 -1.1482  0.5848 -0.0358
14231TIP3   OH242625   2.216   5.521   5.161  0.2282  0.3112  0.3046
14231TIP3    H142626   2.120   5.518   5.154  0.2985  0.1896 -0.5567
14231TIP3    H242627   2.243   5.429   5.164  0.4158  0.3276 -0.7514
14232TIP3   OH242628   4.837   2.148   1.402 -0.4901  0.1778  0.0766
14232TIP3    H142629   4.793   2.229   1.377  0.6606  1.4613  2.0640
14232TIP3    H242630   4.780   2.110   1.469 -0.0204  0.3912  0.6013
14233TIP3   OH242631   5.049   3.352   6.913 -0.0171  0.2886 -0.3264
14233TIP3    H142632   4.971   3.403   6.936 -0.6256 -1.5320  1.8556
14233TIP3    H242633   5.016   3.278   6.862  0.6042  0.9633 -1.7062
14234TIP3   OH242634   1.604   7.405   1.048 -0.0144  0.0494  0.2678
14234TIP3    H142635   1.535   7.469   1.063 -0.7521 -0.5574 -0.5437
14234TIP3    H242636   1.677   7.435   1.103 -1.1829  0.2527  1.7223
14235TIP3   OH242637   5.766   5.758   5.750  0.0983 -0.0922 -0.5837
14235TIP3    H142638   5.677   5.760   5.715 -0.5353 -0.1852  0.9756
14235TIP3    H242639   5.776   5.843   5.794 -0.3457 -1.3342  1.9546
14236TIP3   OH242640   4.484   4.852   4.871 -0.2476 -0.3550 -0.1495
14236TIP3    H142641   4.391   4.858   4.849  0.0399  0.5787 -1.2012
14236TIP3    H242642   4.486   4.827   4.963 -1.5733  1.8392  0.5215
14237TIP3   OH242643   6.138   4.949   6.414 -0.2715 -0.3419  0.3456
14237TIP3    H142644   6.078   4.951   6.488 -0.3169 -1.2668  0.3431
14237TIP3    H242645   6.225   4.943   6.453 -0.2024  0.5846  0.3426
14238TIP3   OH242646   3.749   0.947   0.230  0.4760  0.1698  0.1368
14238TIP3    H142647   3.785   0.880   0.289  1.2652 -0.5302 -1.1057
14238TIP3    H242648   3.822   1.007   0.215 -0.0799  1.0330  0.8288
14239TIP3   OH242649   7.502   5.775   4.038  0.3835  0.6242 -0.1369
14239TIP3    H142650   7.450   5.699   4.010  0.9312 -0.2215  1.1122
14239TIP3    H242651   7.589   5.739   4.054  0.8688  1.6898 -0.3830
14240TIP3   OH242652   5.004   0.213   1.036 -0.0349  0.3904 -0.0720
14240TIP3    H142653   5.054   0.196   0.956  0.3794 -0.7066  0.4144
14240TIP3    H242654   4.963   0.129   1.057 -0.0772  0.6519  0.9128
14241TIP3   OH242655   7.913   6.188   0.412 -0.2199 -0.1451  0.4072
14241TIP3    H142656   7.931   6.131   0.487  0.0833 -0.1909  0.3012
14241TIP3    H242657   7.855   6.135   0.356  1.1647 -0.8930 -0.3539
14242TIP3   OH242658   3.527   1.105   1.276 -0.1887 -0.1850 -0.5965
14242TIP3    H142659   3.549   1.087   1.367  1.0703  1.8505 -0.4794
14242TIP3    H242660   3.432   1.121   1.277  0.2566  2.5390  0.8247
14243TIP3   OH242661   6.400   6.283   6.535  0.0639 -0.2778 -0.0162
14243TIP3    H142662   6.362   6.204   6.574  1.0004 -0.4136  0.6145
14243TIP3    H242663   6.478   6.252   6.490 -0.5358  0.0146 -1.2941
14244TIP3   OH242664   2.816   1.552   0.567 -0.0313  0.1852 -0.1439
14244TIP3    H142665   2.758   1.603   0.623  0.4256  0.5037  0.0385
14244TIP3    H242666   2.903   1.564   0.605  0.2969  0.5097 -0.9973
14245TIP3   OH242667   6.066   6.375   5.164 -0.2404 -0.8246  0.0916
14245TIP3    H142668   6.158   6.401   5.170 -0.9062  1.6185  0.1630
14245TIP3    H242669   6.041   6.396   5.074 -0.9891 -0.5352  0.3633
14246TIP3   OH242670   5.331   3.926   6.932  0.3717  0.1846  0.2169
14246TIP3    H142671   5.357   3.885   6.849  1.3138  1.1580  0.0082
14246TIP3    H242672   5.238   3.946   6.921  1.1306  2.8873 -1.7476
14247TIP3   OH242673   5.685   0.101   6.814  0.2526  0.2560 -0.4516
14247TIP3    H142674   5.687   0.165   6.885  0.0814 -1.0127  0.7326
14247TIP3    H242675   5.702   0.151   6.735  0.7070  1.6621  0.5271
14248TIP3   OH242676   5.636   5.790   6.288  0.0428  0.3136 -0.1989
14248TIP3    H142677   5.645   5.835   6.204  2.6926 -1.2424 -0.8225
14248TIP3    H242678   5.684   5.845   6.350  2.3945 -1.0227 -0.7574
14249TIP3   OH242679   5.905   7.177   6.368  0.1067 -0.0125  0.0134
14249TIP3    H142680   5.964   7.249   6.386  0.6271 -0.5747  0.5618
14249TIP3    H242681   5.930   7.146   6.281  0.1949  0.1601 -0.0217
14250TIP3   OH242682   1.328   3.434   1.372  0.7642  0.1863  0.0098
14250TIP3    H142683   1.315   3.478   1.288  1.1571  0.8767  0.3060
14250TIP3    H242684   1.352   3.345   1.349 -1.5201 -0.3152 -0.5961
14251TIP3   OH242685   5.571   6.212   5.622 -0.5023  0.1049 -0.3660
14251TIP3    H142686   5.543   6.130   5.581 -1.0033 -0.4742  1.0969
14251TIP3    H242687   5.641   6.187   5.682  1.7540  1.2564 -2.4412
14252TIP3   OH242688   0.985   6.487   4.548  0.4306 -0.3553 -0.1243
14252TIP3    H142689   0.992   6.464   4.640 -0.7408  0.9744  0.3147
14252TIP3    H242690   0.897   6.523   4.538  2.4662  4.9709 -0.4606
14253TIP3   OH242691   4.070   0.454   2.978 -0.8264  0.1982 -0.1596
14253TIP3    H142692   4.131   0.482   2.910  0.5271  0.8077  1.2806
14253TIP3    H242693   4.083   0.359   2.984 -0.0136  0.3270  0.1438
14254TIP3   OH242694   4.728   5.006   4.825 -0.0771 -0.3377 -0.1257
14254TIP3    H142695   4.792   4.945   4.861 -0.5713  0.2119  1.7069
14254TIP3    H242696   4.650   4.953   4.809  0.0622 -0.5252 -0.1919
14255TIP3   OH242697   6.904   6.033   6.756 -0.6986  0.0519 -0.5755
14255TIP3    H142698   6.840   6.068   6.819 -0.9490 -1.9891  0.3791
14255TIP3    H242699   6.853   5.973   6.702  0.0973 -0.3967 -0.8378
14256TIP3   OH242700   5.620   4.361   4.476  0.2131  0.2241  0.4859
14256TIP3    H142701   5.634   4.456   4.471  0.1706  0.2079  0.0535
14256TIP3    H242702   5.698   4.323   4.436 -0.1795  0.0992 -0.1882
14257TIP3   OH242703   3.463   3.207   0.853 -0.2029 -0.4266  0.5044
14257TIP3    H142704   3.414   3.129   0.876 -2.2757  0.4166 -0.8659
14257TIP3    H242705   3.464   3.208   0.757  0.8909  0.5719  0.5016
14258TIP3   OH242706   8.482   4.494   6.233  0.0049  0.2332 -0.2438
14258TIP3    H142707   8.468   4.545   6.313  1.0758 -0.3097  0.2868
14258TIP3    H242708   8.467   4.404   6.259 -2.2732  0.2741 -1.2768
14259TIP3   OH242709   5.124   2.163   0.142  0.6367 -0.2519 -0.4384
14259TIP3    H142710   5.155   2.112   0.217 -2.4530 -3.2475 -1.0558
14259TIP3    H242711   5.131   2.103   0.068  1.3708  1.8613 -2.1372
14260TIP3   OH242712   7.267   1.778   0.290  0.6521  0.4822 -0.2126
14260TIP3    H142713   7.263   1.771   0.385  0.6742  0.8753 -0.1803
14260TIP3    H242714   7.273   1.872   0.273  2.5053  0.3202 -0.5462
14261TIP3   OH242715   7.153   5.228   6.669  0.1178  0.0609  0.3379
14261TIP3    H142716   7.073   5.214   6.719  0.4230 -0.9473  0.5533
14261TIP3    H242717   7.128   5.290   6.601 -1.1728 -1.2697 -0.4154
14262TIP3   OH242718   7.639   5.186   5.391 -0.0253 -0.5227  0.2689
14262TIP3    H142719   7.641   5.282   5.383  0.3965 -0.6800 -1.7816
14262TIP3    H242720   7.729   5.162   5.411  0.3756 -0.6501 -1.5861
14263TIP3   OH242721   3.190   2.594   1.506 -0.4323  0.0256  0.2417
14263TIP3    H142722   3.235   2.677   1.519 -2.2796  1.4309 -1.8759
14263TIP3    H242723   3.236   2.553   1.433 -0.6501  0.0470  0.0903
14264TIP3   OH242724   4.574   1.392   1.082 -0.1814  0.0139  0.2082
14264TIP3    H142725   4.516   1.324   1.048 -0.1388  0.6223 -1.1264
14264TIP3    H242726   4.564   1.464   1.019  1.2188  0.5101  0.5590
14265TIP3   OH242727   4.061   1.001   0.271  0.2517 -0.3892 -0.2749
14265TIP3    H142728   4.077   1.091   0.300 -0.4225 -0.6499  0.9454
14265TIP3    H242729   4.146   0.957   0.281  0.3730 -0.1067 -0.0559
14266TIP3   OH242730   8.368   7.855   0.814 -0.1156  1.1829 -0.2520
14266TIP3    H142731   8.414   7.927   0.858  1.2245 -0.4987  1.1478
14266TIP3    H242732   8.438   7.803   0.774 -0.9110 -0.5388  0.5514
14267TIP3   OH242733   5.426   5.175   5.117 -0.2353 -0.3599 -0.0009
14267TIP3    H142734   5.442   5.156   5.025 -0.1908  1.4975 -0.3964
14267TIP3    H242735   5.384   5.096   5.151 -0.4914 -0.9549 -1.6734
14268TIP3   OH242736   3.035   0.774   3.433 -0.4451 -0.9521 -0.3003
14268TIP3    H142737   3.046   0.845   3.497  0.7272 -2.2705  1.0158
14268TIP3    H242738   3.110   0.784   3.374  0.3383 -1.7275  0.5404
14269TIP3   OH242739   1.141   1.911   0.575 -0.4946  0.3374 -0.0475
14269TIP3    H142740   1.048   1.922   0.592 -0.5892 -2.8827  1.9653
14269TIP3    H242741   1.145   1.866   0.490 -0.8328 -0.1410  0.1864
14270TIP3   OH242742   3.759   1.287   0.059  0.1382  0.5169 -0.2961
14270TIP3    H142743   3.822   1.305   0.129 -1.2619  2.1092  0.5945
14270TIP3    H242744   3.801   1.219   0.006  1.2202 -0.7233  2.0814
14271TIP3   OH242745   6.065   3.773   6.671  0.6424 -0.0298  0.2970
14271TIP3    H142746   6.138   3.779   6.732  0.6284  2.0787  0.1277
14271TIP3    H242747   6.079   3.844   6.609 -0.0777 -1.2984 -1.3804
14272TIP3   OH242748   6.947   4.093   5.336 -0.0080 -0.2880 -0.2925
14272TIP3    H142749   7.030   4.082   5.289  0.8338  0.8537  0.8796
14272TIP3    H242750   6.904   4.008   5.329  1.9083 -1.3556  0.2959
14273TIP3   OH242751   6.800   6.509   4.665  0.4461  0.8052  0.3233
14273TIP3    H142752   6.884   6.509   4.711  1.3398  1.1993 -1.2594
14273TIP3    H242753   6.820   6.545   4.578 -1.0689 -0.4712 -0.5903
14274TIP3   OH242754   5.307   5.533   5.801 -0.0345 -0.1088 -0.2395
14274TIP3    H142755   5.402   5.517   5.807 -0.2004 -0.8538  0.6319
14274TIP3    H242756   5.283   5.504   5.713  0.7159  1.0282 -0.8277
14275TIP3   OH242757   6.887   1.633   0.838  0.2329  0.4097 -0.2193
14275TIP3    H142758   6.846   1.555   0.876  3.1999 -1.2318 -0.1748
14275TIP3    H242759   6.896   1.612   0.745 -0.0856  1.2075 -0.4270
14276TIP3   OH242760   6.454   6.052   5.931 -0.1937 -0.0299 -0.1190
14276TIP3    H142761   6.465   6.144   5.957 -0.0093 -0.1708  0.3030
14276TIP3    H242762   6.443   6.056   5.836 -1.0158  0.5029 -0.0086
14277TIP3   OH242763   0.404   4.830   6.037 -0.0275 -0.4052 -0.1820
14277TIP3    H142764   0.381   4.745   5.999  0.6151 -1.1169  1.0006
14277TIP3    H242765   0.472   4.864   5.978  0.2990 -1.0812 -0.2041
14278TIP3   OH242766   3.622   2.138   2.772  0.6239  0.0065 -0.3125
14278TIP3    H142767   3.638   2.168   2.862 -0.5793  0.1551 -0.1390
14278TIP3    H242768   3.594   2.047   2.781 -0.8554  0.4400 -0.4166
14279TIP3   OH242769   6.417   2.204   0.892  0.0678  0.8419 -0.6126
14279TIP3    H142770   6.391   2.289   0.928 -0.6780  0.9975 -1.4954
14279TIP3    H242771   6.496   2.223   0.840 -0.3686  1.0832 -1.1921
14280TIP3   OH242772   5.928   1.181   0.723  0.5265  0.4471 -0.4733
14280TIP3    H142773   5.871   1.169   0.799  1.3256  0.8590  0.1867
14280TIP3    H242774   5.996   1.115   0.734  0.2532  0.0311 -1.2092
14281TIP3   OH242775   5.901   0.605   2.754  0.5282  0.1300  0.7975
14281TIP3    H142776   5.866   0.523   2.720  0.4448 -0.0586  1.3338
14281TIP3    H242777   5.835   0.635   2.817 -0.1170  1.3224 -0.4256
14282TIP3   OH242778   6.221   5.989   6.447 -0.2045 -0.2253 -0.1547
14282TIP3    H142779   6.173   6.043   6.510 -0.0751  0.2596 -0.4639
14282TIP3    H242780   6.235   6.048   6.372  0.4626 -0.5088 -0.2551
14283TIP3   OH242781   1.948   3.090   0.691  0.0500 -0.2754 -0.4271
14283TIP3    H142782   1.868   3.058   0.732  0.7000  0.1220  1.1735
14283TIP3    H242783   1.925   3.101   0.598 -1.2252 -1.8525 -0.3157
14284TIP3   OH242784   4.383   3.110   2.515 -0.4729  0.3560 -0.1217
14284TIP3    H142785   4.308   3.051   2.507 -1.1014  1.4408 -2.7131
14284TIP3    H242786   4.436   3.072   2.586 -3.2154 -0.6592  1.4565
14285TIP3   OH242787   3.869   0.517   1.110 -0.0563  0.4019  0.1131
14285TIP3    H142788   3.897   0.435   1.151  1.2363  0.8388  0.1456
14285TIP3    H242789   3.853   0.495   1.019 -1.5103 -0.2671  0.5185
14286TIP3   OH242790   2.476   3.465   0.064  0.1191 -0.1300  0.1027
14286TIP3    H142791   2.489   3.411   0.142  0.4273  1.4802  1.1960
14286TIP3    H242792   2.402   3.522   0.086 -0.1059  0.0139 -0.9715
14287TIP3   OH242793   8.408   5.897   4.806  0.1899 -0.5582 -0.2688
14287TIP3    H142794   8.424   5.991   4.793 -2.6154 -0.1214 -0.8485
14287TIP3    H242795   8.339   5.893   4.871  1.1210 -2.2947  0.6498
14288TIP3   OH242796   7.007   5.576   6.649 -0.1732 -0.1826  0.1711
14288TIP3    H142797   7.050   5.520   6.583  1.1801 -0.8896  1.6234
14288TIP3    H242798   7.066   5.650   6.660 -0.6125  0.1545  0.2752
14289TIP3   OH242799   7.669   4.529   4.194  0.4227 -0.5382 -0.1434
14289TIP3    H142800   7.760   4.538   4.221  0.2003 -2.4508  1.4235
14289TIP3    H242801   7.670   4.466   4.123  0.3466 -0.4275 -0.2434
14290TIP3   OH242802   7.229   4.851   4.801  0.2766  0.0761  0.2442
14290TIP3    H142803   7.192   4.939   4.802  0.7540  0.2872 -0.4574
14290TIP3    H242804   7.234   4.826   4.893 -1.9876 -0.1113  0.3468
14291TIP3   OH242805   6.037   6.282   5.768 -0.1287  0.1630  0.0277
14291TIP3    H142806   5.955   6.248   5.804 -0.8207  0.4469 -1.2143
14291TIP3    H242807   6.021   6.286   5.673  0.1781  3.1873  0.0437
14292TIP3   OH242808   8.390   4.487   4.013  0.1005 -0.1775  0.1279
14292TIP3    H142809   8.392   4.465   3.920  0.9458 -1.8378  0.5238
14292TIP3    H242810   8.302   4.522   4.028  0.0952  0.5092 -1.3714
14293TIP3   OH242811   7.497   5.963   6.812 -0.1173 -0.1662 -0.7290
14293TIP3    H142812   7.546   6.021   6.870 -1.2597  0.3734 -0.2896
14293TIP3    H242813   7.470   6.019   6.739  0.7003 -0.6783 -1.4447
14294TIP3   OH242814   5.713   2.529   1.787  0.1328 -0.0015 -0.1477
14294TIP3    H142815   5.619   2.533   1.769  0.1647 -0.6126 -0.4763
14294TIP3    H242816   5.734   2.613   1.828 -0.8633 -0.5378  1.4627
14295TIP3   OH242817   5.716   4.470   6.641 -0.2983 -0.1567 -0.7018
14295TIP3    H142818   5.658   4.432   6.707 -1.1555  0.7327 -0.9257
14295TIP3    H242819   5.772   4.397   6.613 -0.2956 -0.6697  0.5998
14296TIP3   OH242820   8.223   3.038   1.787  0.1457 -0.0265  0.0530
14296TIP3    H142821   8.204   2.949   1.816 -1.9467  0.9719  1.9155
14296TIP3    H242822   8.138   3.072   1.758  1.4751  0.3375 -3.7331
14297TIP3   OH242823   5.282   5.621   6.225  0.1050 -0.2939 -0.0644
14297TIP3    H142824   5.359   5.605   6.170  0.5812  1.8127 -0.0438
14297TIP3    H242825   5.214   5.564   6.188  1.1667 -0.8365 -1.2004
14298TIP3   OH242826   4.051   2.432   0.241  0.1505  0.4761  0.3123
14298TIP3    H142827   4.028   2.371   0.310 -0.2462  0.0080 -0.2261
14298TIP3    H242828   4.107   2.497   0.283 -0.1719  0.2499  1.0869
14299TIP3   OH242829   5.759   4.004   6.405  0.3035  0.2296 -0.1519
14299TIP3    H142830   5.780   4.016   6.497  0.8512  0.2076 -0.2727
14299TIP3    H242831   5.685   4.063   6.389  0.5546  0.6315  0.1686
14300TIP3   OH242832   4.111   1.050   1.836 -0.3114 -0.1225  0.0969
14300TIP3    H142833   4.079   1.140   1.846 -0.6558 -0.0262 -1.6815
14300TIP3    H242834   4.206   1.059   1.831 -0.3364  0.1348  0.0412
14301TIP3   OH242835   2.761   3.054   1.764 -0.5949  0.8365 -0.3668
14301TIP3    H142836   2.856   3.043   1.757 -1.0540 -2.4242 -2.5404
14301TIP3    H242837   2.750   3.144   1.795  3.1515  2.3562 -2.9418
14302TIP3   OH242838   0.082   6.922   0.612  0.1760  0.2134 -0.3523
14302TIP3    H142839   0.158   6.867   0.631 -0.3928  0.0152  1.5280
14302TIP3    H242840   0.015   6.890   0.672 -1.1301  0.9200 -1.4331
14303TIP3   OH242841   3.830   1.945   0.105  0.4968 -0.1313  0.3850
14303TIP3    H142842   3.854   1.924   0.195  1.3200 -0.1994  0.1498
14303TIP3    H242843   3.796   1.863   0.069  0.8392 -0.2805  0.4081
14304TIP3   OH242844   0.222   7.531   0.083 -0.2003 -0.4634 -0.2472
14304TIP3    H142845   0.177   7.501   0.162 -0.2315  0.9813  0.3044
14304TIP3    H242846   0.154   7.532   0.015 -0.3379 -1.0319 -0.1149
14305TIP3   OH242847   5.830   3.934   6.679  0.2577  0.2949 -0.1529
14305TIP3    H142848   5.776   3.873   6.730 -0.3686  0.0794 -1.0499
14305TIP3    H242849   5.883   3.877   6.623  0.9503  0.5308  0.2621
14306TIP3   OH242850   1.176   0.105   1.933  0.9607  0.0802 -0.4808
14306TIP3    H142851   1.249   0.154   1.895  0.1812  1.0823 -0.7014
14306TIP3    H242852   1.099   0.156   1.912  0.3214 -0.2856  0.8969
14307TIP3   OH242853   1.682   2.065   1.286 -0.9307 -0.3066 -0.8017
14307TIP3    H142854   1.624   2.034   1.356 -1.7812  2.2841 -0.3124
14307TIP3    H242855   1.641   2.146   1.255  1.5216  0.6531 -1.6423
14308TIP3   OH242856   6.455   3.616   6.844  0.1523  0.1656  0.3334
14308TIP3    H142857   6.461   3.576   6.757  2.6383  0.0904  0.5073
14308TIP3    H242858   6.538   3.594   6.886 -0.1755  1.9855  1.9736
14309TIP3   OH242859   6.144   3.939   5.307 -0.2416  0.3742 -0.8120
14309TIP3    H142860   6.175   3.850   5.324 -1.1079  0.3933  1.0411
14309TIP3    H242861   6.212   3.996   5.343 -0.8328  0.4257  0.2665
14310TIP3   OH242862   3.765   0.393   0.366  0.1316  0.0683  0.3181
14310TIP3    H142863   3.730   0.328   0.305  0.3298 -1.5100  1.8382
14310TIP3    H242864   3.860   0.388   0.354  0.1021  0.7218 -0.1987
14311TIP3   OH242865   6.361   4.294   6.906 -0.2103 -0.9294 -0.6541
14311TIP3    H142866   6.444   4.248   6.894  1.5462  2.0496 -0.2709
14311TIP3    H242867   6.386   4.384   6.926 -3.5430 -0.0335 -0.2897
14312TIP3   OH242868   4.717   0.638   0.259 -0.5417  0.0232 -0.1355
14312TIP3    H142869   4.789   0.601   0.309 -0.4760 -1.3180 -1.1720
14312TIP3    H242870   4.656   0.672   0.325 -0.0923 -1.0098  0.8181
14313TIP3   OH242871   3.005   1.884   1.197  0.1925 -0.2861  0.1600
14313TIP3    H142872   2.948   1.811   1.220  0.0205 -0.0277  0.5566
14313TIP3    H242873   3.094   1.851   1.209  0.1313 -0.7077 -0.5115
14314TIP3   OH242874   3.590   2.551   0.148  0.2132 -0.0273  0.2316
14314TIP3    H142875   3.683   2.559   0.168  0.4299  0.0592 -0.8349
14314TIP3    H242876   3.546   2.603   0.216  0.9828  0.6774  0.1846
14315TIP3   OH242877   7.692   5.404   5.671 -0.2033 -0.2707 -0.2591
14315TIP3    H142878   7.700   5.492   5.706  1.2476 -0.7966  0.7928
14315TIP3    H242879   7.707   5.414   5.577 -0.5535  0.6687 -0.2152
14316TIP3   OH242880   2.292   5.857   2.170 -0.4068 -0.5859 -0.2989
14316TIP3    H142881   2.264   5.765   2.174 -0.4235 -0.6456 -1.5237
14316TIP3    H242882   2.362   5.863   2.235 -1.0273 -1.2342  0.4475
14317TIP3   OH242883   5.641   1.995   1.805 -0.5070 -0.7683  0.6671
14317TIP3    H142884   5.640   1.910   1.762 -1.1812 -1.3492  1.8295
14317TIP3    H242885   5.663   2.057   1.735 -2.4845 -1.5986 -0.7185
14318TIP3   OH242886   6.201   6.579   6.122  0.0648  0.0652  0.5707
14318TIP3    H142887   6.209   6.670   6.093 -0.4600  0.3190  1.2209
14318TIP3    H242888   6.119   6.577   6.171 -1.2928 -1.3546 -1.6895
14319TIP3   OH242889   1.379   4.858   6.704  0.1217  0.0953 -0.2995
14319TIP3    H142890   1.393   4.824   6.792  0.6251  2.4238  0.5547
14319TIP3    H242891   1.335   4.787   6.657 -2.5595 -0.2299  2.5746
14320TIP3   OH242892   0.157   4.322   4.334 -0.4554 -0.4439 -0.5132
14320TIP3    H142893   0.092   4.265   4.376  1.1091 -1.9572 -0.1022
14320TIP3    H242894   0.108   4.401   4.312 -1.8955 -0.5349  2.0640
14321TIP3   OH242895   1.646   3.859   6.291  0.3078  0.5136 -0.8602
14321TIP3    H142896   1.599   3.797   6.236 -0.0798 -1.4212  1.5789
14321TIP3    H242897   1.599   3.942   6.280 -0.6032 -0.1801 -2.3021
14322TIP3   OH242898   8.177   4.062   5.752  0.5981 -0.3440  0.1193
14322TIP3    H142899   8.092   4.041   5.790 -0.7449 -0.3788 -2.7743
14322TIP3    H242900   8.228   3.981   5.761 -0.0240 -0.6563  0.9025
14323TIP3   OH242901   5.106   1.732   0.849  0.2373  0.0557  0.2804
14323TIP3    H142902   5.178   1.790   0.823  0.0127  0.2610  0.1153
14323TIP3    H242903   5.079   1.689   0.768  1.7009 -1.7519  0.7330
14324TIP3   OH242904   6.763   4.462   6.524 -0.1762  0.1909  0.1681
14324TIP3    H142905   6.684   4.456   6.472 -1.1121  1.6247  1.3794
14324TIP3    H242906   6.788   4.554   6.520  0.0583  0.2211  1.7274
14325TIP3   OH242907   4.766   2.816   1.120  0.5837  0.2905 -0.1350
14325TIP3    H142908   4.777   2.904   1.157 -0.2223  0.9665 -1.4973
14325TIP3    H242909   4.785   2.757   1.194  0.5627  1.5979  0.9367
14326TIP3   OH242910   7.941   4.839   6.142 -0.2146  0.4171  0.0411
14326TIP3    H142911   8.036   4.852   6.143 -0.1044 -0.2395 -1.2979
14326TIP3    H242912   7.905   4.927   6.153  0.5431  0.8876 -1.1962
14327TIP3   OH242913   4.545   1.217   0.689  0.0838  0.7679 -0.2072
14327TIP3    H142914   4.636   1.230   0.663  0.3425  1.7545  1.1984
14327TIP3    H242915   4.497   1.286   0.643  0.4005  1.8614  1.0863
14328TIP3   OH242916   8.433   5.609   4.912  0.0945 -0.1117 -0.1153
14328TIP3    H142917   8.442   5.682   4.852 -0.6747  0.5242  0.5360
14328TIP3    H242918   8.383   5.544   4.863 -1.6249  0.9046  0.2558
14329TIP3   OH242919   8.180   4.917   5.839 -0.3212 -0.1742  0.1910
14329TIP3    H142920   8.216   4.997   5.801 -1.7579 -0.9839 -3.0066
14329TIP3    H242921   8.085   4.930   5.837 -0.5046 -1.2166  1.3985
14330TIP3   OH242922   0.241   6.269   2.775  0.2467  0.1719 -0.1118
14330TIP3    H142923   0.162   6.322   2.782 -0.1794 -0.2749 -1.3827
14330TIP3    H242924   0.288   6.305   2.700  0.1466 -0.9520 -0.7382
14331TIP3   OH242925   6.278   5.764   5.043 -0.4617  0.2543  0.0184
14331TIP3    H142926   6.350   5.701   5.040  0.5370  1.3039  1.6878
14331TIP3    H242927   6.221   5.731   5.112 -0.6516  0.4194 -0.0613
14332TIP3   OH242928   8.347   5.601   5.919 -0.2342  0.6467  0.5140
14332TIP3    H142929   8.377   5.514   5.943  0.8643  0.8502 -0.0803
14332TIP3    H242930   8.272   5.618   5.977 -0.6305 -0.7895  0.4235
14333TIP3   OH242931   6.679   2.136   0.354  0.2518 -0.2547  0.2479
14333TIP3    H142932   6.682   2.045   0.381  0.2658 -0.6073 -0.9537
14333TIP3    H242933   6.589   2.164   0.372 -0.5117 -1.2755 -1.9075
14334TIP3   OH242934   8.465   5.979   5.684  0.4294 -0.0558 -0.4409
14334TIP3    H142935   8.487   5.919   5.755 -0.3707  0.1814  0.0165
14334TIP3    H242936   8.514   6.059   5.703 -0.5961  0.3726  0.4179
14335TIP3   OH242937   7.818   5.238   4.409  0.5819 -0.0430 -0.1115
14335TIP3    H142938   7.843   5.331   4.405 -1.0366  0.4416  0.7374
14335TIP3    H242939   7.889   5.197   4.459  0.9038  0.8646  0.1902
14336TIP3   OH242940   5.270   5.662   6.755  0.6721  0.0933 -0.4708
14336TIP3    H142941   5.202   5.644   6.691 -0.6090  2.0496  0.3028
14336TIP3    H242942   5.223   5.691   6.833  2.2785 -0.9435  0.9327
14337TIP3   OH242943   7.745   5.939   6.016 -0.2950  0.4876 -0.0905
14337TIP3    H142944   7.735   5.844   6.004  0.6050  0.2747  0.7091
14337TIP3    H242945   7.840   5.952   6.021 -0.4786  1.0472  2.5866
14338TIP3   OH242946   2.285   6.886   1.128  0.4760  0.4772  0.1419
14338TIP3    H142947   2.379   6.868   1.133  0.0793 -4.2142 -4.1652
14338TIP3    H242948   2.276   6.951   1.058  0.5279  0.8716  0.5035
14339TIP3   OH242949   6.632   3.265   6.424  0.1857 -1.0285  0.6178
14339TIP3    H142950   6.667   3.349   6.453 -2.2701  0.1459  0.3130
14339TIP3    H242951   6.596   3.225   6.503 -3.0678  0.4577 -0.0471
14340TIP3   OH242952   8.080   5.980   5.379  0.3830 -0.3756 -1.2180
14340TIP3    H142953   8.091   5.972   5.473 -0.9757 -0.0833 -1.0243
14340TIP3    H242954   8.151   6.038   5.351 -1.8559  3.2801  0.2890
14341TIP3   OH242955   4.218   0.606   0.917  0.3907 -0.0385 -0.6834
14341TIP3    H142956   4.148   0.641   0.862 -0.3545 -0.7944 -0.2384
14341TIP3    H242957   4.257   0.536   0.865  1.1754  0.7354 -1.1454
14342TIP3   OH242958   7.137   5.010   5.379 -0.1266  0.6788  0.6695
14342TIP3    H142959   7.226   5.014   5.344 -0.5095  2.1440 -0.1798
14342TIP3    H242960   7.140   4.939   5.443  1.1740 -0.5691 -0.7058
14343TIP3   OH242961   8.147   0.767   0.102 -0.5384  0.3750  0.0501
14343TIP3    H142962   8.121   0.677   0.124 -2.2753  0.8448 -0.0573
14343TIP3    H242963   8.230   0.779   0.149 -0.4104 -1.1913  0.2677
14344TIP3   OH242964   5.931   7.779   0.677  0.3547 -0.3273  0.3192
14344TIP3    H142965   5.934   7.710   0.611  3.1539 -0.2697  0.3114
14344TIP3    H242966   5.909   7.858   0.628  1.8222 -0.3968 -0.4763
14345TIP3   OH242967   7.119   1.849   2.100 -0.7191  0.1283  0.1767
14345TIP3    H142968   7.144   1.941   2.103  2.3071 -0.4721 -3.3166
14345TIP3    H242969   7.037   1.847   2.050 -0.1207  0.8265 -0.8389
14346TIP3   OH242970   1.658   4.519   6.146  0.0480 -0.9556  0.4097
14346TIP3    H142971   1.687   4.529   6.236  0.1063  1.5105  0.1632
14346TIP3    H242972   1.565   4.543   6.147  0.4682  0.8292 -0.4469
14347TIP3   OH242973   0.185   5.888   6.446 -0.3949 -0.4193 -0.0318
14347TIP3    H142974   0.115   5.896   6.511 -0.4935 -2.3928  0.1331
14347TIP3    H242975   0.179   5.968   6.395  0.1389  1.5281  2.8254
14348TIP3   OH242976   0.688   2.263   2.399  0.3735 -0.0479 -0.4528
14348TIP3    H142977   0.654   2.175   2.415  1.9950 -0.8350 -1.2042
14348TIP3    H242978   0.637   2.295   2.324 -0.8270  0.0140  0.3751
14349TIP3   OH242979   0.370   1.767   1.454  0.2009 -0.1925 -0.1873
14349TIP3    H142980   0.441   1.705   1.468  0.1234 -0.1059  0.6470
14349TIP3    H242981   0.331   1.742   1.370  2.1898  0.7162 -1.4040
14350TIP3   OH242982   7.734  -0.002   2.755  0.2224 -0.5442 -0.3031
14350TIP3    H142983   7.653   0.011   2.706  0.5004 -0.6410 -0.7927
14350TIP3    H242984   7.708   0.003   2.847  0.0704  2.1297 -0.4422
14351TIP3   OH242985   0.202   2.445   0.888  0.2031  0.2270  0.0573
14351TIP3    H142986   0.236   2.363   0.852 -0.3909  0.2837 -0.6605
14351TIP3    H242987   0.158   2.487   0.813 -1.5653  0.0648  0.9717
14352TIP3   OH242988   0.928   2.099   3.024 -0.0274  0.1334  0.8952
14352TIP3    H142989   0.919   2.095   3.119 -1.6608 -0.6098  0.7293
14352TIP3    H242990   0.847   2.060   2.990 -0.3101  2.0991 -0.7957
14353TIP3   OH242991   8.438   0.610   1.062 -0.0363  0.0606  0.6792
14353TIP3    H142992   8.371   0.678   1.073  1.3486  1.3703  1.1759
14353TIP3    H242993   8.461   0.613   0.969  1.4104  1.6228  1.0719
14354TIP3   OH242994   5.300   1.151   1.880 -0.1073  0.1733 -0.0126
14354TIP3    H142995   5.282   1.079   1.819  0.5107 -0.2892  0.3387
14354TIP3    H242996   5.395   1.151   1.890 -0.2390 -0.1287  1.3819
14355TIP3   OH242997   0.167   1.732   1.239 -0.0990 -0.1473  0.6030
14355TIP3    H142998   0.143   1.763   1.152 -0.3448 -0.1347  0.6763
14355TIP3    H242999   0.172   1.637   1.231 -1.1315 -0.2221  0.8297
14356TIP3   OH243000   6.615   1.826   1.833  0.1630 -0.2722  0.0675
14356TIP3    H143001   6.526   1.850   1.808  0.1624  0.0739  0.3808
14356TIP3    H243002   6.604   1.748   1.888 -0.0106  0.1628  0.6638
14357TIP3   OH243003   3.786   4.569   2.729  0.1792 -0.5595  0.0736
14357TIP3    H143004   3.699   4.558   2.692  0.0268  1.9820 -0.4369
14357TIP3    H243005   3.845   4.536   2.661 -0.2105  1.8565 -1.4798
14358TIP3   OH243006   2.000   6.290   6.071  0.2028 -0.3476 -0.4603
14358TIP3    H143007   2.066   6.221   6.072 -0.0730 -0.6494 -2.3139
14358TIP3    H243008   1.919   6.246   6.044  0.0435  0.6954 -1.7392
14359TIP3   OH243009   3.195   7.326   6.171  0.4561 -0.0457 -0.2074
14359TIP3    H143010   3.123   7.388   6.181 -1.2793 -2.1912  1.2756
14359TIP3    H243011   3.175   7.279   6.090  0.8328  0.1830 -0.4313
14360TIP3   OH243012   2.167   6.557   4.571 -0.5405 -0.0878 -0.6461
14360TIP3    H143013   2.137   6.491   4.510 -0.9974  0.0213 -0.5443
14360TIP3    H243014   2.221   6.509   4.635 -1.0419 -0.3975 -0.4512
14361TIP3   OH243015   2.250   6.606   6.383 -1.0166 -0.0929 -0.1038
14361TIP3    H143016   2.233   6.612   6.290 -1.5167 -1.0032 -0.0821
14361TIP3    H243017   2.192   6.536   6.414  1.4230 -2.0372  0.2891
14362TIP3   OH243018   2.003   4.840   6.280  0.1018  0.2297  0.2502
14362TIP3    H143019   2.091   4.807   6.298  0.0348  0.1019  0.3462
14362TIP3    H243020   1.951   4.811   6.355  0.2244  1.2760  0.7493
14363TIP3   OH243021   6.980   0.527   1.850 -0.7700  0.3494  0.4330
14363TIP3    H143022   6.945   0.614   1.872 -2.5863 -0.3794  0.4612
14363TIP3    H243023   6.903   0.472   1.840  0.2544 -0.6986 -2.0443
14364TIP3   OH243024   7.542   2.072   1.385 -0.4560  0.0042 -0.0148
14364TIP3    H143025   7.630   2.058   1.348  0.4356  0.5588  1.8560
14364TIP3    H243026   7.509   1.983   1.401  0.5340 -0.1896  1.0220
14365TIP3   OH243027   2.692   7.067   5.948  0.4928  0.0832  0.4116
14365TIP3    H143028   2.617   7.065   6.008  0.6532 -0.2355  0.6005
14365TIP3    H243029   2.761   7.112   5.997  0.6547 -0.2635  0.4965
14366TIP3   OH243030   5.477   1.362   0.375  0.0199  0.4554  0.3933
14366TIP3    H143031   5.557   1.414   0.365  0.5409 -0.0071  2.0119
14366TIP3    H243032   5.417   1.398   0.310  1.1291  1.6126 -0.0183
14367TIP3   OH243033   7.721   2.452   2.231 -0.2739 -0.0950  0.0960
14367TIP3    H143034   7.739   2.504   2.152 -0.4350  0.3780  0.3651
14367TIP3    H243035   7.640   2.489   2.265 -0.7132 -0.9371 -0.0482
14368TIP3   OH243036   7.895   4.003   1.799 -0.3364 -0.3328 -0.1850
14368TIP3    H143037   7.891   3.915   1.836  0.3328 -0.8522 -1.3118
14368TIP3    H243038   7.979   4.006   1.752  1.5366  2.2457  3.1324
14369TIP3   OH243039   2.613   6.687   6.227 -0.0800 -0.3039 -0.2157
14369TIP3    H143040   2.585   6.605   6.268 -0.7190  1.4026  2.9631
14369TIP3    H243041   2.559   6.695   6.149 -1.6947 -1.7667  0.7097
14370TIP3   OH243042   1.894   7.905   3.975  0.4962 -0.0756  0.0609
14370TIP3    H143043   1.833   7.931   3.906 -1.8001 -1.1273  1.5956
14370TIP3    H243044   1.867   7.956   4.051  1.5742 -0.5188  0.7536
14371TIP3   OH243045   2.972   4.617   6.022  0.4021 -0.2694 -0.3394
14371TIP3    H143046   2.901   4.565   6.062  0.5789  0.8324  1.4694
14371TIP3    H243047   3.051   4.585   6.064  0.6605  0.5011 -0.2355
14372TIP3   OH243048   7.555   1.850   0.503 -0.1295 -0.1745  0.1591
14372TIP3    H143049   7.532   1.843   0.595 -1.2122 -1.2685 -0.1808
14372TIP3    H243050   7.472   1.837   0.456  0.8539 -2.4056 -1.0340
14373TIP3   OH243051   7.202   2.721   1.865 -0.6260 -0.1334  0.0082
14373TIP3    H143052   7.175   2.803   1.906 -2.3807 -1.0030  0.6646
14373TIP3    H243053   7.297   2.727   1.857 -0.7011  1.7607  0.4702
14374TIP3   OH243054   8.472   1.143   1.857  0.0570  0.5075  0.4275
14374TIP3    H143055   8.444   1.143   1.766  0.7079  1.3505  0.2230
14374TIP3    H243056   8.391   1.139   1.907 -0.3247  0.5779 -0.1835
14375TIP3   OH243057   7.994   1.777   1.723 -0.4084  0.1359 -0.0180
14375TIP3    H143058   7.956   1.717   1.787 -0.2782 -0.0069 -0.0757
14375TIP3    H243059   8.080   1.740   1.703 -0.2985  0.3745 -0.0024
14376TIP3   OH243060   6.787   2.522   2.310 -0.0642 -0.1099  0.0409
14376TIP3    H143061   6.718   2.588   2.314  0.4730  0.4638  0.0706
14376TIP3    H243062   6.857   2.564   2.259  0.9018 -0.0773  1.3653
14377TIP3   OH243063   8.348   0.438   2.567  0.2577  0.0351 -0.0367
14377TIP3    H143064   8.335   0.355   2.521  0.9564  0.5773 -1.2314
14377TIP3    H243065   8.261   0.478   2.569 -0.0756 -0.6953  0.5097
14378TIP3   OH243066   0.461   2.294   0.304  0.1340  0.4701  0.7463
14378TIP3    H143067   0.474   2.200   0.288  1.9920  0.8830 -0.2624
14378TIP3    H243068   0.405   2.322   0.232  1.1112  0.5030 -0.0077
14379TIP3   OH243069   0.371   1.279   2.873  0.0538 -0.2559  0.2975
14379TIP3    H143070   0.295   1.221   2.885 -0.3887  0.7295  2.3625
14379TIP3    H243071   0.443   1.234   2.917 -0.3448  0.8358  2.1163
14380TIP3   OH243072   0.260   1.021   2.893  0.1868 -0.3077 -0.0009
14380TIP3    H143073   0.207   1.021   2.973  0.7988 -2.2606  0.4385
14380TIP3    H243074   0.210   0.967   2.831 -0.7345  1.9356 -1.2898
14381TIP3   OH243075   7.458   1.322   0.674 -0.0063  0.2051  0.6350
14381TIP3    H143076   7.411   1.298   0.594 -0.6591  0.0439  1.0683
14381TIP3    H243077   7.389   1.341   0.737  0.4887 -2.1678  1.9400
14382TIP3   OH243078   7.983   3.073   0.392 -0.0079  0.2607 -0.5301
14382TIP3    H143079   8.003   3.164   0.368 -0.9765  0.1694 -1.7349
14382TIP3    H243080   7.975   3.075   0.488  0.4214  1.3502 -0.5081
14383TIP3   OH243081   0.919   5.349   0.900 -0.4207  0.5433  0.1697
14383TIP3    H143082   0.997   5.330   0.951 -0.7645  2.4086  1.4645
14383TIP3    H243083   0.953   5.381   0.816  0.2105  0.6047  0.4437
14384TIP3   OH243084   1.225   2.156   3.515 -0.0907 -0.2649  0.3146
14384TIP3    H143085   1.205   2.157   3.608  0.7265  0.5108  0.4783
14384TIP3    H243086   1.148   2.197   3.474  0.5784  1.5561  0.8451
14385TIP3   OH243087   7.437   1.519   5.477 -0.5237 -0.2121  0.0707
14385TIP3    H143088   7.526   1.499   5.446 -0.5665 -1.0523  0.4880
14385TIP3    H243089   7.421   1.609   5.447 -0.0775 -0.5577 -1.2344
14386TIP3   OH243090   8.002   3.369   0.967 -0.1451 -0.5308  0.0060
14386TIP3    H143091   8.067   3.435   0.988 -3.3040  3.1093 -1.0670
14386TIP3    H243092   7.976   3.333   1.052  1.3285 -0.1402  0.6364
14387TIP3   OH243093   1.880   6.592   5.585  0.3009  0.4291  0.4395
14387TIP3    H143094   1.807   6.530   5.586  1.4153 -0.9241 -0.3142
14387TIP3    H243095   1.877   6.630   5.497  0.3395  0.5765  0.5018
14388TIP3   OH243096   1.737   3.432   1.907  0.1041 -0.0376 -0.1972
14388TIP3    H143097   1.683   3.499   1.864 -0.0597  0.1140  0.2353
14388TIP3    H243098   1.681   3.399   1.978  1.1719  1.3099  1.3263
14389TIP3   OH243099   2.998   7.676   4.898  0.0787 -0.0846 -0.5649
14389TIP3    H143100   2.994   7.612   4.970 -0.4160 -0.9442 -1.3572
14389TIP3    H243101   2.996   7.761   4.942 -3.4116 -0.5439  0.3302
14390TIP3   OH243102   0.265   0.095   0.983 -0.0185  0.2667 -0.1142
14390TIP3    H143103   0.358   0.104   1.005 -0.5494  3.5412  1.0366
14390TIP3    H243104   0.263   0.079   0.889  1.6923  0.1419 -0.1369
14391TIP3   OH243105   2.505   1.799   3.317 -0.2522  0.4152  0.0727
14391TIP3    H143106   2.450   1.867   3.356 -0.7486  0.2694 -0.3661
14391TIP3    H243107   2.590   1.810   3.359 -0.5703  0.7505  0.6367
14392TIP3   OH243108   7.909   3.562   2.829  0.5724 -0.5697 -0.0969
14392TIP3    H143109   7.899   3.468   2.814 -2.3343 -0.3622  0.2259
14392TIP3    H243110   7.870   3.577   2.915  0.6228  0.9958 -0.3276
14393TIP3   OH243111   0.772   2.976   0.858 -0.3035 -0.2659 -0.7369
14393TIP3    H143112   0.731   2.953   0.942 -0.6143  0.8663 -0.5656
14393TIP3    H243113   0.778   3.072   0.860 -1.1499 -0.1618 -2.3996
14394TIP3   OH243114   1.210   2.586   2.843  0.1586 -0.0465 -0.6162
14394TIP3    H143115   1.222   2.491   2.841  1.4728  0.1248 -0.9145
14394TIP3    H243116   1.222   2.614   2.752 -0.9257  0.3284 -0.6538
14395TIP3   OH243117   0.116   1.908   4.234  0.0147  0.3381  0.2398
14395TIP3    H143118   0.031   1.865   4.241 -0.2145  0.8936  0.8539
14395TIP3    H243119   0.095   2.002   4.226  0.5937  0.5434  1.0889
14396TIP3   OH243120   1.012   6.885   6.087 -0.5157 -0.4791  0.0799
14396TIP3    H143121   1.099   6.846   6.079 -0.5403 -0.5036 -0.0621
14396TIP3    H243122   1.000   6.897   6.182  0.8347  2.2034 -0.0495
14397TIP3   OH243123   0.973   2.816   2.897  0.3413 -0.0935 -0.4709
14397TIP3    H143124   1.028   2.785   2.825  0.9734 -1.4745  0.5670
14397TIP3    H243125   0.921   2.740   2.922 -0.8399  0.7446 -0.3341
14398TIP3   OH243126   0.217   1.318   2.372  0.1332  0.4525 -0.3421
14398TIP3    H143127   0.248   1.407   2.355  0.1569  0.5063 -0.0144
14398TIP3    H243128   0.217   1.276   2.286 -0.9916  1.1168 -0.6773
14399TIP3   OH243129   6.720   3.848   0.906  0.3778 -0.6668  0.5974
14399TIP3    H143130   6.692   3.904   0.834 -2.6053 -0.8099  1.5668
14399TIP3    H243131   6.691   3.760   0.880  1.4571 -1.1029  0.8755
14400TIP3   OH243132   0.708   3.168   2.904 -0.0382  0.1603  0.1197
14400TIP3    H143133   0.683   3.135   2.990  2.1682 -0.1722  0.6405
14400TIP3    H243134   0.684   3.261   2.907 -0.0587  0.1338  1.0578
14401TIP3   OH243135   7.433   0.605   6.474  0.6738 -0.2227 -0.2713
14401TIP3    H143136   7.374   0.582   6.545 -0.5153 -0.3431 -1.2858
14401TIP3    H243137   7.388   0.576   6.394  1.9708 -0.0747 -1.0763
14402TIP3   OH243138   0.570   0.022   0.938 -0.1287 -0.2044  0.3000
14402TIP3    H143139   0.548   0.115   0.942 -0.2484 -0.2573  0.8673
14402TIP3    H243140   0.665   0.020   0.926 -0.4208  0.0279 -2.3909
14403TIP3   OH243141   7.543   3.069   0.487 -0.0625  0.1831  0.1291
14403TIP3    H143142   7.589   3.153   0.495  0.3087 -0.0195  0.1553
14403TIP3    H243143   7.596   3.008   0.538  0.5808 -0.4314 -1.2302
14404TIP3   OH243144   0.603   3.368   0.539  0.4915 -0.0897  0.1869
14404TIP3    H143145   0.692   3.335   0.549 -0.0841 -0.8677  3.2542
14404TIP3    H243146   0.549   3.290   0.528  0.1178  0.3384 -1.0596
14405TIP3   OH243147   0.658   5.332   0.948 -0.0548 -0.1731 -0.5242
14405TIP3    H143148   0.753   5.340   0.941 -0.0953 -0.5011 -1.5569
14405TIP3    H243149   0.623   5.406   0.898 -0.3465 -1.4810 -2.3089
14406TIP3   OH243150   3.230   6.632   6.789  0.2229 -0.0620 -0.8466
14406TIP3    H143151   3.246   6.583   6.709  1.3716 -1.4358  0.2167
14406TIP3    H243152   3.309   6.684   6.802  1.0352 -1.6497  0.6801
14407TIP3   OH243153   0.582   0.729   1.373 -0.0620  0.1231 -0.5111
14407TIP3    H143154   0.622   0.683   1.299 -1.6231  0.1641 -1.3969
14407TIP3    H243155   0.490   0.738   1.349 -0.5940  0.1286  1.4502
14408TIP3   OH243156   2.595   3.179   3.149 -0.6879  0.5740  0.0067
14408TIP3    H143157   2.623   3.131   3.227  2.7429  2.4967  0.0780
14408TIP3    H243158   2.551   3.114   3.094 -1.1094 -1.3136  2.5150
14409TIP3   OH243159   3.386   6.713   5.927  0.0680  0.4288  0.2542
14409TIP3    H143160   3.446   6.773   5.972 -0.6282  0.8947  0.5595
14409TIP3    H243161   3.424   6.702   5.840  2.0454 -1.3540  1.3000
14410TIP3   OH243162   8.363   3.176   3.370 -0.1606  0.4354  0.3745
14410TIP3    H143163   8.351   3.114   3.442  0.3170 -1.7847 -1.3950
14410TIP3    H243164   8.327   3.132   3.293  1.4860  1.7467 -1.2164
14411TIP3   OH243165   6.610   3.188   0.396  0.3161 -0.6499  0.3870
14411TIP3    H143166   6.578   3.259   0.451  0.5475 -1.0744  1.0827
14411TIP3    H243167   6.684   3.226   0.349  0.4913 -0.4462  0.8182
14412TIP3   OH243168   8.356   2.429   0.770  0.5864  0.2123  0.1363
14412TIP3    H143169   8.343   2.508   0.717  0.8865  0.7403  0.8471
14412TIP3    H243170   8.355   2.459   0.860 -0.7436 -0.8054  0.4922
14413TIP3   OH243171   1.229   4.012   1.045  0.1489  0.5861 -0.8247
14413TIP3    H143172   1.140   4.044   1.060  0.2110  1.6663 -2.5942
14413TIP3    H243173   1.276   4.087   1.009  2.2737  0.5450  1.7578
14414TIP3   OH243174   2.578   7.598   6.734 -0.0524  0.3887 -0.1073
14414TIP3    H143175   2.587   7.520   6.789 -0.3012 -0.0326 -0.6557
14414TIP3    H243176   2.528   7.568   6.658 -0.3612  1.1421 -0.2063
14415TIP3   OH243177   1.535   0.759   0.186 -0.1094 -0.1553  0.0290
14415TIP3    H143178   1.547   0.687   0.125  0.1429  1.0270 -1.3358
14415TIP3    H243179   1.441   0.777   0.184 -0.1495 -0.3325  0.2524
14416TIP3   OH243180   4.487   7.246   6.743 -0.0024 -0.0459 -0.0218
14416TIP3    H143181   4.576   7.278   6.730  0.1835 -0.9952 -1.1049
14416TIP3    H243182   4.432   7.323   6.729  0.4784 -0.0430 -1.9863
14417TIP3   OH243183   1.729   0.889   1.196 -0.1204  0.2772  0.3209
14417TIP3    H143184   1.798   0.919   1.136  0.6049 -0.8862  0.5684
14417TIP3    H243185   1.660   0.857   1.138 -0.3385  1.1693  0.0769
14418TIP3   OH243186   0.523   2.915   1.066 -0.5556 -0.0975  0.3083
14418TIP3    H143187   0.529   2.826   1.100 -0.0109 -0.1200  0.1586
14418TIP3    H243188   0.459   2.909   0.995 -0.1460 -0.4757 -0.0352
14419TIP3   OH243189   1.076   4.384   1.823 -0.3993  0.1340  0.0937
14419TIP3    H143190   1.019   4.461   1.815 -1.7014 -0.8845 -0.4550
14419TIP3    H243191   1.018   4.313   1.848  1.0137 -0.4145  1.9944
14420TIP3   OH243192   0.855   1.624   1.538 -0.2527 -0.0141  0.1619
14420TIP3    H143193   0.910   1.593   1.610  0.2401  0.2200 -0.1060
14420TIP3    H243194   0.918   1.659   1.474 -0.6317 -0.8792 -0.6966
14421TIP3   OH243195   2.188   6.903   5.698 -0.0422 -0.2854  0.0009
14421TIP3    H143196   2.222   6.813   5.697  0.0534 -0.3033  2.1973
14421TIP3    H243197   2.189   6.929   5.606 -1.6182 -3.1056 -0.8983
14422TIP3   OH243198   7.196   3.920   2.436 -0.2111 -0.4786  0.1181
14422TIP3    H143199   7.253   3.846   2.419 -0.4007 -0.7721  0.7166
14422TIP3    H243200   7.228   3.990   2.380  1.3411 -0.3392  1.1503
14423TIP3   OH243201   1.035   2.902   2.564  0.9479 -0.2444 -0.1248
14423TIP3    H143202   0.941   2.922   2.557  0.9777 -0.3354 -0.8509
14423TIP3    H243203   1.076   2.986   2.583  0.5640 -0.4604  1.7596
14424TIP3   OH243204   7.764   2.661   3.018 -0.0547  0.3237  1.3420
14424TIP3    H143205   7.692   2.651   2.955  0.3187  1.3616  0.7393
14424TIP3    H243206   7.748   2.593   3.083 -1.2586  0.1559  0.8925
14425TIP3   OH243207   1.300   0.959   6.764  0.3355 -0.2713 -0.4890
14425TIP3    H143208   1.293   0.899   6.838  2.1688  1.3513  1.0761
14425TIP3    H243209   1.273   1.044   6.800 -0.4821  0.2137 -2.1735
14426TIP3   OH243210   0.126   2.381   1.135 -0.8066  0.1319  0.4696
14426TIP3    H143211   0.153   2.411   1.048 -0.6922  1.9966  1.1397
14426TIP3    H243212   0.045   2.332   1.119 -0.5543  0.0888 -0.7310
14427TIP3   OH243213   1.255   3.422   2.828 -0.0665  0.0937 -0.1741
14427TIP3    H143214   1.305   3.363   2.771 -1.4587  0.6256 -2.0242
14427TIP3    H243215   1.175   3.373   2.848  0.0012  0.2831  0.5779
14428TIP3   OH243216   8.352   0.340   0.782 -0.0719  0.0347  0.3601
14428TIP3    H143217   8.353   0.303   0.694 -1.8015  1.5982 -0.3564
14428TIP3    H243218   8.259   0.347   0.804  0.3156  0.7514  1.8349
14429TIP3   OH243219   6.218   1.857   6.865  0.1955  0.2334  0.0225
14429TIP3    H143220   6.286   1.885   6.927  1.3950  2.1452 -2.0406
14429TIP3    H243221   6.229   1.916   6.790 -1.2002 -1.9984 -2.0179
14430TIP3   OH243222   2.089   0.817   1.643  0.2332 -0.0229  0.6483
14430TIP3    H143223   2.059   0.772   1.564  0.1763  0.4840  0.3804
14430TIP3    H243224   2.014   0.812   1.702 -0.4022  1.2361 -0.0211
14431TIP3   OH243225   1.167   0.530   0.289  0.1217 -0.8688 -0.2142
14431TIP3    H143226   1.149   0.446   0.247 -0.1269 -0.4590 -0.9463
14431TIP3    H243227   1.087   0.549   0.338  0.2071 -1.0946  0.0139
14432TIP3   OH243228   2.942   6.086   5.346  0.5253  0.1206  0.2313
14432TIP3    H143229   2.862   6.090   5.399  0.6432 -1.0493  0.5092
14432TIP3    H243230   3.013   6.092   5.410  0.6738  2.4188 -0.1225
14433TIP3   OH243231   2.342   0.608   0.450 -0.2509 -0.4980  0.0187
14433TIP3    H143232   2.277   0.670   0.415  0.0071  0.0593  0.5125
14433TIP3    H243233   2.346   0.538   0.384 -0.9786 -0.2866 -0.2608
14434TIP3   OH243234   8.117   1.467   0.314 -0.4313  0.1613 -0.1638
14434TIP3    H143235   8.040   1.478   0.259 -0.7047 -1.1335 -0.0641
14434TIP3    H243236   8.150   1.556   0.328 -1.9866  0.7386 -0.0805
14435TIP3   OH243237   8.200   1.118   2.477 -0.0423 -0.2566  0.3766
14435TIP3    H143238   8.286   1.159   2.469 -0.4513  0.1926 -2.2065
14435TIP3    H243239   8.214   1.028   2.445 -0.4229 -0.3047  0.3456
14436TIP3   OH243240   8.286   3.412   0.007 -0.1093 -0.0567 -0.2269
14436TIP3    H143241   8.257   3.322  -0.004 -0.8400  0.0632  0.6024
14436TIP3    H243242   8.267   3.432   0.099 -0.4016  1.0811 -0.5198
14437TIP3   OH243243   0.693   1.329   1.278 -0.4713 -0.7058  0.0900
14437TIP3    H143244   0.598   1.326   1.279 -0.5421  0.0778 -2.2737
14437TIP3    H243245   0.715   1.390   1.349 -1.7290 -0.4818  0.3020
14438TIP3   OH243246   2.653   4.789   5.887  0.0231 -0.3546 -0.0045
14438TIP3    H143247   2.650   4.877   5.850  0.2162 -0.3511 -0.0091
14438TIP3    H243248   2.718   4.794   5.957  0.4604 -0.6420 -0.3939
14439TIP3   OH243249   8.397   1.282   1.609 -0.2139  0.3003  0.0140
14439TIP3    H143250   8.415   1.294   1.515 -0.6946  0.8433 -0.0102
14439TIP3    H243251   8.304   1.259   1.613 -0.0196 -0.4589  0.3074
14440TIP3   OH243252   0.323   2.202   0.806 -0.2871  0.3215 -0.7026
14440TIP3    H143253   0.329   2.200   0.710  2.8872 -0.9200 -0.5268
14440TIP3    H243254   0.408   2.235   0.835 -1.5718  1.6692  1.6830
14441TIP3   OH243255   7.453   3.463   3.213  0.4915 -0.6308 -0.5146
14441TIP3    H143256   7.388   3.447   3.282 -1.6683  3.7639 -1.3249
14441TIP3    H243257   7.522   3.513   3.256  1.3212 -1.7252 -0.5713
14442TIP3   OH243258   7.438   4.329   0.123  0.1721  0.1167  0.5445
14442TIP3    H143259   7.494   4.402   0.150  1.2572 -0.4446 -0.2103
14442TIP3    H243260   7.351   4.354   0.155 -0.0488  3.1089 -2.1242
14443TIP3   OH243261   2.546   4.113   1.259  0.2797  0.0402  0.4299
14443TIP3    H143262   2.455   4.133   1.283  0.4725  0.3960  0.8764
14443TIP3    H243263   2.552   4.017   1.267 -0.0378  0.0227  0.4613
14444TIP3   OH243264   7.575   2.840   0.324  0.1625 -0.2340  0.0532
14444TIP3    H143265   7.540   2.923   0.356 -0.3700  0.0502 -1.2278
14444TIP3    H243266   7.665   2.838   0.357  0.2893  1.0188 -0.1881
14445TIP3   OH243267   7.529   3.277   0.208  1.1203  0.4101  0.1529
14445TIP3    H143268   7.503   3.339   0.139 -1.2846 -1.2327 -0.4483
14445TIP3    H243269   7.542   3.332   0.285  0.1817  1.8274 -0.6734
14446TIP3   OH243270   2.149   0.951   0.892  0.3317 -0.0267 -0.1123
14446TIP3    H143271   2.237   0.929   0.862  0.0345  0.3111 -1.2647
14446TIP3    H243272   2.095   0.944   0.814 -0.5527  0.4103  0.4506
14447TIP3   OH243273   0.536   1.668   0.642 -0.2358 -0.2431  0.3216
14447TIP3    H143274   0.463   1.633   0.693 -1.2523 -0.0611 -0.9868
14447TIP3    H243275   0.505   1.752   0.610  1.5098  1.0142  1.8647
14448TIP3   OH243276   8.092   2.116   0.494 -0.0331 -0.2742  0.2263
14448TIP3    H143277   8.165   2.177   0.484 -0.1630 -0.2055 -0.3553
14448TIP3    H243278   8.049   2.116   0.408  0.3967 -1.7247 -0.0025
14449TIP3   OH243279   3.384   7.898   6.254  0.1490  0.4144 -0.3006
14449TIP3    H143280   3.412   7.943   6.333  0.5519 -0.8495  0.2935
14449TIP3    H243281   3.349   7.814   6.285 -1.0419  0.5058 -1.3315
14450TIP3   OH243282   1.201   1.232   1.000  0.0474 -0.2436 -0.4049
14450TIP3    H143283   1.162   1.184   1.073 -1.2076 -0.7789 -1.4059
14450TIP3    H243284   1.295   1.222   1.012 -0.1334  0.0733  1.4010
14451TIP3   OH243285   2.269   7.979   6.515 -0.0897 -0.1300 -0.1775
14451TIP3    H143286   2.265   7.912   6.584 -0.9351 -0.0385 -0.1375
14451TIP3    H243287   2.362   7.983   6.492  0.0122 -1.1057  0.0340
14452TIP3   OH243288   3.119   5.615   5.608 -0.1241  0.0344  0.1413
14452TIP3    H143289   3.026   5.591   5.606  0.3429 -2.0246  1.5853
14452TIP3    H243290   3.137   5.650   5.520 -2.3217  0.7962 -0.0479
14453TIP3   OH243291   0.355   1.913   2.265  0.8693 -0.5015  0.1536
14453TIP3    H143292   0.285   1.978   2.255  1.5796  0.3582  0.6190
14453TIP3    H243293   0.322   1.835   2.221 -0.3109 -0.0568  0.2198
14454TIP3   OH243294   0.319   5.290   6.809  0.0075 -0.3636 -0.6028
14454TIP3    H143295   0.297   5.368   6.861 -0.8735 -0.2956 -1.0719
14454TIP3    H243296   0.414   5.297   6.796 -0.0444  0.5861 -0.5604
14455TIP3   OH243297   5.663   4.457   0.553  0.4369  0.4560 -0.3786
14455TIP3    H143298   5.681   4.547   0.526  0.5199  0.3393 -0.7156
14455TIP3    H243299   5.587   4.431   0.502 -0.1202  0.6235  0.3497
14456TIP3   OH243300   4.146   7.060   5.149  0.5396 -0.3759 -0.0238
14456TIP3    H143301   4.059   7.084   5.181  1.0542 -0.3541  1.3527
14456TIP3    H243302   4.206   7.098   5.212  1.5392 -1.0548 -0.5607
14457TIP3   OH243303   0.064   4.528   2.585 -0.5852  0.1264  0.5672
14457TIP3    H143304   0.114   4.447   2.576 -0.9934 -0.2625  1.7677
14457TIP3    H243305  -0.021   4.508   2.545 -0.2995  0.3292 -0.1566
14458TIP3   OH243306   0.879   3.885   0.807  0.3444  0.0405  0.4475
14458TIP3    H143307   0.829   3.921   0.880  1.7729 -1.7205  2.3556
14458TIP3    H243308   0.919   3.960   0.765  0.8971  0.9312  2.5414
14459TIP3   OH243309   6.780   0.803   3.827 -0.0021 -0.1498 -0.0252
14459TIP3    H143310   6.762   0.888   3.867 -2.5451 -0.1840 -0.9983
14459TIP3    H243311   6.747   0.740   3.891  1.9818 -0.4309  0.7451
14460TIP3   OH243312   8.453   0.003   5.064  0.2066 -0.5560 -0.0202
14460TIP3    H143313   8.362  -0.002   5.092  0.2718 -0.0049  0.2855
14460TIP3    H243314   8.449   0.045   4.978  0.5051  3.5555  1.8405
14461TIP3   OH243315   1.282   0.998   1.800  0.4980  0.3742  0.3058
14461TIP3    H143316   1.331   0.956   1.729 -1.5843 -1.5720 -0.0362
14461TIP3    H243317   1.305   0.947   1.877  0.6045  0.7659  0.5344
14462TIP3   OH243318   1.786   6.042   4.163 -0.4821 -0.0890  0.1408
14462TIP3    H143319   1.765   6.101   4.235 -0.9195 -0.0413 -0.0233
14462TIP3    H243320   1.745   5.959   4.187  0.2033 -0.3441  0.4096
14463TIP3   OH243321   3.219   7.192   5.906  0.1725  0.0092 -0.0773
14463TIP3    H143322   3.259   7.137   5.839 -1.3612 -0.3774 -0.6834
14463TIP3    H243323   3.268   7.274   5.903  0.7092 -0.3473 -1.0231
14464TIP3   OH243324   0.574   1.588   1.554 -0.0182 -0.0953 -0.4000
14464TIP3    H143325   0.562   1.493   1.554 -0.4967 -0.0368 -1.0425
14464TIP3    H243326   0.668   1.600   1.542 -0.1712 -0.4711 -2.0486
14465TIP3   OH243327   1.191   0.215   2.215 -0.5593 -0.1084  0.3096
14465TIP3    H143328   1.171   0.147   2.150 -1.4233  0.6305 -0.2043
14465TIP3    H243329   1.188   0.297   2.166  3.2148  0.1148  0.3142
14466TIP3   OH243330   0.823   5.071   1.966 -0.0241 -0.2216 -0.5064
14466TIP3    H143331   0.734   5.106   1.964  0.5488  1.3112  0.3760
14466TIP3    H243332   0.871   5.129   2.025  1.0967 -2.1654  0.5674
14467TIP3   OH243333   2.890   6.102   6.295 -0.2579  0.0918  0.2388
14467TIP3    H143334   2.874   6.073   6.205  0.0134  0.8383 -0.0562
14467TIP3    H243335   2.842   6.184   6.302  0.5230  0.5304  0.4698
14468TIP3   OH243336   2.953   7.248   6.382  0.2818 -0.0638  0.2311
14468TIP3    H143337   2.878   7.218   6.434  0.0732  0.9246  0.5010
14468TIP3    H243338   3.029   7.212   6.427 -0.0322 -1.1911 -0.1230
14469TIP3   OH243339   0.068   0.403   1.836  0.3960  0.0822 -0.5493
14469TIP3    H143340   0.135   0.425   1.771 -1.3098  2.6688 -1.5509
14469TIP3    H243341   0.117   0.384   1.916  2.3833  0.6117 -1.6042
14470TIP3   OH243342   8.063   1.829   1.243  0.3153 -0.2251  0.3805
14470TIP3    H143343   7.975   1.801   1.220  1.4828 -1.8191 -2.3987
14470TIP3    H243344   8.094   1.763   1.305  0.6424 -1.4718 -1.0635
14471TIP3   OH243345   5.869   7.527   1.246  0.2604 -0.0822 -0.1132
14471TIP3    H143346   5.899   7.467   1.177  3.5240  1.9004 -0.5604
14471TIP3    H243347   5.863   7.612   1.202 -0.0877  0.7257  1.4721
14472TIP3   OH243348   2.549   2.893   4.096 -0.2963  0.9843 -0.2577
14472TIP3    H143349   2.628   2.947   4.098  0.1065  0.4024 -0.2435
14472TIP3    H243350   2.533   2.877   4.003  1.1332 -1.0892 -0.1900
14473TIP3   OH243351   1.562   2.508   1.192  0.1574  0.1605  0.1408
14473TIP3    H143352   1.518   2.427   1.216 -1.0492  0.8357  0.2342
14473TIP3    H243353   1.498   2.556   1.139  0.5704  1.3933  0.7358
14474TIP3   OH243354   2.600   6.321   5.821  0.4624 -0.2898  0.4750
14474TIP3    H143355   2.688   6.359   5.816  0.2615  0.2865  1.2437
14474TIP3    H243356   2.541   6.395   5.816  0.0445 -0.5751  1.0370
14475TIP3   OH243357   2.256   1.684   0.781  0.0421 -0.0855 -0.1971
14475TIP3    H143358   2.186   1.627   0.814 -0.0857  0.0370 -0.2554
14475TIP3    H243359   2.217   1.772   0.783 -0.2998 -0.1992 -1.6244
14476TIP3   OH243360   7.087   4.092   0.243  0.7850  0.5879  0.2846
14476TIP3    H143361   7.139   4.092   0.323  1.0801 -0.1759  0.1015
14476TIP3    H243362   7.069   3.999   0.226  0.5638  0.7541 -0.4254
14477TIP3   OH243363   0.947   1.424   0.810  0.5465 -0.5682  0.3334
14477TIP3    H143364   0.878   1.437   0.876  0.4453 -1.1466  0.3412
14477TIP3    H243365   1.027   1.410   0.862  0.9508  1.5101  0.3288
14478TIP3   OH243366   0.909   3.560   0.391 -0.6168  0.2606 -0.0793
14478TIP3    H143367   0.988   3.608   0.417 -0.4859 -0.0974  0.1913
14478TIP3    H243368   0.850   3.569   0.466 -0.4879 -0.2256  0.0839
14479TIP3   OH243369   6.282   2.421   2.431 -0.3860 -0.1170 -0.0316
14479TIP3    H143370   6.357   2.402   2.373 -0.8196  0.5149 -0.8055
14479TIP3    H243371   6.308   2.499   2.479 -0.4317 -0.0692 -0.0855
14480TIP3   OH243372   7.486   3.977   0.714  0.1821 -0.0074  0.2574
14480TIP3    H143373   7.507   3.950   0.625  0.1487 -0.2165  0.3121
14480TIP3    H243374   7.433   3.905   0.749 -1.6214  1.0442 -0.2646
14481TIP3   OH243375   0.706   2.899   1.904 -0.5919  0.5065 -0.0054
14481TIP3    H143376   0.735   2.939   1.986 -0.5916  0.3055  0.0906
14481TIP3    H243377   0.610   2.896   1.912 -0.4726 -1.3948  0.8476
14482TIP3   OH243378   8.427   1.286   1.058  0.2808  0.2391 -0.1523
14482TIP3    H143379   8.504   1.342   1.060 -0.6186  1.4706  1.0078
14482TIP3    H243380   8.359   1.339   1.017 -0.2698 -0.4240 -0.1227
14483TIP3   OH243381   0.832   0.525   1.560  0.2985 -0.1669 -0.3952
14483TIP3    H143382   0.824   0.543   1.466  0.3326  0.0355 -0.3594
14483TIP3    H243383   0.876   0.440   1.564  0.3311 -0.1589 -0.5621
14484TIP3   OH243384   1.251   2.137   0.940 -0.8938 -0.0006  0.8371
14484TIP3    H143385   1.241   2.081   1.017  1.4184  0.4195  1.4828
14484TIP3    H243386   1.235   2.226   0.972 -0.7347  0.0912  0.6643
14485TIP3   OH243387   0.708   2.864   3.642  0.0042  0.0683  0.5331
14485TIP3    H143388   0.680   2.954   3.663  1.9176  0.6645  0.5930
14485TIP3    H243389   0.769   2.874   3.570  0.2967 -1.1875  0.6027
14486TIP3   OH243390   8.456   2.419   2.353 -0.1770 -0.0048  0.2078
14486TIP3    H143391   8.481   2.328   2.368 -1.0774 -0.5061 -1.2963
14486TIP3    H243392   8.361   2.419   2.353 -0.1835  0.8384 -0.3936
14487TIP3   OH243393   0.880   6.959   6.660  0.2255 -0.7478 -0.2348
14487TIP3    H143394   0.929   7.041   6.651 -1.4585  0.1703 -1.1988
14487TIP3    H243395   0.893   6.935   6.752  0.0048  1.0839  0.3036
14488TIP3   OH243396   0.534   2.322   0.913 -0.6828  0.2737  0.1761
14488TIP3    H143397   0.539   2.404   0.864  1.6428 -0.1332 -0.3310
14488TIP3    H243398   0.619   2.314   0.956 -0.4496 -2.4134 -0.6804
14489TIP3   OH243399   1.122   0.413   1.830  0.1341 -0.1836 -0.4040
14489TIP3    H143400   1.168   0.422   1.914 -0.3495 -2.2958  0.1124
14489TIP3    H243401   1.081   0.499   1.817 -1.8354 -0.5458  2.7564
14490TIP3   OH243402   0.495   3.648   1.880 -0.2345  0.8445  0.0424
14490TIP3    H143403   0.463   3.558   1.883 -0.1342  0.8033 -0.0786
14490TIP3    H243404   0.433   3.694   1.824 -0.1461  0.7907 -0.1025
14491TIP3   OH243405   4.800   4.651   1.465  0.1793 -1.0652  0.0100
14491TIP3    H143406   4.850   4.569   1.465  2.2205  0.0942 -2.4865
14491TIP3    H243407   4.862   4.716   1.498 -0.7172 -0.1556 -0.1112
14492TIP3   OH243408   7.839   2.521   0.368  0.2053  0.8220  0.0459
14492TIP3    H143409   7.913   2.502   0.425  0.4772 -0.6250 -0.7776
14492TIP3    H243410   7.859   2.607   0.330  1.0633  0.8033  0.4596
14493TIP3   OH243411   6.012   0.244   6.099 -0.0961 -0.1382  0.4413
14493TIP3    H143412   5.937   0.256   6.041 -0.5111  0.6114  1.1319
14493TIP3    H243413   6.013   0.321   6.154 -0.0430 -1.1214  1.8412
14494TIP3   OH243414   1.605   2.006   0.509  0.0453  0.0920 -0.4276
14494TIP3    H143415   1.698   2.014   0.489  0.0137 -0.8359 -0.9724
14494TIP3    H243416   1.602   1.992   0.604  0.6562 -2.7269 -0.7799
14495TIP3   OH243417   8.207   1.432   1.266 -0.2751 -1.0154  0.0505
14495TIP3    H143418   8.170   1.344   1.276  0.1247 -0.8522  3.6451
14495TIP3    H243419   8.137   1.491   1.292  0.3383 -0.4077  0.3438
14496TIP3   OH243420   1.709   3.957   0.915 -0.0802  0.0288  0.4175
14496TIP3    H143421   1.704   3.905   0.835 -0.8288  0.4660  0.1792
14496TIP3    H243422   1.776   3.914   0.968 -0.6101 -1.0938  0.1700
14497TIP3   OH243423   8.246   3.399   1.614  0.6133 -0.1940  0.3915
14497TIP3    H143424   8.319   3.426   1.670  1.9189 -0.6257 -1.0768
14497TIP3    H243425   8.279   3.323   1.566 -1.6158 -1.8398  1.4024
14498TIP3   OH243426   0.616   0.773   0.291  0.2740  1.0105  0.3369
14498TIP3    H143427   0.590   0.690   0.332  2.4969 -0.0807 -0.3736
14498TIP3    H243428   0.581   0.840   0.350 -3.5505 -0.3232 -0.2563
14499TIP3   OH243429   0.399   1.428   0.900  0.5706 -0.2505  0.0139
14499TIP3    H143430   0.351   1.431   0.983 -0.2994 -2.8874 -0.3562
14499TIP3    H243431   0.450   1.348   0.904  1.4157  0.1902 -1.5297
14500TIP3   OH243432   2.020   4.433   0.881 -0.5589 -0.0964  0.0420
14500TIP3    H143433   2.001   4.486   0.958  2.9912  0.8209  0.3743
14500TIP3    H243434   1.974   4.350   0.897 -0.0110  0.1434  3.0837
14501TIP3   OH243435   3.790   6.028   6.926  0.2474  0.2076  0.2062
14501TIP3    H143436   3.767   5.946   6.971 -0.2935  1.0357  1.4737
14501TIP3    H243437   3.751   6.019   6.839 -0.8085 -0.4105  0.7328
14502TIP3   OH243438   2.237   6.048   4.619  0.1352 -0.0132 -0.5019
14502TIP3    H143439   2.309   6.064   4.680  0.5019 -2.0394 -0.3631
14502TIP3    H243440   2.166   6.015   4.674 -0.9112  1.9600 -0.6435
14503TIP3   OH243441   1.137   4.524   0.917  0.0677 -0.4111 -0.1581
14503TIP3    H143442   1.202   4.485   0.859 -0.8376 -0.8138 -0.9208
14503TIP3    H243443   1.131   4.464   0.991  0.9865 -0.0695  0.1914
14504TIP3   OH243444   2.595   3.992   0.352 -0.1472  0.0533 -0.4378
14504TIP3    H143445   2.515   3.941   0.366 -0.3099  0.4524  0.1104
14504TIP3    H243446   2.592   4.015   0.259  0.4159 -1.7397 -0.9196
14505TIP3   OH243447   2.692   1.108   3.000  0.1865  0.2272 -0.4512
14505TIP3    H143448   2.741   1.110   3.082 -1.1373 -0.0954  0.3533
14505TIP3    H243449   2.752   1.066   2.938  1.6656  1.5980  0.0237
14506TIP3   OH243450   1.434   2.056   2.155 -0.4711 -0.1760  0.8990
14506TIP3    H143451   1.448   2.060   2.061 -3.1613 -1.2045  0.4114
14506TIP3    H243452   1.507   2.004   2.188  1.1434  1.1777 -0.4264
14507TIP3   OH243453   0.349   2.290   2.145  0.2774 -0.5046  0.0796
14507TIP3    H143454   0.438   2.263   2.120  0.7262  1.0493 -0.0534
14507TIP3    H243455   0.311   2.212   2.185  1.4434 -1.4150 -0.5493
14508TIP3   OH243456   6.140   2.032   1.624 -0.0817 -0.0734  0.1033
14508TIP3    H143457   6.134   2.126   1.604  0.1223 -0.2610 -0.8623
14508TIP3    H243458   6.219   2.003   1.578 -0.7378 -0.9431 -0.4596
14509TIP3   OH243459   0.233   3.075   0.430 -0.4850  0.0580 -1.0095
14509TIP3    H143460   0.231   3.145   0.364 -2.6547  0.9578 -0.0345
14509TIP3    H243461   0.187   3.112   0.505  1.0449 -1.3375  0.6600
14510TIP3   OH243462   7.563   3.213   3.423 -0.5429 -0.2610  0.0664
14510TIP3    H143463   7.487   3.207   3.365  0.2781  0.0039 -1.0509
14510TIP3    H243464   7.611   3.132   3.409 -0.3761 -0.2263  0.4351
14511TIP3   OH243465   1.102   2.549   0.320 -0.1229 -0.1881 -0.2391
14511TIP3    H143466   1.129   2.458   0.303  0.7306  0.0263 -0.0731
14511TIP3    H243467   1.082   2.585   0.234  2.2989  0.3145 -0.6124
14512TIP3   OH243468   2.847   5.158   6.656 -0.8640  0.1536  0.5343
14512TIP3    H143469   2.770   5.150   6.600 -0.6259 -0.1120  0.2448
14512TIP3    H243470   2.917   5.186   6.596 -0.2432 -1.6240  0.4038
14513TIP3   OH243471   2.983   7.954   5.918  0.1989 -0.1686 -0.2577
14513TIP3    H143472   2.904   7.901   5.929  0.5092  0.0835  3.6624
14513TIP3    H243473   3.050   7.907   5.966  1.3948  1.8449  0.0891
14514TIP3   OH243474   1.003   2.124   1.588  0.5404  0.0018  0.5214
14514TIP3    H143475   0.937   2.062   1.558  1.4641 -0.1616 -1.3005
14514TIP3    H243476   0.954   2.192   1.633 -0.7462 -0.7223  0.2460
14515TIP3   OH243477   2.226   5.175   5.144  0.5660  0.2538  0.1868
14515TIP3    H143478   2.183   5.106   5.094  2.5301  0.7192 -2.2827
14515TIP3    H243479   2.224   5.145   5.235 -0.9342 -1.7824 -0.4943
14516TIP3   OH243480   3.290   5.477   4.678 -0.1301  0.3986 -0.4021
14516TIP3    H143481   3.361   5.413   4.669 -0.7536 -0.2642 -0.5736
14516TIP3    H243482   3.249   5.455   4.762 -0.9860 -0.0765 -0.9346
14517TIP3   OH243483   1.316   1.491   1.075  0.4236 -0.1470  0.1376
14517TIP3    H143484   1.292   1.398   1.073  1.0402 -0.3127  0.4471
14517TIP3    H243485   1.411   1.491   1.082  0.8005  0.5260 -3.8387
14518TIP3   OH243486   8.046   0.911   0.722 -0.1923 -0.0463 -0.4004
14518TIP3    H143487   8.095   0.960   0.657  0.9048 -2.2418 -1.2868
14518TIP3    H243488   7.958   0.950   0.722  1.0402  2.7789 -0.0397
14519TIP3   OH243489   0.756   1.741   0.234 -0.8667  0.0464 -0.1361
14519TIP3    H143490   0.735   1.694   0.315 -2.1568 -1.2768 -1.2041
14519TIP3    H243491   0.713   1.826   0.245 -0.1481  0.2699  1.0080
14520TIP3   OH243492   6.839   0.768   6.308  0.6075 -0.3062 -0.3116
14520TIP3    H143493   6.847   0.780   6.213 -0.1534  2.2833 -0.0959
14520TIP3    H243494   6.748   0.789   6.327 -0.0642 -3.8293  0.6316
14521TIP3   OH243495   0.846   2.151   1.961  0.7746 -0.0575 -0.1182
14521TIP3    H143496   0.824   2.081   2.022  1.5851 -1.4901 -1.4222
14521TIP3    H243497   0.782   2.143   1.890  0.8618  0.5300 -0.2720
14522TIP3   OH243498   0.214   3.205   1.774  0.9090  0.1030  0.2713
14522TIP3    H143499   0.139   3.158   1.811  0.3801  1.4488  0.9495
14522TIP3    H243500   0.202   3.198   1.679 -1.9312  3.1000  0.3029
14523TIP3   OH243501   8.444   2.831   1.511 -0.1242 -0.2165 -0.2425
14523TIP3    H143502   8.535   2.821   1.537  0.0014 -1.8163 -1.2294
14523TIP3    H243503   8.424   2.752   1.461 -1.5094  0.9599 -1.6242
14524TIP3   OH243504   7.397   3.216   1.198  0.6924 -0.2105 -0.2807
14524TIP3    H143505   7.341   3.154   1.151  1.0764 -0.3062 -0.6123
14524TIP3    H243506   7.366   3.302   1.169  2.4517 -0.2943 -2.5017
14525TIP3   OH243507   7.878   5.138   0.525 -0.6712  0.6179  0.2162
14525TIP3    H143508   7.968   5.169   0.516 -0.6309  0.2605 -0.7023
14525TIP3    H243509   7.881   5.046   0.499 -1.1048  0.3078  1.2480
14526TIP3   OH243510   5.412   0.019   5.656 -0.3548 -0.3454  0.3180
14526TIP3    H143511   5.326   0.015   5.614 -0.4888 -2.2706  0.7098
14526TIP3    H243512   5.396   0.058   5.742 -0.9319 -1.1112  0.5673
14527TIP3   OH243513   1.642   5.093   5.305 -0.6151 -0.1766  0.1543
14527TIP3    H143514   1.692   5.175   5.306 -0.6301 -0.1589  2.3967
14527TIP3    H243515   1.687   5.038   5.241 -1.1443  1.8900 -2.0514
14528TIP3   OH243516   8.036   0.203   5.276  1.1551 -0.0910  0.4525
14528TIP3    H143517   7.957   0.152   5.295  2.0563 -0.6809  2.8278
14528TIP3    H243518   8.013   0.256   5.200 -1.2964 -0.7693  0.6801
14529TIP3   OH243519   5.747   5.989   6.456 -0.5101  0.0172  0.3188
14529TIP3    H143520   5.672   6.004   6.514 -0.4547  0.7918  0.1910
14529TIP3    H243521   5.762   6.073   6.413 -0.2902 -0.4358 -0.5166
14530TIP3   OH243522   4.233   5.967   6.711  0.5884  0.0857  0.8257
14530TIP3    H143523   4.174   6.035   6.743 -0.7733  0.3139 -2.0584
14530TIP3    H243524   4.197   5.885   6.744 -1.4103  0.2207 -0.9320
14531TIP3   OH243525   0.548   4.614   1.429 -0.2685 -0.1681  0.4016
14531TIP3    H143526   0.548   4.665   1.348 -0.1602 -1.8713 -0.6943
14531TIP3    H243527   0.481   4.547   1.415 -1.9741  1.0049  2.6940
14532TIP3   OH243528   0.415   3.569   0.886  0.0836  0.3642  0.0554
14532TIP3    H143529   0.347   3.518   0.843  0.4501 -0.5368  0.5148
14532TIP3    H243530   0.371   3.611   0.960  0.3061 -1.3433  1.1847
14533TIP3   OH243531   2.444   3.345   1.789 -0.1375 -0.0207 -0.0739
14533TIP3    H143532   2.362   3.298   1.802  0.0036 -0.2919 -0.1798
14533TIP3    H243533   2.458   3.345   1.695 -0.1579  0.2666 -0.0778
14534TIP3   OH243534   3.187   1.765   2.547  0.0535  0.0494 -0.2261
14534TIP3    H143535   3.231   1.823   2.608 -0.7813  0.6728 -0.2105
14534TIP3    H243536   3.203   1.804   2.461  0.9663 -0.6583 -0.3865
14535TIP3   OH243537   2.251   4.420   0.502  0.0997  0.1855  0.0618
14535TIP3    H143538   2.324   4.442   0.560  0.0734  1.6964 -0.4472
14535TIP3    H243539   2.187   4.376   0.559  1.7880 -2.0239  0.3085
14536TIP3   OH243540   2.405   3.050   0.804  0.1558  0.0271  0.1947
14536TIP3    H143541   2.477   2.996   0.837  0.9376  1.0466  0.1854
14536TIP3    H243542   2.448   3.117   0.751 -0.7810  0.8140  0.4239
14537TIP3   OH243543   4.553   2.470   0.215  0.1149 -0.6623  0.1148
14537TIP3    H143544   4.517   2.559   0.215  0.1309 -0.6474 -1.3485
14537TIP3    H243545   4.482   2.416   0.182  1.4156 -0.6272 -2.8266
14538TIP3   OH243546   6.572   6.466   6.675 -0.3999 -0.3283 -0.2994
14538TIP3    H143547   6.553   6.465   6.768 -1.5976  1.1428 -0.5161
14538TIP3    H243548   6.511   6.402   6.637  0.4645 -1.3342 -0.0239
14539TIP3   OH243549   4.102   7.584   6.562 -0.2310  0.3652 -0.3831
14539TIP3    H143550   4.075   7.543   6.644 -0.7021  0.8798 -0.2715
14539TIP3    H243551   4.098   7.514   6.497  0.2113 -0.0618  0.0443
14540TIP3   OH243552   2.869   5.572   5.264 -0.5630 -0.5116 -0.1303
14540TIP3    H143553   2.843   5.641   5.204 -0.3375 -0.8404 -0.6172
14540TIP3    H243554   2.884   5.496   5.208  2.8200  0.0235 -0.0988
14541TIP3   OH243555   7.872   2.690   1.753 -0.3440  0.2162 -0.1398
14541TIP3    H143556   7.888   2.780   1.724  0.4022 -0.5181 -2.0786
14541TIP3    H243557   7.925   2.636   1.695 -1.3411 -1.5381  0.5339
14542TIP3   OH243558   1.887   3.022   1.234  0.4541  0.2705  0.6375
14542TIP3    H143559   1.937   2.953   1.276 -1.3114 -0.2516  1.9777
14542TIP3    H243560   1.796   2.993   1.240 -0.1171  1.6400 -0.8323
14543TIP3   OH243561   1.141   3.645   0.477 -0.4845 -0.5152  0.6873
14543TIP3    H143562   1.163   3.713   0.540 -1.6708  0.3351  0.1988
14543TIP3    H243563   1.200   3.660   0.403 -1.0711  0.2798  0.3802
14544TIP3   OH243564   5.635   6.628   5.053 -0.4396 -0.3315  0.4727
14544TIP3    H143565   5.715   6.577   5.059  0.4963  1.0540  0.0728
14544TIP3    H243566   5.651   6.704   5.110 -0.6000  1.0558 -1.3003
14545TIP3   OH243567   7.439   2.254   6.679  0.9742  0.1744  0.4679
14545TIP3    H143568   7.350   2.228   6.702  0.3411  0.7612 -1.2615
14545TIP3    H243569   7.483   2.173   6.655 -0.0967  0.2674 -1.9276
14546TIP3   OH243570   1.928   3.810   0.008 -0.0465  0.5092 -0.0016
14546TIP3    H143571   1.967   3.880   0.060 -0.3502  1.3809 -0.9397
14546TIP3    H243572   1.834   3.815   0.028 -0.4288  2.0691 -2.0419
14547TIP3   OH243573   4.081   2.470   0.645  0.1886 -0.3230  0.1222
14547TIP3    H143574   4.057   2.534   0.578 -0.2442  0.1824  0.7585
14547TIP3    H243575   4.060   2.385   0.606  0.0242 -0.0350 -0.4132
14548TIP3   OH243576   1.317   3.084   1.942  0.1530 -0.3360 -0.0916
14548TIP3    H143577   1.228   3.101   1.972  0.6912  2.4207  0.0626
14548TIP3    H243578   1.307   3.019   1.873 -2.4246  2.6942 -2.7669
14549TIP3   OH243579   3.864   1.265   0.317  0.2422  0.0337  0.0494
14549TIP3    H143580   3.955   1.249   0.343  0.0299  0.4172  1.0394
14549TIP3    H243581   3.829   1.322   0.385 -1.1460 -1.1921  0.3863
14550TIP3   OH243582   2.894   3.385   1.175 -0.3810  0.4028  0.4900
14550TIP3    H143583   2.866   3.398   1.266  2.2853 -1.5435  1.6487
14550TIP3    H243584   2.848   3.307   1.146  1.9897 -1.4646  1.6327
14551TIP3   OH243585   0.042   1.676   1.883 -0.1126 -0.1743 -0.0637
14551TIP3    H143586  -0.012   1.598   1.894  0.0271 -0.4004 -0.9353
14551TIP3    H243587   0.086   1.663   1.799  2.0250 -0.4321  1.0672
14552TIP3   OH243588   0.810   4.612   1.509 -0.2068 -0.1848  0.3778
14552TIP3    H143589   0.851   4.540   1.460  0.7178  1.1873 -0.9029
14552TIP3    H243590   0.721   4.617   1.473 -0.0030 -0.1456 -0.1299
14553TIP3   OH243591   5.771   6.242   6.370  0.1909  0.1495 -0.3031
14553TIP3    H143592   5.779   6.276   6.281 -0.5155 -1.2531 -0.9189
14553TIP3    H243593   5.715   6.306   6.415  1.8370  1.6993 -0.3891
14554TIP3   OH243594   3.632   5.119   6.712  0.1387  0.0135  0.0424
14554TIP3    H143595   3.586   5.088   6.634  0.3874 -0.2733  0.0079
14554TIP3    H243596   3.576   5.189   6.746 -0.3070 -0.3114 -0.0144
14555TIP3   OH243597   4.825   4.112   0.895  0.3033 -0.1620  0.2113
14555TIP3    H143598   4.845   4.025   0.928  0.0141 -0.3860 -0.1981
14555TIP3    H243599   4.858   4.112   0.805 -0.9948 -0.3472 -0.2839
14556TIP3   OH243600   5.509   7.725   5.833  0.0388  0.3503  0.5878
14556TIP3    H143601   5.569   7.686   5.769  0.2137  1.1801  0.2347
14556TIP3    H243602   5.450   7.778   5.780  1.0046  2.0924  1.2279
14557TIP3   OH243603   2.515   5.749   6.805 -0.0682  0.2107  0.1528
14557TIP3    H143604   2.438   5.702   6.835 -0.3333 -0.0858 -0.9848
14557TIP3    H243605   2.555   5.783   6.886 -1.0759 -0.0905  0.7901
14558TIP3   OH243606   5.909   7.685   6.851 -0.1472  0.2417  0.0833
14558TIP3    H143607   5.932   7.616   6.913  2.2728 -0.0476 -1.0781
14558TIP3    H243608   5.836   7.649   6.801  0.1328 -0.8997  0.4804
14559TIP3   OH243609   2.627   4.328   2.257  0.9200 -0.3639  0.0640
14559TIP3    H143610   2.656   4.359   2.342  0.2715  0.7778 -0.1188
14559TIP3    H243611   2.641   4.233   2.259  0.6215 -0.3804  1.5379
14560TIP3   OH243612   4.137   1.701   0.104 -0.3334  0.2077 -0.1444
14560TIP3    H143613   4.139   1.781   0.052 -1.1568  1.1634  1.2567
14560TIP3    H243614   4.060   1.654   0.073 -0.2530  0.3009 -0.4848
14561TIP3   OH243615   5.719   0.410   6.077  0.3985 -0.8834 -0.0337
14561TIP3    H143616   5.721   0.350   6.002 -0.8710 -1.4505  0.3680
14561TIP3    H243617   5.770   0.485   6.049 -1.1066 -0.5300 -1.9543
14562TIP3   OH243618   1.326   3.708   0.062 -0.4450  0.1659 -0.5880
14562TIP3    H143619   1.400   3.648   0.057  0.0073  0.6733  0.0347
14562TIP3    H243620   1.365   3.795   0.052 -1.1546  0.3352 -2.0517
14563TIP3   OH243621   0.089   2.220   6.802 -0.1411 -0.1432  0.4094
14563TIP3    H143622  -0.002   2.248   6.803 -0.4657 -1.1945  0.3924
14563TIP3    H243623   0.109   2.196   6.892  0.2021  0.3387  0.4645
14564TIP3   OH243624   0.908   2.741   0.785 -0.0073 -0.2408  0.1284
14564TIP3    H143625   0.860   2.821   0.807  0.0754 -0.8781  2.7296
14564TIP3    H243626   0.982   2.740   0.845  1.7530 -0.6976 -1.9997
14565TIP3   OH243627   7.377   2.212   5.447  0.4001  0.2235  0.1455
14565TIP3    H143628   7.388   2.214   5.542 -1.2089 -1.8973  0.4114
14565TIP3    H243629   7.362   2.119   5.427 -0.3340  0.7931 -2.0548
14566TIP3   OH243630   2.654   6.618   6.566  0.2699 -0.2765 -0.5283
14566TIP3    H143631   2.731   6.674   6.563  1.4209 -1.8300 -0.5555
14566TIP3    H243632   2.689   6.529   6.568 -1.4930 -0.9689  1.2030
14567TIP3   OH243633   0.689   1.277   2.652 -0.2221 -0.1503 -0.1927
14567TIP3    H143634   0.626   1.301   2.583 -1.1846 -0.1658  0.6616
14567TIP3    H243635   0.765   1.334   2.636 -0.4768 -0.0871 -1.2052
14568TIP3   OH243636   2.006   4.042   0.120  0.5047 -0.9971  0.2709
14568TIP3    H143637   2.093   4.057   0.084 -0.1677 -1.5350 -1.6493
14568TIP3    H243638   1.998   4.105   0.192  2.1586 -0.3840 -0.0626
14569TIP3   OH243639   3.502   4.622   2.074  0.0246 -0.3069  0.6072
14569TIP3    H143640   3.490   4.703   2.024  1.7333  0.9797  2.1996
14569TIP3    H243641   3.418   4.607   2.116 -0.5027  0.2871 -0.2173
14570TIP3   OH243642   3.593   7.591   5.910 -0.2628  0.2597 -0.4519
14570TIP3    H143643   3.658   7.534   5.952 -0.6043  0.9784  1.0678
14570TIP3    H243644   3.643   7.642   5.847  0.4778  0.1240  0.0199
14571TIP3   OH243645   3.041   1.257   6.651 -1.0394 -0.0421  0.2305
14571TIP3    H143646   3.042   1.329   6.588  0.6950 -0.4984 -0.2842
14571TIP3    H243647   2.978   1.285   6.718 -1.8554  1.0637 -0.9703
14572TIP3   OH243648   0.949   2.624   1.298 -0.5524  0.2977 -0.3900
14572TIP3    H143649   0.974   2.716   1.288  0.0695  0.3063  1.0831
14572TIP3    H243650   1.030   2.579   1.324 -1.5959  0.0095  2.6539
14573TIP3   OH243651   0.074   0.391   0.939 -0.2524 -0.3593 -0.3816
14573TIP3    H143652  -0.014   0.353   0.934 -0.1523 -0.6756  0.2510
14573TIP3    H243653   0.104   0.370   1.027 -0.3275  1.4679  0.1001
14574TIP3   OH243654   1.549   4.721   0.774 -0.0521  0.2495  0.5161
14574TIP3    H143655   1.528   4.648   0.716 -1.5901  0.9053  0.2031
14574TIP3    H243656   1.528   4.689   0.862  0.0402  0.0373  0.4600
14575TIP3   OH243657   2.256   2.097   0.163 -0.1066 -0.2311 -0.3170
14575TIP3    H143658   2.199   2.158   0.116  1.1253 -0.4141 -2.1136
14575TIP3    H243659   2.275   2.140   0.246  0.7569  1.8674 -1.5660
14576TIP3   OH243660   5.130   6.471   6.246  0.0987 -0.0711  0.1239
14576TIP3    H143661   5.104   6.413   6.317  1.8540 -1.0474 -0.0042
14576TIP3    H243662   5.185   6.537   6.288  0.4873 -0.1967 -0.1810
14577TIP3   OH243663   0.735   1.968   1.306  0.2218 -0.4776 -0.3783
14577TIP3    H143664   0.682   2.048   1.313 -1.3289 -1.6423  1.8558
14577TIP3    H243665   0.764   1.951   1.396  1.1023 -2.0443 -0.9418
14578TIP3   OH243666   2.342   7.505   5.343 -0.2437  0.2320 -0.3382
14578TIP3    H143667   2.329   7.531   5.434  1.3724 -1.0666  0.3040
14578TIP3    H243668   2.320   7.583   5.292 -2.6701  0.5080  1.0425
14579TIP3   OH243669   5.287   6.927   6.528 -0.4867 -0.1637  0.3038
14579TIP3    H143670   5.332   6.860   6.580  1.1302  0.6730  0.0292
14579TIP3    H243671   5.268   6.997   6.591  1.2233  0.7300 -0.1281
14580TIP3   OH243672   3.290   3.003   0.190  0.5280  0.4714 -0.0408
14580TIP3    H143673   3.297   3.043   0.277  0.7598 -1.1259  0.6947
14580TIP3    H243674   3.376   2.966   0.173 -1.0974 -4.5971  1.7698
14581TIP3   OH243675   1.924   3.133   0.043 -0.0050 -0.4178 -0.2390
14581TIP3    H143676   1.925   3.040   0.066  1.7783 -0.1561  0.8351
14581TIP3    H243677   1.984   3.140  -0.031  1.4825  0.1817  1.0017
14582TIP3   OH243678   3.291   4.300   3.880 -0.2169 -0.6995  0.1534
14582TIP3    H143679   3.273   4.291   3.973  0.1028  0.1736  0.2978
14582TIP3    H243680   3.333   4.217   3.855 -1.9745 -1.6770  0.3850
14583TIP3   OH243681   3.747   5.705   6.672 -0.0636  0.0729 -0.0299
14583TIP3    H143682   3.688   5.654   6.729  0.4383 -0.6626 -0.1585
14583TIP3    H243683   3.788   5.639   6.616  1.2265  0.5163  0.3697
14584TIP3   OH243684   1.673   1.435   3.129  0.1084  0.0206 -0.5365
14584TIP3    H143685   1.624   1.393   3.200  0.1346 -1.0285 -1.1368
14584TIP3    H243686   1.621   1.512   3.106  0.0498  0.3252  0.5532
14585TIP3   OH243687   2.012   1.725   1.073  0.1632 -0.1433 -0.4593
14585TIP3    H143688   2.012   1.665   0.998 -2.0499 -0.2135 -0.4188
14585TIP3    H243689   1.937   1.783   1.058  0.1138  0.2906  1.3396
14586TIP3   OH243690   3.271   6.892   5.191 -0.2617 -0.0432 -0.0673
14586TIP3    H143691   3.288   6.799   5.204 -1.7243 -0.4790 -1.1274
14586TIP3    H243692   3.307   6.912   5.105 -0.5765  0.1951 -0.1471
14587TIP3   OH243693   2.821   4.190   1.280  0.5332 -0.6315  0.1408
14587TIP3    H143694   2.828   4.282   1.255  1.2014 -0.7109  0.0245
14587TIP3    H243695   2.728   4.169   1.268  0.8949 -0.8197 -2.8772
14588TIP3   OH243696   8.145   4.927   1.011  0.6004 -0.0050  0.0602
14588TIP3    H143697   8.233   4.946   0.980  0.5833 -1.0836 -0.6699
14588TIP3    H243698   8.089   4.987   0.961  0.6938 -0.9131 -1.1633
14589TIP3   OH243699   4.267   4.052   1.048  0.6169 -0.0616 -0.9470
14589TIP3    H143700   4.243   4.083   1.136  0.6631 -1.7420 -0.3237
14589TIP3    H243701   4.186   4.015   1.013  0.8574 -0.3361 -1.2085
14590TIP3   OH243702   6.419   0.795   6.766  0.1017  0.1303  0.4772
14590TIP3    H143703   6.338   0.762   6.806 -1.2191  1.3195 -1.1818
14590TIP3    H243704   6.455   0.856   6.831 -1.1575  0.8087  0.5360
14591TIP3   OH243705   1.416   3.034   2.797 -0.3266 -0.1417  0.6070
14591TIP3    H143706   1.506   3.008   2.818  0.1462  1.6554  0.8918
14591TIP3    H243707   1.362   2.977   2.851  0.6607 -0.8545  0.8584
14592TIP3   OH243708   7.170   0.745   6.586  0.1468  0.9080 -0.2781
14592TIP3    H143709   7.078   0.724   6.602  0.2606 -0.4231 -1.3227
14592TIP3    H243710   7.216   0.661   6.590  1.3230  1.5517  0.2046
14593TIP3   OH243711   1.240   2.958   1.725 -0.0317 -0.2801  0.7225
14593TIP3    H143712   1.296   3.005   1.663  0.2863  0.7616  1.7740
14593TIP3    H243713   1.157   3.006   1.724 -0.1785 -0.5340  0.7564
14594TIP3   OH243714   2.189   7.093   5.891  0.2524  0.4615  0.1384
14594TIP3    H143715   2.151   7.047   5.966  1.7597 -0.4803  0.3494
14594TIP3    H243716   2.193   7.027   5.822  2.1659  0.3422  0.3524
14595TIP3   OH243717   0.778   0.103   5.480  0.1901  0.0037 -0.4083
14595TIP3    H143718   0.708   0.088   5.417 -1.5179  2.5744  0.7792
14595TIP3    H243719   0.844   0.153   5.431  0.2420 -0.5944 -0.9569
14596TIP3   OH243720   2.817   3.242   0.068 -0.1028  0.8813 -0.1254
14596TIP3    H143721   2.804   3.306   0.137  1.8871  1.3126 -0.1494
14596TIP3    H243722   2.728   3.210   0.049 -0.8768  2.1311  1.2788
14597TIP3   OH243723   2.540   3.971   1.582 -0.2423 -0.2641 -0.6837
14597TIP3    H143724   2.518   3.878   1.592 -1.1599  0.0097 -0.1348
14597TIP3    H243725   2.636   3.974   1.592 -0.1942 -1.1643 -0.8160
14598TIP3   OH243726   0.532   2.703   2.706  0.3273  0.5694  0.0605
14598TIP3    H143727   0.514   2.769   2.773  0.0600  0.7757 -0.2144
14598TIP3    H243728   0.525   2.619   2.751 -5.3207  0.3728 -0.8588
14599TIP3   OH243729   5.020   6.485   6.491  0.3638 -0.5522 -0.1602
14599TIP3    H143730   4.956   6.518   6.429  0.3590 -0.2560 -0.0010
14599TIP3    H243731   4.968   6.455   6.566  0.4583  0.5013  0.3407
14600TIP3   OH243732   3.919   7.897   6.705  0.6070  0.4774 -0.0169
14600TIP3    H143733   3.907   7.947   6.624  1.1183 -1.4300 -1.3127
14600TIP3    H243734   3.833   7.856   6.720  0.6881  0.3426  0.0723
14601TIP3   OH243735   5.761   6.772   5.256 -0.4941  0.0137  0.4103
14601TIP3    H143736   5.673   6.807   5.271 -0.2234  0.2788  1.4127
14601TIP3    H243737   5.810   6.846   5.221 -0.4451  0.0970  0.6553
14602TIP3   OH243738   2.804   3.800   0.105 -0.3252  0.6750  0.6212
14602TIP3    H143739   2.832   3.751   0.182  0.2139 -0.3945 -0.2446
14602TIP3    H243740   2.710   3.781   0.098 -0.1284 -0.2275  0.3142
14603TIP3   OH243741   1.714   6.133   2.112 -0.2311 -0.1579 -0.1297
14603TIP3    H143742   1.628   6.095   2.129 -1.2822  2.9163  1.7314
14603TIP3    H243743   1.709   6.168   2.023 -0.2109 -1.7167 -0.7600
14604TIP3   OH243744   3.247   8.004   6.614 -0.1330 -0.4606  0.0169
14604TIP3    H143745   3.267   7.932   6.673 -2.2735  0.4670  1.9596
14604TIP3    H243746   3.151   8.001   6.604 -0.2224  1.8926 -0.1519
14605TIP3   OH243747   0.773   2.308   0.666  0.1474 -0.2636 -0.5308
14605TIP3    H143748   0.762   2.227   0.715 -0.5763 -0.9410 -1.7873
14605TIP3    H243749   0.859   2.300   0.625  0.2453 -0.2287 -0.3285
14606TIP3   OH243750   1.942   4.698   1.019 -0.3652 -0.0224  0.1383
14606TIP3    H143751   1.862   4.673   1.065 -0.5003 -0.0825 -0.1321
14606TIP3    H243752   1.927   4.789   0.992  0.1507  0.3842  1.1804
14607TIP3   OH243753   6.119   6.158   6.667  0.0825  0.6231 -0.5375
14607TIP3    H143754   6.170   6.145   6.747 -1.8034 -1.9378  0.2884
14607TIP3    H243755   6.028   6.165   6.697 -0.5534  0.5823 -2.3916
14608TIP3   OH243756   3.219   5.089   2.373  0.1898 -0.6128  0.3935
14608TIP3    H143757   3.282   5.023   2.344  0.0812  0.4513 -2.3922
14608TIP3    H243758   3.259   5.128   2.451  1.4997 -2.0779  0.4742
14609TIP3   OH243759   7.426   0.238   6.342  0.2485 -0.0110 -0.3529
14609TIP3    H143760   7.456   0.279   6.424  0.2826  1.3575 -1.0290
14609TIP3    H243761   7.494   0.261   6.278  0.2787 -1.1684 -0.7431
14610TIP3   OH243762   6.565   6.293   5.900  0.5764 -0.0632 -0.4131
14610TIP3    H143763   6.577   6.383   5.932  0.5936 -0.0642 -0.4158
14610TIP3    H243764   6.648   6.272   5.857  0.5287 -0.0369 -0.5178
14611TIP3   OH243765   1.531   3.225   1.853 -0.3107 -0.0748  0.4226
14611TIP3    H143766   1.465   3.182   1.907 -0.6020  0.8671  0.8272
14611TIP3    H243767   1.482   3.263   1.780 -0.0831 -0.2514  0.1761
14612TIP3   OH243768   3.388   5.452   0.420 -0.0205  0.0063 -0.1320
14612TIP3    H143769   3.366   5.532   0.372  0.1925  1.0250  1.4343
14612TIP3    H243770   3.478   5.465   0.449 -1.3662  1.1447  3.8636
14613TIP3   OH243771   6.042   0.182   5.680 -0.0739 -0.5038 -0.3269
14613TIP3    H143772   6.125   0.141   5.656  0.3664 -0.0118  0.3558
14613TIP3    H243773   6.037   0.172   5.775 -0.0775  0.8135 -0.1803
14614TIP3   OH243774   1.416   4.446   0.234 -0.5529  0.3092  0.0456
14614TIP3    H143775   1.488   4.490   0.278 -0.8741 -0.6763  1.5982
14614TIP3    H243776   1.403   4.365   0.284 -2.5304  0.3357 -0.3904
14615TIP3   OH243777   1.645   2.852   1.535  0.0423 -0.1471  0.4112
14615TIP3    H143778   1.719   2.791   1.529 -1.3317 -1.6439 -1.8449
14615TIP3    H243779   1.627   2.877   1.445 -2.3183  0.0999  0.9301
14616TIP3   OH243780   3.550   5.707   5.209  0.5678 -0.2756 -0.1269
14616TIP3    H143781   3.489   5.778   5.189  1.3422 -0.0403 -1.7820
14616TIP3    H243782   3.581   5.677   5.123  2.4666 -0.6534  0.6469
14617TIP3   OH243783   2.208   2.899   2.206 -0.5523 -0.4484 -0.2138
14617TIP3    H143784   2.146   2.963   2.242 -0.8591 -0.3749 -0.8686
14617TIP3    H243785   2.207   2.915   2.111  0.2471 -0.6396 -0.2617
14618TIP3   OH243786   3.543   3.472   2.587  0.1463  0.2539 -0.1933
14618TIP3    H143787   3.578   3.483   2.675 -0.3396  1.3879 -0.1386
14618TIP3    H243788   3.608   3.514   2.530  0.2926 -0.1803 -0.3505
14619TIP3   OH243789   8.033   0.207   6.657  0.3619 -0.1511 -0.6347
14619TIP3    H143790   8.084   0.260   6.596 -1.4573  2.2319 -0.1680
14619TIP3    H243791   7.942   0.215   6.626 -0.3964 -0.1076  1.4808
14620TIP3   OH243792   2.681   2.211   0.417 -0.2652  0.6365  0.2695
14620TIP3    H143793   2.758   2.160   0.444  0.5154  0.3493 -2.3274
14620TIP3    H243794   2.716   2.298   0.396 -0.8767  0.9226  0.4388
14621TIP3   OH243795   3.649   3.848   1.120  0.1934 -0.2777 -0.0720
14621TIP3    H143796   3.626   3.769   1.170 -2.1116  0.5133  0.2013
14621TIP3    H243797   3.638   3.821   1.029 -2.0857  0.1142  0.0558
14622TIP3   OH243798   2.538   0.730   1.849  0.4825  0.6248  0.6787
14622TIP3    H143799   2.467   0.723   1.785  1.1048  0.6616 -0.0268
14622TIP3    H243800   2.600   0.791   1.809  1.3937 -0.1973  0.8258
14623TIP3   OH243801   1.279   6.967   6.678  0.0767  0.8714  0.6055
14623TIP3    H143802   1.284   6.887   6.625 -0.2403  0.4026  1.2859
14623TIP3    H243803   1.266   6.937   6.768 -1.8703  1.7114  0.6465
14624TIP3   OH243804   4.310   7.382   6.254  0.2800 -0.3900  0.3070
14624TIP3    H143805   4.245   7.437   6.210  0.1301 -0.9214 -0.1443
14624TIP3    H243806   4.272   7.364   6.340  0.0659 -0.2695  0.2394
14625TIP3   OH243807   2.907   4.236   0.644 -0.1927 -0.0297  0.0647
14625TIP3    H143808   2.919   4.325   0.611 -1.9315  0.8420  1.6936
14625TIP3    H243809   2.980   4.222   0.704  0.7052 -0.1340 -1.0309
14626TIP3   OH243810   2.112   7.818   6.951 -0.6755  1.0226  0.2816
14626TIP3    H143811   2.134   7.890   6.890 -0.2433  0.2112 -0.5336
14626TIP3    H243812   2.018   7.804   6.938 -1.1562  2.6667  1.7900
14627TIP3   OH243813   5.090   5.993   5.945  0.5210  0.4178  0.3849
14627TIP3    H143814   5.048   5.912   5.975 -3.5367  2.1556 -0.3522
14627TIP3    H243815   5.127   6.031   6.024  1.4203 -1.5321  0.9359
14628TIP3   OH243816   0.741   3.711   1.992  0.2229  0.2919  0.1306
14628TIP3    H143817   0.653   3.699   1.957  0.5181 -0.6183 -0.3167
14628TIP3    H243818   0.778   3.783   1.941 -0.7600  1.6421  1.2865
14629TIP3   OH243819   0.835   2.730   0.248 -0.2516  0.1966 -0.1289
14629TIP3    H143820   0.863   2.662   0.185 -0.8176 -0.6778  0.5527
14629TIP3    H243821   0.903   2.729   0.315 -0.0066  0.6510 -0.3673
14630TIP3   OH243822   3.343   5.254   5.425  0.5706 -0.1749  0.2014
14630TIP3    H143823   3.408   5.321   5.446  1.7012 -1.2806  0.2892
14630TIP3    H243824   3.263   5.303   5.407  0.3523  1.0190  4.0058
14631TIP3   OH243825   0.039   0.600   5.527 -0.3089 -0.5184  0.2029
14631TIP3    H143826   0.079   0.523   5.568 -1.3645  0.4141  3.1573
14631TIP3    H243827   0.109   0.665   5.525 -0.2758 -0.5364  0.6722
14632TIP3   OH243828   6.263   7.494   6.156 -0.4598  0.9091  0.3579
14632TIP3    H143829   6.231   7.465   6.071 -0.9911  0.4363  0.7166
14632TIP3    H243830   6.281   7.587   6.144  0.7964  0.5476 -0.6519
14633TIP3   OH243831   5.014   6.990   5.575 -0.1496  0.4066  0.1047
14633TIP3    H143832   5.022   7.040   5.493  2.5255 -0.7348 -0.3795
14633TIP3    H243833   5.017   7.056   5.643 -0.4538  1.2336 -0.6725
14634TIP3   OH243834   0.299   0.375   3.276 -0.6294 -0.1891 -0.2980
14634TIP3    H143835   0.303   0.470   3.268 -1.6469 -0.2639 -1.8726
14634TIP3    H243836   0.355   0.355   3.351  2.4112  1.3510 -2.0675
14635TIP3   OH243837   3.963   7.182   6.043  0.6505 -0.2263  0.4427
14635TIP3    H143838   4.011   7.102   6.067  0.2429 -0.7013 -0.2890
14635TIP3    H243839   4.031   7.248   6.030  0.9297 -0.1704  2.0756
14636TIP3   OH243840   0.748   3.613   0.628 -0.2219 -0.0178  0.8076
14636TIP3    H143841   0.692   3.686   0.655 -0.5161  0.7781 -1.7179
14636TIP3    H243842   0.686   3.545   0.602 -0.0839  0.7728 -1.7515
14637TIP3   OH243843   2.684   7.482   5.480  0.1900 -0.0707 -0.1292
14637TIP3    H143844   2.721   7.487   5.569 -1.6968  2.8792  0.5558
14637TIP3    H243845   2.648   7.393   5.474 -0.6540  0.0525  2.5017
14638TIP3   OH243846   2.346   2.437   1.159 -0.4285  0.0280 -0.3869
14638TIP3    H143847   2.296   2.394   1.228 -0.1064 -1.4943 -1.0829
14638TIP3    H243848   2.280   2.485   1.108 -0.8768 -0.1676  0.0060
14639TIP3   OH243849   5.064   3.242   2.342  0.5532  0.3102  0.1113
14639TIP3    H143850   5.061   3.169   2.405  1.2361  0.7098  0.6149
14639TIP3    H243851   5.140   3.223   2.287  1.9687  1.6998  1.5569
14640TIP3   OH243852   3.916   3.120   2.288 -0.1094 -0.0311 -0.1723
14640TIP3    H143853   3.941   3.198   2.337  2.6823  0.1258 -1.7539
14640TIP3    H243854   3.855   3.152   2.222 -0.6728  0.4303  0.5632
14641TIP3   OH243855   3.309   7.201   6.898  0.0372 -0.1922 -0.3719
14641TIP3    H143856   3.290   7.274   6.957  4.0943 -0.0298  0.9133
14641TIP3    H243857   3.253   7.130   6.928 -0.2122  0.8336  1.6675
14642TIP3   OH243858   0.959   2.724   0.496 -0.0515 -0.6627 -0.0277
14642TIP3    H143859   1.018   2.652   0.472  1.4774  0.0012  1.5737
14642TIP3    H243860   0.966   2.729   0.592 -1.7121  0.3117  0.0619
14643TIP3   OH243861   0.798   3.445   2.029 -0.2908  0.0323  0.0895
14643TIP3    H143862   0.708   3.418   2.049  0.1641 -0.3980  1.5894
14643TIP3    H243863   0.791   3.539   2.014 -0.9551  0.0498  0.4662
14644TIP3   OH243864   2.112   5.287   2.193  0.2725  0.0424  0.2781
14644TIP3    H143865   2.127   5.214   2.134  2.3974  1.0797 -0.4960
14644TIP3    H243866   2.195   5.300   2.238 -0.9570  0.0590  2.6253
14645TIP3   OH243867   5.199   3.928   1.134 -0.1817  0.0660  0.0761
14645TIP3    H143868   5.136   3.938   1.206 -1.9906 -1.2346 -1.2695
14645TIP3    H243869   5.215   3.834   1.129  2.1092  0.4152  0.5597
14646TIP3   OH243870   5.292   7.350   6.231  0.0282 -0.1170 -0.2704
14646TIP3    H143871   5.319   7.391   6.314  0.1691 -1.2194  0.2405
14646TIP3    H243872   5.200   7.328   6.244 -0.1236  0.2765 -0.6499
14647TIP3   OH243873   0.558   5.030   0.092  0.0710 -0.1473  0.3274
14647TIP3    H143874   0.474   5.075   0.081 -0.2778 -0.6252  0.9512
14647TIP3    H243875   0.615   5.095   0.132  0.6283  0.8290 -2.0164
14648TIP3   OH243876   3.202   5.751   6.100 -0.1898 -0.6038 -0.2728
14648TIP3    H143877   3.266   5.704   6.154  0.5681  0.8380  0.1227
14648TIP3    H243878   3.190   5.834   6.145 -0.0939  0.3338 -1.9473
14649TIP3   OH243879   8.234   0.999   1.406  0.9905 -0.0727 -0.2358
14649TIP3    H143880   8.168   1.024   1.341 -2.0466 -1.2455  2.2965
14649TIP3    H243881   8.208   0.911   1.435  3.1034 -0.1583  1.5573
14650TIP3   OH243882   2.050   2.779   1.094 -0.1259 -0.2906 -0.2023
14650TIP3    H143883   2.014   2.799   1.180  0.9621  0.0878  0.1645
14650TIP3    H243884   1.978   2.798   1.034 -1.2030 -1.4929  0.6871
14651TIP3   OH243885   6.299   5.755   5.726 -0.0351 -0.1592  0.1738
14651TIP3    H143886   6.309   5.686   5.660  1.2152 -0.1100  0.2939
14651TIP3    H243887   6.219   5.732   5.772 -1.7030  0.5634 -2.2467
14652TIP3   OH243888   2.596   2.866   1.959  0.0544  0.4967 -0.3132
14652TIP3    H143889   2.589   2.902   2.047 -0.1586 -0.8628  0.2485
14652TIP3    H243890   2.561   2.777   1.967  1.8241 -0.3232 -1.3489
14653TIP3   OH243891   1.532   3.667   0.503  0.0660 -0.1537  0.0370
14653TIP3    H143892   1.615   3.710   0.483 -0.1566 -0.8637 -2.5946
14653TIP3    H243893   1.557   3.581   0.536  0.3751 -0.2541 -0.4638
14654TIP3   OH243894   0.752   1.034   5.604 -0.0799  0.3094  0.0809
14654TIP3    H143895   0.689   0.978   5.649  0.1303  0.2762  0.3337
14654TIP3    H243896   0.700   1.106   5.570  0.3881  2.9127  4.4661
14655TIP3   OH243897   0.934   2.144   0.289 -0.3775 -0.2596  0.1865
14655TIP3    H143898   0.971   2.057   0.278  1.4105  0.3390  1.0963
14655TIP3    H243899   0.964   2.193   0.212  0.1741  0.0403  0.5846
14656TIP3   OH243900   5.444   6.822   4.098 -0.1521  0.5175  0.3537
14656TIP3    H143901   5.354   6.840   4.128 -0.0422  0.6191  0.6267
14656TIP3    H243902   5.493   6.900   4.125  0.2546 -0.0384  1.2320
14657TIP3   OH243903   3.102   2.166   0.110  0.3996  0.3154  0.5875
14657TIP3    H143904   3.148   2.084   0.092  0.5822  0.5367  0.0256
14657TIP3    H243905   3.030   2.167   0.047 -0.0787  0.2109  1.1273
14658TIP3   OH243906   4.997   2.405   0.245 -0.0480  0.0652 -0.1147
14658TIP3    H143907   5.066   2.345   0.217  0.1265  0.9041 -1.5525
14658TIP3    H243908   5.042   2.472   0.296  0.3022  0.9220 -1.5284
14659TIP3   OH243909   0.947   2.821   2.168 -0.4041 -0.1847  0.0636
14659TIP3    H143910   1.004   2.770   2.225 -2.0254 -0.1896  1.7245
14659TIP3    H243911   0.968   2.790   2.079 -0.2981 -2.6875  0.9098
14660TIP3   OH243912   2.149   3.651   1.371  0.0717 -0.0575 -0.1852
14660TIP3    H143913   2.186   3.733   1.338  0.0635  0.0756  0.1372
14660TIP3    H243914   2.123   3.670   1.461 -1.8318  0.1946 -0.7578
14661TIP3   OH243915   3.259   1.089   1.402 -0.9051  0.2404  0.0092
14661TIP3    H143916   3.280   0.995   1.398  0.8260  0.5561  1.0976
14661TIP3    H243917   3.246   1.106   1.495 -2.3778  0.8497 -0.3003
14662TIP3   OH243918   0.305   1.319   0.348  0.3102  0.3952 -0.0834
14662TIP3    H143919   0.379   1.375   0.325  1.1158 -0.1314  1.1708
14662TIP3    H243920   0.280   1.277   0.266  2.1802 -0.3487 -0.2971
14663TIP3   OH243921   4.861   6.770   6.015 -0.0465 -0.8245 -0.4015
14663TIP3    H143922   4.848   6.675   6.009  0.6889 -0.8587 -1.5606
14663TIP3    H243923   4.943   6.780   6.063 -0.9800 -0.7318  1.2073
14664TIP3   OH243924   0.011   0.857   6.512  0.4902 -0.1327  0.3520
14664TIP3    H143925   0.053   0.774   6.488  1.9245  1.3958 -2.6883
14664TIP3    H243926   0.081   0.908   6.552  0.7510  1.2344 -1.8114
14665TIP3   OH243927   6.818   1.129   4.808  0.7528  0.6719  0.0073
14665TIP3    H143928   6.759   1.117   4.883  1.0561  2.6983  0.5996
14665TIP3    H243929   6.902   1.095   4.838  0.1719 -1.2075 -0.4529
14666TIP3   OH243930   1.335   0.862   2.030 -0.5435  0.3327 -0.8528
14666TIP3    H143931   1.264   0.798   2.038 -0.3649 -0.2969 -3.6811
14666TIP3    H243932   1.396   0.839   2.100 -1.5484 -1.2316 -0.4672
14667TIP3   OH243933   6.756   1.300   6.216  0.1568 -0.6142  0.1672
14667TIP3    H143934   6.767   1.348   6.298  0.9553  0.7237 -0.6967
14667TIP3    H243935   6.812   1.222   6.227  0.5921 -0.2295  0.7181
14668TIP3   OH243936   2.778   1.939   1.857 -0.0785 -0.0124  0.3948
14668TIP3    H143937   2.772   1.864   1.797  1.1380 -0.6895  1.1001
14668TIP3    H243938   2.691   1.979   1.854 -0.4863 -0.9527 -0.6421
14669TIP3   OH243939   1.107   5.776   0.301 -0.1823  0.3651  0.0080
14669TIP3    H143940   1.131   5.685   0.282  0.4491  0.5096  0.0822
14669TIP3    H243941   1.167   5.802   0.371 -0.2453  0.8888 -0.1311
14670TIP3   OH243942   0.293   4.971   0.554 -0.5090  0.3235  0.1848
14670TIP3    H143943   0.274   4.891   0.504  0.1537  0.6087 -0.5369
14670TIP3    H243944   0.207   5.010   0.569 -0.6924  0.4689 -1.1439
14671TIP3   OH243945   0.086   5.334   2.151 -0.1001 -0.1576  0.0357
14671TIP3    H143946   0.026   5.276   2.105 -0.7848  0.2493  0.4065
14671TIP3    H243947   0.043   5.350   2.236  2.1675 -2.6972  1.7406
14672TIP3   OH243948   2.129   2.706   0.314 -0.5058  0.0555  0.0618
14672TIP3    H143949   2.221   2.683   0.308  0.1874  2.5042  0.6890
14672TIP3    H243950   2.090   2.670   0.234  1.3248  0.4590 -1.0391
14673TIP3   OH243951   0.245   4.005   2.637  0.1404  0.0163 -0.1404
14673TIP3    H143952   0.157   4.042   2.628  0.1806  0.5413  1.4933
14673TIP3    H243953   0.244   3.962   2.722  2.4880  2.9924  1.4865
14674TIP3   OH243954   3.819   6.232   5.560 -0.0668 -0.3226  0.3341
14674TIP3    H143955   3.898   6.286   5.562 -0.3959  0.1285  1.8508
14674TIP3    H243956   3.852   6.143   5.545  0.6503 -0.0057  0.0168
14675TIP3   OH243957   7.806   1.050   6.415  0.3280  0.4465  0.1221
14675TIP3    H143958   7.742   0.980   6.428  0.2736  0.5134  0.2221
14675TIP3    H243959   7.885   1.020   6.460  0.2410  0.5363  0.3394
14676TIP3   OH243960   0.988   2.583   0.068 -0.1286  0.4856 -0.5021
14676TIP3    H143961   0.924   2.545   0.008 -0.7890  1.6949 -0.5755
14676TIP3    H243962   1.021   2.660   0.022  0.3554  0.6536  0.1258
14677TIP3   OH243963   3.842   6.046   6.390  0.2344 -0.5422  0.1674
14677TIP3    H143964   3.856   6.141   6.385  0.1375 -0.5320  0.0707
14677TIP3    H243965   3.750   6.035   6.365  0.2091 -0.6500  0.3099
14678TIP3   OH243966   1.736   0.733   0.907  0.6012 -0.2960 -0.0772
14678TIP3    H143967   1.788   0.653   0.923 -3.0541 -2.7282  0.1707
14678TIP3    H243968   1.767   0.765   0.823 -0.0614 -3.8412 -1.7423
14679TIP3   OH243969   2.177   2.568   1.013  0.5246  0.0456 -0.3872
14679TIP3    H143970   2.109   2.526   0.961  1.0530  0.4393 -1.4088
14679TIP3    H243971   2.133   2.642   1.054  0.4174  0.5063 -1.3207
14680TIP3   OH243972   6.097   7.045   6.857  0.1255 -0.0610  0.1635
14680TIP3    H143973   6.091   7.023   6.950 -2.5191 -2.0162 -0.4079
14680TIP3    H243974   6.148   6.973   6.819 -0.2169 -0.1389 -0.1535
14681TIP3   OH243975   2.510   6.752   5.159  0.3226  0.1133 -0.2708
14681TIP3    H143976   2.423   6.783   5.182 -0.1227  0.0646 -1.8725
14681TIP3    H243977   2.568   6.794   5.222 -0.7440  0.9181  0.1785
14682TIP3   OH243978   7.872   0.626   6.387  0.2059 -0.1683  0.0808
14682TIP3    H143979   7.910   0.713   6.396  0.1642 -0.2487  1.0353
14682TIP3    H243980   7.791   0.629   6.437 -0.7367 -0.2017 -1.4033
14683TIP3   OH243981   2.310   2.892   1.133  0.4731  0.3411 -0.3366
14683TIP3    H143982   2.220   2.858   1.132  1.1485 -1.5481 -1.7364
14683TIP3    H243983   2.359   2.827   1.183  1.3546  0.5072 -0.9798
14684TIP3   OH243984   5.166   7.320   5.925 -0.4626 -0.3557  0.2283
14684TIP3    H143985   5.081   7.312   5.968  0.3003  1.0712  2.0654
14684TIP3    H243986   5.169   7.410   5.894  0.7043 -0.1505  0.9103
14685TIP3   OH243987   1.032   3.008   0.188 -0.1313  0.0208 -0.0226
14685TIP3    H143988   1.027   2.931   0.132 -0.3352  0.0007  0.0248
14685TIP3    H243989   0.961   2.997   0.251  1.5496 -1.1529  1.7257
14686TIP3   OH243990   3.047   2.995   1.749 -0.4560 -0.2855 -0.4388
14686TIP3    H143991   3.056   3.071   1.692  0.1036 -0.9116 -1.1789
14686TIP3    H243992   3.053   2.920   1.691  2.3045 -0.9904  0.6957
14687TIP3   OH243993   4.522   6.996   6.843 -0.2683 -0.2739  0.1857
14687TIP3    H143994   4.536   7.087   6.816  0.1226  0.3627  2.4119
14687TIP3    H243995   4.429   6.992   6.864 -0.6370 -0.8482 -1.5131
14688TIP3   OH243996   0.963   2.101   0.779  0.6006  0.0533  0.1529
14688TIP3    H143997   1.020   2.158   0.727  1.5531 -0.8514  0.1955
14688TIP3    H243998   1.020   2.064   0.846  0.2482 -1.8526 -0.5818
14689TIP3   OH243999   1.302   3.228  -0.017  0.3396 -0.2795 -0.6413
14689TIP3    H144000   1.331   3.223   0.073 -1.4329 -2.9820 -0.1594
14689TIP3    H244001   1.326   3.144  -0.056  1.6268  1.0578 -2.8997
14690TIP3   OH244002   4.673   3.975   1.707  0.4715  0.1356  1.0770
14690TIP3    H144003   4.579   3.979   1.686  0.6448  0.9549  0.4583
14690TIP3    H244004   4.690   3.882   1.720 -0.3464 -0.0573  0.8248
14691TIP3   OH244005   4.767   3.269   0.764  0.3794  0.2476  0.5942
14691TIP3    H144006   4.723   3.190   0.733  2.2427 -0.5312 -0.1598
14691TIP3    H244007   4.774   3.258   0.858  3.8139 -2.2487  0.1580
14692TIP3   OH244008   3.276   2.018   1.549  0.1486 -0.5521 -0.5275
14692TIP3    H144009   3.225   2.098   1.538 -0.2311 -0.8526 -0.9934
14692TIP3    H244010   3.338   2.038   1.619 -1.9037 -0.8289  1.4306
14693TIP3   OH244011   3.428   6.822   6.803  0.3960  0.0293  0.3583
14693TIP3    H144012   3.394   6.873   6.729  1.4356  0.1855 -0.0335
14693TIP3    H244013   3.479   6.885   6.854 -1.7488  0.3298  2.2016
14694TIP3   OH244014   4.912   1.797   0.368  0.8655 -0.1194 -0.1844
14694TIP3    H144015   4.930   1.805   0.274  2.8053  1.6112  0.2814
14694TIP3    H244016   4.987   1.747   0.402  0.6648  0.1043  0.5850
14695TIP3   OH244017   4.847   0.725   0.035 -0.3321 -0.2472  0.0383
14695TIP3    H144018   4.911   0.790   0.065  1.0159 -1.3216 -0.4725
14695TIP3    H244019   4.788   0.714   0.109  1.0385 -0.4575  1.1194
14696TIP3   OH244020   4.358   2.996   0.317  0.2397  0.4017 -0.2732
14696TIP3    H144021   4.275   3.037   0.291 -0.2987 -0.8633 -0.6053
14696TIP3    H244022   4.359   3.003   0.412 -0.7797 -0.5220 -0.1751
14697TIP3   OH244023   4.056   6.350   6.086  0.4204 -0.1590  0.3248
14697TIP3    H144024   4.100   6.348   6.171  0.4073  1.1642  0.3678
14697TIP3    H244025   3.972   6.307   6.100  0.4146  0.0723  0.9775
14698TIP3   OH244026   6.317   7.686   6.850 -0.2262 -0.4927  0.0850
14698TIP3    H144027   6.356   7.747   6.912  2.7090 -0.8189 -1.3632
14698TIP3    H244028   6.342   7.600   6.883  0.0429 -0.7162 -0.6930
14699TIP3   OH244029   2.526   3.170   0.121  0.0912  0.3239  0.1660
14699TIP3    H144030   2.440   3.137   0.094  1.7481 -2.6010 -1.8221
14699TIP3    H244031   2.576   3.091   0.143  2.8078  1.8346 -0.3971
14700TIP3   OH244032   4.464   1.431   0.536 -0.1391 -0.5758  0.1336
14700TIP3    H144033   4.430   1.517   0.559  3.1896  0.5013  1.3931
14700TIP3    H244034   4.418   1.408   0.455 -0.4119  2.8407 -0.7675
14701TIP3   OH244035   4.990   7.894   5.788  0.0590 -0.1725  0.0110
14701TIP3    H144036   5.083   7.916   5.794  0.2527 -0.6776 -1.0611
14701TIP3    H244037   4.947   7.977   5.770  0.2941  0.0810  0.6273
14702TIP3   OH244038   6.091   7.678   6.639  0.0736 -0.1753  0.3762
14702TIP3    H144039   6.020   7.694   6.702  0.0164  1.2973 -0.0369
14702TIP3    H244040   6.171   7.679   6.692 -0.0649 -0.0048  0.5823
14703TIP3   OH244041   6.774   6.619   6.135  0.3160 -0.4680 -0.2391
14703TIP3    H144042   6.819   6.630   6.218  1.0496 -1.2951 -0.5248
14703TIP3    H244043   6.697   6.676   6.141  0.5203 -0.3160  0.8857
14704TIP3   OH244044   4.802   7.713   4.855  0.3490 -0.2317 -0.2246
14704TIP3    H144045   4.850   7.673   4.782 -0.5192  1.0577 -1.5284
14704TIP3    H244046   4.711   7.716   4.824  0.3729  2.5635 -0.0726
14705TIP3   OH244047   5.441   5.879   4.930  0.5474 -0.7016 -0.1831
14705TIP3    H144048   5.415   5.866   5.022  2.5150 -2.0546  0.2270
14705TIP3    H244049   5.457   5.790   4.898 -0.2228 -0.2345 -1.8782
14706TIP3   OH244050   7.753   0.211   5.429 -0.2635  0.0120 -0.2360
14706TIP3    H144051   7.741   0.305   5.416 -1.4149  0.1740  1.7749
14706TIP3    H244052   7.666   0.173   5.411 -0.5095 -0.3358  1.5567
14707TIP3   OH244053   1.504   1.354   6.349  0.0451 -0.3556 -0.1021
14707TIP3    H144054   1.595   1.351   6.380 -0.5747 -0.3555  1.8143
14707TIP3    H244055   1.507   1.316   6.262  1.6394 -1.8647  0.5701
14708TIP3   OH244056   2.018   0.664   4.751 -0.1744 -0.0312  0.0682
14708TIP3    H144057   2.008   0.743   4.698  1.7622  0.8197  0.9380
14708TIP3    H244058   2.041   0.696   4.839 -0.7834 -1.5101  0.7886
14709TIP3   OH244059   2.175   4.706   0.160  0.2868 -0.1413 -0.0668
14709TIP3    H144060   2.143   4.710   0.250  0.9297 -1.5228  0.2276
14709TIP3    H244061   2.178   4.613   0.139  1.7316  0.0845 -0.9485
14710TIP3   OH244062   4.718   1.715   0.567  0.2426  0.0990  0.5716
14710TIP3    H144063   4.629   1.699   0.535  0.4007 -0.8481  0.5955
14710TIP3    H244064   4.758   1.771   0.499  0.2042 -0.9597 -0.3391
14711TIP3   OH244065   2.668   1.826   0.009 -0.0016 -0.4616  0.3426
14711TIP3    H144066   2.707   1.846   0.095  2.4068  1.1008 -1.0347
14711TIP3    H244067   2.644   1.734   0.014 -0.1679 -0.3263  2.7899
14712TIP3   OH244068   5.274   3.254   0.498 -0.4368  0.0307 -0.1473
14712TIP3    H144069   5.201   3.204   0.535 -0.1988  0.3760  0.7926
14712TIP3    H244070   5.352   3.208   0.528 -0.2660 -1.1694 -2.3180
14713TIP3   OH244071   4.596   7.500   6.442 -0.6433 -0.1499 -0.1590
14713TIP3    H144072   4.544   7.516   6.521  1.1299  1.3545  0.7612
14713TIP3    H244073   4.645   7.420   6.462 -1.3631 -0.6499 -0.3738
14714TIP3   OH244074   5.149   7.611   6.746  0.1119 -0.0417 -0.1567
14714TIP3    H144075   5.117   7.592   6.658 -0.3026  0.4696 -0.1185
14714TIP3    H244076   5.094   7.683   6.777  0.1776 -0.2959  0.5680
14715TIP3   OH244077   2.996   3.041  -0.012  0.4268 -0.0590  0.2789
14715TIP3    H144078   2.964   2.957   0.022  1.5354  0.2062  1.9795
14715TIP3    H244079   2.951   3.107   0.041  0.4452  0.4070 -0.2823
14716TIP3   OH244080   3.233   2.681   0.717 -0.5255 -0.5170  0.0748
14716TIP3    H144081   3.258   2.606   0.771  2.7693  1.7447  1.8684
14716TIP3    H244082   3.199   2.745   0.779  2.1931  1.6716 -0.6197
14717TIP3   OH244083   3.398   4.700   0.678 -0.1899  0.0524 -0.2590
14717TIP3    H144084   3.313   4.737   0.653 -0.5513 -1.0208 -0.6360
14717TIP3    H244085   3.414   4.735   0.766 -1.6260 -0.7244  0.3412
14718TIP3   OH244086   3.021   1.812   0.407 -0.5114 -0.0445  0.5038
14718TIP3    H144087   3.113   1.837   0.412 -0.2686 -0.6911 -0.6549
14718TIP3    H244088   2.973   1.895   0.407  0.0463  0.2843  1.4795
14719TIP3   OH244089   0.089   0.383   6.272 -0.2385 -0.6893  0.2462
14719TIP3    H144090   0.108   0.308   6.329  0.7646 -0.4054  0.2867
14719TIP3    H244091   0.066   0.344   6.188 -2.1472 -1.1336  0.9350
14720TIP3   OH244092   5.748   7.062   3.010  0.1519 -0.2864  0.1337
14720TIP3    H144093   5.780   7.124   2.945 -0.8815  1.2436  1.0640
14720TIP3    H244094   5.799   7.081   3.089 -0.4629 -0.3305  0.5479
14721TIP3   OH244095   6.443   6.879   6.455 -0.6203  0.6474 -0.1501
14721TIP3    H144096   6.480   6.848   6.373 -1.0510 -1.7402  0.5030
14721TIP3    H244097   6.348   6.872   6.442 -0.7008  0.9216  0.2953
14722TIP3   OH244098   0.638   5.686   6.057 -0.0347  0.3126 -0.3212
14722TIP3    H144099   0.688   5.631   6.117 -0.8071  0.4426  0.4495
14722TIP3    H244100   0.648   5.775   6.092  0.0795  0.4868 -0.7818
14723TIP3   OH244101   0.153   1.675   5.716 -0.8569  0.2928 -0.2769
14723TIP3    H144102   0.231   1.718   5.752 -0.0384 -0.1875 -1.4315
14723TIP3    H244103   0.079   1.720   5.758  0.0435  0.0490  1.6307
14724TIP3   OH244104   7.369   6.723   3.022 -0.1254 -0.0774  0.6481
14724TIP3    H144105   7.446   6.752   3.070  0.4091 -0.6642  0.1555
14724TIP3    H244106   7.353   6.634   3.055  0.8920 -0.9046 -1.0074
14725TIP3   OH244107   5.225   4.371   6.004  0.0789 -0.6226  0.8250
14725TIP3    H144108   5.154   4.419   5.962  1.2606 -0.8968 -1.5877
14725TIP3    H244109   5.302   4.391   5.951  1.5443 -1.4373  2.5704
14726TIP3   OH244110   4.816   3.529   2.541  0.3501  0.3356 -0.4041
14726TIP3    H144111   4.830   3.623   2.525  2.8942 -0.3797 -2.6107
14726TIP3    H244112   4.806   3.491   2.454 -0.7957 -1.4549  0.4908
14727TIP3   OH244113   4.918   6.180   1.772 -0.3426  0.3389  0.5005
14727TIP3    H144114   4.962   6.096   1.784  0.7242  0.8603  0.2797
14727TIP3    H244115   4.953   6.236   1.841  2.1752  1.8818 -1.8941
14728TIP3   OH244116   4.864   6.249   6.375  0.4853  0.1968 -0.0083
14728TIP3    H144117   4.857   6.324   6.435  1.7034  0.3057 -0.0033
14728TIP3    H244118   4.826   6.280   6.293 -0.4547  0.3063  0.4511
14729TIP3   OH244119   5.977   7.965   5.965 -0.2934 -0.0873 -0.3511
14729TIP3    H144120   5.900   7.932   5.918  0.5010 -0.6825 -1.2434
14729TIP3    H244121   6.019   7.887   6.000  0.7488  0.1055 -1.1629
14730TIP3   OH244122   7.060   6.359   3.231  0.1464 -0.0035 -0.2073
14730TIP3    H144123   7.068   6.452   3.251  1.9294  0.4026 -2.5112
14730TIP3    H244124   6.984   6.353   3.174 -1.5914 -0.3725  2.0988
14731TIP3   OH244125   3.869   3.249   0.472 -0.1236 -0.2686 -0.1600
14731TIP3    H144126   3.874   3.261   0.566  0.5048  0.8741 -0.3351
14731TIP3    H244127   3.879   3.337   0.435 -0.1094 -0.7328 -1.2937
14732TIP3   OH244128   2.480   2.175   0.595  0.2834 -0.0020  0.7005
14732TIP3    H144129   2.427   2.096   0.583 -0.4806  0.7367 -0.9833
14732TIP3    H244130   2.546   2.170   0.526  0.4609  0.6494  0.8221
14733TIP3   OH244131   3.543   2.751   1.791  0.0463  0.1169 -0.1781
14733TIP3    H144132   3.604   2.678   1.802 -0.6265 -0.3094  0.8676
14733TIP3    H244133   3.596   2.829   1.804  0.2482 -0.2664  1.3591
14734TIP3   OH244134   4.895   4.080   2.356 -0.3110  0.4709  0.3954
14734TIP3    H144135   4.885   4.058   2.264  1.8907  1.0653  0.0039
14734TIP3    H244136   4.878   4.174   2.360  3.4093  1.2386 -0.0716
14735TIP3   OH244137   7.303   5.917   6.113  0.4357  0.1911 -0.5170
14735TIP3    H144138   7.291   5.851   6.182  0.1656  0.5254 -0.2403
14735TIP3    H244139   7.219   5.962   6.108 -0.0609 -0.8740 -2.1773
14736TIP3   OH244140   5.738   7.192   5.863  0.5895  0.1650  0.3377
14736TIP3    H144141   5.738   7.097   5.875  1.5810  0.3328  1.7492
14736TIP3    H244142   5.798   7.206   5.789  0.5784 -0.2960  0.2368
14737TIP3   OH244143   1.106   1.084   5.340 -0.3432 -0.6314  0.0881
14737TIP3    H144144   1.070   1.160   5.292 -1.2717 -1.7018 -0.9539
14737TIP3    H244145   1.187   1.063   5.294  0.5507  0.4564  1.1230
14738TIP3   OH244146   6.213   0.670   6.936 -0.1186  0.0682  0.8007
14738TIP3    H144147   6.165   0.642   6.858 -1.8886 -0.0943  1.9140
14738TIP3    H244148   6.246   0.588   6.974  1.5821  0.2272 -0.2781
14739TIP3   OH244149   3.810   7.035   6.256  0.0683  0.1111  0.1450
14739TIP3    H144150   3.830   7.104   6.193 -2.6575 -0.1489 -1.1006
14739TIP3    H244151   3.825   6.954   6.209  1.3528 -0.1527  0.9750
14740TIP3   OH244152   7.664   3.397   1.617  0.1768  0.3655  0.8081
14740TIP3    H144153   7.607   3.393   1.540 -0.4585 -0.2202  1.2993
14740TIP3    H244154   7.751   3.417   1.582  0.6342 -3.5006 -0.4545
14741TIP3   OH244155   3.600   5.437   6.617 -0.4176 -0.8689 -0.4649
14741TIP3    H144156   3.676   5.443   6.559 -0.1893 -0.6210 -0.1441
14741TIP3    H244157   3.630   5.380   6.688 -0.4291 -0.5294 -0.1851
14742TIP3   OH244158   1.184   7.523   5.586  0.0474 -0.0721 -0.3835
14742TIP3    H144159   1.263   7.529   5.533 -0.0349 -2.5676 -0.8320
14742TIP3    H244160   1.121   7.581   5.543  1.2408  1.0351 -0.6707
14743TIP3   OH244161   3.560   0.304   5.944  0.6015 -0.0854 -0.7944
14743TIP3    H144162   3.578   0.355   6.022  1.5005 -1.5801 -0.0046
14743TIP3    H244163   3.466   0.315   5.929  0.7025  1.4078 -0.3863
14744TIP3   OH244164   7.891   4.322   0.149 -0.0303 -0.3503  0.7433
14744TIP3    H144165   7.978   4.297   0.180  0.5251  0.6489  0.0166
14744TIP3    H244166   7.878   4.411   0.182  1.0520  1.1991 -2.7464
14745TIP3   OH244167   1.639   6.638   6.511 -0.0102 -0.2369  0.4845
14745TIP3    H144168   1.717   6.674   6.471 -0.1814  1.0337  1.2408
14745TIP3    H244169   1.631   6.550   6.476  2.7763 -1.0557  1.7748
14746TIP3   OH244170   4.052   6.364   5.526  0.3240 -0.0296  0.0129
14746TIP3    H144171   4.103   6.441   5.551 -0.4184  1.3685 -2.6274
14746TIP3    H244172   4.118   6.294   5.518  1.0596  0.3904  1.9853
14747TIP3   OH244173   6.444   4.606   0.489  0.0813 -0.5246  0.5039
14747TIP3    H144174   6.419   4.662   0.416  1.3269 -0.9685 -0.2986
14747TIP3    H244175   6.394   4.525   0.476 -1.2277  0.1464  1.3000
14748TIP3   OH244176   5.303   1.710   6.873  0.9864 -0.0301  0.2288
14748TIP3    H144177   5.366   1.736   6.806  0.0796  2.3596  0.2471
14748TIP3    H244178   5.254   1.790   6.891 -0.1351 -1.1557  2.2809
14749TIP3   OH244179   1.848   7.715   6.930  0.2878  0.2856 -0.7063
14749TIP3    H144180   1.814   7.714   6.840  1.7850 -1.0386 -1.2834
14749TIP3    H244181   1.871   7.624   6.947  2.6152  0.9867  0.0196
14750TIP3   OH244182   3.804   7.506   6.272 -0.3703 -0.3043  0.5641
14750TIP3    H144183   3.735   7.481   6.211  1.6992 -2.0696 -1.1197
14750TIP3    H244184   3.790   7.599   6.288 -1.0278  0.1505 -2.4831
14751TIP3   OH244185   8.490   5.281   0.317 -0.5696 -0.4270 -0.5563
14751TIP3    H144186   8.428   5.298   0.245 -0.4701  0.5452 -0.4055
14751TIP3    H244187   8.569   5.250   0.273 -0.7704 -0.5706 -0.8203
14752TIP3   OH244188   6.845   3.560   0.757 -0.2817  0.4666  0.4770
14752TIP3    H144189   6.756   3.596   0.764 -0.6990 -0.3484 -0.5368
14752TIP3    H244190   6.868   3.569   0.665 -0.2667 -1.5114  0.2477
14753TIP3   OH244191   2.474   5.176   1.155 -0.4661  0.2023 -0.4554
14753TIP3    H144192   2.500   5.226   1.232 -0.3031  1.0107 -1.0247
14753TIP3    H244193   2.410   5.232   1.111 -1.9922 -1.0854  0.0947
14754TIP3   OH244194   8.321   2.585   0.981 -0.3641 -0.1470  0.3304
14754TIP3    H144195   8.268   2.592   1.060 -1.5967  1.6978 -0.6274
14754TIP3    H244196   8.332   2.676   0.951  0.7975 -0.7482 -1.1432
14755TIP3   OH244197   0.722   5.247   0.130  0.1095  0.2177 -0.3995
14755TIP3    H144198   0.730   5.318   0.193  0.3903 -0.6909  0.6144
14755TIP3    H244199   0.812   5.223   0.108  0.0079  1.0165 -1.7184
14756TIP3   OH244200   7.293   3.326   0.909  0.3152  0.2367 -0.7675
14756TIP3    H144201   7.252   3.340   0.824 -0.2827  0.1408 -0.4973
14756TIP3    H244202   7.242   3.255   0.949 -0.7032  1.6544  0.5035
14757TIP3   OH244203   0.982   4.106   1.041 -0.0876 -0.6894  0.7313
14757TIP3    H144204   0.900   4.070   1.075  0.5433 -2.7769  0.1332
14757TIP3    H244205   0.958   4.142   0.956 -0.5915 -0.3673  1.0044
14758TIP3   OH244206   6.123   0.554   6.698 -0.2089  0.4412  0.5812
14758TIP3    H144207   6.060   0.585   6.633 -1.2582  1.6935  2.1439
14758TIP3    H244208   6.107   0.460   6.705 -0.9337  0.5142 -0.0778
14759TIP3   OH244209   2.623   4.794   0.650 -0.2557 -0.8759 -0.1883
14759TIP3    H144210   2.606   4.706   0.615 -0.2556 -1.5000  1.3482
14759TIP3    H244211   2.715   4.811   0.629  0.0086 -1.6290  0.3588
14760TIP3   OH244212   5.309   7.958   6.485  0.0339  0.1358 -0.1843
14760TIP3    H144213   5.318   8.053   6.488  1.1165  0.0307  0.0981
14760TIP3    H244214   5.235   7.943   6.426  0.1118  1.1361 -0.5486
14761TIP3   OH244215   7.006   1.915   6.739 -0.1230  0.1261 -0.0936
14761TIP3    H144216   6.933   1.914   6.800 -0.5198  0.9643 -0.5518
14761TIP3    H244217   7.064   1.845   6.770  0.2055  1.2445  1.8712
14762TIP3   OH244218   1.097   5.572   1.366  0.1917 -0.7595 -0.7205
14762TIP3    H144219   1.054   5.614   1.439  0.4216 -1.0718 -0.4012
14762TIP3    H244220   1.032   5.510   1.332  0.3987 -1.2644 -0.2108
14763TIP3   OH244221   5.212   0.042   5.375 -0.1612 -0.0582  0.6046
14763TIP3    H144222   5.190   0.135   5.384 -1.1174 -0.1863 -0.3378
14763TIP3    H244223   5.137   0.004   5.329  1.0612 -0.9436 -0.6738
14764TIP3   OH244224   3.543   7.168   6.118 -0.5127 -0.3893 -0.4105
14764TIP3    H144225   3.531   7.141   6.209 -0.7803 -1.4767 -0.7607
14764TIP3    H244226   3.454   7.179   6.084 -0.4124  1.3210 -0.1751
14765TIP3   OH244227   3.640   7.976   5.693  0.9959  0.3208 -0.0299
14765TIP3    H144228   3.657   8.069   5.681  1.8367 -0.1341 -2.6618
14765TIP3    H244229   3.657   7.960   5.786 -0.4127  3.0194  0.7311
14766TIP3   OH244230   8.323   1.015   4.967 -0.2055 -0.0535  0.1282
14766TIP3    H144231   8.408   0.973   4.956  0.2741  0.5809  1.3789
14766TIP3    H244232   8.265   0.966   4.908  0.7307 -1.3153  0.2327
14767TIP3   OH244233   7.343   3.173   6.433  0.7061  0.7732  0.0997
14767TIP3    H144234   7.369   3.081   6.442  1.4408  0.9193 -0.5210
14767TIP3    H244235   7.362   3.212   6.518 -0.2789  0.1880  0.5963
14768TIP3   OH244236   2.022   1.613   6.061  0.6132 -0.5096 -0.3143
14768TIP3    H144237   2.089   1.643   6.122 -0.3760  2.4623 -0.6296
14768TIP3    H244238   1.958   1.568   6.116  1.5729 -1.1455  0.3075
14769TIP3   OH244239   4.407   7.791   6.207 -0.4890 -0.7010 -0.0381
14769TIP3    H144240   4.392   7.706   6.166  0.9659 -1.3609  0.7929
14769TIP3    H244241   4.438   7.847   6.136 -1.9996 -0.6945 -0.7060
14770TIP3   OH244242   7.489   4.943   1.156  0.0968 -0.1959 -0.0997
14770TIP3    H144243   7.424   4.977   1.094 -0.6490 -0.5331  0.4777
14770TIP3    H244244   7.531   5.021   1.193 -2.0487  0.1783  1.6945
14771TIP3   OH244245   6.133   1.219   4.930  0.1126  0.7092  0.0933
14771TIP3    H144246   6.108   1.175   4.849  0.0904  0.1010  0.4307
14771TIP3    H244247   6.050   1.241   4.971  0.1062 -1.3569  1.2387
14772TIP3   OH244248   6.779   0.907   6.043  0.1000  0.0859 -0.1567
14772TIP3    H144249   6.686   0.931   6.043  0.6640  2.3212 -1.3525
14772TIP3    H244250   6.782   0.824   5.996 -0.9700  1.4216 -2.6766
14773TIP3   OH244251   0.888   4.907   0.320 -0.6514 -0.3131 -0.0524
14773TIP3    H144252   0.889   4.945   0.408  1.0629  1.1374 -0.6791
14773TIP3    H244253   0.916   4.816   0.333  2.5773  0.6927  0.5976
14774TIP3   OH244254   7.223   1.122   4.610  0.1640  0.5117  0.3336
14774TIP3    H144255   7.159   1.130   4.680 -0.2495  1.0585 -0.1007
14774TIP3    H244256   7.173   1.090   4.535  1.1829 -3.1806  1.1323
14775TIP3   OH244257   0.009   3.360   6.435 -0.0286 -0.6564  0.2746
14775TIP3    H144258  -0.030   3.342   6.521 -0.7346 -0.6194 -0.0308
14775TIP3    H244259   0.098   3.326   6.442  0.2531  0.2667  1.3513
14776TIP3   OH244260   2.088   4.647   0.419  0.7064 -0.1000 -0.5147
14776TIP3    H144261   2.114   4.718   0.477 -0.7229  0.7400 -0.8643
14776TIP3    H244262   2.140   4.572   0.447 -0.7572 -0.0285  2.6342
14777TIP3   OH244263   3.420   6.172   6.253 -0.2898 -0.5171 -0.2200
14777TIP3    H144264   3.473   6.166   6.174 -1.5129  0.8514 -1.1655
14777TIP3    H244265   3.471   6.126   6.320  2.1768  0.9331 -1.0662
14778TIP3   OH244266   0.245   5.418   0.102 -0.0203  0.5241  0.6134
14778TIP3    H144267   0.340   5.426   0.093  0.0143 -2.0043 -2.1793
14778TIP3    H244268   0.210   5.464   0.026 -0.8924 -0.8466  0.1701
14779TIP3   OH244269   8.113   0.123   5.541  0.0432  0.3045 -0.3268
14779TIP3    H144270   8.195   0.100   5.496  0.8193  0.8533  0.7825
14779TIP3    H244271   8.056   0.155   5.471  0.1903 -1.6177 -1.3517
14780TIP3   OH244272   2.860   1.076   6.562 -0.0201 -0.6415  0.5853
14780TIP3    H144273   2.841   1.119   6.479 -0.7825 -0.8817  0.6296
14780TIP3    H244274   2.928   1.130   6.602 -0.8730  0.4494  0.5872
14781TIP3   OH244275   4.196   3.410   5.464 -0.3785  0.1266  0.6605
14781TIP3    H144276   4.101   3.399   5.452 -0.4327  0.6564  0.5886
14781TIP3    H244277   4.234   3.381   5.382 -0.5114  0.3916  0.5049
14782TIP3   OH244278   6.598   0.017   6.466 -0.1808 -0.1852 -0.0155
14782TIP3    H144279   6.506   0.037   6.480 -0.1889  0.1635 -0.5673
14782TIP3    H244280   6.645   0.075   6.525 -0.2862  0.1131 -0.2247
14783TIP3   OH244281   2.358   5.251   2.604 -0.3875 -0.9238 -0.3492
14783TIP3    H144282   2.359   5.234   2.698 -1.7423 -2.0146 -0.5206
14783TIP3    H244283   2.300   5.327   2.594 -1.3132 -1.6424 -0.4350
14784TIP3   OH244284   2.754   2.318   0.095  0.2090 -0.2413 -0.4602
14784TIP3    H144285   2.820   2.322   0.165 -1.8117  2.4134  1.3759
14784TIP3    H244286   2.731   2.225   0.089  1.3681 -0.6862  1.4940
14785TIP3   OH244287   7.679   2.766   6.284 -0.8152  0.1339  0.3852
14785TIP3    H144288   7.648   2.743   6.196 -2.0340 -0.1186  0.8762
14785TIP3    H244289   7.644   2.854   6.299 -1.1035 -0.0567  0.8437
14786TIP3   OH244290   7.258   0.420   4.348 -0.1591  0.9686  0.5300
14786TIP3    H144291   7.164   0.401   4.347  0.2567 -1.2537  0.7981
14786TIP3    H244292   7.279   0.445   4.259 -0.5663 -1.0579 -0.1749
14787TIP3   OH244293   6.408   2.323   6.033  0.1944 -0.6940 -0.0702
14787TIP3    H144294   6.414   2.228   6.022 -0.8926 -0.6122 -1.5328
14787TIP3    H244295   6.361   2.353   5.956  0.4853  1.0438  0.4036
14788TIP3   OH244296   0.595   4.764   0.303  0.5117 -0.0601 -0.3648
14788TIP3    H144297   0.657   4.693   0.288 -0.9381 -0.9920 -2.2554
14788TIP3    H244298   0.609   4.824   0.229  0.5737  0.7848  0.3172
14789TIP3   OH244299   8.334   5.008   0.420  0.0720  0.5356  0.6640
14789TIP3    H144300   8.333   4.914   0.405  1.0074  0.5786  0.2555
14789TIP3    H244301   8.412   5.023   0.474  1.3831  1.3345 -1.3553
14790TIP3   OH244302   6.734   0.426   4.585 -0.1814  0.3990  0.3702
14790TIP3    H144303   6.769   0.475   4.510 -1.4116  2.2963  1.0251
14790TIP3    H244304   6.812   0.398   4.633  0.6057 -0.4789 -1.3886
14791TIP3   OH244305   3.204   6.956   4.697  0.3453 -0.2745 -0.4388
14791TIP3    H144306   3.267   7.015   4.655 -0.9775  0.8552 -0.8973
14791TIP3    H244307   3.256   6.903   4.756  1.6570  0.9902 -0.4238
14792TIP3   OH244308   5.918   0.593   6.074 -0.0039  0.1651  0.6873
14792TIP3    H144309   5.908   0.648   6.151  2.2290  1.3282  0.1980
14792TIP3    H244310   6.006   0.555   6.083 -0.3901 -1.0326 -0.4296
14793TIP3   OH244311   8.039   0.879   6.826 -0.0537  0.0263  0.4579
14793TIP3    H144312   8.118   0.830   6.803  0.5425  2.4844 -3.1368
14793TIP3    H244313   8.066   0.971   6.822 -3.5906  1.0627 -3.3951
14794TIP3   OH244314   0.426   3.739   1.338  0.4879 -0.4409  0.5458
14794TIP3    H144315   0.455   3.828   1.359  1.2060 -0.9496  1.7681
14794TIP3    H244316   0.507   3.690   1.324  0.1358 -1.1970  1.1310
14795TIP3   OH244317   5.884   0.953   4.873  0.0241 -0.2702 -0.2958
14795TIP3    H144318   5.810   1.003   4.839  0.5872 -0.0491 -1.2032
14795TIP3    H244319   5.870   0.951   4.968 -1.4396 -0.6931 -0.5064
14796TIP3   OH244320   1.225   5.022   1.123  0.4988 -0.4036 -0.3897
14796TIP3    H144321   1.266   5.076   1.192  1.4163 -0.3698 -0.9473
14796TIP3    H244322   1.232   5.076   1.044  1.7341 -1.4643 -1.0222
14797TIP3   OH244323   0.255   6.687   0.839  0.4073 -0.0300  0.2374
14797TIP3    H144324   0.243   6.673   0.933  1.9371 -0.4406  0.3802
14797TIP3    H244325   0.305   6.768   0.834  0.4997 -0.1169 -0.2148
14798TIP3   OH244326   0.911   2.985   0.461  0.3019 -0.6404 -0.1570
14798TIP3    H144327   0.985   3.010   0.517 -1.8959  0.8446  2.1943
14798TIP3    H244328   0.912   2.889   0.462  0.1493 -0.6685  2.7304
14799TIP3   OH244329   8.366   4.240   0.884  0.1077  0.5325  0.3091
14799TIP3    H144330   8.444   4.270   0.929 -0.1142  2.3780 -0.5031
14799TIP3    H244331   8.394   4.227   0.793 -0.0521 -0.7552  0.4249
14800TIP3   OH244332   0.055   1.430   6.456 -0.3705  0.0324  0.1637
14800TIP3    H144333   0.098   1.513   6.436 -2.6418  1.7434  2.0923
14800TIP3    H244334  -0.023   1.454   6.505 -1.6517 -3.1988 -0.1190
14801TIP3   OH244335   0.333   0.482   6.428  0.0058 -0.0650 -0.4348
14801TIP3    H144336   0.358   0.449   6.514  3.0793  0.8612 -0.8990
14801TIP3    H244337   0.362   0.414   6.367 -0.9203 -0.0971 -0.8464
14802TIP3   OH244338   7.143   2.430   5.996 -0.2181 -0.5461 -0.4898
14802TIP3    H144339   7.233   2.438   6.027  0.1040 -1.7315 -1.0956
14802TIP3    H244340   7.090   2.468   6.067  0.5940 -2.1451  1.0007
14803TIP3   OH244341   3.727   7.901   5.949  0.5254 -0.2526  0.1709
14803TIP3    H144342   3.803   7.900   5.890  0.1739  1.1626 -0.3233
14803TIP3    H244343   3.757   7.950   6.026 -0.2661  1.4347 -0.5728
14804TIP3   OH244344   7.735   3.418   5.301  0.1804  0.6332 -0.0784
14804TIP3    H144345   7.670   3.449   5.238 -0.3260 -3.0013 -1.4367
14804TIP3    H244346   7.816   3.411   5.251 -0.0723 -1.6381 -0.2338
14805TIP3   OH244347   7.025   3.564   4.331 -0.1049  0.1501 -0.0218
14805TIP3    H144348   6.949   3.554   4.389 -0.6496  1.9399 -0.3941
14805TIP3    H244349   7.018   3.492   4.269 -1.3768  0.1751  0.0852
14806TIP3   OH244350   7.741   0.746   6.842  0.1823  0.4085 -0.5628
14806TIP3    H144351   7.746   0.716   6.932 -0.7364  1.0525 -0.2953
14806TIP3    H244352   7.832   0.766   6.818  0.8166 -2.3165 -0.6763
14807TIP3   OH244353   8.265   3.612   3.878 -0.0409  0.4924 -0.0559
14807TIP3    H144354   8.330   3.548   3.848 -0.8560 -0.7630  0.8031
14807TIP3    H244355   8.252   3.670   3.803  1.2891  0.1301 -0.5863
14808TIP3   OH244356   6.974   2.055   5.435  0.0769 -0.3493 -0.2259
14808TIP3    H144357   6.995   2.134   5.487  0.9451 -0.5751 -0.2254
14808TIP3    H244358   7.042   1.992   5.459  1.0363 -0.1496 -2.3275
14809TIP3   OH244359   3.286   5.660   0.277 -0.6049 -0.1437 -0.3821
14809TIP3    H144360   3.358   5.708   0.237 -0.0448  0.3353  1.1454
14809TIP3    H244361   3.211   5.720   0.272 -0.2143  0.4186  0.4299
14810TIP3   OH244362   4.267   8.008   6.343  0.3168 -0.0614 -0.1077
14810TIP3    H144363   4.325   7.936   6.317 -0.9675 -1.0190 -0.4204
14810TIP3    H244364   4.185   7.964   6.365 -0.1954  1.2475  0.5727
14811TIP3   OH244365   8.370   5.512  -0.021 -0.7829  0.2323  0.0522
14811TIP3    H144366   8.307   5.581  -0.040 -1.2588 -0.1420  0.2531
14811TIP3    H244367   8.376   5.509   0.075 -1.3075 -0.4848  0.0674
14812TIP3   OH244368   0.603   1.291   4.839  0.4808  0.0660  0.1748
14812TIP3    H144369   0.630   1.379   4.864 -0.6917  0.2863  0.7206
14812TIP3    H244370   0.575   1.250   4.921 -2.3172  0.3978 -0.5589
14813TIP3   OH244371   8.425   0.957   0.500  0.5157  0.0147 -0.4449
14813TIP3    H144372   8.426   0.975   0.594 -1.2595 -0.3802 -0.3373
14813TIP3    H244373   8.471   1.031   0.460 -0.5437  1.2131  0.5652
14814TIP3   OH244374   1.712   5.081   1.392 -0.6650  0.2600  0.4971
14814TIP3    H144375   1.771   5.023   1.440 -1.8126 -0.6480  0.8401
14814TIP3    H244376   1.659   5.123   1.460 -1.4494 -0.0902  0.1107
14815TIP3   OH244377   7.829   1.005   5.731 -0.0960  0.8255  0.4250
14815TIP3    H144378   7.775   0.941   5.777  0.6139  0.6206  0.9766
14815TIP3    H244379   7.780   1.025   5.651 -1.1297  0.8542  1.0532
14816TIP3   OH244380   2.526   7.245   5.159  0.0294  0.4189 -0.5308
14816TIP3    H144381   2.560   7.327   5.193  0.3253 -0.0495  0.3275
14816TIP3    H244382   2.468   7.212   5.228 -0.0767 -0.1017 -0.8584
14817TIP3   OH244383   1.774   7.797   6.021 -0.3739 -0.4857 -0.0594
14817TIP3    H144384   1.848   7.834   6.069 -0.0706 -1.6533  0.3921
14817TIP3    H244385   1.805   7.791   5.931 -0.1026 -0.5061  0.0342
14818TIP3   OH244386   0.534   0.485   6.909 -0.5051 -0.4562  0.8461
14818TIP3    H144387   0.513   0.577   6.892  0.4670 -0.4594 -0.4078
14818TIP3    H244388   0.622   0.487   6.947 -0.1083 -0.9341 -0.0448
14819TIP3   OH244389   0.213   0.585   5.165  0.2238  0.0438  0.0798
14819TIP3    H144390   0.177   0.591   5.077  0.5118 -1.1271 -0.1251
14819TIP3    H244391   0.278   0.656   5.169  1.0595 -0.6446 -1.0622
14820TIP3   OH244392   4.526   6.741   5.750  0.6593 -0.0704 -0.0255
14820TIP3    H144393   4.544   6.749   5.844 -0.5509 -0.4902  0.2433
14820TIP3    H244394   4.530   6.647   5.732  1.4104  0.0472 -0.5073
14821TIP3   OH244395   0.251   1.275   6.561  0.2100  0.0051  0.0520
14821TIP3    H144396   0.314   1.250   6.493  2.2119  0.4306  1.6874
14821TIP3    H244397   0.172   1.298   6.513  1.5956  0.3658 -2.1418
14822TIP3   OH244398   3.756   7.543   5.344 -0.5129 -0.2607 -0.0757
14822TIP3    H144399   3.840   7.573   5.310  0.4633 -2.3072  0.4809
14822TIP3    H244400   3.705   7.623   5.355  1.1189  0.9398 -1.0491
14823TIP3   OH244401   2.435   4.796   0.170 -0.0966 -0.4647 -0.4136
14823TIP3    H144402   2.493   4.769   0.099 -0.1454  1.8015 -1.3692
14823TIP3    H244403   2.347   4.783   0.136 -0.1296  1.9004 -1.3448
14824TIP3   OH244404   7.639   0.864   5.838 -0.2692 -0.4683 -0.5903
14824TIP3    H144405   7.564   0.880   5.895 -0.1431  1.1353 -0.8652
14824TIP3    H244406   7.686   0.792   5.879 -0.9511 -0.2545  0.5714
14825TIP3   OH244407   6.307   0.373   3.225  0.1365  0.2307 -0.2112
14825TIP3    H144408   6.233   0.312   3.231  1.0859 -0.9158  0.1423
14825TIP3    H244409   6.295   0.417   3.140 -0.0275 -1.1638 -0.9268
14826TIP3   OH244410   5.046   6.297   6.847  0.1400 -0.7652 -0.7339
14826TIP3    H144411   5.072   6.206   6.853  1.1060 -0.4870 -0.6397
14826TIP3    H244412   5.121   6.346   6.880 -1.0171 -0.0098  0.8924
14827TIP3   OH244413   3.358   3.623   0.801  0.1046  0.3461  0.6049
14827TIP3    H144414   3.445   3.662   0.795 -0.0009  0.4281 -0.5391
14827TIP3    H244415   3.299   3.692   0.769 -0.3918  0.3586  1.5506
   8.50000   8.01388   6.94022   0.00000   0.00000  -2.83333   0.00000  -2.83333  -4.00694
