Title
68208
    1GLY      N    1   2.204   4.495   5.653
    1GLY    HT1    2   2.141   4.501   5.736
    1GLY    HT2    3   2.258   4.406   5.665
    1GLY    HT3    4   2.149   4.484   5.566
    1GLY     CA    5   2.293   4.616   5.651
    1GLY    HA1    6   2.354   4.611   5.739
    1GLY    HA2    7   2.226   4.701   5.650
    1GLY      C    8   2.384   4.628   5.531
    1GLY      O    9   2.381   4.544   5.441
    2PRO      N   10   2.466   4.733   5.525
    2PRO     CD   11   2.452   4.851   5.611
    2PRO    HD1   12   2.491   4.827   5.712
    2PRO    HD2   13   2.347   4.885   5.616
    2PRO     CA   14   2.580   4.746   5.434
    2PRO     HA   15   2.539   4.754   5.335
    2PRO     CB   16   2.651   4.875   5.481
    2PRO    HB1   17   2.701   4.927   5.397
    2PRO    HB2   18   2.727   4.851   5.559
    2PRO     CG   19   2.539   4.957   5.544
    2PRO    HG1   20   2.577   5.032   5.617
    2PRO    HG2   21   2.480   5.009   5.465
    2PRO      C   22   2.675   4.628   5.431
    2PRO      O   23   2.687   4.555   5.530
    3GLY      N   24   2.746   4.610   5.318
    3GLY     HN   25   2.738   4.675   5.243
    3GLY     CA   26   2.859   4.519   5.308
    3GLY    HA1   27   2.885   4.510   5.204
    3GLY    HA2   28   2.832   4.424   5.353
    3GLY      C   29   2.980   4.572   5.380
    3GLY      O   30   2.991   4.691   5.409
    4ASN      N   31   3.078   4.484   5.407
    4ASN     HN   32   3.068   4.387   5.384
    4ASN     CA   33   3.205   4.524   5.464
    4ASN     HA   34   3.182   4.574   5.557
    4ASN     CB   35   3.297   4.402   5.493
    4ASN    HB1   36   3.395   4.437   5.532
    4ASN    HB2   37   3.313   4.347   5.399
    4ASN     CG   38   3.237   4.309   5.597
    4ASN    OD1   39   3.139   4.338   5.666
    4ASN    ND2   40   3.296   4.188   5.609
    4ASN   HD21   41   3.260   4.125   5.678
    4ASN   HD22   42   3.376   4.166   5.552
    4ASN      C   43   3.281   4.621   5.372
    4ASN      O   44   3.269   4.607   5.249
    5PRO      N   45   3.356   4.719   5.420
    5PRO     CD   46   3.361   4.757   5.562
    5PRO    HD1   47   3.419   4.679   5.617
    5PRO    HD2   48   3.260   4.769   5.606
    5PRO     CA   49   3.456   4.791   5.342
    5PRO     HA   50   3.400   4.856   5.275
    5PRO     CB   51   3.536   4.870   5.447
    5PRO    HB1   52   3.574   4.967   5.407
    5PRO    HB2   53   3.622   4.809   5.484
    5PRO     CG   54   3.437   4.889   5.562
    5PRO    HG1   55   3.488   4.909   5.659
    5PRO    HG2   56   3.367   4.972   5.539
    5PRO      C   57   3.545   4.705   5.253
    5PRO      O   58   3.593   4.601   5.297
    6GLY      N   59   3.570   4.748   5.127
    6GLY     HN   60   3.524   4.829   5.093
    6GLY     CA   61   3.669   4.684   5.042
    6GLY    HA1   62   3.673   4.739   4.949
    6GLY    HA2   63   3.639   4.581   5.028
    6GLY      C   64   3.810   4.683   5.098
    6GLY      O   65   3.848   4.768   5.178
    7SER      N   66   3.892   4.587   5.051
    7SER     HN   67   3.858   4.523   4.983
    7SER     CA   68   4.032   4.573   5.091
    7SER     HA   69   4.032   4.554   5.198
    7SER     CB   70   4.104   4.454   5.021
    7SER    HB1   71   4.214   4.459   5.036
    7SER    HB2   72   4.085   4.458   4.912
    7SER     OG   73   4.060   4.329   5.074
    7SER    HG1   74   3.965   4.332   5.083
    7SER      C   75   4.116   4.697   5.072
    7SER      O   76   4.090   4.779   4.984
    8GLY      N   77   4.219   4.716   5.158
    8GLY     HN   78   4.239   4.650   5.229
    8GLY     CA   79   4.312   4.828   5.148
    8GLY    HA1   80   4.388   4.813   5.224
    8GLY    HA2   81   4.253   4.918   5.164
    8GLY      C   82   4.384   4.841   5.015
    8GLY      O   83   4.393   4.745   4.938
    9PRO      N   84   4.440   4.957   4.982
    9PRO     CD   85   4.446   5.073   5.074
    9PRO    HD1   86   4.467   5.042   5.178
    9PRO    HD2   87   4.349   5.127   5.069
    9PRO     CA   88   4.542   4.967   4.878
    9PRO     HA   89   4.500   4.932   4.785
    9PRO     CB   90   4.576   5.117   4.876
    9PRO    HB1   91   4.502   5.170   4.813
    9PRO    HB2   92   4.678   5.138   4.837
    9PRO     CG   93   4.560   5.161   5.022
    9PRO    HG1   94   4.653   5.138   5.078
    9PRO    HG2   95   4.537   5.269   5.029
    9PRO      C   96   4.663   4.878   4.905
    9PRO      O   97   4.693   4.848   5.021
   10GLY      N   98   4.732   4.832   4.800
   10GLY     HN   99   4.706   4.861   4.708
   10GLY     CA  100   4.854   4.754   4.814
   10GLY    HA1  101   4.888   4.729   4.714
   10GLY    HA2  102   4.832   4.667   4.874
   10GLY      C  103   4.968   4.827   4.881
   10GLY      O  104   4.970   4.950   4.889
   11ASP      N  105   5.070   4.751   4.926
   11ASP     HN  106   5.065   4.652   4.924
   11ASP     CA  107   5.198   4.803   4.971
   11ASP     HA  108   5.176   4.870   5.053
   11ASP     CB  109   5.292   4.688   5.021
   11ASP    HB1  110   5.398   4.719   5.013
   11ASP    HB2  111   5.279   4.598   4.957
   11ASP     CG  112   5.272   4.650   5.167
   11ASP    OD1  113   5.252   4.740   5.253
   11ASP    OD2  114   5.294   4.529   5.199
   11ASP      C  115   5.267   4.886   4.860
   11ASP      O  116   5.243   4.862   4.741
   12PRO      N  117   5.349   4.988   4.890
   12PRO     CD  118   5.383   5.026   5.027
   12PRO    HD1  119   5.451   4.948   5.070
   12PRO    HD2  120   5.293   5.037   5.091
   12PRO     CA  121   5.437   5.053   4.793
   12PRO     HA  122   5.373   5.108   4.726
   12PRO     CB  123   5.529   5.144   4.878
   12PRO    HB1  124   5.546   5.242   4.828
   12PRO    HB2  125   5.627   5.096   4.896
   12PRO     CG  126   5.457   5.159   5.012
   12PRO    HG1  127   5.526   5.178   5.097
   12PRO    HG2  128   5.382   5.241   5.007
   12PRO      C  129   5.518   4.958   4.708
   12PRO      O  130   5.565   4.856   4.758
   13GLY      N  131   5.540   4.990   4.578
   13GLY     HN  132   5.500   5.071   4.537
   13GLY     CA  133   5.642   4.922   4.499
   13GLY    HA1  134   5.641   4.965   4.400
   13GLY    HA2  135   5.620   4.816   4.500
   13GLY      C  136   5.780   4.941   4.554
   13GLY      O  137   5.809   5.041   4.620
   14SER      N  138   5.872   4.847   4.526
   14SER     HN  139   5.846   4.763   4.478
   14SER     CA  140   6.011   4.855   4.567
   14SER     HA  141   6.012   4.856   4.675
   14SER     CB  142   6.095   4.734   4.518
   14SER    HB1  143   6.200   4.741   4.553
   14SER    HB2  144   6.096   4.732   4.407
   14SER     OG  145   6.039   4.611   4.565
   14SER    HG1  146   6.049   4.611   4.660
   14SER      C  147   6.082   4.981   4.522
   14SER      O  148   6.051   5.040   4.418
   15GLY      N  149   6.181   5.028   4.601
   15GLY     HN  150   6.204   4.981   4.686
   15GLY     CA  151   6.266   5.140   4.561
   15GLY    HA1  152   6.341   5.153   4.638
   15GLY    HA2  153   6.201   5.225   4.549
   15GLY      C  154   6.340   5.117   4.430
   15GLY      O  155   6.357   5.002   4.389
   16PRO      N  156   6.387   5.221   4.361
   16PRO     CD  157   6.384   5.359   4.409
   16PRO    HD1  158   6.404   5.367   4.518
   16PRO    HD2  159   6.284   5.403   4.385
   16PRO     CA  160   6.479   5.204   4.249
   16PRO     HA  161   6.431   5.144   4.173
   16PRO     CB  162   6.505   5.348   4.202
   16PRO    HB1  163   6.423   5.378   4.133
   16PRO    HB2  164   6.602   5.362   4.150
   16PRO     CG  165   6.494   5.431   4.331
   16PRO    HG1  166   6.590   5.425   4.387
   16PRO    HG2  167   6.470   5.538   4.311
   16PRO      C  168   6.607   5.131   4.288
   16PRO      O  169   6.652   5.141   4.403
   17GLY      N  170   6.666   5.054   4.194
   17GLY     HN  171   6.624   5.046   4.105
   17GLY     CA  172   6.799   4.995   4.212
   17GLY    HA1  173   6.821   4.937   4.124
   17GLY    HA2  174   6.798   4.936   4.303
   17GLY      C  175   6.908   5.099   4.226
   17GLY      O  176   6.899   5.207   4.167
   18ASN      N  177   7.015   5.068   4.303
   18ASN     HN  178   7.021   4.980   4.350
   18ASN     CA  179   7.126   5.159   4.328
   18ASN     HA  180   7.081   5.246   4.374
   18ASN     CB  181   7.231   5.098   4.426
   18ASN    HB1  182   7.312   5.172   4.445
   18ASN    HB2  183   7.276   5.008   4.380
   18ASN     CG  184   7.170   5.058   4.561
   18ASN    OD1  185   7.054   5.075   4.594
   18ASN    ND2  186   7.258   4.999   4.647
   18ASN   HD21  187   7.221   4.965   4.734
   18ASN   HD22  188   7.355   4.991   4.623
   18ASN      C  189   7.197   5.201   4.198
   18ASN      O  190   7.210   5.118   4.107
   19PRO      N  191   7.241   5.326   4.184
   19PRO     CD  192   7.234   5.431   4.287
   19PRO    HD1  193   7.277   5.395   4.383
   19PRO    HD2  194   7.128   5.460   4.301
   19PRO     CA  195   7.304   5.373   4.062
   19PRO     HA  196   7.248   5.341   3.975
   19PRO     CB  197   7.302   5.526   4.079
   19PRO    HB1  198   7.203   5.564   4.045
   19PRO    HB2  199   7.382   5.577   4.021
   19PRO     CG  200   7.315   5.547   4.230
   19PRO    HG1  201   7.422   5.534   4.259
   19PRO    HG2  202   7.279   5.646   4.264
   19PRO      C  203   7.446   5.320   4.045
   19PRO    OT1  204   7.500   5.252   4.136
   19PRO    OT2  205   7.505   5.348   3.937
   20LIT    LIT  206   2.199   3.233   2.799
   21LIT    LIT  207   0.214   6.009   4.460
   22LIT    LIT  208   2.203   5.330   0.720
   23LIT    LIT  209   6.922   6.334   4.601
   24LIT    LIT  210   2.627   2.166   4.311
   25LIT    LIT  211   2.177   1.710   3.878
   26LIT    LIT  212   3.903   6.201   5.861
   27LIT    LIT  213   4.533   9.037   0.989
   28LIT    LIT  214   5.340   0.105   4.418
   29LIT    LIT  215   3.220   1.332   6.720
   30LIT    LIT  216   6.034   4.421   4.967
   31LIT    LIT  217   7.981   1.661   6.642
   32LIT    LIT  218   3.622   5.628   6.639
   33LIT    LIT  219   3.573   8.664   4.843
   34LIT    LIT  220   9.659   4.947   3.082
   35LIT    LIT  221   2.300   3.839   7.070
   36LIT    LIT  222   1.732   1.963   0.901
   37LIT    LIT  223   4.023   8.710   4.455
   38LIT    LIT  224   0.818   6.158   1.292
   39LIT    LIT  225   6.389   1.574   0.746
   40LIT    LIT  226   0.544   0.278   1.146
   41LIT    LIT  227   2.140   6.281   0.636
   42LIT    LIT  228   4.369   1.719   2.471
   43LIT    LIT  229   3.148   3.186   1.479
   44LIT    LIT  230   2.997   3.464   0.525
   45LIT    LIT  231   7.019   7.032   0.772
   46LIT    LIT  232   3.359   5.901   1.911
   47LIT    LIT  233   8.582   1.690   1.736
   48LIT    LIT  234   7.728   0.259   3.947
   49LIT    LIT  235   3.046   1.344   4.083
   50LIT    LIT  236   9.342   7.179   5.443
   51LIT    LIT  237   1.682   0.752   6.684
   52LIT    LIT  238   3.183   0.648   5.423
   53LIT    LIT  239   7.971   6.759   5.756
   54LIT    LIT  240   6.374   0.784   5.061
   55LIT    LIT  241   5.544   9.032   7.792
   56LIT    LIT  242   4.952   2.549   5.007
   57LIT    LIT  243   2.364   5.961   7.425
   58LIT    LIT  244   5.626   4.743   3.009
   59LIT    LIT  245   1.226   3.332   4.303
   60LIT    LIT  246   6.288   5.540   1.012
   61LIT    LIT  247   1.956   8.849   1.014
   62LIT    LIT  248   1.978   1.092   0.106
   63LIT    LIT  249   8.268   0.187   5.140
   64LIT    LIT  250   3.797   8.120   7.467
   65LIT    LIT  251   4.571   4.604   4.032
   66LIT    LIT  252   2.052   3.787   4.447
   67LIT    LIT  253   2.845   1.892   6.098
   68LIT    LIT  254   3.977   4.418   7.585
   69LIT    LIT  255   5.399   4.459   5.580
   70LIT    LIT  256   3.474   5.829   0.429
   71LIT    LIT  257   1.096   5.584   3.342
   72LIT    LIT  258   2.086   3.147   4.008
   73LIT    LIT  259   2.112   7.271   0.783
   74LIT    LIT  260   8.135   9.063   3.593
   75LIT    LIT  261   7.156   6.448   0.556
   76LIT    LIT  262   7.954   7.669   1.672
   77LIT    LIT  263   8.922   6.349   2.907
   78LIT    LIT  264   6.849   8.326   2.328
   79LIT    LIT  265   9.096   5.909   5.836
   80LIT    LIT  266   9.118   5.838   7.047
   81LIT    LIT  267   9.767   6.130   6.751
   82LIT    LIT  268   7.548   4.985   6.327
   83LIT    LIT  269   1.875   2.450   2.470
   84LIT    LIT  270   2.519   4.104   0.335
   85LIT    LIT  271   5.582   6.638   7.811
   86CLA    CLA  272   0.815   4.597   7.170
   87CLA    CLA  273   7.334   7.428   1.865
   88CLA    CLA  274   9.363   3.032   1.414
   89CLA    CLA  275   7.643   6.558   7.717
   90CLA    CLA  276   2.146   3.394   2.648
   91CLA    CLA  277   6.345   6.439   7.822
   92CLA    CLA  278   6.972   1.894   7.856
   93CLA    CLA  279   7.538   8.992   3.389
   94CLA    CLA  280   7.023   7.685   7.546
   95CLA    CLA  281   6.694   0.368   6.796
   96CLA    CLA  282   3.245   7.577   0.406
   97CLA    CLA  283   9.255   4.772   5.204
   98CLA    CLA  284   1.568   4.193   1.058
   99CLA    CLA  285   9.678   4.435   3.138
  100CLA    CLA  286   1.173   7.322   7.732
  101CLA    CLA  287   4.759   1.538   0.179
  102CLA    CLA  288   2.659   1.074   3.661
  103CLA    CLA  289   9.573   6.171   6.637
  104CLA    CLA  290   4.143   4.578   0.102
  105CLA    CLA  291   3.252   8.435   1.947
  106CLA    CLA  292   6.122   2.744   6.855
  107CLA    CLA  293   3.418   8.677   4.100
  108CLA    CLA  294   7.440   6.513   2.027
  109CLA    CLA  295   1.321   0.990   6.326
  110CLA    CLA  296   0.698   0.296   4.823
  111CLA    CLA  297   7.738   6.099   5.178
  112CLA    CLA  298   8.005   5.673   6.743
  113CLA    CLA  299   9.790   6.674   5.859
  114CLA    CLA  300   6.631   1.210   2.550
  115CLA    CLA  301   6.734   8.800   1.291
  116CLA    CLA  302   7.859   3.845   7.912
  117CLA    CLA  303   0.516   4.498   5.026
  118CLA    CLA  304   4.093   1.285   2.668
  119CLA    CLA  305   2.119   6.354   2.839
  120CLA    CLA  306   2.416   4.878   7.691
  121CLA    CLA  307   2.573   2.983   4.648
  122CLA    CLA  308   2.385   4.515   0.450
  123CLA    CLA  309   3.013   1.574   4.788
  124CLA    CLA  310   7.605   8.521   0.111
  125CLA    CLA  311   6.687   6.468   0.724
  126CLA    CLA  312   4.241   5.829   6.855
  127CLA    CLA  313   4.976   0.892   7.787
  128CLA    CLA  314   6.806   8.152   2.190
  129CLA    CLA  315   4.169   5.798   2.393
  130CLA    CLA  316   8.985   6.638   5.204
  131CLA    CLA  317   7.005   1.062   4.950
  132CLA    CLA  318   5.716   5.441   0.792
  133CLA    CLA  319   3.845   8.576   4.438
  134CLA    CLA  320   5.488   8.751   3.291
  135CLA    CLA  321   9.584   5.762   3.767
  136CLA    CLA  322   1.740   8.861   1.069
  137CLA    CLA  323   8.638   1.763   1.948
  138CLA    CLA  324   4.492   4.900   3.465
  139CLA    CLA  325   9.543   6.022   3.455
  140CLA    CLA  326   6.912   7.230   0.762
  141CLA    CLA  327   2.795   2.215   4.168
  142CLA    CLA  328   4.428   5.383   7.318
  143CLA    CLA  329   5.096   2.733   5.460
  144CLA    CLA  330   2.548   3.123   7.412
  145CLA    CLA  331   5.320   9.202   0.762
  146CLA    CLA  332   5.865   6.008   5.735
  147CLA    CLA  333   2.113   1.904   3.968
  148CLA    CLA  334   3.444   1.376   7.350
  149CLA    CLA  335   1.164   1.718   1.495
  150CLA    CLA  336   1.176   7.189   4.699
  151TIP3   OH2  337   4.543   0.011   1.632
  151TIP3    H1  338   4.467   0.023   1.689
  151TIP3    H2  339   4.570   0.101   1.611
  152TIP3   OH2  340   4.770   0.076   2.095
  152TIP3    H1  341   4.703   0.031   2.044
  152TIP3    H2  342   4.723   0.149   2.136
  153TIP3   OH2  343   1.724   8.888   1.850
  153TIP3    H1  344   1.645   8.925   1.890
  153TIP3    H2  345   1.699   8.871   1.759
  154TIP3   OH2  346   1.354   8.787   2.157
  154TIP3    H1  347   1.320   8.866   2.197
  154TIP3    H2  348   1.281   8.753   2.104
  155TIP3   OH2  349   5.014   0.360   2.076
  155TIP3    H1  350   5.000   0.282   2.023
  155TIP3    H2  351   4.950   0.353   2.146
  156TIP3   OH2  352   4.100   0.091   2.220
  156TIP3    H1  353   4.075   0.180   2.245
  156TIP3    H2  354   4.032   0.063   2.159
  157TIP3   OH2  355   1.590   8.722   2.280
  157TIP3    H1  356   1.507   8.752   2.243
  157TIP3    H2  357   1.599   8.632   2.249
  158TIP3   OH2  358   0.934   8.699   2.549
  158TIP3    H1  359   0.999   8.641   2.587
  158TIP3    H2  360   0.968   8.719   2.462
  159TIP3   OH2  361   4.722   0.680   2.187
  159TIP3    H1  362   4.717   0.710   2.097
  159TIP3    H2  363   4.802   0.721   2.221
  160TIP3   OH2  364   1.484   8.977   1.948
  160TIP3    H1  365   1.500   9.058   1.901
  160TIP3    H2  366   1.415   8.999   2.011
  161TIP3   OH2  367   1.003   9.113   2.265
  161TIP3    H1  368   1.031   9.100   2.356
  161TIP3    H2  369   0.946   9.189   2.268
  162TIP3   OH2  370   4.352   0.137   2.124
  162TIP3    H1  371   4.258   0.124   2.138
  162TIP3    H2  372   4.386   0.163   2.210
  163TIP3   OH2  373   5.037   0.031   2.090
  163TIP3    H1  374   4.946   0.059   2.096
  163TIP3    H2  375   5.057   0.033   1.996
  164TIP3   OH2  376   4.549   0.316   2.059
  164TIP3    H1  377   4.475   0.257   2.073
  164TIP3    H2  378   4.510   0.397   2.025
  165TIP3   OH2  379   4.546   0.288   1.614
  165TIP3    H1  380   4.463   0.305   1.570
  165TIP3    H2  381   4.612   0.327   1.557
  166TIP3   OH2  382   3.353   0.368   2.557
  166TIP3    H1  383   3.431   0.377   2.613
  166TIP3    H2  384   3.312   0.287   2.585
  167TIP3   OH2  385   3.830   0.324   2.629
  167TIP3    H1  386   3.897   0.387   2.658
  167TIP3    H2  387   3.880   0.251   2.592
  168TIP3   OH2  388   4.432   0.226   2.370
  168TIP3    H1  389   4.445   0.155   2.433
  168TIP3    H2  390   4.502   0.288   2.389
  169TIP3   OH2  391   0.837   9.106   2.533
  169TIP3    H1  392   0.807   9.073   2.448
  169TIP3    H2  393   0.919   9.060   2.549
  170TIP3   OH2  394   1.251   9.074   2.142
  170TIP3    H1  395   1.258   9.130   2.065
  170TIP3    H2  396   1.164   9.091   2.177
  171TIP3   OH2  397   1.112   9.002   2.514
  171TIP3    H1  398   1.168   8.948   2.457
  171TIP3    H2  399   1.128   8.968   2.602
  172TIP3   OH2  400   1.446   8.612   2.635
  172TIP3    H1  401   1.393   8.657   2.570
  172TIP3    H2  402   1.457   8.675   2.706
  173TIP3   OH2  403   1.429   9.017   2.336
  173TIP3    H1  404   1.364   9.052   2.274
  173TIP3    H2  405   1.512   9.022   2.289
  174TIP3   OH2  406   4.767   0.403   1.496
  174TIP3    H1  407   4.833   0.467   1.523
  174TIP3    H2  408   4.802   0.365   1.416
  175TIP3   OH2  409   4.816   0.498   1.924
  175TIP3    H1  410   4.769   0.419   1.899
  175TIP3    H2  411   4.876   0.470   1.993
  176TIP3   OH2  412   4.876   0.142   2.420
  176TIP3    H1  413   4.809   0.154   2.487
  176TIP3    H2  414   4.927   0.223   2.422
  177TIP3   OH2  415   1.556   9.180   1.782
  177TIP3    H1  416   1.587   9.169   1.692
  177TIP3    H2  417   1.607   9.255   1.815
  178TIP3   OH2  418   4.696   0.269   1.838
  178TIP3    H1  419   4.637   0.262   1.912
  178TIP3    H2  420   4.639   0.268   1.761
  179TIP3   OH2  421   1.666   9.042   2.205
  179TIP3    H1  422   1.727   8.974   2.177
  179TIP3    H2  423   1.694   9.120   2.156
  180TIP3   OH2  424   1.837   8.829   2.207
  180TIP3    H1  425   1.753   8.791   2.235
  180TIP3    H2  426   1.889   8.833   2.287
  181TIP3   OH2  427   1.574   8.691   1.984
  181TIP3    H1  428   1.519   8.761   2.020
  181TIP3    H2  429   1.652   8.736   1.952
  182TIP3   OH2  430   4.075   0.369   2.279
  182TIP3    H1  431   4.118   0.363   2.364
  182TIP3    H2  432   4.136   0.417   2.224
  183TIP3   OH2  433   4.270   0.531   2.163
  183TIP3    H1  434   4.326   0.512   2.088
  183TIP3    H2  435   4.324   0.582   2.222
  184TIP3   OH2  436   4.267   0.349   1.863
  184TIP3    H1  437   4.191   0.330   1.918
  184TIP3    H2  438   4.235   0.411   1.797
  185TIP3   OH2  439   4.356   0.601   1.695
  185TIP3    H1  440   4.298   0.668   1.658
  185TIP3    H2  441   4.380   0.547   1.619
  186TIP3   OH2  442   4.767   0.404   2.203
  186TIP3    H1  443   4.689   0.372   2.159
  186TIP3    H2  444   4.756   0.499   2.206
  187TIP3   OH2  445   5.496   0.148   1.618
  187TIP3    H1  446   5.495   0.244   1.614
  187TIP3    H2  447   5.445   0.128   1.697
  188TIP3   OH2  448   5.721   0.223   1.801
  188TIP3    H1  449   5.657   0.277   1.847
  188TIP3    H2  450   5.669   0.172   1.739
  189TIP3   OH2  451   2.208   9.066   1.930
  189TIP3    H1  452   2.201   9.155   1.965
  189TIP3    H2  453   2.119   9.031   1.936
  190TIP3   OH2  454   5.513   0.379   1.898
  190TIP3    H1  455   5.488   0.403   1.809
  190TIP3    H2  456   5.430   0.366   1.943
  191TIP3   OH2  457   1.863   9.165   1.838
  191TIP3    H1  458   1.801   9.119   1.781
  191TIP3    H2  459   1.900   9.096   1.893
  192TIP3   OH2  460   4.958   0.202   1.580
  192TIP3    H1  461   5.053   0.203   1.566
  192TIP3    H2  462   4.937   0.292   1.605
  193TIP3   OH2  463   5.906   0.391   1.678
  193TIP3    H1  464   5.896   0.474   1.725
  193TIP3    H2  465   5.854   0.329   1.729
  194TIP3   OH2  466   5.322   0.117   1.828
  194TIP3    H1  467   5.368   0.115   1.912
  194TIP3    H2  468   5.253   0.052   1.837
  195TIP3   OH2  469   6.497   0.968   1.658
  195TIP3    H1  470   6.485   0.975   1.564
  195TIP3    H2  471   6.578   1.015   1.676
  196TIP3   OH2  472   5.451   0.066   2.065
  196TIP3    H1  473   5.536   0.083   2.106
  196TIP3    H2  474   5.388   0.073   2.137
  197TIP3   OH2  475   1.958   8.956   1.986
  197TIP3    H1  476   1.947   8.923   2.075
  197TIP3    H2  477   1.897   8.905   1.933
  198TIP3   OH2  478   6.151   0.480   1.579
  198TIP3    H1  479   6.069   0.432   1.593
  198TIP3    H2  480   6.187   0.493   1.666
  199TIP3   OH2  481   5.740   0.485   1.484
  199TIP3    H1  482   5.790   0.552   1.438
  199TIP3    H2  483   5.803   0.444   1.544
  200TIP3   OH2  484   6.322   0.681   1.507
  200TIP3    H1  485   6.272   0.600   1.513
  200TIP3    H2  486   6.311   0.710   1.417
  201TIP3   OH2  487   5.212   0.308   1.670
  201TIP3    H1  488   5.254   0.256   1.738
  201TIP3    H2  489   5.149   0.363   1.716
  202TIP3   OH2  490   5.139   0.633   2.057
  202TIP3    H1  491   5.221   0.631   2.107
  202TIP3    H2  492   5.114   0.541   2.048
  203TIP3   OH2  493   5.600   0.564   2.086
  203TIP3    H1  494   5.691   0.541   2.103
  203TIP3    H2  495   5.573   0.504   2.017
  204TIP3   OH2  496   6.227   0.519   1.841
  204TIP3    H1  497   6.219   0.444   1.900
  204TIP3    H2  498   6.306   0.564   1.868
  205TIP3   OH2  499   5.251   0.045   2.257
  205TIP3    H1  500   5.269  -0.048   2.271
  205TIP3    H2  501   5.172   0.047   2.203
  206TIP3   OH2  502   5.879   0.159   2.018
  206TIP3    H1  503   5.839   0.166   1.931
  206TIP3    H2  504   5.965   0.120   2.001
  207TIP3   OH2  505   2.091   9.013   2.272
  207TIP3    H1  506   2.160   8.984   2.213
  207TIP3    H2  507   2.136   9.072   2.334
  208TIP3   OH2  508   6.140   0.065   1.989
  208TIP3    H1  509   6.183   0.023   1.914
  208TIP3    H2  510   6.173   0.017   2.065
  209TIP3   OH2  511   2.308   8.914   2.128
  209TIP3    H1  512   2.267   8.831   2.103
  209TIP3    H2  513   2.297   8.970   2.052
  210TIP3   OH2  514   4.905   0.338   1.272
  210TIP3    H1  515   4.920   0.278   1.199
  210TIP3    H2  516   4.992   0.355   1.308
  211TIP3   OH2  517   6.659   0.372   1.940
  211TIP3    H1  518   6.593   0.376   2.009
  211TIP3    H2  519   6.707   0.455   1.949
  212TIP3   OH2  520   5.292   0.355   2.063
  212TIP3    H1  521   5.197   0.346   2.072
  212TIP3    H2  522   5.323   0.366   2.152
  213TIP3   OH2  523   5.509   0.421   1.621
  213TIP3    H1  524   5.453   0.493   1.593
  213TIP3    H2  525   5.594   0.440   1.581
  214TIP3   OH2  526   5.891   0.658   1.762
  214TIP3    H1  527   5.928   0.649   1.849
  214TIP3    H2  528   5.958   0.704   1.711
  215TIP3   OH2  529   6.091   0.804   1.635
  215TIP3    H1  530   6.161   0.754   1.595
  215TIP3    H2  531   6.135   0.864   1.695
  216TIP3   OH2  532   5.175   0.723   1.679
  216TIP3    H1  533   5.081   0.741   1.678
  216TIP3    H2  534   5.206   0.767   1.758
  217TIP3   OH2  535   5.387   0.646   1.531
  217TIP3    H1  536   5.311   0.667   1.585
  217TIP3    H2  537   5.367   0.686   1.446
  218TIP3   OH2  538   5.828   0.687   1.307
  218TIP3    H1  539   5.740   0.691   1.272
  218TIP3    H2  540   5.838   0.768   1.357
  219TIP3   OH2  541   6.087   0.636   1.233
  219TIP3    H1  542   5.994   0.658   1.235
  219TIP3    H2  543   6.096   0.567   1.299
  220TIP3   OH2  544   6.289   0.816   1.259
  220TIP3    H1  545   6.262   0.897   1.216
  220TIP3    H2  546   6.221   0.753   1.235
  221TIP3   OH2  547   5.136   0.402   1.429
  221TIP3    H1  548   5.180   0.385   1.512
  221TIP3    H2  549   5.179   0.343   1.367
  222TIP3   OH2  550   5.207   0.204   1.266
  222TIP3    H1  551   5.234   0.115   1.248
  222TIP3    H2  552   5.203   0.247   1.180
  223TIP3   OH2  553   5.578   0.539   1.270
  223TIP3    H1  554   5.559   0.454   1.232
  223TIP3    H2  555   5.623   0.519   1.352
  224TIP3   OH2  556   6.547   0.696   1.673
  224TIP3    H1  557   6.475   0.671   1.616
  224TIP3    H2  558   6.537   0.791   1.683
  225TIP3   OH2  559   6.938   0.921   1.576
  225TIP3    H1  560   7.019   0.930   1.627
  225TIP3    H2  561   6.896   0.844   1.612
  226TIP3   OH2  562   2.627   1.599   2.150
  226TIP3    H1  563   2.547   1.570   2.106
  226TIP3    H2  564   2.673   1.651   2.083
  227TIP3   OH2  565   2.849   1.904   2.260
  227TIP3    H1  566   2.852   1.809   2.267
  227TIP3    H2  567   2.778   1.931   2.319
  228TIP3   OH2  568   2.564   2.268   2.362
  228TIP3    H1  569   2.550   2.275   2.267
  228TIP3    H2  570   2.652   2.303   2.375
  229TIP3   OH2  571   2.877   1.628   2.267
  229TIP3    H1  572   2.784   1.612   2.281
  229TIP3    H2  573   2.894   1.593   2.179
  230TIP3   OH2  574   2.381   1.915   2.264
  230TIP3    H1  575   2.341   1.842   2.313
  230TIP3    H2  576   2.397   1.879   2.177
  231TIP3   OH2  577   1.653   1.836   2.754
  231TIP3    H1  578   1.743   1.803   2.762
  231TIP3    H2  579   1.639   1.844   2.660
  232TIP3   OH2  580   2.265   1.803   2.503
  232TIP3    H1  581   2.262   1.728   2.563
  232TIP3    H2  582   2.337   1.856   2.535
  233TIP3   OH2  583   2.315   1.375   2.755
  233TIP3    H1  584   2.408   1.359   2.738
  233TIP3    H2  585   2.288   1.301   2.810
  234TIP3   OH2  586   2.543   1.054   2.789
  234TIP3    H1  587   2.615   0.996   2.765
  234TIP3    H2  588   2.571   1.141   2.762
  235TIP3   OH2  589   2.541   1.325   2.460
  235TIP3    H1  590   2.479   1.358   2.395
  235TIP3    H2  591   2.627   1.336   2.420
  236TIP3   OH2  592   2.608   1.912   1.596
  236TIP3    H1  593   2.631   1.932   1.686
  236TIP3    H2  594   2.685   1.936   1.544
  237TIP3   OH2  595   2.648   2.027   2.099
  237TIP3    H1  596   2.589   1.959   2.067
  237TIP3    H2  597   2.725   1.979   2.130
  238TIP3   OH2  598   2.725   1.698   2.551
  238TIP3    H1  599   2.652   1.703   2.613
  238TIP3    H2  600   2.773   1.780   2.564
  239TIP3   OH2  601   2.456   1.844   2.006
  239TIP3    H1  602   2.480   1.752   2.001
  239TIP3    H2  603   2.439   1.869   1.915
  240TIP3   OH2  604   2.803   1.341   2.372
  240TIP3    H1  605   2.841   1.255   2.388
  240TIP3    H2  606   2.839   1.368   2.288
  241TIP3   OH2  607   2.917   1.097   2.414
  241TIP3    H1  608   2.881   1.040   2.345
  241TIP3    H2  609   3.002   1.058   2.435
  242TIP3   OH2  610   3.211   0.624   2.635
  242TIP3    H1  611   3.219   0.531   2.658
  242TIP3    H2  612   3.274   0.635   2.563
  243TIP3   OH2  613   1.940   2.021   2.434
  243TIP3    H1  614   1.985   1.982   2.509
  243TIP3    H2  615   2.011   2.043   2.373
  244TIP3   OH2  616   2.172   2.091   2.293
  244TIP3    H1  617   2.248   2.033   2.290
  244TIP3    H2  618   2.202   2.167   2.343
  245TIP3   OH2  619   2.340   2.133   1.941
  245TIP3    H1  620   2.323   2.217   1.899
  245TIP3    H2  621   2.362   2.074   1.869
  246TIP3   OH2  622   2.618   1.993   2.389
  246TIP3    H1  623   2.544   1.960   2.338
  246TIP3    H2  624   2.608   2.088   2.387
  247TIP3   OH2  625   3.884   1.336   1.150
  247TIP3    H1  626   3.838   1.412   1.116
  247TIP3    H2  627   3.864   1.266   1.088
  248TIP3   OH2  628   3.900   1.370   1.413
  248TIP3    H1  629   3.976   1.332   1.457
  248TIP3    H2  630   3.918   1.361   1.320
  249TIP3   OH2  631   3.109   1.277   1.882
  249TIP3    H1  632   3.156   1.222   1.944
  249TIP3    H2  633   3.174   1.340   1.851
  250TIP3   OH2  634   4.014   1.635   1.186
  250TIP3    H1  635   4.055   1.580   1.253
  250TIP3    H2  636   4.081   1.699   1.162
  251TIP3   OH2  637   3.186   1.537   1.509
  251TIP3    H1  638   3.112   1.598   1.504
  251TIP3    H2  639   3.150   1.458   1.549
  252TIP3   OH2  640   3.695   2.030   1.212
  252TIP3    H1  641   3.744   1.967   1.161
  252TIP3    H2  642   3.761   2.090   1.247
  253TIP3   OH2  643   3.723   1.479   1.581
  253TIP3    H1  644   3.788   1.456   1.515
  253TIP3    H2  645   3.719   1.574   1.578
  254TIP3   OH2  646   4.702   0.910   1.546
  254TIP3    H1  647   4.752   0.976   1.593
  254TIP3    H2  648   4.632   0.959   1.503
  255TIP3   OH2  649   3.963   0.951   1.511
  255TIP3    H1  650   4.037   0.994   1.468
  255TIP3    H2  651   3.923   0.898   1.442
  256TIP3   OH2  652   4.795   1.122   1.698
  256TIP3    H1  653   4.713   1.172   1.696
  256TIP3    H2  654   4.839   1.152   1.778
  257TIP3   OH2  655   3.767   1.548   1.022
  257TIP3    H1  656   3.775   1.577   0.931
  257TIP3    H2  657   3.708   1.612   1.062
  258TIP3   OH2  658   3.569   1.521   1.802
  258TIP3    H1  659   3.542   1.612   1.797
  258TIP3    H2  660   3.643   1.514   1.742
  259TIP3   OH2  661   4.256   0.843   1.308
  259TIP3    H1  662   4.340   0.799   1.324
  259TIP3    H2  663   4.251   0.852   1.213
  260TIP3   OH2  664   3.341   1.734   1.839
  260TIP3    H1  665   3.323   1.823   1.810
  260TIP3    H2  666   3.276   1.717   1.908
  261TIP3   OH2  667   4.244   1.942   1.339
  261TIP3    H1  668   4.182   1.925   1.410
  261TIP3    H2  669   4.227   2.032   1.313
  262TIP3   OH2  670   4.526   0.825   1.751
  262TIP3    H1  671   4.479   0.745   1.729
  262TIP3    H2  672   4.585   0.840   1.677
  263TIP3   OH2  673   3.887   1.866   1.105
  263TIP3    H1  674   3.910   1.774   1.099
  263TIP3    H2  675   3.920   1.904   1.023
  264TIP3   OH2  676   4.094   1.772   0.871
  264TIP3    H1  677   4.053   1.688   0.887
  264TIP3    H2  678   4.141   1.792   0.952
  265TIP3   OH2  679   4.434   1.776   1.675
  265TIP3    H1  680   4.424   1.718   1.600
  265TIP3    H2  681   4.419   1.864   1.641
  266TIP3   OH2  682   4.630   1.469   1.495
  266TIP3    H1  683   4.550   1.521   1.493
  266TIP3    H2  684   4.664   1.472   1.406
  267TIP3   OH2  685   3.879   1.274   0.885
  267TIP3    H1  686   3.913   1.363   0.895
  267TIP3    H2  687   3.838   1.274   0.798
  268TIP3   OH2  688   4.333   1.390   1.792
  268TIP3    H1  689   4.298   1.477   1.812
  268TIP3    H2  690   4.274   1.330   1.838
  269TIP3   OH2  691   3.500   1.789   1.343
  269TIP3    H1  692   3.513   1.707   1.295
  269TIP3    H2  693   3.492   1.763   1.434
  270TIP3   OH2  694   3.306   1.159   1.606
  270TIP3    H1  695   3.345   1.088   1.555
  270TIP3    H2  696   3.355   1.237   1.581
  271TIP3   OH2  697   4.091   1.886   1.552
  271TIP3    H1  698   4.012   1.908   1.503
  271TIP3    H2  699   4.075   1.798   1.585
  272TIP3   OH2  700   3.560   1.805   1.994
  272TIP3    H1  701   3.507   1.866   2.046
  272TIP3    H2  702   3.496   1.763   1.935
  273TIP3   OH2  703   3.328   1.389   2.117
  273TIP3    H1  704   3.331   1.478   2.152
  273TIP3    H2  705   3.237   1.361   2.127
  274TIP3   OH2  706   3.473   1.803   0.809
  274TIP3    H1  707   3.493   1.756   0.728
  274TIP3    H2  708   3.558   1.836   0.839
  275TIP3   OH2  709   3.351   1.964   2.079
  275TIP3    H1  710   3.322   1.988   1.992
  275TIP3    H2  711   3.271   1.943   2.127
  276TIP3   OH2  712   4.218   1.724   0.273
  276TIP3    H1  713   4.241   1.816   0.282
  276TIP3    H2  714   4.301   1.680   0.253
  277TIP3   OH2  715   2.948   1.513   2.026
  277TIP3    H1  716   2.914   1.480   1.943
  277TIP3    H2  717   2.987   1.436   2.068
  278TIP3   OH2  718   4.653   2.180   1.714
  278TIP3    H1  719   4.658   2.084   1.714
  278TIP3    H2  720   4.570   2.199   1.757
  279TIP3   OH2  721   3.780   1.930   1.886
  279TIP3    H1  722   3.772   2.022   1.909
  279TIP3    H2  723   3.704   1.888   1.925
  280TIP3   OH2  724   3.506   2.114   0.824
  280TIP3    H1  725   3.511   2.076   0.736
  280TIP3    H2  726   3.517   2.208   0.810
  281TIP3   OH2  727   3.804   1.884   0.600
  281TIP3    H1  728   3.861   1.955   0.632
  281TIP3    H2  729   3.851   1.848   0.525
  282TIP3   OH2  730   4.483   1.298   2.037
  282TIP3    H1  731   4.444   1.337   1.958
  282TIP3    H2  732   4.528   1.220   2.005
  283TIP3   OH2  733   3.146   1.697   2.020
  283TIP3    H1  734   3.198   1.693   2.100
  283TIP3    H2  735   3.067   1.646   2.040
  284TIP3   OH2  736   4.053   0.655   2.039
  284TIP3    H1  737   4.122   0.612   2.090
  284TIP3    H2  738   3.972   0.619   2.074
  285TIP3   OH2  739   4.324   1.000   1.994
  285TIP3    H1  740   4.286   0.989   2.081
  285TIP3    H2  741   4.264   0.954   1.936
  286TIP3   OH2  742   3.474   1.079   1.819
  286TIP3    H1  743   3.444   1.116   1.902
  286TIP3    H2  744   3.411   1.110   1.754
  287TIP3   OH2  745   4.032   1.263   2.190
  287TIP3    H1  746   3.990   1.198   2.246
  287TIP3    H2  747   4.120   1.273   2.227
  288TIP3   OH2  748   3.248   1.093   2.029
  288TIP3    H1  749   3.329   1.102   2.079
  288TIP3    H2  750   3.224   1.001   2.040
  289TIP3   OH2  751   4.004   1.390   1.802
  289TIP3    H1  752   4.020   1.356   1.714
  289TIP3    H2  753   4.053   1.333   1.860
  290TIP3   OH2  754   4.154   0.780   1.639
  290TIP3    H1  755   4.151   0.817   1.727
  290TIP3    H2  756   4.094   0.833   1.588
  291TIP3   OH2  757   4.349   2.505   1.792
  291TIP3    H1  758   4.343   2.518   1.697
  291TIP3    H2  759   4.428   2.552   1.818
  292TIP3   OH2  760   3.302   1.637   2.238
  292TIP3    H1  761   3.386   1.647   2.283
  292TIP3    H2  762   3.238   1.625   2.307
  293TIP3   OH2  763   3.741   1.213   1.646
  293TIP3    H1  764   3.750   1.307   1.634
  293TIP3    H2  765   3.712   1.181   1.560
  294TIP3   OH2  766   3.723   0.937   1.889
  294TIP3    H1  767   3.670   1.007   1.850
  294TIP3    H2  768   3.791   0.983   1.939
  295TIP3   OH2  769   4.401   1.615   1.458
  295TIP3    H1  770   4.443   1.669   1.392
  295TIP3    H2  771   4.313   1.598   1.424
  296TIP3   OH2  772   3.848   1.648   1.837
  296TIP3    H1  773   3.897   1.573   1.871
  296TIP3    H2  774   3.869   1.720   1.898
  297TIP3   OH2  775   3.065   1.323   2.189
  297TIP3    H1  776   3.105   1.291   2.269
  297TIP3    H2  777   3.004   1.254   2.163
  298TIP3   OH2  778   3.808   1.424   2.136
  298TIP3    H1  779   3.764   1.379   2.064
  298TIP3    H2  780   3.895   1.383   2.141
  299TIP3   OH2  781   4.048   1.886   1.853
  299TIP3    H1  782   3.954   1.898   1.838
  299TIP3    H2  783   4.073   1.962   1.906
  300TIP3   OH2  784   4.677   1.903   1.719
  300TIP3    H1  785   4.589   1.870   1.739
  300TIP3    H2  786   4.700   1.864   1.635
  301TIP3   OH2  787   4.017   1.829   0.438
  301TIP3    H1  788   4.045   1.772   0.509
  301TIP3    H2  789   4.068   1.801   0.362
  302TIP3   OH2  790   4.161   1.520   1.383
  302TIP3    H1  791   4.096   1.527   1.453
  302TIP3    H2  792   4.154   1.429   1.353
  303TIP3   OH2  793   3.543   2.021   1.744
  303TIP3    H1  794   3.573   2.001   1.656
  303TIP3    H2  795   3.621   2.054   1.789
  304TIP3   OH2  796   4.019   1.616   1.607
  304TIP3    H1  797   3.935   1.613   1.654
  304TIP3    H2  798   4.085   1.607   1.676
  305TIP3   OH2  799   4.189   2.179   1.639
  305TIP3    H1  800   4.113   2.120   1.630
  305TIP3    H2  801   4.173   2.249   1.576
  306TIP3   OH2  802   4.237   1.987   0.320
  306TIP3    H1  803   4.274   2.036   0.247
  306TIP3    H2  804   4.156   2.033   0.342
  307TIP3   OH2  805   4.040   1.376   0.674
  307TIP3    H1  806   4.026   1.440   0.744
  307TIP3    H2  807   4.132   1.387   0.648
  308TIP3   OH2  808   2.953   1.857   1.709
  308TIP3    H1  809   2.991   1.769   1.712
  308TIP3    H2  810   2.977   1.896   1.793
  309TIP3   OH2  811   4.109   0.870   1.889
  309TIP3    H1  812   4.048   0.938   1.919
  309TIP3    H2  813   4.094   0.798   1.950
  310TIP3   OH2  814   3.918   1.077   2.010
  310TIP3    H1  815   3.955   1.141   2.070
  310TIP3    H2  816   3.945   1.106   1.923
  311TIP3   OH2  817   4.574   1.060   1.914
  311TIP3    H1  818   4.489   1.039   1.953
  311TIP3    H2  819   4.590   0.990   1.851
  312TIP3   OH2  820   4.146   1.274   1.267
  312TIP3    H1  821   4.088   1.248   1.195
  312TIP3    H2  822   4.221   1.216   1.259
  313TIP3   OH2  823   4.237   2.193   1.239
  313TIP3    H1  824   4.194   2.235   1.165
  313TIP3    H2  825   4.330   2.197   1.219
  314TIP3   OH2  826   2.971   2.179   2.208
  314TIP3    H1  827   3.058   2.182   2.249
  314TIP3    H2  828   2.945   2.087   2.213
  315TIP3   OH2  829   3.458   2.125   2.271
  315TIP3    H1  830   3.550   2.101   2.281
  315TIP3    H2  831   3.427   2.071   2.198
  316TIP3   OH2  832   4.071   2.086   2.042
  316TIP3    H1  833   4.088   2.010   2.099
  316TIP3    H2  834   4.151   2.138   2.048
  317TIP3   OH2  835   3.102   1.593   2.421
  317TIP3    H1  836   3.109   1.499   2.442
  317TIP3    H2  837   3.018   1.601   2.376
  318TIP3   OH2  838   3.724   1.688   2.180
  318TIP3    H1  839   3.675   1.709   2.100
  318TIP3    H2  840   3.764   1.604   2.162
  319TIP3   OH2  841   4.211   1.676   1.800
  319TIP3    H1  842   4.288   1.718   1.761
  319TIP3    H2  843   4.151   1.748   1.818
  320TIP3   OH2  844   3.234   1.298   2.407
  320TIP3    H1  845   3.321   1.271   2.377
  320TIP3    H2  846   3.251   1.339   2.492
  321TIP3   OH2  847   3.506   1.184   2.087
  321TIP3    H1  848   3.450   1.259   2.108
  321TIP3    H2  849   3.578   1.221   2.036
  322TIP3   OH2  850   4.080   1.603   2.191
  322TIP3    H1  851   4.151   1.574   2.134
  322TIP3    H2  852   4.084   1.543   2.266
  323TIP3   OH2  853   3.652   0.981   2.205
  323TIP3    H1  854   3.634   0.894   2.167
  323TIP3    H2  855   3.605   1.042   2.148
  324TIP3   OH2  856   3.600   0.752   2.043
  324TIP3    H1  857   3.644   0.810   1.982
  324TIP3    H2  858   3.519   0.726   1.998
  325TIP3   OH2  859   3.683   1.302   1.918
  325TIP3    H1  860   3.709   1.257   1.837
  325TIP3    H2  861   3.638   1.381   1.888
  326TIP3   OH2  862   4.302   1.283   2.258
  326TIP3    H1  863   4.341   1.219   2.317
  326TIP3    H2  864   4.365   1.290   2.186
  327TIP3   OH2  865   4.309   1.585   2.038
  327TIP3    H1  866   4.259   1.625   1.967
  327TIP3    H2  867   4.398   1.577   2.003
  328TIP3   OH2  868   3.529   1.109   2.420
  328TIP3    H1  869   3.469   1.039   2.445
  328TIP3    H2  870   3.569   1.079   2.338
  329TIP3   OH2  871   3.797   0.568   2.089
  329TIP3    H1  872   3.727   0.633   2.082
  329TIP3    H2  873   3.761   0.490   2.046
  330TIP3   OH2  874   3.905   1.053   2.308
  330TIP3    H1  875   3.880   1.030   2.397
  330TIP3    H2  876   3.830   1.027   2.254
  331TIP3   OH2  877   4.154   0.976   2.204
  331TIP3    H1  878   4.065   0.988   2.237
  331TIP3    H2  879   4.207   0.960   2.282
  332TIP3   OH2  880   4.430   0.959   2.314
  332TIP3    H1  881   4.429   0.863   2.315
  332TIP3    H2  882   4.410   0.984   2.404
  333TIP3   OH2  883   3.399   0.876   2.483
  333TIP3    H1  884   3.400   0.789   2.442
  333TIP3    H2  885   3.437   0.862   2.570
  334TIP3   OH2  886   3.856   0.529   2.351
  334TIP3    H1  887   3.925   0.463   2.343
  334TIP3    H2  888   3.828   0.545   2.261
  335TIP3   OH2  889   3.936   0.760   2.475
  335TIP3    H1  890   3.903   0.685   2.425
  335TIP3    H2  891   3.861   0.819   2.481
  336TIP3   OH2  892   4.505   2.218   1.213
  336TIP3    H1  893   4.519   2.245   1.304
  336TIP3    H2  894   4.555   2.280   1.161
  337TIP3   OH2  895   4.509   2.264   1.487
  337TIP3    H1  896   4.465   2.180   1.500
  337TIP3    H2  897   4.585   2.261   1.545
  338TIP3   OH2  898   4.537   1.948   2.038
  338TIP3    H1  899   4.467   1.957   2.102
  338TIP3    H2  900   4.584   2.031   2.042
  339TIP3   OH2  901   4.298   1.461   0.676
  339TIP3    H1  902   4.355   1.458   0.600
  339TIP3    H2  903   4.355   1.436   0.749
  340TIP3   OH2  904   4.473   1.385   0.872
  340TIP3    H1  905   4.466   1.295   0.903
  340TIP3    H2  906   4.559   1.414   0.903
  341TIP3   OH2  907   4.544   1.753   1.277
  341TIP3    H1  908   4.527   1.694   1.204
  341TIP3    H2  909   4.563   1.838   1.235
  342TIP3   OH2  910   4.395   2.019   1.552
  342TIP3    H1  911   4.319   2.062   1.592
  342TIP3    H2  912   4.361   1.983   1.470
  343TIP3   OH2  913   4.403   1.152   0.992
  343TIP3    H1  914   4.318   1.123   0.958
  343TIP3    H2  915   4.396   1.140   1.087
  344TIP3   OH2  916   4.544   1.596   1.887
  344TIP3    H1  917   4.624   1.547   1.874
  344TIP3    H2  918   4.535   1.650   1.808
  345TIP3   OH2  919   4.764   1.431   1.879
  345TIP3    H1  920   4.705   1.370   1.834
  345TIP3    H2  921   4.833   1.375   1.913
  346TIP3   OH2  922   4.381   1.121   1.259
  346TIP3    H1  923   4.450   1.055   1.254
  346TIP3    H2  924   4.337   1.102   1.342
  347TIP3   OH2  925   4.590   1.308   1.717
  347TIP3    H1  926   4.500   1.321   1.745
  347TIP3    H2  927   4.595   1.351   1.631
  348TIP3   OH2  928   3.136   0.951   2.483
  348TIP3    H1  929   3.230   0.935   2.469
  348TIP3    H2  930   3.107   0.878   2.537
  349TIP3   OH2  931   4.976   0.808   2.185
  349TIP3    H1  932   5.037   0.752   2.137
  349TIP3    H2  933   4.948   0.874   2.122
  350TIP3   OH2  934   4.839   0.983   2.024
  350TIP3    H1  935   4.767   1.023   2.072
  350TIP3    H2  936   4.799   0.911   1.975
  351TIP3   OH2  937   3.974   2.058   0.916
  351TIP3    H1  938   3.969   2.063   0.820
  351TIP3    H2  939   4.068   2.058   0.935
  352TIP3   OH2  940   3.120   1.921   2.225
  352TIP3    H1  941   3.027   1.902   2.235
  352TIP3    H2  942   3.153   1.925   2.315
  353TIP3   OH2  943   3.285   2.003   1.812
  353TIP3    H1  944   3.249   2.085   1.780
  353TIP3    H2  945   3.377   2.005   1.786
  354TIP3   OH2  946   3.732   2.203   1.908
  354TIP3    H1  947   3.766   2.207   1.997
  354TIP3    H2  948   3.794   2.254   1.856
  355TIP3   OH2  949   3.922   2.354   1.777
  355TIP3    H1  950   3.977   2.305   1.715
  355TIP3    H2  951   3.985   2.405   1.827
  356TIP3   OH2  952   4.735   0.754   1.915
  356TIP3    H1  953   4.657   0.761   1.860
  356TIP3    H2  954   4.758   0.661   1.911
  357TIP3   OH2  955   2.984   2.275   1.927
  357TIP3    H1  956   2.930   2.254   1.851
  357TIP3    H2  957   2.979   2.197   1.982
  358TIP3   OH2  958   3.205   2.256   1.764
  358TIP3    H1  959   3.130   2.275   1.820
  358TIP3    H2  960   3.169   2.260   1.675
  359TIP3   OH2  961   3.691   2.254   1.481
  359TIP3    H1  962   3.628   2.278   1.413
  359TIP3    H2  963   3.699   2.332   1.535
  360TIP3   OH2  964   3.943   2.165   1.516
  360TIP3    H1  965   3.850   2.187   1.511
  360TIP3    H2  966   3.980   2.199   1.435
  361TIP3   OH2  967   4.144   2.363   1.431
  361TIP3    H1  968   4.113   2.443   1.388
  361TIP3    H2  969   4.170   2.305   1.359
  362TIP3   OH2  970   2.852   1.984   1.492
  362TIP3    H1  971   2.886   1.921   1.556
  362TIP3    H2  972   2.924   1.997   1.430
  363TIP3   OH2  973   2.992   1.719   1.432
  363TIP3    H1  974   3.066   1.779   1.443
  363TIP3    H2  975   2.985   1.707   1.337
  364TIP3   OH2  976   3.384   2.029   1.289
  364TIP3    H1  977   3.426   1.943   1.293
  364TIP3    H2  978   3.375   2.056   1.380
  365TIP3   OH2  979   4.450   0.472   1.412
  365TIP3    H1  980   4.520   0.445   1.353
  365TIP3    H2  981   4.370   0.456   1.361
  366TIP3   OH2  982   4.491   0.667   1.141
  366TIP3    H1  983   4.568   0.611   1.157
  366TIP3    H2  984   4.512   0.713   1.060
  367TIP3   OH2  985   4.273   2.180   0.555
  367TIP3    H1  986   4.277   2.091   0.590
  367TIP3    H2  987   4.214   2.175   0.481
  368TIP3   OH2  988   3.402   0.607   2.427
  368TIP3    H1  989   3.375   0.516   2.443
  368TIP3    H2  990   3.495   0.609   2.448
  369TIP3   OH2  991   3.655   0.598   2.534
  369TIP3    H1  992   3.727   0.568   2.478
  369TIP3    H2  993   3.641   0.526   2.595
  370TIP3   OH2  994   4.466   0.681   2.298
  370TIP3    H1  995   4.479   0.657   2.390
  370TIP3    H2  996   4.554   0.678   2.260
  371TIP3   OH2  997   4.399   2.235   1.810
  371TIP3    H1  998   4.326   2.201   1.759
  371TIP3    H2  999   4.384   2.330   1.813
  372TIP3   OH2 1000   5.686   1.683   0.607
  372TIP3    H1 1001   5.645   1.757   0.563
  372TIP3    H2 1002   5.630   1.608   0.585
  373TIP3   OH2 1003   5.669   1.598   0.960
  373TIP3    H1 1004   5.723   1.590   1.039
  373TIP3    H2 1005   5.639   1.509   0.943
  374TIP3   OH2 1006   4.977   1.470   1.310
  374TIP3    H1 1007   5.002   1.419   1.388
  374TIP3    H2 1008   5.059   1.483   1.263
  375TIP3   OH2 1009   5.926   1.907   0.620
  375TIP3    H1 1010   5.900   1.842   0.685
  375TIP3    H2 1011   5.941   1.987   0.670
  376TIP3   OH2 1012   4.955   1.898   1.011
  376TIP3    H1 1013   4.941   1.803   1.020
  376TIP3    H2 1014   5.048   1.907   0.993
  377TIP3   OH2 1015   4.666   1.151   0.927
  377TIP3    H1 1016   4.662   1.182   0.837
  377TIP3    H2 1017   4.575   1.132   0.950
  378TIP3   OH2 1018   4.717   1.452   0.973
  378TIP3    H1 1019   4.773   1.390   1.021
  378TIP3    H2 1020   4.748   1.447   0.883
  379TIP3   OH2 1021   5.582   2.340   0.635
  379TIP3    H1 1022   5.621   2.273   0.578
  379TIP3    H2 1023   5.562   2.294   0.716
  380TIP3   OH2 1024   5.464   1.814   0.958
  380TIP3    H1 1025   5.509   1.736   0.927
  380TIP3    H2 1026   5.534   1.870   0.991
  381TIP3   OH2 1027   6.417   1.188   0.986
  381TIP3    H1 1028   6.460   1.242   1.052
  381TIP3    H2 1029   6.479   1.116   0.969
  382TIP3   OH2 1030   5.908   1.330   1.003
  382TIP3    H1 1031   5.933   1.242   1.031
  382TIP3    H2 1032   5.861   1.317   0.921
  383TIP3   OH2 1033   5.315   0.950   0.842
  383TIP3    H1 1034   5.293   1.037   0.808
  383TIP3    H2 1035   5.245   0.893   0.810
  384TIP3   OH2 1036   4.863   1.246   1.090
  384TIP3    H1 1037   4.950   1.215   1.066
  384TIP3    H2 1038   4.804   1.200   1.031
  385TIP3   OH2 1039   5.330   1.421   0.922
  385TIP3    H1 1040   5.424   1.410   0.938
  385TIP3    H2 1041   5.305   1.343   0.873
  386TIP3   OH2 1042   6.535   1.378   1.148
  386TIP3    H1 1043   6.447   1.414   1.155
  386TIP3    H2 1044   6.580   1.407   1.227
  387TIP3   OH2 1045   5.268   1.022   1.468
  387TIP3    H1 1046   5.216   1.069   1.403
  387TIP3    H2 1047   5.213   1.020   1.546
  388TIP3   OH2 1048   5.565   1.841   0.409
  388TIP3    H1 1049   5.524   1.803   0.331
  388TIP3    H2 1050   5.505   1.911   0.436
  389TIP3   OH2 1051   5.318   1.752   1.187
  389TIP3    H1 1052   5.258   1.823   1.213
  389TIP3    H2 1053   5.360   1.784   1.107
  390TIP3   OH2 1054   5.071   1.105   1.296
  390TIP3    H1 1055   5.077   1.191   1.339
  390TIP3    H2 1056   5.099   1.121   1.206
  391TIP3   OH2 1057   5.150   1.951   1.277
  391TIP3    H1 1058   5.135   2.040   1.244
  391TIP3    H2 1059   5.071   1.932   1.328
  392TIP3   OH2 1060   4.679   1.673   0.511
  392TIP3    H1 1061   4.602   1.701   0.463
  392TIP3    H2 1062   4.723   1.754   0.537
  393TIP3   OH2 1063   5.968   2.148   0.761
  393TIP3    H1 1064   5.884   2.141   0.808
  393TIP3    H2 1065   5.963   2.231   0.715
  394TIP3   OH2 1066   6.222   1.055   1.142
  394TIP3    H1 1067   6.130   1.063   1.117
  394TIP3    H2 1068   6.270   1.107   1.078
  395TIP3   OH2 1069   5.577   0.783   1.152
  395TIP3    H1 1070   5.576   0.688   1.163
  395TIP3    H2 1071   5.508   0.815   1.211
  396TIP3   OH2 1072   5.690   2.172   0.440
  396TIP3    H1 1073   5.737   2.091   0.423
  396TIP3    H2 1074   5.753   2.241   0.420
  397TIP3   OH2 1075   5.820   1.936   0.370
  397TIP3    H1 1076   5.734   1.896   0.384
  397TIP3    H2 1077   5.867   1.923   0.452
  398TIP3   OH2 1078   6.193   2.043   1.106
  398TIP3    H1 1079   6.171   1.971   1.047
  398TIP3    H2 1080   6.178   2.122   1.053
  399TIP3   OH2 1081   5.559   1.503   0.446
  399TIP3    H1 1082   5.471   1.530   0.421
  399TIP3    H2 1083   5.615   1.541   0.378
  400TIP3   OH2 1084   6.336   1.687   0.901
  400TIP3    H1 1085   6.256   1.738   0.907
  400TIP3    H2 1086   6.406   1.749   0.923
  401TIP3   OH2 1087   5.857   1.567   0.420
  401TIP3    H1 1088   5.815   1.616   0.490
  401TIP3    H2 1089   5.887   1.486   0.460
  402TIP3   OH2 1090   6.074   1.578   1.298
  402TIP3    H1 1091   6.070   1.660   1.347
  402TIP3    H2 1092   5.991   1.574   1.251
  403TIP3   OH2 1093   5.072   1.454   0.820
  403TIP3    H1 1094   5.042   1.514   0.752
  403TIP3    H2 1095   5.160   1.484   0.841
  404TIP3   OH2 1096   5.209   1.939   0.896
  404TIP3    H1 1097   5.172   1.923   0.809
  404TIP3    H2 1098   5.293   1.893   0.896
  405TIP3   OH2 1099   5.200   1.509   1.149
  405TIP3    H1 1100   5.239   1.480   1.066
  405TIP3    H2 1101   5.239   1.595   1.165
  406TIP3   OH2 1102   5.742   2.140   0.908
  406TIP3    H1 1103   5.719   2.223   0.950
  406TIP3    H2 1104   5.715   2.073   0.971
  407TIP3   OH2 1105   5.349   2.045   1.446
  407TIP3    H1 1106   5.288   2.103   1.491
  407TIP3    H2 1107   5.293   1.994   1.386
  408TIP3   OH2 1108   5.116   1.615   1.593
  408TIP3    H1 1109   5.117   1.709   1.611
  408TIP3    H2 1110   5.023   1.591   1.596
  409TIP3   OH2 1111   5.428   2.076   0.473
  409TIP3    H1 1112   5.514   2.119   0.465
  409TIP3    H2 1113   5.369   2.132   0.423
  410TIP3   OH2 1114   5.143   2.208   1.526
  410TIP3    H1 1115   5.117   2.217   1.435
  410TIP3    H2 1116   5.061   2.190   1.573
  411TIP3   OH2 1117   4.789   1.379   0.726
  411TIP3    H1 1118   4.793   1.389   0.631
  411TIP3    H2 1119   4.860   1.317   0.745
  412TIP3   OH2 1120   4.736   1.769   1.487
  412TIP3    H1 1121   4.682   1.747   1.412
  412TIP3    H2 1122   4.775   1.686   1.514
  413TIP3   OH2 1123   4.607   1.973   1.123
  413TIP3    H1 1124   4.703   1.979   1.125
  413TIP3    H2 1125   4.577   2.052   1.167
  414TIP3   OH2 1126   6.419   2.396   1.186
  414TIP3    H1 1127   6.423   2.302   1.205
  414TIP3    H2 1128   6.340   2.426   1.231
  415TIP3   OH2 1129   5.537   2.193   1.312
  415TIP3    H1 1130   5.526   2.283   1.342
  415TIP3    H2 1131   5.469   2.144   1.359
  416TIP3   OH2 1132   5.330   2.314   0.291
  416TIP3    H1 1133   5.281   2.283   0.214
  416TIP3    H2 1134   5.289   2.398   0.313
  417TIP3   OH2 1135   4.761   2.270   0.718
  417TIP3    H1 1136   4.820   2.219   0.773
  417TIP3    H2 1137   4.766   2.229   0.632
  418TIP3   OH2 1138   8.789   6.874   7.932
  418TIP3    H1 1139   8.850   6.825   7.877
  418TIP3    H2 1140   8.826   6.868   8.020
  419TIP3   OH2 1141   5.583   2.281   0.200
  419TIP3    H1 1142   5.492   2.281   0.230
  419TIP3    H2 1143   5.631   2.231   0.267
  420TIP3   OH2 1144   6.311   1.514   1.455
  420TIP3    H1 1145   6.226   1.527   1.413
  420TIP3    H2 1146   6.327   1.419   1.447
  421TIP3   OH2 1147   4.935   1.956   1.452
  421TIP3    H1 1148   4.987   1.947   1.532
  421TIP3    H2 1149   4.864   1.892   1.461
  422TIP3   OH2 1150   5.351   0.810   1.313
  422TIP3    H1 1151   5.300   0.828   1.234
  422TIP3    H2 1152   5.323   0.877   1.375
  423TIP3   OH2 1153   5.873   0.892   1.485
  423TIP3    H1 1154   5.946   0.865   1.541
  423TIP3    H2 1155   5.795   0.865   1.533
  424TIP3   OH2 1156   6.058   1.310   1.376
  424TIP3    H1 1157   6.026   1.303   1.466
  424TIP3    H2 1158   6.047   1.402   1.354
  425TIP3   OH2 1159   5.286   1.299   1.301
  425TIP3    H1 1160   5.289   1.344   1.385
  425TIP3    H2 1161   5.254   1.364   1.239
  426TIP3   OH2 1162   5.216   1.211   0.777
  426TIP3    H1 1163   5.140   1.269   0.785
  426TIP3    H2 1164   5.226   1.199   0.683
  427TIP3   OH2 1165   5.604   1.261   0.570
  427TIP3    H1 1166   5.565   1.348   0.559
  427TIP3    H2 1167   5.641   1.240   0.484
  428TIP3   OH2 1168   5.806   1.513   1.601
  428TIP3    H1 1169   5.777   1.446   1.663
  428TIP3    H2 1170   5.899   1.525   1.620
  429TIP3   OH2 1171   5.811   1.259   0.751
  429TIP3    H1 1172   5.735   1.276   0.696
  429TIP3    H2 1173   5.810   1.165   0.765
  430TIP3   OH2 1174   5.063   1.301   1.511
  430TIP3    H1 1175   5.115   1.361   1.564
  430TIP3    H2 1176   5.063   1.219   1.562
  431TIP3   OH2 1177   4.781   0.710   1.069
  431TIP3    H1 1178   4.837   0.696   1.145
  431TIP3    H2 1179   4.830   0.673   0.996
  432TIP3   OH2 1180   5.828   1.520   1.179
  432TIP3    H1 1181   5.860   1.455   1.116
  432TIP3    H2 1182   5.785   1.468   1.247
  433TIP3   OH2 1183   5.588   1.063   0.885
  433TIP3    H1 1184   5.503   1.021   0.896
  433TIP3    H2 1185   5.650   1.003   0.925
  434TIP3   OH2 1186   4.933   1.151   0.780
  434TIP3    H1 1187   4.918   1.092   0.853
  434TIP3    H2 1188   4.995   1.105   0.723
  435TIP3   OH2 1189   5.084   0.994   0.610
  435TIP3    H1 1190   5.165   0.969   0.565
  435TIP3    H2 1191   5.043   1.058   0.553
  436TIP3   OH2 1192   5.949   1.067   1.077
  436TIP3    H1 1193   5.911   1.081   1.164
  436TIP3    H2 1194   5.895   0.997   1.039
  437TIP3   OH2 1195   6.140   2.750   1.271
  437TIP3    H1 1196   6.137   2.766   1.177
  437TIP3    H2 1197   6.219   2.795   1.301
  438TIP3   OH2 1198   5.087   1.878   1.683
  438TIP3    H1 1199   5.169   1.894   1.730
  438TIP3    H2 1200   5.019   1.881   1.751
  439TIP3   OH2 1201   5.583   1.329   0.968
  439TIP3    H1 1202   5.596   1.248   0.918
  439TIP3    H2 1203   5.576   1.299   1.059
  440TIP3   OH2 1204   5.106   0.772   0.771
  440TIP3    H1 1205   5.023   0.733   0.798
  440TIP3    H2 1206   5.082   0.836   0.704
  441TIP3   OH2 1207   5.537   1.234   1.222
  441TIP3    H1 1208   5.448   1.255   1.248
  441TIP3    H2 1209   5.593   1.287   1.279
  442TIP3   OH2 1210   5.308   1.576   0.386
  442TIP3    H1 1211   5.223   1.531   0.385
  442TIP3    H2 1212   5.297   1.647   0.448
  443TIP3   OH2 1213   6.121   1.854   0.915
  443TIP3    H1 1214   6.134   1.913   0.841
  443TIP3    H2 1215   6.040   1.808   0.895
  444TIP3   OH2 1216   5.664   1.924   1.355
  444TIP3    H1 1217   5.716   1.911   1.434
  444TIP3    H2 1218   5.626   2.011   1.365
  445TIP3   OH2 1219   4.962   1.623   1.026
  445TIP3    H1 1220   4.978   1.560   0.955
  445TIP3    H2 1221   5.005   1.584   1.102
  446TIP3   OH2 1222   5.437   1.753   0.173
  446TIP3    H1 1223   5.419   1.847   0.168
  446TIP3    H2 1224   5.354   1.713   0.196
  447TIP3   OH2 1225   4.852   1.555   1.634
  447TIP3    H1 1226   4.858   1.538   1.728
  447TIP3    H2 1227   4.780   1.500   1.604
  448TIP3   OH2 1228   5.585   1.681   1.616
  448TIP3    H1 1229   5.539   1.663   1.535
  448TIP3    H2 1230   5.667   1.632   1.609
  449TIP3   OH2 1231   5.805   2.213   1.234
  449TIP3    H1 1232   5.710   2.199   1.239
  449TIP3    H2 1233   5.828   2.249   1.320
  450TIP3   OH2 1234   6.434   2.112   1.213
  450TIP3    H1 1235   6.340   2.103   1.200
  450TIP3    H2 1236   6.472   2.092   1.128
  451TIP3   OH2 1237   5.894   2.068   0.120
  451TIP3    H1 1238   5.882   2.032   0.208
  451TIP3    H2 1239   5.854   2.002   0.062
  452TIP3   OH2 1240   5.905   1.707   0.829
  452TIP3    H1 1241   5.813   1.688   0.849
  452TIP3    H2 1242   5.938   1.625   0.790
  453TIP3   OH2 1243   5.057   1.946   0.661
  453TIP3    H1 1244   5.056   2.029   0.613
  453TIP3    H2 1245   4.966   1.916   0.658
  454TIP3   OH2 1246   4.643   1.157   0.389
  454TIP3    H1 1247   4.724   1.173   0.340
  454TIP3    H2 1248   4.578   1.213   0.347
  455TIP3   OH2 1249   5.220   1.733   0.592
  455TIP3    H1 1250   5.199   1.826   0.599
  455TIP3    H2 1251   5.140   1.688   0.619
  456TIP3   OH2 1252   5.358   2.265   1.104
  456TIP3    H1 1253   5.393   2.340   1.056
  456TIP3    H2 1254   5.432   2.233   1.156
  457TIP3   OH2 1255   5.009   2.169   0.510
  457TIP3    H1 1256   4.917   2.173   0.486
  457TIP3    H2 1257   5.036   2.261   0.517
  458TIP3   OH2 1258   5.692   1.923   1.080
  458TIP3    H1 1259   5.680   1.922   1.175
  458TIP3    H2 1260   5.769   1.868   1.065
  459TIP3   OH2 1261   5.725   1.856  -0.007
  459TIP3    H1 1262   5.777   1.801   0.052
  459TIP3    H2 1263   5.644   1.871   0.041
  460TIP3   OH2 1264   5.955   2.421   1.112
  460TIP3    H1 1265   5.885   2.359   1.132
  460TIP3    H2 1266   5.920   2.474   1.040
  461TIP3   OH2 1267   9.251   6.892   7.776
  461TIP3    H1 1268   9.313   6.963   7.759
  461TIP3    H2 1269   9.174   6.936   7.812
  462TIP3   OH2 1270   5.055   1.052   1.644
  462TIP3    H1 1271   4.963   1.079   1.652
  462TIP3    H2 1272   5.057   0.964   1.683
  463TIP3   OH2 1273   5.854   1.727   0.193
  463TIP3    H1 1274   5.864   1.651   0.250
  463TIP3    H2 1275   5.862   1.802   0.252
  464TIP3   OH2 1276   4.802   2.152   1.294
  464TIP3    H1 1277   4.850   2.086   1.343
  464TIP3    H2 1278   4.823   2.235   1.338
  465TIP3   OH2 1279   8.390   6.409   7.874
  465TIP3    H1 1280   8.432   6.325   7.857
  465TIP3    H2 1281   8.320   6.389   7.936
  466TIP3   OH2 1282   5.156   1.807   0.224
  466TIP3    H1 1283   5.091   1.766   0.280
  466TIP3    H2 1284   5.144   1.901   0.236
  467TIP3   OH2 1285   4.766   1.424   0.461
  467TIP3    H1 1286   4.740   1.515   0.479
  467TIP3    H2 1287   4.780   1.422   0.367
  468TIP3   OH2 1288   5.863   1.119   1.333
  468TIP3    H1 1289   5.944   1.165   1.354
  468TIP3    H2 1290   5.863   1.042   1.390
  469TIP3   OH2 1291   5.388   2.019   0.173
  469TIP3    H1 1292   5.309   2.040   0.223
  469TIP3    H2 1293   5.360   2.021   0.082
  470TIP3   OH2 1294   5.650   0.989   0.615
  470TIP3    H1 1295   5.623   1.080   0.600
  470TIP3    H2 1296   5.618   0.969   0.703
  471TIP3   OH2 1297   5.724   1.361   1.378
  471TIP3    H1 1298   5.751   1.403   1.459
  471TIP3    H2 1299   5.769   1.276   1.378
  472TIP3   OH2 1300   5.139   2.081   0.284
  472TIP3    H1 1301   5.091   2.141   0.227
  472TIP3    H2 1302   5.105   2.099   0.372
  473TIP3   OH2 1303   6.319   1.246   1.348
  473TIP3    H1 1304   6.224   1.260   1.354
  473TIP3    H2 1305   6.327   1.161   1.304
  474TIP3   OH2 1306   6.011   1.456   0.733
  474TIP3    H1 1307   5.939   1.393   0.732
  474TIP3    H2 1308   6.073   1.420   0.797
  475TIP3   OH2 1309   5.977   2.416   0.680
  475TIP3    H1 1310   5.935   2.468   0.612
  475TIP3    H2 1311   6.071   2.433   0.669
  476TIP3   OH2 1312   5.034   0.626   1.186
  476TIP3    H1 1313   5.005   0.583   1.106
  476TIP3    H2 1314   5.119   0.585   1.205
  477TIP3   OH2 1315   4.783   1.915   0.578
  477TIP3    H1 1316   4.704   1.960   0.610
  477TIP3    H2 1317   4.804   1.960   0.496
  478TIP3   OH2 1318   4.773   2.454   1.688
  478TIP3    H1 1319   4.858   2.457   1.732
  478TIP3    H2 1320   4.748   2.362   1.692
  479TIP3   OH2 1321   5.243   2.367   1.726
  479TIP3    H1 1322   5.334   2.339   1.737
  479TIP3    H2 1323   5.211   2.315   1.652
  480TIP3   OH2 1324   8.560   6.619   7.922
  480TIP3    H1 1325   8.497   6.549   7.906
  480TIP3    H2 1326   8.602   6.634   7.837
  481TIP3   OH2 1327   5.860   2.310   1.484
  481TIP3    H1 1328   5.874   2.239   1.548
  481TIP3    H2 1329   5.933   2.370   1.498
  482TIP3   OH2 1330   8.994   6.711   7.824
  482TIP3    H1 1331   9.003   6.625   7.867
  482TIP3    H2 1332   9.084   6.738   7.805
  483TIP3   OH2 1333   4.893   1.864   1.884
  483TIP3    H1 1334   4.913   1.771   1.887
  483TIP3    H2 1335   4.810   1.870   1.835
  484TIP3   OH2 1336   5.502   1.947   1.653
  484TIP3    H1 1337   5.457   1.966   1.570
  484TIP3    H2 1338   5.543   1.862   1.639
  485TIP3   OH2 1339   8.632   6.279   7.837
  485TIP3    H1 1340   8.636   6.356   7.893
  485TIP3    H2 1341   8.724   6.251   7.828
  486TIP3   OH2 1342   5.971   1.988   1.263
  486TIP3    H1 1343   6.048   2.016   1.213
  486TIP3    H2 1344   5.907   2.057   1.248
  487TIP3   OH2 1345   5.014   1.614   1.877
  487TIP3    H1 1346   5.094   1.595   1.827
  487TIP3    H2 1347   5.045   1.627   1.967
  488TIP3   OH2 1348   5.067   1.456   0.382
  488TIP3    H1 1349   5.014   1.536   0.374
  488TIP3    H2 1350   5.066   1.418   0.294
  489TIP3   OH2 1351   5.325   1.460   1.517
  489TIP3    H1 1352   5.259   1.520   1.550
  489TIP3    H2 1353   5.385   1.515   1.467
  490TIP3   OH2 1354   5.855   1.861   1.612
  490TIP3    H1 1355   5.928   1.827   1.561
  490TIP3    H2 1356   5.853   1.806   1.691
  491TIP3   OH2 1357   5.470   1.265   1.651
  491TIP3    H1 1358   5.495   1.195   1.591
  491TIP3    H2 1359   5.424   1.329   1.597
  492TIP3   OH2 1360   5.533   1.068   1.455
  492TIP3    H1 1361   5.555   1.098   1.367
  492TIP3    H2 1362   5.438   1.054   1.452
  493TIP3   OH2 1363   5.485   1.621   1.363
  493TIP3    H1 1364   5.569   1.621   1.318
  493TIP3    H2 1365   5.426   1.671   1.307
  494TIP3   OH2 1366   6.070   1.540   1.698
  494TIP3    H1 1367   6.107   1.452   1.710
  494TIP3    H2 1368   6.146   1.597   1.691
  495TIP3   OH2 1369   6.093   1.819   1.436
  495TIP3    H1 1370   6.039   1.879   1.384
  495TIP3    H2 1371   6.182   1.833   1.404
  496TIP3   OH2 1372   5.348   1.352   1.888
  496TIP3    H1 1373   5.284   1.284   1.910
  496TIP3    H2 1374   5.382   1.326   1.802
  497TIP3   OH2 1375   5.612   0.818   1.550
  497TIP3    H1 1376   5.580   0.900   1.514
  497TIP3    H2 1377   5.540   0.756   1.536
  498TIP3   OH2 1378   5.724   1.305   1.759
  498TIP3    H1 1379   5.721   1.290   1.853
  498TIP3    H2 1380   5.635   1.285   1.728
  499TIP3   OH2 1381   5.963   1.257   1.621
  499TIP3    H1 1382   5.886   1.254   1.678
  499TIP3    H2 1383   6.035   1.229   1.677
  500TIP3   OH2 1384   6.198   1.224   1.766
  500TIP3    H1 1385   6.212   1.130   1.778
  500TIP3    H2 1386   6.191   1.259   1.855
  501TIP3   OH2 1387   5.197   1.131   1.961
  501TIP3    H1 1388   5.196   1.042   1.926
  501TIP3    H2 1389   5.234   1.122   2.049
  502TIP3   OH2 1390   5.661   0.804   1.818
  502TIP3    H1 1391   5.733   0.742   1.815
  502TIP3    H2 1392   5.633   0.812   1.726
  503TIP3   OH2 1393   5.753   1.023   1.956
  503TIP3    H1 1394   5.725   0.950   1.902
  503TIP3    H2 1395   5.678   1.082   1.958
  504TIP3   OH2 1396   5.016   2.283   0.127
  504TIP3    H1 1397   5.094   2.308   0.078
  504TIP3    H2 1398   4.946   2.338   0.090
  505TIP3   OH2 1399   4.449   1.616   0.175
  505TIP3    H1 1400   4.541   1.592   0.169
  505TIP3    H2 1401   4.405   1.557   0.114
  506TIP3   OH2 1402   4.364   2.322   0.769
  506TIP3    H1 1403   4.347   2.266   0.694
  506TIP3    H2 1404   4.416   2.268   0.829
  507TIP3   OH2 1405   4.528   2.160   0.906
  507TIP3    H1 1406   4.506   2.089   0.965
  507TIP3    H2 1407   4.606   2.200   0.945
  508TIP3   OH2 1408   6.246   2.476   0.683
  508TIP3    H1 1409   6.267   2.504   0.772
  508TIP3    H2 1410   6.301   2.531   0.627
  509TIP3   OH2 1411   6.268   2.504   0.962
  509TIP3    H1 1412   6.222   2.420   0.956
  509TIP3    H2 1413   6.339   2.487   1.025
  510TIP3   OH2 1414   6.328   2.203   1.525
  510TIP3    H1 1415   6.255   2.211   1.587
  510TIP3    H2 1416   6.373   2.287   1.530
  511TIP3   OH2 1417   6.355   1.975   0.763
  511TIP3    H1 1418   6.365   1.919   0.686
  511TIP3    H2 1419   6.347   2.063   0.728
  512TIP3   OH2 1420   6.127   2.264   0.960
  512TIP3    H1 1421   6.060   2.310   1.011
  512TIP3    H2 1422   6.078   2.227   0.886
  513TIP3   OH2 1423   6.250   1.534   0.617
  513TIP3    H1 1424   6.242   1.522   0.522
  513TIP3    H2 1425   6.164   1.510   0.651
  514TIP3   OH2 1426   4.717   1.509   1.241
  514TIP3    H1 1427   4.714   1.522   1.146
  514TIP3    H2 1428   4.811   1.504   1.260
  515TIP3   OH2 1429   6.350   1.858   1.339
  515TIP3    H1 1430   6.412   1.787   1.321
  515TIP3    H2 1431   6.380   1.930   1.283
  516TIP3   OH2 1432   6.512   1.637   1.319
  516TIP3    H1 1433   6.441   1.595   1.367
  516TIP3    H2 1434   6.590   1.588   1.344
  517TIP3   OH2 1435   6.229   1.369   0.883
  517TIP3    H1 1436   6.284   1.291   0.891
  517TIP3    H2 1437   6.227   1.406   0.971
  518TIP3   OH2 1438   6.283   1.502   1.120
  518TIP3    H1 1439   6.213   1.524   1.181
  518TIP3    H2 1440   6.293   1.581   1.066
  519TIP3   OH2 1441   4.940   1.216   1.923
  519TIP3    H1 1442   5.034   1.200   1.924
  519TIP3    H2 1443   4.902   1.142   1.969
  520TIP3   OH2 1444   6.742   1.102   1.648
  520TIP3    H1 1445   6.816   1.046   1.626
  520TIP3    H2 1446   6.717   1.143   1.566
  521TIP3   OH2 1447   4.842   0.959   1.239
  521TIP3    H1 1448   4.884   0.890   1.290
  521TIP3    H2 1449   4.894   1.037   1.257
  522TIP3   OH2 1450   4.721   1.224   1.328
  522TIP3    H1 1451   4.761   1.227   1.241
  522TIP3    H2 1452   4.776   1.281   1.382
  523TIP3   OH2 1453   6.593   1.216   1.452
  523TIP3    H1 1454   6.530   1.250   1.516
  523TIP3    H2 1455   6.546   1.145   1.408
  524TIP3   OH2 1456   5.859   2.360   0.355
  524TIP3    H1 1457   5.895   2.363   0.266
  524TIP3    H2 1458   5.874   2.448   0.390
  525TIP3   OH2 1459   4.917   0.805   1.709
  525TIP3    H1 1460   4.868   0.792   1.791
  525TIP3    H2 1461   4.850   0.806   1.641
  526TIP3   OH2 1462   4.928   2.176   1.697
  526TIP3    H1 1463   4.833   2.166   1.696
  526TIP3    H2 1464   4.952   2.166   1.789
  527TIP3   OH2 1465   5.126   2.228   1.246
  527TIP3    H1 1466   5.075   2.303   1.215
  527TIP3    H2 1467   5.211   2.236   1.203
  528TIP3   OH2 1468   5.516   2.459   1.388
  528TIP3    H1 1469   5.554   2.452   1.475
  528TIP3    H2 1470   5.579   2.513   1.339
  529TIP3   OH2 1471   5.709   2.613   1.261
  529TIP3    H1 1472   5.772   2.560   1.212
  529TIP3    H2 1473   5.763   2.670   1.315
  530TIP3   OH2 1474   6.492   0.964   1.375
  530TIP3    H1 1475   6.414   0.918   1.346
  530TIP3    H2 1476   6.565   0.906   1.353
  531TIP3   OH2 1477   4.786   2.469   1.302
  531TIP3    H1 1478   4.694   2.484   1.279
  531TIP3    H2 1479   4.806   2.536   1.367
  532TIP3   OH2 1480   5.014   2.459   1.148
  532TIP3    H1 1481   4.931   2.463   1.195
  532TIP3    H2 1482   4.993   2.484   1.058
  533TIP3   OH2 1483   5.430   2.476   0.939
  533TIP3    H1 1484   5.357   2.487   0.877
  533TIP3    H2 1485   5.440   2.562   0.979
  534TIP3   OH2 1486   5.689   2.402   0.982
  534TIP3    H1 1487   5.598   2.425   0.965
  534TIP3    H2 1488   5.740   2.469   0.936
  535TIP3   OH2 1489   5.887   2.576   0.886
  535TIP3    H1 1490   5.888   2.664   0.849
  535TIP3    H2 1491   5.916   2.519   0.814
  536TIP3   OH2 1492   4.738   2.267   1.053
  536TIP3    H1 1493   4.760   2.235   1.140
  536TIP3    H2 1494   4.807   2.231   0.996
  537TIP3   OH2 1495   4.922   2.144   0.898
  537TIP3    H1 1496   4.928   2.055   0.932
  537TIP3    H2 1497   5.013   2.173   0.890
  538TIP3   OH2 1498   5.190   2.218   0.889
  538TIP3    H1 1499   5.205   2.125   0.874
  538TIP3    H2 1500   5.242   2.238   0.967
  539TIP3   OH2 1501   5.769   0.876   0.985
  539TIP3    H1 1502   5.705   0.848   1.050
  539TIP3    H2 1503   5.792   0.796   0.938
  540TIP3   OH2 1504   4.945   0.507   0.956
  540TIP3    H1 1505   4.871   0.452   0.928
  540TIP3    H2 1506   5.020   0.449   0.952
  541TIP3   OH2 1507   4.519   2.074   0.336
  541TIP3    H1 1508   4.438   2.124   0.344
  541TIP3    H2 1509   4.577   2.131   0.285
  542TIP3   OH2 1510   8.525   6.884   8.002
  542TIP3    H1 1511   8.612   6.912   7.974
  542TIP3    H2 1512   8.523   6.790   7.983
  543TIP3   OH2 1513   5.954   2.337   0.095
  543TIP3    H1 1514   5.941   2.242   0.096
  543TIP3    H2 1515   5.902   2.368   0.021
  544TIP3   OH2 1516   5.215   0.858   1.914
  544TIP3    H1 1517   5.178   0.784   1.962
  544TIP3    H2 1518   5.306   0.863   1.943
  545TIP3   OH2 1519   5.468   0.849   2.014
  545TIP3    H1 1520   5.536   0.837   1.948
  545TIP3    H2 1521   5.477   0.772   2.071
  546TIP3   OH2 1522   7.940   6.674   7.977
  546TIP3    H1 1523   7.866   6.725   8.010
  546TIP3    H2 1524   7.912   6.583   7.984
  547TIP3   OH2 1525   6.258   0.958   1.796
  547TIP3    H1 1526   6.275   0.923   1.883
  547TIP3    H2 1527   6.343   0.955   1.751
  548TIP3   OH2 1528   6.173   2.475   1.279
  548TIP3    H1 1529   6.099   2.447   1.226
  548TIP3    H2 1530   6.162   2.570   1.286
  549TIP3   OH2 1531   6.734   1.761   0.806
  549TIP3    H1 1532   6.760   1.675   0.839
  549TIP3    H2 1533   6.781   1.824   0.861
  550TIP3   OH2 1534   6.728   2.173   0.501
  550TIP3    H1 1535   6.711   2.082   0.525
  550TIP3    H2 1536   6.819   2.173   0.472
  551TIP3   OH2 1537   7.322   2.549   0.041
  551TIP3    H1 1538   7.328   2.455   0.057
  551TIP3    H2 1539   7.341   2.589   0.126
  552TIP3   OH2 1540   7.096   2.013   0.686
  552TIP3    H1 1541   7.028   2.072   0.719
  552TIP3    H2 1542   7.136   2.061   0.613
  553TIP3   OH2 1543   6.921   2.206   0.771
  553TIP3    H1 1544   6.912   2.293   0.732
  553TIP3    H2 1545   6.842   2.193   0.823
  554TIP3   OH2 1546   7.978   2.222   0.609
  554TIP3    H1 1547   7.947   2.193   0.524
  554TIP3    H2 1548   7.933   2.305   0.624
  555TIP3   OH2 1549   6.969   2.199   0.355
  555TIP3    H1 1550   6.913   2.193   0.278
  555TIP3    H2 1551   7.056   2.176   0.324
  556TIP3   OH2 1552   7.364   2.360   0.355
  556TIP3    H1 1553   7.424   2.434   0.348
  556TIP3    H2 1554   7.383   2.321   0.440
  557TIP3   OH2 1555   7.109   2.300   0.952
  557TIP3    H1 1556   7.046   2.360   0.991
  557TIP3    H2 1557   7.058   2.249   0.889
  558TIP3   OH2 1558   6.859   1.897   1.015
  558TIP3    H1 1559   6.877   1.982   1.054
  558TIP3    H2 1560   6.781   1.865   1.059
  559TIP3   OH2 1561   6.906   2.472   1.012
  559TIP3    H1 1562   6.882   2.477   0.919
  559TIP3    H2 1563   6.824   2.456   1.057
  560TIP3   OH2 1564   6.528   2.020   0.975
  560TIP3    H1 1565   6.470   1.998   0.903
  560TIP3    H2 1566   6.559   1.936   1.008
  561TIP3   OH2 1567   6.366   2.226   0.645
  561TIP3    H1 1568   6.455   2.257   0.657
  561TIP3    H2 1569   6.311   2.301   0.666
  562TIP3   OH2 1570   8.311   2.717   0.630
  562TIP3    H1 1571   8.362   2.656   0.578
  562TIP3    H2 1572   8.222   2.712   0.593
  563TIP3   OH2 1573   7.275   2.466   0.809
  563TIP3    H1 1574   7.268   2.556   0.840
  563TIP3    H2 1575   7.212   2.417   0.862
  564TIP3   OH2 1576   6.540   2.447   0.141
  564TIP3    H1 1577   6.592   2.435   0.220
  564TIP3    H2 1578   6.499   2.362   0.126
  565TIP3   OH2 1579   6.708   2.224   0.942
  565TIP3    H1 1580   6.760   2.215   1.021
  565TIP3    H2 1581   6.640   2.157   0.949
  566TIP3   OH2 1582   7.542   1.832   1.093
  566TIP3    H1 1583   7.529   1.759   1.153
  566TIP3    H2 1584   7.596   1.795   1.023
  567TIP3   OH2 1585   6.828   1.533   0.928
  567TIP3    H1 1586   6.912   1.575   0.946
  567TIP3    H2 1587   6.827   1.456   0.985
  568TIP3   OH2 1588   7.897   3.135   0.810
  568TIP3    H1 1589   7.889   3.134   0.715
  568TIP3    H2 1590   7.982   3.093   0.827
  569TIP3   OH2 1591   6.865   2.132   1.167
  569TIP3    H1 1592   6.947   2.146   1.213
  569TIP3    H2 1593   6.798   2.135   1.235
  570TIP3   OH2 1594   7.430   2.080   0.833
  570TIP3    H1 1595   7.458   2.036   0.913
  570TIP3    H2 1596   7.436   2.173   0.853
  571TIP3   OH2 1597   6.722   1.893   0.558
  571TIP3    H1 1598   6.797   1.866   0.506
  571TIP3    H2 1599   6.739   1.858   0.645
  572TIP3   OH2 1600   6.626   1.815   1.144
  572TIP3    H1 1601   6.682   1.840   1.217
  572TIP3    H2 1602   6.581   1.736   1.173
  573TIP3   OH2 1603   7.295   1.938   1.106
  573TIP3    H1 1604   7.252   1.910   1.025
  573TIP3    H2 1605   7.378   1.891   1.107
  574TIP3   OH2 1606   7.530   2.479   0.635
  574TIP3    H1 1607   7.489   2.398   0.606
  574TIP3    H2 1608   7.551   2.464   0.727
  575TIP3   OH2 1609   8.379   2.277   0.611
  575TIP3    H1 1610   8.301   2.327   0.589
  575TIP3    H2 1611   8.358   2.186   0.589
  576TIP3   OH2 1612   6.808   2.205   0.138
  576TIP3    H1 1613   6.814   2.281   0.080
  576TIP3    H2 1614   6.722   2.168   0.120
  577TIP3   OH2 1615   7.130   2.513   0.579
  577TIP3    H1 1616   7.161   2.593   0.537
  577TIP3    H2 1617   7.197   2.491   0.643
  578TIP3   OH2 1618   0.239   7.055   7.992
  578TIP3    H1 1619   0.152   7.068   8.029
  578TIP3    H2 1620   0.272   7.144   7.979
  579TIP3   OH2 1621   7.477   2.205   0.572
  579TIP3    H1 1622   7.454   2.156   0.651
  579TIP3    H2 1623   7.516   2.140   0.513
  580TIP3   OH2 1624   7.741   2.631   0.549
  580TIP3    H1 1625   7.677   2.568   0.581
  580TIP3    H2 1626   7.695   2.680   0.481
  581TIP3   OH2 1627   6.813   1.315   1.098
  581TIP3    H1 1628   6.723   1.323   1.127
  581TIP3    H2 1629   6.857   1.266   1.167
  582TIP3   OH2 1630   6.565   2.423   0.759
  582TIP3    H1 1631   6.620   2.366   0.813
  582TIP3    H2 1632   6.581   2.511   0.792
  583TIP3   OH2 1633   7.748   2.678   0.170
  583TIP3    H1 1634   7.701   2.723   0.100
  583TIP3    H2 1635   7.832   2.654   0.131
  584TIP3   OH2 1636   6.418   2.207   0.113
  584TIP3    H1 1637   6.357   2.203   0.187
  584TIP3    H2 1638   6.361   2.214   0.036
  585TIP3   OH2 1639   6.570   2.718   1.167
  585TIP3    H1 1640   6.646   2.729   1.225
  585TIP3    H2 1641   6.567   2.624   1.150
  586TIP3   OH2 1642   7.004   2.643   1.203
  586TIP3    H1 1643   7.086   2.600   1.226
  586TIP3    H2 1644   6.970   2.593   1.129
  587TIP3   OH2 1645   7.681   2.493   1.009
  587TIP3    H1 1646   7.667   2.455   1.096
  587TIP3    H2 1647   7.760   2.545   1.018
  588TIP3   OH2 1648   6.668   2.122   1.363
  588TIP3    H1 1649   6.687   2.031   1.386
  588TIP3    H2 1650   6.580   2.120   1.327
  589TIP3   OH2 1651   7.279   2.214   1.144
  589TIP3    H1 1652   7.226   2.239   1.069
  589TIP3    H2 1653   7.300   2.122   1.130
  590TIP3   OH2 1654   7.716   2.183   0.779
  590TIP3    H1 1655   7.769   2.261   0.759
  590TIP3    H2 1656   7.630   2.218   0.801
  591TIP3   OH2 1657   6.802   1.855   1.353
  591TIP3    H1 1658   6.883   1.810   1.326
  591TIP3    H2 1659   6.818   1.880   1.444
  592TIP3   OH2 1660   7.051   1.697   0.980
  592TIP3    H1 1661   6.990   1.770   0.998
  592TIP3    H2 1662   7.120   1.736   0.926
  593TIP3   OH2 1663   7.565   2.101   1.117
  593TIP3    H1 1664   7.647   2.095   1.069
  593TIP3    H2 1665   7.540   2.010   1.134
  594TIP3   OH2 1666   7.214   1.547   1.144
  594TIP3    H1 1667   7.288   1.521   1.089
  594TIP3    H2 1668   7.153   1.591   1.085
  595TIP3   OH2 1669   7.239   1.849   0.849
  595TIP3    H1 1670   7.328   1.869   0.819
  595TIP3    H2 1671   7.182   1.901   0.792
  596TIP3   OH2 1672   7.940   1.741   1.113
  596TIP3    H1 1673   7.973   1.657   1.142
  596TIP3    H2 1674   7.884   1.771   1.184
  597TIP3   OH2 1675   7.801   2.055   0.999
  597TIP3    H1 1676   7.775   2.092   0.915
  597TIP3    H2 1677   7.849   1.976   0.976
  598TIP3   OH2 1678   7.103   1.605   1.392
  598TIP3    H1 1679   7.038   1.538   1.415
  598TIP3    H2 1680   7.129   1.584   1.302
  599TIP3   OH2 1681   7.430   1.667   1.280
  599TIP3    H1 1682   7.420   1.650   1.373
  599TIP3    H2 1683   7.353   1.627   1.240
  600TIP3   OH2 1684   6.953   1.384   1.461
  600TIP3    H1 1685   6.960   1.295   1.428
  600TIP3    H2 1686   6.991   1.380   1.549
  601TIP3   OH2 1687   7.507   1.182   1.440
  601TIP3    H1 1688   7.463   1.188   1.355
  601TIP3    H2 1689   7.543   1.269   1.456
  602TIP3   OH2 1690   6.160   2.490   0.189
  602TIP3    H1 1691   6.097   2.433   0.144
  602TIP3    H2 1692   6.206   2.432   0.250
  603TIP3   OH2 1693   6.301   2.338   0.373
  603TIP3    H1 1694   6.293   2.270   0.439
  603TIP3    H2 1695   6.359   2.403   0.413
  604TIP3   OH2 1696   8.035   2.725   0.152
  604TIP3    H1 1697   7.978   2.787   0.198
  604TIP3    H2 1698   8.099   2.780   0.107
  605TIP3   OH2 1699   8.074   2.743   0.481
  605TIP3    H1 1700   8.053   2.662   0.434
  605TIP3    H2 1701   8.138   2.787   0.424
  606TIP3   OH2 1702   7.934   2.582   1.029
  606TIP3    H1 1703   7.939   2.487   1.026
  606TIP3    H2 1704   8.025   2.611   1.033
  607TIP3   OH2 1705   7.942   2.501   0.429
  607TIP3    H1 1706   7.872   2.546   0.476
  607TIP3    H2 1707   7.897   2.445   0.365
  608TIP3   OH2 1708   6.505   1.712   0.660
  608TIP3    H1 1709   6.523   1.755   0.577
  608TIP3    H2 1710   6.582   1.730   0.713
  609TIP3   OH2 1711   6.702   1.450   1.374
  609TIP3    H1 1712   6.795   1.446   1.399
  609TIP3    H2 1713   6.664   1.370   1.410
  610TIP3   OH2 1714   6.526   1.459   0.824
  610TIP3    H1 1715   6.619   1.447   0.806
  610TIP3    H2 1716   6.513   1.417   0.909
  611TIP3   OH2 1717   6.689   2.444   1.185
  611TIP3    H1 1718   6.597   2.417   1.182
  611TIP3    H2 1719   6.713   2.436   1.278
  612TIP3   OH2 1720   6.902   2.479   0.729
  612TIP3    H1 1721   6.852   2.554   0.698
  612TIP3    H2 1722   6.986   2.484   0.682
  613TIP3   OH2 1723   7.291   2.720   0.907
  613TIP3    H1 1724   7.346   2.695   0.981
  613TIP3    H2 1725   7.336   2.795   0.868
  614TIP3   OH2 1726   7.423   2.939   0.805
  614TIP3    H1 1727   7.462   2.879   0.741
  614TIP3    H2 1728   7.493   3.002   0.824
  615TIP3   OH2 1729   6.571   2.713   0.791
  615TIP3    H1 1730   6.481   2.732   0.767
  615TIP3    H2 1731   6.595   2.783   0.851
  616TIP3   OH2 1732   6.793   2.708   0.629
  616TIP3    H1 1733   6.710   2.713   0.676
  616TIP3    H2 1734   6.770   2.734   0.539
  617TIP3   OH2 1735   7.184   2.747   0.449
  617TIP3    H1 1736   7.112   2.772   0.390
  617TIP3    H2 1737   7.205   2.828   0.496
  618TIP3   OH2 1738   7.374   2.696   0.262
  618TIP3    H1 1739   7.312   2.710   0.334
  618TIP3    H2 1740   7.460   2.708   0.301
  619TIP3   OH2 1741   7.613   2.805   0.380
  619TIP3    H1 1742   7.589   2.897   0.366
  619TIP3    H2 1743   7.670   2.783   0.307
  620TIP3   OH2 1744   6.477   2.515   0.511
  620TIP3    H1 1745   6.503   2.491   0.600
  620TIP3    H2 1746   6.549   2.485   0.456
  621TIP3   OH2 1747   6.683   2.412   0.373
  621TIP3    H1 1748   6.692   2.326   0.414
  621TIP3    H2 1749   6.772   2.446   0.369
  622TIP3   OH2 1750   6.951   2.481   0.371
  622TIP3    H1 1751   6.965   2.389   0.349
  622TIP3    H2 1752   7.011   2.497   0.445
  623TIP3   OH2 1753   9.504   6.886   7.916
  623TIP3    H1 1754   9.428   6.837   7.885
  623TIP3    H2 1755   9.489   6.975   7.885
  624TIP3   OH2 1756   6.986   1.123   1.386
  624TIP3    H1 1757   6.951   1.045   1.429
  624TIP3    H2 1758   7.079   1.124   1.410
  625TIP3   OH2 1759   7.233   1.120   1.516
  625TIP3    H1 1760   7.328   1.126   1.506
  625TIP3    H2 1761   7.220   1.057   1.587
  626TIP3   OH2 1762   7.929   2.690   0.741
  626TIP3    H1 1763   7.861   2.691   0.674
  626TIP3    H2 1764   7.965   2.779   0.740
  627TIP3   OH2 1765   8.409   2.974   0.633
  627TIP3    H1 1766   8.470   2.964   0.707
  627TIP3    H2 1767   8.357   2.894   0.634
  628TIP3   OH2 1768   8.617   2.247   0.792
  628TIP3    H1 1769   8.645   2.158   0.814
  628TIP3    H2 1770   8.537   2.235   0.741
  629TIP3   OH2 1771   8.650   2.604   0.730
  629TIP3    H1 1772   8.614   2.657   0.659
  629TIP3    H2 1773   8.618   2.646   0.810
  630TIP3   OH2 1774   8.367   3.066   0.197
  630TIP3    H1 1775   8.357   3.162   0.199
  630TIP3    H2 1776   8.450   3.049   0.241
  631TIP3   OH2 1777   0.698   3.483   2.346
  631TIP3    H1 1778   0.669   3.417   2.284
  631TIP3    H2 1779   0.621   3.501   2.400
  632TIP3   OH2 1780   0.399   3.791   2.447
  632TIP3    H1 1781   0.388   3.810   2.354
  632TIP3    H2 1782   0.476   3.840   2.473
  633TIP3   OH2 1783   0.572   3.230   2.713
  633TIP3    H1 1784   0.495   3.238   2.769
  633TIP3    H2 1785   0.610   3.318   2.712
  634TIP3   OH2 1786   0.458   3.524   2.471
  634TIP3    H1 1787   0.412   3.494   2.549
  634TIP3    H2 1788   0.430   3.614   2.459
  635TIP3   OH2 1789   1.864   3.089   1.337
  635TIP3    H1 1790   1.956   3.097   1.364
  635TIP3    H2 1791   1.842   3.176   1.304
  636TIP3   OH2 1792   1.586   3.629   1.315
  636TIP3    H1 1793   1.625   3.549   1.279
  636TIP3    H2 1794   1.511   3.598   1.366
  637TIP3   OH2 1795   1.561   3.061   1.787
  637TIP3    H1 1796   1.506   2.995   1.745
  637TIP3    H2 1797   1.518   3.144   1.767
  638TIP3   OH2 1798   2.512   2.543   1.651
  638TIP3    H1 1799   2.561   2.596   1.714
  638TIP3    H2 1800   2.538   2.578   1.566
  639TIP3   OH2 1801   2.570   2.617   1.917
  639TIP3    H1 1802   2.498   2.677   1.898
  639TIP3    H2 1803   2.633   2.670   1.966
  640TIP3   OH2 1804   1.407   3.099   2.022
  640TIP3    H1 1805   1.330   3.058   1.984
  640TIP3    H2 1806   1.467   3.111   1.949
  641TIP3   OH2 1807   1.146   3.288   1.974
  641TIP3    H1 1808   1.128   3.380   1.953
  641TIP3    H2 1809   1.082   3.267   2.043
  642TIP3   OH2 1810   2.053   3.414   1.431
  642TIP3    H1 1811   1.991   3.432   1.502
  642TIP3    H2 1812   2.083   3.500   1.402
  643TIP3   OH2 1813   2.359   2.411   1.866
  643TIP3    H1 1814   2.338   2.361   1.787
  643TIP3    H2 1815   2.437   2.462   1.842
  644TIP3   OH2 1816   1.750   3.452   1.183
  644TIP3    H1 1817   1.813   3.381   1.181
  644TIP3    H2 1818   1.767   3.502   1.103
  645TIP3   OH2 1819   2.231   3.426   1.866
  645TIP3    H1 1820   2.217   3.341   1.825
  645TIP3    H2 1821   2.226   3.489   1.793
  646TIP3   OH2 1822   2.510   3.043   1.633
  646TIP3    H1 1823   2.442   3.081   1.689
  646TIP3    H2 1824   2.465   3.028   1.549
  647TIP3   OH2 1825   2.152   2.904   1.959
  647TIP3    H1 1826   2.160   2.982   2.014
  647TIP3    H2 1827   2.059   2.882   1.962
  648TIP3   OH2 1828   1.679   3.355   1.634
  648TIP3    H1 1829   1.607   3.416   1.621
  648TIP3    H2 1830   1.758   3.409   1.629
  649TIP3   OH2 1831   1.398   3.369   2.116
  649TIP3    H1 1832   1.320   3.411   2.154
  649TIP3    H2 1833   1.365   3.285   2.083
  650TIP3   OH2 1834   1.151   2.933   2.196
  650TIP3    H1 1835   1.146   3.009   2.254
  650TIP3    H2 1836   1.068   2.887   2.209
  651TIP3   OH2 1837   1.177   3.499   2.217
  651TIP3    H1 1838   1.135   3.529   2.136
  651TIP3    H2 1839   1.104   3.482   2.277
  652TIP3   OH2 1840   2.501   3.731   1.870
  652TIP3    H1 1841   2.507   3.636   1.876
  652TIP3    H2 1842   2.422   3.753   1.919
  653TIP3   OH2 1843   1.582   3.517   1.980
  653TIP3    H1 1844   1.566   3.606   2.011
  653TIP3    H2 1845   1.532   3.461   2.040
  654TIP3   OH2 1846   2.396   2.824   2.149
  654TIP3    H1 1847   2.312   2.842   2.108
  654TIP3    H2 1848   2.401   2.728   2.152
  655TIP3   OH2 1849   0.947   3.209   2.145
  655TIP3    H1 1850   1.000   3.209   2.225
  655TIP3    H2 1851   0.893   3.131   2.152
  656TIP3   OH2 1852   2.126   2.657   2.103
  656TIP3    H1 1853   2.044   2.689   2.141
  656TIP3    H2 1854   2.131   2.697   2.017
  657TIP3   OH2 1855   1.909   2.745   2.259
  657TIP3    H1 1856   1.832   2.790   2.295
  657TIP3    H2 1857   1.983   2.792   2.297
  658TIP3   OH2 1858   1.894   2.831   1.959
  658TIP3    H1 1859   1.869   2.789   1.877
  658TIP3    H2 1860   1.811   2.862   1.996
  659TIP3   OH2 1861   2.197   4.068   1.949
  659TIP3    H1 1862   2.192   4.082   1.855
  659TIP3    H2 1863   2.277   4.115   1.976
  660TIP3   OH2 1864   1.127   3.161   2.358
  660TIP3    H1 1865   1.210   3.176   2.403
  660TIP3    H2 1866   1.060   3.177   2.425
  661TIP3   OH2 1867   2.301   3.171   1.755
  661TIP3    H1 1868   2.301   3.231   1.680
  661TIP3    H2 1869   2.224   3.117   1.742
  662TIP3   OH2 1870   1.718   3.139   2.142
  662TIP3    H1 1871   1.793   3.157   2.199
  662TIP3    H2 1872   1.731   3.197   2.066
  663TIP3   OH2 1873   1.654   2.905   2.315
  663TIP3    H1 1874   1.568   2.871   2.289
  663TIP3    H2 1875   1.674   2.972   2.250
  664TIP3   OH2 1876   1.839   3.597   1.903
  664TIP3    H1 1877   1.749   3.569   1.915
  664TIP3    H2 1878   1.876   3.599   1.992
  665TIP3   OH2 1879   2.511   3.455   1.887
  665TIP3    H1 1880   2.419   3.438   1.907
  665TIP3    H2 1881   2.527   3.407   1.806
  666TIP3   OH2 1882   1.881   2.896   1.523
  666TIP3    H1 1883   1.867   2.961   1.454
  666TIP3    H2 1884   1.957   2.846   1.493
  667TIP3   OH2 1885   1.338   3.568   1.847
  667TIP3    H1 1886   1.380   3.652   1.831
  667TIP3    H2 1887   1.403   3.517   1.896
  668TIP3   OH2 1888   1.832   3.094   1.722
  668TIP3    H1 1889   1.744   3.069   1.750
  668TIP3    H2 1890   1.861   3.023   1.665
  669TIP3   OH2 1891   2.027   3.770   1.797
  669TIP3    H1 1892   1.951   3.720   1.828
  669TIP3    H2 1893   1.990   3.843   1.748
  670TIP3   OH2 1894   0.815   3.433   1.957
  670TIP3    H1 1895   0.848   3.410   2.045
  670TIP3    H2 1896   0.793   3.526   1.963
  671TIP3   OH2 1897   1.943   2.425   2.011
  671TIP3    H1 1898   1.997   2.482   1.956
  671TIP3    H2 1899   1.949   2.339   1.969
  672TIP3   OH2 1900   1.732   2.590   2.085
  672TIP3    H1 1901   1.780   2.659   2.131
  672TIP3    H2 1902   1.800   2.529   2.056
  673TIP3   OH2 1903   2.374   2.545   2.135
  673TIP3    H1 1904   2.280   2.564   2.135
  673TIP3    H2 1905   2.387   2.490   2.057
  674TIP3   OH2 1906   2.069   2.713   1.440
  674TIP3    H1 1907   2.058   2.674   1.353
  674TIP3    H2 1908   2.040   2.645   1.500
  675TIP3   OH2 1909   2.115   3.678   1.415
  675TIP3    H1 1910   2.026   3.696   1.384
  675TIP3    H2 1911   2.167   3.751   1.384
  676TIP3   OH2 1912   0.815   3.752   2.339
  676TIP3    H1 1913   0.896   3.745   2.389
  676TIP3    H2 1914   0.783   3.662   2.334
  677TIP3   OH2 1915   1.285   3.681   2.396
  677TIP3    H1 1916   1.378   3.660   2.410
  677TIP3    H2 1917   1.257   3.619   2.328
  678TIP3   OH2 1918   1.921   3.614   2.161
  678TIP3    H1 1919   1.925   3.545   2.227
  678TIP3    H2 1920   1.996   3.670   2.181
  679TIP3   OH2 1921   0.918   3.161   2.546
  679TIP3    H1 1922   0.955   3.073   2.553
  679TIP3    H2 1923   0.827   3.148   2.519
  680TIP3   OH2 1924   1.536   3.254   2.320
  680TIP3    H1 1925   1.484   3.294   2.250
  680TIP3    H2 1926   1.601   3.201   2.275
  681TIP3   OH2 1927   2.018   3.314   2.021
  681TIP3    H1 1928   2.072   3.379   1.976
  681TIP3    H2 1929   1.931   3.324   1.982
  682TIP3   OH2 1930   1.047   2.920   2.552
  682TIP3    H1 1931   1.112   2.864   2.511
  682TIP3    H2 1932   1.080   2.933   2.641
  683TIP3   OH2 1933   1.412   2.819   2.196
  683TIP3    H1 1934   1.323   2.854   2.196
  683TIP3    H2 1935   1.452   2.854   2.117
  684TIP3   OH2 1936   1.920   3.168   2.321
  684TIP3    H1 1937   2.006   3.160   2.279
  684TIP3    H2 1938   1.923   3.104   2.392
  685TIP3   OH2 1939   1.509   2.602   2.331
  685TIP3    H1 1940   1.504   2.527   2.273
  685TIP3    H2 1941   1.475   2.675   2.279
  686TIP3   OH2 1942   1.635   2.908   2.019
  686TIP3    H1 1943   1.591   2.920   1.935
  686TIP3    H2 1944   1.646   2.997   2.053
  687TIP3   OH2 1945   2.148   2.841   2.371
  687TIP3    H1 1946   2.213   2.771   2.360
  687TIP3    H2 1947   2.200   2.921   2.369
  688TIP3   OH2 1948   2.175   3.124   2.123
  688TIP3    H1 1949   2.116   3.192   2.089
  688TIP3    H2 1950   2.261   3.147   2.087
  689TIP3   OH2 1951   1.389   2.664   2.576
  689TIP3    H1 1952   1.328   2.593   2.593
  689TIP3    H2 1953   1.421   2.648   2.487
  690TIP3   OH2 1954   1.749   2.597   2.473
  690TIP3    H1 1955   1.706   2.595   2.558
  690TIP3    H2 1956   1.680   2.617   2.411
  691TIP3   OH2 1957   1.961   2.472   2.302
  691TIP3    H1 1958   1.953   2.564   2.276
  691TIP3    H2 1959   1.985   2.427   2.221
  692TIP3   OH2 1960   1.232   2.462   2.665
  692TIP3    H1 1961   1.166   2.397   2.642
  692TIP3    H2 1962   1.272   2.428   2.745
  693TIP3   OH2 1963   1.683   2.095   2.471
  693TIP3    H1 1964   1.772   2.064   2.460
  693TIP3    H2 1965   1.640   2.075   2.387
  694TIP3   OH2 1966   1.776   2.331   2.580
  694TIP3    H1 1967   1.744   2.244   2.557
  694TIP3    H2 1968   1.707   2.369   2.635
  695TIP3   OH2 1969   2.362   3.806   1.383
  695TIP3    H1 1970   2.387   3.812   1.475
  695TIP3    H2 1971   2.341   3.896   1.358
  696TIP3   OH2 1972   2.353   3.830   1.657
  696TIP3    H1 1973   2.300   3.750   1.657
  696TIP3    H2 1974   2.422   3.813   1.722
  697TIP3   OH2 1975   2.379   3.498   2.211
  697TIP3    H1 1976   2.302   3.512   2.266
  697TIP3    H2 1977   2.420   3.584   2.205
  698TIP3   OH2 1978   2.313   3.332   1.535
  698TIP3    H1 1979   2.348   3.318   1.447
  698TIP3    H2 1980   2.229   3.376   1.521
  699TIP3   OH2 1981   2.195   3.605   1.662
  699TIP3    H1 1982   2.130   3.654   1.713
  699TIP3    H2 1983   2.169   3.618   1.571
  700TIP3   OH2 1984   2.421   3.153   2.001
  700TIP3    H1 1985   2.490   3.089   1.989
  700TIP3    H2 1986   2.388   3.170   1.913
  701TIP3   OH2 1987   2.597   2.945   1.993
  701TIP3    H1 1988   2.529   2.902   2.046
  701TIP3    H2 1989   2.678   2.901   2.019
  702TIP3   OH2 1990   2.253   2.524   1.583
  702TIP3    H1 1991   2.256   2.474   1.501
  702TIP3    H2 1992   2.343   2.520   1.617
  703TIP3   OH2 1993   2.378   2.793   1.845
  703TIP3    H1 1994   2.303   2.840   1.881
  703TIP3    H2 1995   2.365   2.797   1.750
  704TIP3   OH2 1996   2.826   2.369   2.333
  704TIP3    H1 1997   2.882   2.311   2.283
  704TIP3    H2 1998   2.786   2.427   2.268
  705TIP3   OH2 1999   2.653   2.510   2.175
  705TIP3    H1 2000   2.566   2.547   2.195
  705TIP3    H2 2001   2.635   2.434   2.120
  706TIP3   OH2 2002   1.845   3.621   0.996
  706TIP3    H1 2003   1.862   3.632   0.903
  706TIP3    H2 2004   1.842   3.710   1.031
  707TIP3   OH2 2005   0.968   3.464   2.391
  707TIP3    H1 2006   0.874   3.463   2.377
  707TIP3    H2 2007   0.979   3.471   2.486
  708TIP3   OH2 2008   1.095   3.558   1.962
  708TIP3    H1 2009   1.036   3.618   1.915
  708TIP3    H2 2010   1.181   3.574   1.924
  709TIP3   OH2 2011   1.550   3.770   2.093
  709TIP3    H1 2012   1.600   3.760   2.174
  709TIP3    H2 2013   1.603   3.830   2.039
  710TIP3   OH2 2014   1.738   3.934   1.960
  710TIP3    H1 2015   1.784   3.862   1.917
  710TIP3    H2 2016   1.807   3.982   2.007
  711TIP3   OH2 2017   2.539   2.268   2.087
  711TIP3    H1 2018   2.452   2.238   2.062
  711TIP3    H2 2019   2.592   2.188   2.093
  712TIP3   OH2 2020   0.821   3.803   1.955
  712TIP3    H1 2021   0.729   3.824   1.940
  712TIP3    H2 2022   0.846   3.858   2.029
  713TIP3   OH2 2023   1.044   3.786   1.799
  713TIP3    H1 2024   0.966   3.797   1.853
  713TIP3    H2 2025   1.016   3.812   1.711
  714TIP3   OH2 2026   1.497   3.800   1.541
  714TIP3    H1 2027   1.418   3.795   1.488
  714TIP3    H2 2028   1.530   3.889   1.526
  715TIP3   OH2 2029   1.767   3.754   1.605
  715TIP3    H1 2030   1.674   3.762   1.583
  715TIP3    H2 2031   1.799   3.844   1.606
  716TIP3   OH2 2032   1.948   3.987   1.639
  716TIP3    H1 2033   1.904   4.072   1.638
  716TIP3    H2 2034   1.960   3.964   1.547
  717TIP3   OH2 2035   1.205   3.587   1.588
  717TIP3    H1 2036   1.135   3.523   1.573
  717TIP3    H2 2037   1.200   3.605   1.682
  718TIP3   OH2 2038   1.993   3.627   0.570
  718TIP3    H1 2039   1.930   3.620   0.642
  718TIP3    H2 2040   1.939   3.641   0.492
  719TIP3   OH2 2041   1.548   2.197   2.706
  719TIP3    H1 2042   1.569   2.152   2.624
  719TIP3    H2 2043   1.515   2.128   2.763
  720TIP3   OH2 2044   2.305   2.274   2.454
  720TIP3    H1 2045   2.310   2.246   2.546
  720TIP3    H2 2046   2.396   2.271   2.424
  721TIP3   OH2 2047   2.250   3.799   1.962
  721TIP3    H1 2048   2.176   3.770   1.909
  721TIP3    H2 2049   2.238   3.893   1.972
  722TIP3   OH2 2050   3.584   3.201   0.723
  722TIP3    H1 2051   3.538   3.281   0.749
  722TIP3    H2 2052   3.524   3.130   0.745
  723TIP3   OH2 2053   3.563   3.189   1.119
  723TIP3    H1 2054   3.599   3.160   1.203
  723TIP3    H2 2055   3.507   3.117   1.091
  724TIP3   OH2 2056   2.963   3.157   1.542
  724TIP3    H1 2057   2.920   3.138   1.625
  724TIP3    H2 2058   2.892   3.160   1.478
  725TIP3   OH2 2059   3.763   3.484   0.778
  725TIP3    H1 2060   3.768   3.414   0.843
  725TIP3    H2 2061   3.787   3.563   0.826
  726TIP3   OH2 2062   2.828   3.476   1.190
  726TIP3    H1 2063   2.827   3.381   1.183
  726TIP3    H2 2064   2.920   3.498   1.205
  727TIP3   OH2 2065   2.544   3.033   1.151
  727TIP3    H1 2066   2.585   2.947   1.157
  727TIP3    H2 2067   2.457   3.015   1.114
  728TIP3   OH2 2068   3.446   3.909   0.823
  728TIP3    H1 2069   3.488   3.844   0.767
  728TIP3    H2 2070   3.443   3.869   0.909
  729TIP3   OH2 2071   3.293   3.370   1.147
  729TIP3    H1 2072   3.296   3.321   1.065
  729TIP3    H2 2073   3.382   3.401   1.160
  730TIP3   OH2 2074   4.326   2.692   1.153
  730TIP3    H1 2075   4.357   2.783   1.156
  730TIP3    H2 2076   4.326   2.670   1.060
  731TIP3   OH2 2077   3.774   2.889   1.200
  731TIP3    H1 2078   3.810   2.801   1.205
  731TIP3    H2 2079   3.743   2.898   1.110
  732TIP3   OH2 2080   3.013   2.501   0.998
  732TIP3    H1 2081   3.031   2.461   1.083
  732TIP3    H2 2082   2.947   2.444   0.958
  733TIP3   OH2 2083   3.736   2.682   0.852
  733TIP3    H1 2084   3.831   2.680   0.866
  733TIP3    H2 2085   3.725   2.685   0.757
  734TIP3   OH2 2086   2.620   2.777   1.147
  734TIP3    H1 2087   2.713   2.760   1.157
  734TIP3    H2 2088   2.586   2.700   1.102
  735TIP3   OH2 2089   3.162   2.999   1.058
  735TIP3    H1 2090   3.247   2.957   1.052
  735TIP3    H2 2091   3.109   2.957   0.991
  736TIP3   OH2 2092   4.410   2.932   1.294
  736TIP3    H1 2093   4.320   2.966   1.290
  736TIP3    H2 2094   4.445   2.967   1.376
  737TIP3   OH2 2095   3.120   2.583   1.664
  737TIP3    H1 2096   3.075   2.601   1.581
  737TIP3    H2 2097   3.057   2.609   1.731
  738TIP3   OH2 2098   3.389   3.410   0.684
  738TIP3    H1 2099   3.447   3.397   0.609
  738TIP3    H2 2100   3.367   3.503   0.680
  739TIP3   OH2 2101   3.148   3.352   1.382
  739TIP3    H1 2102   3.084   3.422   1.387
  739TIP3    H2 2103   3.195   3.368   1.300
  740TIP3   OH2 2104   3.998   2.679   0.920
  740TIP3    H1 2105   3.983   2.608   0.983
  740TIP3    H2 2106   4.034   2.751   0.972
  741TIP3   OH2 2107   3.021   2.634   1.415
  741TIP3    H1 2108   3.060   2.701   1.359
  741TIP3    H2 2109   3.023   2.554   1.362
  742TIP3   OH2 2110   2.966   3.537   1.450
  742TIP3    H1 2111   2.957   3.627   1.420
  742TIP3    H2 2112   2.891   3.522   1.507
  743TIP3   OH2 2113   2.245   3.134   0.631
  743TIP3    H1 2114   2.208   3.089   0.555
  743TIP3    H2 2115   2.293   3.065   0.677
  744TIP3   OH2 2116   3.795   3.725   0.921
  744TIP3    H1 2117   3.706   3.714   0.955
  744TIP3    H2 2118   3.792   3.809   0.874
  745TIP3   OH2 2119   4.114   2.606   1.309
  745TIP3    H1 2120   4.028   2.623   1.272
  745TIP3    H2 2121   4.176   2.635   1.243
  746TIP3   OH2 2122   3.487   2.316   1.320
  746TIP3    H1 2123   3.460   2.264   1.243
  746TIP3    H2 2124   3.411   2.370   1.340
  747TIP3   OH2 2125   3.550   3.737   0.635
  747TIP3    H1 2126   3.581   3.652   0.605
  747TIP3    H2 2127   3.605   3.800   0.588
  748TIP3   OH2 2128   3.631   3.490   0.542
  748TIP3    H1 2129   3.694   3.475   0.471
  748TIP3    H2 2130   3.682   3.479   0.622
  749TIP3   OH2 2131   4.029   3.612   1.273
  749TIP3    H1 2132   4.020   3.537   1.215
  749TIP3    H2 2133   4.015   3.688   1.217
  750TIP3   OH2 2134   3.383   3.034   0.595
  750TIP3    H1 2135   3.300   3.061   0.636
  750TIP3    H2 2136   3.409   3.109   0.542
  751TIP3   OH2 2137   3.305   2.772   0.263
  751TIP3    H1 2138   3.380   2.830   0.250
  751TIP3    H2 2139   3.304   2.715   0.187
  752TIP3   OH2 2140   4.222   3.264   1.140
  752TIP3    H1 2141   4.140   3.314   1.133
  752TIP3    H2 2142   4.256   3.260   1.051
  753TIP3   OH2 2143   3.740   3.181   0.504
  753TIP3    H1 2144   3.681   3.194   0.578
  753TIP3    H2 2145   3.821   3.148   0.544
  754TIP3   OH2 2146   3.927   3.127   1.455
  754TIP3    H1 2147   3.925   3.211   1.500
  754TIP3    H2 2148   3.845   3.125   1.405
  755TIP3   OH2 2149   2.814   3.048   0.974
  755TIP3    H1 2150   2.744   3.021   0.914
  755TIP3    H2 2151   2.884   2.985   0.959
  756TIP3   OH2 2152   3.086   3.545   1.146
  756TIP3    H1 2153   3.050   3.542   1.057
  756TIP3    H2 2154   3.165   3.491   1.142
  757TIP3   OH2 2155   3.125   3.079   1.312
  757TIP3    H1 2156   3.172   3.051   1.233
  757TIP3    H2 2157   3.053   3.133   1.279
  758TIP3   OH2 2158   3.552   3.700   1.046
  758TIP3    H1 2159   3.546   3.777   1.103
  758TIP3    H2 2160   3.546   3.626   1.106
  759TIP3   OH2 2161   3.190   3.602   1.603
  759TIP3    H1 2162   3.137   3.666   1.650
  759TIP3    H2 2163   3.128   3.556   1.547
  760TIP3   OH2 2164   3.466   2.997   0.278
  760TIP3    H1 2165   3.544   2.961   0.319
  760TIP3    H2 2166   3.497   3.073   0.230
  761TIP3   OH2 2167   3.288   3.669   0.652
  761TIP3    H1 2168   3.379   3.699   0.655
  761TIP3    H2 2169   3.241   3.739   0.607
  762TIP3   OH2 2170   2.992   3.777   1.679
  762TIP3    H1 2171   2.965   3.793   1.588
  762TIP3    H2 2172   2.910   3.760   1.725
  763TIP3   OH2 2173   4.048   2.175   0.377
  763TIP3    H1 2174   4.012   2.250   0.426
  763TIP3    H2 2175   4.074   2.212   0.293
  764TIP3   OH2 2176   2.646   3.024   0.756
  764TIP3    H1 2177   2.638   3.090   0.688
  764TIP3    H2 2178   2.556   2.993   0.769
  765TIP3   OH2 2179   7.169   8.270   7.995
  765TIP3    H1 2180   7.140   8.327   7.924
  765TIP3    H2 2181   7.241   8.219   7.958
  766TIP3   OH2 2182   2.566   3.327   1.646
  766TIP3    H1 2183   2.482   3.340   1.604
  766TIP3    H2 2184   2.598   3.243   1.612
  767TIP3   OH2 2185   2.584   3.529   1.289
  767TIP3    H1 2186   2.672   3.513   1.254
  767TIP3    H2 2187   2.595   3.602   1.349
  768TIP3   OH2 2188   4.264   3.956   1.332
  768TIP3    H1 2189   4.269   3.861   1.347
  768TIP3    H2 2190   4.185   3.983   1.378
  769TIP3   OH2 2191   3.371   3.746   1.453
  769TIP3    H1 2192   3.363   3.837   1.483
  769TIP3    H2 2193   3.308   3.698   1.506
  770TIP3   OH2 2194   3.216   3.900   0.513
  770TIP3    H1 2195   3.136   3.905   0.460
  770TIP3    H2 2196   3.225   3.987   0.551
  771TIP3   OH2 2197   2.702   3.685   0.834
  771TIP3    H1 2198   2.713   3.705   0.926
  771TIP3    H2 2199   2.637   3.614   0.832
  772TIP3   OH2 2200   3.376   3.776   0.092
  772TIP3    H1 2201   3.444   3.731   0.041
  772TIP3    H2 2202   3.413   3.783   0.180
  773TIP3   OH2 2203   3.436   3.852   0.348
  773TIP3    H1 2204   3.364   3.855   0.411
  773TIP3    H2 2205   3.515   3.858   0.401
  774TIP3   OH2 2206   4.162   3.077   1.608
  774TIP3    H1 2207   4.082   3.089   1.556
  774TIP3    H2 2208   4.182   2.984   1.601
  775TIP3   OH2 2209   2.763   3.519   1.631
  775TIP3    H1 2210   2.821   3.503   1.706
  775TIP3    H2 2211   2.696   3.452   1.638
  776TIP3   OH2 2212   3.129   2.292   1.508
  776TIP3    H1 2213   3.042   2.331   1.501
  776TIP3    H2 2214   3.190   2.361   1.481
  777TIP3   OH2 2215   3.703   2.466   1.653
  777TIP3    H1 2216   3.778   2.438   1.706
  777TIP3    H2 2217   3.627   2.434   1.702
  778TIP3   OH2 2218   3.915   2.856   1.529
  778TIP3    H1 2219   3.881   2.857   1.618
  778TIP3    H2 2220   3.910   2.947   1.500
  779TIP3   OH2 2221   3.630   3.008   0.008
  779TIP3    H1 2222   3.615   3.076  -0.059
  779TIP3    H2 2223   3.705   3.040   0.057
  780TIP3   OH2 2224   3.180   2.912   1.529
  780TIP3    H1 2225   3.101   2.895   1.581
  780TIP3    H2 2226   3.147   2.941   1.444
  781TIP3   OH2 2227   2.980   2.843   0.907
  781TIP3    H1 2228   2.902   2.787   0.914
  781TIP3    H2 2229   3.041   2.793   0.853
  782TIP3   OH2 2230   3.485   2.781   0.754
  782TIP3    H1 2231   3.463   2.872   0.773
  782TIP3    H2 2232   3.508   2.781   0.661
  783TIP3   OH2 2233   3.652   3.082   1.755
  783TIP3    H1 2234   3.625   3.015   1.817
  783TIP3    H2 2235   3.746   3.093   1.771
  784TIP3   OH2 2236   3.679   2.931   0.948
  784TIP3    H1 2237   3.594   2.967   0.923
  784TIP3    H2 2238   3.683   2.847   0.903
  785TIP3   OH2 2239   2.966   2.875   1.686
  785TIP3    H1 2240   2.894   2.936   1.708
  785TIP3    H2 2241   2.962   2.808   1.754
  786TIP3   OH2 2242   3.673   3.086   1.348
  786TIP3    H1 2243   3.710   3.018   1.291
  786TIP3    H2 2244   3.629   3.037   1.417
  787TIP3   OH2 2245   3.311   2.561   1.147
  787TIP3    H1 2246   3.293   2.499   1.076
  787TIP3    H2 2247   3.385   2.612   1.117
  788TIP3   OH2 2248   2.777   2.663   0.892
  788TIP3    H1 2249   2.729   2.608   0.954
  788TIP3    H2 2250   2.819   2.601   0.833
  789TIP3   OH2 2251   2.880   2.475   0.734
  789TIP3    H1 2252   2.948   2.408   0.723
  789TIP3    H2 2253   2.874   2.517   0.648
  790TIP3   OH2 2254   3.842   2.623   1.237
  790TIP3    H1 2255   3.795   2.637   1.319
  790TIP3    H2 2256   3.789   2.560   1.188
  791TIP3   OH2 2257   3.982   4.306   1.422
  791TIP3    H1 2258   3.980   4.321   1.327
  791TIP3    H2 2259   4.061   4.351   1.451
  792TIP3   OH2 2260   2.928   3.448   1.843
  792TIP3    H1 2261   3.013   3.452   1.887
  792TIP3    H2 2262   2.865   3.435   1.914
  793TIP3   OH2 2263   3.427   2.910   1.170
  793TIP3    H1 2264   3.480   2.851   1.116
  793TIP3    H2 2265   3.407   2.859   1.249
  794TIP3   OH2 2266   3.386   2.772   1.415
  794TIP3    H1 2267   3.307   2.819   1.443
  794TIP3    H2 2268   3.458   2.826   1.447
  795TIP3   OH2 2269   2.945   3.141   0.438
  795TIP3    H1 2270   2.923   3.048   0.431
  795TIP3    H2 2271   3.041   3.143   0.443
  796TIP3   OH2 2272   3.999   3.416   1.089
  796TIP3    H1 2273   4.040   3.462   1.015
  796TIP3    H2 2274   3.919   3.378   1.052
  797TIP3   OH2 2275   3.449   2.538   0.373
  797TIP3    H1 2276   3.432   2.464   0.315
  797TIP3    H2 2277   3.519   2.587   0.330
  798TIP3   OH2 2278   3.485   3.430   1.501
  798TIP3    H1 2279   3.556   3.441   1.564
  798TIP3    H2 2280   3.446   3.517   1.494
  799TIP3   OH2 2281   3.645   2.699   0.263
  799TIP3    H1 2282   3.724   2.652   0.288
  799TIP3    H2 2283   3.656   2.787   0.300
  800TIP3   OH2 2284   2.897   3.194   1.205
  800TIP3    H1 2285   2.933   3.231   1.124
  800TIP3    H2 2286   2.863   3.108   1.179
  801TIP3   OH2 2287   3.216   3.253   0.203
  801TIP3    H1 2288   3.203   3.336   0.247
  801TIP3    H2 2289   3.197   3.187   0.269
  802TIP3   OH2 2290   2.787   3.078   1.752
  802TIP3    H1 2291   2.795   3.102   1.844
  802TIP3    H2 2292   2.694   3.064   1.738
  803TIP3   OH2 2293   3.429   3.245   1.783
  803TIP3    H1 2294   3.378   3.217   1.707
  803TIP3    H2 2295   3.515   3.204   1.771
  804TIP3   OH2 2296   3.639   3.769   1.381
  804TIP3    H1 2297   3.544   3.756   1.387
  804TIP3    H2 2298   3.663   3.808   1.465
  805TIP3   OH2 2299   4.058   2.850   0.278
  805TIP3    H1 2300   4.046   2.798   0.199
  805TIP3    H2 2301   4.109   2.925   0.250
  806TIP3   OH2 2302   4.280   3.674   1.357
  806TIP3    H1 2303   4.186   3.664   1.348
  806TIP3    H2 2304   4.316   3.648   1.272
  807TIP3   OH2 2305   3.732   3.641   0.210
  807TIP3    H1 2306   3.749   3.561   0.261
  807TIP3    H2 2307   3.784   3.630   0.131
  808TIP3   OH2 2308   3.781   3.291   0.977
  808TIP3    H1 2309   3.700   3.255   1.015
  808TIP3    H2 2310   3.829   3.214   0.947
  809TIP3   OH2 2311   2.950   3.577   0.906
  809TIP3    H1 2312   2.998   3.553   0.827
  809TIP3    H2 2313   2.862   3.599   0.876
  810TIP3   OH2 2314   3.144   3.129   0.709
  810TIP3    H1 2315   3.060   3.173   0.715
  810TIP3    H2 2316   3.123   3.041   0.677
  811TIP3   OH2 2317   3.194   3.828   1.247
  811TIP3    H1 2318   3.234   3.903   1.202
  811TIP3    H2 2319   3.266   3.789   1.297
  812TIP3   OH2 2320   2.861   3.788   0.637
  812TIP3    H1 2321   2.806   3.771   0.713
  812TIP3    H2 2322   2.891   3.878   0.647
  813TIP3   OH2 2323   3.545   3.467   1.212
  813TIP3    H1 2324   3.551   3.454   1.307
  813TIP3    H2 2325   3.590   3.392   1.174
  814TIP3   OH2 2326   3.562   3.236   0.190
  814TIP3    H1 2327   3.648   3.244   0.149
  814TIP3    H2 2328   3.522   3.323   0.179
  815TIP3   OH2 2329   3.793   3.983   1.266
  815TIP3    H1 2330   3.723   3.920   1.280
  815TIP3    H2 2331   3.764   4.037   1.192
  816TIP3   OH2 2332   7.110   8.489   7.841
  816TIP3    H1 2333   7.179   8.556   7.842
  816TIP3    H2 2334   7.040   8.525   7.895
  817TIP3   OH2 2335   2.962   2.677   1.875
  817TIP3    H1 2336   2.883   2.701   1.922
  817TIP3    H2 2337   3.001   2.608   1.928
  818TIP3   OH2 2338   3.798   3.388   0.328
  818TIP3    H1 2339   3.766   3.316   0.383
  818TIP3    H2 2340   3.889   3.364   0.309
  819TIP3   OH2 2341   2.652   3.722   1.470
  819TIP3    H1 2342   2.691   3.664   1.535
  819TIP3    H2 2343   2.668   3.810   1.504
  820TIP3   OH2 2344   2.892   3.316   0.065
  820TIP3    H1 2345   2.961   3.262   0.027
  820TIP3    H2 2346   2.829   3.254   0.101
  821TIP3   OH2 2347   2.913   3.398   0.357
  821TIP3    H1 2348   2.910   3.303   0.367
  821TIP3    H2 2349   2.877   3.414   0.269
  822TIP3   OH2 2350   3.710   2.681   1.481
  822TIP3    H1 2351   3.793   2.725   1.500
  822TIP3    H2 2352   3.706   2.609   1.544
  823TIP3   OH2 2353   3.575   2.390   0.572
  823TIP3    H1 2354   3.533   2.446   0.506
  823TIP3    H2 2355   3.661   2.429   0.586
  824TIP3   OH2 2356   3.059   3.634   0.448
  824TIP3    H1 2357   3.028   3.724   0.438
  824TIP3    H2 2358   3.128   3.625   0.383
  825TIP3   OH2 2359   3.359   2.547   0.681
  825TIP3    H1 2360   3.408   2.625   0.711
  825TIP3    H2 2361   3.316   2.514   0.760
  826TIP3   OH2 2362   3.571   2.924   1.543
  826TIP3    H1 2363   3.601   2.969   1.621
  826TIP3    H2 2364   3.625   2.844   1.539
  827TIP3   OH2 2365   3.533   2.388   0.852
  827TIP3    H1 2366   3.445   2.411   0.882
  827TIP3    H2 2367   3.535   2.418   0.761
  828TIP3   OH2 2368   2.729   3.701   0.422
  828TIP3    H1 2369   2.752   3.745   0.339
  828TIP3    H2 2370   2.790   3.738   0.485
  829TIP3   OH2 2371   4.183   2.806   1.516
  829TIP3    H1 2372   4.088   2.810   1.523
  829TIP3    H2 2373   4.199   2.752   1.438
  830TIP3   OH2 2374   3.915   3.055   0.919
  830TIP3    H1 2375   3.832   3.009   0.932
  830TIP3    H2 2376   3.979   3.004   0.969
  831TIP3   OH2 2377   2.654   3.310   0.230
  831TIP3    H1 2378   2.686   3.393   0.194
  831TIP3    H2 2379   2.597   3.335   0.302
  832TIP3   OH2 2380   3.816   3.987   0.822
  832TIP3    H1 2381   3.778   4.039   0.751
  832TIP3    H2 2382   3.910   4.001   0.815
  833TIP3   OH2 2383   2.782   2.195   1.301
  833TIP3    H1 2384   2.824   2.140   1.234
  833TIP3    H2 2385   2.783   2.141   1.380
  834TIP3   OH2 2386   2.480   3.477   0.651
  834TIP3    H1 2387   2.473   3.478   0.747
  834TIP3    H2 2388   2.391   3.497   0.621
  835TIP3   OH2 2389   2.616   4.015   1.840
  835TIP3    H1 2390   2.700   4.019   1.886
  835TIP3    H2 2391   2.592   3.923   1.842
  836TIP3   OH2 2392   3.085   3.934   1.883
  836TIP3    H1 2393   3.177   3.907   1.894
  836TIP3    H2 2394   3.055   3.883   1.808
  837TIP3   OH2 2395   3.083   3.515   0.046
  837TIP3    H1 2396   3.019   3.447   0.064
  837TIP3    H2 2397   3.111   3.499  -0.045
  838TIP3   OH2 2398   3.697   3.872   1.628
  838TIP3    H1 2399   3.708   3.799   1.690
  838TIP3    H2 2400   3.773   3.928   1.644
  839TIP3   OH2 2401   6.796   8.263   7.908
  839TIP3    H1 2402   6.736   8.292   7.839
  839TIP3    H2 2403   6.857   8.204   7.864
  840TIP3   OH2 2404   2.735   3.410   2.039
  840TIP3    H1 2405   2.743   3.315   2.048
  840TIP3    H2 2406   2.651   3.423   1.995
  841TIP3   OH2 2407   3.351   3.515   1.809
  841TIP3    H1 2408   3.304   3.531   1.727
  841TIP3    H2 2409   3.393   3.430   1.795
  842TIP3   OH2 2410   6.377   7.840   7.951
  842TIP3    H1 2411   6.436   7.847   8.026
  842TIP3    H2 2412   6.434   7.820   7.877
  843TIP3   OH2 2413   3.803   3.546   1.419
  843TIP3    H1 2414   3.883   3.570   1.372
  843TIP3    H2 2415   3.742   3.617   1.400
  844TIP3   OH2 2416   2.877   3.140   2.017
  844TIP3    H1 2417   2.967   3.127   1.990
  844TIP3    H2 2418   2.883   3.174   2.106
  845TIP3   OH2 2419   3.050   2.902   0.601
  845TIP3    H1 2420   2.973   2.873   0.650
  845TIP3    H2 2421   3.031   2.879   0.510
  846TIP3   OH2 2422   3.699   3.413   1.760
  846TIP3    H1 2423   3.776   3.385   1.710
  846TIP3    H2 2424   3.702   3.360   1.840
  847TIP3   OH2 2425   7.123   7.607   7.826
  847TIP3    H1 2426   7.096   7.620   7.735
  847TIP3    H2 2427   7.041   7.590   7.873
  848TIP3   OH2 2428   3.299   2.850   1.792
  848TIP3    H1 2429   3.327   2.762   1.768
  848TIP3    H2 2430   3.261   2.886   1.712
  849TIP3   OH2 2431   3.381   2.622   1.645
  849TIP3    H1 2432   3.394   2.680   1.571
  849TIP3    H2 2433   3.287   2.609   1.650
  850TIP3   OH2 2434   3.341   3.185   1.523
  850TIP3    H1 2435   3.404   3.116   1.504
  850TIP3    H2 2436   3.387   3.266   1.502
  851TIP3   OH2 2437   3.918   3.106   1.844
  851TIP3    H1 2438   3.960   3.020   1.843
  851TIP3    H2 2439   3.991   3.168   1.834
  852TIP3   OH2 2440   3.936   3.375   1.584
  852TIP3    H1 2441   3.882   3.435   1.533
  852TIP3    H2 2442   4.025   3.390   1.551
  853TIP3   OH2 2443   3.179   2.934   2.031
  853TIP3    H1 2444   3.119   2.865   2.057
  853TIP3    H2 2445   3.208   2.910   1.943
  854TIP3   OH2 2446   3.447   2.373   1.729
  854TIP3    H1 2447   3.427   2.462   1.702
  854TIP3    H2 2448   3.361   2.332   1.740
  855TIP3   OH2 2449   3.560   2.872   1.902
  855TIP3    H1 2450   3.556   2.851   1.995
  855TIP3    H2 2451   3.470   2.865   1.872
  856TIP3   OH2 2452   3.808   2.824   1.774
  856TIP3    H1 2453   3.730   2.821   1.829
  856TIP3    H2 2454   3.879   2.793   1.831
  857TIP3   OH2 2455   4.037   2.770   1.924
  857TIP3    H1 2456   4.052   2.676   1.930
  857TIP3    H2 2457   4.033   2.799   2.015
  858TIP3   OH2 2458   3.028   2.746   2.172
  858TIP3    H1 2459   3.033   2.659   2.132
  858TIP3    H2 2460   3.070   2.736   2.257
  859TIP3   OH2 2461   3.499   2.349   1.996
  859TIP3    H1 2462   3.569   2.284   1.994
  859TIP3    H2 2463   3.472   2.358   1.905
  860TIP3   OH2 2464   3.584   2.582   2.113
  860TIP3    H1 2465   3.556   2.503   2.068
  860TIP3    H2 2466   3.509   2.640   2.110
  861TIP3   OH2 2467   2.773   3.825   0.178
  861TIP3    H1 2468   2.833   3.879   0.127
  861TIP3    H2 2469   2.687   3.865   0.163
  862TIP3   OH2 2470   2.226   3.876   0.875
  862TIP3    H1 2471   2.204   3.783   0.875
  862TIP3    H2 2472   2.321   3.879   0.889
  863TIP3   OH2 2473   2.373   3.726   1.102
  863TIP3    H1 2474   2.351   3.657   1.164
  863TIP3    H2 2475   2.427   3.787   1.153
  864TIP3   OH2 2476   4.082   4.051   0.821
  864TIP3    H1 2477   4.114   4.069   0.909
  864TIP3    H2 2478   4.154   4.075   0.763
  865TIP3   OH2 2479   4.115   4.062   1.107
  865TIP3    H1 2480   4.068   3.979   1.099
  865TIP3    H2 2481   4.184   4.043   1.170
  866TIP3   OH2 2482   4.165   3.759   1.689
  866TIP3    H1 2483   4.095   3.771   1.753
  866TIP3    H2 2484   4.212   3.843   1.689
  867TIP3   OH2 2485   4.044   3.282   0.268
  867TIP3    H1 2486   4.101   3.356   0.248
  867TIP3    H2 2487   4.083   3.243   0.347
  868TIP3   OH2 2488   4.142   3.157   0.489
  868TIP3    H1 2489   4.074   3.128   0.550
  868TIP3    H2 2490   4.213   3.188   0.545
  869TIP3   OH2 2491   4.172   3.539   0.915
  869TIP3    H1 2492   4.223   3.464   0.884
  869TIP3    H2 2493   4.184   3.606   0.848
  870TIP3   OH2 2494   3.968   3.826   1.114
  870TIP3    H1 2495   3.902   3.871   1.165
  870TIP3    H2 2496   3.920   3.786   1.042
  871TIP3   OH2 2497   4.146   3.063   0.127
  871TIP3    H1 2498   4.141   3.062   0.031
  871TIP3    H2 2499   4.133   3.155   0.150
  872TIP3   OH2 2500   3.834   2.811   0.080
  872TIP3    H1 2501   3.853   2.771  -0.004
  872TIP3    H2 2502   3.752   2.772   0.108
  873TIP3   OH2 2503   3.939   3.059   0.645
  873TIP3    H1 2504   3.950   2.967   0.624
  873TIP3    H2 2505   3.934   3.062   0.740
  874TIP3   OH2 2506   2.683   3.164   1.379
  874TIP3    H1 2507   2.614   3.137   1.318
  874TIP3    H2 2508   2.753   3.197   1.324
  875TIP3   OH2 2509   4.194   3.412   1.488
  875TIP3    H1 2510   4.259   3.344   1.473
  875TIP3    H2 2511   4.217   3.481   1.425
  876TIP3   OH2 2512   4.373   3.203   1.485
  876TIP3    H1 2513   4.299   3.158   1.526
  876TIP3    H2 2514   4.449   3.149   1.506
  877TIP3   OH2 2515   3.847   2.465   0.075
  877TIP3    H1 2516   3.920   2.420   0.119
  877TIP3    H2 2517   3.824   2.407   0.003
  878TIP3   OH2 2518   3.985   2.810   0.544
  878TIP3    H1 2519   4.038   2.741   0.585
  878TIP3    H2 2520   4.030   2.829   0.462
  879TIP3   OH2 2521   4.090   2.893   1.062
  879TIP3    H1 2522   4.170   2.924   1.019
  879TIP3    H2 2523   4.096   2.926   1.151
  880TIP3   OH2 2524   4.148   3.043   1.285
  880TIP3    H1 2525   4.072   3.073   1.334
  880TIP3    H2 2526   4.177   3.120   1.237
  881TIP3   OH2 2527   2.771   2.737   2.073
  881TIP3    H1 2528   2.854   2.759   2.116
  881TIP3    H2 2529   2.739   2.660   2.121
  882TIP3   OH2 2530   4.600   2.633   1.799
  882TIP3    H1 2531   4.664   2.576   1.757
  882TIP3    H2 2532   4.562   2.684   1.727
  883TIP3   OH2 2533   4.100   2.593   0.681
  883TIP3    H1 2534   4.073   2.628   0.766
  883TIP3    H2 2535   4.090   2.498   0.690
  884TIP3   OH2 2536   2.716   2.457   1.274
  884TIP3    H1 2537   2.727   2.362   1.283
  884TIP3    H2 2538   2.658   2.481   1.347
  885TIP3   OH2 2539   2.546   2.674   1.414
  885TIP3    H1 2540   2.498   2.697   1.335
  885TIP3    H2 2541   2.610   2.745   1.425
  886TIP3   OH2 2542   4.447   2.752   1.606
  886TIP3    H1 2543   4.362   2.791   1.626
  886TIP3    H2 2544   4.426   2.676   1.552
  887TIP3   OH2 2545   4.072   2.350   0.163
  887TIP3    H1 2546   4.101   2.272   0.115
  887TIP3    H2 2547   4.141   2.414   0.150
  888TIP3   OH2 2548   3.668   3.928   0.481
  888TIP3    H1 2549   3.721   3.928   0.401
  888TIP3    H2 2550   3.696   4.005   0.529
  889TIP3   OH2 2551   2.607   2.242   1.817
  889TIP3    H1 2552   2.569   2.257   1.904
  889TIP3    H2 2553   2.677   2.307   1.809
  890TIP3   OH2 2554   2.774   3.749   1.847
  890TIP3    H1 2555   2.680   3.731   1.847
  890TIP3    H2 2556   2.803   3.732   1.936
  891TIP3   OH2 2557   2.966   3.805   1.399
  891TIP3    H1 2558   2.917   3.880   1.365
  891TIP3    H2 2559   3.049   3.806   1.351
  892TIP3   OH2 2560   3.359   4.014   1.533
  892TIP3    H1 2561   3.395   4.007   1.621
  892TIP3    H2 2562   3.423   4.067   1.485
  893TIP3   OH2 2563   3.554   4.169   1.411
  893TIP3    H1 2564   3.619   4.114   1.366
  893TIP3    H2 2565   3.607   4.227   1.466
  894TIP3   OH2 2566   4.372   2.501   1.508
  894TIP3    H1 2567   4.284   2.479   1.480
  894TIP3    H2 2568   4.421   2.419   1.504
  895TIP3   OH2 2569   2.621   4.032   1.453
  895TIP3    H1 2570   2.529   4.050   1.433
  895TIP3    H2 2571   2.645   4.097   1.518
  896TIP3   OH2 2572   2.848   4.027   1.289
  896TIP3    H1 2573   2.765   4.031   1.337
  896TIP3    H2 2574   2.825   4.051   1.200
  897TIP3   OH2 2575   3.275   4.043   1.092
  897TIP3    H1 2576   3.202   4.058   1.031
  897TIP3    H2 2577   3.286   4.127   1.137
  898TIP3   OH2 2578   3.532   3.963   1.134
  898TIP3    H1 2579   3.442   3.990   1.118
  898TIP3    H2 2580   3.585   4.029   1.089
  899TIP3   OH2 2581   3.730   4.135   1.037
  899TIP3    H1 2582   3.732   4.224   1.003
  899TIP3    H2 2583   3.759   4.080   0.964
  900TIP3   OH2 2584   2.573   3.886   1.196
  900TIP3    H1 2585   2.566   3.874   1.291
  900TIP3    H2 2586   2.647   3.830   1.171
  901TIP3   OH2 2587   2.763   3.725   1.093
  901TIP3    H1 2588   2.784   3.639   1.131
  901TIP3    H2 2589   2.847   3.770   1.087
  902TIP3   OH2 2590   3.017   3.819   1.033
  902TIP3    H1 2591   3.018   3.735   0.987
  902TIP3    H2 2592   3.076   3.805   1.108
  903TIP3   OH2 2593   3.637   2.464   1.146
  903TIP3    H1 2594   3.592   2.415   1.215
  903TIP3    H2 2595   3.647   2.401   1.075
  904TIP3   OH2 2596   4.128   2.350   1.048
  904TIP3    H1 2597   4.184   2.419   1.014
  904TIP3    H2 2598   4.039   2.381   1.033
  905TIP3   OH2 2599   4.278   2.540   0.918
  905TIP3    H1 2600   4.322   2.473   0.865
  905TIP3    H2 2601   4.276   2.617   0.861
  906TIP3   OH2 2602   3.220   2.152   0.876
  906TIP3    H1 2603   3.261   2.150   0.789
  906TIP3    H2 2604   3.244   2.068   0.915
  907TIP3   OH2 2605   3.883   2.418   0.957
  907TIP3    H1 2606   3.848   2.452   0.874
  907TIP3    H2 2607   3.820   2.352   0.984
  908TIP3   OH2 2608   3.762   2.188   0.479
  908TIP3    H1 2609   3.722   2.271   0.450
  908TIP3    H2 2610   3.777   2.200   0.573
  909TIP3   OH2 2611   2.265   3.596   0.545
  909TIP3    H1 2612   2.185   3.601   0.597
  909TIP3    H2 2613   2.272   3.682   0.504
  910TIP3   OH2 2614   3.092   2.332   0.675
  910TIP3    H1 2615   3.057   2.269   0.612
  910TIP3    H2 2616   3.187   2.325   0.665
  911TIP3   OH2 2617   3.109   3.771   0.139
  911TIP3    H1 2618   3.203   3.782   0.125
  911TIP3    H2 2619   3.088   3.685   0.104
  912TIP3   OH2 2620   3.785   3.907   0.230
  912TIP3    H1 2621   3.766   3.813   0.226
  912TIP3    H2 2622   3.753   3.942   0.148
  913TIP3   OH2 2623   3.046   2.498   2.066
  913TIP3    H1 2624   3.012   2.419   2.023
  913TIP3    H2 2625   3.129   2.470   2.105
  914TIP3   OH2 2626   3.285   2.418   2.176
  914TIP3    H1 2627   3.359   2.390   2.122
  914TIP3    H2 2628   3.267   2.342   2.232
  915TIP3   OH2 2629   2.468   3.668   0.168
  915TIP3    H1 2630   2.374   3.656   0.187
  915TIP3    H2 2631   2.512   3.609   0.229
  916TIP3   OH2 2632   4.107   2.501   1.928
  916TIP3    H1 2633   4.125   2.472   2.017
  916TIP3    H2 2634   4.192   2.500   1.885
  917TIP3   OH2 2635   4.016   4.031   1.431
  917TIP3    H1 2636   3.941   4.003   1.378
  917TIP3    H2 2637   4.006   4.126   1.438
  918TIP3   OH2 2638   5.294   3.395   0.186
  918TIP3    H1 2639   5.268   3.485   0.167
  918TIP3    H2 2640   5.225   3.341   0.149
  919TIP3   OH2 2641   5.300   3.415   0.594
  919TIP3    H1 2642   5.352   3.396   0.672
  919TIP3    H2 2643   5.255   3.333   0.575
  920TIP3   OH2 2644   4.592   3.273   0.944
  920TIP3    H1 2645   4.632   3.219   1.012
  920TIP3    H2 2646   4.664   3.296   0.886
  921TIP3   OH2 2647   5.581   3.714   0.267
  921TIP3    H1 2648   5.558   3.650   0.335
  921TIP3    H2 2649   5.591   3.796   0.314
  922TIP3   OH2 2650   4.573   3.702   0.631
  922TIP3    H1 2651   4.559   3.608   0.631
  922TIP3    H2 2652   4.667   3.713   0.620
  923TIP3   OH2 2653   4.319   2.964   0.386
  923TIP3    H1 2654   4.259   3.033   0.414
  923TIP3    H2 2655   4.285   2.885   0.428
  924TIP3   OH2 2656   4.363   3.230   0.634
  924TIP3    H1 2657   4.416   3.154   0.658
  924TIP3    H2 2658   4.426   3.299   0.614
  925TIP3   OH2 2659   5.208   4.173   0.299
  925TIP3    H1 2660   5.254   4.102   0.253
  925TIP3    H2 2661   5.198   4.140   0.388
  926TIP3   OH2 2662   5.096   3.637   0.595
  926TIP3    H1 2663   5.139   3.559   0.561
  926TIP3    H2 2664   5.167   3.691   0.629
  927TIP3   OH2 2665   6.138   2.954   0.618
  927TIP3    H1 2666   6.152   3.039   0.660
  927TIP3    H2 2667   6.171   2.967   0.528
  928TIP3   OH2 2668   5.512   3.122   0.632
  928TIP3    H1 2669   5.543   3.035   0.659
  928TIP3    H2 2670   5.469   3.108   0.548
  929TIP3   OH2 2671   4.888   2.793   0.596
  929TIP3    H1 2672   4.865   2.866   0.539
  929TIP3    H2 2673   4.831   2.721   0.566
  930TIP3   OH2 2674   5.551   2.882   0.242
  930TIP3    H1 2675   5.616   2.874   0.311
  930TIP3    H2 2676   5.599   2.919   0.168
  931TIP3   OH2 2677   4.517   3.021   0.723
  931TIP3    H1 2678   4.594   2.993   0.773
  931TIP3    H2 2679   4.519   2.968   0.644
  932TIP3   OH2 2680   4.918   3.210   0.551
  932TIP3    H1 2681   5.012   3.195   0.554
  932TIP3    H2 2682   4.882   3.128   0.515
  933TIP3   OH2 2683   6.190   3.175   0.780
  933TIP3    H1 2684   6.102   3.212   0.773
  933TIP3    H2 2685   6.226   3.213   0.861
  934TIP3   OH2 2686   4.853   2.786   1.047
  934TIP3    H1 2687   4.807   2.825   0.972
  934TIP3    H2 2688   4.794   2.802   1.121
  935TIP3   OH2 2689   5.173   3.609   0.068
  935TIP3    H1 2690   5.159   3.595  -0.026
  935TIP3    H2 2691   5.137   3.697   0.084
  936TIP3   OH2 2692   4.936   3.563   0.808
  936TIP3    H1 2693   4.883   3.637   0.840
  936TIP3    H2 2694   4.984   3.599   0.734
  937TIP3   OH2 2695   5.721   2.901   0.455
  937TIP3    H1 2696   5.677   2.880   0.538
  937TIP3    H2 2697   5.774   2.978   0.476
  938TIP3   OH2 2698   4.757   2.897   0.814
  938TIP3    H1 2699   4.810   2.974   0.836
  938TIP3    H2 2700   4.803   2.857   0.740
  939TIP3   OH2 2701   4.781   3.767   0.912
  939TIP3    H1 2702   4.768   3.857   0.883
  939TIP3    H2 2703   4.702   3.747   0.964
  940TIP3   OH2 2704   4.190   3.494   0.178
  940TIP3    H1 2705   4.159   3.518   0.090
  940TIP3    H2 2706   4.207   3.577   0.221
  941TIP3   OH2 2707   5.595   3.963   0.406
  941TIP3    H1 2708   5.509   3.955   0.447
  941TIP3    H2 2709   5.591   4.044   0.356
  942TIP3   OH2 2710   5.939   2.840   0.783
  942TIP3    H1 2711   5.854   2.861   0.746
  942TIP3    H2 2712   6.002   2.869   0.717
  943TIP3   OH2 2713   5.198   2.481   0.776
  943TIP3    H1 2714   5.191   2.388   0.798
  943TIP3    H2 2715   5.122   2.521   0.816
  944TIP3   OH2 2716   5.328   3.988   0.136
  944TIP3    H1 2717   5.377   3.910   0.109
  944TIP3    H2 2718   5.344   4.052   0.067
  945TIP3   OH2 2719   5.474   3.787   0.022
  945TIP3    H1 2720   5.473   3.716  -0.042
  945TIP3    H2 2721   5.516   3.750   0.100
  946TIP3   OH2 2722   5.839   3.847   0.752
  946TIP3    H1 2723   5.818   3.773   0.695
  946TIP3    H2 2724   5.823   3.925   0.699
  947TIP3   OH2 2725   8.385   7.876   8.021
  947TIP3    H1 2726   8.306   7.929   8.012
  947TIP3    H2 2727   8.417   7.864   7.931
  948TIP3   OH2 2728   8.375   7.646   7.749
  948TIP3    H1 2729   8.454   7.697   7.766
  948TIP3    H2 2730   8.407   7.561   7.719
  949TIP3   OH2 2731   6.011   3.516   0.616
  949TIP3    H1 2732   5.927   3.561   0.613
  949TIP3    H2 2733   6.048   3.527   0.529
  950TIP3   OH2 2734   5.478   3.323  -0.001
  950TIP3    H1 2735   5.423   3.350   0.072
  950TIP3    H2 2736   5.564   3.307   0.037
  951TIP3   OH2 2737   5.713   3.377   0.929
  951TIP3    H1 2738   5.707   3.460   0.975
  951TIP3    H2 2739   5.632   3.372   0.878
  952TIP3   OH2 2740   4.715   3.337   0.403
  952TIP3    H1 2741   4.677   3.274   0.341
  952TIP3    H2 2742   4.791   3.291   0.440
  953TIP3   OH2 2743   4.838   3.752   0.532
  953TIP3    H1 2744   4.814   3.740   0.440
  953TIP3    H2 2745   4.925   3.715   0.539
  954TIP3   OH2 2746   4.800   3.330   0.767
  954TIP3    H1 2747   4.840   3.293   0.688
  954TIP3    H2 2748   4.848   3.411   0.783
  955TIP3   OH2 2749   5.364   3.959   0.548
  955TIP3    H1 2750   5.348   4.038   0.600
  955TIP3    H2 2751   5.345   3.887   0.608
  956TIP3   OH2 2752   4.980   3.861   1.083
  956TIP3    H1 2753   4.918   3.917   1.129
  956TIP3    H2 2754   4.925   3.809   1.023
  957TIP3   OH2 2755   8.587   7.833   7.806
  957TIP3    H1 2756   8.639   7.877   7.873
  957TIP3    H2 2757   8.582   7.896   7.734
  958TIP3   OH2 2758   4.736   3.407   1.235
  958TIP3    H1 2759   4.739   3.502   1.247
  958TIP3    H2 2760   4.643   3.386   1.225
  959TIP3   OH2 2761   5.082   3.870   0.081
  959TIP3    H1 2762   5.159   3.908   0.125
  959TIP3    H2 2763   5.085   3.908  -0.007
  960TIP3   OH2 2764   4.767   4.018   1.166
  960TIP3    H1 2765   4.746   4.031   1.074
  960TIP3    H2 2766   4.682   4.007   1.209
  961TIP3   OH2 2767   9.066   7.058   7.889
  961TIP3    H1 2768   8.989   7.077   7.942
  961TIP3    H2 2769   9.064   7.124   7.820
  962TIP3   OH2 2770   4.591   3.183   0.213
  962TIP3    H1 2771   4.536   3.251   0.172
  962TIP3    H2 2772   4.547   3.101   0.192
  963TIP3   OH2 2773   4.366   3.576   1.118
  963TIP3    H1 2774   4.300   3.557   1.052
  963TIP3    H2 2775   4.401   3.491   1.142
  964TIP3   OH2 2776   4.259   3.751   0.750
  964TIP3    H1 2777   4.350   3.739   0.724
  964TIP3    H2 2778   4.261   3.824   0.812
  965TIP3   OH2 2779   6.069   4.226   0.829
  965TIP3    H1 2780   6.074   4.131   0.836
  965TIP3    H2 2781   5.988   4.250   0.874
  966TIP3   OH2 2782   5.170   4.005   0.947
  966TIP3    H1 2783   5.160   4.096   0.975
  966TIP3    H2 2784   5.103   3.957   0.995
  967TIP3   OH2 2785   8.174   8.788   7.835
  967TIP3    H1 2786   8.091   8.740   7.844
  967TIP3    H2 2787   8.162   8.866   7.889
  968TIP3   OH2 2788   4.399   3.958   0.276
  968TIP3    H1 2789   4.439   3.955   0.363
  968TIP3    H2 2790   4.346   3.879   0.270
  969TIP3   OH2 2791   8.402   8.639   7.853
  969TIP3    H1 2792   8.329   8.700   7.839
  969TIP3    H2 2793   8.478   8.696   7.866
  970TIP3   OH2 2794   5.955   3.333   1.087
  970TIP3    H1 2795   5.873   3.344   1.039
  970TIP3    H2 2796   5.974   3.239   1.082
  971TIP3   OH2 2797   4.563   3.767   1.084
  971TIP3    H1 2798   4.615   3.753   1.162
  971TIP3    H2 2799   4.492   3.703   1.091
  972TIP3   OH2 2800   4.965   2.575   0.902
  972TIP3    H1 2801   4.883   2.541   0.869
  972TIP3    H2 2802   4.941   2.655   0.948
  973TIP3   OH2 2803   5.491   2.693   1.101
  973TIP3    H1 2804   5.560   2.668   1.163
  973TIP3    H2 2805   5.410   2.676   1.149
  974TIP3   OH2 2806   5.711   3.111   1.018
  974TIP3    H1 2807   5.673   3.107   1.105
  974TIP3    H2 2808   5.697   3.201   0.988
  975TIP3   OH2 2809   8.410   7.272   7.849
  975TIP3    H1 2810   8.341   7.255   7.914
  975TIP3    H2 2811   8.365   7.274   7.765
  976TIP3   OH2 2812   4.897   3.112   0.911
  976TIP3    H1 2813   4.850   3.116   0.995
  976TIP3    H2 2814   4.872   3.193   0.866
  977TIP3   OH2 2815   4.787   2.997   0.443
  977TIP3    H1 2816   4.699   2.972   0.469
  977TIP3    H2 2817   4.793   2.972   0.350
  978TIP3   OH2 2818   5.246   3.054   0.155
  978TIP3    H1 2819   5.195   3.125   0.114
  978TIP3    H2 2820   5.304   3.023   0.086
  979TIP3   OH2 2821   5.434   3.319   1.227
  979TIP3    H1 2822   5.408   3.252   1.290
  979TIP3    H2 2823   5.526   3.336   1.247
  980TIP3   OH2 2824   5.406   3.073   0.384
  980TIP3    H1 2825   5.341   3.099   0.319
  980TIP3    H2 2826   5.451   2.998   0.346
  981TIP3   OH2 2827   4.732   3.117   1.131
  981TIP3    H1 2828   4.745   3.178   1.203
  981TIP3    H2 2829   4.712   3.033   1.175
  982TIP3   OH2 2830   8.111   7.249   7.853
  982TIP3    H1 2831   8.130   7.185   7.785
  982TIP3    H2 2832   8.031   7.292   7.824
  983TIP3   OH2 2833   4.321   2.775   0.774
  983TIP3    H1 2834   4.411   2.755   0.798
  983TIP3    H2 2835   4.321   2.773   0.678
  984TIP3   OH2 2836   4.286   2.631   0.241
  984TIP3    H1 2837   4.344   2.703   0.215
  984TIP3    H2 2838   4.212   2.637   0.181
  985TIP3   OH2 2839   5.464   3.323   0.807
  985TIP3    H1 2840   5.488   3.257   0.742
  985TIP3    H2 2841   5.417   3.275   0.875
  986TIP3   OH2 2842   5.145   2.782   0.485
  986TIP3    H1 2843   5.066   2.783   0.539
  986TIP3    H2 2844   5.217   2.769   0.548
  987TIP3   OH2 2845   4.555   2.867   0.504
  987TIP3    H1 2846   4.485   2.880   0.440
  987TIP3    H2 2847   4.586   2.778   0.487
  988TIP3   OH2 2848   4.794   2.876   0.196
  988TIP3    H1 2849   4.890   2.877   0.192
  988TIP3    H2 2850   4.767   2.892   0.106
  989TIP3   OH2 2851   5.576   2.859   0.692
  989TIP3    H1 2852   5.557   2.878   0.784
  989TIP3    H2 2853   5.508   2.798   0.665
  990TIP3   OH2 2854   7.950   7.522   7.956
  990TIP3    H1 2855   7.867   7.489   7.920
  990TIP3    H2 2856   7.999   7.550   7.879
  991TIP3   OH2 2857   5.775   4.561   0.913
  991TIP3    H1 2858   5.767   4.575   0.819
  991TIP3    H2 2859   5.853   4.610   0.939
  992TIP3   OH2 2860   4.716   3.678   1.317
  992TIP3    H1 2861   4.797   3.697   1.363
  992TIP3    H2 2862   4.647   3.686   1.383
  993TIP3   OH2 2863   5.187   3.147   0.587
  993TIP3    H1 2864   5.248   3.097   0.532
  993TIP3    H2 2865   5.186   3.100   0.670
  994TIP3   OH2 2866   4.698   2.628   0.486
  994TIP3    H1 2867   4.649   2.552   0.518
  994TIP3    H2 2868   4.731   2.601   0.400
  995TIP3   OH2 2869   5.157   3.042   0.850
  995TIP3    H1 2870   5.070   3.077   0.872
  995TIP3    H2 2871   5.218   3.094   0.901
  996TIP3   OH2 2872   8.153   8.026   7.971
  996TIP3    H1 2873   8.088   7.959   7.950
  996TIP3    H2 2874   8.125   8.063   8.054
  997TIP3   OH2 2875   5.776   3.651   0.570
  997TIP3    H1 2876   5.812   3.700   0.496
  997TIP3    H2 2877   5.696   3.611   0.536
  998TIP3   OH2 2878   8.673   7.342   7.863
  998TIP3    H1 2879   8.584   7.308   7.847
  998TIP3    H2 2880   8.660   7.435   7.879
  999TIP3   OH2 2881   5.298   3.736   0.989
  999TIP3    H1 2882   5.352   3.727   1.067
  999TIP3    H2 2883   5.261   3.825   0.995
 1000TIP3   OH2 2884   8.682   7.606   7.945
 1000TIP3    H1 2885   8.776   7.611   7.961
 1000TIP3    H2 2886   8.664   7.681   7.888
 1001TIP3   OH2 2887   4.572   3.420   0.620
 1001TIP3    H1 2888   4.612   3.400   0.535
 1001TIP3    H2 2889   4.636   3.390   0.685
 1002TIP3   OH2 2890   8.324   8.171   7.814
 1002TIP3    H1 2891   8.281   8.256   7.805
 1002TIP3    H2 2892   8.265   8.119   7.869
 1003TIP3   OH2 2893   4.462   3.346   1.254
 1003TIP3    H1 2894   4.464   3.319   1.346
 1003TIP3    H2 2895   4.388   3.298   1.217
 1004TIP3   OH2 2896   5.204   3.478   1.269
 1004TIP3    H1 2897   5.134   3.419   1.240
 1004TIP3    H2 2898   5.285   3.436   1.239
 1005TIP3   OH2 2899   5.442   4.025   0.875
 1005TIP3    H1 2900   5.347   4.014   0.876
 1005TIP3    H2 2901   5.462   4.061   0.962
 1006TIP3   OH2 2902   9.075   7.692   7.791
 1006TIP3    H1 2903   9.035   7.637   7.724
 1006TIP3    H2 2904   9.054   7.782   7.764
 1007TIP3   OH2 2905   6.081   3.949   0.839
 1007TIP3    H1 2906   5.987   3.927   0.837
 1007TIP3    H2 2907   6.115   3.915   0.756
 1008TIP3   OH2 2908   5.547   3.516   0.470
 1008TIP3    H1 2909   5.457   3.495   0.495
 1008TIP3    H2 2910   5.581   3.436   0.431
 1009TIP3   OH2 2911   4.707   3.759   0.286
 1009TIP3    H1 2912   4.714   3.834   0.226
 1009TIP3    H2 2913   4.613   3.743   0.291
 1010TIP3   OH2 2914   4.405   3.057   0.043
 1010TIP3    H1 2915   4.408   3.151   0.027
 1010TIP3    H2 2916   4.327   3.045   0.098
 1011TIP3   OH2 2917   4.785   3.509   0.196
 1011TIP3    H1 2918   4.774   3.599   0.227
 1011TIP3    H2 2919   4.762   3.455   0.272
 1012TIP3   OH2 2920   4.987   4.076   0.738
 1012TIP3    H1 2921   5.023   4.150   0.689
 1012TIP3    H2 2922   5.062   4.041   0.788
 1013TIP3   OH2 2923   4.627   3.980   0.127
 1013TIP3    H1 2924   4.541   3.984   0.167
 1013TIP3    H2 2925   4.663   4.068   0.137
 1014TIP3   OH2 2926   5.329   3.737   0.714
 1014TIP3    H1 2927   5.320   3.732   0.809
 1014TIP3    H2 2928   5.403   3.680   0.694
 1015TIP3   OH2 2929   5.600   4.225   0.754
 1015TIP3    H1 2930   5.531   4.163   0.778
 1015TIP3    H2 2931   5.563   4.277   0.683
 1016TIP3   OH2 2932   4.676   2.863   1.249
 1016TIP3    H1 2933   4.582   2.877   1.251
 1016TIP3    H2 2934   4.694   2.807   1.324
 1017TIP3   OH2 2935   8.771   8.181   7.858
 1017TIP3    H1 2936   8.749   8.103   7.909
 1017TIP3    H2 2937   8.855   8.161   7.818
 1018TIP3   OH2 2938   4.405   3.971   0.909
 1018TIP3    H1 2939   4.460   3.912   0.961
 1018TIP3    H2 2940   4.424   4.058   0.945
 1019TIP3   OH2 2941   7.955   8.113   7.616
 1019TIP3    H1 2942   8.045   8.124   7.584
 1019TIP3    H2 2943   7.950   8.173   7.691
 1020TIP3   OH2 2944   7.907   8.230   7.871
 1020TIP3    H1 2945   7.980   8.195   7.921
 1020TIP3    H2 2946   7.919   8.325   7.873
 1021TIP3   OH2 2947   4.393   3.332   0.078
 1021TIP3    H1 2948   4.331   3.383   0.130
 1021TIP3    H2 2949   4.406   3.384  -0.002
 1022TIP3   OH2 2950   5.517   2.923   0.953
 1022TIP3    H1 2951   5.596   2.968   0.984
 1022TIP3    H2 2952   5.510   2.846   1.009
 1023TIP3   OH2 2953   5.399   2.673   0.138
 1023TIP3    H1 2954   5.391   2.688   0.044
 1023TIP3    H2 2955   5.443   2.752   0.172
 1024TIP3   OH2 2956   8.184   8.401   7.782
 1024TIP3    H1 2957   8.102   8.438   7.815
 1024TIP3    H2 2958   8.238   8.477   7.760
 1025TIP3   OH2 2959   5.067   2.859   0.229
 1025TIP3    H1 2960   5.128   2.927   0.199
 1025TIP3    H2 2961   5.093   2.841   0.319
 1026TIP3   OH2 2962   5.360   3.158   1.001
 1026TIP3    H1 2963   5.385   3.200   1.083
 1026TIP3    H2 2964   5.409   3.076   0.999
 1027TIP3   OH2 2965   5.226   2.572   0.322
 1027TIP3    H1 2966   5.201   2.650   0.373
 1027TIP3    H2 2967   5.289   2.604   0.258
 1028TIP3   OH2 2968   7.946   8.502   7.879
 1028TIP3    H1 2969   7.910   8.570   7.821
 1028TIP3    H2 2970   7.928   8.534   7.967
 1029TIP3   OH2 2971   4.776   2.601   0.226
 1029TIP3    H1 2972   4.774   2.695   0.210
 1029TIP3    H2 2973   4.852   2.569   0.178
 1030TIP3   OH2 2974   5.976   3.059   0.997
 1030TIP3    H1 2975   5.882   3.066   1.008
 1030TIP3    H2 2976   5.988   3.004   0.919
 1031TIP3   OH2 2977   5.638   3.259   0.383
 1031TIP3    H1 2978   5.559   3.206   0.394
 1031TIP3    H2 2979   5.703   3.218   0.441
 1032TIP3   OH2 2980   7.657   8.105   7.848
 1032TIP3    H1 2981   7.732   8.165   7.857
 1032TIP3    H2 2982   7.689   8.036   7.790
 1033TIP3   OH2 2983   7.681   7.417   7.974
 1033TIP3    H1 2984   7.679   7.513   7.981
 1033TIP3    H2 2985   7.599   7.394   7.931
 1034TIP3   OH2 2986   5.606   4.231   0.317
 1034TIP3    H1 2987   5.569   4.271   0.238
 1034TIP3    H2 2988   5.701   4.239   0.306
 1035TIP3   OH2 2989   4.706   2.480   0.879
 1035TIP3    H1 2990   4.718   2.418   0.807
 1035TIP3    H2 2991   4.705   2.425   0.958
 1036TIP3   OH2 2992   4.214   3.751   0.271
 1036TIP3    H1 2993   4.178   3.788   0.352
 1036TIP3    H2 2994   4.166   3.796   0.201
 1037TIP3   OH2 2995   4.420   4.279   1.320
 1037TIP3    H1 2996   4.501   4.289   1.371
 1037TIP3    H2 2997   4.416   4.185   1.301
 1038TIP3   OH2 2998   4.878   4.177   1.363
 1038TIP3    H1 2999   4.969   4.150   1.371
 1038TIP3    H2 3000   4.844   4.125   1.290
 1039TIP3   OH2 3001   5.494   4.123   1.126
 1039TIP3    H1 3002   5.512   4.053   1.188
 1039TIP3    H2 3003   5.568   4.184   1.137
 1040TIP3   OH2 3004   4.512   3.676   1.509
 1040TIP3    H1 3005   4.534   3.583   1.521
 1040TIP3    H2 3006   4.425   3.675   1.469
 1041TIP3   OH2 3007   7.807   7.913   7.723
 1041TIP3    H1 3008   7.864   7.879   7.791
 1041TIP3    H2 3009   7.861   7.976   7.675
 1042TIP3   OH2 3010   5.135   3.755   1.286
 1042TIP3    H1 3011   5.092   3.776   1.203
 1042TIP3    H2 3012   5.172   3.667   1.271
 1043TIP3   OH2 3013   8.226   8.119   7.558
 1043TIP3    H1 3014   8.272   8.147   7.638
 1043TIP3    H2 3015   8.267   8.036   7.534
 1044TIP3   OH2 3016   5.611   3.801   0.905
 1044TIP3    H1 3017   5.688   3.826   0.855
 1044TIP3    H2 3018   5.547   3.871   0.889
 1045TIP3   OH2 3019   4.628   3.422   1.517
 1045TIP3    H1 3020   4.701   3.406   1.457
 1045TIP3    H2 3021   4.669   3.439   1.601
 1046TIP3   OH2 3022   7.978   7.821   7.919
 1046TIP3    H1 3023   7.947   7.769   7.993
 1046TIP3    H2 3024   8.022   7.758   7.862
 1047TIP3   OH2 3025   4.994   3.302   1.179
 1047TIP3    H1 3026   4.908   3.344   1.191
 1047TIP3    H2 3027   5.024   3.332   1.093
 1048TIP3   OH2 3028   8.100   7.633   7.757
 1048TIP3    H1 3029   8.078   7.590   7.673
 1048TIP3    H2 3030   8.195   7.641   7.755
 1049TIP3   OH2 3031   5.492   3.675   1.250
 1049TIP3    H1 3032   5.560   3.637   1.195
 1049TIP3    H2 3033   5.489   3.618   1.327
 1050TIP3   OH2 3034   5.097   3.069   1.283
 1050TIP3    H1 3035   5.102   3.000   1.217
 1050TIP3    H2 3036   5.063   3.145   1.235
 1051TIP3   OH2 3037   5.111   2.873   1.079
 1051TIP3    H1 3038   5.137   2.910   0.995
 1051TIP3    H2 3039   5.020   2.846   1.066
 1052TIP3   OH2 3040   5.105   3.405   0.955
 1052TIP3    H1 3041   5.194   3.438   0.940
 1052TIP3    H2 3042   5.049   3.462   0.903
 1053TIP3   OH2 3043   5.702   3.358   1.324
 1053TIP3    H1 3044   5.744   3.272   1.329
 1053TIP3    H2 3045   5.775   3.419   1.313
 1054TIP3   OH2 3046   5.728   3.622   1.070
 1054TIP3    H1 3047   5.676   3.684   1.020
 1054TIP3    H2 3048   5.818   3.634   1.040
 1055TIP3   OH2 3049   4.982   3.149   1.526
 1055TIP3    H1 3050   4.913   3.085   1.545
 1055TIP3    H2 3051   5.011   3.128   1.437
 1056TIP3   OH2 3052   5.228   2.641   1.182
 1056TIP3    H1 3053   5.188   2.721   1.148
 1056TIP3    H2 3054   5.161   2.574   1.169
 1057TIP3   OH2 3055   5.353   3.109   1.385
 1057TIP3    H1 3056   5.342   3.096   1.479
 1057TIP3    H2 3057   5.267   3.088   1.348
 1058TIP3   OH2 3058   5.602   3.068   1.260
 1058TIP3    H1 3059   5.522   3.066   1.313
 1058TIP3    H2 3060   5.671   3.042   1.320
 1059TIP3   OH2 3061   5.836   3.029   1.408
 1059TIP3    H1 3062   5.849   2.935   1.415
 1059TIP3    H2 3063   5.831   3.059   1.499
 1060TIP3   OH2 3064   4.814   2.932   1.591
 1060TIP3    H1 3065   4.818   2.844   1.553
 1060TIP3    H2 3066   4.854   2.923   1.677
 1061TIP3   OH2 3067   5.290   2.615   1.448
 1061TIP3    H1 3068   5.358   2.549   1.442
 1061TIP3    H2 3069   5.261   2.628   1.358
 1062TIP3   OH2 3070   5.388   2.828   1.593
 1062TIP3    H1 3071   5.357   2.757   1.538
 1062TIP3    H2 3072   5.316   2.891   1.594
 1063TIP3   OH2 3073   7.859   8.707   7.719
 1063TIP3    H1 3074   7.889   8.784   7.671
 1063TIP3    H2 3075   7.769   8.695   7.690
 1064TIP3   OH2 3076   7.387   8.131   7.905
 1064TIP3    H1 3077   7.478   8.124   7.876
 1064TIP3    H2 3078   7.356   8.040   7.907
 1065TIP3   OH2 3079   4.002   4.040   0.339
 1065TIP3    H1 3080   3.940   3.987   0.289
 1065TIP3    H2 3081   4.045   3.978   0.398
 1066TIP3   OH2 3082   4.150   3.880   0.512
 1066TIP3    H1 3083   4.153   3.813   0.581
 1066TIP3    H2 3084   4.198   3.954   0.550
 1067TIP3   OH2 3085   5.879   4.274   0.315
 1067TIP3    H1 3086   5.903   4.338   0.382
 1067TIP3    H2 3087   5.931   4.299   0.239
 1068TIP3   OH2 3088   5.902   4.310   0.612
 1068TIP3    H1 3089   5.866   4.225   0.587
 1068TIP3    H2 3090   5.975   4.290   0.670
 1069TIP3   OH2 3091   5.966   4.012   1.169
 1069TIP3    H1 3092   5.895   4.024   1.232
 1069TIP3    H2 3093   6.013   4.096   1.170
 1070TIP3   OH2 3094   9.028   8.109   7.779
 1070TIP3    H1 3095   9.075   8.190   7.758
 1070TIP3    H2 3096   9.084   8.065   7.843
 1071TIP3   OH2 3097   5.921   3.367  -0.031
 1071TIP3    H1 3098   5.853   3.336   0.030
 1071TIP3    H2 3099   5.983   3.414   0.025
 1072TIP3   OH2 3100   5.967   3.785   0.413
 1072TIP3    H1 3101   6.016   3.717   0.366
 1072TIP3    H2 3102   5.970   3.861   0.354
 1073TIP3   OH2 3103   5.769   4.064   0.600
 1073TIP3    H1 3104   5.704   4.114   0.650
 1073TIP3    H2 3105   5.720   4.027   0.527
 1074TIP3   OH2 3106   5.718   3.247   0.119
 1074TIP3    H1 3107   5.716   3.152   0.107
 1074TIP3    H2 3108   5.697   3.260   0.212
 1075TIP3   OH2 3109   4.330   3.316   0.891
 1075TIP3    H1 3110   4.324   3.283   0.801
 1075TIP3    H2 3111   4.423   3.309   0.912
 1076TIP3   OH2 3112   5.984   3.663   0.972
 1076TIP3    H1 3113   6.053   3.600   0.953
 1076TIP3    H2 3114   5.984   3.721   0.895
 1077TIP3   OH2 3115   6.167   3.455   0.962
 1077TIP3    H1 3116   6.093   3.414   1.008
 1077TIP3    H2 3117   6.242   3.401   0.985
 1078TIP3   OH2 3118   8.888   7.411   7.687
 1078TIP3    H1 3119   8.952   7.341   7.677
 1078TIP3    H2 3120   8.815   7.371   7.735
 1079TIP3   OH2 3121   8.963   7.594   8.023
 1079TIP3    H1 3122   9.004   7.508   8.033
 1079TIP3    H2 3123   9.005   7.632   7.945
 1080TIP3   OH2 3124   5.855   3.136   0.524
 1080TIP3    H1 3125   5.934   3.156   0.474
 1080TIP3    H2 3126   5.869   3.177   0.609
 1081TIP3   OH2 3127   5.930   3.288   0.750
 1081TIP3    H1 3128   5.858   3.317   0.805
 1081TIP3    H2 3129   5.960   3.367   0.706
 1082TIP3   OH2 3130   4.552   2.998   1.534
 1082TIP3    H1 3131   4.646   2.991   1.549
 1082TIP3    H2 3132   4.515   2.917   1.569
 1083TIP3   OH2 3133   6.391   2.885   1.287
 1083TIP3    H1 3134   6.455   2.829   1.244
 1083TIP3    H2 3135   6.353   2.936   1.216
 1084TIP3   OH2 3136   5.809   2.726   0.063
 1084TIP3    H1 3137   5.858   2.712   0.145
 1084TIP3    H2 3138   5.744   2.656   0.063
 1085TIP3   OH2 3139   4.560   2.711   0.876
 1085TIP3    H1 3140   4.607   2.628   0.881
 1085TIP3    H2 3141   4.628   2.776   0.857
 1086TIP3   OH2 3142   4.316   2.987   0.945
 1086TIP3    H1 3143   4.317   2.919   0.878
 1086TIP3    H2 3144   4.382   3.050   0.917
 1087TIP3   OH2 3145   6.241   3.003   1.092
 1087TIP3    H1 3146   6.160   3.043   1.122
 1087TIP3    H2 3147   6.212   2.930   1.037
 1088TIP3   OH2 3148   9.122   7.249   7.695
 1088TIP3    H1 3149   9.183   7.202   7.637
 1088TIP3    H2 3150   9.178   7.306   7.748
 1089TIP3   OH2 3151   4.267   2.720   0.503
 1089TIP3    H1 3152   4.224   2.657   0.560
 1089TIP3    H2 3153   4.279   2.674   0.420
 1090TIP3   OH2 3154   8.645   8.805   7.948
 1090TIP3    H1 3155   8.715   8.767   7.895
 1090TIP3    H2 3156   8.689   8.868   8.004
 1091TIP3   OH2 3157   4.521   2.534   1.269
 1091TIP3    H1 3158   4.473   2.529   1.352
 1091TIP3    H2 3159   4.464   2.584   1.211
 1092TIP3   OH2 3160   4.535   4.004   1.326
 1092TIP3    H1 3161   4.444   3.976   1.322
 1092TIP3    H2 3162   4.561   3.991   1.417
 1093TIP3   OH2 3163   4.758   4.043   0.885
 1093TIP3    H1 3164   4.709   4.118   0.853
 1093TIP3    H2 3165   4.843   4.050   0.842
 1094TIP3   OH2 3166   5.152   4.272   1.024
 1094TIP3    H1 3167   5.189   4.265   1.112
 1094TIP3    H2 3168   5.214   4.326   0.975
 1095TIP3   OH2 3169   5.343   4.428   0.899
 1095TIP3    H1 3170   5.403   4.374   0.848
 1095TIP3    H2 3171   5.399   4.484   0.951
 1096TIP3   OH2 3172   6.151   2.758   0.982
 1096TIP3    H1 3173   6.067   2.756   0.937
 1096TIP3    H2 3174   6.182   2.667   0.978
 1097TIP3   OH2 3175   4.421   4.273   0.938
 1097TIP3    H1 3176   4.331   4.294   0.915
 1097TIP3    H2 3177   4.446   4.340   1.001
 1098TIP3   OH2 3178   4.649   4.274   0.783
 1098TIP3    H1 3179   4.566   4.275   0.830
 1098TIP3    H2 3180   4.626   4.299   0.693
 1099TIP3   OH2 3181   5.063   4.288   0.576
 1099TIP3    H1 3182   4.990   4.299   0.515
 1099TIP3    H2 3183   5.074   4.374   0.616
 1100TIP3   OH2 3184   5.320   4.217   0.641
 1100TIP3    H1 3185   5.231   4.242   0.617
 1100TIP3    H2 3186   5.376   4.277   0.592
 1101TIP3   OH2 3187   5.519   4.376   0.533
 1101TIP3    H1 3188   5.508   4.464   0.497
 1101TIP3    H2 3189   5.548   4.323   0.458
 1102TIP3   OH2 3190   4.322   4.058   0.660
 1102TIP3    H1 3191   4.352   4.033   0.748
 1102TIP3    H2 3192   4.393   4.029   0.602
 1103TIP3   OH2 3193   4.529   3.949   0.519
 1103TIP3    H1 3194   4.541   3.863   0.558
 1103TIP3    H2 3195   4.616   3.989   0.520
 1104TIP3   OH2 3196   4.799   4.031   0.537
 1104TIP3    H1 3197   4.816   3.938   0.519
 1104TIP3    H2 3198   4.855   4.052   0.611
 1105TIP3   OH2 3199   5.364   2.679   0.630
 1105TIP3    H1 3200   5.322   2.608   0.677
 1105TIP3    H2 3201   5.430   2.637   0.574
 1106TIP3   OH2 3202   5.858   2.597   0.506
 1106TIP3    H1 3203   5.894   2.653   0.437
 1106TIP3    H2 3204   5.764   2.616   0.506
 1107TIP3   OH2 3205   5.982   2.684   0.273
 1107TIP3    H1 3206   6.042   2.613   0.250
 1107TIP3    H2 3207   6.030   2.764   0.249
 1108TIP3   OH2 3208   4.557   2.420   0.595
 1108TIP3    H1 3209   4.498   2.407   0.669
 1108TIP3    H2 3210   4.630   2.360   0.612
 1109TIP3   OH2 3211   4.332   2.262   0.262
 1109TIP3    H1 3212   4.336   2.295   0.172
 1109TIP3    H2 3213   4.337   2.340   0.317
 1110TIP3   OH2 3214   5.082   2.430   0.520
 1110TIP3    H1 3215   5.123   2.479   0.449
 1110TIP3    H2 3216   5.126   2.461   0.599
 1111TIP3   OH2 3217   5.572   2.566   0.485
 1111TIP3    H1 3218   5.564   2.533   0.396
 1111TIP3    H2 3219   5.579   2.488   0.539
 1112TIP3   OH2 3220   5.628   2.524   0.087
 1112TIP3    H1 3221   5.541   2.563   0.095
 1112TIP3    H2 3222   5.618   2.436   0.125
 1113TIP3   OH2 3223   4.079   3.870   0.067
 1113TIP3    H1 3224   4.010   3.810   0.040
 1113TIP3    H2 3225   4.060   3.951   0.019
 1114TIP3   OH2 3226   7.805   7.108   7.970
 1114TIP3    H1 3227   7.722   7.061   7.967
 1114TIP3    H2 3228   7.813   7.138   8.061
 1115TIP3   OH2 3229   5.032   2.602   0.118
 1115TIP3    H1 3230   5.095   2.563   0.178
 1115TIP3    H2 3231   5.041   2.697   0.133
 1116TIP3   OH2 3232   4.827   2.660   1.507
 1116TIP3    H1 3233   4.795   2.591   1.565
 1116TIP3    H2 3234   4.919   2.669   1.530
 1117TIP3   OH2 3235   5.076   2.668   1.624
 1117TIP3    H1 3236   5.153   2.647   1.570
 1117TIP3    H2 3237   5.072   2.598   1.688
 1118TIP3   OH2 3238   7.504   8.564   7.697
 1118TIP3    H1 3239   7.522   8.521   7.780
 1118TIP3    H2 3240   7.454   8.500   7.646
 1119TIP3   OH2 3241   5.898   2.758   1.410
 1119TIP3    H1 3242   5.915   2.729   1.499
 1119TIP3    H2 3243   5.983   2.753   1.366
 1120TIP3   OH2 3244   5.816   4.288   0.923
 1120TIP3    H1 3245   5.746   4.256   0.866
 1120TIP3    H2 3246   5.803   4.382   0.927
 1121TIP3   OH2 3247   7.013   3.648   0.112
 1121TIP3    H1 3248   7.095   3.648   0.162
 1121TIP3    H2 3249   6.996   3.555   0.095
 1122TIP3   OH2 3250   6.391   3.527   0.422
 1122TIP3    H1 3251   6.422   3.477   0.498
 1122TIP3    H2 3252   6.471   3.551   0.375
 1123TIP3   OH2 3253   6.356   3.956   0.144
 1123TIP3    H1 3254   6.335   3.862   0.144
 1123TIP3    H2 3255   6.451   3.959   0.150
 1124TIP3   OH2 3256   9.331   7.753   7.900
 1124TIP3    H1 3257   9.300   7.840   7.927
 1124TIP3    H2 3258   9.255   7.712   7.861
 1125TIP3   OH2 3259   6.138   3.473   0.111
 1125TIP3    H1 3260   6.190   3.396   0.135
 1125TIP3    H2 3261   6.203   3.542   0.098
 1126TIP3   OH2 3262   6.900   3.895   0.096
 1126TIP3    H1 3263   6.930   3.805   0.085
 1126TIP3    H2 3264   6.977   3.943   0.127
 1127TIP3   OH2 3265   7.264   3.384   0.084
 1127TIP3    H1 3266   7.290   3.299   0.119
 1127TIP3    H2 3267   7.327   3.401   0.013
 1128TIP3   OH2 3268   6.638   3.051   0.108
 1128TIP3    H1 3269   6.633   3.120   0.042
 1128TIP3    H2 3270   6.592   2.977   0.070
 1129TIP3   OH2 3271   6.275   3.250   0.200
 1129TIP3    H1 3272   6.355   3.235   0.250
 1129TIP3    H2 3273   6.287   3.198   0.120
 1130TIP3   OH2 3274   6.710   3.448   0.037
 1130TIP3    H1 3275   6.803   3.427   0.045
 1130TIP3    H2 3276   6.670   3.368   0.002
 1131TIP3   OH2 3277   7.970   3.602   0.254
 1131TIP3    H1 3278   7.876   3.595   0.240
 1131TIP3    H2 3279   7.979   3.618   0.349
 1132TIP3   OH2 3280   6.633   3.040   0.535
 1132TIP3    H1 3281   6.583   3.081   0.465
 1132TIP3    H2 3282   6.583   3.057   0.614
 1133TIP3   OH2 3283   6.738   3.818   0.306
 1133TIP3    H1 3284   6.680   3.887   0.337
 1133TIP3    H2 3285   6.790   3.859   0.238
 1134TIP3   OH2 3286   6.510   3.161   0.320
 1134TIP3    H1 3287   6.565   3.235   0.344
 1134TIP3    H2 3288   6.557   3.118   0.249
 1135TIP3   OH2 3289   6.567   4.008   0.403
 1135TIP3    H1 3290   6.557   4.099   0.376
 1135TIP3    H2 3291   6.490   3.990   0.457
 1136TIP3   OH2 3292   7.573   3.253   0.092
 1136TIP3    H1 3293   7.488   3.217   0.121
 1136TIP3    H2 3294   7.632   3.177   0.093
 1137TIP3   OH2 3295   6.966   2.741   0.261
 1137TIP3    H1 3296   6.965   2.649   0.288
 1137TIP3    H2 3297   6.887   2.777   0.300
 1138TIP3   OH2 3298   7.639   4.147   0.212
 1138TIP3    H1 3299   7.617   4.114   0.124
 1138TIP3    H2 3300   7.636   4.242   0.203
 1139TIP3   OH2 3301   7.477   3.649   0.405
 1139TIP3    H1 3302   7.469   3.735   0.447
 1139TIP3    H2 3303   7.394   3.637   0.359
 1140TIP3   OH2 3304   9.776   8.224   7.927
 1140TIP3    H1 3305   9.775   8.204   7.833
 1140TIP3    H2 3306   9.851   8.175   7.961
 1141TIP3   OH2 3307   6.639   3.971   0.045
 1141TIP3    H1 3308   6.614   3.912  -0.027
 1141TIP3    H2 3309   6.732   3.953   0.059
 1142TIP3   OH2 3310   6.608   3.583   0.260
 1142TIP3    H1 3311   6.646   3.547   0.180
 1142TIP3    H2 3312   6.656   3.664   0.275
 1143TIP3   OH2 3313   6.767   4.112   0.570
 1143TIP3    H1 3314   6.707   4.171   0.617
 1143TIP3    H2 3315   6.710   4.059   0.514
 1144TIP3   OH2 3316   6.527   3.662   0.719
 1144TIP3    H1 3317   6.531   3.756   0.734
 1144TIP3    H2 3318   6.433   3.643   0.710
 1145TIP3   OH2 3319   6.563   4.275   0.664
 1145TIP3    H1 3320   6.536   4.281   0.572
 1145TIP3    H2 3321   6.482   4.258   0.712
 1146TIP3   OH2 3322   6.163   3.831   0.608
 1146TIP3    H1 3323   6.094   3.814   0.544
 1146TIP3    H2 3324   6.196   3.745   0.631
 1147TIP3   OH2 3325   6.015   4.018   0.265
 1147TIP3    H1 3326   6.108   4.040   0.262
 1147TIP3    H2 3327   5.974   4.094   0.304
 1148TIP3   OH2 3328   7.803   4.407   0.299
 1148TIP3    H1 3329   7.857   4.328   0.302
 1148TIP3    H2 3330   7.822   4.452   0.381
 1149TIP3   OH2 3331   6.971   4.238   0.437
 1149TIP3    H1 3332   6.969   4.328   0.471
 1149TIP3    H2 3333   6.899   4.194   0.482
 1150TIP3   OH2 3334   7.696   3.656   0.636
 1150TIP3    H1 3335   7.639   3.702   0.574
 1150TIP3    H2 3336   7.707   3.569   0.598
 1151TIP3   OH2 3337   6.357   4.024   0.580
 1151TIP3    H1 3338   6.409   4.008   0.659
 1151TIP3    H2 3339   6.285   3.960   0.585
 1152TIP3   OH2 3340   6.731   2.825   0.387
 1152TIP3    H1 3341   6.645   2.795   0.355
 1152TIP3    H2 3342   6.712   2.907   0.434
 1153TIP3   OH2 3343   7.236   2.971   0.604
 1153TIP3    H1 3344   7.300   2.966   0.674
 1153TIP3    H2 3345   7.152   2.950   0.646
 1154TIP3   OH2 3346   7.449   3.372   0.460
 1154TIP3    H1 3347   7.436   3.365   0.555
 1154TIP3    H2 3348   7.481   3.461   0.447
 1155TIP3   OH2 3349   6.678   3.360   0.408
 1155TIP3    H1 3350   6.634   3.371   0.492
 1155TIP3    H2 3351   6.664   3.444   0.362
 1156TIP3   OH2 3352   0.036   7.859   7.920
 1156TIP3    H1 3353  -0.054   7.830   7.938
 1156TIP3    H2 3354   0.048   7.843   7.826
 1157TIP3   OH2 3355   7.220   3.586   0.719
 1157TIP3    H1 3356   7.193   3.517   0.780
 1157TIP3    H2 3357   7.314   3.597   0.735
 1158TIP3   OH2 3358   6.515   3.376   0.626
 1158TIP3    H1 3359   6.529   3.441   0.695
 1158TIP3    H2 3360   6.499   3.295   0.673
 1159TIP3   OH2 3361   6.157   2.870   0.170
 1159TIP3    H1 3362   6.187   2.925   0.241
 1159TIP3    H2 3363   6.235   2.823   0.141
 1160TIP3   OH2 3364   7.624   5.613   1.183
 1160TIP3    H1 3365   7.673   5.614   1.265
 1160TIP3    H2 3366   7.540   5.573   1.207
 1161TIP3   OH2 3367   7.236   3.579   0.279
 1161TIP3    H1 3368   7.252   3.512   0.213
 1161TIP3    H2 3369   7.199   3.530   0.354
 1162TIP3   OH2 3370   6.892   2.974  -0.007
 1162TIP3    H1 3371   6.835   3.015   0.058
 1162TIP3    H2 3372   6.981   2.984   0.028
 1163TIP3   OH2 3373   9.599   7.727   7.970
 1163TIP3    H1 3374   9.508   7.726   7.939
 1163TIP3    H2 3375   9.628   7.636   7.961
 1164TIP3   OH2 3376   7.329   3.136   0.186
 1164TIP3    H1 3377   7.288   3.155   0.270
 1164TIP3    H2 3378   7.278   3.064   0.149
 1165TIP3   OH2 3379   7.613   4.840   0.411
 1165TIP3    H1 3380   7.573   4.897   0.345
 1165TIP3    H2 3381   7.679   4.894   0.453
 1166TIP3   OH2 3382   6.513   3.929   0.806
 1166TIP3    H1 3383   6.594   3.949   0.852
 1166TIP3    H2 3384   6.445   3.940   0.873
 1167TIP3   OH2 3385   6.975   3.372   0.089
 1167TIP3    H1 3386   7.067   3.358   0.067
 1167TIP3    H2 3387   6.965   3.333   0.175
 1168TIP3   OH2 3388   9.752   7.480   7.972
 1168TIP3    H1 3389   9.709   7.407   8.017
 1168TIP3    H2 3390   9.824   7.439   7.922
 1169TIP3   OH2 3391   6.941   3.300   0.352
 1169TIP3    H1 3392   6.853   3.331   0.374
 1169TIP3    H2 3393   6.999   3.358   0.401
 1170TIP3   OH2 3394   7.097   3.980   0.494
 1170TIP3    H1 3395   7.146   3.973   0.576
 1170TIP3    H2 3396   7.065   4.070   0.493
 1171TIP3   OH2 3397   6.347   3.665   0.134
 1171TIP3    H1 3398   6.397   3.652   0.054
 1171TIP3    H2 3399   6.407   3.640   0.204
 1172TIP3   OH2 3400   6.253   3.595   0.733
 1172TIP3    H1 3401   6.254   3.567   0.825
 1172TIP3    H2 3402   6.178   3.549   0.695
 1173TIP3   OH2 3403   6.992   3.738   0.760
 1173TIP3    H1 3404   6.924   3.678   0.730
 1173TIP3    H2 3405   7.073   3.700   0.728
 1174TIP3   OH2 3406   7.243   4.258   0.365
 1174TIP3    H1 3407   7.148   4.245   0.366
 1174TIP3    H2 3408   7.261   4.311   0.443
 1175TIP3   OH2 3409   7.896   4.136   0.314
 1175TIP3    H1 3410   7.809   4.135   0.276
 1175TIP3    H2 3411   7.940   4.061   0.275
 1176TIP3   OH2 3412   6.775   4.326   0.243
 1176TIP3    H1 3413   6.778   4.421   0.259
 1176TIP3    H2 3414   6.857   4.293   0.279
 1177TIP3   OH2 3415   7.135   3.971   0.221
 1177TIP3    H1 3416   7.115   3.964   0.314
 1177TIP3    H2 3417   7.230   3.982   0.217
 1178TIP3   OH2 3418   6.467   3.119   0.743
 1178TIP3    H1 3419   6.372   3.128   0.748
 1178TIP3    H2 3420   6.491   3.070   0.822
 1179TIP3   OH2 3421   6.206   4.229   0.400
 1179TIP3    H1 3422   6.260   4.171   0.454
 1179TIP3    H2 3423   6.221   4.316   0.437
 1180TIP3   OH2 3424   7.252   3.187   0.439
 1180TIP3    H1 3425   7.332   3.234   0.459
 1180TIP3    H2 3426   7.250   3.114   0.501
 1181TIP3   OH2 3427   7.136   3.437   0.493
 1181TIP3    H1 3428   7.168   3.482   0.572
 1181TIP3    H2 3429   7.181   3.353   0.493
 1182TIP3   OH2 3430   7.740   3.413   0.526
 1182TIP3    H1 3431   7.696   3.336   0.562
 1182TIP3    H2 3432   7.767   3.387   0.438
 1183TIP3   OH2 3433   6.466   2.745   0.351
 1183TIP3    H1 3434   6.436   2.709   0.268
 1183TIP3    H2 3435   6.462   2.672   0.413
 1184TIP3   OH2 3436   6.202   4.514   0.826
 1184TIP3    H1 3437   6.287   4.512   0.868
 1184TIP3    H2 3438   6.178   4.422   0.814
 1185TIP3   OH2 3439   6.679   4.437   0.853
 1185TIP3    H1 3440   6.767   4.402   0.863
 1185TIP3    H2 3441   6.641   4.385   0.782
 1186TIP3   OH2 3442   7.285   4.386   0.605
 1186TIP3    H1 3443   7.296   4.312   0.666
 1186TIP3    H2 3444   7.363   4.440   0.618
 1187TIP3   OH2 3445   6.308   3.930   0.997
 1187TIP3    H1 3446   6.326   3.836   1.008
 1187TIP3    H2 3447   6.222   3.933   0.955
 1188TIP3   OH2 3448   6.928   4.013   0.772
 1188TIP3    H1 3449   6.883   4.033   0.690
 1188TIP3    H2 3450   6.963   3.925   0.759
 1189TIP3   OH2 3451   7.414   4.045   0.352
 1189TIP3    H1 3452   7.494   4.082   0.314
 1189TIP3    H2 3453   7.353   4.118   0.358
 1190TIP3   OH2 3454   6.424   3.674   1.005
 1190TIP3    H1 3455   6.499   3.662   0.946
 1190TIP3    H2 3456   6.464   3.695   1.090
 1191TIP3   OH2 3457   6.785   3.557   0.668
 1191TIP3    H1 3458   6.700   3.600   0.676
 1191TIP3    H2 3459   6.818   3.585   0.582
 1192TIP3   OH2 3460   7.282   3.929   0.732
 1192TIP3    H1 3461   7.358   3.900   0.681
 1192TIP3    H2 3462   7.284   3.874   0.810
 1193TIP3   OH2 3463   6.884   3.325   0.773
 1193TIP3    H1 3464   6.889   3.255   0.708
 1193TIP3    H2 3465   6.853   3.401   0.725
 1194TIP3   OH2 3466   6.891   3.129   0.571
 1194TIP3    H1 3467   6.925   3.167   0.490
 1194TIP3    H2 3468   6.801   3.105   0.551
 1195TIP3   OH2 3469   6.900   3.645   0.441
 1195TIP3    H1 3470   6.992   3.662   0.419
 1195TIP3    H2 3471   6.851   3.711   0.393
 1196TIP3   OH2 3472   7.486   3.600   0.813
 1196TIP3    H1 3473   7.513   3.512   0.837
 1196TIP3    H2 3474   7.562   3.636   0.765
 1197TIP3   OH2 3475   7.520   3.891   0.550
 1197TIP3    H1 3476   7.468   3.946   0.492
 1197TIP3    H2 3477   7.610   3.905   0.522
 1198TIP3   OH2 3478   6.775   3.408   1.016
 1198TIP3    H1 3479   6.705   3.346   1.036
 1198TIP3    H2 3480   6.803   3.386   0.927
 1199TIP3   OH2 3481   6.986   2.899   0.689
 1199TIP3    H1 3482   6.948   2.978   0.651
 1199TIP3    H2 3483   6.924   2.829   0.666
 1200TIP3   OH2 3484   7.139   3.373   0.873
 1200TIP3    H1 3485   7.130   3.360   0.968
 1200TIP3    H2 3486   7.053   3.350   0.838
 1201TIP3   OH2 3487   7.361   3.320   0.714
 1201TIP3    H1 3488   7.287   3.323   0.774
 1201TIP3    H2 3489   7.438   3.315   0.770
 1202TIP3   OH2 3490   7.576   3.348   0.891
 1202TIP3    H1 3491   7.596   3.255   0.892
 1202TIP3    H2 3492   7.587   3.377   0.982
 1203TIP3   OH2 3493   6.606   3.189   1.078
 1203TIP3    H1 3494   6.614   3.102   1.041
 1203TIP3    H2 3495   6.645   3.183   1.165
 1204TIP3   OH2 3496   7.071   2.880   0.946
 1204TIP3    H1 3497   7.138   2.812   0.941
 1204TIP3    H2 3498   7.038   2.887   0.856
 1205TIP3   OH2 3499   7.182   3.089   1.084
 1205TIP3    H1 3500   7.151   3.019   1.027
 1205TIP3    H2 3501   7.111   3.154   1.083
 1206TIP3   OH2 3502   5.900   4.176   0.022
 1206TIP3    H1 3503   5.900   4.093   0.068
 1206TIP3    H2 3504   5.983   4.217   0.047
 1207TIP3   OH2 3505   7.743   4.258   0.648
 1207TIP3    H1 3506   7.674   4.264   0.714
 1207TIP3    H2 3507   7.791   4.341   0.657
 1208TIP3   OH2 3508   6.125   3.553   0.373
 1208TIP3    H1 3509   6.114   3.529   0.281
 1208TIP3    H2 3510   6.220   3.554   0.387
 1209TIP3   OH2 3511   7.778   3.921   0.462
 1209TIP3    H1 3512   7.840   3.851   0.442
 1209TIP3    H2 3513   7.809   3.996   0.413
 1210TIP3   OH2 3514   7.945   3.704   0.516
 1210TIP3    H1 3515   7.869   3.687   0.572
 1210TIP3    H2 3516   8.019   3.707   0.577
 1211TIP3   OH2 3517   7.695   3.598   0.235
 1211TIP3    H1 3518   7.627   3.615   0.299
 1211TIP3    H2 3519   7.649   3.563   0.159
 1212TIP3   OH2 3520   6.343   3.248   1.013
 1212TIP3    H1 3521   6.437   3.245   1.033
 1212TIP3    H2 3522   6.309   3.167   1.051
 1213TIP3   OH2 3523   8.184   3.172   0.663
 1213TIP3    H1 3524   8.219   3.172   0.752
 1213TIP3    H2 3525   8.126   3.247   0.659
 1214TIP3   OH2 3526   6.307   2.970   0.385
 1214TIP3    H1 3527   6.365   2.893   0.386
 1214TIP3    H2 3528   6.366   3.044   0.371
 1215TIP3   OH2 3529   6.092   3.232   0.416
 1215TIP3    H1 3530   6.145   3.222   0.337
 1215TIP3    H2 3531   6.110   3.321   0.446
 1216TIP3   OH2 3532   7.992   3.371   0.635
 1216TIP3    H1 3533   7.914   3.425   0.623
 1216TIP3    H2 3534   7.970   3.288   0.593
 1217TIP3   OH2 3535   9.292   7.361   7.894
 1217TIP3    H1 3536   9.216   7.348   7.950
 1217TIP3    H2 3537   9.335   7.439   7.931
 1218TIP3   OH2 3538   6.311   2.783   0.749
 1218TIP3    H1 3539   6.263   2.783   0.832
 1218TIP3    H2 3540   6.257   2.836   0.691
 1219TIP3   OH2 3541   6.346   4.243   0.836
 1219TIP3    H1 3542   6.253   4.226   0.821
 1219TIP3    H2 3543   6.358   4.230   0.930
 1220TIP3   OH2 3544   6.545   4.278   0.385
 1220TIP3    H1 3545   6.486   4.339   0.341
 1220TIP3    H2 3546   6.628   4.289   0.338
 1221TIP3   OH2 3547   6.972   4.501   0.512
 1221TIP3    H1 3548   7.011   4.502   0.599
 1221TIP3    H2 3549   7.034   4.550   0.457
 1222TIP3   OH2 3550   7.154   4.634   0.356
 1222TIP3    H1 3551   7.218   4.589   0.301
 1222TIP3    H2 3552   7.206   4.686   0.417
 1223TIP3   OH2 3553   7.925   3.130   0.533
 1223TIP3    H1 3554   7.873   3.053   0.509
 1223TIP3    H2 3555   7.981   3.146   0.457
 1224TIP3   OH2 3556   6.208   4.509   0.448
 1224TIP3    H1 3557   6.116   4.518   0.423
 1224TIP3    H2 3558   6.225   4.586   0.503
 1225TIP3   OH2 3559   6.423   4.484   0.258
 1225TIP3    H1 3560   6.351   4.516   0.313
 1225TIP3    H2 3561   6.391   4.492   0.168
 1226TIP3   OH2 3562   6.109   4.317   0.154
 1226TIP3    H1 3563   6.137   4.297   0.243
 1226TIP3    H2 3564   6.181   4.286   0.098
 1227TIP3   OH2 3565   6.319   4.206   0.030
 1227TIP3    H1 3566   6.321   4.116   0.062
 1227TIP3    H2 3567   6.410   4.232   0.026
 1228TIP3   OH2 3568   6.590   4.244   0.050
 1228TIP3    H1 3569   6.610   4.150   0.044
 1228TIP3    H2 3570   6.659   4.279   0.106
 1229TIP3   OH2 3571   7.150   2.929   0.112
 1229TIP3    H1 3572   7.106   2.858   0.159
 1229TIP3    H2 3573   7.213   2.885   0.055
 1230TIP3   OH2 3574   1.080   7.456   7.993
 1230TIP3    H1 3575   1.109   7.427   7.907
 1230TIP3    H2 3576   0.984   7.457   7.987
 1231TIP3   OH2 3577   6.365   2.653   0.107
 1231TIP3    H1 3578   6.284   2.605   0.123
 1231TIP3    H2 3579   6.433   2.585   0.104
 1232TIP3   OH2 3580   9.417   7.129   7.793
 1232TIP3    H1 3581   9.492   7.170   7.749
 1232TIP3    H2 3582   9.375   7.202   7.839
 1233TIP3   OH2 3583   6.830   2.707   0.008
 1233TIP3    H1 3584   6.847   2.795  -0.026
 1233TIP3    H2 3585   6.883   2.701   0.087
 1234TIP3   OH2 3586   0.802   7.423   7.947
 1234TIP3    H1 3587   0.805   7.415   7.852
 1234TIP3    H2 3588   0.797   7.333   7.978
 1235TIP3   OH2 3589   6.621   2.920   0.985
 1235TIP3    H1 3590   6.586   2.854   1.045
 1235TIP3    H2 3591   6.713   2.929   1.010
 1236TIP3   OH2 3592   6.862   2.928   1.119
 1236TIP3    H1 3593   6.939   2.911   1.064
 1236TIP3    H2 3594   6.863   2.856   1.182
 1237TIP3   OH2 3595   7.673   3.100   0.951
 1237TIP3    H1 3596   7.706   3.088   1.040
 1237TIP3    H2 3597   7.751   3.121   0.900
 1238TIP3   OH2 3598   7.616   4.567   0.434
 1238TIP3    H1 3599   7.649   4.525   0.355
 1238TIP3    H2 3600   7.625   4.661   0.417
 1239TIP3   OH2 3601   8.354   4.119   0.379
 1239TIP3    H1 3602   8.429   4.164   0.416
 1239TIP3    H2 3603   8.278   4.170   0.408
 1240TIP3   OH2 3604   8.015   3.889   0.278
 1240TIP3    H1 3605   8.084   3.882   0.344
 1240TIP3    H2 3606   8.005   3.800   0.244
 1241TIP3   OH2 3607   8.097   3.388   0.127
 1241TIP3    H1 3608   8.058   3.462   0.175
 1241TIP3    H2 3609   8.182   3.375   0.168
 1242TIP3   OH2 3610   8.100   4.172   0.502
 1242TIP3    H1 3611   8.119   4.079   0.515
 1242TIP3    H2 3612   8.025   4.172   0.443
 1243TIP3   OH2 3613   8.212   3.908   0.482
 1243TIP3    H1 3614   8.274   3.955   0.426
 1243TIP3    H2 3615   8.247   3.918   0.570
 1244TIP3   OH2 3616   8.560   3.745   0.501
 1244TIP3    H1 3617   8.498   3.678   0.530
 1244TIP3    H2 3618   8.536   3.761   0.410
 1245TIP3   OH2 3619   8.436   3.499   0.566
 1245TIP3    H1 3620   8.425   3.407   0.539
 1245TIP3    H2 3621   8.499   3.496   0.638
 1246TIP3   OH2 3622   8.150   3.596   0.678
 1246TIP3    H1 3623   8.162   3.576   0.585
 1246TIP3    H2 3624   8.093   3.526   0.710
 1247TIP3   OH2 3625   8.026   3.091   0.184
 1247TIP3    H1 3626   8.085   3.158   0.219
 1247TIP3    H2 3627   8.058   3.075   0.095
 1248TIP3   OH2 3628   8.385   3.242   0.494
 1248TIP3    H1 3629   8.326   3.199   0.557
 1248TIP3    H2 3630   8.470   3.202   0.511
 1249TIP3   OH2 3631   8.626   3.163   0.601
 1249TIP3    H1 3632   8.702   3.144   0.655
 1249TIP3    H2 3633   8.578   3.081   0.597
 1250TIP3   OH2 3634   0.469   4.186   1.966
 1250TIP3    H1 3635   0.401   4.230   1.915
 1250TIP3    H2 3636   0.486   4.245   2.040
 1251TIP3   OH2 3637   9.643   4.993   1.630
 1251TIP3    H1 3638   9.578   4.947   1.682
 1251TIP3    H2 3639   9.596   5.022   1.552
 1252TIP3   OH2 3640   0.111   4.920   1.934
 1252TIP3    H1 3641   0.089   4.845   1.879
 1252TIP3    H2 3642   0.093   4.997   1.880
 1253TIP3   OH2 3643   0.263   4.569   1.799
 1253TIP3    H1 3644   0.179   4.615   1.796
 1253TIP3    H2 3645   0.287   4.557   1.707
 1254TIP3   OH2 3646   9.789   4.448   2.106
 1254TIP3    H1 3647   9.786   4.515   2.174
 1254TIP3    H2 3648   9.725   4.478   2.041
 1255TIP3   OH2 3649   0.346   5.285   1.986
 1255TIP3    H1 3650   0.355   5.189   1.990
 1255TIP3    H2 3651   0.265   5.303   2.033
 1256TIP3   OH2 3652   9.327   4.975   2.110
 1256TIP3    H1 3653   9.332   5.050   2.169
 1256TIP3    H2 3654   9.234   4.969   2.086
 1257TIP3   OH2 3655   0.216   4.374   2.280
 1257TIP3    H1 3656   0.139   4.373   2.224
 1257TIP3    H2 3657   0.223   4.284   2.313
 1258TIP3   OH2 3658   9.803   4.178   2.185
 1258TIP3    H1 3659   9.762   4.160   2.269
 1258TIP3    H2 3660   9.761   4.258   2.153
 1259TIP3   OH2 3661   9.519   4.356   2.350
 1259TIP3    H1 3662   9.504   4.277   2.402
 1259TIP3    H2 3663   9.597   4.396   2.388
 1260TIP3   OH2 3664   0.070   5.596   2.095
 1260TIP3    H1 3665   0.060   5.613   2.002
 1260TIP3    H2 3666   0.140   5.655   2.123
 1261TIP3   OH2 3667   0.026   4.715   1.773
 1261TIP3    H1 3668   0.052   4.757   1.691
 1261TIP3    H2 3669  -0.070   4.721   1.774
 1262TIP3   OH2 3670   9.424   4.719   2.107
 1262TIP3    H1 3671   9.424   4.690   2.199
 1262TIP3    H2 3672   9.380   4.804   2.109
 1263TIP3   OH2 3673   9.330   4.537   2.490
 1263TIP3    H1 3674   9.312   4.483   2.413
 1263TIP3    H2 3675   9.418   4.572   2.474
 1264TIP3   OH2 3676   9.562   5.076   2.016
 1264TIP3    H1 3677   9.493   5.013   2.035
 1264TIP3    H2 3678   9.605   5.091   2.100
 1265TIP3   OH2 3679   0.359   5.011   2.010
 1265TIP3    H1 3680   0.267   4.989   2.022
 1265TIP3    H2 3681   0.384   4.966   1.929
 1266TIP3   OH2 3682   9.537   4.740   1.858
 1266TIP3    H1 3683   9.496   4.723   1.943
 1266TIP3    H2 3684   9.466   4.727   1.794
 1267TIP3   OH2 3685   9.682   5.298   1.913
 1267TIP3    H1 3686   9.627   5.225   1.944
 1267TIP3    H2 3687   9.621   5.371   1.905
 1268TIP3   OH2 3688   0.242   4.066   2.121
 1268TIP3    H1 3689   0.152   4.090   2.146
 1268TIP3    H2 3690   0.265   4.129   2.053
 1269TIP3   OH2 3691   9.645   5.162   2.263
 1269TIP3    H1 3692   9.639   5.102   2.338
 1269TIP3    H2 3693   9.701   5.233   2.294
 1270TIP3   OH2 3694   9.108   4.813   2.427
 1270TIP3    H1 3695   9.077   4.725   2.407
 1270TIP3    H2 3696   9.190   4.800   2.474
 1271TIP3   OH2 3697   9.711   4.812   2.091
 1271TIP3    H1 3698   9.777   4.868   2.051
 1271TIP3    H2 3699   9.644   4.802   2.023
 1272TIP3   OH2 3700   9.577   4.657   2.481
 1272TIP3    H1 3701   9.651   4.655   2.420
 1272TIP3    H2 3702   9.610   4.616   2.561
 1273TIP3   OH2 3703   9.757   4.414   2.504
 1273TIP3    H1 3704   9.761   4.320   2.486
 1273TIP3    H2 3705   9.848   4.441   2.512
 1274TIP3   OH2 3706   0.003   4.665   2.296
 1274TIP3    H1 3707  -0.048   4.723   2.239
 1274TIP3    H2 3708   0.093   4.672   2.264
 1275TIP3   OH2 3709   9.453   4.130   2.505
 1275TIP3    H1 3710   9.422   4.103   2.591
 1275TIP3    H2 3711   9.393   4.087   2.443
 1276TIP3   OH2 3712   9.723   4.150   2.443
 1276TIP3    H1 3713   9.636   4.125   2.476
 1276TIP3    H2 3714   9.784   4.104   2.501
 1277TIP3   OH2 3715   0.123   4.061   2.603
 1277TIP3    H1 3716   0.128   3.966   2.611
 1277TIP3    H2 3717   0.118   4.093   2.693
 1278TIP3   OH2 3718   0.175   5.456   1.496
 1278TIP3    H1 3719   0.180   5.409   1.579
 1278TIP3    H2 3720   0.232   5.407   1.436
 1279TIP3   OH2 3721   0.186   5.366   1.763
 1279TIP3    H1 3722   0.138   5.284   1.754
 1279TIP3    H2 3723   0.252   5.348   1.829
 1280TIP3   OH2 3724   0.236   5.059   2.324
 1280TIP3    H1 3725   0.163   5.069   2.386
 1280TIP3    H2 3726   0.280   5.144   2.326
 1281TIP3   OH2 3727   0.221   4.814   1.592
 1281TIP3    H1 3728   0.269   4.742   1.551
 1281TIP3    H2 3729   0.237   4.889   1.535
 1282TIP3   OH2 3730   0.040   5.130   1.766
 1282TIP3    H1 3731  -0.021   5.186   1.814
 1282TIP3    H2 3732  -0.016   5.081   1.706
 1283TIP3   OH2 3733   0.241   4.707   2.159
 1283TIP3    H1 3734   0.307   4.642   2.138
 1283TIP3    H2 3735   0.225   4.754   2.077
 1284TIP3   OH2 3736   0.421   4.501   2.145
 1284TIP3    H1 3737   0.348   4.455   2.187
 1284TIP3    H2 3738   0.498   4.449   2.167
 1285TIP3   OH2 3739   0.223   4.331   1.955
 1285TIP3    H1 3740   0.141   4.360   1.996
 1285TIP3    H2 3741   0.245   4.401   1.894
 1286TIP3   OH2 3742   0.648   3.928   2.461
 1286TIP3    H1 3743   0.710   3.870   2.416
 1286TIP3    H2 3744   0.611   3.983   2.392
 1287TIP3   OH2 3745   0.495   4.076   2.287
 1287TIP3    H1 3746   0.433   4.112   2.351
 1287TIP3    H2 3747   0.439   4.033   2.222
 1288TIP3   OH2 3748   9.115   5.268   2.099
 1288TIP3    H1 3749   9.124   5.221   2.182
 1288TIP3    H2 3750   9.103   5.359   2.125
 1289TIP3   OH2 3751   9.551   5.552   1.923
 1289TIP3    H1 3752   9.588   5.561   2.011
 1289TIP3    H2 3753   9.458   5.538   1.937
 1290TIP3   OH2 3754   0.368   3.831   2.167
 1290TIP3    H1 3755   0.308   3.903   2.148
 1290TIP3    H2 3756   0.321   3.753   2.136
 1291TIP3   OH2 3757   0.164   3.795   2.607
 1291TIP3    H1 3758   0.177   3.748   2.689
 1291TIP3    H2 3759   0.244   3.779   2.557
 1292TIP3   OH2 3760   0.099   5.326   2.087
 1292TIP3    H1 3761   0.024   5.300   2.033
 1292TIP3    H2 3762   0.088   5.420   2.100
 1293TIP3   OH2 3763   1.382   4.799   0.939
 1293TIP3    H1 3764   1.316   4.859   0.903
 1293TIP3    H2 3765   1.333   4.743   0.999
 1294TIP3   OH2 3766   1.324   4.725   1.246
 1294TIP3    H1 3767   1.359   4.727   1.335
 1294TIP3    H2 3768   1.296   4.635   1.234
 1295TIP3   OH2 3769   0.641   4.579   1.615
 1295TIP3    H1 3770   0.671   4.523   1.687
 1295TIP3    H2 3771   0.720   4.604   1.569
 1296TIP3   OH2 3772   1.643   5.000   0.935
 1296TIP3    H1 3773   1.601   4.950   1.005
 1296TIP3    H2 3774   1.655   5.087   0.973
 1297TIP3   OH2 3775   0.625   5.008   1.305
 1297TIP3    H1 3776   0.606   4.915   1.316
 1297TIP3    H2 3777   0.720   5.013   1.303
 1298TIP3   OH2 3778   1.226   5.450   0.925
 1298TIP3    H1 3779   1.288   5.391   0.883
 1298TIP3    H2 3780   1.231   5.430   1.018
 1299TIP3   OH2 3781   1.152   4.944   1.263
 1299TIP3    H1 3782   1.195   4.862   1.238
 1299TIP3    H2 3783   1.223   4.999   1.295
 1300TIP3   OH2 3784   2.180   4.263   1.285
 1300TIP3    H1 3785   2.190   4.338   1.343
 1300TIP3    H2 3786   2.231   4.285   1.207
 1301TIP3   OH2 3787   1.609   4.521   1.358
 1301TIP3    H1 3788   1.664   4.443   1.362
 1301TIP3    H2 3789   1.564   4.514   1.273
 1302TIP3   OH2 3790   0.983   4.517   1.221
 1302TIP3    H1 3791   1.070   4.522   1.261
 1302TIP3    H2 3792   0.990   4.443   1.160
 1303TIP3   OH2 3793   2.234   4.477   1.457
 1303TIP3    H1 3794   2.146   4.513   1.456
 1303TIP3    H2 3795   2.272   4.508   1.539
 1304TIP3   OH2 3796   0.881   4.100   1.713
 1304TIP3    H1 3797   0.838   4.140   1.638
 1304TIP3    H2 3798   0.827   4.124   1.788
 1305TIP3   OH2 3799   1.232   4.953   0.763
 1305TIP3    H1 3800   1.233   4.929   0.670
 1305TIP3    H2 3801   1.175   5.030   0.767
 1306TIP3   OH2 3802   0.984   4.872   1.472
 1306TIP3    H1 3803   0.928   4.943   1.505
 1306TIP3    H2 3804   1.034   4.912   1.401
 1307TIP3   OH2 3805   0.819   4.191   1.463
 1307TIP3    H1 3806   0.849   4.278   1.491
 1307TIP3    H2 3807   0.883   4.164   1.398
 1308TIP3   OH2 3808   0.826   5.072   1.574
 1308TIP3    H1 3809   0.810   5.163   1.547
 1308TIP3    H2 3810   0.750   5.050   1.628
 1309TIP3   OH2 3811   1.650   5.258   1.055
 1309TIP3    H1 3812   1.565   5.250   1.099
 1309TIP3    H2 3813   1.650   5.345   1.017
 1310TIP3   OH2 3814   1.932   4.226   1.454
 1310TIP3    H1 3815   1.846   4.230   1.411
 1310TIP3    H2 3816   1.993   4.205   1.383
 1311TIP3   OH2 3817   1.274   3.757   1.386
 1311TIP3    H1 3818   1.238   3.685   1.436
 1311TIP3    H2 3819   1.235   3.836   1.425
 1312TIP3   OH2 3820   1.380   5.301   0.746
 1312TIP3    H1 3821   1.420   5.215   0.735
 1312TIP3    H2 3822   1.450   5.363   0.728
 1313TIP3   OH2 3823   1.493   5.053   0.710
 1313TIP3    H1 3824   1.411   5.003   0.717
 1313TIP3    H2 3825   1.544   5.025   0.786
 1314TIP3   OH2 3826   1.887   5.160   1.420
 1314TIP3    H1 3827   1.869   5.084   1.365
 1314TIP3    H2 3828   1.867   5.236   1.365
 1315TIP3   OH2 3829   1.172   4.632   0.739
 1315TIP3    H1 3830   1.103   4.696   0.720
 1315TIP3    H2 3831   1.249   4.667   0.695
 1316TIP3   OH2 3832   2.064   4.818   1.278
 1316TIP3    H1 3833   1.979   4.862   1.276
 1316TIP3    H2 3834   2.100   4.829   1.190
 1317TIP3   OH2 3835   1.428   4.728   0.679
 1317TIP3    H1 3836   1.409   4.751   0.770
 1317TIP3    H2 3837   1.521   4.747   0.668
 1318TIP3   OH2 3838   1.764   4.692   1.596
 1318TIP3    H1 3839   1.754   4.774   1.645
 1318TIP3    H2 3840   1.693   4.694   1.532
 1319TIP3   OH2 3841   0.762   4.630   1.102
 1319TIP3    H1 3842   0.722   4.553   1.064
 1319TIP3    H2 3843   0.843   4.598   1.142
 1320TIP3   OH2 3844   0.896   5.041   1.210
 1320TIP3    H1 3845   0.867   5.018   1.122
 1320TIP3    H2 3846   0.985   5.008   1.216
 1321TIP3   OH2 3847   0.854   4.634   1.441
 1321TIP3    H1 3848   0.895   4.597   1.363
 1321TIP3    H2 3849   0.900   4.717   1.455
 1322TIP3   OH2 3850   1.420   5.255   1.197
 1322TIP3    H1 3851   1.402   5.338   1.243
 1322TIP3    H2 3852   1.401   5.187   1.262
 1323TIP3   OH2 3853   1.031   5.160   1.741
 1323TIP3    H1 3854   0.972   5.219   1.788
 1323TIP3    H2 3855   0.973   5.110   1.682
 1324TIP3   OH2 3856   1.291   4.620   0.413
 1324TIP3    H1 3857   1.285   4.543   0.470
 1324TIP3    H2 3858   1.230   4.601   0.341
 1325TIP3   OH2 3859   0.780   4.705   1.893
 1325TIP3    H1 3860   0.784   4.799   1.912
 1325TIP3    H2 3861   0.686   4.686   1.888
 1326TIP3   OH2 3862   1.119   5.206   0.758
 1326TIP3    H1 3863   1.208   5.242   0.756
 1326TIP3    H2 3864   1.065   5.276   0.795
 1327TIP3   OH2 3865   0.828   5.323   1.826
 1327TIP3    H1 3866   0.795   5.335   1.737
 1327TIP3    H2 3867   0.749   5.303   1.878
 1328TIP3   OH2 3868   1.796   5.242   0.105
 1328TIP3    H1 3869   1.735   5.287   0.046
 1328TIP3    H2 3870   1.809   5.156   0.065
 1329TIP3   OH2 3871   0.420   4.868   1.785
 1329TIP3    H1 3872   0.348   4.849   1.725
 1329TIP3    H2 3873   0.450   4.783   1.816
 1330TIP3   OH2 3874   0.304   5.023   1.432
 1330TIP3    H1 3875   0.396   5.039   1.414
 1330TIP3    H2 3876   0.261   5.108   1.417
 1331TIP3   OH2 3877   2.114   5.530   1.484
 1331TIP3    H1 3878   2.121   5.435   1.498
 1331TIP3    H2 3879   2.036   5.555   1.532
 1332TIP3   OH2 3880   1.214   5.312   1.604
 1332TIP3    H1 3881   1.204   5.402   1.635
 1332TIP3    H2 3882   1.149   5.262   1.653
 1333TIP3   OH2 3883   1.238   5.405   0.513
 1333TIP3    H1 3884   1.175   5.334   0.500
 1333TIP3    H2 3885   1.286   5.381   0.592
 1334TIP3   OH2 3886   2.006   4.641   1.755
 1334TIP3    H1 3887   1.924   4.656   1.707
 1334TIP3    H2 3888   2.022   4.547   1.747
 1335TIP3   OH2 3889   0.615   5.059   1.751
 1335TIP3    H1 3890   0.665   5.047   1.832
 1335TIP3    H2 3891   0.545   4.994   1.757
 1336TIP3   OH2 3892   0.942   3.882   1.559
 1336TIP3    H1 3893   0.906   3.895   1.471
 1336TIP3    H2 3894   0.906   3.954   1.610
 1337TIP3   OH2 3895   1.553   4.081   1.818
 1337TIP3    H1 3896   1.616   4.035   1.873
 1337TIP3    H2 3897   1.469   4.068   1.863
 1338TIP3   OH2 3898   1.749   4.434   1.693
 1338TIP3    H1 3899   1.716   4.433   1.783
 1338TIP3    H2 3900   1.741   4.525   1.666
 1339TIP3   OH2 3901   0.930   4.413   1.586
 1339TIP3    H1 3902   0.881   4.414   1.668
 1339TIP3    H2 3903   0.906   4.495   1.543
 1340TIP3   OH2 3904   1.352   4.365   0.818
 1340TIP3    H1 3905   1.303   4.425   0.875
 1340TIP3    H2 3906   1.442   4.399   0.820
 1341TIP3   OH2 3907   1.473   4.630   1.903
 1341TIP3    H1 3908   1.451   4.560   1.965
 1341TIP3    H2 3909   1.565   4.650   1.921
 1342TIP3   OH2 3910   1.487   4.488   1.111
 1342TIP3    H1 3911   1.404   4.511   1.069
 1342TIP3    H2 3912   1.506   4.399   1.081
 1343TIP3   OH2 3913   0.775   4.423   1.809
 1343TIP3    H1 3914   0.779   4.492   1.875
 1343TIP3    H2 3915   0.759   4.343   1.860
 1344TIP3   OH2 3916   1.433   4.674   1.495
 1344TIP3    H1 3917   1.496   4.623   1.445
 1344TIP3    H2 3918   1.407   4.616   1.567
 1345TIP3   OH2 3919   1.039   4.136   1.310
 1345TIP3    H1 3920   1.030   4.082   1.232
 1345TIP3    H2 3921   1.118   4.188   1.294
 1346TIP3   OH2 3922   1.644   4.237   1.372
 1346TIP3    H1 3923   1.566   4.261   1.422
 1346TIP3    H2 3924   1.611   4.219   1.284
 1347TIP3   OH2 3925   1.827   5.869   1.571
 1347TIP3    H1 3926   1.826   5.885   1.476
 1347TIP3    H2 3927   1.905   5.914   1.602
 1348TIP3   OH2 3928   0.768   4.973   1.982
 1348TIP3    H1 3929   0.849   4.993   2.029
 1348TIP3    H2 3930   0.699   4.982   2.048
 1349TIP3   OH2 3931   1.239   4.459   1.304
 1349TIP3    H1 3932   1.269   4.382   1.255
 1349TIP3    H2 3933   1.230   4.427   1.394
 1350TIP3   OH2 3934   1.189   4.342   1.549
 1350TIP3    H1 3935   1.099   4.372   1.561
 1350TIP3    H2 3936   1.241   4.403   1.600
 1351TIP3   OH2 3937   0.897   4.725   0.686
 1351TIP3    H1 3938   0.815   4.675   0.681
 1351TIP3    H2 3939   0.892   4.770   0.770
 1352TIP3   OH2 3940   1.831   4.961   1.241
 1352TIP3    H1 3941   1.861   5.009   1.164
 1352TIP3    H2 3942   1.742   4.933   1.219
 1353TIP3   OH2 3943   1.349   5.044   1.646
 1353TIP3    H1 3944   1.394   5.026   1.728
 1353TIP3    H2 3945   1.303   5.126   1.661
 1354TIP3   OH2 3946   1.516   4.434   0.565
 1354TIP3    H1 3947   1.577   4.361   0.579
 1354TIP3    H2 3948   1.432   4.391   0.546
 1355TIP3   OH2 3949   0.616   4.731   1.317
 1355TIP3    H1 3950   0.652   4.704   1.232
 1355TIP3    H2 3951   0.678   4.695   1.381
 1356TIP3   OH2 3952   1.000   4.860   0.458
 1356TIP3    H1 3953   0.979   4.943   0.414
 1356TIP3    H2 3954   0.934   4.852   0.527
 1357TIP3   OH2 3955   0.508   4.635   1.914
 1357TIP3    H1 3956   0.505   4.608   2.006
 1357TIP3    H2 3957   0.434   4.591   1.873
 1358TIP3   OH2 3958   1.244   4.785   1.936
 1358TIP3    H1 3959   1.174   4.726   1.907
 1358TIP3    H2 3960   1.325   4.743   1.908
 1359TIP3   OH2 3961   1.486   5.330   1.532
 1359TIP3    H1 3962   1.392   5.314   1.535
 1359TIP3    H2 3963   1.508   5.364   1.620
 1360TIP3   OH2 3964   1.947   4.320   0.412
 1360TIP3    H1 3965   1.875   4.352   0.358
 1360TIP3    H2 3966   1.968   4.394   0.469
 1361TIP3   OH2 3967   2.131   5.253   1.503
 1361TIP3    H1 3968   2.038   5.232   1.503
 1361TIP3    H2 3969   2.163   5.219   1.419
 1362TIP3   OH2 3970   1.505   5.223   0.336
 1362TIP3    H1 3971   1.547   5.193   0.417
 1362TIP3    H2 3972   1.546   5.171   0.268
 1363TIP3   OH2 3973   1.578   4.858   1.175
 1363TIP3    H1 3974   1.487   4.829   1.178
 1363TIP3    H2 3975   1.627   4.781   1.147
 1364TIP3   OH2 3976   0.715   5.063   0.987
 1364TIP3    H1 3977   0.726   5.146   0.942
 1364TIP3    H2 3978   0.637   5.074   1.040
 1365TIP3   OH2 3979   0.848   4.830   0.929
 1365TIP3    H1 3980   0.798   4.911   0.942
 1365TIP3    H2 3981   0.815   4.770   0.996
 1366TIP3   OH2 3982   1.032   5.382   1.399
 1366TIP3    H1 3983   1.069   5.456   1.352
 1366TIP3    H2 3984   1.104   5.348   1.451
 1367TIP3   OH2 3985   1.390   5.039   1.373
 1367TIP3    H1 3986   1.379   5.036   1.468
 1367TIP3    H2 3987   1.470   4.988   1.356
 1368TIP3   OH2 3988   1.371   4.833   0.203
 1368TIP3    H1 3989   1.435   4.826   0.274
 1368TIP3    H2 3990   1.329   4.918   0.217
 1369TIP3   OH2 3991   1.640   5.536   1.418
 1369TIP3    H1 3992   1.571   5.472   1.438
 1369TIP3    H2 3993   1.603   5.587   1.346
 1370TIP3   OH2 3994   1.646   5.524   0.130
 1370TIP3    H1 3995   1.724   5.544   0.078
 1370TIP3    H2 3996   1.585   5.484   0.068
 1371TIP3   OH2 3997   0.741   4.173   1.936
 1371TIP3    H1 3998   0.646   4.173   1.939
 1371TIP3    H2 3999   0.767   4.111   2.005
 1372TIP3   OH2 4000   1.544   4.891   0.416
 1372TIP3    H1 4001   1.477   4.898   0.485
 1372TIP3    H2 4002   1.624   4.870   0.462
 1373TIP3   OH2 4003   0.489   5.253   1.582
 1373TIP3    H1 4004   0.530   5.184   1.634
 1373TIP3    H2 4005   0.485   5.329   1.641
 1374TIP3   OH2 4006   1.537   4.278   1.631
 1374TIP3    H1 4007   1.620   4.324   1.641
 1374TIP3    H2 4008   1.535   4.215   1.703
 1375TIP3   OH2 4009   1.220   4.127   0.797
 1375TIP3    H1 4010   1.256   4.214   0.817
 1375TIP3    H2 4011   1.249   4.072   0.870
 1376TIP3   OH2 4012   1.375   4.489   1.686
 1376TIP3    H1 4013   1.408   4.532   1.765
 1376TIP3    H2 4014   1.431   4.413   1.675
 1377TIP3   OH2 4015   1.338   3.968   0.982
 1377TIP3    H1 4016   1.339   3.886   1.032
 1377TIP3    H2 4017   1.412   4.018   1.017
 1378TIP3   OH2 4018   2.011   4.369   1.674
 1378TIP3    H1 4019   1.918   4.381   1.694
 1378TIP3    H2 4020   2.012   4.321   1.591
 1379TIP3   OH2 4021   1.714   4.637   1.088
 1379TIP3    H1 4022   1.634   4.585   1.081
 1379TIP3    H2 4023   1.776   4.581   1.133
 1380TIP3   OH2 4024   1.684   5.530   0.995
 1380TIP3    H1 4025   1.644   5.586   0.929
 1380TIP3    H2 4026   1.778   5.539   0.981
 1381TIP3   OH2 4027   0.459   5.567   1.978
 1381TIP3    H1 4028   0.540   5.565   2.028
 1381TIP3    H2 4029   0.428   5.477   1.978
 1382TIP3   OH2 4030   0.925   5.489   2.023
 1382TIP3    H1 4031   1.016   5.462   2.035
 1382TIP3    H2 4032   0.892   5.434   1.951
 1383TIP3   OH2 4033   1.542   5.425   1.784
 1383TIP3    H1 4034   1.555   5.355   1.848
 1383TIP3    H2 4035   1.615   5.484   1.797
 1384TIP3   OH2 4036   0.571   4.976   2.180
 1384TIP3    H1 4037   0.585   4.882   2.189
 1384TIP3    H2 4038   0.488   4.984   2.134
 1385TIP3   OH2 4039   1.181   5.059   1.948
 1385TIP3    H1 4040   1.136   5.079   1.866
 1385TIP3    H2 4041   1.214   4.970   1.936
 1386TIP3   OH2 4042   1.657   5.105   1.567
 1386TIP3    H1 4043   1.735   5.137   1.521
 1386TIP3    H2 4044   1.591   5.173   1.551
 1387TIP3   OH2 4045   0.681   4.719   2.184
 1387TIP3    H1 4046   0.755   4.698   2.128
 1387TIP3    H2 4047   0.720   4.738   2.269
 1388TIP3   OH2 4048   1.044   4.612   1.838
 1388TIP3    H1 4049   0.955   4.647   1.846
 1388TIP3    H2 4050   1.071   4.637   1.749
 1389TIP3   OH2 4051   1.535   4.977   1.915
 1389TIP3    H1 4052   1.608   4.941   1.863
 1389TIP3    H2 4053   1.532   4.923   1.993
 1390TIP3   OH2 4054   4.953   9.139   8.003
 1390TIP3    H1 4055   4.925   9.073   7.939
 1390TIP3    H2 4056   4.879   9.199   8.010
 1391TIP3   OH2 4057   1.141   4.385   1.956
 1391TIP3    H1 4058   1.136   4.310   1.896
 1391TIP3    H2 4059   1.108   4.459   1.905
 1392TIP3   OH2 4060   1.138   4.179   1.769
 1392TIP3    H1 4061   1.166   4.222   1.688
 1392TIP3    H2 4062   1.049   4.150   1.752
 1393TIP3   OH2 4063   1.149   4.697   1.600
 1393TIP3    H1 4064   1.239   4.717   1.575
 1393TIP3    H2 4065   1.097   4.765   1.559
 1394TIP3   OH2 4066   1.740   4.670   1.986
 1394TIP3    H1 4067   1.762   4.577   1.986
 1394TIP3    H2 4068   1.824   4.715   1.982
 1395TIP3   OH2 4069   1.775   4.932   1.739
 1395TIP3    H1 4070   1.722   4.994   1.687
 1395TIP3    H2 4071   1.864   4.945   1.707
 1396TIP3   OH2 4072   1.025   4.462   2.196
 1396TIP3    H1 4073   0.957   4.398   2.217
 1396TIP3    H2 4074   1.053   4.440   2.108
 1397TIP3   OH2 4075   1.260   3.953   1.865
 1397TIP3    H1 4076   1.226   4.036   1.834
 1397TIP3    H2 4077   1.191   3.890   1.844
 1398TIP3   OH2 4078   1.399   4.411   2.052
 1398TIP3    H1 4079   1.388   4.399   2.147
 1398TIP3    H2 4080   1.312   4.396   2.016
 1399TIP3   OH2 4081   1.659   4.396   1.944
 1399TIP3    H1 4082   1.578   4.381   1.992
 1399TIP3    H2 4083   1.726   4.353   1.997
 1400TIP3   OH2 4084   1.892   4.328   2.078
 1400TIP3    H1 4085   1.905   4.234   2.087
 1400TIP3    H2 4086   1.886   4.360   2.168
 1401TIP3   OH2 4087   0.866   4.239   2.257
 1401TIP3    H1 4088   0.867   4.150   2.222
 1401TIP3    H2 4089   0.902   4.231   2.346
 1402TIP3   OH2 4090   1.322   3.921   2.132
 1402TIP3    H1 4091   1.392   3.855   2.129
 1402TIP3    H2 4092   1.294   3.930   2.041
 1403TIP3   OH2 4093   1.432   4.139   2.257
 1403TIP3    H1 4094   1.395   4.064   2.211
 1403TIP3    H2 4095   1.360   4.202   2.261
 1404TIP3   OH2 4096   1.958   5.585   0.980
 1404TIP3    H1 4097   1.968   5.586   1.076
 1404TIP3    H2 4098   1.970   5.677   0.955
 1405TIP3   OH2 4099   1.960   5.599   1.258
 1405TIP3    H1 4100   1.908   5.519   1.262
 1405TIP3    H2 4101   2.025   5.589   1.327
 1406TIP3   OH2 4102   2.012   5.321   1.823
 1406TIP3    H1 4103   1.940   5.329   1.886
 1406TIP3    H2 4104   2.057   5.405   1.829
 1407TIP3   OH2 4105   1.825   4.904   0.482
 1407TIP3    H1 4106   1.898   4.913   0.421
 1407TIP3    H2 4107   1.864   4.865   0.560
 1408TIP3   OH2 4108   1.973   4.803   0.691
 1408TIP3    H1 4109   1.951   4.741   0.761
 1408TIP3    H2 4110   2.065   4.824   0.706
 1409TIP3   OH2 4111   2.009   5.097   1.070
 1409TIP3    H1 4112   2.064   5.024   1.042
 1409TIP3    H2 4113   2.021   5.163   1.001
 1410TIP3   OH2 4114   1.805   5.370   1.264
 1410TIP3    H1 4115   1.738   5.417   1.314
 1410TIP3    H2 4116   1.758   5.330   1.191
 1411TIP3   OH2 4117   1.851   4.675   0.261
 1411TIP3    H1 4118   1.827   4.583   0.252
 1411TIP3    H2 4119   1.809   4.703   0.342
 1412TIP3   OH2 4120   1.895   4.631   0.882
 1412TIP3    H1 4121   1.904   4.536   0.896
 1412TIP3    H2 4122   1.834   4.659   0.950
 1413TIP3   OH2 4123   0.388   4.597   1.525
 1413TIP3    H1 4124   0.405   4.614   1.432
 1413TIP3    H2 4125   0.475   4.599   1.566
 1414TIP3   OH2 4126   2.030   4.968   1.636
 1414TIP3    H1 4127   2.100   4.904   1.621
 1414TIP3    H2 4128   2.036   5.027   1.561
 1415TIP3   OH2 4129   2.216   4.763   1.628
 1415TIP3    H1 4130   2.144   4.721   1.674
 1415TIP3    H2 4131   2.293   4.711   1.651
 1416TIP3   OH2 4132   1.703   4.259   0.639
 1416TIP3    H1 4133   1.702   4.186   0.701
 1416TIP3    H2 4134   1.784   4.305   0.657
 1417TIP3   OH2 4135   1.898   4.472   1.206
 1417TIP3    H1 4136   1.980   4.481   1.156
 1417TIP3    H2 4137   1.922   4.493   1.296
 1418TIP3   OH2 4138   1.986   4.603   1.434
 1418TIP3    H1 4139   1.910   4.629   1.485
 1418TIP3    H2 4140   2.012   4.682   1.387
 1419TIP3   OH2 4141   0.608   4.310   2.198
 1419TIP3    H1 4142   0.702   4.301   2.212
 1419TIP3    H2 4143   0.571   4.230   2.237
 1420TIP3   OH2 4144   2.446   4.199   1.949
 1420TIP3    H1 4145   2.508   4.139   1.909
 1420TIP3    H2 4146   2.410   4.249   1.875
 1421TIP3   OH2 4147   1.929   4.088   0.756
 1421TIP3    H1 4148   1.969   4.086   0.842
 1421TIP3    H2 4149   1.838   4.059   0.771
 1422TIP3   OH2 4150   0.418   4.329   1.669
 1422TIP3    H1 4151   0.434   4.253   1.613
 1422TIP3    H2 4152   0.418   4.403   1.608
 1423TIP3   OH2 4153   2.290   4.323   1.759
 1423TIP3    H1 4154   2.213   4.358   1.804
 1423TIP3    H2 4155   2.256   4.251   1.706
 1424TIP3   OH2 4156   1.964   3.875   0.352
 1424TIP3    H1 4157   1.976   3.805   0.288
 1424TIP3    H2 4158   1.997   3.953   0.308
 1425TIP3   OH2 4159   1.571   5.477   0.670
 1425TIP3    H1 4160   1.573   5.489   0.575
 1425TIP3    H2 4161   1.542   5.561   0.704
 1426TIP3   OH2 4162   0.565   3.913   1.977
 1426TIP3    H1 4163   0.507   3.872   2.042
 1426TIP3    H2 4164   0.522   3.995   1.955
 1427TIP3   OH2 4165   0.621   5.284   2.004
 1427TIP3    H1 4166   0.526   5.279   1.991
 1427TIP3    H2 4167   0.632   5.277   2.099
 1428TIP3   OH2 4168   0.801   5.348   1.546
 1428TIP3    H1 4169   0.743   5.413   1.507
 1428TIP3    H2 4170   0.884   5.361   1.501
 1429TIP3   OH2 4171   1.200   5.580   1.681
 1429TIP3    H1 4172   1.233   5.570   1.770
 1429TIP3    H2 4173   1.269   5.629   1.636
 1430TIP3   OH2 4174   1.405   5.724   1.561
 1430TIP3    H1 4175   1.471   5.668   1.522
 1430TIP3    H2 4176   1.454   5.785   1.616
 1431TIP3   OH2 4177   2.214   4.068   1.664
 1431TIP3    H1 4178   2.122   4.043   1.651
 1431TIP3    H2 4179   2.262   3.985   1.663
 1432TIP3   OH2 4180   0.466   5.619   1.587
 1432TIP3    H1 4181   0.374   5.638   1.569
 1432TIP3    H2 4182   0.487   5.673   1.663
 1433TIP3   OH2 4183   0.679   5.570   1.423
 1433TIP3    H1 4184   0.605   5.583   1.483
 1433TIP3    H2 4185   0.642   5.580   1.336
 1434TIP3   OH2 4186   1.120   5.594   1.246
 1434TIP3    H1 4187   1.044   5.609   1.189
 1434TIP3    H2 4188   1.136   5.678   1.287
 1435TIP3   OH2 4189   1.381   5.518   1.276
 1435TIP3    H1 4190   1.288   5.542   1.266
 1435TIP3    H2 4191   1.429   5.591   1.236
 1436TIP3   OH2 4192   1.582   5.697   1.192
 1436TIP3    H1 4193   1.568   5.782   1.149
 1436TIP3    H2 4194   1.615   5.640   1.123
 1437TIP3   OH2 4195   0.367   5.327   1.348
 1437TIP3    H1 4196   0.418   5.304   1.426
 1437TIP3    H2 4197   0.427   5.310   1.275
 1438TIP3   OH2 4198   0.576   5.247   1.184
 1438TIP3    H1 4199   0.584   5.166   1.234
 1438TIP3    H2 4200   0.663   5.287   1.190
 1439TIP3   OH2 4201   0.847   5.316   1.202
 1439TIP3    H1 4202   0.863   5.221   1.199
 1439TIP3    H2 4203   0.904   5.348   1.271
 1440TIP3   OH2 4204   1.414   3.981   1.285
 1440TIP3    H1 4205   1.383   3.892   1.302
 1440TIP3    H2 4206   1.508   3.970   1.267
 1441TIP3   OH2 4207   1.863   3.879   1.075
 1441TIP3    H1 4208   1.915   3.960   1.080
 1441TIP3    H2 4209   1.793   3.892   1.138
 1442TIP3   OH2 4210   2.067   4.064   0.991
 1442TIP3    H1 4211   2.135   4.019   0.940
 1442TIP3    H2 4212   2.090   4.156   0.986
 1443TIP3   OH2 4213   1.587   5.486   0.389
 1443TIP3    H1 4214   1.540   5.403   0.388
 1443TIP3    H2 4215   1.612   5.500   0.298
 1444TIP3   OH2 4216   0.872   3.970   2.174
 1444TIP3    H1 4217   0.834   3.899   2.225
 1444TIP3    H2 4218   0.962   3.976   2.205
 1445TIP3   OH2 4219   1.113   3.971   2.307
 1445TIP3    H1 4220   1.190   3.950   2.254
 1445TIP3    H2 4221   1.104   3.897   2.367
 1446TIP3   OH2 4222   1.953   4.059   2.082
 1446TIP3    H1 4223   1.971   4.031   2.172
 1446TIP3    H2 4224   2.039   4.058   2.040
 1447TIP3   OH2 4225   1.863   5.595   1.576
 1447TIP3    H1 4226   1.787   5.565   1.528
 1447TIP3    H2 4227   1.850   5.689   1.585
 1448TIP3   OH2 4228   3.154   5.017   0.326
 1448TIP3    H1 4229   3.105   5.092   0.293
 1448TIP3    H2 4230   3.095   4.943   0.313
 1449TIP3   OH2 4231   3.138   4.975   0.748
 1449TIP3    H1 4232   3.190   4.959   0.827
 1449TIP3    H2 4233   3.096   4.890   0.730
 1450TIP3   OH2 4234   2.444   4.854   1.100
 1450TIP3    H1 4235   2.474   4.792   1.166
 1450TIP3    H2 4236   2.519   4.866   1.041
 1451TIP3   OH2 4237   3.338   5.224   0.393
 1451TIP3    H1 4238   3.278   5.152   0.376
 1451TIP3    H2 4239   3.374   5.206   0.480
 1452TIP3   OH2 4240   2.366   5.229   0.779
 1452TIP3    H1 4241   2.376   5.134   0.774
 1452TIP3    H2 4242   2.450   5.261   0.810
 1453TIP3   OH2 4243   2.173   4.519   0.728
 1453TIP3    H1 4244   2.143   4.601   0.688
 1453TIP3    H2 4245   2.097   4.461   0.723
 1454TIP3   OH2 4246   2.230   4.809   0.779
 1454TIP3    H1 4247   2.272   4.733   0.820
 1454TIP3    H2 4248   2.302   4.870   0.763
 1455TIP3   OH2 4249   3.060   5.699   0.422
 1455TIP3    H1 4250   3.091   5.632   0.362
 1455TIP3    H2 4251   3.053   5.654   0.506
 1456TIP3   OH2 4252   2.944   5.203   0.749
 1456TIP3    H1 4253   2.987   5.122   0.722
 1456TIP3    H2 4254   3.016   5.262   0.773
 1457TIP3   OH2 4255   3.974   4.508   0.771
 1457TIP3    H1 4256   3.992   4.592   0.813
 1457TIP3    H2 4257   4.014   4.515   0.684
 1458TIP3   OH2 4258   3.355   4.684   0.789
 1458TIP3    H1 4259   3.389   4.599   0.817
 1458TIP3    H2 4260   3.314   4.666   0.704
 1459TIP3   OH2 4261   2.752   4.376   0.791
 1459TIP3    H1 4262   2.722   4.418   0.711
 1459TIP3    H2 4263   2.724   4.285   0.782
 1460TIP3   OH2 4264   3.420   4.455   0.396
 1460TIP3    H1 4265   3.488   4.441   0.462
 1460TIP3    H2 4266   3.468   4.485   0.319
 1461TIP3   OH2 4267   2.342   4.601   0.924
 1461TIP3    H1 4268   2.427   4.559   0.936
 1461TIP3    H2 4269   2.298   4.548   0.858
 1462TIP3   OH2 4270   2.761   4.745   0.697
 1462TIP3    H1 4271   2.857   4.738   0.706
 1462TIP3    H2 4272   2.734   4.661   0.662
 1463TIP3   OH2 4273   4.033   4.728   0.930
 1463TIP3    H1 4274   3.948   4.770   0.924
 1463TIP3    H2 4275   4.074   4.766   1.008
 1464TIP3   OH2 4276   2.686   4.342   1.204
 1464TIP3    H1 4277   2.636   4.379   1.131
 1464TIP3    H2 4278   2.631   4.357   1.281
 1465TIP3   OH2 4279   3.009   5.209   0.203
 1465TIP3    H1 4280   3.000   5.200   0.108
 1465TIP3    H2 4281   2.957   5.287   0.224
 1466TIP3   OH2 4282   2.780   5.124   0.956
 1466TIP3    H1 4283   2.725   5.196   0.987
 1466TIP3    H2 4284   2.833   5.164   0.887
 1467TIP3   OH2 4285   3.582   4.450   0.619
 1467TIP3    H1 4286   3.530   4.444   0.699
 1467TIP3    H2 4287   3.634   4.530   0.629
 1468TIP3   OH2 4288   2.584   4.476   0.986
 1468TIP3    H1 4289   2.641   4.547   1.015
 1468TIP3    H2 4290   2.633   4.432   0.916
 1469TIP3   OH2 4291   2.617   5.328   1.053
 1469TIP3    H1 4292   2.606   5.421   1.032
 1469TIP3    H2 4293   2.544   5.308   1.112
 1470TIP3   OH2 4294   2.098   5.172   0.481
 1470TIP3    H1 4295   2.103   5.088   0.434
 1470TIP3    H2 4296   2.023   5.217   0.442
 1471TIP3   OH2 4297   3.423   5.652   0.485
 1471TIP3    H1 4298   3.371   5.625   0.561
 1471TIP3    H2 4299   3.440   5.571   0.437
 1472TIP3   OH2 4300   3.776   4.392   0.932
 1472TIP3    H1 4301   3.693   4.424   0.898
 1472TIP3    H2 4302   3.841   4.422   0.868
 1473TIP3   OH2 4303   3.041   4.072   0.930
 1473TIP3    H1 4304   3.036   3.980   0.957
 1473TIP3    H2 4305   2.965   4.113   0.970
 1474TIP3   OH2 4306   3.160   5.551   0.210
 1474TIP3    H1 4307   3.209   5.470   0.193
 1474TIP3    H2 4308   3.223   5.621   0.191
 1475TIP3   OH2 4309   3.320   5.339   0.142
 1475TIP3    H1 4310   3.321   5.261   0.087
 1475TIP3    H2 4311   3.336   5.307   0.230
 1476TIP3   OH2 4312   3.654   5.428   0.881
 1476TIP3    H1 4313   3.648   5.347   0.831
 1476TIP3    H2 4314   3.633   5.497   0.818
 1477TIP3   OH2 4315   2.984   4.840   0.173
 1477TIP3    H1 4316   2.910   4.898   0.156
 1477TIP3    H2 4317   3.023   4.823   0.087
 1478TIP3   OH2 4318   9.456   0.065   7.870
 1478TIP3    H1 4319   9.544   0.085   7.902
 1478TIP3    H2 4320   9.471   0.003   7.798
 1479TIP3   OH2 4321   3.859   5.072   0.773
 1479TIP3    H1 4322   3.776   5.120   0.768
 1479TIP3    H2 4323   3.899   5.083   0.686
 1480TIP3   OH2 4324   3.326   4.911   0.137
 1480TIP3    H1 4325   3.276   4.947   0.211
 1480TIP3    H2 4326   3.406   4.877   0.177
 1481TIP3   OH2 4327   3.554   4.933   1.081
 1481TIP3    H1 4328   3.552   5.017   1.127
 1481TIP3    H2 4329   3.472   4.932   1.031
 1482TIP3   OH2 4330   2.594   4.905   0.546
 1482TIP3    H1 4331   2.564   4.852   0.473
 1482TIP3    H2 4332   2.659   4.851   0.591
 1483TIP3   OH2 4333   2.664   5.321   0.673
 1483TIP3    H1 4334   2.643   5.293   0.584
 1483TIP3    H2 4335   2.750   5.283   0.690
 1484TIP3   OH2 4336   2.660   4.880   0.920
 1484TIP3    H1 4337   2.701   4.839   0.844
 1484TIP3    H2 4338   2.708   4.962   0.932
 1485TIP3   OH2 4339   3.279   5.546   0.696
 1485TIP3    H1 4340   3.260   5.620   0.753
 1485TIP3    H2 4341   3.250   5.470   0.746
 1486TIP3   OH2 4342   2.818   5.414   1.232
 1486TIP3    H1 4343   2.756   5.470   1.279
 1486TIP3    H2 4344   2.764   5.363   1.171
 1487TIP3   OH2 4345   9.701   0.158   7.961
 1487TIP3    H1 4346   9.759   0.213   8.014
 1487TIP3    H2 4347   9.729   0.174   7.870
 1488TIP3   OH2 4348   2.578   4.969   1.380
 1488TIP3    H1 4349   2.582   5.063   1.398
 1488TIP3    H2 4350   2.485   4.950   1.369
 1489TIP3   OH2 4351   2.891   5.459   0.224
 1489TIP3    H1 4352   2.978   5.498   0.227
 1489TIP3    H2 4353   2.839   5.520   0.171
 1490TIP3   OH2 4354   2.610   5.573   1.318
 1490TIP3    H1 4355   2.580   5.591   1.229
 1490TIP3    H2 4356   2.530   5.559   1.368
 1491TIP3   OH2 4357   6.936   8.632   8.000
 1491TIP3    H1 4358   6.855   8.649   8.049
 1491TIP3    H2 4359   6.952   8.712   7.951
 1492TIP3   OH2 4360   2.501   4.771   0.323
 1492TIP3    H1 4361   2.426   4.826   0.301
 1492TIP3    H2 4362   2.462   4.689   0.354
 1493TIP3   OH2 4363   2.209   5.138   1.268
 1493TIP3    H1 4364   2.139   5.116   1.207
 1493TIP3    H2 4365   2.244   5.053   1.295
 1494TIP3   OH2 4366   2.123   5.347   0.907
 1494TIP3    H1 4367   2.184   5.380   0.973
 1494TIP3    H2 4368   2.045   5.401   0.918
 1495TIP3   OH2 4369   3.926   5.747   0.994
 1495TIP3    H1 4370   3.914   5.653   1.006
 1495TIP3    H2 4371   3.840   5.785   1.010
 1496TIP3   OH2 4372   3.001   5.569   1.098
 1496TIP3    H1 4373   2.992   5.659   1.132
 1496TIP3    H2 4374   2.938   5.518   1.149
 1497TIP3   OH2 4375   2.781   5.660   0.050
 1497TIP3    H1 4376   2.741   5.647  -0.036
 1497TIP3    H2 4377   2.752   5.747   0.077
 1498TIP3   OH2 4378   9.507   0.973   7.707
 1498TIP3    H1 4379   9.563   0.910   7.662
 1498TIP3    H2 4380   9.538   0.974   7.797
 1499TIP3   OH2 4381   3.040   5.624  -0.030
 1499TIP3    H1 4382   2.949   5.630  -0.002
 1499TIP3    H2 4383   3.086   5.584   0.044
 1500TIP3   OH2 4384   3.789   4.893   1.250
 1500TIP3    H1 4385   3.711   4.898   1.194
 1500TIP3    H2 4386   3.812   4.801   1.251
 1501TIP3   OH2 4387   2.410   5.323   1.235
 1501TIP3    H1 4388   2.461   5.312   1.315
 1501TIP3    H2 4389   2.339   5.259   1.244
 1502TIP3   OH2 4390   2.798   4.145   1.041
 1502TIP3    H1 4391   2.731   4.129   0.973
 1502TIP3    H2 4392   2.760   4.213   1.096
 1503TIP3   OH2 4393   3.333   4.254   1.259
 1503TIP3    H1 4394   3.404   4.228   1.318
 1503TIP3    H2 4395   3.253   4.236   1.307
 1504TIP3   OH2 4396   3.554   4.667   1.166
 1504TIP3    H1 4397   3.515   4.664   1.254
 1504TIP3    H2 4398   3.541   4.757   1.137
 1505TIP3   OH2 4399   9.773   0.187   7.699
 1505TIP3    H1 4400   9.740   0.140   7.623
 1505TIP3    H2 4401   9.857   0.224   7.670
 1506TIP3   OH2 4402   2.903   4.354   0.030
 1506TIP3    H1 4403   2.927   4.318   0.115
 1506TIP3    H2 4404   2.966   4.315  -0.031
 1507TIP3   OH2 4405   2.746   4.674   1.084
 1507TIP3    H1 4406   2.695   4.679   1.164
 1507TIP3    H2 4407   2.725   4.754   1.036
 1508TIP3   OH2 4408   2.663   4.511   0.573
 1508TIP3    H1 4409   2.575   4.536   0.543
 1508TIP3    H2 4410   2.701   4.463   0.499
 1509TIP3   OH2 4411   3.111   4.636   0.307
 1509TIP3    H1 4412   3.062   4.707   0.265
 1509TIP3    H2 4413   3.168   4.603   0.238
 1510TIP3   OH2 4414   3.273   4.878   1.378
 1510TIP3    H1 4415   3.247   4.810   1.441
 1510TIP3    H2 4416   3.365   4.894   1.397
 1511TIP3   OH2 4417   3.261   4.629   0.538
 1511TIP3    H1 4418   3.199   4.654   0.470
 1511TIP3    H2 4419   3.313   4.559   0.499
 1512TIP3   OH2 4420   2.562   4.679   1.288
 1512TIP3    H1 4421   2.573   4.739   1.361
 1512TIP3    H2 4422   2.544   4.594   1.329
 1513TIP3   OH2 4423   5.913   8.798   7.978
 1513TIP3    H1 4424   5.874   8.842   8.054
 1513TIP3    H2 4425   5.941   8.870   7.922
 1514TIP3   OH2 4426   2.096   4.333   0.967
 1514TIP3    H1 4427   2.124   4.405   1.023
 1514TIP3    H2 4428   2.175   4.307   0.919
 1515TIP3   OH2 4429   2.050   4.120   0.258
 1515TIP3    H1 4430   2.074   4.177   0.186
 1515TIP3    H2 4431   2.004   4.177   0.319
 1516TIP3   OH2 4432   3.301   4.886   0.960
 1516TIP3    H1 4433   3.327   4.820   0.896
 1516TIP3    H2 4434   3.258   4.836   1.030
 1517TIP3   OH2 4435   3.010   4.393   0.672
 1517TIP3    H1 4436   2.933   4.392   0.728
 1517TIP3    H2 4437   3.081   4.363   0.728
 1518TIP3   OH2 4438   2.423   4.384   0.735
 1518TIP3    H1 4439   2.351   4.428   0.690
 1518TIP3    H2 4440   2.502   4.416   0.692
 1519TIP3   OH2 4441   2.695   4.425   0.298
 1519TIP3    H1 4442   2.787   4.447   0.311
 1519TIP3    H2 4443   2.655   4.506   0.266
 1520TIP3   OH2 4444   3.429   4.424   0.848
 1520TIP3    H1 4445   3.409   4.442   0.940
 1520TIP3    H2 4446   3.361   4.362   0.821
 1521TIP3   OH2 4447   2.483   4.536   0.089
 1521TIP3    H1 4448   2.444   4.453   0.063
 1521TIP3    H2 4449   2.554   4.551   0.027
 1522TIP3   OH2 4450   3.610   6.113   1.055
 1522TIP3    H1 4451   3.596   6.136   0.963
 1522TIP3    H2 4452   3.691   6.158   1.079
 1523TIP3   OH2 4453   2.562   5.238   1.465
 1523TIP3    H1 4454   2.642   5.256   1.514
 1523TIP3    H2 4455   2.492   5.246   1.531
 1524TIP3   OH2 4456   3.032   4.707   0.740
 1524TIP3    H1 4457   3.090   4.650   0.689
 1524TIP3    H2 4458   3.028   4.666   0.826
 1525TIP3   OH2 4459   2.677   4.116   0.764
 1525TIP3    H1 4460   2.601   4.078   0.720
 1525TIP3    H2 4461   2.752   4.081   0.717
 1526TIP3   OH2 4462   2.999   4.606   0.998
 1526TIP3    H1 4463   2.914   4.636   1.029
 1526TIP3    H2 4464   3.063   4.652   1.053
 1527TIP3   OH2 4465   2.765   5.013   0.111
 1527TIP3    H1 4466   2.694   4.952   0.091
 1527TIP3    H2 4467   2.746   5.044   0.200
 1528TIP3   OH2 4468   3.626   5.212   0.714
 1528TIP3    H1 4469   3.661   5.253   0.635
 1528TIP3    H2 4470   3.548   5.166   0.684
 1529TIP3   OH2 4471   3.241   4.284   0.042
 1529TIP3    H1 4472   3.185   4.268  -0.034
 1529TIP3    H2 4473   3.249   4.379   0.045
 1530TIP3   OH2 4474   3.132   5.288   1.114
 1530TIP3    H1 4475   3.191   5.272   1.188
 1530TIP3    H2 4476   3.097   5.376   1.129
 1531TIP3   OH2 4477   3.276   4.555   0.096
 1531TIP3    H1 4478   3.371   4.562   0.107
 1531TIP3    H2 4479   3.253   4.626   0.036
 1532TIP3   OH2 4480   2.447   4.972   0.766
 1532TIP3    H1 4481   2.492   4.957   0.682
 1532TIP3    H2 4482   2.509   4.942   0.832
 1533TIP3   OH2 4483   9.461   0.518   7.931
 1533TIP3    H1 4484   9.416   0.602   7.930
 1533TIP3    H2 4485   9.411   0.466   7.995
 1534TIP3   OH2 4486   2.301   4.908   1.399
 1534TIP3    H1 4487   2.306   4.882   1.491
 1534TIP3    H2 4488   2.227   4.858   1.365
 1535TIP3   OH2 4489   3.045   5.037   1.419
 1535TIP3    H1 4490   2.975   4.977   1.394
 1535TIP3    H2 4491   3.125   4.994   1.390
 1536TIP3   OH2 4492   3.273   5.565   1.034
 1536TIP3    H1 4493   3.178   5.569   1.041
 1536TIP3    H2 4494   3.304   5.618   1.107
 1537TIP3   OH2 4495   0.424   0.006   7.936
 1537TIP3    H1 4496   0.370  -0.045   7.876
 1537TIP3    H2 4497   0.416   0.096   7.905
 1538TIP3   OH2 4498   3.905   5.462   0.991
 1538TIP3    H1 4499   3.811   5.461   0.972
 1538TIP3    H2 4500   3.946   5.443   0.907
 1539TIP3   OH2 4501   0.090   0.802   7.850
 1539TIP3    H1 4502   0.098   0.772   7.940
 1539TIP3    H2 4503   0.028   0.741   7.810
 1540TIP3   OH2 4504   3.393   5.071   0.630
 1540TIP3    H1 4505   3.305   5.047   0.658
 1540TIP3    H2 4506   3.430   4.991   0.594
 1541TIP3   OH2 4507   2.517   5.310   0.422
 1541TIP3    H1 4508   2.515   5.393   0.374
 1541TIP3    H2 4509   2.437   5.265   0.395
 1542TIP3   OH2 4510   2.109   4.588   0.183
 1542TIP3    H1 4511   2.170   4.648   0.139
 1542TIP3    H2 4512   2.022   4.618   0.157
 1543TIP3   OH2 4513   2.673   5.089   0.354
 1543TIP3    H1 4514   2.632   5.173   0.377
 1543TIP3    H2 4515   2.650   5.031   0.426
 1544TIP3   OH2 4516   2.825   5.637   0.889
 1544TIP3    H1 4517   2.869   5.703   0.836
 1544TIP3    H2 4518   2.893   5.602   0.945
 1545TIP3   OH2 4519   2.443   5.544   0.287
 1545TIP3    H1 4520   2.362   5.572   0.245
 1545TIP3    H2 4521   2.494   5.625   0.296
 1546TIP3   OH2 4522   3.190   5.308   0.841
 1546TIP3    H1 4523   3.174   5.303   0.935
 1546TIP3    H2 4524   3.261   5.246   0.826
 1547TIP3   OH2 4525   9.698   0.600   7.799
 1547TIP3    H1 4526   9.762   0.553   7.852
 1547TIP3    H2 4527   9.613   0.570   7.831
 1548TIP3   OH2 4528   2.510   4.427   1.405
 1548TIP3    H1 4529   2.414   4.432   1.406
 1548TIP3    H2 4530   2.531   4.378   1.485
 1549TIP3   OH2 4531   0.087   0.504   7.972
 1549TIP3    H1 4532   0.076   0.426   8.027
 1549TIP3    H2 4533   0.180   0.506   7.951
 1550TIP3   OH2 4534   2.276   5.510   1.066
 1550TIP3    H1 4535   2.327   5.455   1.125
 1550TIP3    H2 4536   2.274   5.596   1.109
 1551TIP3   OH2 4537   9.076   0.536   7.711
 1551TIP3    H1 4538   9.151   0.478   7.698
 1551TIP3    H2 4539   9.065   0.540   7.806
 1552TIP3   OH2 4540   2.548   5.171  -0.012
 1552TIP3    H1 4541   2.627   5.138   0.031
 1552TIP3    H2 4542   2.547   5.265   0.009
 1553TIP3   OH2 4543   2.301   4.929   0.226
 1553TIP3    H1 4544   2.213   4.927   0.265
 1553TIP3    H2 4545   2.296   4.997   0.159
 1554TIP3   OH2 4546   3.359   4.481   1.106
 1554TIP3    H1 4547   3.437   4.525   1.138
 1554TIP3    H2 4548   3.350   4.404   1.163
 1555TIP3   OH2 4549   3.283   4.234   0.306
 1555TIP3    H1 4550   3.258   4.255   0.216
 1555TIP3    H2 4551   3.331   4.312   0.336
 1556TIP3   OH2 4552   9.315   0.742   7.929
 1556TIP3    H1 4553   9.245   0.783   7.981
 1556TIP3    H2 4554   9.292   0.762   7.838
 1557TIP3   OH2 4555   2.949   4.441   0.405
 1557TIP3    H1 4556   3.007   4.511   0.376
 1557TIP3    H2 4557   2.968   4.433   0.499
 1558TIP3   OH2 4558   3.202   4.716   1.152
 1558TIP3    H1 4559   3.227   4.757   1.235
 1558TIP3    H2 4560   3.252   4.634   1.151
 1559TIP3   OH2 4561   3.113   4.174   0.511
 1559TIP3    H1 4562   3.099   4.257   0.557
 1559TIP3    H2 4563   3.184   4.191   0.450
 1560TIP3   OH2 4564   2.538   5.439   0.041
 1560TIP3    H1 4565   2.497   5.500  -0.020
 1560TIP3    H2 4566   2.518   5.474   0.128
 1561TIP3   OH2 4567   2.714   4.141   0.304
 1561TIP3    H1 4568   2.703   4.235   0.318
 1561TIP3    H2 4569   2.806   4.131   0.278
 1562TIP3   OH2 4570   3.822   4.623   1.154
 1562TIP3    H1 4571   3.726   4.624   1.161
 1562TIP3    H2 4572   3.839   4.579   1.070
 1563TIP3   OH2 4573   3.485   4.818   0.538
 1563TIP3    H1 4574   3.411   4.759   0.553
 1563TIP3    H2 4575   3.556   4.781   0.589
 1564TIP3   OH2 4576   8.836   0.441   7.980
 1564TIP3    H1 4577   8.917   0.490   7.989
 1564TIP3    H2 4578   8.851   0.383   7.906
 1565TIP3   OH2 4579   2.233   4.417  -0.021
 1565TIP3    H1 4580   2.177   4.484   0.017
 1565TIP3    H2 4581   2.235   4.347   0.044
 1566TIP3   OH2 4582   2.505   4.103   1.043
 1566TIP3    H1 4583   2.495   4.052   0.963
 1566TIP3    H2 4584   2.528   4.039   1.110
 1567TIP3   OH2 4585   2.251   5.830   1.471
 1567TIP3    H1 4586   2.334   5.833   1.518
 1567TIP3    H2 4587   2.226   5.737   1.471
 1568TIP3   OH2 4588   2.720   5.728   1.519
 1568TIP3    H1 4589   2.812   5.702   1.526
 1568TIP3    H2 4590   2.686   5.677   1.446
 1569TIP3   OH2 4591   9.221   0.763   7.667
 1569TIP3    H1 4592   9.159   0.690   7.674
 1569TIP3    H2 4593   9.267   0.748   7.584
 1570TIP3   OH2 4594   3.357   5.694   1.266
 1570TIP3    H1 4595   3.367   5.620   1.326
 1570TIP3    H2 4596   3.434   5.748   1.281
 1571TIP3   OH2 4597   2.359   5.233   1.657
 1571TIP3    H1 4598   2.377   5.140   1.669
 1571TIP3    H2 4599   2.272   5.237   1.618
 1572TIP3   OH2 4600   8.949   0.269   7.791
 1572TIP3    H1 4601   9.012   0.259   7.862
 1572TIP3    H2 4602   9.000   0.250   7.712
 1573TIP3   OH2 4603   2.977   5.313   1.435
 1573TIP3    H1 4604   2.932   5.333   1.353
 1573TIP3    H2 4605   3.014   5.225   1.422
 1574TIP3   OH2 4606   9.315   0.395   7.722
 1574TIP3    H1 4607   9.373   0.442   7.782
 1574TIP3    H2 4608   9.354   0.308   7.715
 1575TIP3   OH2 4609   3.451   5.353   1.054
 1575TIP3    H1 4610   3.523   5.384   0.999
 1575TIP3    H2 4611   3.383   5.420   1.044
 1576TIP3   OH2 4612   2.471   4.977   1.666
 1576TIP3    H1 4613   2.548   4.957   1.613
 1576TIP3    H2 4614   2.506   4.995   1.754
 1577TIP3   OH2 4615   2.567   4.834   0.059
 1577TIP3    H1 4616   2.553   4.805   0.149
 1577TIP3    H2 4617   2.601   4.757   0.014
 1578TIP3   OH2 4618   2.836   4.864   1.330
 1578TIP3    H1 4619   2.750   4.904   1.341
 1578TIP3    H2 4620   2.864   4.889   1.243
 1579TIP3   OH2 4621   5.929   9.247   7.910
 1579TIP3    H1 4622   5.933   9.165   7.860
 1579TIP3    H2 4623   6.019   9.281   7.907
 1580TIP3   OH2 4624   3.337   5.235   1.401
 1580TIP3    H1 4625   3.408   5.200   1.348
 1580TIP3    H2 4626   3.335   5.178   1.479
 1581TIP3   OH2 4627   0.211   0.290   7.597
 1581TIP3    H1 4628   0.276   0.255   7.536
 1581TIP3    H2 4629   0.204   0.383   7.575
 1582TIP3   OH2 4630   2.937   4.629   1.433
 1582TIP3    H1 4631   2.940   4.559   1.367
 1582TIP3    H2 4632   2.904   4.705   1.385
 1583TIP3   OH2 4633   2.946   4.431   1.229
 1583TIP3    H1 4634   2.971   4.466   1.143
 1583TIP3    H2 4635   2.856   4.402   1.218
 1584TIP3   OH2 4636   2.944   4.955   1.098
 1584TIP3    H1 4637   3.035   4.982   1.086
 1584TIP3    H2 4638   2.893   5.021   1.050
 1585TIP3   OH2 4639   3.543   4.907   1.473
 1585TIP3    H1 4640   3.572   4.817   1.485
 1585TIP3    H2 4641   3.622   4.955   1.449
 1586TIP3   OH2 4642   3.576   5.179   1.220
 1586TIP3    H1 4643   3.524   5.240   1.167
 1586TIP3    H2 4644   3.666   5.192   1.190
 1587TIP3   OH2 4645   2.823   4.711   1.676
 1587TIP3    H1 4646   2.754   4.648   1.697
 1587TIP3    H2 4647   2.851   4.687   1.588
 1588TIP3   OH2 4648   3.066   4.200   1.332
 1588TIP3    H1 4649   3.028   4.282   1.299
 1588TIP3    H2 4650   2.999   4.134   1.316
 1589TIP3   OH2 4651   3.193   4.667   1.535
 1589TIP3    H1 4652   3.185   4.654   1.629
 1589TIP3    H2 4653   3.107   4.646   1.500
 1590TIP3   OH2 4654   3.441   4.625   1.407
 1590TIP3    H1 4655   3.361   4.623   1.461
 1590TIP3    H2 4656   3.510   4.596   1.467
 1591TIP3   OH2 4657   3.671   4.587   1.559
 1591TIP3    H1 4658   3.688   4.493   1.565
 1591TIP3    H2 4659   3.669   4.617   1.650
 1592TIP3   OH2 4660   2.659   4.489   1.740
 1592TIP3    H1 4661   2.664   4.401   1.704
 1592TIP3    H2 4662   2.698   4.482   1.827
 1593TIP3   OH2 4663   3.133   4.172   1.597
 1593TIP3    H1 4664   3.202   4.105   1.589
 1593TIP3    H2 4665   3.103   4.185   1.507
 1594TIP3   OH2 4666   3.230   4.387   1.741
 1594TIP3    H1 4667   3.199   4.315   1.687
 1594TIP3    H2 4668   3.157   4.449   1.743
 1595TIP3   OH2 4669   8.973   1.009   7.873
 1595TIP3    H1 4670   9.053   1.035   7.827
 1595TIP3    H2 4671   8.903   1.058   7.830
 1596TIP3   OH2 4672   8.414   0.421   7.901
 1596TIP3    H1 4673   8.482   0.488   7.893
 1596TIP3    H2 4674   8.455   0.351   7.952
 1597TIP3   OH2 4675   1.846   5.572   0.465
 1597TIP3    H1 4676   1.754   5.557   0.444
 1597TIP3    H2 4677   1.890   5.490   0.441
 1598TIP3   OH2 4678   2.045   5.432   0.654
 1598TIP3    H1 4679   1.954   5.406   0.640
 1598TIP3    H2 4680   2.041   5.526   0.670
 1599TIP3   OH2 4681   3.656   5.892   0.437
 1599TIP3    H1 4682   3.687   5.971   0.482
 1599TIP3    H2 4683   3.734   5.860   0.390
 1600TIP3   OH2 4684   3.804   5.572   1.320
 1600TIP3    H1 4685   3.735   5.584   1.385
 1600TIP3    H2 4686   3.848   5.657   1.316
 1601TIP3   OH2 4687   0.358   0.495   7.934
 1601TIP3    H1 4688   0.429   0.552   7.903
 1601TIP3    H2 4689   0.386   0.467   8.021
 1602TIP3   OH2 4690   3.702   5.015   0.169
 1602TIP3    H1 4691   3.656   4.939   0.203
 1602TIP3    H2 4692   3.792   5.004   0.201
 1603TIP3   OH2 4693   3.792   5.350   0.534
 1603TIP3    H1 4694   3.847   5.275   0.510
 1603TIP3    H2 4695   3.824   5.421   0.478
 1604TIP3   OH2 4696   0.374   0.246   7.819
 1604TIP3    H1 4697   0.304   0.252   7.754
 1604TIP3    H2 4698   0.371   0.329   7.866
 1605TIP3   OH2 4699   6.791   9.132   7.750
 1605TIP3    H1 4700   6.792   9.158   7.658
 1605TIP3    H2 4701   6.766   9.039   7.747
 1606TIP3   OH2 4702   3.541   4.806   0.266
 1606TIP3    H1 4703   3.562   4.714   0.249
 1606TIP3    H2 4704   3.532   4.812   0.361
 1607TIP3   OH2 4705   2.182   4.888   1.039
 1607TIP3    H1 4706   2.178   4.853   0.950
 1607TIP3    H2 4707   2.274   4.882   1.063
 1608TIP3   OH2 4708   3.834   5.224   1.128
 1608TIP3    H1 4709   3.897   5.154   1.109
 1608TIP3    H2 4710   3.863   5.298   1.075
 1609TIP3   OH2 4711   4.001   5.006   1.116
 1609TIP3    H1 4712   3.930   4.966   1.165
 1609TIP3    H2 4713   4.078   4.952   1.135
 1610TIP3   OH2 4714   6.748   8.857   7.747
 1610TIP3    H1 4715   6.841   8.839   7.759
 1610TIP3    H2 4716   6.705   8.811   7.820
 1611TIP3   OH2 4717   3.554   4.541   0.161
 1611TIP3    H1 4718   3.587   4.452   0.173
 1611TIP3    H2 4719   3.605   4.576   0.087
 1612TIP3   OH2 4720   3.701   4.699   0.671
 1612TIP3    H1 4721   3.780   4.719   0.621
 1612TIP3    H2 4722   3.717   4.738   0.757
 1613TIP3   OH2 4723   3.774   4.844   0.902
 1613TIP3    H1 4724   3.702   4.874   0.957
 1613TIP3    H2 4725   3.807   4.923   0.860
 1614TIP3   OH2 4726   2.398   4.565   1.689
 1614TIP3    H1 4727   2.493   4.557   1.703
 1614TIP3    H2 4728   2.361   4.485   1.726
 1615TIP3   OH2 4729   4.233   4.441   1.437
 1615TIP3    H1 4730   4.300   4.387   1.395
 1615TIP3    H2 4731   4.195   4.492   1.365
 1616TIP3   OH2 4732   3.630   4.288   0.218
 1616TIP3    H1 4733   3.696   4.267   0.284
 1616TIP3    H2 4734   3.586   4.204   0.201
 1617TIP3   OH2 4735   2.365   4.327   1.089
 1617TIP3    H1 4736   2.406   4.242   1.074
 1617TIP3    H2 4737   2.427   4.391   1.052
 1618TIP3   OH2 4738   2.153   4.557   1.122
 1618TIP3    H1 4739   2.221   4.581   1.059
 1618TIP3    H2 4740   2.174   4.607   1.200
 1619TIP3   OH2 4741   4.081   4.556   1.240
 1619TIP3    H1 4742   3.997   4.597   1.259
 1619TIP3    H2 4743   4.059   4.479   1.188
 1620TIP3   OH2 4744   7.017   8.831   7.816
 1620TIP3    H1 4745   7.098   8.782   7.826
 1620TIP3    H2 4746   7.046   8.922   7.804
 1621TIP3   OH2 4747   2.137   4.161   0.561
 1621TIP3    H1 4748   2.094   4.079   0.582
 1621TIP3    H2 4749   2.075   4.208   0.505
 1622TIP3   OH2 4750   3.331   5.750   0.128
 1622TIP3    H1 4751   3.357   5.719   0.041
 1622TIP3    H2 4752   3.352   5.844   0.126
 1623TIP3   OH2 4753   2.352   4.090   1.419
 1623TIP3    H1 4754   2.306   4.096   1.502
 1623TIP3    H2 4755   2.297   4.137   1.357
 1624TIP3   OH2 4756   2.391   5.544   1.488
 1624TIP3    H1 4757   2.297   5.531   1.479
 1624TIP3    H2 4758   2.408   5.536   1.582
 1625TIP3   OH2 4759   2.591   5.605   1.032
 1625TIP3    H1 4760   2.537   5.677   0.997
 1625TIP3    H2 4761   2.677   5.617   0.991
 1626TIP3   OH2 4762   2.992   5.832   1.188
 1626TIP3    H1 4763   3.032   5.822   1.274
 1626TIP3    H2 4764   3.054   5.885   1.138
 1627TIP3   OH2 4765   3.178   5.978   1.047
 1627TIP3    H1 4766   3.236   5.923   0.995
 1627TIP3    H2 4767   3.236   6.035   1.096
 1628TIP3   OH2 4768   3.995   4.312   1.132
 1628TIP3    H1 4769   3.911   4.309   1.087
 1628TIP3    H2 4770   4.029   4.223   1.126
 1629TIP3   OH2 4771   2.248   5.833   1.086
 1629TIP3    H1 4772   2.156   5.845   1.062
 1629TIP3    H2 4773   2.265   5.901   1.151
 1630TIP3   OH2 4774   2.462   5.826   0.915
 1630TIP3    H1 4775   2.392   5.835   0.979
 1630TIP3    H2 4776   2.418   5.812   0.831
 1631TIP3   OH2 4777   2.930   5.831   0.722
 1631TIP3    H1 4778   2.867   5.843   0.650
 1631TIP3    H2 4779   2.932   5.916   0.766
 1632TIP3   OH2 4780   3.203   5.815   0.763
 1632TIP3    H1 4781   3.109   5.805   0.748
 1632TIP3    H2 4782   3.224   5.902   0.730
 1633TIP3   OH2 4783   2.211   5.647   0.802
 1633TIP3    H1 4784   2.213   5.617   0.893
 1633TIP3    H2 4785   2.270   5.587   0.756
 1634TIP3   OH2 4786   2.344   5.465   0.640
 1634TIP3    H1 4787   2.425   5.416   0.656
 1634TIP3    H2 4788   2.362   5.516   0.561
 1635TIP3   OH2 4789   2.649   5.599   0.677
 1635TIP3    H1 4790   2.653   5.505   0.663
 1635TIP3    H2 4791   2.700   5.614   0.756
 1636TIP3   OH2 4792   3.216   4.251   0.791
 1636TIP3    H1 4793   3.168   4.187   0.843
 1636TIP3    H2 4794   3.272   4.199   0.734
 1637TIP3   OH2 4795   3.703   4.160   0.630
 1637TIP3    H1 4796   3.754   4.200   0.561
 1637TIP3    H2 4797   3.637   4.226   0.654
 1638TIP3   OH2 4798   3.829   4.241   0.403
 1638TIP3    H1 4799   3.895   4.175   0.382
 1638TIP3    H2 4800   3.875   4.325   0.391
 1639TIP3   OH2 4801   2.439   4.028   0.641
 1639TIP3    H1 4802   2.376   4.033   0.713
 1639TIP3    H2 4803   2.453   3.934   0.628
 1640TIP3   OH2 4804   2.261   3.819   0.392
 1640TIP3    H1 4805   2.234   3.863   0.311
 1640TIP3    H2 4806   2.206   3.858   0.460
 1641TIP3   OH2 4807   2.929   4.048   0.673
 1641TIP3    H1 4808   2.986   4.086   0.606
 1641TIP3    H2 4809   2.976   4.062   0.756
 1642TIP3   OH2 4810   3.392   4.105   0.641
 1642TIP3    H1 4811   3.455   4.088   0.571
 1642TIP3    H2 4812   3.415   4.041   0.709
 1643TIP3   OH2 4813   3.463   4.066   0.175
 1643TIP3    H1 4814   3.397   4.123   0.215
 1643TIP3    H2 4815   3.457   3.984   0.225
 1644TIP3   OH2 4816   2.036   5.420   0.200
 1644TIP3    H1 4817   1.969   5.374   0.250
 1644TIP3    H2 4818   1.987   5.484   0.149
 1645TIP3   OH2 4819   2.312   4.093   0.028
 1645TIP3    H1 4820   2.248   4.026   0.051
 1645TIP3    H2 4821   2.396   4.057   0.055
 1646TIP3   OH2 4822   2.977   4.209   0.257
 1646TIP3    H1 4823   3.035   4.150   0.305
 1646TIP3    H2 4824   2.971   4.287   0.311
 1647TIP3   OH2 4825   9.239   1.012   7.782
 1647TIP3    H1 4826   9.324   1.036   7.746
 1647TIP3    H2 4827   9.216   0.930   7.737
 1648TIP3   OH2 4828   0.145   1.070   7.872
 1648TIP3    H1 4829   0.132   0.977   7.853
 1648TIP3    H2 4830   0.075   1.114   7.823
 1649TIP3   OH2 4831   2.672   4.218   1.658
 1649TIP3    H1 4832   2.638   4.151   1.717
 1649TIP3    H2 4833   2.764   4.227   1.682
 1650TIP3   OH2 4834   2.921   4.225   1.776
 1650TIP3    H1 4835   2.997   4.202   1.723
 1650TIP3    H2 4836   2.916   4.155   1.841
 1651TIP3   OH2 4837   8.604   0.903   7.856
 1651TIP3    H1 4838   8.558   0.918   7.938
 1651TIP3    H2 4839   8.617   0.808   7.853
 1652TIP3   OH2 4840   3.740   4.317   1.561
 1652TIP3    H1 4841   3.757   4.287   1.650
 1652TIP3    H2 4842   3.825   4.312   1.517
 1653TIP3   OH2 4843   3.672   5.841   1.047
 1653TIP3    H1 4844   3.615   5.803   1.115
 1653TIP3    H2 4845   3.650   5.934   1.049
 1654TIP3   OH2 4846   4.883   5.220   0.243
 1654TIP3    H1 4847   4.935   5.205   0.322
 1654TIP3    H2 4848   4.843   5.135   0.225
 1655TIP3   OH2 4849   4.226   5.090   0.585
 1655TIP3    H1 4850   4.263   5.033   0.652
 1655TIP3    H2 4851   4.299   5.111   0.527
 1656TIP3   OH2 4852   4.190   5.518   0.283
 1656TIP3    H1 4853   4.183   5.423   0.276
 1656TIP3    H2 4854   4.285   5.534   0.281
 1657TIP3   OH2 4855   3.887   4.760   0.096
 1657TIP3    H1 4856   3.822   4.709   0.048
 1657TIP3    H2 4857   3.967   4.708   0.091
 1658TIP3   OH2 4858   3.966   5.015   0.277
 1658TIP3    H1 4859   3.996   4.925   0.282
 1658TIP3    H2 4860   4.029   5.058   0.219
 1659TIP3   OH2 4861   4.719   5.451   0.233
 1659TIP3    H1 4862   4.773   5.373   0.226
 1659TIP3    H2 4863   4.780   5.524   0.221
 1660TIP3   OH2 4864   5.740   4.744   0.293
 1660TIP3    H1 4865   5.770   4.831   0.319
 1660TIP3    H2 4866   5.761   4.738   0.200
 1661TIP3   OH2 4867   5.125   4.945   0.296
 1661TIP3    H1 4868   5.158   4.858   0.318
 1661TIP3    H2 4869   5.109   4.942   0.202
 1662TIP3   OH2 4870   4.475   4.574   0.223
 1662TIP3    H1 4871   4.447   4.644   0.165
 1662TIP3    H2 4872   4.414   4.502   0.205
 1663TIP3   OH2 4873   1.879   0.073   7.922
 1663TIP3    H1 4874   1.952   0.064   7.983
 1663TIP3    H2 4875   1.897   0.010   7.853
 1664TIP3   OH2 4876   4.105   4.776   0.342
 1664TIP3    H1 4877   4.194   4.763   0.376
 1664TIP3    H2 4878   4.101   4.721   0.264
 1665TIP3   OH2 4879   4.525   4.988   0.182
 1665TIP3    H1 4880   4.618   4.968   0.183
 1665TIP3    H2 4881   4.484   4.909   0.146
 1666TIP3   OH2 4882   5.816   4.993   0.391
 1666TIP3    H1 4883   5.724   5.021   0.391
 1666TIP3    H2 4884   5.856   5.042   0.463
 1667TIP3   OH2 4885   4.481   4.605   0.676
 1667TIP3    H1 4886   4.427   4.634   0.603
 1667TIP3    H2 4887   4.426   4.618   0.754
 1668TIP3   OH2 4888   4.579   5.363   0.456
 1668TIP3    H1 4889   4.519   5.432   0.485
 1668TIP3    H2 4890   4.626   5.401   0.383
 1669TIP3   OH2 4891   5.350   4.693   0.107
 1669TIP3    H1 4892   5.303   4.689   0.190
 1669TIP3    H2 4893   5.403   4.773   0.112
 1670TIP3   OH2 4894   4.356   4.695   0.445
 1670TIP3    H1 4895   4.413   4.771   0.460
 1670TIP3    H2 4896   4.398   4.649   0.372
 1671TIP3   OH2 4897   4.409   5.563   0.548
 1671TIP3    H1 4898   4.404   5.655   0.520
 1671TIP3    H2 4899   4.328   5.549   0.598
 1672TIP3   OH2 4900   0.541   0.668   7.809
 1672TIP3    H1 4901   0.475   0.696   7.746
 1672TIP3    H2 4902   0.565   0.748   7.856
 1673TIP3   OH2 4903   1.944   1.189   7.920
 1673TIP3    H1 4904   1.895   1.231   7.991
 1673TIP3    H2 4905   1.923   1.241   7.842
 1674TIP3   OH2 4906   5.531   4.632   0.434
 1674TIP3    H1 4907   5.452   4.677   0.404
 1674TIP3    H2 4908   5.600   4.665   0.377
 1675TIP3   OH2 4909   4.825   4.291   0.420
 1675TIP3    H1 4910   4.817   4.199   0.446
 1675TIP3    H2 4911   4.747   4.333   0.457
 1676TIP3   OH2 4912   5.441   5.673   0.465
 1676TIP3    H1 4913   5.506   5.602   0.459
 1676TIP3    H2 4914   5.373   5.648   0.402
 1677TIP3   OH2 4915   5.583   5.313   0.227
 1677TIP3    H1 4916   5.502   5.360   0.246
 1677TIP3    H2 4917   5.610   5.346   0.141
 1678TIP3   OH2 4918   5.337   5.170   0.545
 1678TIP3    H1 4919   5.360   5.239   0.606
 1678TIP3    H2 4920   5.250   5.194   0.512
 1679TIP3   OH2 4921   4.347   5.153   0.042
 1679TIP3    H1 4922   4.291   5.095  -0.010
 1679TIP3    H2 4923   4.414   5.095   0.079
 1680TIP3   OH2 4924   4.460   5.554   0.194
 1680TIP3    H1 4925   4.437   5.540   0.102
 1680TIP3    H2 4926   4.547   5.515   0.203
 1681TIP3   OH2 4927   4.435   5.134   0.401
 1681TIP3    H1 4928   4.468   5.096   0.320
 1681TIP3    H2 4929   4.488   5.212   0.416
 1682TIP3   OH2 4930   4.894   5.715   0.225
 1682TIP3    H1 4931   4.856   5.781   0.284
 1682TIP3    H2 4932   4.929   5.648   0.283
 1683TIP3   OH2 4933   4.599   5.639   0.736
 1683TIP3    H1 4934   4.542   5.704   0.776
 1683TIP3    H2 4935   4.543   5.593   0.674
 1684TIP3   OH2 4936   4.380   5.241   0.871
 1684TIP3    H1 4937   4.376   5.336   0.885
 1684TIP3    H2 4938   4.289   5.215   0.858
 1685TIP3   OH2 4939   4.410   5.827   0.801
 1685TIP3    H1 4940   4.388   5.843   0.710
 1685TIP3    H2 4941   4.326   5.822   0.846
 1686TIP3   OH2 4942   0.910   0.369   7.906
 1686TIP3    H1 4943   0.838   0.392   7.847
 1686TIP3    H2 4944   0.914   0.273   7.902
 1687TIP3   OH2 4945   4.004   5.381   0.749
 1687TIP3    H1 4946   3.947   5.351   0.679
 1687TIP3    H2 4947   4.045   5.302   0.783
 1688TIP3   OH2 4948   3.925   5.560   0.388
 1688TIP3    H1 4949   4.008   5.533   0.349
 1688TIP3    H2 4950   3.949   5.627   0.452
 1689TIP3   OH2 4951   5.670   5.966   0.400
 1689TIP3    H1 4952   5.642   5.917   0.324
 1689TIP3    H2 4953   5.600   6.031   0.414
 1690TIP3   OH2 4954   4.791   5.786   0.611
 1690TIP3    H1 4955   4.778   5.875   0.642
 1690TIP3    H2 4956   4.721   5.735   0.651
 1691TIP3   OH2 4957   0.736   1.151   7.937
 1691TIP3    H1 4958   0.797   1.158   8.010
 1691TIP3    H2 4959   0.713   1.058   7.934
 1692TIP3   OH2 4960   5.562   5.140   0.780
 1692TIP3    H1 4961   5.604   5.219   0.749
 1692TIP3    H2 4962   5.609   5.068   0.737
 1693TIP3   OH2 4963   4.190   5.582   0.718
 1693TIP3    H1 4964   4.242   5.577   0.798
 1693TIP3    H2 4965   4.123   5.514   0.728
 1694TIP3   OH2 4966   4.588   4.387   0.538
 1694TIP3    H1 4967   4.503   4.352   0.511
 1694TIP3    H2 4968   4.568   4.470   0.582
 1695TIP3   OH2 4969   5.126   4.505   0.738
 1695TIP3    H1 4970   5.196   4.482   0.799
 1695TIP3    H2 4971   5.045   4.489   0.787
 1696TIP3   OH2 4972   5.360   4.916   0.654
 1696TIP3    H1 4973   5.323   4.916   0.742
 1696TIP3    H2 4974   5.349   5.005   0.622
 1697TIP3   OH2 4975   4.517   4.904   0.531
 1697TIP3    H1 4976   4.473   4.909   0.615
 1697TIP3    H2 4977   4.493   4.986   0.487
 1698TIP3   OH2 4978   4.381   4.776   0.065
 1698TIP3    H1 4979   4.298   4.731   0.075
 1698TIP3    H2 4980   4.402   4.767  -0.028
 1699TIP3   OH2 4981   5.074   5.131   0.862
 1699TIP3    H1 4982   5.049   5.064   0.927
 1699TIP3    H2 4983   5.167   5.146   0.878
 1700TIP3   OH2 4984   1.787   0.305   8.033
 1700TIP3    H1 4985   1.736   0.350   7.965
 1700TIP3    H2 4986   1.813   0.223   7.992
 1701TIP3   OH2 4987   4.361   4.916   0.759
 1701TIP3    H1 4988   4.429   4.964   0.806
 1701TIP3    H2 4989   4.344   4.839   0.812
 1702TIP3   OH2 4990   3.977   4.459   0.343
 1702TIP3    H1 4991   4.027   4.488   0.420
 1702TIP3    H2 4992   4.025   4.495   0.269
 1703TIP3   OH2 4993   7.149   9.079   7.804
 1703TIP3    H1 4994   7.234   9.059   7.844
 1703TIP3    H2 4995   7.107   9.139   7.866
 1704TIP3   OH2 4996   5.047   5.149   0.457
 1704TIP3    H1 4997   5.087   5.087   0.396
 1704TIP3    H2 4998   5.020   5.095   0.531
 1705TIP3   OH2 4999   4.748   4.594   0.138
 1705TIP3    H1 5000   4.662   4.582   0.178
 1705TIP3    H2 5001   4.809   4.596   0.212
 1706TIP3   OH2 5002   1.182   0.096   7.810
 1706TIP3    H1 5003   1.277   0.087   7.818
 1706TIP3    H2 5004   1.160   0.047   7.731
 1707TIP3   OH2 5005   5.199   4.679   0.338
 1707TIP3    H1 5006   5.184   4.697   0.431
 1707TIP3    H2 5007   5.131   4.615   0.315
 1708TIP3   OH2 5008   5.331   6.389   0.488
 1708TIP3    H1 5009   5.358   6.307   0.447
 1708TIP3    H2 5010   5.370   6.386   0.576
 1709TIP3   OH2 5011   4.348   5.505   0.955
 1709TIP3    H1 5012   4.430   5.521   1.003
 1709TIP3    H2 5013   4.280   5.513   1.022
 1710TIP3   OH2 5014   4.805   4.946   0.225
 1710TIP3    H1 5015   4.887   4.916   0.187
 1710TIP3    H2 5016   4.803   4.906   0.312
 1711TIP3   OH2 5017   4.786   4.851   0.487
 1711TIP3    H1 5018   4.698   4.880   0.510
 1711TIP3    H2 5019   4.843   4.902   0.545
 1712TIP3   OH2 5020   5.369   5.470   0.250
 1712TIP3    H1 5021   5.362   5.544   0.189
 1712TIP3    H2 5022   5.286   5.423   0.240
 1713TIP3   OH2 5023   4.933   5.512   0.642
 1713TIP3    H1 5024   4.978   5.502   0.725
 1713TIP3    H2 5025   4.878   5.590   0.653
 1714TIP3   OH2 5026   4.211   5.246   0.261
 1714TIP3    H1 5027   4.250   5.223   0.176
 1714TIP3    H2 5028   4.269   5.205   0.325
 1715TIP3   OH2 5029   4.107   5.174   0.899
 1715TIP3    H1 5030   4.129   5.162   0.992
 1715TIP3    H2 5031   4.038   5.109   0.883
 1716TIP3   OH2 5032   4.853   5.299   0.890
 1716TIP3    H1 5033   4.802   5.278   0.811
 1716TIP3    H2 5034   4.936   5.253   0.878
 1717TIP3   OH2 5035   5.048   5.789   0.518
 1717TIP3    H1 5036   4.958   5.774   0.546
 1717TIP3    H2 5037   5.088   5.837   0.590
 1718TIP3   OH2 5038   5.146   5.321   0.195
 1718TIP3    H1 5039   5.054   5.295   0.185
 1718TIP3    H2 5040   5.195   5.252   0.149
 1719TIP3   OH2 5041   1.102   0.950   7.934
 1719TIP3    H1 5042   1.139   1.027   7.890
 1719TIP3    H2 5043   1.012   0.944   7.902
 1720TIP3   OH2 5044   0.587   0.229   7.642
 1720TIP3    H1 5045   0.642   0.305   7.662
 1720TIP3    H2 5046   0.521   0.228   7.711
 1721TIP3   OH2 5047   1.202   0.699   7.855
 1721TIP3    H1 5048   1.179   0.787   7.886
 1721TIP3    H2 5049   1.163   0.640   7.920
 1722TIP3   OH2 5050   4.619   5.894   0.374
 1722TIP3    H1 5051   4.649   5.956   0.308
 1722TIP3    H2 5052   4.695   5.877   0.429
 1723TIP3   OH2 5053   4.993   5.510   0.369
 1723TIP3    H1 5054   4.978   5.491   0.462
 1723TIP3    H2 5055   5.056   5.443   0.341
 1724TIP3   OH2 5056   5.166   6.135   0.396
 1724TIP3    H1 5057   5.213   6.063   0.437
 1724TIP3    H2 5058   5.228   6.170   0.331
 1725TIP3   OH2 5059   4.313   4.669   0.889
 1725TIP3    H1 5060   4.218   4.676   0.894
 1725TIP3    H2 5061   4.336   4.611   0.962
 1726TIP3   OH2 5062   4.037   5.769   0.550
 1726TIP3    H1 5063   4.093   5.713   0.604
 1726TIP3    H2 5064   4.056   5.858   0.581
 1727TIP3   OH2 5065   0.716   0.465   7.724
 1727TIP3    H1 5066   0.656   0.530   7.763
 1727TIP3    H2 5067   0.775   0.516   7.669
 1728TIP3   OH2 5068   5.150   4.742   0.599
 1728TIP3    H1 5069   5.231   4.785   0.628
 1728TIP3    H2 5070   5.144   4.664   0.654
 1729TIP3   OH2 5071   1.451   0.055   7.876
 1729TIP3    H1 5072   1.532   0.100   7.855
 1729TIP3    H2 5073   1.455   0.039   7.970
 1730TIP3   OH2 5074   4.982   4.965   0.650
 1730TIP3    H1 5075   5.014   5.011   0.728
 1730TIP3    H2 5076   5.038   4.888   0.642
 1731TIP3   OH2 5077   4.879   4.395  -0.008
 1731TIP3    H1 5078   4.842   4.472   0.035
 1731TIP3    H2 5079   4.972   4.396   0.015
 1732TIP3   OH2 5080   7.625   9.009   7.783
 1732TIP3    H1 5081   7.594   9.061   7.857
 1732TIP3    H2 5082   7.720   9.012   7.791
 1733TIP3   OH2 5083   5.632   4.891   0.634
 1733TIP3    H1 5084   5.538   4.895   0.653
 1733TIP3    H2 5085   5.638   4.836   0.556
 1734TIP3   OH2 5086   5.271   5.106   0.070
 1734TIP3    H1 5087   5.203   5.043   0.046
 1734TIP3    H2 5088   5.347   5.053   0.091
 1735TIP3   OH2 5089   7.178   9.210   7.551
 1735TIP3    H1 5090   7.167   9.301   7.577
 1735TIP3    H2 5091   7.175   9.161   7.634
 1736TIP3   OH2 5092   4.323   4.305   0.524
 1736TIP3    H1 5093   4.294   4.274   0.438
 1736TIP3    H2 5094   4.314   4.229   0.581
 1737TIP3   OH2 5095   0.557   0.931   7.905
 1737TIP3    H1 5096   0.528   0.961   7.991
 1737TIP3    H2 5097   0.533   1.002   7.845
 1738TIP3   OH2 5098   4.049   6.085   0.957
 1738TIP3    H1 5099   4.128   6.095   1.010
 1738TIP3    H2 5100   4.043   5.990   0.942
 1739TIP3   OH2 5101   4.502   5.977   1.015
 1739TIP3    H1 5102   4.593   5.952   1.027
 1739TIP3    H2 5103   4.475   5.933   0.935
 1740TIP3   OH2 5104   5.159   5.917   0.735
 1740TIP3    H1 5105   5.135   5.849   0.799
 1740TIP3    H2 5106   5.203   5.985   0.788
 1741TIP3   OH2 5107   4.141   5.487   1.143
 1741TIP3    H1 5108   4.168   5.396   1.155
 1741TIP3    H2 5109   4.054   5.481   1.104
 1742TIP3   OH2 5110   4.774   5.568   0.933
 1742TIP3    H1 5111   4.720   5.581   0.855
 1742TIP3    H2 5112   4.816   5.482   0.919
 1743TIP3   OH2 5113   5.229   5.581   0.621
 1743TIP3    H1 5114   5.297   5.634   0.579
 1743TIP3    H2 5115   5.147   5.613   0.582
 1744TIP3   OH2 5116   4.262   5.234   1.146
 1744TIP3    H1 5117   4.338   5.225   1.089
 1744TIP3    H2 5118   4.298   5.250   1.232
 1745TIP3   OH2 5119   4.588   5.078   0.795
 1745TIP3    H1 5120   4.525   5.143   0.825
 1745TIP3    H2 5121   4.646   5.126   0.736
 1746TIP3   OH2 5122   5.100   5.488   0.885
 1746TIP3    H1 5123   5.176   5.479   0.827
 1746TIP3    H2 5124   5.120   5.432   0.960
 1747TIP3   OH2 5125   4.734   4.880   0.919
 1747TIP3    H1 5126   4.742   4.807   0.857
 1747TIP3    H2 5127   4.691   4.949   0.869
 1748TIP3   OH2 5128   4.741   4.682   0.716
 1748TIP3    H1 5129   4.771   4.719   0.633
 1748TIP3    H2 5130   4.650   4.659   0.701
 1749TIP3   OH2 5131   4.750   5.236   0.634
 1749TIP3    H1 5132   4.836   5.251   0.596
 1749TIP3    H2 5133   4.689   5.282   0.576
 1750TIP3   OH2 5134   5.343   5.152   0.952
 1750TIP3    H1 5135   5.361   5.064   0.983
 1750TIP3    H2 5136   5.413   5.171   0.890
 1751TIP3   OH2 5137   5.398   5.389   0.708
 1751TIP3    H1 5138   5.344   5.460   0.673
 1751TIP3    H2 5139   5.487   5.425   0.708
 1752TIP3   OH2 5140   4.619   4.964   1.161
 1752TIP3    H1 5141   4.550   4.901   1.180
 1752TIP3    H2 5142   4.649   4.942   1.073
 1753TIP3   OH2 5143   4.862   4.454   0.820
 1753TIP3    H1 5144   4.822   4.534   0.786
 1753TIP3    H2 5145   4.796   4.386   0.806
 1754TIP3   OH2 5146   4.992   4.922   1.021
 1754TIP3    H1 5147   4.981   4.910   1.116
 1754TIP3    H2 5148   4.905   4.903   0.985
 1755TIP3   OH2 5149   5.240   4.873   0.895
 1755TIP3    H1 5150   5.161   4.873   0.949
 1755TIP3    H2 5151   5.311   4.848   0.954
 1756TIP3   OH2 5152   5.477   4.846   1.043
 1756TIP3    H1 5153   5.491   4.751   1.049
 1756TIP3    H2 5154   5.474   4.876   1.134
 1757TIP3   OH2 5155   4.447   4.749   1.226
 1757TIP3    H1 5156   4.455   4.662   1.188
 1757TIP3    H2 5157   4.487   4.741   1.313
 1758TIP3   OH2 5158   4.927   4.429   1.085
 1758TIP3    H1 5159   4.996   4.363   1.078
 1758TIP3    H2 5160   4.898   4.442   0.994
 1759TIP3   OH2 5161   5.025   4.642   1.230
 1759TIP3    H1 5162   4.994   4.571   1.175
 1759TIP3    H2 5163   4.953   4.705   1.231
 1760TIP3   OH2 5164   0.360   1.206   7.976
 1760TIP3    H1 5165   0.294   1.154   7.931
 1760TIP3    H2 5166   0.399   1.146   8.040
 1761TIP3   OH2 5167   3.776   5.679   0.161
 1761TIP3    H1 5168   3.797   5.611   0.226
 1761TIP3    H2 5169   3.829   5.754   0.187
 1762TIP3   OH2 5170   5.565   6.168   0.202
 1762TIP3    H1 5171   5.533   6.088   0.159
 1762TIP3    H2 5172   5.528   6.164   0.290
 1763TIP3   OH2 5173   5.472   5.825   0.801
 1763TIP3    H1 5174   5.431   5.815   0.886
 1763TIP3    H2 5175   5.562   5.795   0.814
 1764TIP3   OH2 5176   5.348   5.966   0.230
 1764TIP3    H1 5177   5.323   5.926   0.314
 1764TIP3    H2 5178   5.269   5.959   0.176
 1765TIP3   OH2 5179   3.965   5.136   0.524
 1765TIP3    H1 5180   3.955   5.095   0.438
 1765TIP3    H2 5181   4.059   5.129   0.543
 1766TIP3   OH2 5182   5.489   4.937   0.139
 1766TIP3    H1 5183   5.566   4.961   0.088
 1766TIP3    H2 5184   5.505   4.975   0.226
 1767TIP3   OH2 5185   5.547   5.079   0.371
 1767TIP3    H1 5186   5.480   5.090   0.438
 1767TIP3    H2 5187   5.556   5.165   0.331
 1768TIP3   OH2 5188   4.183   4.802   1.161
 1768TIP3    H1 5189   4.277   4.801   1.178
 1768TIP3    H2 5190   4.150   4.721   1.200
 1769TIP3   OH2 5191   6.023   4.697   0.922
 1769TIP3    H1 5192   6.086   4.634   0.888
 1769TIP3    H2 5193   5.986   4.739   0.844
 1770TIP3   OH2 5194   4.153   4.522   0.553
 1770TIP3    H1 5195   4.210   4.445   0.551
 1770TIP3    H2 5196   4.208   4.593   0.519
 1771TIP3   OH2 5197   3.939   4.788   0.566
 1771TIP3    H1 5198   3.981   4.772   0.482
 1771TIP3    H2 5199   3.990   4.860   0.605
 1772TIP3   OH2 5200   5.881   4.781   0.704
 1772TIP3    H1 5201   5.808   4.842   0.704
 1772TIP3    H2 5202   5.846   4.701   0.663
 1773TIP3   OH2 5203   3.971   4.313   0.068
 1773TIP3    H1 5204   3.915   4.332   0.143
 1773TIP3    H2 5205   4.040   4.381   0.072
 1774TIP3   OH2 5206   4.165   4.359   0.909
 1774TIP3    H1 5207   4.111   4.347   0.988
 1774TIP3    H2 5208   4.105   4.401   0.847
 1775TIP3   OH2 5209   4.186   5.817   0.964
 1775TIP3    H1 5210   4.097   5.784   0.970
 1775TIP3    H2 5211   4.218   5.818   1.055
 1776TIP3   OH2 5212   4.394   5.839   0.520
 1776TIP3    H1 5213   4.338   5.908   0.485
 1776TIP3    H2 5214   4.479   5.853   0.479
 1777TIP3   OH2 5215   4.756   6.046   0.695
 1777TIP3    H1 5216   4.803   6.047   0.778
 1777TIP3    H2 5217   4.809   6.101   0.636
 1778TIP3   OH2 5218   4.939   6.188   0.542
 1778TIP3    H1 5219   5.031   6.181   0.513
 1778TIP3    H2 5220   4.942   6.247   0.617
 1779TIP3   OH2 5221   5.766   4.545   0.625
 1779TIP3    H1 5222   5.678   4.531   0.590
 1779TIP3    H2 5223   5.806   4.457   0.627
 1780TIP3   OH2 5224   4.040   6.069   0.560
 1780TIP3    H1 5225   3.948   6.084   0.540
 1780TIP3    H2 5226   4.063   6.139   0.621
 1781TIP3   OH2 5227   4.273   6.056   0.409
 1781TIP3    H1 5228   4.191   6.066   0.457
 1781TIP3    H2 5229   4.255   6.099   0.325
 1782TIP3   OH2 5230   4.657   6.080   0.165
 1782TIP3    H1 5231   4.579   6.084   0.110
 1782TIP3    H2 5232   4.662   6.165   0.208
 1783TIP3   OH2 5233   4.912   6.090   0.068
 1783TIP3    H1 5234   4.825   6.071   0.104
 1783TIP3    H2 5235   4.935   6.176   0.103
 1784TIP3   OH2 5236   3.940   5.862   0.302
 1784TIP3    H1 5237   3.968   5.843   0.392
 1784TIP3    H2 5238   4.015   5.838   0.248
 1785TIP3   OH2 5239   4.155   5.764   0.164
 1785TIP3    H1 5240   4.163   5.677   0.203
 1785TIP3    H2 5241   4.243   5.802   0.169
 1786TIP3   OH2 5242   4.422   5.827   0.186
 1786TIP3    H1 5243   4.441   5.734   0.184
 1786TIP3    H2 5244   4.483   5.863   0.250
 1787TIP3   OH2 5245   4.998   4.490   0.272
 1787TIP3    H1 5246   4.953   4.421   0.321
 1787TIP3    H2 5247   5.056   4.442   0.212
 1788TIP3   OH2 5248   5.487   4.383   0.106
 1788TIP3    H1 5249   5.558   4.419   0.052
 1788TIP3    H2 5250   5.433   4.459   0.128
 1789TIP3   OH2 5251   8.953   9.105   7.954
 1789TIP3    H1 5252   9.032   9.051   7.947
 1789TIP3    H2 5253   8.986   9.195   7.953
 1790TIP3   OH2 5254   4.239   4.185   0.298
 1790TIP3    H1 5255   4.150   4.151   0.290
 1790TIP3    H2 5256   4.295   4.114   0.268
 1791TIP3   OH2 5257   7.262   8.713   7.908
 1791TIP3    H1 5258   7.321   8.750   7.842
 1791TIP3    H2 5259   7.254   8.783   7.974
 1792TIP3   OH2 5260   4.730   4.229   0.160
 1792TIP3    H1 5261   4.780   4.283   0.099
 1792TIP3    H2 5262   4.764   4.253   0.247
 1793TIP3   OH2 5263   5.152   4.342   0.092
 1793TIP3    H1 5264   5.215   4.316   0.025
 1793TIP3    H2 5265   5.170   4.285   0.166
 1794TIP3   OH2 5266   7.421   8.829   7.723
 1794TIP3    H1 5267   7.466   8.750   7.693
 1794TIP3    H2 5268   7.491   8.895   7.730
 1795TIP3   OH2 5269   7.900   9.038   7.811
 1795TIP3    H1 5270   7.967   8.990   7.860
 1795TIP3    H2 5271   7.926   9.130   7.819
 1796TIP3   OH2 5272   4.465   4.480   1.134
 1796TIP3    H1 5273   4.431   4.414   1.195
 1796TIP3    H2 5274   4.558   4.489   1.157
 1797TIP3   OH2 5275   4.712   4.484   1.257
 1797TIP3    H1 5276   4.789   4.462   1.205
 1797TIP3    H2 5277   4.708   4.415   1.324
 1798TIP3   OH2 5278   5.533   4.573   1.048
 1798TIP3    H1 5279   5.549   4.544   1.138
 1798TIP3    H2 5280   5.618   4.566   1.005
 1799TIP3   OH2 5281   5.463   6.147   0.453
 1799TIP3    H1 5282   5.417   6.075   0.495
 1799TIP3    H2 5283   5.515   6.187   0.523
 1800TIP3   OH2 5284   6.284   4.738   0.253
 1800TIP3    H1 5285   6.241   4.725   0.168
 1800TIP3    H2 5286   6.213   4.765   0.312
 1801TIP3   OH2 5287   6.159   5.499   0.364
 1801TIP3    H1 5288   6.104   5.564   0.407
 1801TIP3    H2 5289   6.119   5.487   0.278
 1802TIP3   OH2 5290   5.890   5.581   0.279
 1802TIP3    H1 5291   5.836   5.596   0.201
 1802TIP3    H2 5292   5.898   5.485   0.284
 1803TIP3   OH2 5293   6.069   5.769   0.166
 1803TIP3    H1 5294   6.139   5.798   0.225
 1803TIP3    H2 5295   6.024   5.700   0.215
 1804TIP3   OH2 5296   6.925   4.679   0.193
 1804TIP3    H1 5297   7.003   4.653   0.242
 1804TIP3    H2 5298   6.855   4.627   0.231
 1805TIP3   OH2 5299   6.858   5.395   0.505
 1805TIP3    H1 5300   6.825   5.307   0.485
 1805TIP3    H2 5301   6.938   5.403   0.453
 1806TIP3   OH2 5302   6.096   5.204   0.212
 1806TIP3    H1 5303   6.188   5.220   0.235
 1806TIP3    H2 5304   6.094   5.112   0.186
 1807TIP3   OH2 5305   6.261   5.631   0.612
 1807TIP3    H1 5306   6.289   5.722   0.611
 1807TIP3    H2 5307   6.166   5.634   0.605
 1808TIP3   OH2 5308   5.888   5.319   0.346
 1808TIP3    H1 5309   5.869   5.263   0.422
 1808TIP3    H2 5310   5.956   5.272   0.299
 1809TIP3   OH2 5311   6.613   5.425   0.240
 1809TIP3    H1 5312   6.552   5.467   0.301
 1809TIP3    H2 5313   6.693   5.412   0.290
 1810TIP3   OH2 5314   6.058   4.838   0.383
 1810TIP3    H1 5315   5.978   4.890   0.372
 1810TIP3    H2 5316   6.072   4.837   0.477
 1811TIP3   OH2 5317   9.251   9.128   7.993
 1811TIP3    H1 5318   9.319   9.132   7.926
 1811TIP3    H2 5319   9.285   9.068   8.059
 1812TIP3   OH2 5320   5.946   6.309   0.336
 1812TIP3    H1 5321   5.968   6.261   0.416
 1812TIP3    H2 5322   5.915   6.241   0.276
 1813TIP3   OH2 5323   6.305   6.366   0.425
 1813TIP3    H1 5324   6.292   6.292   0.485
 1813TIP3    H2 5325   6.365   6.333   0.359
 1814TIP3   OH2 5326   6.542   5.821   0.416
 1814TIP3    H1 5327   6.550   5.807   0.322
 1814TIP3    H2 5328   6.590   5.749   0.456
 1815TIP3   OH2 5329   6.027   5.387   0.814
 1815TIP3    H1 5330   6.031   5.433   0.730
 1815TIP3    H2 5331   5.935   5.390   0.838
 1816TIP3   OH2 5332   6.344   5.316   0.260
 1816TIP3    H1 5333   6.301   5.371   0.325
 1816TIP3    H2 5334   6.386   5.377   0.199
 1817TIP3   OH2 5335   7.086   5.732   0.389
 1817TIP3    H1 5336   7.022   5.786   0.344
 1817TIP3    H2 5337   7.038   5.693   0.462
 1818TIP3   OH2 5338   6.533   5.172   0.411
 1818TIP3    H1 5339   6.514   5.083   0.382
 1818TIP3    H2 5340   6.476   5.228   0.358
 1819TIP3   OH2 5341   6.549   4.836   0.292
 1819TIP3    H1 5342   6.576   4.873   0.207
 1819TIP3    H2 5343   6.458   4.808   0.278
 1820TIP3   OH2 5344   7.109   5.434   0.419
 1820TIP3    H1 5345   7.185   5.380   0.442
 1820TIP3    H2 5346   7.143   5.501   0.360
 1821TIP3   OH2 5347   6.499   5.315   0.652
 1821TIP3    H1 5348   6.405   5.328   0.636
 1821TIP3    H2 5349   6.530   5.268   0.575
 1822TIP3   OH2 5350   6.676   4.591   0.300
 1822TIP3    H1 5351   6.652   4.684   0.294
 1822TIP3    H2 5352   6.595   4.544   0.284
 1823TIP3   OH2 5353   6.798   5.139   0.477
 1823TIP3    H1 5354   6.786   5.126   0.571
 1823TIP3    H2 5355   6.710   5.131   0.440
 1824TIP3   OH2 5356   7.049   5.111   0.351
 1824TIP3    H1 5357   6.954   5.117   0.365
 1824TIP3    H2 5358   7.080   5.051   0.418
 1825TIP3   OH2 5359   7.359   5.014   0.556
 1825TIP3    H1 5360   7.332   4.924   0.539
 1825TIP3    H2 5361   7.341   5.027   0.649
 1826TIP3   OH2 5362   6.187   4.947   0.857
 1826TIP3    H1 5363   6.201   4.882   0.788
 1826TIP3    H2 5364   6.256   4.929   0.921
 1827TIP3   OH2 5365   6.729   4.610   0.574
 1827TIP3    H1 5366   6.810   4.559   0.572
 1827TIP3    H2 5367   6.699   4.612   0.483
 1828TIP3   OH2 5368   6.816   4.836   0.715
 1828TIP3    H1 5369   6.809   4.749   0.675
 1828TIP3    H2 5370   6.758   4.892   0.662
 1829TIP3   OH2 5371   5.937   5.060   0.805
 1829TIP3    H1 5372   6.012   5.019   0.847
 1829TIP3    H2 5373   5.861   5.024   0.851
 1830TIP3   OH2 5374   5.843   4.739   0.033
 1830TIP3    H1 5375   5.894   4.659   0.021
 1830TIP3    H2 5376   5.909   4.807   0.050
 1831TIP3   OH2 5377   2.467   0.335   7.880
 1831TIP3    H1 5378   2.491   0.252   7.920
 1831TIP3    H2 5379   2.480   0.400   7.950
 1832TIP3   OH2 5380   5.939   4.548   0.399
 1832TIP3    H1 5381   5.888   4.551   0.480
 1832TIP3    H2 5382   5.902   4.618   0.345
 1833TIP3   OH2 5383   5.936   5.993   0.425
 1833TIP3    H1 5384   5.842   5.984   0.406
 1833TIP3    H2 5385   5.939   6.049   0.502
 1834TIP3   OH2 5386   6.241   4.722   0.649
 1834TIP3    H1 5387   6.216   4.648   0.705
 1834TIP3    H2 5388   6.336   4.728   0.658
 1835TIP3   OH2 5389   6.509   4.693   0.722
 1835TIP3    H1 5390   6.584   4.647   0.685
 1835TIP3    H2 5391   6.489   4.646   0.803
 1836TIP3   OH2 5392   7.348   4.742   0.524
 1836TIP3    H1 5393   7.350   4.724   0.618
 1836TIP3    H2 5394   7.440   4.738   0.497
 1837TIP3   OH2 5395   9.633   5.812   2.222
 1837TIP3    H1 5396   9.622   5.717   2.227
 1837TIP3    H2 5397   9.666   5.837   2.309
 1838TIP3   OH2 5398   0.298   5.764   2.080
 1838TIP3    H1 5399   0.355   5.696   2.043
 1838TIP3    H2 5400   0.257   5.805   2.003
 1839TIP3   OH2 5401   0.125   5.872   1.893
 1839TIP3    H1 5402   0.066   5.920   1.950
 1839TIP3    H2 5403   0.072   5.799   1.860
 1840TIP3   OH2 5404   0.042   5.608   1.815
 1840TIP3    H1 5405  -0.051   5.586   1.804
 1840TIP3    H2 5406   0.088   5.528   1.792
 1841TIP3   OH2 5407   9.621   5.533   2.199
 1841TIP3    H1 5408   9.609   5.528   2.294
 1841TIP3    H2 5409   9.715   5.540   2.187
 1842TIP3   OH2 5410   1.863   6.089   0.888
 1842TIP3    H1 5411   1.870   6.151   0.961
 1842TIP3    H2 5412   1.800   6.129   0.828
 1843TIP3   OH2 5413   1.142   6.269   0.989
 1843TIP3    H1 5414   1.087   6.190   0.988
 1843TIP3    H2 5415   1.196   6.262   0.911
 1844TIP3   OH2 5416   1.885   6.275   1.089
 1844TIP3    H1 5417   1.796   6.308   1.083
 1844TIP3    H2 5418   1.921   6.317   1.167
 1845TIP3   OH2 5419   1.428   5.985   0.761
 1845TIP3    H1 5420   1.378   5.975   0.842
 1845TIP3    H2 5421   1.480   6.065   0.775
 1846TIP3   OH2 5422   1.579   5.951   1.073
 1846TIP3    H1 5423   1.486   5.960   1.053
 1846TIP3    H2 5424   1.621   5.949   0.987
 1847TIP3   OH2 5425   0.875   5.627   1.109
 1847TIP3    H1 5426   0.856   5.533   1.107
 1847TIP3    H2 5427   0.790   5.668   1.125
 1848TIP3   OH2 5428   1.513   6.988   1.050
 1848TIP3    H1 5429   1.505   6.899   1.015
 1848TIP3    H2 5430   1.538   7.042   0.975
 1849TIP3   OH2 5431   1.734   6.617   0.912
 1849TIP3    H1 5432   1.652   6.665   0.926
 1849TIP3    H2 5433   1.774   6.660   0.837
 1850TIP3   OH2 5434   1.451   6.486   1.232
 1850TIP3    H1 5435   1.459   6.568   1.280
 1850TIP3    H2 5436   1.359   6.483   1.204
 1851TIP3   OH2 5437   1.789   7.337   1.131
 1851TIP3    H1 5438   1.788   7.246   1.159
 1851TIP3    H2 5439   1.699   7.368   1.147
 1852TIP3   OH2 5440   1.670   6.428   1.392
 1852TIP3    H1 5441   1.592   6.433   1.337
 1852TIP3    H2 5442   1.683   6.335   1.408
 1853TIP3   OH2 5443   0.603   5.736   1.174
 1853TIP3    H1 5444   0.521   5.691   1.154
 1853TIP3    H2 5445   0.578   5.804   1.236
 1854TIP3   OH2 5446   1.183   5.808   1.411
 1854TIP3    H1 5447   1.257   5.784   1.466
 1854TIP3    H2 5448   1.106   5.784   1.463
 1855TIP3   OH2 5449   1.389   6.218   1.309
 1855TIP3    H1 5450   1.353   6.214   1.397
 1855TIP3    H2 5451   1.387   6.311   1.287
 1856TIP3   OH2 5452   1.108   6.433   1.534
 1856TIP3    H1 5453   1.096   6.374   1.609
 1856TIP3    H2 5454   1.200   6.461   1.541
 1857TIP3   OH2 5455   1.190   6.456   1.182
 1857TIP3    H1 5456   1.184   6.387   1.116
 1857TIP3    H2 5457   1.099   6.476   1.204
 1858TIP3   OH2 5458   1.303   5.959   1.014
 1858TIP3    H1 5459   1.264   6.010   1.085
 1858TIP3    H2 5460   1.241   5.888   0.998
 1859TIP3   OH2 5461   0.911   6.001   1.223
 1859TIP3    H1 5462   0.911   6.001   1.127
 1859TIP3    H2 5463   1.004   5.996   1.246
 1860TIP3   OH2 5464   1.495   6.752   0.903
 1860TIP3    H1 5465   1.484   6.797   0.819
 1860TIP3    H2 5466   1.434   6.678   0.899
 1861TIP3   OH2 5467   0.887   6.591   1.588
 1861TIP3    H1 5468   0.852   6.627   1.506
 1861TIP3    H2 5469   0.966   6.543   1.561
 1862TIP3   OH2 5470   1.772   7.032   1.141
 1862TIP3    H1 5471   1.678   7.035   1.125
 1862TIP3    H2 5472   1.810   7.022   1.054
 1863TIP3   OH2 5473   0.463   5.972   1.592
 1863TIP3    H1 5474   0.386   6.016   1.627
 1863TIP3    H2 5475   0.483   5.904   1.657
 1864TIP3   OH2 5476   1.181   6.041   1.265
 1864TIP3    H1 5477   1.258   6.095   1.280
 1864TIP3    H2 5478   1.196   5.963   1.319
 1865TIP3   OH2 5479   0.980   6.240   1.368
 1865TIP3    H1 5480   1.008   6.315   1.421
 1865TIP3    H2 5481   1.060   6.192   1.350
 1866TIP3   OH2 5482   1.649   6.135   1.277
 1866TIP3    H1 5483   1.559   6.161   1.295
 1866TIP3    H2 5484   1.643   6.073   1.206
 1867TIP3   OH2 5485   1.294   6.269   0.756
 1867TIP3    H1 5486   1.299   6.322   0.677
 1867TIP3    H2 5487   1.385   6.249   0.777
 1868TIP3   OH2 5488   1.267   7.226   1.408
 1868TIP3    H1 5489   1.234   7.177   1.483
 1868TIP3    H2 5490   1.326   7.291   1.446
 1869TIP3   OH2 5491   0.790   6.885   1.601
 1869TIP3    H1 5492   0.701   6.920   1.595
 1869TIP3    H2 5493   0.778   6.796   1.635
 1870TIP3   OH2 5494   1.369   6.962   1.303
 1870TIP3    H1 5495   1.437   7.001   1.248
 1870TIP3    H2 5496   1.330   7.036   1.350
 1871TIP3   OH2 5497   0.280   6.606   1.847
 1871TIP3    H1 5498   0.339   6.601   1.922
 1871TIP3    H2 5499   0.299   6.529   1.795
 1872TIP3   OH2 5500   1.219   6.791   1.613
 1872TIP3    H1 5501   1.314   6.792   1.623
 1872TIP3    H2 5502   1.188   6.726   1.677
 1873TIP3   OH2 5503   1.386   6.466   1.630
 1873TIP3    H1 5504   1.434   6.386   1.652
 1873TIP3    H2 5505   1.452   6.523   1.591
 1874TIP3   OH2 5506   1.470   6.719   1.371
 1874TIP3    H1 5507   1.414   6.794   1.352
 1874TIP3    H2 5508   1.556   6.743   1.337
 1875TIP3   OH2 5509   0.634   6.276   1.826
 1875TIP3    H1 5510   0.571   6.213   1.862
 1875TIP3    H2 5511   0.582   6.327   1.763
 1876TIP3   OH2 5512   0.902   5.738   1.457
 1876TIP3    H1 5513   0.883   5.796   1.383
 1876TIP3    H2 5514   0.835   5.670   1.453
 1877TIP3   OH2 5515   1.085   6.247   1.733
 1877TIP3    H1 5516   1.141   6.240   1.810
 1877TIP3    H2 5517   0.998   6.220   1.764
 1878TIP3   OH2 5518   1.282   6.170   1.551
 1878TIP3    H1 5519   1.211   6.185   1.613
 1878TIP3    H2 5520   1.358   6.151   1.606
 1879TIP3   OH2 5521   1.517   6.145   1.699
 1879TIP3    H1 5522   1.533   6.051   1.710
 1879TIP3    H2 5523   1.512   6.179   1.788
 1880TIP3   OH2 5524   0.485   6.047   1.910
 1880TIP3    H1 5525   0.493   5.959   1.873
 1880TIP3    H2 5526   0.529   6.042   1.994
 1881TIP3   OH2 5527   0.974   5.740   1.728
 1881TIP3    H1 5528   1.043   5.674   1.722
 1881TIP3    H2 5529   0.937   5.745   1.640
 1882TIP3   OH2 5530   1.059   5.948   1.892
 1882TIP3    H1 5531   1.036   5.876   1.832
 1882TIP3    H2 5532   0.986   6.010   1.884
 1883TIP3   OH2 5533   1.637   7.132   1.452
 1883TIP3    H1 5534   1.567   7.140   1.516
 1883TIP3    H2 5535   1.682   7.217   1.455
 1884TIP3   OH2 5536   1.713   6.792   1.275
 1884TIP3    H1 5537   1.776   6.723   1.253
 1884TIP3    H2 5538   1.740   6.867   1.221
 1885TIP3   OH2 5539   1.865   6.566   1.258
 1885TIP3    H1 5540   1.793   6.525   1.306
 1885TIP3    H2 5541   1.941   6.511   1.277
 1886TIP3   OH2 5542   1.562   6.225   0.823
 1886TIP3    H1 5543   1.631   6.260   0.767
 1886TIP3    H2 5544   1.574   6.269   0.907
 1887TIP3   OH2 5545   1.633   6.389   1.037
 1887TIP3    H1 5546   1.569   6.420   1.101
 1887TIP3    H2 5547   1.670   6.468   0.999
 1888TIP3   OH2 5548   0.255   6.071   1.752
 1888TIP3    H1 5549   0.325   6.089   1.814
 1888TIP3    H2 5550   0.203   6.002   1.795
 1889TIP3   OH2 5551   2.072   6.008   1.581
 1889TIP3    H1 5552   2.138   5.947   1.549
 1889TIP3    H2 5553   2.038   6.050   1.502
 1890TIP3   OH2 5554   1.562   5.763   0.371
 1890TIP3    H1 5555   1.584   5.789   0.461
 1890TIP3    H2 5556   1.545   5.669   0.378
 1891TIP3   OH2 5557   1.915   6.130   1.393
 1891TIP3    H1 5558   1.857   6.165   1.460
 1891TIP3    H2 5559   1.856   6.091   1.328
 1892TIP3   OH2 5560   0.192   5.711   1.577
 1892TIP3    H1 5561   0.145   5.707   1.660
 1892TIP3    H2 5562   0.172   5.627   1.535
 1893TIP3   OH2 5563   1.832   5.848   1.278
 1893TIP3    H1 5564   1.740   5.827   1.260
 1893TIP3    H2 5565   1.876   5.763   1.277
 1894TIP3   OH2 5566   1.092   5.780   0.983
 1894TIP3    H1 5567   1.016   5.733   1.015
 1894TIP3    H2 5568   1.094   5.763   0.889
 1895TIP3   OH2 5569   1.584   5.727   0.835
 1895TIP3    H1 5570   1.623   5.771   0.759
 1895TIP3    H2 5571   1.490   5.727   0.817
 1896TIP3   OH2 5572   1.718   5.798   0.601
 1896TIP3    H1 5573   1.778   5.729   0.573
 1896TIP3    H2 5574   1.757   5.879   0.568
 1897TIP3   OH2 5575   1.329   5.656   0.765
 1897TIP3    H1 5576   1.260   5.709   0.725
 1897TIP3    H2 5577   1.283   5.591   0.818
 1898TIP3   OH2 5578   0.520   5.783   1.810
 1898TIP3    H1 5579   0.484   5.712   1.862
 1898TIP3    H2 5580   0.611   5.790   1.838
 1899TIP3   OH2 5581   0.767   5.779   1.930
 1899TIP3    H1 5582   0.843   5.758   1.875
 1899TIP3    H2 5583   0.763   5.707   1.993
 1900TIP3   OH2 5584   1.585   5.875   1.713
 1900TIP3    H1 5585   1.600   5.846   1.802
 1900TIP3    H2 5586   1.670   5.871   1.670
 1901TIP3   OH2 5587   1.531   7.419   1.167
 1901TIP3    H1 5588   1.451   7.367   1.175
 1901TIP3    H2 5589   1.516   7.496   1.222
 1902TIP3   OH2 5590   9.282   2.129   8.002
 1902TIP3    H1 5591   9.283   2.224   7.993
 1902TIP3    H2 5592   9.212   2.100   7.944
 1903TIP3   OH2 5593   2.771   6.793   0.356
 1903TIP3    H1 5594   2.805   6.761   0.439
 1903TIP3    H2 5595   2.776   6.717   0.298
 1904TIP3   OH2 5596   2.082   6.646   0.731
 1904TIP3    H1 5597   2.112   6.598   0.808
 1904TIP3    H2 5598   2.159   6.694   0.700
 1905TIP3   OH2 5599   2.978   7.104   0.078
 1905TIP3    H1 5600   3.001   7.042   0.146
 1905TIP3    H2 5601   3.021   7.186   0.104
 1906TIP3   OH2 5602   2.127   7.052   0.498
 1906TIP3    H1 5603   2.124   6.957   0.489
 1906TIP3    H2 5604   2.197   7.080   0.438
 1907TIP3   OH2 5605   1.924   6.601   0.433
 1907TIP3    H1 5606   1.837   6.566   0.454
 1907TIP3    H2 5607   1.927   6.602   0.337
 1908TIP3   OH2 5608   2.772   7.526   0.078
 1908TIP3    H1 5609   2.833   7.454   0.065
 1908TIP3    H2 5610   2.775   7.544   0.172
 1909TIP3   OH2 5611   2.594   7.002   0.401
 1909TIP3    H1 5612   2.640   6.926   0.364
 1909TIP3    H2 5613   2.664   7.056   0.437
 1910TIP3   OH2 5614   3.629   6.322   0.406
 1910TIP3    H1 5615   3.635   6.408   0.448
 1910TIP3    H2 5616   3.671   6.334   0.321
 1911TIP3   OH2 5617   2.952   6.499   0.431
 1911TIP3    H1 5618   2.991   6.412   0.439
 1911TIP3    H2 5619   2.996   6.538   0.355
 1912TIP3   OH2 5620   3.036   6.248   0.031
 1912TIP3    H1 5621   3.100   6.243   0.103
 1912TIP3    H2 5622   3.085   6.287  -0.041
 1913TIP3   OH2 5623   2.028   6.356   0.503
 1913TIP3    H1 5624   2.004   6.447   0.486
 1913TIP3    H2 5625   2.004   6.310   0.423
 1914TIP3   OH2 5626   2.416   6.528   0.326
 1914TIP3    H1 5627   2.507   6.499   0.328
 1914TIP3    H2 5628   2.367   6.452   0.295
 1915TIP3   OH2 5629   3.657   6.536   0.586
 1915TIP3    H1 5630   3.582   6.590   0.561
 1915TIP3    H2 5631   3.703   6.588   0.653
 1916TIP3   OH2 5632   9.309   2.395   7.919
 1916TIP3    H1 5633   9.358   2.393   7.837
 1916TIP3    H2 5634   9.370   2.432   7.983
 1917TIP3   OH2 5635   2.443   6.910   0.611
 1917TIP3    H1 5636   2.404   6.989   0.647
 1917TIP3    H2 5637   2.491   6.938   0.534
 1918TIP3   OH2 5638   3.210   6.262   0.246
 1918TIP3    H1 5639   3.157   6.253   0.326
 1918TIP3    H2 5640   3.260   6.343   0.261
 1919TIP3   OH2 5641   2.241   7.120   0.734
 1919TIP3    H1 5642   2.204   7.097   0.649
 1919TIP3    H2 5643   2.225   7.043   0.789
 1920TIP3   OH2 5644   3.086   7.372   0.199
 1920TIP3    H1 5645   3.007   7.348   0.248
 1920TIP3    H2 5646   3.140   7.419   0.262
 1921TIP3   OH2 5647   3.416   6.231   0.563
 1921TIP3    H1 5648   3.330   6.243   0.522
 1921TIP3    H2 5649   3.478   6.260   0.496
 1922TIP3   OH2 5650   2.703   5.842   0.550
 1922TIP3    H1 5651   2.686   5.752   0.580
 1922TIP3    H2 5652   2.637   5.895   0.595
 1923TIP3   OH2 5653   3.286   7.281   0.529
 1923TIP3    H1 5654   3.281   7.218   0.457
 1923TIP3    H2 5655   3.271   7.366   0.488
 1924TIP3   OH2 5656   9.128   2.028   7.788
 1924TIP3    H1 5657   9.061   2.093   7.768
 1924TIP3    H2 5658   9.138   1.978   7.708
 1925TIP3   OH2 5659   3.473   6.869   0.372
 1925TIP3    H1 5660   3.398   6.927   0.380
 1925TIP3    H2 5661   3.507   6.885   0.284
 1926TIP3   OH2 5662   9.471   2.001   7.847
 1926TIP3    H1 5663   9.417   2.052   7.906
 1926TIP3    H2 5664   9.463   2.046   7.762
 1927TIP3   OH2 5665   3.181   6.748   0.712
 1927TIP3    H1 5666   3.182   6.830   0.760
 1927TIP3    H2 5667   3.104   6.754   0.656
 1928TIP3   OH2 5668   2.223   6.690   0.219
 1928TIP3    H1 5669   2.161   6.626   0.183
 1928TIP3    H2 5670   2.296   6.637   0.251
 1929TIP3   OH2 5671   2.342   7.109   0.343
 1929TIP3    H1 5672   2.345   7.204   0.334
 1929TIP3    H2 5673   2.434   7.083   0.351
 1930TIP3   OH2 5674   2.416   6.624   0.585
 1930TIP3    H1 5675   2.415   6.606   0.491
 1930TIP3    H2 5676   2.415   6.720   0.591
 1931TIP3   OH2 5677   2.854   7.306   0.325
 1931TIP3    H1 5678   2.817   7.390   0.349
 1931TIP3    H2 5679   2.828   7.247   0.396
 1932TIP3   OH2 5680   2.463   7.252   0.871
 1932TIP3    H1 5681   2.418   7.304   0.939
 1932TIP3    H2 5682   2.391   7.212   0.822
 1933TIP3   OH2 5683   2.225   6.822   0.973
 1933TIP3    H1 5684   2.227   6.899   1.030
 1933TIP3    H2 5685   2.139   6.783   0.988
 1934TIP3   OH2 5686   1.910   6.960   0.912
 1934TIP3    H1 5687   1.854   6.937   0.838
 1934TIP3    H2 5688   1.937   6.876   0.949
 1935TIP3   OH2 5689   3.515   7.599   0.599
 1935TIP3    H1 5690   3.474   7.579   0.515
 1935TIP3    H2 5691   3.442   7.605   0.660
 1936TIP3   OH2 5692   2.640   7.402   0.719
 1936TIP3    H1 5693   2.641   7.487   0.762
 1936TIP3    H2 5694   2.594   7.345   0.781
 1937TIP3   OH2 5695   3.427   6.708   0.896
 1937TIP3    H1 5696   3.347   6.725   0.847
 1937TIP3    H2 5697   3.444   6.615   0.883
 1938TIP3   OH2 5698   2.070   7.181   0.949
 1938TIP3    H1 5699   2.121   7.153   1.026
 1938TIP3    H2 5700   2.001   7.116   0.942
 1939TIP3   OH2 5701   2.959   6.050   0.886
 1939TIP3    H1 5702   3.026   6.031   0.952
 1939TIP3    H2 5703   2.876   6.040   0.933
 1940TIP3   OH2 5704   3.180   6.479   0.790
 1940TIP3    H1 5705   3.147   6.476   0.880
 1940TIP3    H2 5706   3.170   6.570   0.765
 1941TIP3   OH2 5707   9.170   1.361   7.645
 1941TIP3    H1 5708   9.121   1.345   7.725
 1941TIP3    H2 5709   9.104   1.359   7.575
 1942TIP3   OH2 5710   2.284   6.397   0.682
 1942TIP3    H1 5711   2.268   6.434   0.769
 1942TIP3    H2 5712   2.341   6.460   0.639
 1943TIP3   OH2 5713   2.250   6.335   0.225
 1943TIP3    H1 5714   2.169   6.291   0.250
 1943TIP3    H2 5715   2.272   6.297   0.140
 1944TIP3   OH2 5716   9.267   1.815   7.898
 1944TIP3    H1 5717   9.206   1.882   7.870
 1944TIP3    H2 5718   9.352   1.844   7.865
 1945TIP3   OH2 5719   2.929   6.696   1.025
 1945TIP3    H1 5720   2.898   6.629   1.087
 1945TIP3    H2 5721   3.021   6.708   1.047
 1946TIP3   OH2 5722   2.847   6.417   0.148
 1946TIP3    H1 5723   2.805   6.445   0.066
 1946TIP3    H2 5724   2.920   6.362   0.120
 1947TIP3   OH2 5725   2.198   6.481   0.924
 1947TIP3    H1 5726   2.274   6.526   0.961
 1947TIP3    H2 5727   2.187   6.404   0.979
 1948TIP3   OH2 5728   8.784   1.394   7.626
 1948TIP3    H1 5729   8.768   1.316   7.680
 1948TIP3    H2 5730   8.782   1.361   7.536
 1949TIP3   OH2 5731   1.830   5.998   0.445
 1949TIP3    H1 5732   1.878   6.078   0.426
 1949TIP3    H2 5733   1.845   5.942   0.369
 1950TIP3   OH2 5734   2.885   6.696   0.599
 1950TIP3    H1 5735   2.916   6.629   0.539
 1950TIP3    H2 5736   2.867   6.649   0.680
 1951TIP3   OH2 5737   2.664   6.167   0.258
 1951TIP3    H1 5738   2.645   6.253   0.294
 1951TIP3    H2 5739   2.736   6.134   0.312
 1952TIP3   OH2 5740   2.000   6.199   0.280
 1952TIP3    H1 5741   1.951   6.208   0.198
 1952TIP3    H2 5742   2.047   6.116   0.270
 1953TIP3   OH2 5743   8.845   1.616   7.968
 1953TIP3    H1 5744   8.935   1.597   7.993
 1953TIP3    H2 5745   8.852   1.663   7.885
 1954TIP3   OH2 5746   3.051   6.240   0.473
 1954TIP3    H1 5747   3.034   6.256   0.566
 1954TIP3    H2 5748   2.985   6.176   0.447
 1955TIP3   OH2 5749   3.248   7.928   0.692
 1955TIP3    H1 5750   3.242   7.940   0.597
 1955TIP3    H2 5751   3.327   7.977   0.717
 1956TIP3   OH2 5752   2.215   7.044   1.140
 1956TIP3    H1 5753   2.296   7.061   1.189
 1956TIP3    H2 5754   2.146   7.044   1.207
 1957TIP3   OH2 5755   2.674   6.433   0.354
 1957TIP3    H1 5756   2.735   6.435   0.280
 1957TIP3    H2 5757   2.729   6.448   0.431
 1958TIP3   OH2 5758   2.129   5.966   0.248
 1958TIP3    H1 5759   2.122   5.884   0.297
 1958TIP3    H2 5760   2.179   5.942   0.170
 1959TIP3   OH2 5761   2.600   6.445   0.717
 1959TIP3    H1 5762   2.554   6.518   0.675
 1959TIP3    H2 5763   2.684   6.482   0.744
 1960TIP3   OH2 5764   3.252   7.040   0.371
 1960TIP3    H1 5765   3.293   7.077   0.293
 1960TIP3    H2 5766   3.170   7.002   0.339
 1961TIP3   OH2 5767   2.800   7.090   0.806
 1961TIP3    H1 5768   2.845   7.062   0.886
 1961TIP3    H2 5769   2.836   7.177   0.787
 1962TIP3   OH2 5770   2.128   6.784   0.463
 1962TIP3    H1 5771   2.168   6.749   0.384
 1962TIP3    H2 5772   2.053   6.727   0.479
 1963TIP3   OH2 5773   1.971   6.724   1.041
 1963TIP3    H1 5774   1.982   6.701   1.133
 1963TIP3    H2 5775   1.901   6.665   1.011
 1964TIP3   OH2 5776   2.704   6.859   1.040
 1964TIP3    H1 5777   2.658   6.837   0.959
 1964TIP3    H2 5778   2.788   6.814   1.032
 1965TIP3   OH2 5779   2.904   7.331   0.714
 1965TIP3    H1 5780   2.816   7.360   0.690
 1965TIP3    H2 5781   2.938   7.402   0.770
 1966TIP3   OH2 5782   3.536   7.261   0.651
 1966TIP3    H1 5783   3.446   7.290   0.635
 1966TIP3    H2 5784   3.575   7.254   0.564
 1967TIP3   OH2 5785   3.023   6.906   0.277
 1967TIP3    H1 5786   2.932   6.892   0.302
 1967TIP3    H2 5787   3.059   6.818   0.263
 1968TIP3   OH2 5788   2.366   6.833   0.014
 1968TIP3    H1 5789   2.401   6.905   0.067
 1968TIP3    H2 5790   2.318   6.779   0.076
 1969TIP3   OH2 5791   2.420   7.472   0.573
 1969TIP3    H1 5792   2.451   7.544   0.519
 1969TIP3    H2 5793   2.499   7.437   0.614
 1970TIP3   OH2 5794   2.821   7.100   0.522
 1970TIP3    H1 5795   2.803   7.092   0.616
 1970TIP3    H2 5796   2.915   7.087   0.515
 1971TIP3   OH2 5797   2.164   6.236   1.046
 1971TIP3    H1 5798   2.069   6.238   1.059
 1971TIP3    H2 5799   2.195   6.178   1.116
 1972TIP3   OH2 5800   1.952   7.247   0.678
 1972TIP3    H1 5801   1.934   7.206   0.593
 1972TIP3    H2 5802   1.870   7.289   0.703
 1973TIP3   OH2 5803   2.993   6.283   0.737
 1973TIP3    H1 5804   3.071   6.330   0.766
 1973TIP3    H2 5805   2.987   6.208   0.796
 1974TIP3   OH2 5806   9.407   1.427   7.929
 1974TIP3    H1 5807   9.378   1.458   7.843
 1974TIP3    H2 5808   9.463   1.498   7.962
 1975TIP3   OH2 5809   2.584   6.223  -0.004
 1975TIP3    H1 5810   2.638   6.290  -0.044
 1975TIP3    H2 5811   2.620   6.212   0.084
 1976TIP3   OH2 5812   2.847   6.529   0.810
 1976TIP3    H1 5813   2.880   6.572   0.888
 1976TIP3    H2 5814   2.897   6.447   0.804
 1977TIP3   OH2 5815   2.711   5.931   0.111
 1977TIP3    H1 5816   2.686   6.009   0.160
 1977TIP3    H2 5817   2.777   5.962   0.048
 1978TIP3   OH2 5818   8.805   1.313   8.010
 1978TIP3    H1 5819   8.772   1.397   7.978
 1978TIP3    H2 5820   8.893   1.307   7.974
 1979TIP3   OH2 5821   3.451   6.454   0.787
 1979TIP3    H1 5822   3.356   6.441   0.780
 1979TIP3    H2 5823   3.482   6.455   0.696
 1980TIP3   OH2 5824   3.114   6.638   0.252
 1980TIP3    H1 5825   3.114   6.616   0.159
 1980TIP3    H2 5826   3.194   6.599   0.286
 1981TIP3   OH2 5827   3.093   7.626   0.074
 1981TIP3    H1 5828   3.092   7.536   0.105
 1981TIP3    H2 5829   3.185   7.654   0.082
 1982TIP3   OH2 5830   2.159   5.864   0.639
 1982TIP3    H1 5831   2.140   5.823   0.555
 1982TIP3    H2 5832   2.171   5.791   0.700
 1983TIP3   OH2 5833   1.889   7.597   1.139
 1983TIP3    H1 5834   1.973   7.596   1.184
 1983TIP3    H2 5835   1.861   7.505   1.138
 1984TIP3   OH2 5836   2.368   7.569   1.117
 1984TIP3    H1 5837   2.450   7.520   1.132
 1984TIP3    H2 5838   2.392   7.638   1.056
 1985TIP3   OH2 5839   2.969   7.509   0.912
 1985TIP3    H1 5840   2.978   7.436   0.973
 1985TIP3    H2 5841   3.047   7.561   0.925
 1986TIP3   OH2 5842   1.995   7.034   1.308
 1986TIP3    H1 5843   2.011   6.940   1.318
 1986TIP3    H2 5844   1.911   7.039   1.262
 1987TIP3   OH2 5845   2.620   7.128   1.074
 1987TIP3    H1 5846   2.593   7.153   0.986
 1987TIP3    H2 5847   2.664   7.043   1.062
 1988TIP3   OH2 5848   3.090   7.139   0.662
 1988TIP3    H1 5849   3.163   7.182   0.618
 1988TIP3    H2 5850   3.027   7.210   0.678
 1989TIP3   OH2 5851   2.119   6.776   1.307
 1989TIP3    H1 5852   2.201   6.745   1.269
 1989TIP3    H2 5853   2.142   6.804   1.396
 1990TIP3   OH2 5854   2.430   6.639   0.937
 1990TIP3    H1 5855   2.367   6.710   0.951
 1990TIP3    H2 5856   2.497   6.678   0.880
 1991TIP3   OH2 5857   2.967   7.038   1.031
 1991TIP3    H1 5858   3.045   7.009   0.983
 1991TIP3    H2 5859   2.968   6.986   1.111
 1992TIP3   OH2 5860   2.574   6.446   1.074
 1992TIP3    H1 5861   2.575   6.368   1.018
 1992TIP3    H2 5862   2.533   6.514   1.020
 1993TIP3   OH2 5863   2.547   6.235   0.883
 1993TIP3    H1 5864   2.575   6.298   0.817
 1993TIP3    H2 5865   2.452   6.227   0.871
 1994TIP3   OH2 5866   2.617   6.783   0.785
 1994TIP3    H1 5867   2.702   6.791   0.743
 1994TIP3    H2 5868   2.557   6.830   0.727
 1995TIP3   OH2 5869   3.189   6.732   1.125
 1995TIP3    H1 5870   3.249   6.658   1.125
 1995TIP3    H2 5871   3.246   6.809   1.120
 1996TIP3   OH2 5872   3.204   6.988   0.856
 1996TIP3    H1 5873   3.154   7.042   0.795
 1996TIP3    H2 5874   3.295   7.000   0.828
 1997TIP3   OH2 5875   2.456   6.528   1.314
 1997TIP3    H1 5876   2.389   6.463   1.334
 1997TIP3    H2 5877   2.487   6.504   1.227
 1998TIP3   OH2 5878   2.685   6.004   0.962
 1998TIP3    H1 5879   2.644   6.087   0.937
 1998TIP3    H2 5880   2.617   5.938   0.946
 1999TIP3   OH2 5881   2.835   6.485   1.174
 1999TIP3    H1 5882   2.827   6.472   1.268
 1999TIP3    H2 5883   2.747   6.469   1.140
 2000TIP3   OH2 5884   3.077   6.432   1.036
 2000TIP3    H1 5885   3.001   6.436   1.094
 2000TIP3    H2 5886   3.151   6.416   1.095
 2001TIP3   OH2 5887   3.311   6.401   1.189
 2001TIP3    H1 5888   3.322   6.307   1.197
 2001TIP3    H2 5889   3.304   6.432   1.280
 2002TIP3   OH2 5890   2.298   6.302   1.377
 2002TIP3    H1 5891   2.302   6.213   1.343
 2002TIP3    H2 5892   2.335   6.296   1.465
 2003TIP3   OH2 5893   2.763   5.988   1.228
 2003TIP3    H1 5894   2.834   5.924   1.224
 2003TIP3    H2 5895   2.731   5.995   1.138
 2004TIP3   OH2 5896   2.862   6.198   1.380
 2004TIP3    H1 5897   2.829   6.129   1.322
 2004TIP3    H2 5898   2.791   6.262   1.383
 2005TIP3   OH2 5899   3.357   7.678   0.130
 2005TIP3    H1 5900   3.342   7.640   0.216
 2005TIP3    H2 5901   3.444   7.717   0.136
 2006TIP3   OH2 5902   3.423   7.369   0.968
 2006TIP3    H1 5903   3.350   7.383   1.029
 2006TIP3    H2 5904   3.465   7.455   0.962
 2007TIP3   OH2 5905   3.433   7.129   0.190
 2007TIP3    H1 5906   3.489   7.061   0.152
 2007TIP3    H2 5907   3.448   7.206   0.136
 2008TIP3   OH2 5908   9.686   1.929   8.000
 2008TIP3    H1 5909   9.729   1.859   7.950
 2008TIP3    H2 5910   9.615   1.958   7.943
 2009TIP3   OH2 5911   1.833   6.758   0.702
 2009TIP3    H1 5912   1.814   6.789   0.614
 2009TIP3    H2 5913   1.922   6.723   0.696
 2010TIP3   OH2 5914   3.463   7.025   0.773
 2010TIP3    H1 5915   3.530   6.960   0.751
 2010TIP3    H2 5916   3.486   7.101   0.720
 2011TIP3   OH2 5917   3.640   6.813   0.755
 2011TIP3    H1 5918   3.574   6.773   0.812
 2011TIP3    H2 5919   3.722   6.771   0.781
 2012TIP3   OH2 5920   9.738   1.715   7.829
 2012TIP3    H1 5921   9.777   1.628   7.840
 2012TIP3    H2 5922   9.753   1.736   7.737
 2013TIP3   OH2 5923   3.340   6.495   0.334
 2013TIP3    H1 5924   3.415   6.516   0.278
 2013TIP3    H2 5925   3.360   6.539   0.417
 2014TIP3   OH2 5926   3.409   6.662   0.545
 2014TIP3    H1 5927   3.337   6.696   0.598
 2014TIP3    H2 5928   3.432   6.735   0.486
 2015TIP3   OH2 5929   2.037   6.363   1.314
 2015TIP3    H1 5930   2.131   6.359   1.335
 2015TIP3    H2 5931   2.001   6.283   1.353
 2016TIP3   OH2 5932   3.860   6.250   1.073
 2016TIP3    H1 5933   3.927   6.192   1.035
 2016TIP3    H2 5934   3.828   6.300   0.998
 2017TIP3   OH2 5935   0.022   1.460   7.873
 2017TIP3    H1 5936   0.076   1.445   7.951
 2017TIP3    H2 5937  -0.024   1.377   7.860
 2018TIP3   OH2 5938   2.081   6.116   0.709
 2018TIP3    H1 5939   2.110   6.028   0.685
 2018TIP3    H2 5940   2.010   6.101   0.772
 2019TIP3   OH2 5941   1.791   6.337   0.717
 2019TIP3    H1 5942   1.810   6.355   0.625
 2019TIP3    H2 5943   1.808   6.419   0.762
 2020TIP3   OH2 5944   3.708   6.389   0.897
 2020TIP3    H1 5945   3.652   6.434   0.961
 2020TIP3    H2 5946   3.647   6.338   0.844
 2021TIP3   OH2 5947   1.793   5.825   0.228
 2021TIP3    H1 5948   1.711   5.795   0.268
 2021TIP3    H2 5949   1.765   5.885   0.159
 2022TIP3   OH2 5950   1.977   5.875   1.031
 2022TIP3    H1 5951   1.930   5.882   1.114
 2022TIP3    H2 5952   1.938   5.942   0.975
 2023TIP3   OH2 5953   2.197   7.435   0.730
 2023TIP3    H1 5954   2.152   7.519   0.726
 2023TIP3    H2 5955   2.276   7.447   0.678
 2024TIP3   OH2 5956   2.650   7.663   0.815
 2024TIP3    H1 5957   2.691   7.651   0.900
 2024TIP3    H2 5958   2.717   7.706   0.761
 2025TIP3   OH2 5959   2.852   7.791   0.672
 2025TIP3    H1 5960   2.917   7.753   0.613
 2025TIP3    H2 5961   2.903   7.847   0.731
 2026TIP3   OH2 5962   3.577   6.163   0.780
 2026TIP3    H1 5963   3.506   6.197   0.727
 2026TIP3    H2 5964   3.624   6.103   0.722
 2027TIP3   OH2 5965   2.507   7.670   0.408
 2027TIP3    H1 5966   2.504   7.649   0.315
 2027TIP3    H2 5967   2.548   7.757   0.412
 2028TIP3   OH2 5968   2.774   7.567   0.357
 2028TIP3    H1 5969   2.701   7.606   0.404
 2028TIP3    H2 5970   2.842   7.633   0.359
 2029TIP3   OH2 5971   2.967   7.755   0.340
 2029TIP3    H1 5972   2.979   7.837   0.292
 2029TIP3    H2 5973   3.044   7.702   0.317
 2030TIP3   OH2 5974   2.310   7.386   0.337
 2030TIP3    H1 5975   2.372   7.430   0.278
 2030TIP3    H2 5976   2.332   7.420   0.424
 2031TIP3   OH2 5977   2.860   6.043   0.407
 2031TIP3    H1 5978   2.819   5.968   0.451
 2031TIP3    H2 5979   2.935   6.005   0.361
 2032TIP3   OH2 5980   3.357   5.958   0.349
 2032TIP3    H1 5981   3.389   6.006   0.272
 2032TIP3    H2 5982   3.262   5.969   0.347
 2033TIP3   OH2 5983   3.455   6.007   0.092
 2033TIP3    H1 5984   3.518   5.949   0.048
 2033TIP3    H2 5985   3.492   6.094   0.082
 2034TIP3   OH2 5986   2.079   5.726   0.400
 2034TIP3    H1 5987   1.988   5.704   0.421
 2034TIP3    H2 5988   2.108   5.656   0.342
 2035TIP3   OH2 5989   1.910   5.633   0.065
 2035TIP3    H1 5990   1.902   5.685  -0.015
 2035TIP3    H2 5991   1.881   5.692   0.135
 2036TIP3   OH2 5992   2.575   5.780   0.304
 2036TIP3    H1 5993   2.612   5.830   0.232
 2036TIP3    H2 5994   2.627   5.806   0.380
 2037TIP3   OH2 5995   3.082   5.934   0.289
 2037TIP3    H1 5996   3.084   5.914   0.196
 2037TIP3    H2 5997   3.074   5.848   0.332
 2038TIP3   OH2 5998   9.682   1.224   7.850
 2038TIP3    H1 5999   9.604   1.261   7.809
 2038TIP3    H2 6000   9.650   1.146   7.897
 2039TIP3   OH2 6001   8.738   1.144   7.786
 2039TIP3    H1 6002   8.686   1.066   7.802
 2039TIP3    H2 6003   8.728   1.196   7.866
 2040TIP3   OH2 6004   9.059   1.349   7.903
 2040TIP3    H1 6005   9.121   1.305   7.961
 2040TIP3    H2 6006   9.077   1.442   7.915
 2041TIP3   OH2 6007   2.301   6.031   1.285
 2041TIP3    H1 6008   2.267   5.967   1.347
 2041TIP3    H2 6009   2.394   6.040   1.309
 2042TIP3   OH2 6010   2.549   6.039   1.407
 2042TIP3    H1 6011   2.627   6.018   1.356
 2042TIP3    H2 6012   2.544   5.970   1.473
 2043TIP3   OH2 6013   3.369   6.126   1.191
 2043TIP3    H1 6014   3.387   6.096   1.280
 2043TIP3    H2 6015   3.453   6.122   1.146
 2044TIP3   OH2 6016   3.269   7.651   0.712
 2044TIP3    H1 6017   3.244   7.619   0.625
 2044TIP3    H2 6018   3.257   7.746   0.706
 2045TIP3   OH2 6019   3.863   6.913   0.237
 2045TIP3    H1 6020   3.860   6.869   0.322
 2045TIP3    H2 6021   3.929   6.982   0.248
 2046TIP3   OH2 6022   0.444   1.966   7.989
 2046TIP3    H1 6023   0.535   1.939   7.999
 2046TIP3    H2 6024   0.439   2.004   7.901
 2047TIP3   OH2 6025   4.089   6.408   0.327
 2047TIP3    H1 6026   4.075   6.494   0.289
 2047TIP3    H2 6027   4.029   6.404   0.401
 2048TIP3   OH2 6028   3.968   6.502   0.036
 2048TIP3    H1 6029   4.004   6.563   0.100
 2048TIP3    H2 6030   4.041   6.483  -0.022
 2049TIP3   OH2 6031   4.059   7.435   0.263
 2049TIP3    H1 6032   4.073   7.373   0.191
 2049TIP3    H2 6033   3.982   7.401   0.309
 2050TIP3   OH2 6034   4.416   6.067   0.037
 2050TIP3    H1 6035   4.404   5.980   0.077
 2050TIP3    H2 6036   4.346   6.120   0.075
 2051TIP3   OH2 6037   4.266   7.567   0.376
 2051TIP3    H1 6038   4.248   7.661   0.371
 2051TIP3    H2 6039   4.186   7.526   0.342
 2052TIP3   OH2 6040   3.910   7.107   0.491
 2052TIP3    H1 6041   3.917   7.166   0.566
 2052TIP3    H2 6042   3.832   7.054   0.509
 2053TIP3   OH2 6043   3.933   7.666   0.326
 2053TIP3    H1 6044   3.976   7.594   0.281
 2053TIP3    H2 6045   3.930   7.639   0.418
 2054TIP3   OH2 6046   3.616   7.198   0.394
 2054TIP3    H1 6047   3.550   7.183   0.327
 2054TIP3    H2 6048   3.638   7.111   0.428
 2055TIP3   OH2 6049   3.521   7.341   0.047
 2055TIP3    H1 6050   3.492   7.401  -0.022
 2055TIP3    H2 6051   3.566   7.397   0.110
 2056TIP3   OH2 6052   5.231   6.923   0.335
 2056TIP3    H1 6053   5.152   6.911   0.283
 2056TIP3    H2 6054   5.303   6.901   0.275
 2057TIP3   OH2 6055   3.825   7.374   0.391
 2057TIP3    H1 6056   3.852   7.384   0.483
 2057TIP3    H2 6057   3.754   7.310   0.393
 2058TIP3   OH2 6058   4.202   6.193   0.178
 2058TIP3    H1 6059   4.117   6.157   0.153
 2058TIP3    H2 6060   4.181   6.277   0.220
 2059TIP3   OH2 6061   4.763   6.276   0.346
 2059TIP3    H1 6062   4.831   6.260   0.412
 2059TIP3    H2 6063   4.683   6.239   0.384
 2060TIP3   OH2 6064   4.993   6.855   0.220
 2060TIP3    H1 6065   5.007   6.795   0.293
 2060TIP3    H2 6066   4.934   6.808   0.161
 2061TIP3   OH2 6067   4.067   6.664   0.235
 2061TIP3    H1 6068   3.999   6.721   0.271
 2061TIP3    H2 6069   4.121   6.723   0.182
 2062TIP3   OH2 6070   4.610   6.959   0.628
 2062TIP3    H1 6071   4.594   6.878   0.676
 2062TIP3    H2 6072   4.688   6.940   0.575
 2063TIP3   OH2 6073   3.884   6.730   0.449
 2063TIP3    H1 6074   3.960   6.784   0.472
 2063TIP3    H2 6075   3.904   6.644   0.487
 2064TIP3   OH2 6076   3.612   6.214   0.022
 2064TIP3    H1 6077   3.661   6.272   0.080
 2064TIP3    H2 6078   3.667   6.207  -0.056
 2065TIP3   OH2 6079   3.930   7.282   0.692
 2065TIP3    H1 6080   4.006   7.288   0.750
 2065TIP3    H2 6081   3.854   7.291   0.751
 2066TIP3   OH2 6082   4.455   6.601   0.193
 2066TIP3    H1 6083   4.442   6.694   0.210
 2066TIP3    H2 6084   4.550   6.588   0.202
 2067TIP3   OH2 6085   4.563   7.418   0.152
 2067TIP3    H1 6086   4.523   7.402   0.237
 2067TIP3    H2 6087   4.618   7.495   0.164
 2068TIP3   OH2 6088   3.679   6.965   0.530
 2068TIP3    H1 6089   3.691   6.917   0.611
 2068TIP3    H2 6090   3.616   6.914   0.480
 2069TIP3   OH2 6091   4.385   7.086   0.559
 2069TIP3    H1 6092   4.363   7.083   0.466
 2069TIP3    H2 6093   4.461   7.030   0.568
 2070TIP3   OH2 6094   3.928   6.449   0.548
 2070TIP3    H1 6095   3.837   6.468   0.570
 2070TIP3    H2 6096   3.967   6.422   0.631
 2071TIP3   OH2 6097   3.662   7.506   0.208
 2071TIP3    H1 6098   3.714   7.494   0.288
 2071TIP3    H2 6099   3.672   7.598   0.186
 2072TIP3   OH2 6100   4.700   6.531   0.279
 2072TIP3    H1 6101   4.785   6.568   0.255
 2072TIP3    H2 6102   4.719   6.441   0.303
 2073TIP3   OH2 6103   4.564   6.854   0.282
 2073TIP3    H1 6104   4.633   6.865   0.347
 2073TIP3    H2 6105   4.610   6.831   0.202
 2074TIP3   OH2 6106   3.945   6.101   0.154
 2074TIP3    H1 6107   3.910   6.074   0.069
 2074TIP3    H2 6108   3.935   6.024   0.210
 2075TIP3   OH2 6109   3.646   7.843   0.626
 2075TIP3    H1 6110   3.718   7.827   0.687
 2075TIP3    H2 6111   3.603   7.758   0.616
 2076TIP3   OH2 6112   4.107   7.838   0.683
 2076TIP3    H1 6113   4.189   7.886   0.676
 2076TIP3    H2 6114   4.063   7.852   0.599
 2077TIP3   OH2 6115   4.804   7.840   0.367
 2077TIP3    H1 6116   4.804   7.745   0.381
 2077TIP3    H2 6117   4.835   7.851   0.277
 2078TIP3   OH2 6118   3.717   7.286   0.860
 2078TIP3    H1 6119   3.698   7.206   0.908
 2078TIP3    H2 6120   3.648   7.292   0.794
 2079TIP3   OH2 6121   4.394   7.446   0.648
 2079TIP3    H1 6122   4.328   7.393   0.602
 2079TIP3    H2 6123   4.442   7.384   0.702
 2080TIP3   OH2 6124   3.912   6.992   0.815
 2080TIP3    H1 6125   3.984   7.010   0.755
 2080TIP3    H2 6126   3.928   7.048   0.890
 2081TIP3   OH2 6127   4.095   6.901   0.439
 2081TIP3    H1 6128   4.083   6.959   0.514
 2081TIP3    H2 6129   4.165   6.942   0.388
 2082TIP3   OH2 6130   4.815   7.320   0.781
 2082TIP3    H1 6131   4.844   7.342   0.692
 2082TIP3    H2 6132   4.721   7.304   0.772
 2083TIP3   OH2 6133   4.297   6.574   0.643
 2083TIP3    H1 6134   4.337   6.491   0.619
 2083TIP3    H2 6135   4.294   6.624   0.561
 2084TIP3   OH2 6136   4.356   6.417   0.372
 2084TIP3    H1 6137   4.383   6.487   0.313
 2084TIP3    H2 6138   4.261   6.412   0.362
 2085TIP3   OH2 6139   4.326   6.984   0.309
 2085TIP3    H1 6140   4.412   6.945   0.297
 2085TIP3    H2 6141   4.312   7.037   0.230
 2086TIP3   OH2 6142   4.903   7.003   0.720
 2086TIP3    H1 6143   4.988   6.960   0.725
 2086TIP3    H2 6144   4.912   7.065   0.647
 2087TIP3   OH2 6145   5.080   7.199   0.265
 2087TIP3    H1 6146   4.999   7.248   0.253
 2087TIP3    H2 6147   5.141   7.262   0.303
 2088TIP3   OH2 6148   4.216   6.775   0.811
 2088TIP3    H1 6149   4.144   6.733   0.859
 2088TIP3    H2 6150   4.245   6.709   0.749
 2089TIP3   OH2 6151   4.515   6.210   0.430
 2089TIP3    H1 6152   4.455   6.279   0.401
 2089TIP3    H2 6153   4.459   6.133   0.442
 2090TIP3   OH2 6154   4.574   6.717   0.737
 2090TIP3    H1 6155   4.512   6.687   0.804
 2090TIP3    H2 6156   4.543   6.678   0.656
 2091TIP3   OH2 6157   4.814   6.627   0.609
 2091TIP3    H1 6158   4.754   6.656   0.678
 2091TIP3    H2 6159   4.901   6.632   0.650
 2092TIP3   OH2 6160   5.124   6.613   0.738
 2092TIP3    H1 6161   5.140   6.518   0.737
 2092TIP3    H2 6162   5.115   6.635   0.831
 2093TIP3   OH2 6163   4.075   6.546   0.901
 2093TIP3    H1 6164   4.111   6.476   0.847
 2093TIP3    H2 6165   4.115   6.533   0.987
 2094TIP3   OH2 6166   4.504   6.171   0.742
 2094TIP3    H1 6167   4.571   6.103   0.745
 2094TIP3    H2 6168   4.542   6.240   0.687
 2095TIP3   OH2 6169   4.595   6.438   0.888
 2095TIP3    H1 6170   4.589   6.416   0.795
 2095TIP3    H2 6171   4.523   6.499   0.903
 2096TIP3   OH2 6172   5.107   7.664   0.418
 2096TIP3    H1 6173   5.123   7.664   0.513
 2096TIP3    H2 6174   5.194   7.678   0.380
 2097TIP3   OH2 6175   3.615   6.931   0.130
 2097TIP3    H1 6176   3.632   6.960   0.041
 2097TIP3    H2 6177   3.701   6.920   0.169
 2098TIP3   OH2 6178   3.827   6.614   0.802
 2098TIP3    H1 6179   3.917   6.610   0.834
 2098TIP3    H2 6180   3.785   6.537   0.840
 2099TIP3   OH2 6181   5.675   6.322   0.501
 2099TIP3    H1 6182   5.751   6.365   0.540
 2099TIP3    H2 6183   5.630   6.392   0.454
 2100TIP3   OH2 6184   3.800   6.333   0.187
 2100TIP3    H1 6185   3.858   6.257   0.186
 2100TIP3    H2 6186   3.849   6.401   0.142
 2101TIP3   OH2 6187   3.571   6.594   0.224
 2101TIP3    H1 6188   3.612   6.579   0.139
 2101TIP3    H2 6189   3.596   6.683   0.247
 2102TIP3   OH2 6190   5.567   6.550   0.393
 2102TIP3    H1 6191   5.473   6.564   0.402
 2102TIP3    H2 6192   5.599   6.629   0.349
 2103TIP3   OH2 6193   3.759   6.132   0.552
 2103TIP3    H1 6194   3.786   6.191   0.622
 2103TIP3    H2 6195   3.715   6.188   0.488
 2104TIP3   OH2 6196   3.768   7.568   0.698
 2104TIP3    H1 6197   3.679   7.565   0.666
 2104TIP3    H2 6198   3.759   7.571   0.794
 2105TIP3   OH2 6199   5.308   6.278   0.193
 2105TIP3    H1 6200   5.316   6.373   0.185
 2105TIP3    H2 6201   5.391   6.244   0.160
 2106TIP3   OH2 6202   3.638   8.047   0.089
 2106TIP3    H1 6203   3.595   8.091   0.016
 2106TIP3    H2 6204   3.568   8.033   0.153
 2107TIP3   OH2 6205   0.575   1.377   7.926
 2107TIP3    H1 6206   0.492   1.331   7.930
 2107TIP3    H2 6207   0.640   1.308   7.909
 2108TIP3   OH2 6208   4.082   6.272   0.756
 2108TIP3    H1 6209   4.053   6.211   0.824
 2108TIP3    H2 6210   4.173   6.290   0.777
 2109TIP3   OH2 6211   4.317   6.295   0.902
 2109TIP3    H1 6212   4.389   6.258   0.850
 2109TIP3    H2 6213   4.306   6.234   0.975
 2110TIP3   OH2 6214   5.164   6.333   0.726
 2110TIP3    H1 6215   5.142   6.317   0.817
 2110TIP3    H2 6216   5.260   6.331   0.723
 2111TIP3   OH2 6217   6.054   6.548   0.417
 2111TIP3    H1 6218   6.148   6.564   0.425
 2111TIP3    H2 6219   6.049   6.465   0.368
 2112TIP3   OH2 6220   1.740   7.824   1.198
 2112TIP3    H1 6221   1.790   7.744   1.179
 2112TIP3    H2 6222   1.682   7.833   1.122
 2113TIP3   OH2 6223   3.243   8.285   0.223
 2113TIP3    H1 6224   3.222   8.339   0.147
 2113TIP3    H2 6225   3.299   8.340   0.278
 2114TIP3   OH2 6226   3.007   8.015   0.250
 2114TIP3    H1 6227   2.931   8.062   0.284
 2114TIP3    H2 6228   3.037   8.069   0.177
 2115TIP3   OH2 6229   3.074   8.532   0.566
 2115TIP3    H1 6230   3.031   8.520   0.481
 2115TIP3    H2 6231   3.113   8.446   0.585
 2116TIP3   OH2 6232   2.651   7.883   0.506
 2116TIP3    H1 6233   2.720   7.859   0.568
 2116TIP3    H2 6234   2.597   7.946   0.554
 2117TIP3   OH2 6235   2.844   8.381   0.429
 2117TIP3    H1 6236   2.791   8.345   0.500
 2117TIP3    H2 6237   2.781   8.402   0.360
 2118TIP3   OH2 6238   2.610   8.564   0.769
 2118TIP3    H1 6239   2.571   8.477   0.771
 2118TIP3    H2 6240   2.703   8.548   0.751
 2119TIP3   OH2 6241   2.748   8.099   0.359
 2119TIP3    H1 6242   2.751   8.145   0.443
 2119TIP3    H2 6243   2.710   8.014   0.380
 2120TIP3   OH2 6244   3.091   8.259   0.457
 2120TIP3    H1 6245   3.002   8.295   0.448
 2120TIP3    H2 6246   3.129   8.267   0.370
 2121TIP3   OH2 6247   2.879   8.503   0.766
 2121TIP3    H1 6248   2.905   8.415   0.794
 2121TIP3    H2 6249   2.942   8.525   0.697
 2122TIP3   OH2 6250   2.362   7.790   0.646
 2122TIP3    H1 6251   2.364   7.880   0.614
 2122TIP3    H2 6252   2.433   7.746   0.598
 2123TIP3   OH2 6253   2.520   8.306   0.818
 2123TIP3    H1 6254   2.562   8.297   0.903
 2123TIP3    H2 6255   2.429   8.282   0.832
 2124TIP3   OH2 6256   2.724   8.226   0.629
 2124TIP3    H1 6257   2.647   8.246   0.682
 2124TIP3    H2 6258   2.796   8.219   0.692
 2125TIP3   OH2 6259   2.936   8.219   0.827
 2125TIP3    H1 6260   2.954   8.125   0.831
 2125TIP3    H2 6261   2.929   8.246   0.918
 2126TIP3   OH2 6262   2.033   8.266   1.086
 2126TIP3    H1 6263   1.987   8.222   1.014
 2126TIP3    H2 6264   2.046   8.198   1.151
 2127TIP3   OH2 6265   2.411   7.766   0.914
 2127TIP3    H1 6266   2.496   7.730   0.891
 2127TIP3    H2 6267   2.366   7.778   0.830
 2128TIP3   OH2 6268   2.497   8.014   1.013
 2128TIP3    H1 6269   2.467   7.934   0.972
 2128TIP3    H2 6270   2.424   8.076   1.003
 2129TIP3   OH2 6271   3.245   8.713   0.432
 2129TIP3    H1 6272   3.210   8.645   0.490
 2129TIP3    H2 6273   3.337   8.721   0.458
 2130TIP3   OH2 6274   3.081   8.559   0.273
 2130TIP3    H1 6275   3.133   8.532   0.197
 2130TIP3    H2 6276   3.133   8.627   0.314
 2131TIP3   OH2 6277   3.511   8.065   0.712
 2131TIP3    H1 6278   3.562   7.995   0.670
 2131TIP3    H2 6279   3.468   8.110   0.640
 2132TIP3   OH2 6280   3.342   8.164   0.521
 2132TIP3    H1 6281   3.253   8.198   0.527
 2132TIP3    H2 6282   3.337   8.096   0.454
 2133TIP3   OH2 6283   3.228   7.919   0.408
 2133TIP3    H1 6284   3.145   7.944   0.367
 2133TIP3    H2 6285   3.230   7.823   0.402
 2134TIP3   OH2 6286   1.909   7.755   0.918
 2134TIP3    H1 6287   1.912   7.698   0.995
 2134TIP3    H2 6288   1.968   7.827   0.938
 2135TIP3   OH2 6289   2.170   7.856   1.086
 2135TIP3    H1 6290   2.246   7.830   1.034
 2135TIP3    H2 6291   2.153   7.781   1.142
 2136TIP3   OH2 6292   3.013   7.951   0.837
 2136TIP3    H1 6293   3.030   7.921   0.926
 2136TIP3    H2 6294   3.098   7.942   0.793
 2137TIP3   OH2 6295   3.518   8.751   0.503
 2137TIP3    H1 6296   3.585   8.691   0.471
 2137TIP3    H2 6297   3.535   8.833   0.455
 2138TIP3   OH2 6298   3.813   8.688   0.381
 2138TIP3    H1 6299   3.813   8.600   0.343
 2138TIP3    H2 6300   3.885   8.732   0.336
 2139TIP3   OH2 6301   3.642   8.422   0.545
 2139TIP3    H1 6302   3.644   8.340   0.496
 2139TIP3    H2 6303   3.647   8.396   0.637
 2140TIP3   OH2 6304   4.213   8.261   0.507
 2140TIP3    H1 6305   4.152   8.237   0.438
 2140TIP3    H2 6306   4.202   8.355   0.518
 2141TIP3   OH2 6307   3.392   8.418   0.416
 2141TIP3    H1 6308   3.472   8.458   0.450
 2141TIP3    H2 6309   3.383   8.336   0.464
 2142TIP3   OH2 6310   3.390   8.044   0.211
 2142TIP3    H1 6311   3.333   7.983   0.259
 2142TIP3    H2 6312   3.336   8.122   0.197
 2143TIP3   OH2 6313   3.685   7.912   0.364
 2143TIP3    H1 6314   3.674   7.877   0.452
 2143TIP3    H2 6315   3.668   8.006   0.372
 2144TIP3   OH2 6316   3.862   8.090   0.634
 2144TIP3    H1 6317   3.947   8.107   0.674
 2144TIP3    H2 6318   3.836   8.004   0.668
 2145TIP3   OH2 6319   8.031   9.086   4.785
 2145TIP3    H1 6320   7.955   9.085   4.727
 2145TIP3    H2 6321   8.029   9.172   4.827
 2146TIP3   OH2 6322   1.748   0.349   4.790
 2146TIP3    H1 6323   1.792   0.311   4.866
 2146TIP3    H2 6324   1.659   0.365   4.820
 2147TIP3   OH2 6325   1.472   0.663   4.965
 2147TIP3    H1 6326   1.463   0.716   4.886
 2147TIP3    H2 6327   1.547   0.702   5.011
 2148TIP3   OH2 6328   1.777   0.045   4.866
 2148TIP3    H1 6329   1.718   0.036   4.940
 2148TIP3    H2 6330   1.720   0.044   4.789
 2149TIP3   OH2 6331   1.272   0.347   4.787
 2149TIP3    H1 6332   1.230   0.267   4.821
 2149TIP3    H2 6333   1.250   0.348   4.694
 2150TIP3   OH2 6334   1.268   0.166   5.023
 2150TIP3    H1 6335   1.179   0.147   5.052
 2150TIP3    H2 6336   1.319   0.171   5.104
 2151TIP3   OH2 6337   1.647   0.505   4.220
 2151TIP3    H1 6338   1.670   0.499   4.313
 2151TIP3    H2 6339   1.712   0.450   4.176
 2152TIP3   OH2 6340   1.732   0.463   4.490
 2152TIP3    H1 6341   1.656   0.437   4.541
 2152TIP3    H2 6342   1.801   0.401   4.516
 2153TIP3   OH2 6343   1.653   0.008   5.114
 2153TIP3    H1 6344   1.565  -0.021   5.140
 2153TIP3    H2 6345   1.649   0.103   5.120
 2154TIP3   OH2 6346   1.408   0.176   4.590
 2154TIP3    H1 6347   1.321   0.141   4.609
 2154TIP3    H2 6348   1.416   0.169   4.495
 2155TIP3   OH2 6349   8.295   8.886   5.015
 2155TIP3    H1 6350   8.314   8.798   4.983
 2155TIP3    H2 6351   8.282   8.939   4.936
 2156TIP3   OH2 6352   8.410   8.645   4.975
 2156TIP3    H1 6353   8.383   8.591   5.049
 2156TIP3    H2 6354   8.505   8.631   4.968
 2157TIP3   OH2 6355   1.112   0.534   4.893
 2157TIP3    H1 6356   1.181   0.487   4.848
 2157TIP3    H2 6357   1.134   0.527   4.986
 2158TIP3   OH2 6358   1.179   0.388   4.529
 2158TIP3    H1 6359   1.178   0.483   4.542
 2158TIP3    H2 6360   1.176   0.376   4.435
 2159TIP3   OH2 6361   1.504   0.393   4.913
 2159TIP3    H1 6362   1.425   0.382   4.860
 2159TIP3    H2 6363   1.502   0.486   4.938
 2160TIP3   OH2 6364   9.436   8.961   3.736
 2160TIP3    H1 6365   9.471   9.034   3.788
 2160TIP3    H2 6366   9.357   8.997   3.695
 2161TIP3   OH2 6367   9.414   8.958   4.076
 2161TIP3    H1 6368   9.459   8.944   4.160
 2161TIP3    H2 6369   9.370   8.875   4.058
 2162TIP3   OH2 6370   8.674   8.975   4.389
 2162TIP3    H1 6371   8.742   8.907   4.388
 2162TIP3    H2 6372   8.691   9.027   4.311
 2163TIP3   OH2 6373   3.156   0.026   3.793
 2163TIP3    H1 6374   3.138  -0.032   3.867
 2163TIP3    H2 6375   3.175   0.111   3.834
 2164TIP3   OH2 6376   2.100   0.077   4.236
 2164TIP3    H1 6377   2.166   0.012   4.210
 2164TIP3    H2 6378   2.130   0.110   4.320
 2165TIP3   OH2 6379   2.777   0.471   3.792
 2165TIP3    H1 6380   2.818   0.415   3.726
 2165TIP3    H2 6381   2.741   0.409   3.856
 2166TIP3   OH2 6382   9.231   9.170   4.126
 2166TIP3    H1 6383   9.274   9.094   4.088
 2166TIP3    H2 6384   9.303   9.228   4.153
 2167TIP3   OH2 6385   9.649   8.656   4.135
 2167TIP3    H1 6386   9.727   8.606   4.161
 2167TIP3    H2 6387   9.611   8.605   4.064
 2168TIP3   OH2 6388   0.354   8.626   4.368
 2168TIP3    H1 6389   0.311   8.704   4.332
 2168TIP3    H2 6390   0.437   8.660   4.403
 2169TIP3   OH2 6391   9.285   9.189   3.655
 2169TIP3    H1 6392   9.366   9.224   3.618
 2169TIP3    H2 6393   9.222   9.260   3.647
 2170TIP3   OH2 6394   9.079   9.116   4.350
 2170TIP3    H1 6395   9.025   9.194   4.364
 2170TIP3    H2 6396   9.136   9.139   4.277
 2171TIP3   OH2 6397   2.385   0.090   4.407
 2171TIP3    H1 6398   2.359   0.181   4.393
 2171TIP3    H2 6399   2.330   0.060   4.479
 2172TIP3   OH2 6400   3.190   0.267   3.932
 2172TIP3    H1 6401   3.105   0.260   3.975
 2172TIP3    H2 6402   3.187   0.351   3.886
 2173TIP3   OH2 6403   2.888   0.304   3.595
 2173TIP3    H1 6404   2.925   0.216   3.588
 2173TIP3    H2 6405   2.959   0.363   3.571
 2174TIP3   OH2 6406   2.995   0.053   3.572
 2174TIP3    H1 6407   3.036   0.016   3.493
 2174TIP3    H2 6408   3.061   0.041   3.641
 2175TIP3   OH2 6409   3.409   0.164   4.282
 2175TIP3    H1 6410   3.387   0.092   4.223
 2175TIP3    H2 6411   3.393   0.243   4.232
 2176TIP3   OH2 6412   0.318   9.089   4.161
 2176TIP3    H1 6413   0.231   9.129   4.155
 2176TIP3    H2 6414   0.351   9.091   4.071
 2177TIP3   OH2 6415   9.617   8.931   3.526
 2177TIP3    H1 6416   9.550   8.937   3.594
 2177TIP3    H2 6417   9.693   8.894   3.570
 2178TIP3   OH2 6418   9.816   8.942   4.427
 2178TIP3    H1 6419   9.811   9.022   4.479
 2178TIP3    H2 6420   9.739   8.944   4.371
 2179TIP3   OH2 6421   2.455   0.063   4.048
 2179TIP3    H1 6422   2.393  -0.010   4.059
 2179TIP3    H2 6423   2.541   0.022   4.058
 2180TIP3   OH2 6424   8.948   8.903   4.244
 2180TIP3    H1 6425   9.008   8.852   4.189
 2180TIP3    H2 6426   9.005   8.964   4.291
 2181TIP3   OH2 6427   2.962   0.263   4.075
 2181TIP3    H1 6428   2.932   0.344   4.116
 2181TIP3    H2 6429   2.937   0.195   4.137
 2182TIP3   OH2 6430   2.570   0.161   4.607
 2182TIP3    H1 6431   2.508   0.221   4.649
 2182TIP3    H2 6432   2.518   0.115   4.541
 2183TIP3   OH2 6433   8.887   8.949   4.617
 2183TIP3    H1 6434   8.922   9.036   4.598
 2183TIP3    H2 6435   8.795   8.963   4.635
 2184TIP3   OH2 6436   2.631   0.203   3.611
 2184TIP3    H1 6437   2.719   0.241   3.609
 2184TIP3    H2 6438   2.577   0.267   3.564
 2185TIP3   OH2 6439   2.387   0.359   4.673
 2185TIP3    H1 6440   2.386   0.374   4.579
 2185TIP3    H2 6441   2.296   0.370   4.700
 2186TIP3   OH2 6442   3.239   0.158   2.972
 2186TIP3    H1 6443   3.237   0.241   2.924
 2186TIP3    H2 6444   3.321   0.117   2.945
 2187TIP3   OH2 6445   8.441   9.171   4.566
 2187TIP3    H1 6446   8.428   9.161   4.471
 2187TIP3    H2 6447   8.365   9.130   4.605
 2188TIP3   OH2 6448   4.178   1.237   1.954
 2188TIP3    H1 6449   4.232   1.158   1.963
 2188TIP3    H2 6450   4.139   1.248   2.041
 2189TIP3   OH2 6451   3.638   0.521   4.352
 2189TIP3    H1 6452   3.644   0.426   4.363
 2189TIP3    H2 6453   3.557   0.545   4.397
 2190TIP3   OH2 6454   2.752   0.315   4.472
 2190TIP3    H1 6455   2.743   0.405   4.503
 2190TIP3    H2 6456   2.683   0.267   4.519
 2191TIP3   OH2 6457   2.517   0.410   3.455
 2191TIP3    H1 6458   2.445   0.389   3.395
 2191TIP3    H2 6459   2.502   0.502   3.479
 2192TIP3   OH2 6460   2.777   0.420   3.351
 2192TIP3    H1 6461   2.687   0.410   3.383
 2192TIP3    H2 6462   2.831   0.375   3.417
 2193TIP3   OH2 6463   0.298   8.861   4.629
 2193TIP3    H1 6464   0.202   8.862   4.631
 2193TIP3    H2 6465   0.320   8.779   4.586
 2194TIP3   OH2 6466   2.056   0.084   4.764
 2194TIP3    H1 6467   2.139   0.068   4.720
 2194TIP3    H2 6468   1.991   0.041   4.709
 2195TIP3   OH2 6469   9.809   8.792   4.657
 2195TIP3    H1 6470   9.778   8.701   4.653
 2195TIP3    H2 6471   9.802   8.822   4.566
 2196TIP3   OH2 6472   9.017   8.603   4.350
 2196TIP3    H1 6473   8.942   8.654   4.382
 2196TIP3    H2 6474   9.026   8.629   4.259
 2197TIP3   OH2 6475   9.576   8.947   4.730
 2197TIP3    H1 6476   9.549   8.892   4.804
 2197TIP3    H2 6477   9.657   8.908   4.699
 2198TIP3   OH2 6478   9.531   8.626   3.870
 2198TIP3    H1 6479   9.513   8.710   3.827
 2198TIP3    H2 6480   9.586   8.578   3.808
 2199TIP3   OH2 6481   8.704   8.565   4.662
 2199TIP3    H1 6482   8.698   8.592   4.753
 2199TIP3    H2 6483   8.652   8.485   4.657
 2200TIP3   OH2 6484   9.590   8.885   4.276
 2200TIP3    H1 6485   9.615   8.808   4.224
 2200TIP3    H2 6486   9.553   8.848   4.357
 2201TIP3   OH2 6487   3.358   0.862   4.442
 2201TIP3    H1 6488   3.355   0.870   4.347
 2201TIP3    H2 6489   3.439   0.907   4.467
 2202TIP3   OH2 6490   2.350   0.065   4.892
 2202TIP3    H1 6491   2.428   0.064   4.948
 2202TIP3    H2 6492   2.305   0.146   4.914
 2203TIP3   OH2 6493   9.338   8.670   4.065
 2203TIP3    H1 6494   9.401   8.642   3.999
 2203TIP3    H2 6495   9.358   8.616   4.142
 2204TIP3   OH2 6496   9.339   8.565   4.329
 2204TIP3    H1 6497   9.259   8.545   4.378
 2204TIP3    H2 6498   9.371   8.646   4.369
 2205TIP3   OH2 6499   0.078   9.209   4.101
 2205TIP3    H1 6500   0.113   9.261   4.028
 2205TIP3    H2 6501  -0.003   9.171   4.067
 2206TIP3   OH2 6502   2.866   0.042   4.508
 2206TIP3    H1 6503   2.926   0.051   4.582
 2206TIP3    H2 6504   2.819   0.125   4.505
 2207TIP3   OH2 6505   8.514   8.832   4.783
 2207TIP3    H1 6506   8.445   8.895   4.804
 2207TIP3    H2 6507   8.467   8.755   4.752
 2208TIP3   OH2 6508   9.319   9.035   4.813
 2208TIP3    H1 6509   9.271   8.952   4.813
 2208TIP3    H2 6510   9.395   9.019   4.757
 2209TIP3   OH2 6511   3.020   0.328   4.401
 2209TIP3    H1 6512   2.925   0.321   4.408
 2209TIP3    H2 6513   3.047   0.364   4.486
 2210TIP3   OH2 6514   3.656   0.245   4.367
 2210TIP3    H1 6515   3.562   0.228   4.360
 2210TIP3    H2 6516   3.692   0.214   4.283
 2211TIP3   OH2 6517   3.148   0.175   3.232
 2211TIP3    H1 6518   3.124   0.091   3.271
 2211TIP3    H2 6519   3.169   0.153   3.141
 2212TIP3   OH2 6520   9.651   9.083   3.997
 2212TIP3    H1 6521   9.562   9.058   4.024
 2212TIP3    H2 6522   9.692   9.001   3.970
 2213TIP3   OH2 6523   2.583   0.385   4.249
 2213TIP3    H1 6524   2.613   0.457   4.193
 2213TIP3    H2 6525   2.661   0.359   4.298
 2214TIP3   OH2 6526   2.928   0.038   4.238
 2214TIP3    H1 6527   2.913   0.036   4.333
 2214TIP3    H2 6528   3.014  -0.003   4.227
 2215TIP3   OH2 6529   3.167   0.552   4.270
 2215TIP3    H1 6530   3.091   0.494   4.279
 2215TIP3    H2 6531   3.144   0.611   4.199
 2216TIP3   OH2 6532   3.246   0.428   2.887
 2216TIP3    H1 6533   3.300   0.506   2.885
 2216TIP3    H2 6534   3.166   0.455   2.933
 2217TIP3   OH2 6535   9.648   9.155   3.362
 2217TIP3    H1 6536   9.621   9.074   3.406
 2217TIP3    H2 6537   9.735   9.134   3.326
 2218TIP3   OH2 6538   1.990   0.390   4.352
 2218TIP3    H1 6539   2.050   0.327   4.391
 2218TIP3    H2 6540   2.003   0.471   4.402
 2219TIP3   OH2 6541   9.505   8.770   4.503
 2219TIP3    H1 6542   9.472   8.851   4.542
 2219TIP3    H2 6543   9.486   8.703   4.569
 2220TIP3   OH2 6544   9.750   8.832   3.942
 2220TIP3    H1 6545   9.684   8.786   3.995
 2220TIP3    H2 6546   9.834   8.801   3.976
 2221TIP3   OH2 6547   3.206   0.534   3.859
 2221TIP3    H1 6548   3.163   0.579   3.786
 2221TIP3    H2 6549   3.300   0.547   3.844
 2222TIP3   OH2 6550   2.040   0.592   4.876
 2222TIP3    H1 6551   2.119   0.594   4.930
 2222TIP3    H2 6552   2.045   0.510   4.828
 2223TIP3   OH2 6553   2.484   0.482   4.904
 2223TIP3    H1 6554   2.579   0.469   4.907
 2223TIP3    H2 6555   2.456   0.439   4.823
 2224TIP3   OH2 6556   3.084   0.412   4.655
 2224TIP3    H1 6557   3.101   0.344   4.720
 2224TIP3    H2 6558   3.156   0.474   4.665
 2225TIP3   OH2 6559   2.121   0.038   5.088
 2225TIP3    H1 6560   2.137   0.019   4.995
 2225TIP3    H2 6561   2.038  -0.006   5.107
 2226TIP3   OH2 6562   2.716   0.066   4.822
 2226TIP3    H1 6563   2.669   0.084   4.741
 2226TIP3    H2 6564   2.744  -0.025   4.814
 2227TIP3   OH2 6565   3.182   0.104   4.433
 2227TIP3    H1 6566   3.262   0.129   4.387
 2227TIP3    H2 6567   3.121   0.176   4.417
 2228TIP3   OH2 6568   8.757   8.990   4.978
 2228TIP3    H1 6569   8.805   8.927   5.031
 2228TIP3    H2 6570   8.665   8.978   5.004
 2229TIP3   OH2 6571   9.126   8.841   4.545
 2229TIP3    H1 6572   9.041   8.880   4.565
 2229TIP3    H2 6573   9.186   8.915   4.541
 2230TIP3   OH2 6574   9.603   9.214   4.822
 2230TIP3    H1 6575   9.605   9.143   4.758
 2230TIP3    H2 6576   9.605   9.170   4.907
 2231TIP3   OH2 6577   9.410   8.602   4.688
 2231TIP3    H1 6578   9.330   8.566   4.651
 2231TIP3    H2 6579   9.380   8.661   4.758
 2232TIP3   OH2 6580   9.341   9.007   4.503
 2232TIP3    H1 6581   9.322   8.981   4.413
 2232TIP3    H2 6582   9.352   9.102   4.499
 2233TIP3   OH2 6583   0.041   8.914   4.908
 2233TIP3    H1 6584   0.038   8.861   4.828
 2233TIP3    H2 6585   0.091   8.992   4.883
 2234TIP3   OH2 6586   0.041   9.163   4.597
 2234TIP3    H1 6587  -0.016   9.228   4.556
 2234TIP3    H2 6588   0.128   9.181   4.560
 2235TIP3   OH2 6589   9.120   8.694   5.065
 2235TIP3    H1 6590   9.088   8.605   5.051
 2235TIP3    H2 6591   9.176   8.711   4.989
 2236TIP3   OH2 6592   9.506   8.778   4.930
 2236TIP3    H1 6593   9.496   8.797   5.024
 2236TIP3    H2 6594   9.539   8.688   4.926
 2237TIP3   OH2 6595   3.476   0.587   3.848
 2237TIP3    H1 6596   3.498   0.621   3.935
 2237TIP3    H2 6597   3.527   0.640   3.787
 2238TIP3   OH2 6598   3.494   0.621   4.130
 2238TIP3    H1 6599   3.445   0.540   4.121
 2238TIP3    H2 6600   3.563   0.601   4.193
 2239TIP3   OH2 6601   3.552   0.328   4.690
 2239TIP3    H1 6602   3.482   0.335   4.755
 2239TIP3    H2 6603   3.597   0.413   4.694
 2240TIP3   OH2 6604   0.104   9.087   3.292
 2240TIP3    H1 6605   0.167   9.153   3.264
 2240TIP3    H2 6606   0.146   9.044   3.367
 2241TIP3   OH2 6607   0.214   8.960   3.514
 2241TIP3    H1 6608   0.147   8.938   3.579
 2241TIP3    H2 6609   0.280   9.009   3.564
 2242TIP3   OH2 6610   3.532   0.108   3.945
 2242TIP3    H1 6611   3.572   0.037   3.894
 2242TIP3    H2 6612   3.533   0.183   3.887
 2243TIP3   OH2 6613   3.345   0.385   4.133
 2243TIP3    H1 6614   3.275   0.433   4.177
 2243TIP3    H2 6615   3.302   0.345   4.057
 2244TIP3   OH2 6616   0.029   8.823   3.679
 2244TIP3    H1 6617   0.071   8.738   3.681
 2244TIP3    H2 6618  -0.001   8.838   3.768
 2245TIP3   OH2 6619   0.288   9.213   4.488
 2245TIP3    H1 6620   0.362   9.153   4.476
 2245TIP3    H2 6621   0.291   9.270   4.411
 2246TIP3   OH2 6622   0.500   9.038   4.538
 2246TIP3    H1 6623   0.434   8.989   4.587
 2246TIP3    H2 6624   0.563   9.066   4.605
 2247TIP3   OH2 6625   0.169   8.722   4.052
 2247TIP3    H1 6626   0.243   8.751   3.997
 2247TIP3    H2 6627   0.194   8.748   4.141
 2248TIP3   OH2 6628   0.236   8.857   4.285
 2248TIP3    H1 6629   0.161   8.885   4.337
 2248TIP3    H2 6630   0.270   8.938   4.247
 2249TIP3   OH2 6631   3.082   0.466   3.506
 2249TIP3    H1 6632   3.119   0.471   3.418
 2249TIP3    H2 6633   3.094   0.554   3.542
 2250TIP3   OH2 6634   2.117   0.356   4.740
 2250TIP3    H1 6635   2.047   0.292   4.741
 2250TIP3    H2 6636   2.163   0.343   4.823
 2251TIP3   OH2 6637   2.362   0.368   4.403
 2251TIP3    H1 6638   2.310   0.440   4.369
 2251TIP3    H2 6639   2.443   0.369   4.351
 2252TIP3   OH2 6640   2.737   0.578   4.560
 2252TIP3    H1 6641   2.781   0.575   4.645
 2252TIP3    H2 6642   2.792   0.636   4.507
 2253TIP3   OH2 6643   2.914   0.737   4.417
 2253TIP3    H1 6644   2.973   0.688   4.360
 2253TIP3    H2 6645   2.971   0.792   4.470
 2254TIP3   OH2 6646   2.026   0.634   4.467
 2254TIP3    H1 6647   1.952   0.673   4.421
 2254TIP3    H2 6648   2.036   0.686   4.547
 2255TIP3   OH2 6649   2.241   0.590   4.306
 2255TIP3    H1 6650   2.167   0.609   4.363
 2255TIP3    H2 6651   2.208   0.606   4.217
 2256TIP3   OH2 6652   2.640   0.592   4.079
 2256TIP3    H1 6653   2.571   0.601   4.013
 2256TIP3    H2 6654   2.650   0.680   4.115
 2257TIP3   OH2 6655   2.904   0.532   4.140
 2257TIP3    H1 6656   2.812   0.548   4.118
 2257TIP3    H2 6657   2.953   0.582   4.074
 2258TIP3   OH2 6658   3.133   0.719   4.048
 2258TIP3    H1 6659   3.117   0.799   3.998
 2258TIP3    H2 6660   3.157   0.654   3.982
 2259TIP3   OH2 6661   1.877   0.364   4.114
 2259TIP3    H1 6662   1.919   0.388   4.197
 2259TIP3    H2 6663   1.949   0.334   4.059
 2260TIP3   OH2 6664   2.112   0.264   4.028
 2260TIP3    H1 6665   2.113   0.195   4.094
 2260TIP3    H2 6666   2.202   0.296   4.023
 2261TIP3   OH2 6667   2.384   0.326   4.059
 2261TIP3    H1 6668   2.407   0.236   4.036
 2261TIP3    H2 6669   2.446   0.350   4.128
 2262TIP3   OH2 6670   3.188   0.446   3.246
 2262TIP3    H1 6671   3.173   0.352   3.246
 2262TIP3    H2 6672   3.137   0.478   3.171
 2263TIP3   OH2 6673   3.385   0.587   4.444
 2263TIP3    H1 6674   3.312   0.561   4.387
 2263TIP3    H2 6675   3.376   0.682   4.453
 2264TIP3   OH2 6676   4.672  -0.004   3.223
 2264TIP3    H1 6677   4.649   0.085   3.194
 2264TIP3    H2 6678   4.607  -0.060   3.181
 2265TIP3   OH2 6679   1.377   9.220   3.594
 2265TIP3    H1 6680   1.430   9.210   3.674
 2265TIP3    H2 6681   1.339   9.134   3.579
 2266TIP3   OH2 6682   0.675   9.151   3.964
 2266TIP3    H1 6683   0.725   9.138   4.045
 2266TIP3    H2 6684   0.739   9.186   3.902
 2267TIP3   OH2 6685   4.938   0.277   3.291
 2267TIP3    H1 6686   4.914   0.222   3.366
 2267TIP3    H2 6687   4.958   0.363   3.329
 2268TIP3   OH2 6688   3.952   0.272   3.645
 2268TIP3    H1 6689   3.929   0.180   3.641
 2268TIP3    H2 6690   4.047   0.274   3.632
 2269TIP3   OH2 6691   0.285   8.735   3.380
 2269TIP3    H1 6692   0.264   8.817   3.424
 2269TIP3    H2 6693   0.202   8.709   3.338
 2270TIP3   OH2 6694   0.442   9.062   3.640
 2270TIP3    H1 6695   0.488   8.979   3.645
 2270TIP3    H2 6696   0.510   9.126   3.616
 2271TIP3   OH2 6697   4.605   0.701   3.299
 2271TIP3    H1 6698   4.624   0.639   3.228
 2271TIP3    H2 6699   4.623   0.652   3.379
 2272TIP3   OH2 6700   4.469   0.205   3.614
 2272TIP3    H1 6701   4.509   0.122   3.587
 2272TIP3    H2 6702   4.543   0.263   3.631
 2273TIP3   OH2 6703   1.667   8.964   3.637
 2273TIP3    H1 6704   1.686   8.871   3.635
 2273TIP3    H2 6705   1.621   8.982   3.555
 2274TIP3   OH2 6706   0.543   8.809   3.690
 2274TIP3    H1 6707   0.627   8.787   3.732
 2274TIP3    H2 6708   0.548   8.768   3.604
 2275TIP3   OH2 6709   1.004   9.072   3.578
 2275TIP3    H1 6710   1.095   9.041   3.576
 2275TIP3    H2 6711   0.952   8.994   3.559
 2276TIP3   OH2 6712   2.189   8.847   3.801
 2276TIP3    H1 6713   2.230   8.933   3.793
 2276TIP3    H2 6714   2.247   8.787   3.755
 2277TIP3   OH2 6715   4.551   0.190   3.066
 2277TIP3    H1 6716   4.523   0.168   2.977
 2277TIP3    H2 6717   4.507   0.272   3.086
 2278TIP3   OH2 6718   4.330   0.151   3.849
 2278TIP3    H1 6719   4.267   0.220   3.869
 2278TIP3    H2 6720   4.371   0.178   3.767
 2279TIP3   OH2 6721   0.802   8.746   3.750
 2279TIP3    H1 6722   0.835   8.810   3.814
 2279TIP3    H2 6723   0.858   8.758   3.673
 2280TIP3   OH2 6724   4.146   0.335   3.929
 2280TIP3    H1 6725   4.134   0.425   3.897
 2280TIP3    H2 6726   4.066   0.317   3.979
 2281TIP3   OH2 6727   3.545   0.043   3.199
 2281TIP3    H1 6728   3.503   0.061   3.115
 2281TIP3    H2 6729   3.563   0.130   3.235
 2282TIP3   OH2 6730   4.972   0.529   3.420
 2282TIP3    H1 6731   4.882   0.528   3.453
 2282TIP3    H2 6732   4.979   0.612   3.373
 2283TIP3   OH2 6733   4.681   0.559   3.071
 2283TIP3    H1 6734   4.733   0.479   3.063
 2283TIP3    H2 6735   4.741   0.630   3.048
 2284TIP3   OH2 6736   4.841   0.343   3.038
 2284TIP3    H1 6737   4.835   0.266   2.981
 2284TIP3    H2 6738   4.877   0.310   3.120
 2285TIP3   OH2 6739   5.213   0.431   3.784
 2285TIP3    H1 6740   5.187   0.359   3.727
 2285TIP3    H2 6741   5.193   0.510   3.733
 2286TIP3   OH2 6742   1.243   9.084   3.055
 2286TIP3    H1 6743   1.153   9.113   3.044
 2286TIP3    H2 6744   1.281   9.091   2.967
 2287TIP3   OH2 6745   1.182   8.901   2.759
 2287TIP3    H1 6746   1.255   8.957   2.787
 2287TIP3    H2 6747   1.198   8.817   2.802
 2288TIP3   OH2 6748   5.388   0.112   3.617
 2288TIP3    H1 6749   5.300   0.149   3.619
 2288TIP3    H2 6750   5.422   0.136   3.530
 2289TIP3   OH2 6751   1.588   9.172   3.007
 2289TIP3    H1 6752   1.541   9.189   3.089
 2289TIP3    H2 6753   1.668   9.127   3.034
 2290TIP3   OH2 6754   5.055   0.051   3.867
 2290TIP3    H1 6755   5.041   0.143   3.887
 2290TIP3    H2 6756   4.969   0.018   3.842
 2291TIP3   OH2 6757   0.804   9.168   3.389
 2291TIP3    H1 6758   0.764   9.099   3.336
 2291TIP3    H2 6759   0.877   9.126   3.433
 2292TIP3   OH2 6760   4.214   0.308   3.549
 2292TIP3    H1 6761   4.191   0.299   3.457
 2292TIP3    H2 6762   4.302   0.272   3.556
 2293TIP3   OH2 6763   0.884   9.194   3.787
 2293TIP3    H1 6764   0.929   9.155   3.711
 2293TIP3    H2 6765   0.945   9.261   3.818
 2294TIP3   OH2 6766   4.722   0.542   3.530
 2294TIP3    H1 6767   4.716   0.617   3.590
 2294TIP3    H2 6768   4.713   0.465   3.587
 2295TIP3   OH2 6769   4.349   0.429   4.093
 2295TIP3    H1 6770   4.288   0.487   4.138
 2295TIP3    H2 6771   4.293   0.376   4.035
 2296TIP3   OH2 6772   1.410   9.049   2.835
 2296TIP3    H1 6773   1.473   9.093   2.892
 2296TIP3    H2 6774   1.433   9.078   2.747
 2297TIP3   OH2 6775   4.069   0.017   4.230
 2297TIP3    H1 6776   4.081   0.107   4.260
 2297TIP3    H2 6777   3.980  -0.007   4.258
 2298TIP3   OH2 6778   4.431   0.441   3.087
 2298TIP3    H1 6779   4.516   0.487   3.088
 2298TIP3    H2 6780   4.372   0.502   3.042
 2299TIP3   OH2 6781   4.140   0.586   4.181
 2299TIP3    H1 6782   4.120   0.599   4.088
 2299TIP3    H2 6783   4.055   0.574   4.223
 2300TIP3   OH2 6784   0.670   8.992   3.218
 2300TIP3    H1 6785   0.612   9.056   3.175
 2300TIP3    H2 6786   0.617   8.913   3.226
 2301TIP3   OH2 6787   5.025   0.368   2.448
 2301TIP3    H1 6788   5.018   0.461   2.426
 2301TIP3    H2 6789   5.115   0.345   2.426
 2302TIP3   OH2 6790   3.739   0.138   4.131
 2302TIP3    H1 6791   3.667   0.130   4.069
 2302TIP3    H2 6792   3.772   0.048   4.141
 2303TIP3   OH2 6793   3.582   0.335   3.794
 2303TIP3    H1 6794   3.674   0.359   3.804
 2303TIP3    H2 6795   3.533   0.413   3.819
 2304TIP3   OH2 6796   5.442   0.809   3.832
 2304TIP3    H1 6797   5.449   0.714   3.837
 2304TIP3    H2 6798   5.361   0.829   3.880
 2305TIP3   OH2 6799   4.547   0.563   3.956
 2305TIP3    H1 6800   4.540   0.654   3.986
 2305TIP3    H2 6801   4.478   0.517   4.005
 2306TIP3   OH2 6802   4.316   0.669   2.915
 2306TIP3    H1 6803   4.273   0.649   2.832
 2306TIP3    H2 6804   4.280   0.754   2.940
 2307TIP3   OH2 6805   3.762   0.527   3.293
 2307TIP3    H1 6806   3.807   0.519   3.377
 2307TIP3    H2 6807   3.712   0.445   3.285
 2308TIP3   OH2 6808   4.521   0.606   2.555
 2308TIP3    H1 6809   4.570   0.529   2.525
 2308TIP3    H2 6810   4.556   0.623   2.643
 2309TIP3   OH2 6811   4.573   0.655   2.821
 2309TIP3    H1 6812   4.485   0.656   2.860
 2309TIP3    H2 6813   4.629   0.616   2.888
 2310TIP3   OH2 6814   2.039   9.204   4.040
 2310TIP3    H1 6815   1.969   9.251   3.995
 2310TIP3    H2 6816   2.020   9.111   4.024
 2311TIP3   OH2 6817   3.927   0.339   4.098
 2311TIP3    H1 6818   3.977   0.332   4.180
 2311TIP3    H2 6819   3.860   0.271   4.106
 2312TIP3   OH2 6820   1.760   9.123   4.095
 2312TIP3    H1 6821   1.742   9.031   4.078
 2312TIP3    H2 6822   1.778   9.160   4.008
 2313TIP3   OH2 6823   1.488   9.106   2.585
 2313TIP3    H1 6824   1.445   9.088   2.502
 2313TIP3    H2 6825   1.573   9.144   2.562
 2314TIP3   OH2 6826   0.902   8.945   3.908
 2314TIP3    H1 6827   0.877   8.953   4.001
 2314TIP3    H2 6828   0.873   9.027   3.869
 2315TIP3   OH2 6829   0.826   8.882   3.500
 2315TIP3    H1 6830   0.751   8.825   3.484
 2315TIP3    H2 6831   0.881   8.872   3.423
 2316TIP3   OH2 6832   1.458   8.941   3.152
 2316TIP3    H1 6833   1.381   8.983   3.114
 2316TIP3    H2 6834   1.456   8.852   3.117
 2317TIP3   OH2 6835   4.824   0.043   4.200
 2317TIP3    H1 6836   4.798  -0.023   4.264
 2317TIP3    H2 6837   4.895   0.001   4.151
 2318TIP3   OH2 6838   1.525   9.046   3.394
 2318TIP3    H1 6839   1.483   9.129   3.372
 2318TIP3    H2 6840   1.519   8.994   3.315
 2319TIP3   OH2 6841   0.834   8.988   4.174
 2319TIP3    H1 6842   0.810   9.072   4.215
 2319TIP3    H2 6843   0.762   8.930   4.195
 2320TIP3   OH2 6844   1.554   9.158   3.798
 2320TIP3    H1 6845   1.595   9.084   3.753
 2320TIP3    H2 6846   1.518   9.120   3.878
 2321TIP3   OH2 6847   0.630   8.687   3.455
 2321TIP3    H1 6848   0.608   8.716   3.366
 2321TIP3    H2 6849   0.571   8.613   3.472
 2322TIP3   OH2 6850   0.891   8.609   3.207
 2322TIP3    H1 6851   0.986   8.621   3.207
 2322TIP3    H2 6852   0.858   8.674   3.146
 2323TIP3   OH2 6853   0.751   8.758   3.023
 2323TIP3    H1 6854   0.661   8.778   3.047
 2323TIP3    H2 6855   0.745   8.695   2.952
 2324TIP3   OH2 6856   5.150   1.127   3.924
 2324TIP3    H1 6857   5.146   1.141   3.829
 2324TIP3    H2 6858   5.230   1.173   3.951
 2325TIP3   OH2 6859   4.077   0.269   4.337
 2325TIP3    H1 6860   4.160   0.282   4.383
 2325TIP3    H2 6861   4.011   0.275   4.407
 2326TIP3   OH2 6862   1.256   8.943   3.608
 2326TIP3    H1 6863   1.205   8.868   3.577
 2326TIP3    H2 6864   1.271   8.925   3.701
 2327TIP3   OH2 6865   1.280   8.850   3.869
 2327TIP3    H1 6866   1.201   8.796   3.878
 2327TIP3    H2 6867   1.332   8.828   3.946
 2328TIP3   OH2 6868   1.000   9.199   2.978
 2328TIP3    H1 6869   0.925   9.142   2.959
 2328TIP3    H2 6870   0.973   9.248   3.056
 2329TIP3   OH2 6871   5.148   0.250   3.592
 2329TIP3    H1 6872   5.184   0.303   3.521
 2329TIP3    H2 6873   5.063   0.220   3.558
 2330TIP3   OH2 6874   4.713   0.324   3.962
 2330TIP3    H1 6875   4.665   0.246   3.989
 2330TIP3    H2 6876   4.653   0.396   3.981
 2331TIP3   OH2 6877   1.449   8.777   2.861
 2331TIP3    H1 6878   1.532   8.760   2.906
 2331TIP3    H2 6879   1.447   8.872   2.851
 2332TIP3   OH2 6880   0.663   9.231   3.617
 2332TIP3    H1 6881   0.702   9.217   3.531
 2332TIP3    H2 6882   0.735   9.214   3.679
 2333TIP3   OH2 6883   4.421   0.118   2.820
 2333TIP3    H1 6884   4.375   0.202   2.819
 2333TIP3    H2 6885   4.366   0.061   2.875
 2334TIP3   OH2 6886   0.563   9.134   4.282
 2334TIP3    H1 6887   0.561   9.109   4.374
 2334TIP3    H2 6888   0.481   9.102   4.246
 2335TIP3   OH2 6889   4.557   0.090   4.290
 2335TIP3    H1 6890   4.482   0.048   4.247
 2335TIP3    H2 6891   4.628   0.084   4.226
 2336TIP3   OH2 6892   4.818   0.607   3.875
 2336TIP3    H1 6893   4.726   0.581   3.879
 2336TIP3    H2 6894   4.840   0.629   3.965
 2337TIP3   OH2 6895   1.990   8.806   2.881
 2337TIP3    H1 6896   2.013   8.725   2.834
 2337TIP3    H2 6897   1.933   8.853   2.820
 2338TIP3   OH2 6898   5.461   0.537   3.841
 2338TIP3    H1 6899   5.369   0.512   3.847
 2338TIP3    H2 6900   5.492   0.497   3.760
 2339TIP3   OH2 6901   4.938   0.442   2.705
 2339TIP3    H1 6902   4.916   0.369   2.764
 2339TIP3    H2 6903   4.965   0.400   2.624
 2340TIP3   OH2 6904   4.900   0.116   3.531
 2340TIP3    H1 6905   4.814   0.074   3.526
 2340TIP3    H2 6906   4.961   0.044   3.551
 2341TIP3   OH2 6907   4.080   0.325   3.304
 2341TIP3    H1 6908   4.075   0.402   3.247
 2341TIP3    H2 6909   3.988   0.303   3.323
 2342TIP3   OH2 6910   0.429   8.888   2.981
 2342TIP3    H1 6911   0.442   8.980   3.003
 2342TIP3    H2 6912   0.434   8.843   3.065
 2343TIP3   OH2 6913   4.164   0.092   3.187
 2343TIP3    H1 6914   4.155   0.181   3.221
 2343TIP3    H2 6915   4.132   0.036   3.259
 2344TIP3   OH2 6916   4.363   0.638   3.751
 2344TIP3    H1 6917   4.397   0.712   3.702
 2344TIP3    H2 6918   4.438   0.605   3.800
 2345TIP3   OH2 6919   3.995   0.540   3.149
 2345TIP3    H1 6920   3.908   0.549   3.188
 2345TIP3    H2 6921   4.032   0.629   3.153
 2346TIP3   OH2 6922   4.719   0.310   3.685
 2346TIP3    H1 6923   4.725   0.312   3.781
 2346TIP3    H2 6924   4.789   0.250   3.658
 2347TIP3   OH2 6925   4.697   0.182   2.622
 2347TIP3    H1 6926   4.747   0.169   2.703
 2347TIP3    H2 6927   4.619   0.127   2.634
 2348TIP3   OH2 6928   4.972   0.804   3.762
 2348TIP3    H1 6929   4.905   0.740   3.787
 2348TIP3    H2 6930   4.932   0.854   3.691
 2349TIP3   OH2 6931   5.010   0.639   2.408
 2349TIP3    H1 6932   5.023   0.698   2.334
 2349TIP3    H2 6933   4.941   0.681   2.460
 2350TIP3   OH2 6934   4.872   0.142   2.832
 2350TIP3    H1 6935   4.860   0.068   2.891
 2350TIP3    H2 6936   4.965   0.143   2.812
 2351TIP3   OH2 6937   3.791   0.535   3.916
 2351TIP3    H1 6938   3.841   0.475   3.972
 2351TIP3    H2 6939   3.808   0.622   3.953
 2352TIP3   OH2 6940   4.057   0.139   2.603
 2352TIP3    H1 6941   4.069   0.048   2.577
 2352TIP3    H2 6942   4.041   0.135   2.697
 2353TIP3   OH2 6943   4.008   0.159   2.876
 2353TIP3    H1 6944   4.066   0.124   2.944
 2353TIP3    H2 6945   4.010   0.254   2.889
 2354TIP3   OH2 6946   0.483   9.141   3.086
 2354TIP3    H1 6947   0.416   9.184   3.139
 2354TIP3    H2 6948   0.494   9.198   3.010
 2355TIP3   OH2 6949   4.276   0.346   2.820
 2355TIP3    H1 6950   4.193   0.368   2.863
 2355TIP3    H2 6951   4.295   0.423   2.766
 2356TIP3   OH2 6952   1.164   8.594   3.249
 2356TIP3    H1 6953   1.204   8.676   3.276
 2356TIP3    H2 6954   1.215   8.526   3.294
 2357TIP3   OH2 6955   1.458   9.044   4.029
 2357TIP3    H1 6956   1.384   9.031   4.089
 2357TIP3    H2 6957   1.529   8.994   4.069
 2358TIP3   OH2 6958   4.025   0.429   2.902
 2358TIP3    H1 6959   4.003   0.500   2.842
 2358TIP3    H2 6960   4.013   0.468   2.989
 2359TIP3   OH2 6961   1.798   9.083   3.365
 2359TIP3    H1 6962   1.705   9.074   3.385
 2359TIP3    H2 6963   1.837   9.117   3.446
 2360TIP3   OH2 6964   3.750   0.056   2.855
 2360TIP3    H1 6965   3.825   0.115   2.865
 2360TIP3    H2 6966   3.780  -0.011   2.794
 2361TIP3   OH2 6967   5.000   0.793   3.336
 2361TIP3    H1 6968   4.957   0.847   3.270
 2361TIP3    H2 6969   5.093   0.807   3.322
 2362TIP3   OH2 6970   3.590   0.308   3.276
 2362TIP3    H1 6971   3.542   0.344   3.351
 2362TIP3    H2 6972   3.548   0.346   3.199
 2363TIP3   OH2 6973   3.798   0.838   4.333
 2363TIP3    H1 6974   3.877   0.850   4.386
 2363TIP3    H2 6975   3.798   0.745   4.311
 2364TIP3   OH2 6976   4.250   0.743   4.379
 2364TIP3    H1 6977   4.341   0.717   4.388
 2364TIP3    H2 6978   4.217   0.691   4.305
 2365TIP3   OH2 6979   4.219   0.341   2.507
 2365TIP3    H1 6980   4.171   0.270   2.549
 2365TIP3    H2 6981   4.292   0.298   2.463
 2366TIP3   OH2 6982   4.870   0.685   4.133
 2366TIP3    H1 6983   4.883   0.620   4.202
 2366TIP3    H2 6984   4.943   0.746   4.144
 2367TIP3   OH2 6985   4.643   0.386   2.452
 2367TIP3    H1 6986   4.673   0.323   2.517
 2367TIP3    H2 6987   4.711   0.384   2.384
 2368TIP3   OH2 6988   3.878   0.253   4.530
 2368TIP3    H1 6989   3.905   0.161   4.538
 2368TIP3    H2 6990   3.792   0.249   4.488
 2369TIP3   OH2 6991   0.631   9.112   2.722
 2369TIP3    H1 6992   0.675   9.086   2.802
 2369TIP3    H2 6993   0.698   9.103   2.654
 2370TIP3   OH2 6994   4.502   0.357   4.308
 2370TIP3    H1 6995   4.459   0.372   4.223
 2370TIP3    H2 6996   4.537   0.268   4.302
 2371TIP3   OH2 6997   4.445   0.035   2.561
 2371TIP3    H1 6998   4.426   0.058   2.652
 2371TIP3    H2 6999   4.424  -0.058   2.554
 2372TIP3   OH2 7000   4.985   0.307   3.933
 2372TIP3    H1 7001   5.021   0.388   3.897
 2372TIP3    H2 7002   4.892   0.326   3.947
 2373TIP3   OH2 7003   0.730   9.243   4.543
 2373TIP3    H1 7004   0.814   9.216   4.506
 2373TIP3    H2 7005   0.747   9.254   4.637
 2374TIP3   OH2 7006   0.784   9.035   2.940
 2374TIP3    H1 7007   0.760   8.994   3.022
 2374TIP3    H2 7008   0.818   8.963   2.886
 2375TIP3   OH2 7009   1.071   9.190   4.195
 2375TIP3    H1 7010   0.980   9.218   4.200
 2375TIP3    H2 7011   1.085   9.170   4.102
 2376TIP3   OH2 7012   0.909   8.860   2.770
 2376TIP3    H1 7013   0.899   8.805   2.692
 2376TIP3    H2 7014   1.001   8.884   2.771
 2377TIP3   OH2 7015   4.886   0.261   4.349
 2377TIP3    H1 7016   4.869   0.202   4.275
 2377TIP3    H2 7017   4.876   0.205   4.426
 2378TIP3   OH2 7018   1.729   9.146   2.449
 2378TIP3    H1 7019   1.715   9.095   2.369
 2378TIP3    H2 7020   1.694   9.232   2.429
 2379TIP3   OH2 7021   1.263   8.995   4.223
 2379TIP3    H1 7022   1.217   8.923   4.266
 2379TIP3    H2 7023   1.196   9.061   4.207
 2380TIP3   OH2 7024   4.559   0.098   3.996
 2380TIP3    H1 7025   4.583   0.007   3.981
 2380TIP3    H2 7026   4.476   0.109   3.950
 2381TIP3   OH2 7027   5.136   0.202   4.140
 2381TIP3    H1 7028   5.060   0.232   4.090
 2381TIP3    H2 7029   5.211   0.228   4.086
 2382TIP3   OH2 7030   0.989   9.155   4.496
 2382TIP3    H1 7031   0.995   9.064   4.525
 2382TIP3    H2 7032   1.043   9.159   4.417
 2383TIP3   OH2 7033   1.481   9.080   4.369
 2383TIP3    H1 7034   1.489   9.023   4.446
 2383TIP3    H2 7035   1.403   9.049   4.324
 2384TIP3   OH2 7036   3.999   0.611   2.701
 2384TIP3    H1 7037   4.093   0.608   2.682
 2384TIP3    H2 7038   3.963   0.672   2.637
 2385TIP3   OH2 7039   3.483   0.038   2.921
 2385TIP3    H1 7040   3.572   0.057   2.891
 2385TIP3    H2 7041   3.471  -0.055   2.902
 2386TIP3   OH2 7042   3.387   0.605   3.344
 2386TIP3    H1 7043   3.322   0.551   3.299
 2386TIP3    H2 7044   3.427   0.546   3.408
 2387TIP3   OH2 7045   3.524   0.442   3.521
 2387TIP3    H1 7046   3.509   0.373   3.586
 2387TIP3    H2 7047   3.579   0.506   3.567
 2388TIP3   OH2 7048   5.270   0.846   3.326
 2388TIP3    H1 7049   5.290   0.876   3.415
 2388TIP3    H2 7050   5.327   0.898   3.269
 2389TIP3   OH2 7051   5.282   0.880   3.606
 2389TIP3    H1 7052   5.238   0.795   3.603
 2389TIP3    H2 7053   5.353   0.867   3.669
 2390TIP3   OH2 7054   5.348   0.583   4.175
 2390TIP3    H1 7055   5.271   0.590   4.231
 2390TIP3    H2 7056   5.391   0.668   4.181
 2391TIP3   OH2 7057   5.142   0.139   2.790
 2391TIP3    H1 7058   5.206   0.205   2.763
 2391TIP3    H2 7059   5.185   0.093   2.863
 2392TIP3   OH2 7060   1.999   9.236   2.987
 2392TIP3    H1 7061   1.940   9.185   3.043
 2392TIP3    H2 7062   2.064   9.271   3.047
 2393TIP3   OH2 7063   5.322   0.381   3.425
 2393TIP3    H1 7064   5.367   0.311   3.379
 2393TIP3    H2 7065   5.328   0.456   3.366
 2394TIP3   OH2 7066   5.141   0.639   3.618
 2394TIP3    H1 7067   5.074   0.689   3.664
 2394TIP3    H2 7068   5.095   0.597   3.545
 2395TIP3   OH2 7069   1.951   9.205   2.591
 2395TIP3    H1 7070   1.875   9.197   2.533
 2395TIP3    H2 7071   1.925   9.270   2.656
 2396TIP3   OH2 7072   1.830   8.742   2.477
 2396TIP3    H1 7073   1.743   8.781   2.474
 2396TIP3    H2 7074   1.875   8.790   2.546
 2397TIP3   OH2 7075   1.823   9.048   3.102
 2397TIP3    H1 7076   1.843   8.955   3.097
 2397TIP3    H2 7077   1.819   9.068   3.195
 2398TIP3   OH2 7078   0.416   9.109   3.904
 2398TIP3    H1 7079   0.413   9.101   3.809
 2398TIP3    H2 7080   0.508   9.125   3.924
 2399TIP3   OH2 7081   5.340   0.280   3.983
 2399TIP3    H1 7082   5.420   0.241   3.947
 2399TIP3    H2 7083   5.305   0.334   3.912
 2400TIP3   OH2 7084   5.546   0.097   4.021
 2400TIP3    H1 7085   5.459   0.058   4.036
 2400TIP3    H2 7086   5.606   0.023   4.026
 2401TIP3   OH2 7087   1.679   8.731   3.011
 2401TIP3    H1 7088   1.735   8.665   3.051
 2401TIP3    H2 7089   1.710   8.737   2.920
 2402TIP3   OH2 7090   2.026   8.919   3.578
 2402TIP3    H1 7091   2.064   8.995   3.535
 2402TIP3    H2 7092   2.078   8.908   3.658
 2403TIP3   OH2 7093   2.142   9.126   3.773
 2403TIP3    H1 7094   2.052   9.099   3.791
 2403TIP3    H2 7095   2.133   9.199   3.712
 2404TIP3   OH2 7096   0.371   8.832   3.904
 2404TIP3    H1 7097   0.422   8.816   3.824
 2404TIP3    H2 7098   0.374   8.927   3.916
 2405TIP3   OH2 7099   4.826   0.764   2.976
 2405TIP3    H1 7100   4.879   0.749   2.898
 2405TIP3    H2 7101   4.872   0.835   3.022
 2406TIP3   OH2 7102   3.908   0.568   4.339
 2406TIP3    H1 7103   3.817   0.540   4.339
 2406TIP3    H2 7104   3.936   0.557   4.430
 2407TIP3   OH2 7105   4.134   0.610   3.901
 2407TIP3    H1 7106   4.084   0.685   3.868
 2407TIP3    H2 7107   4.219   0.616   3.856
 2408TIP3   OH2 7108   4.527   0.829   4.038
 2408TIP3    H1 7109   4.566   0.825   4.126
 2408TIP3    H2 7110   4.588   0.883   3.987
 2409TIP3   OH2 7111   4.716   0.985   3.911
 2409TIP3    H1 7112   4.774   0.930   3.859
 2409TIP3    H2 7113   4.775   1.039   3.964
 2410TIP3   OH2 7114   3.792   0.836   3.952
 2410TIP3    H1 7115   3.699   0.851   3.933
 2410TIP3    H2 7116   3.814   0.906   4.014
 2411TIP3   OH2 7117   4.022   0.837   3.799
 2411TIP3    H1 7118   3.937   0.839   3.844
 2411TIP3    H2 7119   4.000   0.857   3.708
 2412TIP3   OH2 7120   4.434   0.852   3.592
 2412TIP3    H1 7121   4.364   0.860   3.527
 2412TIP3    H2 7122   4.443   0.940   3.628
 2413TIP3   OH2 7123   4.698   0.794   3.641
 2413TIP3    H1 7124   4.607   0.812   3.618
 2413TIP3    H2 7125   4.748   0.858   3.591
 2414TIP3   OH2 7126   4.899   0.957   3.535
 2414TIP3    H1 7127   4.901   1.043   3.495
 2414TIP3    H2 7128   4.931   0.898   3.466
 2415TIP3   OH2 7129   3.701   0.616   3.666
 2415TIP3    H1 7130   3.728   0.594   3.755
 2415TIP3    H2 7131   3.773   0.586   3.611
 2416TIP3   OH2 7132   3.908   0.512   3.526
 2416TIP3    H1 7133   3.917   0.428   3.570
 2416TIP3    H2 7134   3.995   0.550   3.528
 2417TIP3   OH2 7135   4.176   0.588   3.549
 2417TIP3    H1 7136   4.193   0.495   3.535
 2417TIP3    H2 7137   4.234   0.612   3.622
 2418TIP3   OH2 7138   3.484   0.415   3.047
 2418TIP3    H1 7139   3.400   0.375   3.021
 2418TIP3    H2 7140   3.478   0.505   3.018
 2419TIP3   OH2 7141   4.266   0.571   2.647
 2419TIP3    H1 7142   4.349   0.602   2.612
 2419TIP3    H2 7143   4.242   0.497   2.591
 2420TIP3   OH2 7144   4.971   0.710   2.746
 2420TIP3    H1 7145   4.964   0.615   2.738
 2420TIP3    H2 7146   4.925   0.744   2.669
 2421TIP3   OH2 7147   3.579   0.394   2.714
 2421TIP3    H1 7148   3.576   0.393   2.809
 2421TIP3    H2 7149   3.663   0.353   2.692
 2422TIP3   OH2 7150   5.188   0.855   3.930
 2422TIP3    H1 7151   5.116   0.824   3.875
 2422TIP3    H2 7152   5.175   0.949   3.937
 2423TIP3   OH2 7153   6.461   0.261   2.700
 2423TIP3    H1 7154   6.430   0.348   2.675
 2423TIP3    H2 7155   6.398   0.201   2.660
 2424TIP3   OH2 7156   6.419   0.243   3.072
 2424TIP3    H1 7157   6.481   0.239   3.145
 2424TIP3    H2 7158   6.372   0.160   3.075
 2425TIP3   OH2 7159   5.729   0.174   3.438
 2425TIP3    H1 7160   5.769   0.122   3.508
 2425TIP3    H2 7161   5.804   0.206   3.387
 2426TIP3   OH2 7162   6.731   0.559   2.766
 2426TIP3    H1 7163   6.706   0.496   2.833
 2426TIP3    H2 7164   6.753   0.639   2.814
 2427TIP3   OH2 7165   5.741   0.529   3.134
 2427TIP3    H1 7166   5.719   0.436   3.127
 2427TIP3    H2 7167   5.836   0.532   3.122
 2428TIP3   OH2 7168   2.161   9.028   2.907
 2428TIP3    H1 7169   2.116   9.111   2.925
 2428TIP3    H2 7170   2.091   8.963   2.903
 2429TIP3   OH2 7171   5.505   0.073   3.109
 2429TIP3    H1 7172   5.555  -0.005   3.136
 2429TIP3    H2 7173   5.572   0.137   3.085
 2430TIP3   OH2 7174   6.393   0.973   2.798
 2430TIP3    H1 7175   6.425   0.941   2.714
 2430TIP3    H2 7176   6.413   0.903   2.860
 2431TIP3   OH2 7177   6.258   0.470   3.096
 2431TIP3    H1 7178   6.296   0.387   3.067
 2431TIP3    H2 7179   6.334   0.525   3.115
 2432TIP3   OH2 7180   3.450   9.228   3.131
 2432TIP3    H1 7181   3.528   9.212   3.185
 2432TIP3    H2 7182   3.468   9.183   3.048
 2433TIP3   OH2 7183   2.341   9.085   3.228
 2433TIP3    H1 7184   2.435   9.066   3.224
 2433TIP3    H2 7185   2.300   9.010   3.186
 2434TIP3   OH2 7186   6.064   0.091   3.061
 2434TIP3    H1 7187   6.151   0.055   3.077
 2434TIP3    H2 7188   6.010   0.015   3.043
 2435TIP3   OH2 7189   4.042   9.113   3.323
 2435TIP3    H1 7190   4.039   9.188   3.264
 2435TIP3    H2 7191   4.121   9.065   3.298
 2436TIP3   OH2 7192   6.334   0.460   2.560
 2436TIP3    H1 7193   6.312   0.443   2.469
 2436TIP3    H2 7194   6.309   0.551   2.575
 2437TIP3   OH2 7195   6.122   0.412   3.330
 2437TIP3    H1 7196   6.059   0.481   3.350
 2437TIP3    H2 7197   6.163   0.440   3.248
 2438TIP3   OH2 7198   2.599   9.004   3.254
 2438TIP3    H1 7199   2.637   9.075   3.305
 2438TIP3    H2 7200   2.668   8.978   3.193
 2439TIP3   OH2 7201   5.939   0.594   3.414
 2439TIP3    H1 7202   5.928   0.684   3.384
 2439TIP3    H2 7203   5.860   0.576   3.466
 2440TIP3   OH2 7204   5.331   0.302   2.674
 2440TIP3    H1 7205   5.302   0.316   2.584
 2440TIP3    H2 7206   5.354   0.389   2.706
 2441TIP3   OH2 7207   6.768   0.805   2.905
 2441TIP3    H1 7208   6.679   0.798   2.938
 2441TIP3    H2 7209   6.768   0.883   2.851
 2442TIP3   OH2 7210   6.504   0.880   2.555
 2442TIP3    H1 7211   6.559   0.803   2.543
 2442TIP3    H2 7212   6.564   0.954   2.546
 2443TIP3   OH2 7213   6.631   0.639   2.521
 2443TIP3    H1 7214   6.628   0.562   2.464
 2443TIP3    H2 7215   6.667   0.606   2.603
 2444TIP3   OH2 7216   7.018   0.670   3.258
 2444TIP3    H1 7217   6.985   0.600   3.201
 2444TIP3    H2 7218   6.998   0.751   3.211
 2445TIP3   OH2 7219   6.319   0.095   2.529
 2445TIP3    H1 7220   6.227   0.121   2.519
 2445TIP3    H2 7221   6.355   0.098   2.440
 2446TIP3   OH2 7222   2.989   9.159   2.190
 2446TIP3    H1 7223   3.060   9.193   2.244
 2446TIP3    H2 7224   3.023   9.079   2.152
 2447TIP3   OH2 7225   7.193   0.369   3.100
 2447TIP3    H1 7226   7.099   0.384   3.100
 2447TIP3    H2 7227   7.220   0.385   3.009
 2448TIP3   OH2 7228   6.634   0.190   2.495
 2448TIP3    H1 7229   6.588   0.214   2.575
 2448TIP3    H2 7230   6.721   0.163   2.526
 2449TIP3   OH2 7231   6.820   0.284   3.374
 2449TIP3    H1 7232   6.813   0.379   3.379
 2449TIP3    H2 7233   6.737   0.255   3.337
 2450TIP3   OH2 7234   5.874   0.196   2.873
 2450TIP3    H1 7235   5.838   0.125   2.819
 2450TIP3    H2 7236   5.947   0.156   2.920
 2451TIP3   OH2 7237   6.002   0.566   3.036
 2451TIP3    H1 7238   5.981   0.557   2.943
 2451TIP3    H2 7239   6.091   0.532   3.044
 2452TIP3   OH2 7240   5.945   0.215   3.268
 2452TIP3    H1 7241   5.989   0.178   3.192
 2452TIP3    H2 7242   6.005   0.283   3.299
 2453TIP3   OH2 7243   6.520   0.793   3.018
 2453TIP3    H1 7244   6.512   0.869   3.077
 2453TIP3    H2 7245   6.510   0.717   3.075
 2454TIP3   OH2 7246   6.145   0.688   3.576
 2454TIP3    H1 7247   6.085   0.747   3.621
 2454TIP3    H2 7248   6.088   0.635   3.519
 2455TIP3   OH2 7249   6.486   0.072   2.296
 2455TIP3    H1 7250   6.544   0.109   2.363
 2455TIP3    H2 7251   6.486   0.137   2.226
 2456TIP3   OH2 7252   5.871   0.275   3.717
 2456TIP3    H1 7253   5.880   0.367   3.743
 2456TIP3    H2 7254   5.779   0.254   3.737
 2457TIP3   OH2 7255   6.263   0.726   2.568
 2457TIP3    H1 7256   6.343   0.778   2.572
 2457TIP3    H2 7257   6.200   0.781   2.522
 2458TIP3   OH2 7258   5.939   0.846   3.667
 2458TIP3    H1 7259   5.914   0.857   3.575
 2458TIP3    H2 7260   5.857   0.829   3.713
 2459TIP3   OH2 7261   5.753   0.020   2.696
 2459TIP3    H1 7262   5.686   0.076   2.658
 2459TIP3    H2 7263   5.712  -0.066   2.704
 2460TIP3   OH2 7264   6.789   0.628   1.936
 2460TIP3    H1 7265   6.791   0.722   1.919
 2460TIP3    H2 7266   6.850   0.590   1.873
 2461TIP3   OH2 7267   5.531   0.407   3.614
 2461TIP3    H1 7268   5.459   0.395   3.551
 2461TIP3    H2 7269   5.562   0.318   3.632
 2462TIP3   OH2 7270   5.388   0.595   3.265
 2462TIP3    H1 7271   5.483   0.610   3.272
 2462TIP3    H2 7272   5.349   0.676   3.297
 2463TIP3   OH2 7273   7.240   1.064   3.318
 2463TIP3    H1 7274   7.247   0.969   3.325
 2463TIP3    H2 7275   7.158   1.085   3.363
 2464TIP3   OH2 7276   6.345   0.821   3.443
 2464TIP3    H1 7277   6.338   0.912   3.472
 2464TIP3    H2 7278   6.275   0.776   3.491
 2465TIP3   OH2 7279   6.123   0.910   2.405
 2465TIP3    H1 7280   6.083   0.892   2.320
 2465TIP3    H2 7281   6.089   0.997   2.429
 2466TIP3   OH2 7282   5.555   0.781   2.778
 2466TIP3    H1 7283   5.602   0.773   2.861
 2466TIP3    H2 7284   5.508   0.698   2.769
 2467TIP3   OH2 7285   6.323   0.850   2.040
 2467TIP3    H1 7286   6.374   0.776   2.006
 2467TIP3    H2 7287   6.360   0.868   2.126
 2468TIP3   OH2 7288   6.380   0.906   2.305
 2468TIP3    H1 7289   6.292   0.905   2.345
 2468TIP3    H2 7290   6.439   0.887   2.378
 2469TIP3   OH2 7291   7.130   0.213   3.448
 2469TIP3    H1 7292   7.088   0.299   3.445
 2469TIP3    H2 7293   7.072   0.159   3.502
 2470TIP3   OH2 7294   5.722   0.603   3.585
 2470TIP3    H1 7295   5.771   0.596   3.667
 2470TIP3    H2 7296   5.656   0.534   3.591
 2471TIP3   OH2 7297   6.913   0.140   3.594
 2471TIP3    H1 7298   6.857   0.065   3.613
 2471TIP3    H2 7299   6.858   0.198   3.541
 2472TIP3   OH2 7300   2.707   9.211   3.392
 2472TIP3    H1 7301   2.664   9.216   3.478
 2472TIP3    H2 7302   2.680   9.291   3.347
 2473TIP3   OH2 7303   2.614   9.147   2.986
 2473TIP3    H1 7304   2.551   9.075   2.983
 2473TIP3    H2 7305   2.670   9.132   2.909
 2474TIP3   OH2 7306   3.255   9.183   2.648
 2474TIP3    H1 7307   3.187   9.243   2.618
 2474TIP3    H2 7308   3.294   9.149   2.568
 2475TIP3   OH2 7309   6.578   0.284   3.700
 2475TIP3    H1 7310   6.624   0.228   3.763
 2475TIP3    H2 7311   6.575   0.232   3.620
 2476TIP3   OH2 7312   5.846   0.007   3.628
 2476TIP3    H1 7313   5.843   0.079   3.691
 2476TIP3    H2 7314   5.804  -0.066   3.673
 2477TIP3   OH2 7315   6.589   0.180   3.276
 2477TIP3    H1 7316   6.629   0.111   3.223
 2477TIP3    H2 7317   6.565   0.137   3.358
 2478TIP3   OH2 7318   2.426   8.942   2.977
 2478TIP3    H1 7319   2.356   9.002   2.949
 2478TIP3    H2 7320   2.385   8.856   2.978
 2479TIP3   OH2 7321   2.718   8.867   2.683
 2479TIP3    H1 7322   2.809   8.895   2.684
 2479TIP3    H2 7323   2.674   8.929   2.625
 2480TIP3   OH2 7324   2.551   9.010   2.519
 2480TIP3    H1 7325   2.466   9.019   2.563
 2480TIP3    H2 7326   2.533   8.951   2.446
 2481TIP3   OH2 7327   6.946   1.381   3.408
 2481TIP3    H1 7328   6.940   1.396   3.314
 2481TIP3    H2 7329   7.024   1.430   3.435
 2482TIP3   OH2 7330   5.874   0.528   3.823
 2482TIP3    H1 7331   5.957   0.542   3.870
 2482TIP3    H2 7332   5.807   0.531   3.891
 2483TIP3   OH2 7333   3.045   9.224   3.122
 2483TIP3    H1 7334   3.064   9.150   3.064
 2483TIP3    H2 7335   3.062   9.190   3.210
 2484TIP3   OH2 7336   3.090   9.104   3.377
 2484TIP3    H1 7337   3.011   9.051   3.388
 2484TIP3    H2 7338   3.147   9.076   3.448
 2485TIP3   OH2 7339   6.074   0.210   2.454
 2485TIP3    H1 7340   5.999   0.155   2.430
 2485TIP3    H2 7341   6.042   0.262   2.528
 2486TIP3   OH2 7342   6.930   0.487   3.072
 2486TIP3    H1 7343   6.972   0.537   3.002
 2486TIP3    H2 7344   6.850   0.452   3.032
 2487TIP3   OH2 7345   6.502   0.575   3.453
 2487TIP3    H1 7346   6.450   0.499   3.482
 2487TIP3    H2 7347   6.447   0.650   3.475
 2488TIP3   OH2 7348   3.320   9.062   2.410
 2488TIP3    H1 7349   3.400   9.029   2.369
 2488TIP3    H2 7350   3.292   9.135   2.355
 2489TIP3   OH2 7351   5.723   0.249   3.098
 2489TIP3    H1 7352   5.766   0.237   3.013
 2489TIP3    H2 7353   5.791   0.232   3.162
 2490TIP3   OH2 7354   6.229   0.379   2.300
 2490TIP3    H1 7355   6.177   0.459   2.303
 2490TIP3    H2 7356   6.180   0.316   2.352
 2491TIP3   OH2 7357   5.619   0.176   3.765
 2491TIP3    H1 7358   5.615   0.157   3.858
 2491TIP3    H2 7359   5.544   0.129   3.727
 2492TIP3   OH2 7360   6.323   0.340   3.795
 2492TIP3    H1 7361   6.260   0.287   3.745
 2492TIP3    H2 7362   6.407   0.324   3.752
 2493TIP3   OH2 7363   6.619   0.856   3.361
 2493TIP3    H1 7364   6.525   0.835   3.364
 2493TIP3    H2 7365   6.641   0.883   3.450
 2494TIP3   OH2 7366   7.260   0.789   3.334
 2494TIP3    H1 7367   7.168   0.762   3.341
 2494TIP3    H2 7368   7.289   0.754   3.250
 2495TIP3   OH2 7369   6.716   0.697   2.198
 2495TIP3    H1 7370   6.710   0.627   2.263
 2495TIP3    H2 7371   6.747   0.653   2.119
 2496TIP3   OH2 7372   6.688   0.360   2.965
 2496TIP3    H1 7373   6.596   0.335   2.966
 2496TIP3    H2 7374   6.732   0.288   2.920
 2497TIP3   OH2 7375   5.883   0.583   2.785
 2497TIP3    H1 7376   5.876   0.661   2.730
 2497TIP3    H2 7377   5.792   0.553   2.795
 2498TIP3   OH2 7378   2.191   9.159   2.472
 2498TIP3    H1 7379   2.250   9.228   2.502
 2498TIP3    H2 7380   2.108   9.177   2.517
 2499TIP3   OH2 7381   5.951   0.349   2.653
 2499TIP3    H1 7382   5.957   0.437   2.691
 2499TIP3    H2 7383   5.926   0.293   2.726
 2500TIP3   OH2 7384   6.157   0.891   3.239
 2500TIP3    H1 7385   6.191   0.965   3.188
 2500TIP3    H2 7386   6.233   0.859   3.287
 2501TIP3   OH2 7387   5.788   0.797   2.633
 2501TIP3    H1 7388   5.701   0.803   2.672
 2501TIP3    H2 7389   5.821   0.887   2.634
 2502TIP3   OH2 7390   6.509   0.564   3.177
 2502TIP3    H1 7391   6.510   0.565   3.273
 2502TIP3    H2 7392   6.576   0.500   3.154
 2503TIP3   OH2 7393   6.475   0.416   2.144
 2503TIP3    H1 7394   6.536   0.427   2.216
 2503TIP3    H2 7395   6.389   0.414   2.186
 2504TIP3   OH2 7396   6.769   1.060   3.242
 2504TIP3    H1 7397   6.700   0.997   3.266
 2504TIP3    H2 7398   6.732   1.108   3.168
 2505TIP3   OH2 7399   6.825   0.907   1.882
 2505TIP3    H1 7400   6.876   0.986   1.863
 2505TIP3    H2 7401   6.743   0.940   1.919
 2506TIP3   OH2 7402   6.661   0.419   2.344
 2506TIP3    H1 7403   6.647   0.344   2.401
 2506TIP3    H2 7404   6.751   0.409   2.313
 2507TIP3   OH2 7405   5.583   0.799   3.404
 2507TIP3    H1 7406   5.633   0.740   3.460
 2507TIP3    H2 7407   5.600   0.886   3.440
 2508TIP3   OH2 7408   5.843   0.419   2.111
 2508TIP3    H1 7409   5.861   0.331   2.078
 2508TIP3    H2 7410   5.836   0.408   2.206
 2509TIP3   OH2 7411   5.799   0.419   2.386
 2509TIP3    H1 7412   5.856   0.391   2.458
 2509TIP3    H2 7413   5.804   0.514   2.388
 2510TIP3   OH2 7414   5.549   0.156   2.579
 2510TIP3    H1 7415   5.477   0.197   2.629
 2510TIP3    H2 7416   5.559   0.212   2.502
 2511TIP3   OH2 7417   6.073   0.599   2.309
 2511TIP3    H1 7418   5.988   0.623   2.346
 2511TIP3    H2 7419   6.100   0.676   2.259
 2512TIP3   OH2 7420   3.000   8.885   2.737
 2512TIP3    H1 7421   3.088   8.874   2.702
 2512TIP3    H2 7422   3.007   8.960   2.796
 2513TIP3   OH2 7423   6.550   0.067   3.523
 2513TIP3    H1 7424   6.480   0.048   3.585
 2513TIP3    H2 7425   6.605  -0.011   3.523
 2514TIP3   OH2 7426   5.821   0.690   2.383
 2514TIP3    H1 7427   5.800   0.760   2.321
 2514TIP3    H2 7428   5.811   0.731   2.469
 2515TIP3   OH2 7429   6.830   0.131   2.870
 2515TIP3    H1 7430   6.783   0.049   2.886
 2515TIP3    H2 7431   6.881   0.146   2.950
 2516TIP3   OH2 7432   5.551   0.305   2.344
 2516TIP3    H1 7433   5.625   0.364   2.360
 2516TIP3    H2 7434   5.585   0.239   2.284
 2517TIP3   OH2 7435   2.137   8.877   2.510
 2517TIP3    H1 7436   2.200   8.942   2.541
 2517TIP3    H2 7437   2.110   8.909   2.424
 2518TIP3   OH2 7438   6.774   1.058   2.786
 2518TIP3    H1 7439   6.731   1.098   2.711
 2518TIP3    H2 7440   6.867   1.073   2.772
 2519TIP3   OH2 7441   5.379   0.564   2.754
 2519TIP3    H1 7442   5.338   0.601   2.832
 2519TIP3    H2 7443   5.333   0.607   2.681
 2520TIP3   OH2 7444   5.580   1.092   3.821
 2520TIP3    H1 7445   5.663   1.092   3.869
 2520TIP3    H2 7446   5.559   0.999   3.810
 2521TIP3   OH2 7447   6.045   1.003   3.866
 2521TIP3    H1 7448   6.137   0.978   3.874
 2521TIP3    H2 7449   6.012   0.951   3.792
 2522TIP3   OH2 7450   6.008   0.610   1.999
 2522TIP3    H1 7451   5.960   0.541   2.044
 2522TIP3    H2 7452   6.084   0.565   1.961
 2523TIP3   OH2 7453   6.667   0.944   3.619
 2523TIP3    H1 7454   6.680   0.880   3.689
 2523TIP3    H2 7455   6.739   1.006   3.629
 2524TIP3   OH2 7456   6.458   0.638   1.932
 2524TIP3    H1 7457   6.504   0.576   1.989
 2524TIP3    H2 7458   6.513   0.645   1.854
 2525TIP3   OH2 7459   5.674   0.513   4.014
 2525TIP3    H1 7460   5.684   0.420   4.031
 2525TIP3    H2 7461   5.591   0.519   3.965
 2526TIP3   OH2 7462   5.686   0.112   2.205
 2526TIP3    H1 7463   5.736   0.086   2.282
 2526TIP3    H2 7464   5.751   0.125   2.136
 2527TIP3   OH2 7465   6.291   0.613   3.794
 2527TIP3    H1 7466   6.249   0.630   3.709
 2527TIP3    H2 7467   6.318   0.521   3.790
 2528TIP3   OH2 7468   6.167   0.337   2.031
 2528TIP3    H1 7469   6.184   0.345   2.125
 2528TIP3    H2 7470   6.154   0.244   2.017
 2529TIP3   OH2 7471   6.765   0.556   3.384
 2529TIP3    H1 7472   6.794   0.636   3.341
 2529TIP3    H2 7473   6.676   0.575   3.412
 2530TIP3   OH2 7474   5.822   0.256   4.013
 2530TIP3    H1 7475   5.913   0.248   3.984
 2530TIP3    H2 7476   5.828   0.301   4.098
 2531TIP3   OH2 7477   5.854   0.041   2.413
 2531TIP3    H1 7478   5.836   0.011   2.502
 2531TIP3    H2 7479   5.893  -0.034   2.369
 2532TIP3   OH2 7480   6.116   0.158   3.707
 2532TIP3    H1 7481   6.032   0.205   3.705
 2532TIP3    H2 7482   6.141   0.150   3.615
 2533TIP3   OH2 7483   2.732   9.084   2.277
 2533TIP3    H1 7484   2.725   8.996   2.238
 2533TIP3    H2 7485   2.816   9.117   2.245
 2534TIP3   OH2 7486   6.668   0.521   3.813
 2534TIP3    H1 7487   6.637   0.463   3.744
 2534TIP3    H2 7488   6.675   0.464   3.890
 2535TIP3   OH2 7489   3.095   9.248   3.711
 2535TIP3    H1 7490   3.086   9.160   3.749
 2535TIP3    H2 7491   3.005   9.274   3.691
 2536TIP3   OH2 7492   6.338   0.353   3.488
 2536TIP3    H1 7493   6.346   0.258   3.475
 2536TIP3    H2 7494   6.260   0.378   3.438
 2537TIP3   OH2 7495   6.952   0.112   3.930
 2537TIP3    H1 7496   6.876   0.099   3.873
 2537TIP3    H2 7497   6.924   0.179   3.992
 2538TIP3   OH2 7498   6.922   0.490   3.597
 2538TIP3    H1 7499   6.851   0.517   3.538
 2538TIP3    H2 7500   7.001   0.498   3.544
 2539TIP3   OH2 7501   6.096   0.181   4.005
 2539TIP3    H1 7502   6.060   0.094   4.019
 2539TIP3    H2 7503   6.126   0.181   3.915
 2540TIP3   OH2 7504   6.474   0.090   3.947
 2540TIP3    H1 7505   6.506   0.006   3.978
 2540TIP3    H2 7506   6.436   0.071   3.861
 2541TIP3   OH2 7507   5.807   0.897   2.200
 2541TIP3    H1 7508   5.899   0.883   2.179
 2541TIP3    H2 7509   5.772   0.944   2.124
 2542TIP3   OH2 7510   5.283   0.285   2.393
 2542TIP3    H1 7511   5.376   0.304   2.377
 2542TIP3    H2 7512   5.269   0.198   2.356
 2543TIP3   OH2 7513   5.178   0.863   2.838
 2543TIP3    H1 7514   5.114   0.809   2.793
 2543TIP3    H2 7515   5.223   0.802   2.897
 2544TIP3   OH2 7516   5.324   0.698   3.004
 2544TIP3    H1 7517   5.318   0.629   3.071
 2544TIP3    H2 7518   5.377   0.766   3.045
 2545TIP3   OH2 7519   7.050   1.102   2.810
 2545TIP3    H1 7520   7.067   1.131   2.900
 2545TIP3    H2 7521   7.106   1.158   2.756
 2546TIP3   OH2 7522   7.074   1.133   3.090
 2546TIP3    H1 7523   7.031   1.047   3.089
 2546TIP3    H2 7524   7.148   1.122   3.151
 2547TIP3   OH2 7525   7.145   0.832   3.668
 2547TIP3    H1 7526   7.069   0.844   3.725
 2547TIP3    H2 7527   7.190   0.917   3.669
 2548TIP3   OH2 7528   6.919   0.385   2.272
 2548TIP3    H1 7529   6.984   0.448   2.241
 2548TIP3    H2 7530   6.968   0.321   2.322
 2549TIP3   OH2 7531   7.063   0.222   2.438
 2549TIP3    H1 7532   6.998   0.182   2.497
 2549TIP3    H2 7533   7.129   0.259   2.497
 2550TIP3   OH2 7534   7.119   0.619   2.914
 2550TIP3    H1 7535   7.166   0.555   2.861
 2550TIP3    H2 7536   7.119   0.699   2.860
 2551TIP3   OH2 7537   6.940   0.888   3.109
 2551TIP3    H1 7538   6.874   0.939   3.156
 2551TIP3    H2 7539   6.893   0.853   3.033
 2552TIP3   OH2 7540   6.874   0.101   2.600
 2552TIP3    H1 7541   6.886   0.007   2.589
 2552TIP3    H2 7542   6.862   0.113   2.695
 2553TIP3   OH2 7543   5.474   0.165   3.362
 2553TIP3    H1 7544   5.473   0.143   3.269
 2553TIP3    H2 7545   5.566   0.173   3.384
 2554TIP3   OH2 7546   7.148   0.505   3.437
 2554TIP3    H1 7547   7.229   0.485   3.392
 2554TIP3    H2 7548   7.102   0.564   3.378
 2555TIP3   OH2 7549   7.380   0.309   3.467
 2555TIP3    H1 7550   7.292   0.273   3.467
 2555TIP3    H2 7551   7.395   0.336   3.558
 2556TIP3   OH2 7552   3.836   9.178   3.032
 2556TIP3    H1 7553   3.855   9.250   2.971
 2556TIP3    H2 7554   3.858   9.213   3.118
 2557TIP3   OH2 7555   7.231   0.115   3.212
 2557TIP3    H1 7556   7.196   0.140   3.297
 2557TIP3    H2 7557   7.216   0.192   3.156
 2558TIP3   OH2 7558   2.121   9.124   3.413
 2558TIP3    H1 7559   2.192   9.151   3.355
 2558TIP3    H2 7560   2.088   9.207   3.449
 2559TIP3   OH2 7561   5.718   0.816   3.833
 2559TIP3    H1 7562   5.624   0.802   3.827
 2559TIP3    H2 7563   5.739   0.811   3.926
 2560TIP3   OH2 7564   5.927   0.867   3.387
 2560TIP3    H1 7565   5.879   0.943   3.354
 2560TIP3    H2 7566   6.012   0.872   3.343
 2561TIP3   OH2 7567   6.324   1.087   3.526
 2561TIP3    H1 7568   6.364   1.084   3.613
 2561TIP3    H2 7569   6.384   1.141   3.474
 2562TIP3   OH2 7570   6.511   1.241   3.394
 2562TIP3    H1 7571   6.567   1.189   3.338
 2562TIP3    H2 7572   6.571   1.293   3.447
 2563TIP3   OH2 7573   5.589   1.091   3.441
 2563TIP3    H1 7574   5.498   1.110   3.418
 2563TIP3    H2 7575   5.612   1.159   3.504
 2564TIP3   OH2 7576   5.817   1.095   3.286
 2564TIP3    H1 7577   5.734   1.097   3.333
 2564TIP3    H2 7578   5.795   1.116   3.196
 2565TIP3   OH2 7579   6.229   1.103   3.079
 2565TIP3    H1 7580   6.169   1.113   3.005
 2565TIP3    H2 7581   6.240   1.191   3.114
 2566TIP3   OH2 7582   6.496   1.047   3.128
 2566TIP3    H1 7583   6.405   1.063   3.104
 2566TIP3    H2 7584   6.546   1.105   3.071
 2567TIP3   OH2 7585   6.696   1.203   3.008
 2567TIP3    H1 7586   6.692   1.293   2.975
 2567TIP3    H2 7587   6.718   1.151   2.931
 2568TIP3   OH2 7588   5.498   0.878   3.152
 2568TIP3    H1 7589   5.526   0.856   3.241
 2568TIP3    H2 7590   5.569   0.847   3.096
 2569TIP3   OH2 7591   5.701   0.768   3.011
 2569TIP3    H1 7592   5.710   0.684   3.055
 2569TIP3    H2 7593   5.789   0.807   3.013
 2570TIP3   OH2 7594   5.969   0.845   3.037
 2570TIP3    H1 7595   5.985   0.752   3.023
 2570TIP3    H2 7596   6.027   0.869   3.110
 2571TIP3   OH2 7597   5.258   0.677   2.535
 2571TIP3    H1 7598   5.174   0.645   2.501
 2571TIP3    H2 7599   5.263   0.767   2.503
 2572TIP3   OH2 7600   6.068   0.833   2.141
 2572TIP3    H1 7601   6.152   0.857   2.103
 2572TIP3    H2 7602   6.037   0.761   2.086
 2573TIP3   OH2 7603   6.795   0.959   2.187
 2573TIP3    H1 7604   6.765   0.870   2.204
 2573TIP3    H2 7605   6.728   0.996   2.130
 2574TIP3   OH2 7606   5.368   0.640   2.207
 2574TIP3    H1 7607   5.380   0.663   2.300
 2574TIP3    H2 7608   5.453   0.606   2.180
 2575TIP3   OH2 7609   6.984   1.110   3.413
 2575TIP3    H1 7610   6.912   1.080   3.357
 2575TIP3    H2 7611   6.971   1.204   3.420
 2576TIP3   OH2 7612   8.165   0.477   2.563
 2576TIP3    H1 7613   8.231   0.455   2.629
 2576TIP3    H2 7614   8.211   0.472   2.480
 2577TIP3   OH2 7615   7.554   0.448   2.895
 2577TIP3    H1 7616   7.577   0.377   2.956
 2577TIP3    H2 7617   7.604   0.523   2.926
 2578TIP3   OH2 7618   7.555   0.786   2.624
 2578TIP3    H1 7619   7.536   0.692   2.621
 2578TIP3    H2 7620   7.647   0.793   2.601
 2579TIP3   OH2 7621   7.285   0.316   2.588
 2579TIP3    H1 7622   7.329   0.231   2.594
 2579TIP3    H2 7623   7.344   0.370   2.536
 2580TIP3   OH2 7624   8.175   1.253   2.284
 2580TIP3    H1 7625   8.197   1.176   2.231
 2580TIP3    H2 7626   8.149   1.217   2.369
 2581TIP3   OH2 7627   8.054   0.724   2.606
 2581TIP3    H1 7628   8.078   0.636   2.577
 2581TIP3    H2 7629   8.138   0.768   2.621
 2582TIP3   OH2 7630   7.382   0.067   2.652
 2582TIP3    H1 7631   7.467   0.037   2.686
 2582TIP3    H2 7632   7.357  -0.000   2.588
 2583TIP3   OH2 7633   7.918   0.652   2.831
 2583TIP3    H1 7634   7.852   0.717   2.856
 2583TIP3    H2 7635   7.960   0.690   2.754
 2584TIP3   OH2 7636   4.351   9.210   2.745
 2584TIP3    H1 7637   4.394   9.287   2.782
 2584TIP3    H2 7638   4.414   9.175   2.682
 2585TIP3   OH2 7639   7.739   0.843   2.909
 2585TIP3    H1 7640   7.732   0.929   2.870
 2585TIP3    H2 7641   7.659   0.832   2.960
 2586TIP3   OH2 7642   7.120   0.556   2.194
 2586TIP3    H1 7643   7.167   0.558   2.110
 2586TIP3    H2 7644   7.144   0.639   2.236
 2587TIP3   OH2 7645   8.573   1.091   2.423
 2587TIP3    H1 7646   8.485   1.057   2.442
 2587TIP3    H2 7647   8.557   1.170   2.371
 2588TIP3   OH2 7648   8.260   1.065   2.093
 2588TIP3    H1 7649   8.314   0.999   2.137
 2588TIP3    H2 7650   8.324   1.125   2.053
 2589TIP3   OH2 7651   8.582   0.534   2.844
 2589TIP3    H1 7652   8.620   0.593   2.909
 2589TIP3    H2 7653   8.650   0.467   2.830
 2590TIP3   OH2 7654   7.690   0.377   2.400
 2590TIP3    H1 7655   7.619   0.360   2.339
 2590TIP3    H2 7656   7.755   0.310   2.381
 2591TIP3   OH2 7657   7.808   0.829   2.515
 2591TIP3    H1 7658   7.791   0.808   2.424
 2591TIP3    H2 7659   7.895   0.793   2.533
 2592TIP3   OH2 7660   7.844   0.411   2.725
 2592TIP3    H1 7661   7.867   0.416   2.632
 2592TIP3    H2 7662   7.861   0.499   2.759
 2593TIP3   OH2 7663   8.321   1.020   2.503
 2593TIP3    H1 7664   8.302   1.099   2.553
 2593TIP3    H2 7665   8.313   0.949   2.566
 2594TIP3   OH2 7666   7.943   0.934   3.074
 2594TIP3    H1 7667   7.884   0.994   3.118
 2594TIP3    H2 7668   7.886   0.884   3.015
 2595TIP3   OH2 7669   7.678   0.524   3.199
 2595TIP3    H1 7670   7.686   0.615   3.228
 2595TIP3    H2 7671   7.586   0.503   3.211
 2596TIP3   OH2 7672   7.974   1.027   2.121
 2596TIP3    H1 7673   8.069   1.033   2.108
 2596TIP3    H2 7674   7.936   1.070   2.045
 2597TIP3   OH2 7675   7.738   1.097   3.154
 2597TIP3    H1 7676   7.713   1.108   3.062
 2597TIP3    H2 7677   7.655   1.081   3.199
 2598TIP3   OH2 7678   7.325   0.666   3.100
 2598TIP3    H1 7679   7.252   0.650   3.041
 2598TIP3    H2 7680   7.353   0.579   3.128
 2599TIP3   OH2 7681   7.167   0.852   2.771
 2599TIP3    H1 7682   7.258   0.880   2.783
 2599TIP3    H2 7683   7.115   0.930   2.791
 2600TIP3   OH2 7684   8.130   1.079   2.935
 2600TIP3    H1 7685   8.123   1.170   2.964
 2600TIP3    H2 7686   8.063   1.033   2.984
 2601TIP3   OH2 7687   7.878   1.171   1.893
 2601TIP3    H1 7688   7.803   1.148   1.838
 2601TIP3    H2 7689   7.856   1.256   1.930
 2602TIP3   OH2 7690   7.372   1.028   2.269
 2602TIP3    H1 7691   7.412   1.026   2.356
 2602TIP3    H2 7692   7.316   0.950   2.267
 2603TIP3   OH2 7693   8.143   1.166   1.820
 2603TIP3    H1 7694   8.050   1.159   1.839
 2603TIP3    H2 7695   8.184   1.100   1.877
 2604TIP3   OH2 7696   7.520   0.857   3.072
 2604TIP3    H1 7697   7.566   0.849   3.155
 2604TIP3    H2 7698   7.449   0.792   3.078
 2605TIP3   OH2 7699   7.746   0.186   2.848
 2605TIP3    H1 7700   7.714   0.215   2.933
 2605TIP3    H2 7701   7.770   0.266   2.802
 2606TIP3   OH2 7702   8.444   0.526   3.181
 2606TIP3    H1 7703   8.361   0.549   3.224
 2606TIP3    H2 7704   8.418   0.484   3.099
 2607TIP3   OH2 7705   7.640   0.267   3.085
 2607TIP3    H1 7706   7.663   0.335   3.148
 2607TIP3    H2 7707   7.611   0.193   3.138
 2608TIP3   OH2 7708   8.361   0.408   2.741
 2608TIP3    H1 7709   8.440   0.460   2.757
 2608TIP3    H2 7710   8.335   0.377   2.828
 2609TIP3   OH2 7711   8.722   1.649   2.886
 2609TIP3    H1 7712   8.703   1.652   2.792
 2609TIP3    H2 7713   8.789   1.715   2.899
 2610TIP3   OH2 7714   7.671   0.777   3.307
 2610TIP3    H1 7715   7.754   0.794   3.352
 2610TIP3    H2 7716   7.604   0.786   3.375
 2611TIP3   OH2 7717   8.151   0.117   2.883
 2611TIP3    H1 7718   8.065   0.079   2.867
 2611TIP3    H2 7719   8.207   0.042   2.901
 2612TIP3   OH2 7720   8.302   0.848   2.948
 2612TIP3    H1 7721   8.252   0.770   2.970
 2612TIP3    H2 7722   8.241   0.920   2.964
 2613TIP3   OH2 7723   7.543   0.504   2.613
 2613TIP3    H1 7724   7.604   0.460   2.554
 2613TIP3    H2 7725   7.566   0.470   2.700
 2614TIP3   OH2 7726   7.421   0.437   3.233
 2614TIP3    H1 7727   7.427   0.393   3.318
 2614TIP3    H2 7728   7.351   0.391   3.187
 2615TIP3   OH2 7729   8.170   0.581   3.246
 2615TIP3    H1 7730   8.098   0.519   3.259
 2615TIP3    H2 7731   8.169   0.598   3.152
 2616TIP3   OH2 7732   8.395   1.122   2.849
 2616TIP3    H1 7733   8.302   1.100   2.856
 2616TIP3    H2 7734   8.421   1.146   2.938
 2617TIP3   OH2 7735   7.688   0.818   2.256
 2617TIP3    H1 7736   7.716   0.888   2.197
 2617TIP3    H2 7737   7.593   0.822   2.255
 2618TIP3   OH2 7738   7.850   0.597   2.308
 2618TIP3    H1 7739   7.796   0.667   2.271
 2618TIP3    H2 7740   7.786   0.532   2.337
 2619TIP3   OH2 7741   7.955   1.153   2.723
 2619TIP3    H1 7742   7.989   1.227   2.673
 2619TIP3    H2 7743   8.030   1.121   2.773
 2620TIP3   OH2 7744   7.580   1.040   2.093
 2620TIP3    H1 7745   7.502   1.041   2.148
 2620TIP3    H2 7746   7.622   1.124   2.109
 2621TIP3   OH2 7747   8.316   0.802   2.679
 2621TIP3    H1 7748   8.315   0.823   2.772
 2621TIP3    H2 7749   8.398   0.754   2.666
 2622TIP3   OH2 7750   8.556   1.313   2.741
 2622TIP3    H1 7751   8.493   1.244   2.760
 2622TIP3    H2 7752   8.527   1.349   2.657
 2623TIP3   OH2 7753   7.377   1.051   2.893
 2623TIP3    H1 7754   7.431   0.992   2.946
 2623TIP3    H2 7755   7.394   1.138   2.928
 2624TIP3   OH2 7756   8.309   0.352   3.009
 2624TIP3    H1 7757   8.221   0.319   3.030
 2624TIP3    H2 7758   8.368   0.279   3.030
 2625TIP3   OH2 7759   7.484   0.981   1.837
 2625TIP3    H1 7760   7.547   1.038   1.793
 2625TIP3    H2 7761   7.511   0.982   1.929
 2626TIP3   OH2 7762   8.579   1.335   2.272
 2626TIP3    H1 7763   8.542   1.385   2.200
 2626TIP3    H2 7764   8.663   1.304   2.239
 2627TIP3   OH2 7765   7.191   0.815   2.268
 2627TIP3    H1 7766   7.148   0.856   2.342
 2627TIP3    H2 7767   7.144   0.848   2.191
 2628TIP3   OH2 7768   7.373   1.347   3.309
 2628TIP3    H1 7769   7.456   1.345   3.356
 2628TIP3    H2 7770   7.348   1.255   3.300
 2629TIP3   OH2 7771   7.841   1.257   3.352
 2629TIP3    H1 7772   7.933   1.231   3.360
 2629TIP3    H2 7773   7.808   1.206   3.278
 2630TIP3   OH2 7774   8.456   1.205   3.103
 2630TIP3    H1 7775   8.466   1.136   3.168
 2630TIP3    H2 7776   8.533   1.261   3.116
 2631TIP3   OH2 7777   7.476   0.768   3.506
 2631TIP3    H1 7778   7.499   0.675   3.512
 2631TIP3    H2 7779   7.393   0.769   3.458
 2632TIP3   OH2 7780   8.100   0.854   3.284
 2632TIP3    H1 7781   8.057   0.871   3.199
 2632TIP3    H2 7782   8.146   0.771   3.271
 2633TIP3   OH2 7783   8.596   0.888   2.889
 2633TIP3    H1 7784   8.627   0.943   2.817
 2633TIP3    H2 7785   8.504   0.912   2.899
 2634TIP3   OH2 7786   7.605   0.524   3.517
 2634TIP3    H1 7787   7.678   0.481   3.471
 2634TIP3    H2 7788   7.642   0.549   3.601
 2635TIP3   OH2 7789   7.938   0.425   3.195
 2635TIP3    H1 7790   7.855   0.471   3.186
 2635TIP3    H2 7791   7.963   0.403   3.105
 2636TIP3   OH2 7792   8.474   0.776   3.304
 2636TIP3    H1 7793   8.490   0.723   3.226
 2636TIP3    H2 7794   8.476   0.714   3.376
 2637TIP3   OH2 7795   8.132   0.170   3.181
 2637TIP3    H1 7796   8.043   0.135   3.177
 2637TIP3    H2 7797   8.130   0.233   3.254
 2638TIP3   OH2 7798   8.156   0.614   2.976
 2638TIP3    H1 7799   8.195   0.532   2.945
 2638TIP3    H2 7800   8.071   0.618   2.930
 2639TIP3   OH2 7801   8.681   0.417   3.280
 2639TIP3    H1 7802   8.687   0.350   3.212
 2639TIP3    H2 7803   8.616   0.479   3.247
 2640TIP3   OH2 7804   8.723   0.719   3.057
 2640TIP3    H1 7805   8.669   0.781   3.008
 2640TIP3    H2 7806   8.808   0.723   3.013
 2641TIP3   OH2 7807   7.957   0.324   3.573
 2641TIP3    H1 7808   7.891   0.265   3.537
 2641TIP3    H2 7809   8.024   0.330   3.504
 2642TIP3   OH2 7810   8.184   0.324   3.409
 2642TIP3    H1 7811   8.217   0.298   3.495
 2642TIP3    H2 7812   8.260   0.322   3.352
 2643TIP3   OH2 7813   7.650   1.171   1.709
 2643TIP3    H1 7814   7.633   1.264   1.724
 2643TIP3    H2 7815   7.612   1.154   1.623
 2644TIP3   OH2 7816   7.015   1.089   2.275
 2644TIP3    H1 7817   6.927   1.059   2.251
 2644TIP3    H2 7818   7.031   1.050   2.361
 2645TIP3   OH2 7819   7.115   0.956   2.500
 2645TIP3    H1 7820   7.099   0.890   2.568
 2645TIP3    H2 7821   7.165   1.024   2.544
 2646TIP3   OH2 7822   8.675   1.052   2.679
 2646TIP3    H1 7823   8.661   1.143   2.705
 2646TIP3    H2 7824   8.654   1.050   2.585
 2647TIP3   OH2 7825   7.286   0.406   2.844
 2647TIP3    H1 7826   7.277   0.386   2.751
 2647TIP3    H2 7827   7.378   0.426   2.856
 2648TIP3   OH2 7828   7.207   0.126   2.853
 2648TIP3    H1 7829   7.265   0.110   2.778
 2648TIP3    H2 7830   7.205   0.222   2.861
 2649TIP3   OH2 7831   8.433   1.241   1.971
 2649TIP3    H1 7832   8.473   1.231   1.885
 2649TIP3    H2 7833   8.456   1.329   1.999
 2650TIP3   OH2 7834   7.517   1.066   3.321
 2650TIP3    H1 7835   7.423   1.056   3.314
 2650TIP3    H2 7836   7.534   1.069   3.416
 2651TIP3   OH2 7837   7.727   1.118   2.872
 2651TIP3    H1 7838   7.676   1.193   2.841
 2651TIP3    H2 7839   7.811   1.126   2.827
 2652TIP3   OH2 7840   8.121   1.346   3.012
 2652TIP3    H1 7841   8.159   1.341   3.099
 2652TIP3    H2 7842   8.185   1.393   2.960
 2653TIP3   OH2 7843   8.317   1.488   2.879
 2653TIP3    H1 7844   8.382   1.433   2.835
 2653TIP3    H2 7845   8.369   1.545   2.936
 2654TIP3   OH2 7846   7.386   1.349   2.927
 2654TIP3    H1 7847   7.295   1.367   2.904
 2654TIP3    H2 7848   7.408   1.418   2.991
 2655TIP3   OH2 7849   7.615   1.348   2.773
 2655TIP3    H1 7850   7.532   1.351   2.821
 2655TIP3    H2 7851   7.591   1.370   2.683
 2656TIP3   OH2 7852   8.019   1.368   2.558
 2656TIP3    H1 7853   7.942   1.378   2.502
 2656TIP3    H2 7854   8.031   1.454   2.598
 2657TIP3   OH2 7855   8.271   1.273   2.598
 2657TIP3    H1 7856   8.186   1.312   2.582
 2657TIP3    H2 7857   8.334   1.335   2.562
 2658TIP3   OH2 7858   8.474   1.436   2.507
 2658TIP3    H1 7859   8.469   1.530   2.489
 2658TIP3    H2 7860   8.510   1.399   2.426
 2659TIP3   OH2 7861   7.289   1.134   2.643
 2659TIP3    H1 7862   7.314   1.111   2.732
 2659TIP3    H2 7863   7.361   1.103   2.589
 2660TIP3   OH2 7864   7.500   1.028   2.511
 2660TIP3    H1 7865   7.511   0.943   2.553
 2660TIP3    H2 7866   7.588   1.066   2.512
 2661TIP3   OH2 7867   7.768   1.105   2.523
 2661TIP3    H1 7868   7.785   1.013   2.503
 2661TIP3    H2 7869   7.826   1.124   2.596
 2662TIP3   OH2 7870   7.065   0.919   2.047
 2662TIP3    H1 7871   6.979   0.894   2.015
 2662TIP3    H2 7872   7.050   1.000   2.096
 2663TIP3   OH2 7873   7.164   0.970   1.739
 2663TIP3    H1 7874   7.112   1.011   1.807
 2663TIP3    H2 7875   7.242   0.938   1.785
 2664TIP3   OH2 7876   8.742   1.376   2.935
 2664TIP3    H1 7877   8.684   1.343   2.866
 2664TIP3    H2 7878   8.747   1.470   2.920
 2665TIP3   OH2 7879   1.008   1.577   3.981
 2665TIP3    H1 7880   0.970   1.521   4.048
 2665TIP3    H2 7881   1.008   1.665   4.020
 2666TIP3   OH2 7882   0.614   2.028   3.955
 2666TIP3    H1 7883   0.662   1.964   3.902
 2666TIP3    H2 7884   0.605   1.986   4.041
 2667TIP3   OH2 7885   0.523   1.501   4.305
 2667TIP3    H1 7886   0.554   1.421   4.264
 2667TIP3    H2 7887   0.603   1.551   4.324
 2668TIP3   OH2 7888   1.526   0.848   4.249
 2668TIP3    H1 7889   1.568   0.914   4.304
 2668TIP3    H2 7890   1.588   0.834   4.177
 2669TIP3   OH2 7891   1.614   1.052   4.432
 2669TIP3    H1 7892   1.539   1.098   4.395
 2669TIP3    H2 7893   1.612   1.074   4.525
 2670TIP3   OH2 7894   0.361   1.431   4.517
 2670TIP3    H1 7895   0.292   1.494   4.535
 2670TIP3    H2 7896   0.402   1.462   4.436
 2671TIP3   OH2 7897   0.181   1.625   4.601
 2671TIP3    H1 7898   0.163   1.715   4.576
 2671TIP3    H2 7899   0.110   1.601   4.661
 2672TIP3   OH2 7900   1.018   1.841   4.087
 2672TIP3    H1 7901   0.931   1.834   4.127
 2672TIP3    H2 7902   1.016   1.924   4.040
 2673TIP3   OH2 7903   1.301   0.857   4.413
 2673TIP3    H1 7904   1.216   0.889   4.381
 2673TIP3    H2 7905   1.361   0.873   4.341
 2674TIP3   OH2 7906   0.766   1.852   3.812
 2674TIP3    H1 7907   0.814   1.770   3.822
 2674TIP3    H2 7908   0.818   1.902   3.749
 2675TIP3   OH2 7909   1.264   1.718   4.431
 2675TIP3    H1 7910   1.240   1.647   4.372
 2675TIP3    H2 7911   1.248   1.798   4.381
 2676TIP3   OH2 7912   1.440   1.413   4.270
 2676TIP3    H1 7913   1.354   1.455   4.265
 2676TIP3    H2 7914   1.473   1.417   4.181
 2677TIP3   OH2 7915   1.200   1.303   4.580
 2677TIP3    H1 7916   1.161   1.386   4.608
 2677TIP3    H2 7917   1.127   1.255   4.542
 2678TIP3   OH2 7918   0.785   1.832   4.222
 2678TIP3    H1 7919   0.775   1.906   4.282
 2678TIP3    H2 7920   0.774   1.755   4.277
 2679TIP3   OH2 7921   0.388   1.729   4.758
 2679TIP3    H1 7922   0.322   1.781   4.804
 2679TIP3    H2 7923   0.338   1.668   4.704
 2680TIP3   OH2 7924   0.091   1.283   4.868
 2680TIP3    H1 7925   0.093   1.360   4.925
 2680TIP3    H2 7926   0.050   1.314   4.787
 2681TIP3   OH2 7927   0.171   1.873   4.857
 2681TIP3    H1 7928   0.141   1.890   4.767
 2681TIP3    H2 7929   0.091   1.860   4.907
 2682TIP3   OH2 7930   1.492   2.102   4.496
 2682TIP3    H1 7931   1.501   2.006   4.501
 2682TIP3    H2 7932   1.411   2.121   4.544
 2683TIP3   OH2 7933   0.583   1.867   4.624
 2683TIP3    H1 7934   0.577   1.958   4.652
 2683TIP3    H2 7935   0.514   1.822   4.673
 2684TIP3   OH2 7936   1.377   1.249   4.789
 2684TIP3    H1 7937   1.313   1.286   4.729
 2684TIP3    H2 7938   1.391   1.160   4.758
 2685TIP3   OH2 7939   9.783   1.592   4.791
 2685TIP3    H1 7940   9.834   1.581   4.870
 2685TIP3    H2 7941   9.693   1.569   4.816
 2686TIP3   OH2 7942   0.848   0.574   4.735
 2686TIP3    H1 7943   0.873   0.611   4.820
 2686TIP3    H2 7944   0.785   0.505   4.755
 2687TIP3   OH2 7945   1.117   0.991   4.660
 2687TIP3    H1 7946   1.064   1.025   4.733
 2687TIP3    H2 7947   1.078   1.030   4.582
 2688TIP3   OH2 7948   0.837   1.259   4.837
 2688TIP3    H1 7949   0.899   1.194   4.869
 2688TIP3    H2 7950   0.872   1.343   4.869
 2689TIP3   OH2 7951   0.742   1.261   4.334
 2689TIP3    H1 7952   0.715   1.176   4.301
 2689TIP3    H2 7953   0.736   1.252   4.429
 2690TIP3   OH2 7954   1.200   2.428   4.589
 2690TIP3    H1 7955   1.199   2.434   4.494
 2690TIP3    H2 7956   1.281   2.471   4.615
 2691TIP3   OH2 7957   0.118   1.516   5.022
 2691TIP3    H1 7958   0.212   1.529   5.031
 2691TIP3    H2 7959   0.083   1.525   5.110
 2692TIP3   OH2 7960   1.192   1.530   4.245
 2692TIP3    H1 7961   1.209   1.573   4.161
 2692TIP3    H2 7962   1.112   1.479   4.230
 2693TIP3   OH2 7963   0.740   1.624   4.640
 2693TIP3    H1 7964   0.724   1.560   4.709
 2693TIP3    H2 7965   0.678   1.694   4.658
 2694TIP3   OH2 7966   0.614   1.387   4.963
 2694TIP3    H1 7967   0.524   1.377   4.932
 2694TIP3    H2 7968   0.667   1.346   4.895
 2695TIP3   OH2 7969   0.859   1.899   4.547
 2695TIP3    H1 7970   0.767   1.874   4.552
 2695TIP3    H2 7971   0.882   1.924   4.636
 2696TIP3   OH2 7972   1.507   1.827   4.509
 2696TIP3    H1 7973   1.416   1.799   4.519
 2696TIP3    H2 7974   1.536   1.787   4.427
 2697TIP3   OH2 7975   0.961   1.379   4.193
 2697TIP3    H1 7976   0.884   1.347   4.239
 2697TIP3    H2 7977   0.998   1.301   4.151
 2698TIP3   OH2 7978   0.398   1.927   4.417
 2698TIP3    H1 7979   0.435   2.003   4.373
 2698TIP3    H2 7980   0.471   1.891   4.468
 2699TIP3   OH2 7981   0.775   1.600   4.372
 2699TIP3    H1 7982   0.766   1.603   4.467
 2699TIP3    H2 7983   0.841   1.531   4.357
 2700TIP3   OH2 7984   1.021   2.095   4.434
 2700TIP3    H1 7985   0.955   2.031   4.461
 2700TIP3    H2 7986   0.978   2.147   4.367
 2701TIP3   OH2 7987   9.650   1.816   4.675
 2701TIP3    H1 7988   9.706   1.740   4.694
 2701TIP3    H2 7989   9.698   1.864   4.608
 2702TIP3   OH2 7990   0.918   0.773   4.530
 2702TIP3    H1 7991   0.993   0.755   4.586
 2702TIP3    H2 7992   0.849   0.714   4.562
 2703TIP3   OH2 7993   0.750   1.146   4.604
 2703TIP3    H1 7994   0.776   1.197   4.681
 2703TIP3    H2 7995   0.744   1.056   4.637
 2704TIP3   OH2 7996   1.384   1.021   4.635
 2704TIP3    H1 7997   1.290   1.013   4.649
 2704TIP3    H2 7998   1.398   0.991   4.545
 2705TIP3   OH2 7999   1.044   1.130   4.103
 2705TIP3    H1 8000   0.993   1.050   4.090
 2705TIP3    H2 8001   1.133   1.098   4.120
 2706TIP3   OH2 8002   1.037   2.108   4.005
 2706TIP3    H1 8003   0.990   2.148   3.932
 2706TIP3    H2 8004   1.129   2.122   3.985
 2707TIP3   OH2 8005   9.657   2.142   4.955
 2707TIP3    H1 8006   9.726   2.148   5.022
 2707TIP3    H2 8007   9.619   2.055   4.967
 2708TIP3   OH2 8008   0.293   2.050   5.031
 2708TIP3    H1 8009   0.383   2.020   5.045
 2708TIP3    H2 8010   0.257   1.988   4.968
 2709TIP3   OH2 8011   0.916   1.979   4.803
 2709TIP3    H1 8012   0.930   1.906   4.864
 2709TIP3    H2 8013   0.990   2.037   4.818
 2710TIP3   OH2 8014   0.554   1.657   4.965
 2710TIP3    H1 8015   0.501   1.668   4.886
 2710TIP3    H2 8016   0.590   1.569   4.957
 2711TIP3   OH2 8017   1.036   1.640   4.582
 2711TIP3    H1 8018   1.097   1.691   4.529
 2711TIP3    H2 8019   0.953   1.688   4.577
 2712TIP3   OH2 8020   0.359   1.358   4.874
 2712TIP3    H1 8021   0.278   1.307   4.874
 2712TIP3    H2 8022   0.406   1.329   4.796
 2713TIP3   OH2 8023   0.926   1.506   4.931
 2713TIP3    H1 8024   1.013   1.509   4.891
 2713TIP3    H2 8025   0.944   1.492   5.025
 2714TIP3   OH2 8026   0.510   0.883   4.977
 2714TIP3    H1 8027   0.522   0.810   4.917
 2714TIP3    H2 8028   0.471   0.952   4.924
 2715TIP3   OH2 8029   0.557   1.337   4.678
 2715TIP3    H1 8030   0.597   1.261   4.636
 2715TIP3    H2 8031   0.492   1.368   4.615
 2716TIP3   OH2 8032   1.209   1.239   5.023
 2716TIP3    H1 8033   1.263   1.163   5.046
 2716TIP3    H2 8034   1.255   1.280   4.950
 2717TIP3   OH2 8035   1.165   1.519   4.783
 2717TIP3    H1 8036   1.108   1.565   4.722
 2717TIP3    H2 8037   1.253   1.527   4.745
 2718TIP3   OH2 8038   0.753   0.987   5.038
 2718TIP3    H1 8039   0.804   0.924   5.090
 2718TIP3    H2 8040   0.668   0.945   5.025
 2719TIP3   OH2 8041   1.011   1.047   4.900
 2719TIP3    H1 8042   0.979   0.957   4.905
 2719TIP3    H2 8043   1.087   1.049   4.958
 2720TIP3   OH2 8044   1.203   0.961   5.076
 2720TIP3    H1 8045   1.200   0.867   5.091
 2720TIP3    H2 8046   1.207   1.000   5.163
 2721TIP3   OH2 8047   1.308   2.156   3.990
 2721TIP3    H1 8048   1.331   2.176   4.081
 2721TIP3    H2 8049   1.372   2.205   3.939
 2722TIP3   OH2 8050   1.341   2.172   4.268
 2722TIP3    H1 8051   1.291   2.090   4.268
 2722TIP3    H2 8052   1.412   2.157   4.330
 2723TIP3   OH2 8053   1.384   1.884   4.840
 2723TIP3    H1 8054   1.312   1.887   4.903
 2723TIP3    H2 8055   1.429   1.968   4.851
 2724TIP3   OH2 8056   1.320   1.197   3.661
 2724TIP3    H1 8057   1.249   1.246   3.703
 2724TIP3    H2 8058   1.400   1.238   3.694
 2725TIP3   OH2 8059   1.395   1.654   4.074
 2725TIP3    H1 8060   1.425   1.592   4.008
 2725TIP3    H2 8061   1.390   1.738   4.028
 2726TIP3   OH2 8062   1.191   1.939   4.281
 2726TIP3    H1 8063   1.126   1.986   4.334
 2726TIP3    H2 8064   1.140   1.900   4.210
 2727TIP3   OH2 8065   1.404   1.543   4.645
 2727TIP3    H1 8066   1.470   1.479   4.618
 2727TIP3    H2 8067   1.379   1.588   4.564
 2728TIP3   OH2 8068   1.597   1.334   4.641
 2728TIP3    H1 8069   1.529   1.304   4.702
 2728TIP3    H2 8070   1.678   1.297   4.676
 2729TIP3   OH2 8071   1.295   1.032   4.171
 2729TIP3    H1 8072   1.378   1.044   4.125
 2729TIP3    H2 8073   1.306   1.078   4.254
 2730TIP3   OH2 8074   1.371   1.181   4.391
 2730TIP3    H1 8075   1.315   1.211   4.463
 2730TIP3    H2 8076   1.395   1.261   4.345
 2731TIP3   OH2 8077   1.906   0.799   4.997
 2731TIP3    H1 8078   1.952   0.725   4.957
 2731TIP3    H2 8079   1.868   0.847   4.922
 2732TIP3   OH2 8080   1.780   0.918   4.781
 2732TIP3    H1 8081   1.687   0.894   4.789
 2732TIP3    H2 8082   1.819   0.845   4.733
 2733TIP3   OH2 8083   0.917   2.015   3.651
 2733TIP3    H1 8084   0.952   2.045   3.567
 2733TIP3    H2 8085   0.912   2.094   3.704
 2734TIP3   OH2 8086   9.747   1.843   5.030
 2734TIP3    H1 8087   9.660   1.805   5.017
 2734TIP3    H2 8088   9.768   1.824   5.122
 2735TIP3   OH2 8089   0.163   1.901   4.566
 2735TIP3    H1 8090   0.125   1.983   4.534
 2735TIP3    H2 8091   0.249   1.897   4.526
 2736TIP3   OH2 8092   0.572   2.133   4.704
 2736TIP3    H1 8093   0.611   2.125   4.791
 2736TIP3    H2 8094   0.634   2.186   4.655
 2737TIP3   OH2 8095   0.763   2.286   4.577
 2737TIP3    H1 8096   0.818   2.229   4.524
 2737TIP3    H2 8097   0.825   2.338   4.628
 2738TIP3   OH2 8098   1.617   0.708   4.515
 2738TIP3    H1 8099   1.535   0.686   4.470
 2738TIP3    H2 8100   1.668   0.627   4.515
 2739TIP3   OH2 8101   9.672   2.122   4.614
 2739TIP3    H1 8102   9.576   2.127   4.612
 2739TIP3    H2 8103   9.693   2.113   4.707
 2740TIP3   OH2 8104   0.089   2.140   4.450
 2740TIP3    H1 8105   0.006   2.145   4.497
 2740TIP3    H2 8106   0.065   2.154   4.358
 2741TIP3   OH2 8107   0.491   2.146   4.269
 2741TIP3    H1 8108   0.423   2.160   4.203
 2741TIP3    H2 8109   0.504   2.231   4.310
 2742TIP3   OH2 8110   0.760   2.103   4.311
 2742TIP3    H1 8111   0.666   2.109   4.293
 2742TIP3    H2 8112   0.800   2.164   4.249
 2743TIP3   OH2 8113   0.970   2.278   4.210
 2743TIP3    H1 8114   0.955   2.360   4.163
 2743TIP3    H2 8115   0.993   2.215   4.142
 2744TIP3   OH2 8116   0.243   1.928   4.184
 2744TIP3    H1 8117   0.228   1.838   4.155
 2744TIP3    H2 8118   0.287   1.920   4.268
 2745TIP3   OH2 8119   1.012   2.032   3.383
 2745TIP3    H1 8120   0.979   1.942   3.382
 2745TIP3    H2 8121   0.962   2.077   3.314
 2746TIP3   OH2 8122   1.243   0.699   5.114
 2746TIP3    H1 8123   1.219   0.613   5.147
 2746TIP3    H2 8124   1.314   0.682   5.051
 2747TIP3   OH2 8125   1.239   2.154   4.597
 2747TIP3    H1 8126   1.166   2.121   4.545
 2747TIP3    H2 8127   1.223   2.247   4.607
 2748TIP3   OH2 8128   2.522   1.555   3.342
 2748TIP3    H1 8129   2.488   1.640   3.314
 2748TIP3    H2 8130   2.454   1.492   3.318
 2749TIP3   OH2 8131   2.528   1.505   3.737
 2749TIP3    H1 8132   2.579   1.486   3.816
 2749TIP3    H2 8133   2.492   1.420   3.711
 2750TIP3   OH2 8134   1.897   1.457   4.063
 2750TIP3    H1 8135   1.881   1.372   4.105
 2750TIP3    H2 8136   1.903   1.519   4.136
 2751TIP3   OH2 8137   2.784   1.838   3.431
 2751TIP3    H1 8138   2.775   1.766   3.493
 2751TIP3    H2 8139   2.802   1.915   3.485
 2752TIP3   OH2 8140   1.550   1.302   3.777
 2752TIP3    H1 8141   1.600   1.223   3.797
 2752TIP3    H2 8142   1.617   1.368   3.758
 2753TIP3   OH2 8143   2.437   2.264   3.450
 2753TIP3    H1 8144   2.461   2.199   3.385
 2753TIP3    H2 8145   2.454   2.222   3.534
 2754TIP3   OH2 8146   2.357   1.703   3.814
 2754TIP3    H1 8147   2.407   1.632   3.773
 2754TIP3    H2 8148   2.421   1.772   3.829
 2755TIP3   OH2 8149   3.371   1.068   3.769
 2755TIP3    H1 8150   3.380   1.157   3.803
 2755TIP3    H2 8151   3.400   1.074   3.678
 2756TIP3   OH2 8152   2.775   1.202   3.920
 2756TIP3    H1 8153   2.755   1.134   3.985
 2756TIP3    H2 8154   2.749   1.162   3.836
 2757TIP3   OH2 8155   2.083   0.923   3.782
 2757TIP3    H1 8156   2.073   0.990   3.714
 2757TIP3    H2 8157   2.071   0.840   3.736
 2758TIP3   OH2 8158   1.710   1.092   3.863
 2758TIP3    H1 8159   1.792   1.085   3.912
 2758TIP3    H2 8160   1.721   1.034   3.788
 2759TIP3   OH2 8161   2.137   1.307   3.725
 2759TIP3    H1 8162   2.230   1.286   3.723
 2759TIP3    H2 8163   2.094   1.232   3.685
 2760TIP3   OH2 8164   3.404   1.287   3.946
 2760TIP3    H1 8165   3.335   1.351   3.929
 2760TIP3    H2 8166   3.454   1.325   4.018
 2761TIP3   OH2 8167   2.056   0.907   4.210
 2761TIP3    H1 8168   2.009   0.951   4.138
 2761TIP3    H2 8169   1.998   0.914   4.285
 2762TIP3   OH2 8170   2.417   1.770   3.203
 2762TIP3    H1 8171   2.380   1.737   3.121
 2762TIP3    H2 8172   2.359   1.841   3.229
 2763TIP3   OH2 8173   2.965   1.010   3.718
 2763TIP3    H1 8174   2.873   0.999   3.696
 2763TIP3    H2 8175   2.993   1.087   3.669
 2764TIP3   OH2 8176   1.950   1.032   3.989
 2764TIP3    H1 8177   2.005   1.107   4.008
 2764TIP3    H2 8178   1.996   0.986   3.919
 2765TIP3   OH2 8179   1.418   1.613   3.349
 2765TIP3    H1 8180   1.377   1.628   3.264
 2765TIP3    H2 8181   1.431   1.701   3.385
 2766TIP3   OH2 8182   2.810   2.088   3.577
 2766TIP3    H1 8183   2.721   2.085   3.612
 2766TIP3    H2 8184   2.815   2.172   3.531
 2767TIP3   OH2 8185   3.150   0.963   3.913
 2767TIP3    H1 8186   3.075   0.967   3.853
 2767TIP3    H2 8187   3.225   0.985   3.858
 2768TIP3   OH2 8188   2.373   0.582   3.946
 2768TIP3    H1 8189   2.373   0.491   3.974
 2768TIP3    H2 8190   2.297   0.620   3.989
 2769TIP3   OH2 8191   2.521   2.123   3.224
 2769TIP3    H1 8192   2.575   2.045   3.215
 2769TIP3    H2 8193   2.579   2.195   3.199
 2770TIP3   OH2 8194   2.665   1.896   3.188
 2770TIP3    H1 8195   2.592   1.835   3.188
 2770TIP3    H2 8196   2.718   1.870   3.264
 2771TIP3   OH2 8197   3.079   1.961   3.915
 2771TIP3    H1 8198   3.039   1.889   3.867
 2771TIP3    H2 8199   3.047   2.040   3.871
 2772TIP3   OH2 8200   2.345   1.401   3.191
 2772TIP3    H1 8201   2.260   1.438   3.170
 2772TIP3    H2 8202   2.390   1.396   3.106
 2773TIP3   OH2 8203   2.326   1.158   2.926
 2773TIP3    H1 8204   2.384   1.197   2.991
 2773TIP3    H2 8205   2.384   1.103   2.873
 2774TIP3   OH2 8206   3.241   1.622   3.757
 2774TIP3    H1 8207   3.158   1.668   3.759
 2774TIP3    H2 8208   3.285   1.654   3.678
 2775TIP3   OH2 8209   2.711   1.486   3.157
 2775TIP3    H1 8210   2.655   1.513   3.230
 2775TIP3    H2 8211   2.789   1.451   3.199
 2776TIP3   OH2 8212   2.922   1.505   4.045
 2776TIP3    H1 8213   2.924   1.577   4.108
 2776TIP3    H2 8214   2.833   1.507   4.010
 2777TIP3   OH2 8215   1.939   1.454   3.584
 2777TIP3    H1 8216   1.897   1.400   3.517
 2777TIP3    H2 8217   2.013   1.402   3.615
 2778TIP3   OH2 8218   2.099   1.532   3.887
 2778TIP3    H1 8219   2.112   1.458   3.828
 2778TIP3    H2 8220   2.025   1.506   3.942
 2779TIP3   OH2 8221   2.569   2.097   3.707
 2779TIP3    H1 8222   2.569   2.175   3.763
 2779TIP3    H2 8223   2.558   2.024   3.768
 2780TIP3   OH2 8224   2.209   1.989   4.253
 2780TIP3    H1 8225   2.133   2.034   4.290
 2780TIP3    H2 8226   2.178   1.955   4.169
 2781TIP3   OH2 8227   2.547   1.332   3.000
 2781TIP3    H1 8228   2.605   1.393   3.045
 2781TIP3    H2 8229   2.567   1.344   2.907
 2782TIP3   OH2 8230   1.916   1.545   4.335
 2782TIP3    H1 8231   1.938   1.628   4.378
 2782TIP3    H2 8232   1.829   1.525   4.368
 2783TIP3   OH2 8233   2.270   2.004   3.231
 2783TIP3    H1 8234   2.352   2.053   3.236
 2783TIP3    H2 8235   2.213   2.058   3.176
 2784TIP3   OH2 8236   1.981   2.126   4.340
 2784TIP3    H1 8237   1.943   2.131   4.253
 2784TIP3    H2 8238   1.906   2.114   4.398
 2785TIP3   OH2 8239   3.047   0.561   3.031
 2785TIP3    H1 8240   2.970   0.580   3.084
 2785TIP3    H2 8241   3.053   0.635   2.970
 2786TIP3   OH2 8242   1.811   1.303   3.389
 2786TIP3    H1 8243   1.745   1.359   3.347
 2786TIP3    H2 8244   1.767   1.218   3.399
 2787TIP3   OH2 8245   2.870   1.925   2.607
 2787TIP3    H1 8246   2.859   2.016   2.582
 2787TIP3    H2 8247   2.959   1.903   2.579
 2788TIP3   OH2 8248   1.578   1.692   4.281
 2788TIP3    H1 8249   1.511   1.674   4.215
 2788TIP3    H2 8250   1.604   1.606   4.313
 2789TIP3   OH2 8251   1.422   1.904   3.951
 2789TIP3    H1 8252   1.507   1.937   3.982
 2789TIP3    H2 8253   1.360   1.974   3.969
 2790TIP3   OH2 8254   3.293   2.371   3.976
 2790TIP3    H1 8255   3.301   2.276   3.982
 2790TIP3    H2 8256   3.208   2.389   4.017
 2791TIP3   OH2 8257   2.450   2.120   4.226
 2791TIP3    H1 8258   2.421   2.203   4.186
 2791TIP3    H2 8259   2.369   2.073   4.243
 2792TIP3   OH2 8260   2.156   2.221   3.058
 2792TIP3    H1 8261   2.102   2.195   2.984
 2792TIP3    H2 8262   2.122   2.306   3.085
 2793TIP3   OH2 8263   1.603   2.095   3.447
 2793TIP3    H1 8264   1.652   2.080   3.528
 2793TIP3    H2 8265   1.553   2.015   3.433
 2794TIP3   OH2 8266   2.349   2.169   2.706
 2794TIP3    H1 8267   2.392   2.090   2.674
 2794TIP3    H2 8268   2.384   2.180   2.795
 2795TIP3   OH2 8269   2.415   2.207   2.970
 2795TIP3    H1 8270   2.325   2.204   3.005
 2795TIP3    H2 8271   2.467   2.162   3.036
 2796TIP3   OH2 8272   1.736   1.914   4.272
 2796TIP3    H1 8273   1.818   1.892   4.315
 2796TIP3    H2 8274   1.686   1.832   4.273
 2797TIP3   OH2 8275   2.138   0.679   4.069
 2797TIP3    H1 8276   2.058   0.654   4.023
 2797TIP3    H2 8277   2.116   0.762   4.112
 2798TIP3   OH2 8278   2.699   0.807   4.246
 2798TIP3    H1 8279   2.770   0.786   4.307
 2798TIP3    H2 8280   2.619   0.789   4.296
 2799TIP3   OH2 8281   2.918   1.287   4.217
 2799TIP3    H1 8282   2.903   1.237   4.297
 2799TIP3    H2 8283   2.830   1.310   4.186
 2800TIP3   OH2 8284   2.598   1.328   2.725
 2800TIP3    H1 8285   2.569   1.321   2.634
 2800TIP3    H2 8286   2.684   1.371   2.719
 2801TIP3   OH2 8287   2.120   1.242   4.070
 2801TIP3    H1 8288   2.065   1.247   4.148
 2801TIP3    H2 8289   2.113   1.329   4.031
 2802TIP3   OH2 8290   1.989   1.106   3.597
 2802TIP3    H1 8291   1.906   1.063   3.615
 2802TIP3    H2 8292   2.003   1.094   3.503
 2803TIP3   OH2 8293   2.442   1.151   3.276
 2803TIP3    H1 8294   2.415   1.242   3.258
 2803TIP3    H2 8295   2.524   1.141   3.228
 2804TIP3   OH2 8296   2.659   1.430   4.393
 2804TIP3    H1 8297   2.630   1.363   4.454
 2804TIP3    H2 8298   2.750   1.446   4.415
 2805TIP3   OH2 8299   1.949   1.264   4.275
 2805TIP3    H1 8300   1.930   1.341   4.328
 2805TIP3    H2 8301   1.926   1.189   4.331
 2806TIP3   OH2 8302   2.663   1.441   3.969
 2806TIP3    H1 8303   2.704   1.360   3.936
 2806TIP3    H2 8304   2.603   1.411   4.038
 2807TIP3   OH2 8305   2.401   0.899   3.640
 2807TIP3    H1 8306   2.358   0.907   3.725
 2807TIP3    H2 8307   2.482   0.951   3.649
 2808TIP3   OH2 8308   1.778   0.925   3.648
 2808TIP3    H1 8309   1.697   0.896   3.605
 2808TIP3    H2 8310   1.837   0.850   3.641
 2809TIP3   OH2 8311   2.024   1.025   3.332
 2809TIP3    H1 8312   2.117   1.017   3.353
 2809TIP3    H2 8313   2.006   0.952   3.272
 2810TIP3   OH2 8314   2.989   2.674   4.081
 2810TIP3    H1 8315   2.991   2.678   3.985
 2810TIP3    H2 8316   3.070   2.716   4.108
 2811TIP3   OH2 8317   1.944   1.783   4.480
 2811TIP3    H1 8318   2.022   1.803   4.532
 2811TIP3    H2 8319   1.871   1.798   4.540
 2812TIP3   OH2 8320   2.408   1.235   3.755
 2812TIP3    H1 8321   2.479   1.192   3.708
 2812TIP3    H2 8322   2.405   1.190   3.840
 2813TIP3   OH2 8323   2.006   0.719   3.605
 2813TIP3    H1 8324   2.077   0.667   3.644
 2813TIP3    H2 8325   2.027   0.722   3.512
 2814TIP3   OH2 8326   2.370   1.141   4.022
 2814TIP3    H1 8327   2.281   1.175   4.033
 2814TIP3    H2 8328   2.425   1.202   4.070
 2815TIP3   OH2 8329   2.090   1.563   3.145
 2815TIP3    H1 8330   2.050   1.476   3.144
 2815TIP3    H2 8331   2.079   1.594   3.234
 2816TIP3   OH2 8332   2.999   1.758   3.735
 2816TIP3    H1 8333   3.033   1.813   3.664
 2816TIP3    H2 8334   2.922   1.716   3.697
 2817TIP3   OH2 8335   2.563   0.858   3.025
 2817TIP3    H1 8336   2.490   0.875   2.966
 2817TIP3    H2 8337   2.599   0.945   3.045
 2818TIP3   OH2 8338   2.575   1.875   4.164
 2818TIP3    H1 8339   2.593   1.834   4.248
 2818TIP3    H2 8340   2.523   1.953   4.184
 2819TIP3   OH2 8341   2.662   1.100   3.110
 2819TIP3    H1 8342   2.755   1.106   3.129
 2819TIP3    H2 8343   2.642   1.180   3.061
 2820TIP3   OH2 8344   1.765   1.473   3.802
 2820TIP3    H1 8345   1.820   1.480   3.724
 2820TIP3    H2 8346   1.826   1.484   3.875
 2821TIP3   OH2 8347   2.265   1.695   2.982
 2821TIP3    H1 8348   2.225   1.782   2.975
 2821TIP3    H2 8349   2.205   1.645   3.036
 2822TIP3   OH2 8350   1.669   1.458   4.409
 2822TIP3    H1 8351   1.664   1.425   4.498
 2822TIP3    H2 8352   1.592   1.421   4.365
 2823TIP3   OH2 8353   2.437   1.611   4.425
 2823TIP3    H1 8354   2.375   1.552   4.381
 2823TIP3    H2 8355   2.522   1.573   4.407
 2824TIP3   OH2 8356   3.054   1.187   2.916
 2824TIP3    H1 8357   2.997   1.145   2.851
 2824TIP3    H2 8358   3.057   1.279   2.890
 2825TIP3   OH2 8359   3.308   2.097   3.996
 2825TIP3    H1 8360   3.217   2.065   4.001
 2825TIP3    H2 8361   3.344   2.054   3.919
 2826TIP3   OH2 8362   2.781   1.996   2.867
 2826TIP3    H1 8363   2.755   1.926   2.927
 2826TIP3    H2 8364   2.805   1.951   2.786
 2827TIP3   OH2 8365   2.773   1.618   3.621
 2827TIP3    H1 8366   2.681   1.604   3.645
 2827TIP3    H2 8367   2.802   1.535   3.584
 2828TIP3   OH2 8368   1.874   1.874   3.442
 2828TIP3    H1 8369   1.881   1.954   3.390
 2828TIP3    H2 8370   1.794   1.832   3.412
 2829TIP3   OH2 8371   2.026   1.644   3.396
 2829TIP3    H1 8372   1.990   1.730   3.419
 2829TIP3    H2 8373   1.997   1.586   3.466
 2830TIP3   OH2 8374   2.157   2.203   3.863
 2830TIP3    H1 8375   2.243   2.244   3.860
 2830TIP3    H2 8376   2.172   2.119   3.906
 2831TIP3   OH2 8377   1.830   2.106   3.292
 2831TIP3    H1 8378   1.744   2.115   3.334
 2831TIP3    H2 8379   1.868   2.193   3.297
 2832TIP3   OH2 8380   2.573   1.867   3.882
 2832TIP3    H1 8381   2.566   1.868   3.977
 2832TIP3    H2 8382   2.658   1.826   3.864
 2833TIP3   OH2 8383   2.543   1.721   2.757
 2833TIP3    H1 8384   2.606   1.701   2.826
 2833TIP3    H2 8385   2.461   1.680   2.786
 2834TIP3   OH2 8386   2.855   2.196   2.556
 2834TIP3    H1 8387   2.865   2.251   2.478
 2834TIP3    H2 8388   2.786   2.239   2.606
 2835TIP3   OH2 8389   1.892   1.037   4.421
 2835TIP3    H1 8390   1.796   1.037   4.413
 2835TIP3    H2 8391   1.910   0.964   4.481
 2836TIP3   OH2 8392   2.732   1.658   2.941
 2836TIP3    H1 8393   2.716   1.608   3.022
 2836TIP3    H2 8394   2.827   1.664   2.935
 2837TIP3   OH2 8395   1.642   2.067   4.061
 2837TIP3    H1 8396   1.653   2.010   4.137
 2837TIP3    H2 8397   1.724   2.115   4.054
 2838TIP3   OH2 8398   1.906   1.712   2.754
 2838TIP3    H1 8399   1.943   1.628   2.726
 2838TIP3    H2 8400   1.899   1.705   2.849
 2839TIP3   OH2 8401   1.876   1.708   3.025
 2839TIP3    H1 8402   1.947   1.668   3.075
 2839TIP3    H2 8403   1.881   1.801   3.048
 2840TIP3   OH2 8404   1.619   1.447   3.265
 2840TIP3    H1 8405   1.547   1.488   3.313
 2840TIP3    H2 8406   1.622   1.493   3.181
 2841TIP3   OH2 8407   2.713   1.072   4.170
 2841TIP3    H1 8408   2.761   1.085   4.252
 2841TIP3    H2 8409   2.697   0.977   4.166
 2842TIP3   OH2 8410   2.619   0.795   3.289
 2842TIP3    H1 8411   2.591   0.806   3.198
 2842TIP3    H2 8412   2.639   0.884   3.319
 2843TIP3   OH2 8413   2.125   1.922   2.943
 2843TIP3    H1 8414   2.044   1.947   2.989
 2843TIP3    H2 8415   2.108   1.943   2.851
 2844TIP3   OH2 8416   2.282   0.977   3.403
 2844TIP3    H1 8417   2.340   1.038   3.358
 2844TIP3    H2 8418   2.325   0.960   3.487
 2845TIP3   OH2 8419   2.547   1.293   4.175
 2845TIP3    H1 8420   2.578   1.340   4.253
 2845TIP3    H2 8421   2.598   1.212   4.174
 2846TIP3   OH2 8422   2.453   0.680   3.482
 2846TIP3    H1 8423   2.441   0.756   3.539
 2846TIP3    H2 8424   2.516   0.709   3.416
 2847TIP3   OH2 8425   1.880   1.984   3.053
 2847TIP3    H1 8426   1.848   2.050   2.991
 2847TIP3    H2 8427   1.864   2.022   3.139
 2848TIP3   OH2 8428   3.169   1.192   4.086
 2848TIP3    H1 8429   3.140   1.102   4.070
 2848TIP3    H2 8430   3.257   1.196   4.048
 2849TIP3   OH2 8431   2.831   1.342   3.550
 2849TIP3    H1 8432   2.768   1.272   3.569
 2849TIP3    H2 8433   2.912   1.314   3.593
 2850TIP3   OH2 8434   1.616   1.615   3.042
 2850TIP3    H1 8435   1.707   1.645   3.042
 2850TIP3    H2 8436   1.584   1.638   2.955
 2851TIP3   OH2 8437   2.833   2.356   3.495
 2851TIP3    H1 8438   2.790   2.413   3.431
 2851TIP3    H2 8439   2.927   2.368   3.479
 2852TIP3   OH2 8440   1.887   0.605   3.967
 2852TIP3    H1 8441   1.882   0.578   3.876
 2852TIP3    H2 8442   1.869   0.524   4.017
 2853TIP3   OH2 8443   1.430   1.884   3.415
 2853TIP3    H1 8444   1.384   1.914   3.494
 2853TIP3    H2 8445   1.379   1.919   3.342
 2854TIP3   OH2 8446   1.624   2.381   4.491
 2854TIP3    H1 8447   1.708   2.378   4.537
 2854TIP3    H2 8448   1.598   2.289   4.483
 2855TIP3   OH2 8449   2.091   2.306   4.518
 2855TIP3    H1 8450   2.180   2.273   4.532
 2855TIP3    H2 8451   2.054   2.247   4.452
 2856TIP3   OH2 8452   2.064   1.918   2.661
 2856TIP3    H1 8453   2.009   1.845   2.690
 2856TIP3    H2 8454   2.135   1.876   2.612
 2857TIP3   OH2 8455   2.473   1.943   2.616
 2857TIP3    H1 8456   2.506   1.874   2.673
 2857TIP3    H2 8457   2.542   1.954   2.550
 2858TIP3   OH2 8458   1.734   1.800   4.666
 2858TIP3    H1 8459   1.751   1.707   4.677
 2858TIP3    H2 8460   1.648   1.804   4.624
 2859TIP3   OH2 8461   2.350   1.879   4.459
 2859TIP3    H1 8462   2.301   1.900   4.379
 2859TIP3    H2 8463   2.389   1.793   4.441
 2860TIP3   OH2 8464   2.244   1.633   2.716
 2860TIP3    H1 8465   2.246   1.657   2.808
 2860TIP3    H2 8466   2.261   1.538   2.715
 2861TIP3   OH2 8467   2.832   1.883   4.069
 2861TIP3    H1 8468   2.862   1.974   4.065
 2861TIP3    H2 8469   2.742   1.889   4.100
 2862TIP3   OH2 8470   1.846   1.547   4.683
 2862TIP3    H1 8471   1.924   1.510   4.641
 2862TIP3    H2 8472   1.874   1.563   4.774
 2863TIP3   OH2 8473   1.990   1.313   3.174
 2863TIP3    H1 8474   1.930   1.309   3.249
 2863TIP3    H2 8475   2.018   1.223   3.162
 2864TIP3   OH2 8476   2.727   1.771   4.415
 2864TIP3    H1 8477   2.808   1.739   4.375
 2864TIP3    H2 8478   2.723   1.726   4.500
 2865TIP3   OH2 8479   2.826   1.455   2.621
 2865TIP3    H1 8480   2.821   1.411   2.536
 2865TIP3    H2 8481   2.796   1.545   2.603
 2866TIP3   OH2 8482   2.312   1.188   4.427
 2866TIP3    H1 8483   2.323   1.102   4.386
 2866TIP3    H2 8484   2.262   1.239   4.362
 2867TIP3   OH2 8485   2.319   0.976   4.246
 2867TIP3    H1 8486   2.347   1.011   4.161
 2867TIP3    H2 8487   2.229   0.949   4.233
 2868TIP3   OH2 8488   2.908   1.440   4.525
 2868TIP3    H1 8489   2.958   1.358   4.523
 2868TIP3    H2 8490   2.950   1.491   4.594
 2869TIP3   OH2 8491   2.961   1.707   4.229
 2869TIP3    H1 8492   2.913   1.772   4.177
 2869TIP3    H2 8493   3.053   1.729   4.216
 2870TIP3   OH2 8494   2.215   1.280   4.675
 2870TIP3    H1 8495   2.150   1.215   4.702
 2870TIP3    H2 8496   2.241   1.253   4.587
 2871TIP3   OH2 8497   2.450   0.761   4.354
 2871TIP3    H1 8498   2.409   0.840   4.320
 2871TIP3    H2 8499   2.388   0.690   4.335
 2872TIP3   OH2 8500   2.568   1.221   4.544
 2872TIP3    H1 8501   2.557   1.206   4.638
 2872TIP3    H2 8502   2.481   1.205   4.507
 2873TIP3   OH2 8503   2.814   1.144   4.425
 2873TIP3    H1 8504   2.735   1.159   4.477
 2873TIP3    H2 8505   2.884   1.135   4.489
 2874TIP3   OH2 8506   3.053   1.152   4.578
 2874TIP3    H1 8507   3.066   1.057   4.581
 2874TIP3    H2 8508   3.049   1.179   4.669
 2875TIP3   OH2 8509   2.062   1.068   4.753
 2875TIP3    H1 8510   2.041   0.980   4.723
 2875TIP3    H2 8511   2.089   1.057   4.844
 2876TIP3   OH2 8512   2.506   0.726   4.620
 2876TIP3    H1 8513   2.577   0.663   4.613
 2876TIP3    H2 8514   2.480   0.743   4.529
 2877TIP3   OH2 8515   2.607   0.940   4.763
 2877TIP3    H1 8516   2.574   0.867   4.710
 2877TIP3    H2 8517   2.534   1.002   4.765
 2878TIP3   OH2 8518   1.828   2.186   2.875
 2878TIP3    H1 8519   1.908   2.200   2.824
 2878TIP3    H2 8520   1.757   2.213   2.817
 2879TIP3   OH2 8521   1.225   2.168   3.498
 2879TIP3    H1 8522   1.160   2.116   3.449
 2879TIP3    H2 8523   1.262   2.106   3.561
 2880TIP3   OH2 8524   1.365   2.000   3.671
 2880TIP3    H1 8525   1.353   1.931   3.735
 2880TIP3    H2 8526   1.421   2.064   3.715
 2881TIP3   OH2 8527   3.100   2.412   3.474
 2881TIP3    H1 8528   3.122   2.428   3.565
 2881TIP3    H2 8529   3.168   2.458   3.424
 2882TIP3   OH2 8530   3.123   2.422   3.752
 2882TIP3    H1 8531   3.069   2.343   3.762
 2882TIP3    H2 8532   3.192   2.411   3.817
 2883TIP3   OH2 8533   3.009   1.656   2.947
 2883TIP3    H1 8534   3.069   1.726   2.920
 2883TIP3    H2 8535   3.051   1.617   3.023
 2884TIP3   OH2 8536   3.125   1.503   3.150
 2884TIP3    H1 8537   3.057   1.462   3.204
 2884TIP3    H2 8538   3.189   1.537   3.212
 2885TIP3   OH2 8539   3.179   1.906   3.579
 2885TIP3    H1 8540   3.237   1.840   3.541
 2885TIP3    H2 8541   3.182   1.979   3.516
 2886TIP3   OH2 8542   2.969   2.185   3.786
 2886TIP3    H1 8543   2.897   2.213   3.843
 2886TIP3    H2 8544   2.926   2.148   3.709
 2887TIP3   OH2 8545   3.037   1.432   2.794
 2887TIP3    H1 8546   2.962   1.431   2.734
 2887TIP3    H2 8547   3.024   1.509   2.848
 2888TIP3   OH2 8548   2.902   1.092   2.709
 2888TIP3    H1 8549   2.897   1.103   2.614
 2888TIP3    H2 8550   2.870   1.003   2.726
 2889TIP3   OH2 8551   2.924   1.361   3.285
 2889TIP3    H1 8552   2.928   1.269   3.257
 2889TIP3    H2 8553   2.892   1.356   3.376
 2890TIP3   OH2 8554   1.565   1.412   4.026
 2890TIP3    H1 8555   1.538   1.377   3.941
 2890TIP3    H2 8556   1.650   1.453   4.009
 2891TIP3   OH2 8557   3.199   1.805   4.114
 2891TIP3    H1 8558   3.278   1.777   4.067
 2891TIP3    H2 8559   3.150   1.857   4.050
 2892TIP3   OH2 8560   2.823   0.839   2.780
 2892TIP3    H1 8561   2.910   0.805   2.798
 2892TIP3    H2 8562   2.766   0.793   2.841
 2893TIP3   OH2 8563   2.935   1.107   3.159
 2893TIP3    H1 8564   2.971   1.022   3.184
 2893TIP3    H2 8565   2.983   1.130   3.079
 2894TIP3   OH2 8566   3.071   1.266   3.664
 2894TIP3    H1 8567   3.156   1.287   3.626
 2894TIP3    H2 8568   3.086   1.266   3.759
 2895TIP3   OH2 8569   3.145   1.433   3.921
 2895TIP3    H1 8570   3.062   1.481   3.926
 2895TIP3    H2 8571   3.198   1.484   3.860
 2896TIP3   OH2 8572   1.812   1.187   4.734
 2896TIP3    H1 8573   1.905   1.172   4.717
 2896TIP3    H2 8574   1.778   1.103   4.764
 2897TIP3   OH2 8575   3.609   0.999   4.448
 2897TIP3    H1 8576   3.676   0.943   4.407
 2897TIP3    H2 8577   3.573   1.049   4.375
 2898TIP3   OH2 8578   3.038   0.847   3.212
 2898TIP3    H1 8579   3.077   0.831   3.297
 2898TIP3    H2 8580   2.971   0.778   3.203
 2899TIP3   OH2 8581   1.758   0.822   4.085
 2899TIP3    H1 8582   1.794   0.747   4.038
 2899TIP3    H2 8583   1.800   0.898   4.044
 2900TIP3   OH2 8584   1.541   1.130   4.085
 2900TIP3    H1 8585   1.590   1.102   4.007
 2900TIP3    H2 8586   1.548   1.225   4.084
 2901TIP3   OH2 8587   3.448   1.121   4.260
 2901TIP3    H1 8588   3.381   1.159   4.317
 2901TIP3    H2 8589   3.403   1.048   4.217
 2902TIP3   OH2 8590   3.083   0.758   2.834
 2902TIP3    H1 8591   3.128   0.709   2.766
 2902TIP3    H2 8592   3.141   0.833   2.853
 2903TIP3   OH2 8593   2.663   2.333   3.127
 2903TIP3    H1 8594   2.712   2.309   3.049
 2903TIP3    H2 8595   2.720   2.394   3.174
 2904TIP3   OH2 8596   1.823   0.762   4.346
 2904TIP3    H1 8597   1.742   0.756   4.396
 2904TIP3    H2 8598   1.794   0.773   4.255
 2905TIP3   OH2 8599   1.773   2.112   4.525
 2905TIP3    H1 8600   1.686   2.089   4.493
 2905TIP3    H2 8601   1.771   2.091   4.618
 2906TIP3   OH2 8602   1.914   2.135   4.069
 2906TIP3    H1 8603   1.937   2.210   4.014
 2906TIP3    H2 8604   1.966   2.063   4.034
 2907TIP3   OH2 8605   2.396   2.397   4.213
 2907TIP3    H1 8606   2.450   2.382   4.290
 2907TIP3    H2 8607   2.451   2.448   4.154
 2908TIP3   OH2 8608   2.561   2.546   4.053
 2908TIP3    H1 8609   2.609   2.483   4.000
 2908TIP3    H2 8610   2.629   2.592   4.103
 2909TIP3   OH2 8611   3.359   0.861   4.160
 2909TIP3    H1 8612   3.274   0.835   4.124
 2909TIP3    H2 8613   3.413   0.782   4.154
 2910TIP3   OH2 8614   1.644   2.440   4.071
 2910TIP3    H1 8615   1.548   2.442   4.065
 2910TIP3    H2 8616   1.664   2.482   4.155
 2911TIP3   OH2 8617   1.878   2.384   3.937
 2911TIP3    H1 8618   1.796   2.394   3.987
 2911TIP3    H2 8619   1.853   2.405   3.846
 2912TIP3   OH2 8620   2.310   2.426   3.729
 2912TIP3    H1 8621   2.228   2.419   3.680
 2912TIP3    H2 8622   2.303   2.508   3.777
 2913TIP3   OH2 8623   2.567   2.359   3.810
 2913TIP3    H1 8624   2.482   2.381   3.774
 2913TIP3    H2 8625   2.628   2.422   3.769
 2914TIP3   OH2 8626   2.754   2.540   3.692
 2914TIP3    H1 8627   2.750   2.620   3.640
 2914TIP3    H2 8628   2.781   2.472   3.629
 2915TIP3   OH2 8629   1.549   2.170   3.817
 2915TIP3    H1 8630   1.572   2.147   3.907
 2915TIP3    H2 8631   1.621   2.135   3.764
 2916TIP3   OH2 8632   1.754   2.058   3.675
 2916TIP3    H1 8633   1.781   1.967   3.689
 2916TIP3    H2 8634   1.836   2.106   3.663
 2917TIP3   OH2 8635   2.008   2.162   3.641
 2917TIP3    H1 8636   2.054   2.088   3.600
 2917TIP3    H2 8637   2.052   2.173   3.726
 2918TIP3   OH2 8638   3.099   0.698   3.670
 2918TIP3    H1 8639   3.129   0.750   3.596
 2918TIP3    H2 8640   3.006   0.716   3.676
 2919TIP3   OH2 8641   3.197   0.789   3.431
 2919TIP3    H1 8642   3.265   0.727   3.402
 2919TIP3    H2 8643   3.236   0.875   3.418
 2920TIP3   OH2 8644   2.245   0.613   3.694
 2920TIP3    H1 8645   2.312   0.623   3.626
 2920TIP3    H2 8646   2.293   0.598   3.775
 2921TIP3   OH2 8647   2.828   0.718   3.678
 2921TIP3    H1 8648   2.750   0.772   3.667
 2921TIP3    H2 8649   2.796   0.637   3.718
 2922TIP3   OH2 8650   2.846   0.642   3.208
 2922TIP3    H1 8651   2.769   0.694   3.233
 2922TIP3    H2 8652   2.834   0.559   3.253
 2923TIP3   OH2 8653   1.296   1.975   3.190
 2923TIP3    H1 8654   1.227   1.928   3.143
 2923TIP3    H2 8655   1.287   2.066   3.162
 2924TIP3   OH2 8656   2.191   0.722   3.368
 2924TIP3    H1 8657   2.271   0.673   3.385
 2924TIP3    H2 8658   2.218   0.814   3.365
 2925TIP3   OH2 8659   2.079   2.177   2.759
 2925TIP3    H1 8660   2.172   2.194   2.743
 2925TIP3    H2 8661   2.062   2.093   2.715
 2926TIP3   OH2 8662   2.809   2.265   2.902
 2926TIP3    H1 8663   2.804   2.170   2.895
 2926TIP3    H2 8664   2.767   2.297   2.822
 2927TIP3   OH2 8665   2.046   0.794   4.691
 2927TIP3    H1 8666   2.018   0.724   4.749
 2927TIP3    H2 8667   2.139   0.806   4.711
 2928TIP3   OH2 8668   2.300   0.791   4.800
 2928TIP3    H1 8669   2.373   0.766   4.743
 2928TIP3    H2 8670   2.301   0.727   4.871
 2929TIP3   OH2 8671   1.468   2.001   2.874
 2929TIP3    H1 8672   1.447   1.977   2.965
 2929TIP3    H2 8673   1.531   1.935   2.846
 2930TIP3   OH2 8674   3.109   0.877   4.568
 2930TIP3    H1 8675   3.124   0.847   4.658
 2930TIP3    H2 8676   3.195   0.870   4.526
 2931TIP3   OH2 8677   3.034   2.394   4.060
 2931TIP3    H1 8678   2.965   2.333   4.085
 2931TIP3    H2 8679   3.004   2.479   4.090
 2932TIP3   OH2 8680   4.301   1.750   2.812
 2932TIP3    H1 8681   4.270   1.840   2.804
 2932TIP3    H2 8682   4.247   1.700   2.751
 2933TIP3   OH2 8683   4.307   1.789   3.248
 2933TIP3    H1 8684   4.364   1.771   3.323
 2933TIP3    H2 8685   4.264   1.706   3.229
 2934TIP3   OH2 8686   3.620   1.673   3.618
 2934TIP3    H1 8687   3.650   1.599   3.672
 2934TIP3    H2 8688   3.687   1.683   3.551
 2935TIP3   OH2 8689   4.558   2.101   2.915
 2935TIP3    H1 8690   4.558   2.032   2.981
 2935TIP3    H2 8691   4.586   2.180   2.962
 2936TIP3   OH2 8692   3.592   2.079   3.280
 2936TIP3    H1 8693   3.577   1.984   3.281
 2936TIP3    H2 8694   3.687   2.087   3.271
 2937TIP3   OH2 8695   3.285   1.287   3.059
 2937TIP3    H1 8696   3.241   1.367   3.088
 2937TIP3    H2 8697   3.217   1.235   3.017
 2938TIP3   OH2 8698   3.360   1.584   3.285
 2938TIP3    H1 8699   3.408   1.504   3.308
 2938TIP3    H2 8700   3.424   1.637   3.238
 2939TIP3   OH2 8701   4.247   2.509   2.923
 2939TIP3    H1 8702   4.272   2.442   2.860
 2939TIP3    H2 8703   4.253   2.465   3.008
 2940TIP3   OH2 8704   4.110   2.005   3.255
 2940TIP3    H1 8705   4.158   1.926   3.228
 2940TIP3    H2 8706   4.179   2.065   3.283
 2941TIP3   OH2 8707   5.150   1.325   3.264
 2941TIP3    H1 8708   5.165   1.411   3.304
 2941TIP3    H2 8709   5.180   1.335   3.174
 2942TIP3   OH2 8710   4.516   1.496   3.283
 2942TIP3    H1 8711   4.550   1.409   3.306
 2942TIP3    H2 8712   4.483   1.486   3.194
 2943TIP3   OH2 8713   3.872   1.153   3.243
 2943TIP3    H1 8714   3.860   1.225   3.181
 2943TIP3    H2 8715   3.817   1.082   3.208
 2944TIP3   OH2 8716   4.561   1.285   2.877
 2944TIP3    H1 8717   4.619   1.274   2.952
 2944TIP3    H2 8718   4.618   1.311   2.805
 2945TIP3   OH2 8719   3.502   1.364   3.372
 2945TIP3    H1 8720   3.585   1.341   3.415
 2945TIP3    H2 8721   3.505   1.317   3.289
 2946TIP3   OH2 8722   3.917   1.569   3.194
 2946TIP3    H1 8723   4.012   1.557   3.199
 2946TIP3    H2 8724   3.884   1.488   3.155
 2947TIP3   OH2 8725   5.204   1.547   3.430
 2947TIP3    H1 8726   5.115   1.583   3.425
 2947TIP3    H2 8727   5.240   1.584   3.510
 2948TIP3   OH2 8728   3.860   1.155   3.692
 2948TIP3    H1 8729   3.809   1.191   3.620
 2948TIP3    H2 8730   3.805   1.168   3.769
 2949TIP3   OH2 8731   4.193   1.999   2.704
 2949TIP3    H1 8732   4.153   1.977   2.620
 2949TIP3    H2 8733   4.145   2.075   2.735
 2950TIP3   OH2 8734   3.954   1.926   3.471
 2950TIP3    H1 8735   3.899   1.999   3.501
 2950TIP3    H2 8736   4.003   1.963   3.397
 2951TIP3   OH2 8737   4.717   1.289   3.103
 2951TIP3    H1 8738   4.683   1.262   3.188
 2951TIP3    H2 8739   4.779   1.359   3.123
 2952TIP3   OH2 8740   3.747   1.262   3.463
 2952TIP3    H1 8741   3.803   1.336   3.484
 2952TIP3    H2 8742   3.791   1.219   3.389
 2953TIP3   OH2 8743   3.795   2.134   3.567
 2953TIP3    H1 8744   3.781   2.223   3.536
 2953TIP3    H2 8745   3.718   2.115   3.621
 2954TIP3   OH2 8746   3.179   1.845   2.826
 2954TIP3    H1 8747   3.140   1.863   2.740
 2954TIP3    H2 8748   3.201   1.931   2.861
 2955TIP3   OH2 8749   4.606   2.345   3.057
 2955TIP3    H1 8750   4.518   2.339   3.094
 2955TIP3    H2 8751   4.608   2.430   3.012
 2956TIP3   OH2 8752   4.949   1.220   3.434
 2956TIP3    H1 8753   4.864   1.239   3.395
 2956TIP3    H2 8754   5.012   1.246   3.367
 2957TIP3   OH2 8755   4.201   0.850   3.428
 2957TIP3    H1 8756   4.194   0.757   3.449
 2957TIP3    H2 8757   4.122   0.889   3.465
 2958TIP3   OH2 8758   4.333   2.344   2.709
 2958TIP3    H1 8759   4.388   2.267   2.697
 2958TIP3    H2 8760   4.390   2.418   2.685
 2959TIP3   OH2 8761   4.452   2.080   2.664
 2959TIP3    H1 8762   4.364   2.052   2.689
 2959TIP3    H2 8763   4.501   2.083   2.747
 2960TIP3   OH2 8764   4.844   2.230   3.402
 2960TIP3    H1 8765   4.826   2.155   3.345
 2960TIP3    H2 8766   4.831   2.306   3.346
 2961TIP3   OH2 8767   4.197   1.673   2.547
 2961TIP3    H1 8768   4.116   1.714   2.575
 2961TIP3    H2 8769   4.171   1.586   2.516
 2962TIP3   OH2 8770   4.137   1.441   2.413
 2962TIP3    H1 8771   4.121   1.391   2.493
 2962TIP3    H2 8772   4.204   1.390   2.367
 2963TIP3   OH2 8773   5.024   1.890   3.271
 2963TIP3    H1 8774   4.939   1.935   3.268
 2963TIP3    H2 8775   5.059   1.900   3.183
 2964TIP3   OH2 8776   4.724   1.750   3.583
 2964TIP3    H1 8777   4.719   1.834   3.629
 2964TIP3    H2 8778   4.643   1.746   3.532
 2965TIP3   OH2 8779   3.724   1.703   3.034
 2965TIP3    H1 8780   3.684   1.642   2.971
 2965TIP3    H2 8781   3.795   1.653   3.075
 2966TIP3   OH2 8782   3.856   2.125   3.182
 2966TIP3    H1 8783   3.833   2.109   3.090
 2966TIP3    H2 8784   3.942   2.085   3.192
 2967TIP3   OH2 8785   3.815   1.696   3.417
 2967TIP3    H1 8786   3.853   1.659   3.337
 2967TIP3    H2 8787   3.866   1.775   3.433
 2968TIP3   OH2 8788   4.364   2.341   3.183
 2968TIP3    H1 8789   4.354   2.420   3.236
 2968TIP3    H2 8790   4.351   2.269   3.245
 2969TIP3   OH2 8791   3.995   2.232   3.733
 2969TIP3    H1 8792   3.935   2.289   3.780
 2969TIP3    H2 8793   3.940   2.180   3.675
 2970TIP3   OH2 8794   3.752   1.802   3.857
 2970TIP3    H1 8795   3.740   1.889   3.895
 2970TIP3    H2 8796   3.686   1.796   3.788
 2971TIP3   OH2 8797   4.074   2.250   2.729
 2971TIP3    H1 8798   4.160   2.292   2.726
 2971TIP3    H2 8799   4.016   2.310   2.682
 2972TIP3   OH2 8800   3.788   2.391   3.819
 2972TIP3    H1 8801   3.759   2.401   3.728
 2972TIP3    H2 8802   3.708   2.374   3.868
 2973TIP3   OH2 8803   4.826   0.805   2.531
 2973TIP3    H1 8804   4.749   0.830   2.583
 2973TIP3    H2 8805   4.845   0.883   2.479
 2974TIP3   OH2 8806   3.593   1.543   2.842
 2974TIP3    H1 8807   3.514   1.587   2.810
 2974TIP3    H2 8808   3.569   1.451   2.846
 2975TIP3   OH2 8809   4.663   2.188   2.085
 2975TIP3    H1 8810   4.656   2.279   2.058
 2975TIP3    H2 8811   4.752   2.162   2.062
 2976TIP3   OH2 8812   3.380   1.944   3.780
 2976TIP3    H1 8813   3.306   1.927   3.721
 2976TIP3    H2 8814   3.388   1.864   3.832
 2977TIP3   OH2 8815   3.251   2.126   3.412
 2977TIP3    H1 8816   3.345   2.123   3.396
 2977TIP3    H2 8817   3.237   2.205   3.463
 2978TIP3   OH2 8818   5.072   2.591   3.472
 2978TIP3    H1 8819   5.078   2.496   3.485
 2978TIP3    H2 8820   4.994   2.617   3.520
 2979TIP3   OH2 8821   4.181   2.381   3.597
 2979TIP3    H1 8822   4.171   2.471   3.627
 2979TIP3    H2 8823   4.115   2.332   3.646
 2980TIP3   OH2 8824   3.967   2.476   2.560
 2980TIP3    H1 8825   3.924   2.458   2.476
 2980TIP3    H2 8826   3.928   2.558   2.589
 2981TIP3   OH2 8827   3.395   2.335   2.929
 2981TIP3    H1 8828   3.439   2.327   3.014
 2981TIP3    H2 8829   3.346   2.254   2.920
 2982TIP3   OH2 8830   4.167   2.414   2.184
 2982TIP3    H1 8831   4.223   2.345   2.150
 2982TIP3    H2 8832   4.199   2.430   2.273
 2983TIP3   OH2 8833   4.219   2.456   2.453
 2983TIP3    H1 8834   4.134   2.457   2.497
 2983TIP3    H2 8835   4.280   2.421   2.519
 2984TIP3   OH2 8836   4.964   1.708   3.743
 2984TIP3    H1 8837   4.884   1.716   3.692
 2984TIP3    H2 8838   4.985   1.614   3.742
 2985TIP3   OH2 8839   3.580   2.129   3.740
 2985TIP3    H1 8840   3.624   2.123   3.825
 2985TIP3    H2 8841   3.509   2.065   3.746
 2986TIP3   OH2 8842   3.961   0.937   3.549
 2986TIP3    H1 8843   3.878   0.903   3.517
 2986TIP3    H2 8844   3.938   1.019   3.594
 2987TIP3   OH2 8845   4.499   1.071   3.754
 2987TIP3    H1 8846   4.570   1.043   3.812
 2987TIP3    H2 8847   4.419   1.050   3.801
 2988TIP3   OH2 8848   4.726   1.485   3.674
 2988TIP3    H1 8849   4.687   1.483   3.761
 2988TIP3    H2 8850   4.711   1.575   3.643
 2989TIP3   OH2 8851   4.404   1.653   2.295
 2989TIP3    H1 8852   4.348   1.619   2.224
 2989TIP3    H2 8853   4.489   1.667   2.254
 2990TIP3   OH2 8854   4.145   0.930   2.507
 2990TIP3    H1 8855   4.109   0.957   2.592
 2990TIP3    H2 8856   4.086   0.861   2.477
 2991TIP3   OH2 8857   3.902   1.471   3.554
 2991TIP3    H1 8858   3.860   1.477   3.640
 2991TIP3    H2 8859   3.877   1.552   3.509
 2992TIP3   OH2 8860   3.792   1.354   3.073
 2992TIP3    H1 8861   3.702   1.328   3.089
 2992TIP3    H2 8862   3.809   1.327   2.982
 2993TIP3   OH2 8863   4.446   1.694   3.882
 2993TIP3    H1 8864   4.419   1.626   3.943
 2993TIP3    H2 8865   4.539   1.708   3.902
 2994TIP3   OH2 8866   4.421   1.480   3.025
 2994TIP3    H1 8867   4.373   1.535   2.963
 2994TIP3    H2 8868   4.451   1.406   2.973
 2995TIP3   OH2 8869   3.735   1.474   3.778
 2995TIP3    H1 8870   3.798   1.521   3.832
 2995TIP3    H2 8871   3.718   1.393   3.825
 2996TIP3   OH2 8872   3.754   0.964   2.523
 2996TIP3    H1 8873   3.757   0.977   2.618
 2996TIP3    H2 8874   3.677   1.012   2.494
 2997TIP3   OH2 8875   3.332   1.010   3.358
 2997TIP3    H1 8876   3.406   1.043   3.409
 2997TIP3    H2 8877   3.370   0.985   3.274
 2998TIP3   OH2 8878   3.238   0.985   2.874
 2998TIP3    H1 8879   3.285   1.020   2.799
 2998TIP3    H2 8880   3.174   1.053   2.896
 2999TIP3   OH2 8881   4.474   1.697   3.459
 2999TIP3    H1 8882   4.497   1.630   3.394
 2999TIP3    H2 8883   4.429   1.648   3.528
 3000TIP3   OH2 8884   4.145   1.103   3.159
 3000TIP3    H1 8885   4.062   1.123   3.203
 3000TIP3    H2 8886   4.212   1.120   3.224
 3001TIP3   OH2 8887   3.548   1.236   3.131
 3001TIP3    H1 8888   3.458   1.241   3.096
 3001TIP3    H2 8889   3.573   1.145   3.118
 3002TIP3   OH2 8890   3.819   1.255   2.818
 3002TIP3    H1 8891   3.907   1.269   2.783
 3002TIP3    H2 8892   3.760   1.269   2.743
 3003TIP3   OH2 8893   4.594   1.238   3.352
 3003TIP3    H1 8894   4.572   1.260   3.442
 3003TIP3    H2 8895   4.530   1.171   3.328
 3004TIP3   OH2 8896   3.658   1.279   2.598
 3004TIP3    H1 8897   3.596   1.225   2.549
 3004TIP3    H2 8898   3.717   1.315   2.532
 3005TIP3   OH2 8899   4.789   2.936   3.562
 3005TIP3    H1 8900   4.787   2.950   3.467
 3005TIP3    H2 8901   4.868   2.982   3.591
 3006TIP3   OH2 8902   3.718   2.046   3.985
 3006TIP3    H1 8903   3.800   2.067   4.030
 3006TIP3    H2 8904   3.651   2.049   4.053
 3007TIP3   OH2 8905   4.193   1.524   3.239
 3007TIP3    H1 8906   4.254   1.478   3.182
 3007TIP3    H2 8907   4.194   1.475   3.321
 3008TIP3   OH2 8908   3.681   0.984   3.118
 3008TIP3    H1 8909   3.654   0.906   3.167
 3008TIP3    H2 8910   3.704   0.951   3.031
 3009TIP3   OH2 8911   4.167   1.412   3.498
 3009TIP3    H1 8912   4.079   1.441   3.522
 3009TIP3    H2 8913   4.225   1.464   3.554
 3010TIP3   OH2 8914   3.933   1.762   2.622
 3010TIP3    H1 8915   3.861   1.703   2.599
 3010TIP3    H2 8916   3.904   1.805   2.703
 3011TIP3   OH2 8917   4.789   2.028   3.222
 3011TIP3    H1 8918   4.828   2.076   3.149
 3011TIP3    H2 8919   4.711   1.987   3.185
 3012TIP3   OH2 8920   4.321   1.135   2.521
 3012TIP3    H1 8921   4.259   1.063   2.508
 3012TIP3    H2 8922   4.270   1.202   2.566
 3013TIP3   OH2 8923   4.310   2.113   3.635
 3013TIP3    H1 8924   4.364   2.101   3.713
 3013TIP3    H2 8925   4.270   2.199   3.646
 3014TIP3   OH2 8926   3.597   1.795   3.263
 3014TIP3    H1 8927   3.633   1.774   3.177
 3014TIP3    H2 8928   3.661   1.761   3.325
 3015TIP3   OH2 8929   4.059   1.943   2.466
 3015TIP3    H1 8930   4.009   2.024   2.463
 3015TIP3    H2 8931   4.002   1.882   2.514
 3016TIP3   OH2 8932   3.433   1.745   3.975
 3016TIP3    H1 8933   3.505   1.749   4.037
 3016TIP3    H2 8934   3.445   1.662   3.929
 3017TIP3   OH2 8935   4.229   1.866   3.905
 3017TIP3    H1 8936   4.177   1.844   3.827
 3017TIP3    H2 8937   4.310   1.816   3.894
 3018TIP3   OH2 8938   4.452   2.404   3.523
 3018TIP3    H1 8939   4.358   2.389   3.526
 3018TIP3    H2 8940   4.474   2.437   3.610
 3019TIP3   OH2 8941   4.841   1.443   2.421
 3019TIP3    H1 8942   4.780   1.400   2.361
 3019TIP3    H2 8943   4.851   1.532   2.385
 3020TIP3   OH2 8944   5.089   2.313   3.492
 3020TIP3    H1 8945   4.995   2.295   3.485
 3020TIP3    H2 8946   5.126   2.284   3.409
 3021TIP3   OH2 8947   4.580   2.260   2.344
 3021TIP3    H1 8948   4.582   2.185   2.403
 3021TIP3    H2 8949   4.605   2.224   2.259
 3022TIP3   OH2 8950   4.562   1.895   3.113
 3022TIP3    H1 8951   4.474   1.870   3.140
 3022TIP3    H2 8952   4.600   1.815   3.078
 3023TIP3   OH2 8953   3.715   2.124   2.935
 3023TIP3    H1 8954   3.712   2.201   2.879
 3023TIP3    H2 8955   3.625   2.111   2.964
 3024TIP3   OH2 8956   3.271   1.411   2.654
 3024TIP3    H1 8957   3.316   1.493   2.674
 3024TIP3    H2 8958   3.191   1.413   2.706
 3025TIP3   OH2 8959   3.807   1.883   2.833
 3025TIP3    H1 8960   3.789   1.971   2.866
 3025TIP3    H2 8961   3.780   1.825   2.904
 3026TIP3   OH2 8962   3.998   2.451   3.390
 3026TIP3    H1 8963   4.034   2.525   3.340
 3026TIP3    H2 8964   4.072   2.418   3.441
 3027TIP3   OH2 8965   3.632   2.349   2.789
 3027TIP3    H1 8966   3.545   2.356   2.826
 3027TIP3    H2 8967   3.668   2.438   2.793
 3028TIP3   OH2 8968   4.344   2.120   3.359
 3028TIP3    H1 8969   4.332   2.116   3.454
 3028TIP3    H2 8970   4.419   2.064   3.341
 3029TIP3   OH2 8971   4.355   1.991   2.237
 3029TIP3    H1 8972   4.377   1.980   2.329
 3029TIP3    H2 8973   4.271   1.946   2.226
 3030TIP3   OH2 8974   4.607   2.608   3.402
 3030TIP3    H1 8975   4.538   2.545   3.424
 3030TIP3    H2 8976   4.569   2.660   3.331
 3031TIP3   OH2 8977   4.651   2.458   2.034
 3031TIP3    H1 8978   4.668   2.517   1.961
 3031TIP3    H2 8979   4.581   2.501   2.084
 3032TIP3   OH2 8980   3.692   1.223   3.903
 3032TIP3    H1 8981   3.597   1.226   3.911
 3032TIP3    H2 8982   3.721   1.178   3.982
 3033TIP3   OH2 8983   4.489   1.870   2.489
 3033TIP3    H1 8984   4.481   1.940   2.553
 3033TIP3    H2 8985   4.581   1.872   2.463
 3034TIP3   OH2 8986   3.418   2.347   3.555
 3034TIP3    H1 8987   3.470   2.285   3.607
 3034TIP3    H2 8988   3.432   2.431   3.598
 3035TIP3   OH2 8989   3.704   1.959   2.261
 3035TIP3    H1 8990   3.719   1.869   2.233
 3035TIP3    H2 8991   3.687   1.952   2.355
 3036TIP3   OH2 8992   3.643   1.976   2.532
 3036TIP3    H1 8993   3.698   1.948   2.605
 3036TIP3    H2 8994   3.644   2.071   2.536
 3037TIP3   OH2 8995   3.368   1.663   2.729
 3037TIP3    H1 8996   3.305   1.712   2.782
 3037TIP3    H2 8997   3.390   1.722   2.657
 3038TIP3   OH2 8998   4.524   1.305   3.612
 3038TIP3    H1 8999   4.606   1.345   3.641
 3038TIP3    H2 9000   4.516   1.225   3.664
 3039TIP3   OH2 9001   4.421   1.063   2.782
 3039TIP3    H1 9002   4.386   1.093   2.698
 3039TIP3    H2 9003   4.461   1.141   2.821
 3040TIP3   OH2 9004   3.912   2.168   2.458
 3040TIP3    H1 9005   3.826   2.188   2.495
 3040TIP3    H2 9006   3.934   2.244   2.405
 3041TIP3   OH2 9007   4.365   1.535   3.654
 3041TIP3    H1 9008   4.392   1.576   3.737
 3041TIP3    H2 9009   4.415   1.454   3.650
 3042TIP3   OH2 9010   4.232   0.943   2.954
 3042TIP3    H1 9011   4.209   1.011   3.018
 3042TIP3    H2 9012   4.302   0.982   2.902
 3043TIP3   OH2 9013   3.661   2.249   2.535
 3043TIP3    H1 9014   3.638   2.320   2.476
 3043TIP3    H2 9015   3.649   2.286   2.623
 3044TIP3   OH2 9016   3.762   0.977   2.803
 3044TIP3    H1 9017   3.760   1.070   2.821
 3044TIP3    H2 9018   3.856   0.956   2.793
 3045TIP3   OH2 9019   4.991   1.432   3.651
 3045TIP3    H1 9020   4.896   1.439   3.663
 3045TIP3    H2 9021   5.001   1.378   3.573
 3046TIP3   OH2 9022   4.660   1.641   3.035
 3046TIP3    H1 9023   4.584   1.583   3.042
 3046TIP3    H2 9024   4.728   1.598   3.086
 3047TIP3   OH2 9025   3.398   1.846   2.517
 3047TIP3    H1 9026   3.467   1.911   2.529
 3047TIP3    H2 9027   3.437   1.782   2.457
 3048TIP3   OH2 9028   3.305   1.132   2.656
 3048TIP3    H1 9029   3.309   1.227   2.662
 3048TIP3    H2 9030   3.243   1.115   2.586
 3049TIP3   OH2 9031   4.631   2.610   2.974
 3049TIP3    H1 9032   4.590   2.660   2.904
 3049TIP3    H2 9033   4.725   2.623   2.960
 3050TIP3   OH2 9034   3.699   0.851   3.509
 3050TIP3    H1 9035   3.670   0.821   3.423
 3050TIP3    H2 9036   3.688   0.776   3.567
 3051TIP3   OH2 9037   3.221   2.115   2.905
 3051TIP3    H1 9038   3.174   2.149   2.981
 3051TIP3    H2 9039   3.175   2.154   2.830
 3052TIP3   OH2 9040   3.416   2.645   3.972
 3052TIP3    H1 9041   3.499   2.640   4.018
 3052TIP3    H2 9042   3.385   2.554   3.969
 3053TIP3   OH2 9043   3.891   2.555   4.015
 3053TIP3    H1 9044   3.982   2.526   4.026
 3053TIP3    H2 9045   3.858   2.501   3.942
 3054TIP3   OH2 9046   3.838   2.174   2.153
 3054TIP3    H1 9047   3.797   2.100   2.198
 3054TIP3    H2 9048   3.920   2.138   2.119
 3055TIP3   OH2 9049   4.507   2.495   3.776
 3055TIP3    H1 9050   4.523   2.425   3.839
 3055TIP3    H2 9051   4.580   2.555   3.788
 3056TIP3   OH2 9052   4.313   2.212   2.074
 3056TIP3    H1 9053   4.353   2.146   2.131
 3056TIP3    H2 9054   4.365   2.210   1.994
 3057TIP3   OH2 9055   3.513   2.055   4.175
 3057TIP3    H1 9056   3.482   1.985   4.233
 3057TIP3    H2 9057   3.439   2.071   4.116
 3058TIP3   OH2 9058   3.539   1.660   2.378
 3058TIP3    H1 9059   3.590   1.636   2.455
 3058TIP3    H2 9060   3.603   1.668   2.308
 3059TIP3   OH2 9061   4.146   2.133   3.943
 3059TIP3    H1 9062   4.102   2.153   3.860
 3059TIP3    H2 9063   4.187   2.048   3.928
 3060TIP3   OH2 9064   4.108   1.874   2.208
 3060TIP3    H1 9065   4.078   1.891   2.297
 3060TIP3    H2 9066   4.086   1.782   2.192
 3061TIP3   OH2 9067   4.622   2.179   3.559
 3061TIP3    H1 9068   4.700   2.204   3.509
 3061TIP3    H2 9069   4.558   2.247   3.541
 3062TIP3   OH2 9070   3.647   1.752   4.151
 3062TIP3    H1 9071   3.728   1.754   4.099
 3062TIP3    H2 9072   3.671   1.794   4.233
 3063TIP3   OH2 9073   3.710   1.599   2.587
 3063TIP3    H1 9074   3.683   1.568   2.673
 3063TIP3    H2 9075   3.746   1.521   2.544
 3064TIP3   OH2 9076   3.965   1.637   3.814
 3064TIP3    H1 9077   3.899   1.701   3.838
 3064TIP3    H2 9078   4.024   1.684   3.756
 3065TIP3   OH2 9079   3.821   1.408   2.419
 3065TIP3    H1 9080   3.807   1.416   2.325
 3065TIP3    H2 9081   3.916   1.397   2.429
 3066TIP3   OH2 9082   4.506   2.050   3.903
 3066TIP3    H1 9083   4.576   2.012   3.849
 3066TIP3    H2 9084   4.503   1.993   3.980
 3067TIP3   OH2 9085   4.617   1.704   2.128
 3067TIP3    H1 9086   4.605   1.651   2.050
 3067TIP3    H2 9087   4.601   1.794   2.098
 3068TIP3   OH2 9088   4.106   1.435   3.936
 3068TIP3    H1 9089   4.114   1.364   3.873
 3068TIP3    H2 9090   4.062   1.505   3.887
 3069TIP3   OH2 9091   4.118   1.243   3.730
 3069TIP3    H1 9092   4.148   1.276   3.645
 3069TIP3    H2 9093   4.028   1.214   3.714
 3070TIP3   OH2 9094   4.121   1.797   3.653
 3070TIP3    H1 9095   4.206   1.797   3.607
 3070TIP3    H2 9096   4.063   1.845   3.595
 3071TIP3   OH2 9097   4.713   1.729   3.978
 3071TIP3    H1 9098   4.745   1.639   3.982
 3071TIP3    H2 9099   4.792   1.781   3.962
 3072TIP3   OH2 9100   4.741   1.997   3.723
 3072TIP3    H1 9101   4.690   2.060   3.672
 3072TIP3    H2 9102   4.831   2.009   3.692
 3073TIP3   OH2 9103   3.994   1.525   4.180
 3073TIP3    H1 9104   3.919   1.468   4.201
 3073TIP3    H2 9105   4.020   1.498   4.092
 3074TIP3   OH2 9106   4.237   1.014   3.837
 3074TIP3    H1 9107   4.198   1.094   3.802
 3074TIP3    H2 9108   4.171   0.947   3.822
 3075TIP3   OH2 9109   4.362   1.482   4.037
 3075TIP3    H1 9110   4.352   1.470   4.131
 3075TIP3    H2 9111   4.276   1.461   4.000
 3076TIP3   OH2 9112   4.616   1.448   3.917
 3076TIP3    H1 9113   4.535   1.441   3.968
 3076TIP3    H2 9114   4.684   1.415   3.976
 3077TIP3   OH2 9115   4.846   1.398   4.065
 3077TIP3    H1 9116   4.860   1.304   4.070
 3077TIP3    H2 9117   4.843   1.427   4.156
 3078TIP3   OH2 9118   3.819   1.309   4.243
 3078TIP3    H1 9119   3.827   1.220   4.207
 3078TIP3    H2 9120   3.859   1.303   4.330
 3079TIP3   OH2 9121   4.302   0.988   4.101
 3079TIP3    H1 9122   4.370   0.921   4.095
 3079TIP3    H2 9123   4.273   1.001   4.011
 3080TIP3   OH2 9124   4.399   1.202   4.246
 3080TIP3    H1 9125   4.368   1.130   4.190
 3080TIP3    H2 9126   4.326   1.265   4.246
 3081TIP3   OH2 9127   3.653   2.464   2.359
 3081TIP3    H1 9128   3.743   2.449   2.332
 3081TIP3    H2 9129   3.612   2.509   2.285
 3082TIP3   OH2 9130   3.126   1.845   2.534
 3082TIP3    H1 9131   3.221   1.857   2.532
 3082TIP3    H2 9132   3.112   1.755   2.505
 3083TIP3   OH2 9133   3.017   2.419   2.994
 3083TIP3    H1 9134   2.952   2.364   2.950
 3083TIP3    H2 9135   3.063   2.359   3.053
 3084TIP3   OH2 9136   3.164   2.254   3.161
 3084TIP3    H1 9137   3.155   2.184   3.225
 3084TIP3    H2 9138   3.213   2.322   3.206
 3085TIP3   OH2 9139   4.900   2.666   2.964
 3085TIP3    H1 9140   4.928   2.691   3.052
 3085TIP3    H2 9141   4.965   2.707   2.906
 3086TIP3   OH2 9142   4.923   2.688   3.247
 3086TIP3    H1 9143   4.876   2.606   3.238
 3086TIP3    H2 9144   4.992   2.670   3.312
 3087TIP3   OH2 9145   4.977   2.390   3.822
 3087TIP3    H1 9146   4.907   2.400   3.886
 3087TIP3    H2 9147   5.024   2.474   3.824
 3088TIP3   OH2 9148   4.768   1.904   2.436
 3088TIP3    H1 9149   4.824   1.972   2.399
 3088TIP3    H2 9150   4.820   1.866   2.507
 3089TIP3   OH2 9151   4.927   1.774   2.621
 3089TIP3    H1 9152   4.867   1.726   2.678
 3089TIP3    H2 9153   4.995   1.807   2.680
 3090TIP3   OH2 9154   4.972   2.162   3.060
 3090TIP3    H1 9155   5.024   2.090   3.024
 3090TIP3    H2 9156   4.979   2.232   2.996
 3091TIP3   OH2 9157   4.779   2.450   3.250
 3091TIP3    H1 9158   4.713   2.496   3.301
 3091TIP3    H2 9159   4.730   2.410   3.178
 3092TIP3   OH2 9160   4.841   1.682   2.283
 3092TIP3    H1 9161   4.768   1.677   2.222
 3092TIP3    H2 9162   4.822   1.759   2.337
 3093TIP3   OH2 9163   4.682   1.340   2.228
 3093TIP3    H1 9164   4.620   1.365   2.160
 3093TIP3    H2 9165   4.682   1.244   2.226
 3094TIP3   OH2 9166   4.753   1.624   2.769
 3094TIP3    H1 9167   4.747   1.530   2.752
 3094TIP3    H2 9168   4.718   1.635   2.857
 3095TIP3   OH2 9169   3.360   1.705   3.529
 3095TIP3    H1 9170   3.356   1.669   3.441
 3095TIP3    H2 9171   3.453   1.704   3.551
 3096TIP3   OH2 9172   4.999   2.037   3.626
 3096TIP3    H1 9173   5.066   1.970   3.612
 3096TIP3    H2 9174   5.011   2.100   3.555
 3097TIP3   OH2 9175   5.178   1.827   3.619
 3097TIP3    H1 9176   5.104   1.785   3.663
 3097TIP3    H2 9177   5.253   1.772   3.639
 3098TIP3   OH2 9178   4.660   1.068   2.215
 3098TIP3    H1 9179   4.723   1.038   2.281
 3098TIP3    H2 9180   4.576   1.030   2.243
 3099TIP3   OH2 9181   4.745   1.353   2.677
 3099TIP3    H1 9182   4.786   1.267   2.684
 3099TIP3    H2 9183   4.771   1.385   2.591
 3100TIP3   OH2 9184   4.869   1.512   3.175
 3100TIP3    H1 9185   4.950   1.528   3.126
 3100TIP3    H2 9186   4.885   1.551   3.261
 3101TIP3   OH2 9187   4.944   1.661   3.404
 3101TIP3    H1 9188   4.871   1.689   3.458
 3101TIP3    H2 9189   4.974   1.740   3.360
 3102TIP3   OH2 9190   3.559   1.354   4.159
 3102TIP3    H1 9191   3.650   1.361   4.187
 3102TIP3    H2 9192   3.524   1.279   4.207
 3103TIP3   OH2 9193   5.402   1.260   3.940
 3103TIP3    H1 9194   5.468   1.205   3.897
 3103TIP3    H2 9195   5.363   1.310   3.868
 3104TIP3   OH2 9196   4.841   1.091   2.703
 3104TIP3    H1 9197   4.882   1.074   2.788
 3104TIP3    H2 9198   4.771   1.027   2.696
 3105TIP3   OH2 9199   3.541   1.078   3.531
 3105TIP3    H1 9200   3.594   0.998   3.533
 3105TIP3    H2 9201   3.604   1.147   3.511
 3106TIP3   OH2 9202   3.327   1.351   3.602
 3106TIP3    H1 9203   3.377   1.337   3.521
 3106TIP3    H2 9204   3.333   1.446   3.616
 3107TIP3   OH2 9205   5.251   1.372   3.742
 3107TIP3    H1 9206   5.165   1.413   3.758
 3107TIP3    H2 9207   5.231   1.295   3.689
 3108TIP3   OH2 9208   4.887   1.007   2.358
 3108TIP3    H1 9209   4.940   0.947   2.306
 3108TIP3    H2 9210   4.937   1.089   2.359
 3109TIP3   OH2 9211   3.306   0.850   3.100
 3109TIP3    H1 9212   3.220   0.840   3.141
 3109TIP3    H2 9213   3.290   0.905   3.023
 3110TIP3   OH2 9214   4.466   2.559   2.616
 3110TIP3    H1 9215   4.520   2.559   2.537
 3110TIP3    H2 9216   4.498   2.632   2.668
 3111TIP3   OH2 9217   3.527   0.902   3.926
 3111TIP3    H1 9218   3.468   0.900   4.002
 3111TIP3    H2 9219   3.478   0.952   3.860
 3112TIP3   OH2 9220   3.571   2.360   3.989
 3112TIP3    H1 9221   3.476   2.359   3.978
 3112TIP3    H2 9222   3.585   2.355   4.083
 3113TIP3   OH2 9223   3.768   2.411   3.536
 3113TIP3    H1 9224   3.718   2.487   3.507
 3113TIP3    H2 9225   3.853   2.421   3.493
 3114TIP3   OH2 9226   4.164   2.647   3.678
 3114TIP3    H1 9227   4.202   2.639   3.766
 3114TIP3    H2 9228   4.227   2.700   3.630
 3115TIP3   OH2 9229   4.357   2.800   3.551
 3115TIP3    H1 9230   4.418   2.746   3.501
 3115TIP3    H2 9231   4.413   2.857   3.604
 3116TIP3   OH2 9232   5.163   1.129   3.635
 3116TIP3    H1 9233   5.077   1.126   3.592
 3116TIP3    H2 9234   5.196   1.039   3.628
 3117TIP3   OH2 9235   3.428   2.657   3.587
 3117TIP3    H1 9236   3.335   2.674   3.569
 3117TIP3    H2 9237   3.451   2.721   3.654
 3118TIP3   OH2 9238   3.659   2.646   3.438
 3118TIP3    H1 9239   3.576   2.651   3.485
 3118TIP3    H2 9240   3.637   2.667   3.348
 3119TIP3   OH2 9241   4.073   2.664   3.228
 3119TIP3    H1 9242   4.000   2.675   3.167
 3119TIP3    H2 9243   4.083   2.750   3.269
 3120TIP3   OH2 9244   4.337   2.600   3.278
 3120TIP3    H1 9245   4.245   2.620   3.257
 3120TIP3    H2 9246   4.387   2.666   3.231
 3121TIP3   OH2 9247   4.537   2.768   3.178
 3121TIP3    H1 9248   4.539   2.856   3.139
 3121TIP3    H2 9249   4.569   2.711   3.108
 3122TIP3   OH2 9250   3.339   2.433   3.304
 3122TIP3    H1 9251   3.365   2.409   3.393
 3122TIP3    H2 9252   3.410   2.401   3.249
 3123TIP3   OH2 9253   3.543   2.321   3.163
 3123TIP3    H1 9254   3.554   2.236   3.206
 3123TIP3    H2 9255   3.630   2.361   3.166
 3124TIP3   OH2 9256   3.812   2.402   3.187
 3124TIP3    H1 9257   3.830   2.310   3.172
 3124TIP3    H2 9258   3.867   2.426   3.262
 3125TIP3   OH2 9259   4.394   1.047   3.296
 3125TIP3    H1 9260   4.343   0.974   3.331
 3125TIP3    H2 9261   4.455   1.007   3.235
 3126TIP3   OH2 9262   4.875   0.973   3.172
 3126TIP3    H1 9263   4.910   1.020   3.096
 3126TIP3    H2 9264   4.780   0.986   3.166
 3127TIP3   OH2 9265   4.989   1.040   2.932
 3127TIP3    H1 9266   5.057   0.980   2.902
 3127TIP3    H2 9267   5.026   1.128   2.918
 3128TIP3   OH2 9268   3.610   0.756   3.264
 3128TIP3    H1 9269   3.521   0.721   3.274
 3128TIP3    H2 9270   3.666   0.678   3.259
 3129TIP3   OH2 9271   3.411   0.654   2.923
 3129TIP3    H1 9272   3.449   0.705   2.852
 3129TIP3    H2 9273   3.382   0.719   2.987
 3130TIP3   OH2 9274   4.092   0.794   3.164
 3130TIP3    H1 9275   4.125   0.851   3.095
 3130TIP3    H2 9276   4.132   0.828   3.244
 3131TIP3   OH2 9277   4.592   0.927   3.144
 3131TIP3    H1 9278   4.605   0.891   3.056
 3131TIP3    H2 9279   4.597   0.851   3.201
 3132TIP3   OH2 9280   4.635   0.900   2.709
 3132TIP3    H1 9281   4.558   0.952   2.731
 3132TIP3    H2 9282   4.621   0.816   2.752
 3133TIP3   OH2 9283   3.101   2.228   2.684
 3133TIP3    H1 9284   3.017   2.198   2.650
 3133TIP3    H2 9285   3.105   2.320   2.658
 3134TIP3   OH2 9286   3.550   0.796   2.710
 3134TIP3    H1 9287   3.597   0.735   2.654
 3134TIP3    H2 9288   3.618   0.853   2.746
 3135TIP3   OH2 9289   4.036   0.992   2.759
 3135TIP3    H1 9290   4.098   0.971   2.829
 3135TIP3    H2 9291   4.051   1.085   2.741
 3136TIP3   OH2 9292   3.911   2.397   2.290
 3136TIP3    H1 9293   3.995   2.421   2.249
 3136TIP3    H2 9294   3.876   2.327   2.235
 3137TIP3   OH2 9295   4.608   2.530   2.380
 3137TIP3    H1 9296   4.602   2.435   2.371
 3137TIP3    H2 9297   4.567   2.564   2.301
 3138TIP3   OH2 9298   3.839   1.042   4.149
 3138TIP3    H1 9299   3.806   0.975   4.209
 3138TIP3    H2 9300   3.931   1.051   4.171
 3139TIP3   OH2 9301   4.086   1.045   4.272
 3139TIP3    H1 9302   4.163   1.022   4.220
 3139TIP3    H2 9303   4.082   0.976   4.339
 3140TIP3   OH2 9304   3.211   2.211   2.350
 3140TIP3    H1 9305   3.204   2.223   2.445
 3140TIP3    H2 9306   3.300   2.177   2.337
 3141TIP3   OH2 9307   4.908   1.127   4.062
 3141TIP3    H1 9308   4.926   1.100   4.151
 3141TIP3    H2 9309   4.993   1.124   4.018
 3142TIP3   OH2 9310   4.824   2.662   3.571
 3142TIP3    H1 9311   4.751   2.632   3.516
 3142TIP3    H2 9312   4.812   2.757   3.577
 3143TIP3   OH2 9313   6.106   2.056   2.304
 3143TIP3    H1 9314   6.074   2.142   2.276
 3143TIP3    H2 9315   6.036   1.995   2.280
 3144TIP3   OH2 9316   6.101   2.041   2.738
 3144TIP3    H1 9317   6.161   2.020   2.809
 3144TIP3    H2 9318   6.059   1.958   2.717
 3145TIP3   OH2 9319   5.397   1.902   3.079
 3145TIP3    H1 9320   5.436   1.849   3.149
 3145TIP3    H2 9321   5.471   1.925   3.023
 3146TIP3   OH2 9322   6.370   2.353   2.407
 3146TIP3    H1 9323   6.361   2.283   2.472
 3146TIP3    H2 9324   6.392   2.431   2.458
 3147TIP3   OH2 9325   5.388   2.330   2.764
 3147TIP3    H1 9326   5.371   2.236   2.766
 3147TIP3    H2 9327   5.483   2.338   2.756
 3148TIP3   OH2 9328   5.076   1.540   2.549
 3148TIP3    H1 9329   5.038   1.626   2.570
 3148TIP3    H2 9330   5.002   1.488   2.516
 3149TIP3   OH2 9331   5.156   1.850   2.768
 3149TIP3    H1 9332   5.204   1.771   2.793
 3149TIP3    H2 9333   5.224   1.913   2.744
 3150TIP3   OH2 9334   6.037   2.772   2.424
 3150TIP3    H1 9335   6.059   2.711   2.354
 3150TIP3    H2 9336   6.050   2.721   2.504
 3151TIP3   OH2 9337   5.908   2.262   2.737
 3151TIP3    H1 9338   5.953   2.182   2.712
 3151TIP3    H2 9339   5.977   2.322   2.765
 3152TIP3   OH2 9340   6.943   1.580   2.754
 3152TIP3    H1 9341   6.957   1.667   2.790
 3152TIP3    H2 9342   6.976   1.585   2.664
 3153TIP3   OH2 9343   6.334   1.736   2.776
 3153TIP3    H1 9344   6.390   1.661   2.793
 3153TIP3    H2 9345   6.292   1.716   2.693
 3154TIP3   OH2 9346   5.650   1.413   2.738
 3154TIP3    H1 9347   5.634   1.484   2.676
 3154TIP3    H2 9348   5.601   1.339   2.702
 3155TIP3   OH2 9349   6.354   1.510   2.360
 3155TIP3    H1 9350   6.419   1.497   2.428
 3155TIP3    H2 9351   6.404   1.539   2.284
 3156TIP3   OH2 9352   5.291   1.625   2.858
 3156TIP3    H1 9353   5.374   1.606   2.903
 3156TIP3    H2 9354   5.295   1.573   2.778
 3157TIP3   OH2 9355   5.713   1.824   2.681
 3157TIP3    H1 9356   5.807   1.809   2.687
 3157TIP3    H2 9357   5.677   1.743   2.645
 3158TIP3   OH2 9358   7.000   1.807   2.914
 3158TIP3    H1 9359   6.910   1.839   2.909
 3158TIP3    H2 9360   7.033   1.842   2.997
 3159TIP3   OH2 9361   5.652   1.415   3.183
 3159TIP3    H1 9362   5.602   1.451   3.110
 3159TIP3    H2 9363   5.597   1.430   3.260
 3160TIP3   OH2 9364   6.001   2.273   2.167
 3160TIP3    H1 9365   5.962   2.241   2.085
 3160TIP3    H2 9366   5.947   2.348   2.192
 3161TIP3   OH2 9367   5.746   2.187   2.949
 3161TIP3    H1 9368   5.693   2.261   2.981
 3161TIP3    H2 9369   5.796   2.224   2.876
 3162TIP3   OH2 9370   6.549   1.516   2.543
 3162TIP3    H1 9371   6.589   1.429   2.555
 3162TIP3    H2 9372   6.605   1.575   2.595
 3163TIP3   OH2 9373   5.534   1.525   2.959
 3163TIP3    H1 9374   5.591   1.599   2.979
 3163TIP3    H2 9375   5.577   1.482   2.885
 3164TIP3   OH2 9376   5.591   2.394   3.051
 3164TIP3    H1 9377   5.577   2.484   3.021
 3164TIP3    H2 9378   5.512   2.375   3.103
 3165TIP3   OH2 9379   4.947   2.089   2.313
 3165TIP3    H1 9380   4.926   2.105   2.221
 3165TIP3    H2 9381   4.976   2.174   2.346
 3166TIP3   OH2 9382   6.402   2.600   2.550
 3166TIP3    H1 9383   6.313   2.594   2.584
 3166TIP3    H2 9384   6.404   2.683   2.502
 3167TIP3   OH2 9385   6.736   1.477   2.927
 3167TIP3    H1 9386   6.647   1.491   2.896
 3167TIP3    H2 9387   6.791   1.503   2.853
 3168TIP3   OH2 9388   5.985   1.103   2.910
 3168TIP3    H1 9389   5.983   1.011   2.938
 3168TIP3    H2 9390   5.909   1.142   2.952
 3169TIP3   OH2 9391   6.113   2.630   2.197
 3169TIP3    H1 9392   6.167   2.551   2.188
 3169TIP3    H2 9393   6.171   2.701   2.170
 3170TIP3   OH2 9394   6.254   2.401   2.160
 3170TIP3    H1 9395   6.182   2.338   2.158
 3170TIP3    H2 9396   6.304   2.377   2.238
 3171TIP3   OH2 9397   6.643   2.484   2.889
 3171TIP3    H1 9398   6.623   2.410   2.832
 3171TIP3    H2 9399   6.629   2.561   2.834
 3172TIP3   OH2 9400   5.931   1.892   2.160
 3172TIP3    H1 9401   5.847   1.934   2.139
 3172TIP3    H2 9402   5.978   1.890   2.077
 3173TIP3   OH2 9403   5.899   1.703   1.846
 3173TIP3    H1 9404   5.963   1.751   1.898
 3173TIP3    H2 9405   5.949   1.633   1.805
 3174TIP3   OH2 9406   6.819   2.149   2.758
 3174TIP3    H1 9407   6.734   2.192   2.755
 3174TIP3    H2 9408   6.855   2.159   2.670
 3175TIP3   OH2 9409   6.293   1.978   2.120
 3175TIP3    H1 9410   6.239   2.008   2.193
 3175TIP3    H2 9411   6.375   1.948   2.161
 3176TIP3   OH2 9412   6.519   2.004   3.069
 3176TIP3    H1 9413   6.512   2.088   3.115
 3176TIP3    H2 9414   6.440   1.999   3.016
 3177TIP3   OH2 9415   5.517   1.957   2.523
 3177TIP3    H1 9416   5.482   1.895   2.459
 3177TIP3    H2 9417   5.589   1.909   2.564
 3178TIP3   OH2 9418   5.652   2.381   2.669
 3178TIP3    H1 9419   5.629   2.367   2.577
 3178TIP3    H2 9420   5.739   2.341   2.678
 3179TIP3   OH2 9421   5.608   1.955   2.901
 3179TIP3    H1 9422   5.648   1.917   2.822
 3179TIP3    H2 9423   5.659   2.035   2.917
 3180TIP3   OH2 9424   6.157   2.599   2.671
 3180TIP3    H1 9425   6.150   2.677   2.726
 3180TIP3    H2 9426   6.146   2.526   2.731
 3181TIP3   OH2 9427   5.788   2.492   3.221
 3181TIP3    H1 9428   5.726   2.548   3.268
 3181TIP3    H2 9429   5.734   2.440   3.162
 3182TIP3   OH2 9430   6.119   1.845   1.954
 3182TIP3    H1 9431   6.180   1.901   2.001
 3182TIP3    H2 9432   6.150   1.847   1.863
 3183TIP3   OH2 9433   5.539   2.045   3.375
 3183TIP3    H1 9434   5.538   2.139   3.389
 3183TIP3    H2 9435   5.447   2.021   3.364
 3184TIP3   OH2 9436   5.864   2.513   2.205
 3184TIP3    H1 9437   5.947   2.560   2.212
 3184TIP3    H2 9438   5.806   2.573   2.157
 3185TIP3   OH2 9439   5.575   2.648   3.306
 3185TIP3    H1 9440   5.553   2.659   3.213
 3185TIP3    H2 9441   5.491   2.636   3.349
 3186TIP3   OH2 9442   6.619   1.061   1.998
 3186TIP3    H1 9443   6.545   1.080   2.056
 3186TIP3    H2 9444   6.632   1.142   1.948
 3187TIP3   OH2 9445   5.391   1.799   2.323
 3187TIP3    H1 9446   5.311   1.844   2.297
 3187TIP3    H2 9447   5.363   1.708   2.338
 3188TIP3   OH2 9448   6.451   2.443   1.567
 3188TIP3    H1 9449   6.445   2.537   1.547
 3188TIP3    H2 9450   6.541   2.420   1.545
 3189TIP3   OH2 9451   5.173   2.208   3.256
 3189TIP3    H1 9452   5.105   2.188   3.193
 3189TIP3    H2 9453   5.207   2.123   3.283
 3190TIP3   OH2 9454   5.040   2.384   2.898
 3190TIP3    H1 9455   5.135   2.386   2.889
 3190TIP3    H2 9456   5.018   2.462   2.948
 3191TIP3   OH2 9457   6.870   2.852   2.958
 3191TIP3    H1 9458   6.876   2.757   2.969
 3191TIP3    H2 9459   6.792   2.877   3.006
 3192TIP3   OH2 9460   5.978   2.638   3.085
 3192TIP3    H1 9461   5.968   2.728   3.115
 3192TIP3    H2 9462   5.911   2.589   3.134
 3193TIP3   OH2 9463   5.756   2.730   2.038
 3193TIP3    H1 9464   5.713   2.710   1.955
 3193TIP3    H2 9465   5.719   2.814   2.065
 3194TIP3   OH2 9466   5.190   2.587   2.416
 3194TIP3    H1 9467   5.235   2.579   2.500
 3194TIP3    H2 9468   5.142   2.505   2.406
 3195TIP3   OH2 9469   5.959   2.667   1.664
 3195TIP3    H1 9470   6.009   2.593   1.629
 3195TIP3    H2 9471   5.994   2.681   1.752
 3196TIP3   OH2 9472   6.011   2.709   1.933
 3196TIP3    H1 9473   5.925   2.712   1.975
 3196TIP3    H2 9474   6.068   2.671   1.999
 3197TIP3   OH2 9475   6.760   1.960   3.224
 3197TIP3    H1 9476   6.679   1.970   3.174
 3197TIP3    H2 9477   6.779   1.867   3.221
 3198TIP3   OH2 9478   5.372   2.397   3.222
 3198TIP3    H1 9479   5.423   2.384   3.302
 3198TIP3    H2 9480   5.301   2.334   3.229
 3199TIP3   OH2 9481   5.752   1.196   3.039
 3199TIP3    H1 9482   5.668   1.165   3.006
 3199TIP3    H2 9483   5.731   1.278   3.083
 3200TIP3   OH2 9484   6.293   1.325   3.237
 3200TIP3    H1 9485   6.364   1.298   3.296
 3200TIP3    H2 9486   6.213   1.306   3.286
 3201TIP3   OH2 9487   6.514   1.737   3.159
 3201TIP3    H1 9488   6.479   1.738   3.248
 3201TIP3    H2 9489   6.502   1.827   3.127
 3202TIP3   OH2 9490   6.202   1.818   1.694
 3202TIP3    H1 9491   6.155   1.823   1.611
 3202TIP3    H2 9492   6.284   1.867   1.678
 3203TIP3   OH2 9493   5.900   1.250   2.016
 3203TIP3    H1 9494   5.871   1.253   2.108
 3203TIP3    H2 9495   5.868   1.166   1.984
 3204TIP3   OH2 9496   5.693   1.734   3.047
 3204TIP3    H1 9497   5.649   1.742   3.132
 3204TIP3    H2 9498   5.670   1.815   3.002
 3205TIP3   OH2 9499   5.568   1.614   2.569
 3205TIP3    H1 9500   5.480   1.587   2.593
 3205TIP3    H2 9501   5.581   1.581   2.480
 3206TIP3   OH2 9502   6.055   1.689   2.299
 3206TIP3    H1 9503   6.009   1.762   2.256
 3206TIP3    H2 9504   6.114   1.656   2.232
 3207TIP3   OH2 9505   6.236   1.952   3.367
 3207TIP3    H1 9506   6.213   1.883   3.429
 3207TIP3    H2 9507   6.329   1.970   3.386
 3208TIP3   OH2 9508   6.227   1.698   2.522
 3208TIP3    H1 9509   6.156   1.719   2.460
 3208TIP3    H2 9510   6.272   1.623   2.482
 3209TIP3   OH2 9511   5.528   1.742   3.269
 3209TIP3    H1 9512   5.571   1.797   3.335
 3209TIP3    H2 9513   5.511   1.660   3.314
 3210TIP3   OH2 9514   5.570   1.221   1.991
 3210TIP3    H1 9515   5.563   1.225   2.086
 3210TIP3    H2 9516   5.495   1.271   1.959
 3211TIP3   OH2 9517   5.122   1.261   2.854
 3211TIP3    H1 9518   5.194   1.300   2.904
 3211TIP3    H2 9519   5.159   1.245   2.768
 3212TIP3   OH2 9520   5.026   1.246   2.357
 3212TIP3    H1 9521   5.070   1.281   2.280
 3212TIP3    H2 9522   4.963   1.314   2.381
 3213TIP3   OH2 9523   6.274   1.945   2.939
 3213TIP3    H1 9524   6.301   1.876   2.879
 3213TIP3    H2 9525   6.226   1.899   3.008
 3214TIP3   OH2 9526   5.912   1.461   2.635
 3214TIP3    H1 9527   5.838   1.437   2.690
 3214TIP3    H2 9528   5.983   1.403   2.664
 3215TIP3   OH2 9529   5.334   1.483   2.628
 3215TIP3    H1 9530   5.246   1.489   2.591
 3215TIP3    H2 9531   5.362   1.393   2.610
 3216TIP3   OH2 9532   5.585   1.491   2.324
 3216TIP3    H1 9533   5.680   1.502   2.317
 3216TIP3    H2 9534   5.552   1.509   2.236
 3217TIP3   OH2 9535   6.456   1.489   2.858
 3217TIP3    H1 9536   6.389   1.498   2.925
 3217TIP3    H2 9537   6.430   1.411   2.808
 3218TIP3   OH2 9538   5.479   1.520   2.073
 3218TIP3    H1 9539   5.415   1.470   2.022
 3218TIP3    H2 9540   5.534   1.563   2.008
 3219TIP3   OH2 9541   6.585   3.194   3.049
 3219TIP3    H1 9542   6.583   3.208   2.955
 3219TIP3    H2 9543   6.664   3.239   3.078
 3220TIP3   OH2 9544   5.521   2.313   3.458
 3220TIP3    H1 9545   5.603   2.329   3.504
 3220TIP3    H2 9546   5.453   2.320   3.525
 3221TIP3   OH2 9547   5.986   1.774   2.730
 3221TIP3    H1 9548   6.036   1.715   2.673
 3221TIP3    H2 9549   5.983   1.728   2.814
 3222TIP3   OH2 9550   5.473   1.235   2.609
 3222TIP3    H1 9551   5.445   1.159   2.661
 3222TIP3    H2 9552   5.502   1.198   2.526
 3223TIP3   OH2 9553   5.956   1.670   2.992
 3223TIP3    H1 9554   5.869   1.702   3.015
 3223TIP3    H2 9555   6.016   1.724   3.043
 3224TIP3   OH2 9556   5.691   2.024   2.101
 3224TIP3    H1 9557   5.617   1.968   2.077
 3224TIP3    H2 9558   5.665   2.065   2.184
 3225TIP3   OH2 9559   6.583   2.284   2.710
 3225TIP3    H1 9560   6.620   2.331   2.636
 3225TIP3    H2 9561   6.506   2.240   2.674
 3226TIP3   OH2 9562   6.151   1.357   2.000
 3226TIP3    H1 9563   6.058   1.334   2.005
 3226TIP3    H2 9564   6.154   1.450   2.023
 3227TIP3   OH2 9565   6.107   2.371   3.119
 3227TIP3    H1 9566   6.161   2.357   3.197
 3227TIP3    H2 9567   6.069   2.458   3.132
 3228TIP3   OH2 9568   6.218   1.613   2.082
 3228TIP3    H1 9569   6.313   1.612   2.093
 3228TIP3    H2 9570   6.201   1.693   2.033
 3229TIP3   OH2 9571   5.382   2.042   2.749
 3229TIP3    H1 9572   5.421   2.022   2.664
 3229TIP3    H2 9573   5.448   2.013   2.813
 3230TIP3   OH2 9574   5.846   2.186   1.947
 3230TIP3    H1 9575   5.797   2.268   1.944
 3230TIP3    H2 9576   5.790   2.127   1.999
 3231TIP3   OH2 9577   5.262   1.979   3.392
 3231TIP3    H1 9578   5.269   1.950   3.483
 3231TIP3    H2 9579   5.190   1.928   3.355
 3232TIP3   OH2 9580   6.015   2.116   3.403
 3232TIP3    H1 9581   5.950   2.071   3.348
 3232TIP3    H2 9582   6.098   2.073   3.382
 3233TIP3   OH2 9583   6.249   2.661   3.009
 3233TIP3    H1 9584   6.154   2.646   3.012
 3233TIP3    H2 9585   6.270   2.695   3.096
 3234TIP3   OH2 9586   6.626   1.687   1.902
 3234TIP3    H1 9587   6.574   1.643   1.834
 3234TIP3    H2 9588   6.632   1.777   1.872
 3235TIP3   OH2 9589   6.887   2.575   2.977
 3235TIP3    H1 9590   6.794   2.554   2.973
 3235TIP3    H2 9591   6.922   2.543   2.895
 3236TIP3   OH2 9592   6.372   2.513   1.834
 3236TIP3    H1 9593   6.347   2.443   1.894
 3236TIP3    H2 9594   6.391   2.467   1.751
 3237TIP3   OH2 9595   6.359   2.144   2.603
 3237TIP3    H1 9596   6.268   2.122   2.627
 3237TIP3    H2 9597   6.395   2.062   2.570
 3238TIP3   OH2 9598   5.514   2.385   2.424
 3238TIP3    H1 9599   5.513   2.461   2.366
 3238TIP3    H2 9600   5.422   2.371   2.446
 3239TIP3   OH2 9601   5.076   1.666   2.139
 3239TIP3    H1 9602   5.118   1.749   2.161
 3239TIP3    H2 9603   4.996   1.665   2.191
 3240TIP3   OH2 9604   5.591   2.139   2.324
 3240TIP3    H1 9605   5.579   2.228   2.357
 3240TIP3    H2 9606   5.568   2.082   2.398
 3241TIP3   OH2 9607   5.795   2.707   2.877
 3241TIP3    H1 9608   5.830   2.780   2.827
 3241TIP3    H2 9609   5.869   2.673   2.927
 3242TIP3   OH2 9610   5.427   2.607   2.273
 3242TIP3    H1 9611   5.340   2.614   2.312
 3242TIP3    H2 9612   5.463   2.696   2.279
 3243TIP3   OH2 9613   6.141   2.376   2.844
 3243TIP3    H1 9614   6.129   2.372   2.939
 3243TIP3    H2 9615   6.213   2.316   2.826
 3244TIP3   OH2 9616   6.141   2.247   1.717
 3244TIP3    H1 9617   6.191   2.221   1.794
 3244TIP3    H2 9618   6.057   2.202   1.726
 3245TIP3   OH2 9619   6.403   2.865   2.890
 3245TIP3    H1 9620   6.334   2.802   2.912
 3245TIP3    H2 9621   6.366   2.918   2.819
 3246TIP3   OH2 9622   6.448   2.715   1.524
 3246TIP3    H1 9623   6.465   2.774   1.450
 3246TIP3    H2 9624   6.379   2.759   1.574
 3247TIP3   OH2 9625   5.480   1.490   3.389
 3247TIP3    H1 9626   5.384   1.499   3.393
 3247TIP3    H2 9627   5.502   1.434   3.464
 3248TIP3   OH2 9628   6.314   2.164   1.912
 3248TIP3    H1 9629   6.300   2.110   1.990
 3248TIP3    H2 9630   6.409   2.172   1.907
 3249TIP3   OH2 9631   5.216   2.607   3.043
 3249TIP3    H1 9632   5.269   2.546   3.095
 3249TIP3    H2 9633   5.234   2.693   3.081
 3250TIP3   OH2 9634   5.490   2.215   1.737
 3250TIP3    H1 9635   5.501   2.124   1.710
 3250TIP3    H2 9636   5.476   2.211   1.832
 3251TIP3   OH2 9637   5.432   2.230   2.010
 3251TIP3    H1 9638   5.498   2.204   2.075
 3251TIP3    H2 9639   5.432   2.326   2.014
 3252TIP3   OH2 9640   5.160   1.920   2.222
 3252TIP3    H1 9641   5.092   1.964   2.272
 3252TIP3    H2 9642   5.180   1.980   2.150
 3253TIP3   OH2 9643   6.309   1.560   3.095
 3253TIP3    H1 9644   6.394   1.599   3.116
 3253TIP3    H2 9645   6.307   1.480   3.146
 3254TIP3   OH2 9646   6.211   1.293   2.266
 3254TIP3    H1 9647   6.194   1.314   2.174
 3254TIP3    H2 9648   6.254   1.371   2.302
 3255TIP3   OH2 9649   5.699   2.413   1.940
 3255TIP3    H1 9650   5.615   2.439   1.979
 3255TIP3    H2 9651   5.724   2.488   1.886
 3256TIP3   OH2 9652   5.861   1.506   2.369
 3256TIP3    H1 9653   5.927   1.570   2.341
 3256TIP3    H2 9654   5.877   1.494   2.463
 3257TIP3   OH2 9655   6.158   1.794   3.138
 3257TIP3    H1 9656   6.186   1.833   3.221
 3257TIP3    H2 9657   6.207   1.712   3.133
 3258TIP3   OH2 9658   6.046   1.176   2.452
 3258TIP3    H1 9659   6.074   1.218   2.534
 3258TIP3    H2 9660   6.105   1.212   2.386
 3259TIP3   OH2 9661   5.451   2.503   2.021
 3259TIP3    H1 9662   5.433   2.575   1.961
 3259TIP3    H2 9663   5.442   2.542   2.108
 3260TIP3   OH2 9664   5.554   1.217   2.271
 3260TIP3    H1 9665   5.543   1.308   2.299
 3260TIP3    H2 9666   5.648   1.201   2.278
 3261TIP3   OH2 9667   6.780   1.683   3.134
 3261TIP3    H1 9668   6.685   1.692   3.147
 3261TIP3    H2 9669   6.788   1.624   3.059
 3262TIP3   OH2 9670   6.449   1.884   2.523
 3262TIP3    H1 9671   6.372   1.827   2.533
 3262TIP3    H2 9672   6.517   1.840   2.575
 3263TIP3   OH2 9673   5.189   2.097   2.004
 3263TIP3    H1 9674   5.262   2.159   2.013
 3263TIP3    H2 9675   5.220   2.033   1.940
 3264TIP3   OH2 9676   5.098   1.387   2.135
 3264TIP3    H1 9677   5.107   1.483   2.139
 3264TIP3    H2 9678   5.045   1.371   2.057
 3265TIP3   OH2 9679   6.429   2.865   2.462
 3265TIP3    H1 9680   6.389   2.918   2.393
 3265TIP3    H2 9681   6.523   2.875   2.447
 3266TIP3   OH2 9682   5.489   1.114   2.999
 3266TIP3    H1 9683   5.461   1.082   2.913
 3266TIP3    H2 9684   5.482   1.038   3.056
 3267TIP3   OH2 9685   5.011   2.363   2.391
 3267TIP3    H1 9686   4.972   2.402   2.470
 3267TIP3    H2 9687   4.968   2.408   2.319
 3268TIP3   OH2 9688   5.227   2.908   3.463
 3268TIP3    H1 9689   5.308   2.916   3.513
 3268TIP3    H2 9690   5.219   2.815   3.444
 3269TIP3   OH2 9691   5.686   2.808   3.501
 3269TIP3    H1 9692   5.776   2.778   3.510
 3269TIP3    H2 9693   5.651   2.755   3.429
 3270TIP3   OH2 9694   5.643   2.415   1.623
 3270TIP3    H1 9695   5.596   2.345   1.669
 3270TIP3    H2 9696   5.718   2.371   1.582
 3271TIP3   OH2 9697   6.302   2.754   3.262
 3271TIP3    H1 9698   6.318   2.682   3.324
 3271TIP3    H2 9699   6.376   2.813   3.274
 3272TIP3   OH2 9700   6.086   2.455   1.548
 3272TIP3    H1 9701   6.121   2.391   1.609
 3272TIP3    H2 9702   6.144   2.449   1.471
 3273TIP3   OH2 9703   5.318   2.308   3.650
 3273TIP3    H1 9704   5.339   2.215   3.661
 3273TIP3    H2 9705   5.231   2.308   3.609
 3274TIP3   OH2 9706   5.313   1.910   1.846
 3274TIP3    H1 9707   5.363   1.884   1.924
 3274TIP3    H2 9708   5.379   1.924   1.779
 3275TIP3   OH2 9709   5.942   2.388   3.427
 3275TIP3    H1 9710   5.899   2.409   3.344
 3275TIP3    H2 9711   5.981   2.302   3.413
 3276TIP3   OH2 9712   5.888   2.127   1.683
 3276TIP3    H1 9713   5.864   2.138   1.775
 3276TIP3    H2 9714   5.868   2.036   1.664
 3277TIP3   OH2 9715   6.420   2.436   3.048
 3277TIP3    H1 9716   6.497   2.461   2.997
 3277TIP3    H2 9717   6.355   2.504   3.028
 3278TIP3   OH2 9718   5.433   2.054   3.656
 3278TIP3    H1 9719   5.506   2.037   3.596
 3278TIP3    H2 9720   5.474   2.069   3.741
 3279TIP3   OH2 9721   5.483   1.847   2.057
 3279TIP3    H1 9722   5.463   1.816   2.145
 3279TIP3    H2 9723   5.531   1.775   2.016
 3280TIP3   OH2 9724   5.773   1.909   3.312
 3280TIP3    H1 9725   5.699   1.968   3.332
 3280TIP3    H2 9726   5.816   1.950   3.237
 3281TIP3   OH2 9727   5.625   1.668   1.895
 3281TIP3    H1 9728   5.597   1.672   1.803
 3281TIP3    H2 9729   5.721   1.677   1.891
 3282TIP3   OH2 9730   6.302   2.304   3.391
 3282TIP3    H1 9731   6.372   2.268   3.337
 3282TIP3    H2 9732   6.300   2.249   3.469
 3283TIP3   OH2 9733   6.419   1.955   1.585
 3283TIP3    H1 9734   6.401   1.914   1.501
 3283TIP3    H2 9735   6.395   2.047   1.573
 3284TIP3   OH2 9736   5.903   1.696   3.423
 3284TIP3    H1 9737   5.908   1.625   3.360
 3284TIP3    H2 9738   5.862   1.768   3.376
 3285TIP3   OH2 9739   5.911   1.501   3.220
 3285TIP3    H1 9740   5.940   1.536   3.136
 3285TIP3    H2 9741   5.821   1.472   3.204
 3286TIP3   OH2 9742   5.909   2.041   3.119
 3286TIP3    H1 9743   5.998   2.049   3.085
 3286TIP3    H2 9744   5.857   2.095   3.060
 3287TIP3   OH2 9745   6.503   1.990   3.461
 3287TIP3    H1 9746   6.520   1.896   3.456
 3287TIP3    H2 9747   6.589   2.031   3.446
 3288TIP3   OH2 9748   6.536   2.252   3.211
 3288TIP3    H1 9749   6.485   2.316   3.160
 3288TIP3    H2 9750   6.626   2.264   3.180
 3289TIP3   OH2 9751   5.788   1.779   3.666
 3289TIP3    H1 9752   5.719   1.715   3.685
 3289TIP3    H2 9753   5.818   1.758   3.578
 3290TIP3   OH2 9754   6.032   1.273   3.326
 3290TIP3    H1 9755   5.993   1.353   3.290
 3290TIP3    H2 9756   5.966   1.205   3.310
 3291TIP3   OH2 9757   6.160   1.738   3.524
 3291TIP3    H1 9758   6.150   1.725   3.618
 3291TIP3    H2 9759   6.075   1.717   3.487
 3292TIP3   OH2 9760   6.421   1.719   3.412
 3292TIP3    H1 9761   6.339   1.704   3.460
 3292TIP3    H2 9762   6.488   1.677   3.466
 3293TIP3   OH2 9763   6.648   1.651   3.554
 3293TIP3    H1 9764   6.660   1.556   3.559
 3293TIP3    H2 9765   6.643   1.680   3.645
 3294TIP3   OH2 9766   5.618   1.563   3.730
 3294TIP3    H1 9767   5.625   1.476   3.692
 3294TIP3    H2 9768   5.658   1.555   3.816
 3295TIP3   OH2 9769   6.098   1.243   3.589
 3295TIP3    H1 9770   6.166   1.177   3.582
 3295TIP3    H2 9771   6.069   1.258   3.499
 3296TIP3   OH2 9772   6.195   1.458   3.732
 3296TIP3    H1 9773   6.164   1.386   3.677
 3296TIP3    H2 9774   6.122   1.521   3.732
 3297TIP3   OH2 9775   5.451   2.714   1.840
 3297TIP3    H1 9776   5.540   2.692   1.812
 3297TIP3    H2 9777   5.412   2.758   1.764
 3298TIP3   OH2 9778   4.917   2.097   2.027
 3298TIP3    H1 9779   5.012   2.110   2.021
 3298TIP3    H2 9780   4.903   2.011   1.986
 3299TIP3   OH2 9781   4.818   2.677   2.480
 3299TIP3    H1 9782   4.753   2.625   2.432
 3299TIP3    H2 9783   4.862   2.615   2.537
 3300TIP3   OH2 9784   4.962   2.505   2.644
 3300TIP3    H1 9785   4.956   2.437   2.710
 3300TIP3    H2 9786   5.012   2.575   2.686
 3301TIP3   OH2 9787   6.702   2.909   2.453
 3301TIP3    H1 9788   6.723   2.938   2.542
 3301TIP3    H2 9789   6.760   2.961   2.396
 3302TIP3   OH2 9790   6.718   2.945   2.734
 3302TIP3    H1 9791   6.671   2.861   2.728
 3302TIP3    H2 9792   6.788   2.928   2.798
 3303TIP3   OH2 9793   6.773   2.648   3.309
 3303TIP3    H1 9794   6.703   2.657   3.374
 3303TIP3    H2 9795   6.819   2.732   3.312
 3304TIP3   OH2 9796   6.593   2.164   1.912
 3304TIP3    H1 9797   6.650   2.235   1.884
 3304TIP3    H2 9798   6.634   2.128   1.990
 3305TIP3   OH2 9799   6.710   2.025   2.120
 3305TIP3    H1 9800   6.646   1.980   2.175
 3305TIP3    H2 9801   6.777   2.055   2.182
 3306TIP3   OH2 9802   6.768   2.421   2.550
 3306TIP3    H1 9803   6.820   2.351   2.510
 3306TIP3    H2 9804   6.771   2.492   2.486
 3307TIP3   OH2 9805   6.576   2.706   2.740
 3307TIP3    H1 9806   6.510   2.752   2.792
 3307TIP3    H2 9807   6.527   2.665   2.669
 3308TIP3   OH2 9808   6.620   1.930   1.770
 3308TIP3    H1 9809   6.548   1.932   1.707
 3308TIP3    H2 9810   6.609   2.010   1.821
 3309TIP3   OH2 9811   6.488   1.580   1.687
 3309TIP3    H1 9812   6.429   1.609   1.618
 3309TIP3    H2 9813   6.483   1.484   1.684
 3310TIP3   OH2 9814   6.515   1.870   2.253
 3310TIP3    H1 9815   6.524   1.775   2.241
 3310TIP3    H2 9816   6.498   1.881   2.347
 3311TIP3   OH2 9817   5.134   1.941   3.026
 3311TIP3    H1 9818   5.125   1.909   2.937
 3311TIP3    H2 9819   5.228   1.936   3.044
 3312TIP3   OH2 9820   6.793   2.293   3.113
 3312TIP3    H1 9821   6.861   2.227   3.099
 3312TIP3    H2 9822   6.799   2.351   3.037
 3313TIP3   OH2 9823   6.974   2.085   3.107
 3313TIP3    H1 9824   6.899   2.042   3.148
 3313TIP3    H2 9825   7.049   2.029   3.128
 3314TIP3   OH2 9826   6.445   1.308   1.667
 3314TIP3    H1 9827   6.505   1.288   1.739
 3314TIP3    H2 9828   6.360   1.274   1.697
 3315TIP3   OH2 9829   6.515   1.584   2.145
 3315TIP3    H1 9830   6.566   1.507   2.170
 3315TIP3    H2 9831   6.558   1.616   2.065
 3316TIP3   OH2 9832   6.665   1.761   2.660
 3316TIP3    H1 9833   6.746   1.783   2.614
 3316TIP3    H2 9834   6.677   1.796   2.749
 3317TIP3   OH2 9835   6.740   1.916   2.889
 3317TIP3    H1 9836   6.665   1.943   2.942
 3317TIP3    H2 9837   6.768   1.996   2.844
 3318TIP3   OH2 9838   5.354   1.619   3.666
 3318TIP3    H1 9839   5.448   1.616   3.684
 3318TIP3    H2 9840   5.319   1.538   3.704
 3319TIP3   OH2 9841   7.196   1.519   3.424
 3319TIP3    H1 9842   7.262   1.464   3.382
 3319TIP3    H2 9843   7.156   1.568   3.352
 3320TIP3   OH2 9844   6.639   1.332   2.235
 3320TIP3    H1 9845   6.659   1.311   2.327
 3320TIP3    H2 9846   6.574   1.267   2.209
 3321TIP3   OH2 9847   5.329   1.339   3.027
 3321TIP3    H1 9848   5.383   1.259   3.026
 3321TIP3    H2 9849   5.391   1.410   3.008
 3322TIP3   OH2 9850   5.113   1.600   3.078
 3322TIP3    H1 9851   5.159   1.589   2.995
 3322TIP3    H2 9852   5.149   1.682   3.114
 3323TIP3   OH2 9853   7.043   1.629   3.225
 3323TIP3    H1 9854   6.958   1.668   3.243
 3323TIP3    H2 9855   7.023   1.552   3.171
 3324TIP3   OH2 9856   6.661   1.280   1.836
 3324TIP3    H1 9857   6.706   1.220   1.778
 3324TIP3    H2 9858   6.723   1.352   1.849
 3325TIP3   OH2 9859   5.105   1.118   2.585
 3325TIP3    H1 9860   5.020   1.102   2.625
 3325TIP3    H2 9861   5.086   1.171   2.508
 3326TIP3   OH2 9862   6.255   2.835   2.096
 3326TIP3    H1 9863   6.310   2.821   2.019
 3326TIP3    H2 9864   6.300   2.903   2.147
 3327TIP3   OH2 9865   5.328   1.167   3.406
 3327TIP3    H1 9866   5.275   1.160   3.486
 3327TIP3    H2 9867   5.273   1.215   3.345
 3328TIP3   OH2 9868   5.345   2.632   3.468
 3328TIP3    H1 9869   5.253   2.606   3.463
 3328TIP3    H2 9870   5.370   2.617   3.559
 3329TIP3   OH2 9871   5.566   2.671   3.024
 3329TIP3    H1 9872   5.516   2.747   2.993
 3329TIP3    H2 9873   5.651   2.679   2.981
 3330TIP3   OH2 9874   5.960   2.904   3.165
 3330TIP3    H1 9875   5.998   2.896   3.253
 3330TIP3    H2 9876   6.023   2.957   3.117
 3331TIP3   OH2 9877   6.152   3.057   3.038
 3331TIP3    H1 9878   6.211   3.002   2.987
 3331TIP3    H2 9879   6.209   3.112   3.091
 3332TIP3   OH2 9880   6.954   1.384   3.118
 3332TIP3    H1 9881   6.870   1.385   3.072
 3332TIP3    H2 9882   6.984   1.293   3.111
 3333TIP3   OH2 9883   5.228   2.908   3.076
 3333TIP3    H1 9884   5.137   2.928   3.054
 3333TIP3    H2 9885   5.252   2.974   3.141
 3334TIP3   OH2 9886   5.458   2.904   2.924
 3334TIP3    H1 9887   5.374   2.907   2.971
 3334TIP3    H2 9888   5.435   2.926   2.833
 3335TIP3   OH2 9889   5.869   2.920   2.717
 3335TIP3    H1 9890   5.798   2.930   2.653
 3335TIP3    H2 9891   5.879   3.007   2.756
 3336TIP3   OH2 9892   6.133   2.858   2.768
 3336TIP3    H1 9893   6.042   2.877   2.746
 3336TIP3    H2 9894   6.184   2.923   2.719
 3337TIP3   OH2 9895   6.334   3.025   2.665
 3337TIP3    H1 9896   6.335   3.112   2.625
 3337TIP3    H2 9897   6.365   2.967   2.595
 3338TIP3   OH2 9898   5.134   2.686   2.790
 3338TIP3    H1 9899   5.161   2.664   2.879
 3338TIP3    H2 9900   5.205   2.655   2.735
 3339TIP3   OH2 9901   5.338   2.574   2.650
 3339TIP3    H1 9902   5.350   2.489   2.692
 3339TIP3    H2 9903   5.425   2.615   2.653
 3340TIP3   OH2 9904   5.607   2.658   2.675
 3340TIP3    H1 9905   5.626   2.566   2.659
 3340TIP3    H2 9906   5.663   2.682   2.749
 3341TIP3   OH2 9907   6.102   1.268   2.709
 3341TIP3    H1 9908   6.075   1.216   2.785
 3341TIP3    H2 9909   6.197   1.270   2.713
 3342TIP3   OH2 9910   5.403   1.011   2.758
 3342TIP3    H1 9911   5.314   0.975   2.766
 3342TIP3    H2 9912   5.459   0.933   2.749
 3343TIP3   OH2 9913   5.232   0.924   2.419
 3343TIP3    H1 9914   5.261   0.971   2.341
 3343TIP3    H2 9915   5.197   0.992   2.477
 3344TIP3   OH2 9916   5.873   1.055   2.646
 3344TIP3    H1 9917   5.924   1.097   2.577
 3344TIP3    H2 9918   5.916   1.081   2.727
 3345TIP3   OH2 9919   6.377   1.242   2.732
 3345TIP3    H1 9920   6.447   1.245   2.666
 3345TIP3    H2 9921   6.378   1.152   2.764
 3346TIP3   OH2 9922   6.435   1.146   2.185
 3346TIP3    H1 9923   6.358   1.195   2.213
 3346TIP3    H2 9924   6.430   1.063   2.232
 3347TIP3   OH2 9925   4.891   2.490   2.179
 3347TIP3    H1 9926   4.809   2.459   2.141
 3347TIP3    H2 9927   4.900   2.580   2.146
 3348TIP3   OH2 9928   5.349   1.045   2.185
 3348TIP3    H1 9929   5.396   0.981   2.132
 3348TIP3    H2 9930   5.417   1.103   2.220
 3349TIP3   OH2 9931   5.830   1.247   2.285
 3349TIP3    H1 9932   5.893   1.199   2.338
 3349TIP3    H2 9933   5.842   1.338   2.311
 3350TIP3   OH2 9934   5.705   2.637   1.768
 3350TIP3    H1 9935   5.789   2.665   1.730
 3350TIP3    H2 9936   5.675   2.567   1.711
 3351TIP3   OH2 9937   6.406   2.781   1.869
 3351TIP3    H1 9938   6.400   2.686   1.861
 3351TIP3    H2 9939   6.364   2.815   1.790
 3352TIP3   OH2 9940   5.635   1.294   3.639
 3352TIP3    H1 9941   5.601   1.227   3.699
 3352TIP3    H2 9942   5.728   1.302   3.662
 3353TIP3   OH2 9943   5.883   1.298   3.763
 3353TIP3    H1 9944   5.960   1.276   3.710
 3353TIP3    H2 9945   5.877   1.227   3.827
 3354TIP3   OH2 9946   5.014   2.478   1.822
 3354TIP3    H1 9947   5.019   2.494   1.917
 3354TIP3    H2 9948   5.095   2.432   1.801
 3355TIP3   OH2 9949   6.704   1.380   3.546
 3355TIP3    H1 9950   6.723   1.353   3.636
 3355TIP3    H2 9951   6.789   1.377   3.502
 3356TIP3   OH2 9952   6.621   2.920   3.058
 3356TIP3    H1 9953   6.548   2.890   3.003
 3356TIP3    H2 9954   6.609   3.014   3.065
 3357TIP3   OH2 9955   7.876   2.310   1.811
 3357TIP3    H1 9956   7.846   2.400   1.800
 3357TIP3    H2 9957   7.804   2.256   1.779
 3358TIP3   OH2 9958   7.893   2.303   2.226
 3358TIP3    H1 9959   7.945   2.285   2.304
 3358TIP3    H2 9960   7.845   2.221   2.210
 3359TIP3   OH2 9961   7.194   2.158   2.565
 3359TIP3    H1 9962   7.233   2.105   2.635
 3359TIP3    H2 9963   7.268   2.182   2.509
 3360TIP3   OH2 9964   8.186   2.602   1.903
 3360TIP3    H1 9965   8.162   2.544   1.976
 3360TIP3    H2 9966   8.207   2.686   1.945
 3361TIP3   OH2 9967   7.190   2.592   2.249
 3361TIP3    H1 9968   7.171   2.498   2.256
 3361TIP3    H2 9969   7.285   2.597   2.243
 3362TIP3   OH2 9970   6.873   1.821   2.018
 3362TIP3    H1 9971   6.824   1.898   2.045
 3362TIP3    H2 9972   6.806   1.754   2.005
 3363TIP3   OH2 9973   6.945   2.097   2.260
 3363TIP3    H1 9974   6.994   2.018   2.286
 3363TIP3    H2 9975   7.011   2.157   2.228
 3364TIP3   OH2 9976   7.792   3.069   1.938
 3364TIP3    H1 9977   7.818   3.000   1.877
 3364TIP3    H2 9978   7.793   3.027   2.024
 3365TIP3   OH2 9979   7.708   2.524   2.223
 3365TIP3    H1 9980   7.751   2.442   2.200
 3365TIP3    H2 9981   7.778   2.581   2.256
 3366TIP3   OH2 9982   8.630   1.826   2.259
 3366TIP3    H1 9983   8.691   1.895   2.287
 3366TIP3    H2 9984   8.647   1.815   2.166
 3367TIP3   OH2 9985   8.121   2.013   2.262
 3367TIP3    H1 9986   8.165   1.935   2.294
 3367TIP3    H2 9987   8.058   1.980   2.198
 3368TIP3   OH2 9988   7.469   1.673   2.224
 3368TIP3    H1 9989   7.447   1.745   2.164
 3368TIP3    H2 9990   7.418   1.599   2.193
 3369TIP3   OH2 9991   8.110   1.745   1.916
 3369TIP3    H1 9992   8.184   1.735   1.976
 3369TIP3    H2 9993   8.149   1.771   1.833
 3370TIP3   OH2 9994   7.084   1.875   2.351
 3370TIP3    H1 9995   7.169   1.855   2.391
 3370TIP3    H2 9996   7.083   1.824   2.270
 3371TIP3   OH2 9997   7.502   2.083   2.167
 3371TIP3    H1 9998   7.597   2.071   2.175
 3371TIP3    H2 9999   7.470   2.000   2.131
 3372TIP3   OH210000   8.760   2.035   2.392
 3372TIP3    H110001   8.689   2.098   2.393
 3372TIP3    H210002   8.824   2.070   2.455
 3373TIP3   OH210003   7.446   1.672   2.670
 3373TIP3    H110004   7.395   1.703   2.595
 3373TIP3    H210005   7.391   1.689   2.746
 3374TIP3   OH210006   7.786   2.554   1.715
 3374TIP3    H110007   7.751   2.516   1.634
 3374TIP3    H210008   7.729   2.628   1.734
 3375TIP3   OH210009   7.540   2.448   2.430
 3375TIP3    H110010   7.487   2.520   2.465
 3375TIP3    H210011   7.589   2.487   2.359
 3376TIP3   OH210012   8.337   1.747   2.069
 3376TIP3    H110013   8.322   1.777   2.159
 3376TIP3    H210014   8.422   1.785   2.045
 3377TIP3   OH210015   7.330   1.776   2.441
 3377TIP3    H110016   7.386   1.850   2.463
 3377TIP3    H210017   7.376   1.732   2.369
 3378TIP3   OH210018   7.386   2.652   2.538
 3378TIP3    H110019   7.372   2.742   2.509
 3378TIP3    H210020   7.308   2.631   2.590
 3379TIP3   OH210021   6.761   2.357   1.797
 3379TIP3    H110022   6.726   2.377   1.710
 3379TIP3    H210023   6.786   2.442   1.833
 3380TIP3   OH210024   8.204   2.856   2.024
 3380TIP3    H110025   8.119   2.849   2.066
 3380TIP3    H210026   8.201   2.940   1.978
 3381TIP3   OH210027   8.472   1.705   2.441
 3381TIP3    H110028   8.383   1.727   2.414
 3381TIP3    H210029   8.528   1.747   2.375
 3382TIP3   OH210030   7.781   1.361   2.406
 3382TIP3    H110031   7.776   1.270   2.433
 3382TIP3    H210032   7.703   1.402   2.444
 3383TIP3   OH210033   7.883   2.917   1.725
 3383TIP3    H110034   7.941   2.841   1.721
 3383TIP3    H210035   7.940   2.991   1.704
 3384TIP3   OH210036   8.026   2.690   1.702
 3384TIP3    H110037   7.949   2.634   1.710
 3384TIP3    H210038   8.085   2.659   1.770
 3385TIP3   OH210039   8.433   2.748   2.372
 3385TIP3    H110040   8.421   2.673   2.314
 3385TIP3    H210041   8.419   2.824   2.315
 3386TIP3   OH210042   7.692   2.163   1.666
 3386TIP3    H110043   7.617   2.203   1.624
 3386TIP3    H210044   7.755   2.149   1.595
 3387TIP3   OH210045   7.579   1.960   1.414
 3387TIP3    H110046   7.610   2.051   1.413
 3387TIP3    H210047   7.647   1.911   1.368
 3388TIP3   OH210048   8.607   2.390   2.226
 3388TIP3    H110049   8.528   2.443   2.213
 3388TIP3    H210050   8.658   2.403   2.147
 3389TIP3   OH210051   8.129   2.342   1.711
 3389TIP3    H110052   8.049   2.335   1.763
 3389TIP3    H210053   8.194   2.376   1.773
 3390TIP3   OH210054   8.310   2.266   2.560
 3390TIP3    H110055   8.308   2.351   2.604
 3390TIP3    H210056   8.228   2.262   2.512
 3391TIP3   OH210057   7.305   2.213   2.017
 3391TIP3    H110058   7.265   2.151   1.956
 3391TIP3    H210059   7.377   2.164   2.057
 3392TIP3   OH210060   7.454   2.640   2.155
 3392TIP3    H110061   7.430   2.625   2.064
 3392TIP3    H210062   7.542   2.601   2.163
 3393TIP3   OH210063   7.406   2.211   2.391
 3393TIP3    H110064   7.443   2.174   2.311
 3393TIP3    H210065   7.456   2.292   2.405
 3394TIP3   OH210066   7.972   2.845   2.165
 3394TIP3    H110067   7.954   2.927   2.212
 3394TIP3    H210068   7.954   2.776   2.228
 3395TIP3   OH210069   7.584   2.747   2.709
 3395TIP3    H110070   7.522   2.803   2.756
 3395TIP3    H210071   7.529   2.695   2.650
 3396TIP3   OH210072   7.913   2.080   1.515
 3396TIP3    H110073   8.005   2.058   1.532
 3396TIP3    H210074   7.911   2.099   1.421
 3397TIP3   OH210075   7.337   2.290   2.860
 3397TIP3    H110076   7.340   2.385   2.874
 3397TIP3    H210077   7.243   2.271   2.851
 3398TIP3   OH210078   7.640   2.788   1.716
 3398TIP3    H110079   7.719   2.840   1.726
 3398TIP3    H210080   7.581   2.843   1.664
 3399TIP3   OH210081   7.373   2.903   2.794
 3399TIP3    H110082   7.349   2.915   2.702
 3399TIP3    H210083   7.289   2.891   2.839
 3400TIP3   OH210084   7.166   2.050   1.832
 3400TIP3    H110085   7.085   2.091   1.803
 3400TIP3    H210086   7.140   1.962   1.859
 3401TIP3   OH210087   8.180   2.674   1.090
 3401TIP3    H110088   8.165   2.763   1.122
 3401TIP3    H210089   8.234   2.686   1.011
 3402TIP3   OH210090   6.970   2.462   2.744
 3402TIP3    H110091   6.901   2.443   2.681
 3402TIP3    H210092   7.004   2.376   2.769
 3403TIP3   OH210093   6.817   2.652   2.393
 3403TIP3    H110094   6.911   2.670   2.405
 3403TIP3    H210095   6.773   2.730   2.427
 3404TIP3   OH210096   8.674   3.129   2.443
 3404TIP3    H110097   8.685   3.034   2.437
 3404TIP3    H210098   8.592   3.140   2.491
 3405TIP3   OH210099   7.773   2.894   2.573
 3405TIP3    H110100   7.763   2.984   2.603
 3405TIP3    H210101   7.705   2.846   2.622
 3406TIP3   OH210102   7.535   2.994   1.542
 3406TIP3    H110103   7.494   2.984   1.457
 3406TIP3    H210104   7.505   3.079   1.574
 3407TIP3   OH210105   6.986   2.847   1.903
 3407TIP3    H110106   7.031   2.839   1.988
 3407TIP3    H210107   6.937   2.765   1.894
 3408TIP3   OH210108   7.777   2.999   1.184
 3408TIP3    H110109   7.731   2.916   1.171
 3408TIP3    H210110   7.796   3.002   1.278
 3409TIP3   OH210111   7.797   2.988   1.460
 3409TIP3    H110112   7.707   2.988   1.492
 3409TIP3    H210113   7.847   2.949   1.532
 3410TIP3   OH210114   8.555   2.235   2.731
 3410TIP3    H110115   8.475   2.250   2.680
 3410TIP3    H210116   8.575   2.143   2.717
 3411TIP3   OH210117   7.169   2.651   2.710
 3411TIP3    H110118   7.220   2.637   2.790
 3411TIP3    H210119   7.097   2.588   2.716
 3412TIP3   OH210120   7.546   1.453   2.528
 3412TIP3    H110121   7.462   1.420   2.497
 3412TIP3    H210122   7.525   1.535   2.573
 3413TIP3   OH210123   8.095   1.577   2.727
 3413TIP3    H110124   8.167   1.547   2.783
 3413TIP3    H210125   8.016   1.558   2.777
 3414TIP3   OH210126   8.322   1.996   2.638
 3414TIP3    H110127   8.283   1.993   2.726
 3414TIP3    H210128   8.309   2.086   2.609
 3415TIP3   OH210129   7.946   2.066   1.240
 3415TIP3    H110130   7.895   2.075   1.159
 3415TIP3    H210131   8.031   2.106   1.219
 3416TIP3   OH210132   7.828   1.415   1.526
 3416TIP3    H110133   7.816   1.422   1.621
 3416TIP3    H210134   7.742   1.432   1.489
 3417TIP3   OH210135   7.489   1.986   2.534
 3417TIP3    H110136   7.444   1.992   2.619
 3417TIP3    H210137   7.467   2.068   2.489
 3418TIP3   OH210138   7.370   1.866   2.055
 3418TIP3    H110139   7.281   1.841   2.081
 3418TIP3    H210140   7.381   1.827   1.968
 3419TIP3   OH210141   7.782   1.920   1.760
 3419TIP3    H110142   7.731   1.998   1.734
 3419TIP3    H210143   7.866   1.955   1.788
 3420TIP3   OH210144   8.031   2.209   2.855
 3420TIP3    H110145   8.007   2.140   2.917
 3420TIP3    H210146   8.124   2.226   2.872
 3421TIP3   OH210147   7.967   1.937   2.052
 3421TIP3    H110148   7.977   1.997   1.978
 3421TIP3    H210149   8.000   1.853   2.019
 3422TIP3   OH210150   7.330   2.004   2.758
 3422TIP3    H110151   7.342   2.067   2.828
 3422TIP3    H210152   7.311   1.921   2.802
 3423TIP3   OH210153   7.341   1.494   1.488
 3423TIP3    H110154   7.337   1.482   1.583
 3423TIP3    H210155   7.255   1.530   1.465
 3424TIP3   OH210156   6.987   1.554   2.260
 3424TIP3    H110157   7.002   1.556   2.354
 3424TIP3    H210158   6.957   1.465   2.242
 3425TIP3   OH210159   6.828   1.501   1.864
 3425TIP3    H110160   6.878   1.536   1.791
 3425TIP3    H210161   6.762   1.568   1.883
 3426TIP3   OH210162   8.060   2.214   2.436
 3426TIP3    H110163   8.088   2.147   2.373
 3426TIP3    H210164   8.015   2.165   2.505
 3427TIP3   OH210165   7.735   1.650   2.123
 3427TIP3    H110166   7.657   1.655   2.178
 3427TIP3    H210167   7.808   1.653   2.185
 3428TIP3   OH210168   7.125   1.756   2.106
 3428TIP3    H110169   7.038   1.773   2.069
 3428TIP3    H210170   7.124   1.663   2.129
 3429TIP3   OH210171   7.375   1.728   1.817
 3429TIP3    H110172   7.469   1.731   1.799
 3429TIP3    H210173   7.333   1.751   1.734
 3430TIP3   OH210174   8.199   1.753   2.335
 3430TIP3    H110175   8.163   1.772   2.422
 3430TIP3    H210176   8.138   1.691   2.296
 3431TIP3   OH210177   7.230   1.767   1.587
 3431TIP3    H110178   7.161   1.714   1.548
 3431TIP3    H210179   7.259   1.823   1.515
 3432TIP3   OH210180   8.380   3.448   2.535
 3432TIP3    H110181   8.375   3.467   2.441
 3432TIP3    H210182   8.458   3.495   2.565
 3433TIP3   OH210183   7.321   2.561   2.943
 3433TIP3    H110184   7.402   2.580   2.991
 3433TIP3    H210185   7.252   2.570   3.009
 3434TIP3   OH210186   7.773   2.042   2.220
 3434TIP3    H110187   7.833   1.995   2.162
 3434TIP3    H210188   7.775   1.992   2.301
 3435TIP3   OH210189   7.298   1.490   2.112
 3435TIP3    H110190   7.266   1.416   2.163
 3435TIP3    H210191   7.293   1.461   2.021
 3436TIP3   OH210192   7.755   1.929   2.477
 3436TIP3    H110193   7.667   1.959   2.501
 3436TIP3    H210194   7.814   1.982   2.531
 3437TIP3   OH210195   7.450   2.293   1.590
 3437TIP3    H110196   7.377   2.233   1.574
 3437TIP3    H210197   7.437   2.324   1.680
 3438TIP3   OH210198   8.383   2.546   2.188
 3438TIP3    H110199   8.418   2.596   2.114
 3438TIP3    H210200   8.299   2.512   2.156
 3439TIP3   OH210201   7.961   1.592   1.362
 3439TIP3    H110202   7.919   1.524   1.414
 3439TIP3    H210203   7.984   1.660   1.426
 3440TIP3   OH210204   7.900   2.625   2.612
 3440TIP3    H110205   7.951   2.612   2.692
 3440TIP3    H210206   7.861   2.711   2.623
 3441TIP3   OH210207   7.957   1.782   1.567
 3441TIP3    H110208   8.049   1.788   1.591
 3441TIP3    H210209   7.919   1.865   1.596
 3442TIP3   OH210210   7.180   2.307   2.244
 3442TIP3    H110211   7.216   2.284   2.159
 3442TIP3    H210212   7.244   2.274   2.307
 3443TIP3   OH210213   7.629   2.476   1.502
 3443TIP3    H110214   7.578   2.554   1.483
 3443TIP3    H210215   7.565   2.412   1.534
 3444TIP3   OH210216   7.061   2.228   2.877
 3444TIP3    H110217   7.062   2.200   2.969
 3444TIP3    H210218   6.986   2.182   2.839
 3445TIP3   OH210219   7.803   2.366   2.897
 3445TIP3    H110220   7.733   2.306   2.871
 3445TIP3    H210221   7.884   2.323   2.868
 3446TIP3   OH210222   8.043   2.914   2.497
 3446TIP3    H110223   7.948   2.900   2.501
 3446TIP3    H210224   8.065   2.949   2.583
 3447TIP3   OH210225   8.411   1.972   1.400
 3447TIP3    H110226   8.459   1.920   1.335
 3447TIP3    H210227   8.414   2.061   1.365
 3448TIP3   OH210228   8.685   2.815   2.464
 3448TIP3    H110229   8.590   2.806   2.456
 3448TIP3    H210230   8.719   2.783   2.381
 3449TIP3   OH210231   8.128   2.772   1.391
 3449TIP3    H110232   8.161   2.749   1.477
 3449TIP3    H210233   8.179   2.718   1.330
 3450TIP3   OH210234   8.133   2.422   2.107
 3450TIP3    H110235   8.044   2.401   2.137
 3450TIP3    H210236   8.170   2.338   2.081
 3451TIP3   OH210237   7.304   2.643   1.916
 3451TIP3    H110238   7.301   2.718   1.856
 3451TIP3    H210239   7.216   2.638   1.952
 3452TIP3   OH210240   6.845   1.927   1.613
 3452TIP3    H110241   6.893   2.005   1.639
 3452TIP3    H210242   6.770   1.924   1.672
 3453TIP3   OH210243   7.389   2.397   1.829
 3453TIP3    H110244   7.369   2.486   1.859
 3453TIP3    H210245   7.362   2.341   1.901
 3454TIP3   OH210246   7.590   2.963   2.366
 3454TIP3    H110247   7.624   3.038   2.318
 3454TIP3    H210248   7.664   2.931   2.417
 3455TIP3   OH210249   7.222   2.864   1.762
 3455TIP3    H110250   7.134   2.871   1.801
 3455TIP3    H210251   7.258   2.952   1.768
 3456TIP3   OH210252   7.941   2.628   2.339
 3456TIP3    H110253   7.925   2.624   2.434
 3456TIP3    H210254   8.024   2.581   2.327
 3457TIP3   OH210255   8.067   2.430   1.249
 3457TIP3    H110256   8.050   2.466   1.336
 3457TIP3    H210257   7.981   2.402   1.218
 3458TIP3   OH210258   8.194   3.122   2.379
 3458TIP3    H110259   8.125   3.058   2.398
 3458TIP3    H210260   8.159   3.174   2.307
 3459TIP3   OH210261   8.236   2.935   1.156
 3459TIP3    H110262   8.244   2.937   1.061
 3459TIP3    H210263   8.163   2.994   1.175
 3460TIP3   OH210264   7.274   1.750   2.874
 3460TIP3    H110265   7.179   1.760   2.876
 3460TIP3    H210266   7.294   1.693   2.948
 3461TIP3   OH210267   8.032   2.492   1.506
 3461TIP3    H110268   8.054   2.433   1.578
 3461TIP3    H210269   8.056   2.579   1.538
 3462TIP3   OH210270   7.018   2.862   2.527
 3462TIP3    H110271   7.069   2.802   2.581
 3462TIP3    H210272   7.034   2.948   2.566
 3463TIP3   OH210273   7.219   2.478   1.243
 3463TIP3    H110274   7.249   2.393   1.212
 3463TIP3    H210275   7.222   2.472   1.339
 3464TIP3   OH210276   7.220   2.484   1.517
 3464TIP3    H110277   7.291   2.455   1.575
 3464TIP3    H210278   7.223   2.579   1.522
 3465TIP3   OH210279   6.947   2.169   1.708
 3465TIP3    H110280   6.884   2.221   1.758
 3465TIP3    H210281   6.975   2.227   1.638
 3466TIP3   OH210282   8.116   1.814   2.589
 3466TIP3    H110283   8.198   1.854   2.617
 3466TIP3    H210284   8.109   1.734   2.641
 3467TIP3   OH210285   7.979   1.555   1.768
 3467TIP3    H110286   7.955   1.607   1.691
 3467TIP3    H210287   8.023   1.616   1.827
 3468TIP3   OH210288   7.487   2.694   1.427
 3468TIP3    H110289   7.399   2.710   1.460
 3468TIP3    H210290   7.516   2.779   1.393
 3469TIP3   OH210291   7.651   1.707   1.865
 3469TIP3    H110292   7.699   1.784   1.836
 3469TIP3    H210293   7.676   1.696   1.957
 3470TIP3   OH210294   7.959   2.046   2.629
 3470TIP3    H110295   7.984   2.088   2.711
 3470TIP3    H210296   8.008   1.964   2.627
 3471TIP3   OH210297   7.821   1.441   1.964
 3471TIP3    H110298   7.799   1.517   2.018
 3471TIP3    H210299   7.886   1.473   1.901
 3472TIP3   OH210300   7.235   2.757   1.511
 3472TIP3    H110301   7.207   2.826   1.451
 3472TIP3    H210302   7.228   2.796   1.598
 3473TIP3   OH210303   7.341   1.458   1.766
 3473TIP3    H110304   7.335   1.548   1.797
 3473TIP3    H210305   7.434   1.435   1.775
 3474TIP3   OH210306   8.595   1.980   2.633
 3474TIP3    H110307   8.501   1.962   2.628
 3474TIP3    H210308   8.627   1.967   2.544
 3475TIP3   OH210309   8.223   2.167   2.050
 3475TIP3    H110310   8.169   2.119   2.112
 3475TIP3    H210311   8.313   2.147   2.075
 3476TIP3   OH210312   6.977   2.356   1.499
 3476TIP3    H110313   7.052   2.414   1.515
 3476TIP3    H210314   7.006   2.298   1.430
 3477TIP3   OH210315   6.884   1.649   1.635
 3477TIP3    H110316   6.892   1.745   1.636
 3477TIP3    H210317   6.805   1.632   1.583
 3478TIP3   OH210318   8.217   3.124   1.941
 3478TIP3    H110319   8.174   3.189   1.886
 3478TIP3    H210320   8.310   3.144   1.934
 3479TIP3   OH210321   7.284   1.370   2.491
 3479TIP3    H110322   7.262   1.337   2.404
 3479TIP3    H210323   7.275   1.294   2.548
 3480TIP3   OH210324   6.811   2.626   1.878
 3480TIP3    H110325   6.768   2.661   1.956
 3480TIP3    H210326   6.767   2.668   1.804
 3481TIP3   OH210327   7.020   3.164   2.949
 3481TIP3    H110328   7.102   3.170   2.998
 3481TIP3    H210329   7.008   3.070   2.934
 3482TIP3   OH210330   7.482   3.064   2.989
 3482TIP3    H110331   7.573   3.036   2.998
 3482TIP3    H210332   7.447   3.011   2.918
 3483TIP3   OH210333   7.422   2.625   1.126
 3483TIP3    H110334   7.339   2.616   1.173
 3483TIP3    H210335   7.466   2.541   1.140
 3484TIP3   OH210336   8.098   3.010   2.748
 3484TIP3    H110337   8.114   2.939   2.811
 3484TIP3    H210338   8.172   3.070   2.760
 3485TIP3   OH210339   7.972   2.880   1.012
 3485TIP3    H110340   7.906   2.922   1.067
 3485TIP3    H210341   7.923   2.814   0.963
 3486TIP3   OH210342   7.116   2.564   3.134
 3486TIP3    H110343   7.135   2.471   3.146
 3486TIP3    H210344   7.029   2.566   3.094
 3487TIP3   OH210345   7.088   2.170   1.336
 3487TIP3    H110346   7.134   2.143   1.415
 3487TIP3    H210347   7.158   2.183   1.272
 3488TIP3   OH210348   7.738   2.642   2.913
 3488TIP3    H110349   7.694   2.663   2.831
 3488TIP3    H210350   7.773   2.554   2.900
 3489TIP3   OH210351   7.507   2.377   1.200
 3489TIP3    H110352   7.526   2.359   1.292
 3489TIP3    H210353   7.462   2.298   1.169
 3490TIP3   OH210354   8.212   2.688   2.526
 3490TIP3    H110355   8.289   2.716   2.477
 3490TIP3    H210356   8.148   2.758   2.512
 3491TIP3   OH210357   7.231   2.310   3.145
 3491TIP3    H110358   7.305   2.291   3.088
 3491TIP3    H210359   7.270   2.327   3.230
 3492TIP3   OH210360   7.239   2.118   1.568
 3492TIP3    H110361   7.223   2.087   1.657
 3492TIP3    H210362   7.267   2.041   1.520
 3493TIP3   OH210363   7.598   2.190   2.806
 3493TIP3    H110364   7.511   2.229   2.816
 3493TIP3    H210365   7.626   2.218   2.719
 3494TIP3   OH210366   7.311   1.931   1.386
 3494TIP3    H110367   7.292   1.926   1.292
 3494TIP3    H210368   7.407   1.935   1.390
 3495TIP3   OH210369   8.093   2.561   2.877
 3495TIP3    H110370   8.163   2.524   2.824
 3495TIP3    H210371   8.089   2.506   2.955
 3496TIP3   OH210372   8.179   2.141   1.116
 3496TIP3    H110373   8.172   2.109   1.026
 3496TIP3    H210374   8.181   2.237   1.107
 3497TIP3   OH210375   7.699   1.956   2.909
 3497TIP3    H110376   7.701   1.886   2.844
 3497TIP3    H210377   7.666   2.032   2.862
 3498TIP3   OH210378   7.706   1.758   2.706
 3498TIP3    H110379   7.734   1.793   2.622
 3498TIP3    H210380   7.615   1.730   2.692
 3499TIP3   OH210381   7.707   2.285   2.576
 3499TIP3    H110382   7.796   2.318   2.564
 3499TIP3    H210383   7.652   2.345   2.525
 3500TIP3   OH210384   8.299   2.246   2.948
 3500TIP3    H110385   8.331   2.156   2.947
 3500TIP3    H210386   8.378   2.299   2.935
 3501TIP3   OH210387   8.339   2.513   2.690
 3501TIP3    H110388   8.286   2.574   2.641
 3501TIP3    H210389   8.429   2.528   2.660
 3502TIP3   OH210390   7.585   2.036   3.153
 3502TIP3    H110391   7.515   1.974   3.173
 3502TIP3    H210392   7.613   2.014   3.064
 3503TIP3   OH210393   7.829   1.528   2.809
 3503TIP3    H110394   7.789   1.608   2.776
 3503TIP3    H210395   7.763   1.461   2.795
 3504TIP3   OH210396   7.957   1.994   3.009
 3504TIP3    H110397   7.948   1.981   3.103
 3504TIP3    H210398   7.870   1.973   2.974
 3505TIP3   OH210399   8.206   1.963   2.881
 3505TIP3    H110400   8.125   1.957   2.931
 3505TIP3    H210401   8.273   1.929   2.940
 3506TIP3   OH210402   8.424   1.906   3.038
 3506TIP3    H110403   8.437   1.812   3.046
 3506TIP3    H210404   8.420   1.937   3.129
 3507TIP3   OH210405   7.414   1.819   3.217
 3507TIP3    H110406   7.421   1.732   3.178
 3507TIP3    H210407   7.454   1.811   3.303
 3508TIP3   OH210408   7.894   1.501   3.074
 3508TIP3    H110409   7.964   1.436   3.067
 3508TIP3    H210410   7.864   1.515   2.984
 3509TIP3   OH210411   7.991   1.715   3.219
 3509TIP3    H110412   7.961   1.643   3.164
 3509TIP3    H210413   7.919   1.778   3.219
 3510TIP3   OH210414   7.215   2.964   1.331
 3510TIP3    H110415   7.309   2.958   1.312
 3510TIP3    H210416   7.178   3.009   1.255
 3511TIP3   OH210417   6.705   2.359   1.502
 3511TIP3    H110418   6.800   2.369   1.504
 3511TIP3    H210419   6.691   2.272   1.464
 3512TIP3   OH210420   6.613   2.933   1.966
 3512TIP3    H110421   6.548   2.880   1.920
 3512TIP3    H210422   6.658   2.872   2.024
 3513TIP3   OH210423   6.758   2.764   2.131
 3513TIP3    H110424   6.750   2.695   2.196
 3513TIP3    H210425   6.810   2.832   2.174
 3514TIP3   OH210426   8.478   3.204   1.950
 3514TIP3    H110427   8.501   3.223   2.041
 3514TIP3    H210428   8.527   3.268   1.899
 3515TIP3   OH210429   8.503   3.211   2.226
 3515TIP3    H110430   8.459   3.126   2.220
 3515TIP3    H210431   8.577   3.196   2.284
 3516TIP3   OH210432   8.571   2.901   2.797
 3516TIP3    H110433   8.498   2.912   2.857
 3516TIP3    H210434   8.617   2.985   2.798
 3517TIP3   OH210435   8.453   2.447   1.428
 3517TIP3    H110436   8.512   2.488   1.365
 3517TIP3    H210437   8.511   2.409   1.494
 3518TIP3   OH210438   8.444   2.385   1.774
 3518TIP3    H110439   8.411   2.328   1.705
 3518TIP3    H210440   8.519   2.337   1.811
 3519TIP3   OH210441   8.554   2.695   2.027
 3519TIP3    H110442   8.579   2.653   1.945
 3519TIP3    H210443   8.550   2.789   2.006
 3520TIP3   OH210444   8.367   2.969   2.221
 3520TIP3    H110445   8.299   3.011   2.274
 3520TIP3    H210446   8.320   2.928   2.149
 3521TIP3   OH210447   8.425   2.205   1.250
 3521TIP3    H110448   8.339   2.186   1.213
 3521TIP3    H210449   8.414   2.289   1.295
 3522TIP3   OH210450   8.365   1.705   1.112
 3522TIP3    H110451   8.296   1.769   1.125
 3522TIP3    H210452   8.446   1.752   1.133
 3523TIP3   OH210453   8.303   2.046   1.806
 3523TIP3    H110454   8.398   2.034   1.815
 3523TIP3    H210455   8.276   2.084   1.890
 3524TIP3   OH210456   6.931   2.200   2.514
 3524TIP3    H110457   6.921   2.164   2.425
 3524TIP3    H210458   7.025   2.194   2.531
 3525TIP3   OH210459   8.602   2.557   2.601
 3525TIP3    H110460   8.666   2.488   2.585
 3525TIP3    H210461   8.628   2.629   2.544
 3526TIP3   OH210462   8.776   2.337   2.600
 3526TIP3    H110463   8.701   2.304   2.650
 3526TIP3    H210464   8.842   2.268   2.607
 3527TIP3   OH210465   8.222   1.734   1.663
 3527TIP3    H110466   8.298   1.695   1.707
 3527TIP3    H210467   8.238   1.719   1.570
 3528TIP3   OH210468   8.460   2.078   2.134
 3528TIP3    H110469   8.544   2.082   2.087
 3528TIP3    H210470   8.484   2.088   2.227
 3529TIP3   OH210471   8.529   2.185   2.390
 3529TIP3    H110472   8.453   2.214   2.440
 3529TIP3    H210473   8.553   2.261   2.336
 3530TIP3   OH210474   7.149   1.876   3.155
 3530TIP3    H110475   7.243   1.872   3.173
 3530TIP3    H210476   7.114   1.795   3.191
 3531TIP3   OH210477   8.427   1.573   1.774
 3531TIP3    H110478   8.426   1.559   1.869
 3531TIP3    H210479   8.366   1.508   1.739
 3532TIP3   OH210480   7.112   1.586   2.521
 3532TIP3    H110481   7.167   1.508   2.519
 3532TIP3    H210482   7.170   1.657   2.494
 3533TIP3   OH210483   6.904   1.860   2.566
 3533TIP3    H110484   6.955   1.847   2.486
 3533TIP3    H210485   6.940   1.940   2.604
 3534TIP3   OH210486   8.839   1.890   2.754
 3534TIP3    H110487   8.759   1.936   2.780
 3534TIP3    H210488   8.810   1.823   2.692
 3535TIP3   OH210489   6.881   1.322   2.071
 3535TIP3    H110490   6.802   1.318   2.125
 3535TIP3    H210491   6.867   1.396   2.012
 3536TIP3   OH210492   8.022   3.130   1.639
 3536TIP3    H110493   8.073   3.108   1.560
 3536TIP3    H210494   8.076   3.195   1.684
 3537TIP3   OH210495   7.124   1.424   2.895
 3537TIP3    H110496   7.071   1.414   2.973
 3537TIP3    H210497   7.068   1.471   2.833
 3538TIP3   OH210498   7.145   2.884   2.958
 3538TIP3    H110499   7.052   2.861   2.951
 3538TIP3    H210500   7.167   2.871   3.050
 3539TIP3   OH210501   7.361   2.928   2.513
 3539TIP3    H110502   7.311   3.004   2.482
 3539TIP3    H210503   7.446   2.936   2.470
 3540TIP3   OH210504   7.757   3.161   2.651
 3540TIP3    H110505   7.794   3.153   2.739
 3540TIP3    H210506   7.821   3.214   2.603
 3541TIP3   OH210507   7.952   3.313   2.526
 3541TIP3    H110508   8.016   3.260   2.479
 3541TIP3    H210509   8.004   3.372   2.580
 3542TIP3   OH210510   8.705   1.679   2.611
 3542TIP3    H110511   8.622   1.700   2.568
 3542TIP3    H210512   8.741   1.607   2.559
 3543TIP3   OH210513   7.024   3.164   2.563
 3543TIP3    H110514   6.933   3.182   2.539
 3543TIP3    H210515   7.046   3.232   2.627
 3544TIP3   OH210516   7.254   3.160   2.410
 3544TIP3    H110517   7.171   3.164   2.458
 3544TIP3    H210518   7.231   3.183   2.320
 3545TIP3   OH210519   7.663   3.176   2.207
 3545TIP3    H110520   7.593   3.187   2.142
 3545TIP3    H210521   7.674   3.263   2.246
 3546TIP3   OH210522   7.925   3.104   2.248
 3546TIP3    H110523   7.834   3.132   2.235
 3546TIP3    H210524   7.977   3.172   2.205
 3547TIP3   OH210525   8.124   3.274   2.153
 3547TIP3    H110526   8.130   3.363   2.119
 3547TIP3    H210527   8.155   3.219   2.081
 3548TIP3   OH210528   6.932   2.943   2.276
 3548TIP3    H110529   6.959   2.921   2.365
 3548TIP3    H210530   7.003   2.912   2.221
 3549TIP3   OH210531   7.136   2.832   2.135
 3549TIP3    H110532   7.147   2.748   2.179
 3549TIP3    H210533   7.222   2.874   2.139
 3550TIP3   OH210534   7.404   2.916   2.163
 3550TIP3    H110535   7.423   2.823   2.147
 3550TIP3    H210536   7.458   2.939   2.238
 3551TIP3   OH210537   7.981   1.572   2.250
 3551TIP3    H110538   7.942   1.497   2.295
 3551TIP3    H210539   8.042   1.534   2.187
 3552TIP3   OH210540   8.485   1.501   2.058
 3552TIP3    H110541   8.549   1.570   2.043
 3552TIP3    H210542   8.406   1.546   2.087
 3553TIP3   OH210543   7.224   1.261   2.245
 3553TIP3    H110544   7.137   1.220   2.245
 3553TIP3    H210545   7.285   1.188   2.239
 3554TIP3   OH210546   6.975   1.150   1.866
 3554TIP3    H110547   7.012   1.216   1.808
 3554TIP3    H210548   6.950   1.200   1.944
 3555TIP3   OH210549   7.680   1.289   2.150
 3555TIP3    H110550   7.727   1.344   2.088
 3555TIP3    H210551   7.714   1.316   2.236
 3556TIP3   OH210552   8.174   1.447   2.095
 3556TIP3    H110553   8.189   1.396   2.016
 3556TIP3    H210554   8.181   1.384   2.167
 3557TIP3   OH210555   8.220   1.403   1.709
 3557TIP3    H110556   8.136   1.449   1.719
 3557TIP3    H210557   8.202   1.314   1.741
 3558TIP3   OH210558   6.692   2.746   1.660
 3558TIP3    H110559   6.609   2.713   1.626
 3558TIP3    H210560   6.697   2.837   1.630
 3559TIP3   OH210561   7.114   1.315   1.681
 3559TIP3    H110562   7.159   1.252   1.625
 3559TIP3    H210563   7.185   1.365   1.722
 3560TIP3   OH210564   7.626   1.443   1.765
 3560TIP3    H110565   7.679   1.431   1.844
 3560TIP3    H210566   7.624   1.538   1.752
 3561TIP3   OH210567   7.483   2.946   1.270
 3561TIP3    H110568   7.523   3.023   1.230
 3561TIP3    H210569   7.494   2.877   1.205
 3562TIP3   OH210570   8.145   3.051   1.414
 3562TIP3    H110571   8.137   2.957   1.397
 3562TIP3    H210572   8.115   3.092   1.333
 3563TIP3   OH210573   7.433   1.550   3.129
 3563TIP3    H110574   7.398   1.483   3.187
 3563TIP3    H210575   7.525   1.557   3.153
 3564TIP3   OH210576   7.680   1.553   3.252
 3564TIP3    H110577   7.757   1.532   3.198
 3564TIP3    H210578   7.675   1.481   3.315
 3565TIP3   OH210579   6.787   2.743   1.329
 3565TIP3    H110580   6.796   2.754   1.424
 3565TIP3    H210581   6.868   2.699   1.302
 3566TIP3   OH210582   8.492   1.638   3.042
 3566TIP3    H110583   8.515   1.607   3.130
 3566TIP3    H210584   8.574   1.635   2.993
 3567TIP3   OH210585   8.418   3.175   2.541
 3567TIP3    H110586   8.344   3.144   2.489
 3567TIP3    H210587   8.404   3.269   2.548
 3568TIP3   OH210588   8.582   2.058   1.764
 3568TIP3    H110589   8.629   2.081   1.844
 3568TIP3    H210590   8.623   2.113   1.697
 3569TIP3   OH210591   8.725   2.303   1.777
 3569TIP3    H110592   8.816   2.274   1.775
 3569TIP3    H210593   8.711   2.347   1.693
 3570TIP3   OH210594   8.649   2.616   1.301
 3570TIP3    H110595   8.570   2.664   1.276
 3570TIP3    H210596   8.690   2.671   1.368
 3571TIP3   OH210597   8.763   2.715   2.219
 3571TIP3    H110598   8.697   2.691   2.154
 3571TIP3    H210599   8.791   2.631   2.256
 3572TIP3   OH210600   8.584   2.951   1.928
 3572TIP3    H110601   8.672   2.980   1.951
 3572TIP3    H210602   8.529   3.029   1.938
 3573TIP3   OH210603   8.787   3.186   1.446
 3573TIP3    H110604   8.867   3.173   1.497
 3573TIP3    H210605   8.750   3.098   1.437
 3574TIP3   OH210606   8.878   2.963   2.223
 3574TIP3    H110607   8.952   2.950   2.282
 3574TIP3    H210608   8.838   2.877   2.214
 3575TIP3   OH210609   8.813   2.492   2.373
 3575TIP3    H110610   8.828   2.441   2.454
 3575TIP3    H210611   8.746   2.442   2.326
 3576TIP3   OH210612   8.694   2.339   1.291
 3576TIP3    H110613   8.686   2.432   1.271
 3576TIP3    H210614   8.666   2.295   1.211
 3577TIP3   OH210615   8.787   3.124   2.021
 3577TIP3    H110616   8.825   3.072   2.091
 3577TIP3    H210617   8.810   3.214   2.043
 3578TIP3   OH210618   8.645   2.955   1.394
 3578TIP3    H110619   8.563   3.005   1.389
 3578TIP3    H210620   8.673   2.945   1.303
 3579TIP3   OH210621   8.780   3.400   2.408
 3579TIP3    H110622   8.862   3.396   2.457
 3579TIP3    H210623   8.749   3.310   2.408
 3580TIP3   OH210624   8.913   2.881   2.616
 3580TIP3    H110625   8.948   2.808   2.667
 3580TIP3    H210626   8.833   2.847   2.577
 3581TIP3   OH210627   8.587   2.689   0.989
 3581TIP3    H110628   8.676   2.670   1.016
 3581TIP3    H210629   8.533   2.624   1.035
 3582TIP3   OH210630   8.405   3.243   1.500
 3582TIP3    H110631   8.389   3.186   1.426
 3582TIP3    H210632   8.439   3.185   1.569
 3583TIP3   OH210633   8.518   3.059   1.667
 3583TIP3    H110634   8.513   2.992   1.735
 3583TIP3    H210635   8.596   3.110   1.689
 3584TIP3   OH210636   8.771   2.438   2.010
 3584TIP3    H110637   8.743   2.386   1.935
 3584TIP3    H210638   8.839   2.496   1.975
 3585TIP3   OH210639   8.932   2.108   2.610
 3585TIP3    H110640   9.028   2.105   2.612
 3585TIP3    H210641   8.905   2.033   2.662
 3586TIP3   OH210642   8.707   2.103   2.018
 3586TIP3    H110643   8.750   2.018   2.015
 3586TIP3    H210644   8.773   2.163   2.052
 3587TIP3   OH210645   8.939   3.147   2.538
 3587TIP3    H110646   8.852   3.149   2.498
 3587TIP3    H210647   8.953   3.055   2.559
 3588TIP3   OH210648   8.820   3.402   2.037
 3588TIP3    H110649   8.730   3.425   2.014
 3588TIP3    H210650   8.850   3.476   2.090
 3589TIP3   OH210651   9.015   3.309   1.846
 3589TIP3    H110652   8.956   3.335   1.917
 3589TIP3    H210653   9.017   3.385   1.787
 3590TIP3   OH210654   8.737   3.197   1.758
 3590TIP3    H110655   8.755   3.176   1.849
 3590TIP3    H210656   8.816   3.172   1.711
 3591TIP3   OH210657   8.980   3.126   1.641
 3591TIP3    H110658   9.056   3.074   1.615
 3591TIP3    H210659   9.012   3.184   1.710
 3592TIP3   OH210660   8.430   3.084   1.281
 3592TIP3    H110661   8.357   3.033   1.246
 3592TIP3    H210662   8.446   3.151   1.216
 3593TIP3   OH210663   8.637   2.923   0.780
 3593TIP3    H110664   8.591   2.955   0.858
 3593TIP3    H210665   8.729   2.930   0.802
 3594TIP3   OH210666   0.371   3.113   3.497
 3594TIP3    H110667   0.335   3.198   3.472
 3594TIP3    H210668   0.306   3.050   3.467
 3595TIP3   OH210669   0.367   3.081   3.906
 3595TIP3    H110670   0.415   3.066   3.988
 3595TIP3    H210671   0.322   2.998   3.889
 3596TIP3   OH210672   9.478   2.939   4.266
 3596TIP3    H110673   9.483   2.881   4.342
 3596TIP3    H210674   9.563   2.983   4.264
 3597TIP3   OH210675   0.636   3.397   3.585
 3597TIP3    H110676   0.608   3.331   3.648
 3597TIP3    H210677   0.648   3.476   3.636
 3598TIP3   OH210678   9.563   3.304   3.922
 3598TIP3    H110679   9.500   3.232   3.931
 3598TIP3    H210680   9.530   3.371   3.982
 3599TIP3   OH210681   0.273   3.837   3.589
 3599TIP3    H110682   0.304   3.766   3.532
 3599TIP3    H210683   0.248   3.793   3.670
 3600TIP3   OH210684   0.194   3.303   3.905
 3600TIP3    H110685   0.240   3.223   3.878
 3600TIP3    H210686   0.263   3.358   3.942
 3601TIP3   OH210687   1.188   2.619   3.917
 3601TIP3    H110688   1.197   2.708   3.952
 3601TIP3    H210689   1.220   2.626   3.827
 3602TIP3   OH210690   0.583   2.800   3.961
 3602TIP3    H110691   0.618   2.714   3.985
 3602TIP3    H210692   0.537   2.785   3.878
 3603TIP3   OH210693   9.687   2.537   3.876
 3603TIP3    H110694   9.591   2.534   3.868
 3603TIP3    H210695   9.718   2.470   3.815
 3604TIP3   OH210696   0.644   2.588   3.571
 3604TIP3    H110697   0.712   2.567   3.635
 3604TIP3    H210698   0.691   2.620   3.494
 3605TIP3   OH210699   9.407   2.551   3.935
 3605TIP3    H110700   9.393   2.493   4.009
 3605TIP3    H210701   9.398   2.639   3.971
 3606TIP3   OH210702  -0.016   2.831   3.855
 3606TIP3    H110703   0.079   2.839   3.859
 3606TIP3    H210704  -0.033   2.737   3.854
 3607TIP3   OH210705   1.218   2.840   4.097
 3607TIP3    H110706   1.146   2.897   4.070
 3607TIP3    H210707   1.183   2.791   4.172
 3608TIP3   OH210708   9.709   2.429   4.368
 3608TIP3    H110709   9.663   2.474   4.297
 3608TIP3    H210710   9.661   2.454   4.448
 3609TIP3   OH210711   0.264   3.329   3.361
 3609TIP3    H110712   0.234   3.297   3.275
 3609TIP3    H210713   0.205   3.401   3.382
 3610TIP3   OH210714   0.038   3.210   4.110
 3610TIP3    H110715  -0.011   3.281   4.151
 3610TIP3    H210716   0.082   3.251   4.036
 3611TIP3   OH210717   0.814   2.567   3.782
 3611TIP3    H110718   0.760   2.549   3.859
 3611TIP3    H210719   0.856   2.651   3.801
 3612TIP3   OH210720   9.627   2.556   4.147
 3612TIP3    H110721   9.664   2.641   4.173
 3612TIP3    H210722   9.648   2.548   4.054
 3613TIP3   OH210723   9.689   3.404   4.237
 3613TIP3    H110724   9.659   3.453   4.160
 3613TIP3    H210725   9.617   3.411   4.299
 3614TIP3   OH210726   0.680   3.640   3.734
 3614TIP3    H110727   0.594   3.628   3.773
 3614TIP3    H210728   0.672   3.721   3.683
 3615TIP3   OH210729   0.966   2.524   4.078
 3615TIP3    H110730   0.879   2.531   4.038
 3615TIP3    H210731   1.027   2.544   4.007
 3616TIP3   OH210732   0.270   2.190   4.103
 3616TIP3    H110733   0.264   2.094   4.110
 3616TIP3    H210734   0.186   2.222   4.133
 3617TIP3   OH210735   0.368   3.669   3.388
 3617TIP3    H110736   0.422   3.590   3.375
 3617TIP3    H210737   0.424   3.741   3.358
 3618TIP3   OH210738   0.517   3.444   3.338
 3618TIP3    H110739   0.440   3.387   3.343
 3618TIP3    H210740   0.569   3.420   3.415
 3619TIP3   OH210741   0.905   3.517   4.061
 3619TIP3    H110742   0.875   3.458   3.992
 3619TIP3    H210743   0.901   3.604   4.022
 3620TIP3   OH210744   0.201   2.949   3.346
 3620TIP3    H110745   0.121   2.989   3.315
 3620TIP3    H210746   0.252   2.931   3.267
 3621TIP3   OH210747   1.050   3.222   3.943
 3621TIP3    H110748   0.966   3.263   3.921
 3621TIP3    H210749   1.096   3.217   3.859
 3622TIP3   OH210750   0.559   3.062   3.304
 3622TIP3    H110751   0.502   3.084   3.377
 3622TIP3    H210752   0.637   3.024   3.345
 3623TIP3   OH210753   0.767   3.064   4.231
 3623TIP3    H110754   0.757   3.142   4.285
 3623TIP3    H210755   0.682   3.054   4.188
 3624TIP3   OH210756   9.582   2.964   3.721
 3624TIP3    H110757   9.567   2.903   3.649
 3624TIP3    H210758   9.657   2.928   3.768
 3625TIP3   OH210759   9.770   3.447   3.815
 3625TIP3    H110760   9.701   3.387   3.843
 3625TIP3    H210761   9.851   3.399   3.831
 3626TIP3   OH210762   9.688   2.985   4.069
 3626TIP3    H110763   9.725   2.942   3.992
 3626TIP3    H210764   9.739   3.065   4.079
 3627TIP3   OH210765   0.444   3.618   3.860
 3627TIP3    H110766   0.423   3.703   3.901
 3627TIP3    H210767   0.420   3.553   3.926
 3628TIP3   OH210768   0.083   3.522   4.397
 3628TIP3    H110769   0.029   3.582   4.449
 3628TIP3    H210770   0.020   3.472   4.345
 3629TIP3   OH210771   0.397   2.897   3.153
 3629TIP3    H110772   0.457   2.961   3.192
 3629TIP3    H210773   0.417   2.899   3.059
 3630TIP3   OH210774   9.669   3.121   4.402
 3630TIP3    H110775   9.689   3.206   4.362
 3630TIP3    H210776   9.627   3.143   4.485
 3631TIP3   OH210777   0.113   3.561   3.368
 3631TIP3    H110778   0.196   3.605   3.388
 3631TIP3    H210779   0.063   3.626   3.319
 3632TIP3   OH210780   9.703   3.708   4.487
 3632TIP3    H110781   9.681   3.723   4.395
 3632TIP3    H210782   9.620   3.685   4.528
 3633TIP3   OH210783   0.686   3.484   2.743
 3633TIP3    H110784   0.687   3.578   2.723
 3633TIP3    H210785   0.776   3.456   2.726
 3634TIP3   OH210786   9.256   3.279   4.465
 3634TIP3    H110787   9.181   3.295   4.408
 3634TIP3    H210788   9.226   3.212   4.526
 3635TIP3   OH210789   1.119   3.908   4.109
 3635TIP3    H110790   1.097   3.821   4.078
 3635TIP3    H210791   1.048   3.931   4.169
 3636TIP3   OH210792   0.253   3.666   4.243
 3636TIP3    H110793   0.252   3.757   4.272
 3636TIP3    H210794   0.188   3.622   4.299
 3637TIP3   OH210795   9.810   3.758   3.200
 3637TIP3    H110796   9.764   3.757   3.115
 3637TIP3    H210797   9.782   3.839   3.242
 3638TIP3   OH210798   0.199   3.676   2.855
 3638TIP3    H110799   0.264   3.615   2.820
 3638TIP3    H210800   0.234   3.703   2.939
 3639TIP3   OH210801   0.268   3.754   3.111
 3639TIP3    H110802   0.181   3.750   3.150
 3639TIP3    H210803   0.328   3.731   3.182
 3640TIP3   OH210804   1.006   3.010   4.405
 3640TIP3    H110805   0.928   3.013   4.349
 3640TIP3    H210806   1.022   2.917   4.420
 3641TIP3   OH210807   9.482   3.440   4.407
 3641TIP3    H110808   9.538   3.448   4.485
 3641TIP3    H210809   9.409   3.386   4.437
 3642TIP3   OH210810   9.813   2.241   4.199
 3642TIP3    H110811   9.738   2.212   4.147
 3642TIP3    H210812   9.778   2.309   4.256
 3643TIP3   OH210813   0.550   2.371   4.420
 3643TIP3    H110814   0.618   2.343   4.481
 3643TIP3    H210815   0.468   2.355   4.466
 3644TIP3   OH210816   0.799   2.809   4.350
 3644TIP3    H110817   0.746   2.793   4.428
 3644TIP3    H210818   0.757   2.883   4.306
 3645TIP3   OH210819   0.465   2.907   2.888
 3645TIP3    H110820   0.398   2.940   2.827
 3645TIP3    H210821   0.548   2.932   2.847
 3646TIP3   OH210822   9.751   2.781   4.245
 3646TIP3    H110823   9.708   2.795   4.330
 3646TIP3    H210824   9.725   2.856   4.192
 3647TIP3   OH210825   0.308   2.744   3.496
 3647TIP3    H110826   0.259   2.814   3.453
 3647TIP3    H210827   0.371   2.715   3.430
 3648TIP3   OH210828   0.500   2.989   4.544
 3648TIP3    H110829   0.468   2.922   4.605
 3648TIP3    H210830   0.591   3.002   4.569
 3649TIP3   OH210831   0.474   2.748   3.714
 3649TIP3    H110832   0.405   2.767   3.651
 3649TIP3    H210833   0.526   2.679   3.674
 3650TIP3   OH210834   9.592   2.789   4.483
 3650TIP3    H110835   9.548   2.850   4.543
 3650TIP3    H210836   9.617   2.715   4.538
 3651TIP3   OH210837   0.515   2.997   4.132
 3651TIP3    H110838   0.544   2.932   4.068
 3651TIP3    H210839   0.467   2.947   4.198
 3652TIP3   OH210840   0.206   2.511   3.844
 3652TIP3    H110841   0.145   2.521   3.917
 3652TIP3    H210842   0.285   2.473   3.883
 3653TIP3   OH210843   0.665   2.540   4.020
 3653TIP3    H110844   0.645   2.559   4.111
 3653TIP3    H210845   0.596   2.480   3.991
 3654TIP3   OH210846   0.843   4.239   4.222
 3654TIP3    H110847   0.831   4.261   4.129
 3654TIP3    H210848   0.919   4.291   4.248
 3655TIP3   OH210849   9.672   3.400   4.601
 3655TIP3    H110850   9.716   3.432   4.680
 3655TIP3    H210851   9.628   3.320   4.630
 3656TIP3   OH210852   0.256   2.821   3.906
 3656TIP3    H110853   0.312   2.765   3.853
 3656TIP3    H210854   0.252   2.778   3.991
 3657TIP3   OH210855   0.211   2.718   4.165
 3657TIP3    H110856   0.127   2.753   4.195
 3657TIP3    H210857   0.276   2.765   4.218
 3658TIP3   OH210858   9.771   3.096   3.283
 3658TIP3    H110859   9.693   3.130   3.238
 3658TIP3    H210860   9.753   3.108   3.376
 3659TIP3   OH210861   0.816   3.340   3.871
 3659TIP3    H110862   0.839   3.392   3.794
 3659TIP3    H210863   0.739   3.290   3.844
 3660TIP3   OH210864   0.372   3.404   4.310
 3660TIP3    H110865   0.400   3.396   4.401
 3660TIP3    H210866   0.320   3.484   4.308
 3661TIP3   OH210867   0.485   2.677   3.299
 3661TIP3    H110868   0.580   2.671   3.289
 3661TIP3    H210869   0.459   2.743   3.234
 3662TIP3   OH210870   9.435   3.049   3.941
 3662TIP3    H110871   9.478   3.025   3.859
 3662TIP3    H210872   9.500   3.030   4.009
 3663TIP3   OH210873   0.138   3.254   3.122
 3663TIP3    H110874   0.074   3.325   3.111
 3663TIP3    H210875   0.090   3.185   3.169
 3664TIP3   OH210876   9.366   2.963   4.580
 3664TIP3    H110877   9.328   2.973   4.667
 3664TIP3    H210878   9.304   2.907   4.533
 3665TIP3   OH210879   0.270   3.142   4.579
 3665TIP3    H110880   0.200   3.085   4.546
 3665TIP3    H210881   0.351   3.100   4.550
 3666TIP3   OH210882   0.523   3.692   4.187
 3666TIP3    H110883   0.429   3.676   4.184
 3666TIP3    H210884   0.538   3.733   4.272
 3667TIP3   OH210885   0.899   2.752   3.087
 3667TIP3    H110886   0.842   2.699   3.031
 3667TIP3    H210887   0.898   2.839   3.046
 3668TIP3   OH210888   0.623   3.556   3.022
 3668TIP3    H110889   0.597   3.495   3.091
 3668TIP3    H210890   0.643   3.500   2.947
 3669TIP3   OH210891   0.602   3.189   3.781
 3669TIP3    H110892   0.513   3.166   3.809
 3669TIP3    H210893   0.635   3.109   3.741
 3670TIP3   OH210894   9.540   3.399   3.583
 3670TIP3    H110895   9.587   3.473   3.544
 3670TIP3    H210896   9.515   3.429   3.670
 3671TIP3   OH210897   9.653   3.158   3.527
 3671TIP3    H110898   9.626   3.245   3.555
 3671TIP3    H210899   9.638   3.103   3.603
 3672TIP3   OH210900   0.063   3.755   4.059
 3672TIP3    H110901   0.103   3.823   4.005
 3672TIP3    H210902   0.137   3.714   4.104
 3673TIP3   OH210903   9.574   3.648   3.454
 3673TIP3    H110904   9.529   3.696   3.523
 3673TIP3    H210905   9.659   3.691   3.447
 3674TIP3   OH210906   0.415   3.406   4.039
 3674TIP3    H110907   0.399   3.403   4.133
 3674TIP3    H210908   0.499   3.363   4.027
 3675TIP3   OH210909   0.371   3.278   2.913
 3675TIP3    H110910   0.443   3.258   2.973
 3675TIP3    H210911   0.292   3.264   2.964
 3676TIP3   OH210912   0.662   3.915   4.071
 3676TIP3    H110913   0.591   3.853   4.085
 3676TIP3    H210914   0.634   3.967   3.996
 3677TIP3   OH210915   0.696   3.756   2.697
 3677TIP3    H110916   0.708   3.809   2.619
 3677TIP3    H210917   0.629   3.803   2.748
 3678TIP3   OH210918   9.588   2.522   4.605
 3678TIP3    H110919   9.526   2.562   4.666
 3678TIP3    H210920   9.635   2.456   4.656
 3679TIP3   OH210921   0.579   3.222   3.079
 3679TIP3    H110922   0.561   3.176   3.161
 3679TIP3    H210923   0.674   3.223   3.073
 3680TIP3   OH210924   9.299   3.646   4.259
 3680TIP3    H110925   9.212   3.609   4.269
 3680TIP3    H210926   9.332   3.654   4.349
 3681TIP3   OH210927   9.551   3.267   3.252
 3681TIP3    H110928   9.563   3.264   3.347
 3681TIP3    H210929   9.464   3.306   3.240
 3682TIP3   OH210930   0.601   2.601   4.282
 3682TIP3    H110931   0.676   2.633   4.331
 3682TIP3    H210932   0.576   2.520   4.327
 3683TIP3   OH210933   0.604   2.376   3.392
 3683TIP3    H110934   0.515   2.364   3.358
 3683TIP3    H210935   0.593   2.436   3.466
 3684TIP3   OH210936   0.253   2.483   3.574
 3684TIP3    H110937   0.266   2.570   3.536
 3684TIP3    H210938   0.226   2.500   3.664
 3685TIP3   OH210939   0.423   2.817   4.320
 3685TIP3    H110940   0.448   2.860   4.403
 3685TIP3    H210941   0.479   2.739   4.316
 3686TIP3   OH210942   0.400   2.272   3.667
 3686TIP3    H110943   0.325   2.215   3.687
 3686TIP3    H210944   0.362   2.347   3.622
 3687TIP3   OH210945   9.507   3.719   3.192
 3687TIP3    H110946   9.550   3.646   3.146
 3687TIP3    H210947   9.530   3.706   3.284
 3688TIP3   OH210948   1.041   2.709   4.271
 3688TIP3    H110949   0.956   2.741   4.301
 3688TIP3    H210950   1.020   2.638   4.211
 3689TIP3   OH210951   0.695   2.932   3.697
 3689TIP3    H110952   0.617   2.878   3.708
 3689TIP3    H210953   0.761   2.890   3.753
 3690TIP3   OH210954   0.675   3.901   3.632
 3690TIP3    H110955   0.627   3.951   3.566
 3690TIP3    H210956   0.767   3.920   3.614
 3691TIP3   OH210957   9.771   3.875   4.697
 3691TIP3    H110958   9.864   3.867   4.715
 3691TIP3    H210959   9.756   3.817   4.623
 3692TIP3   OH210960   0.563   3.799   4.437
 3692TIP3    H110961   0.572   3.728   4.500
 3692TIP3    H210962   0.637   3.857   4.455
 3693TIP3   OH210963   0.389   3.501   2.749
 3693TIP3    H110964   0.372   3.424   2.804
 3693TIP3    H210965   0.484   3.512   2.751
 3694TIP3   OH210966   9.359   3.295   4.851
 3694TIP3    H110967   9.452   3.291   4.827
 3694TIP3    H210968   9.324   3.366   4.796
 3695TIP3   OH210969   0.228   3.416   4.603
 3695TIP3    H110970   0.177   3.439   4.525
 3695TIP3    H210971   0.248   3.323   4.592
 3696TIP3   OH210972   0.681   3.464   4.214
 3696TIP3    H110973   0.753   3.494   4.159
 3696TIP3    H210974   0.615   3.533   4.206
 3697TIP3   OH210975   9.616   2.996   4.832
 3697TIP3    H110976   9.700   2.951   4.832
 3697TIP3    H210977   9.616   3.047   4.913
 3698TIP3   OH210978   0.090   2.964   4.458
 3698TIP3    H110979   0.006   3.008   4.447
 3698TIP3    H210980   0.139   2.985   4.378
 3699TIP3   OH210981   0.560   3.343   4.579
 3699TIP3    H110982   0.614   3.292   4.519
 3699TIP3    H210983   0.552   3.288   4.657
 3700TIP3   OH210984   0.685   2.986   2.739
 3700TIP3    H110985   0.692   2.951   2.650
 3700TIP3    H210986   0.651   3.075   2.727
 3701TIP3   OH210987   0.168   2.733   4.580
 3701TIP3    H110988   0.169   2.660   4.517
 3701TIP3    H210989   0.141   2.808   4.528
 3702TIP3   OH210990   0.164   2.536   4.382
 3702TIP3    H110991   0.186   2.576   4.298
 3702TIP3    H210992   0.076   2.500   4.371
 3703TIP3   OH210993   0.222   3.059   4.242
 3703TIP3    H110994   0.305   3.106   4.230
 3703TIP3    H210995   0.157   3.111   4.194
 3704TIP3   OH210996   0.764   3.012   4.649
 3704TIP3    H110997   0.786   2.921   4.668
 3704TIP3    H210998   0.844   3.050   4.614
 3705TIP3   OH210999   0.796   3.296   4.391
 3705TIP3    H111000   0.741   3.356   4.340
 3705TIP3    H211001   0.883   3.305   4.352
 3706TIP3   OH211002   0.044   2.837   4.803
 3706TIP3    H111003  -0.003   2.760   4.835
 3706TIP3    H211004   0.085   2.808   4.721
 3707TIP3   OH211005   0.291   2.321   4.501
 3707TIP3    H111006   0.250   2.398   4.461
 3707TIP3    H211007   0.230   2.250   4.483
 3708TIP3   OH211008   0.415   2.778   4.697
 3708TIP3    H111009   0.400   2.770   4.791
 3708TIP3    H211010   0.331   2.753   4.658
 3709TIP3   OH211011   0.659   2.732   4.568
 3709TIP3    H111012   0.578   2.731   4.620
 3709TIP3    H211013   0.727   2.702   4.629
 3710TIP3   OH211014   0.896   2.706   4.720
 3710TIP3    H111015   0.909   2.611   4.726
 3710TIP3    H211016   0.890   2.735   4.811
 3711TIP3   OH211017   9.718   2.624   4.923
 3711TIP3    H111018   9.710   2.543   4.873
 3711TIP3    H211019   9.761   2.598   5.005
 3712TIP3   OH211020   0.352   2.296   4.765
 3712TIP3    H111021   0.419   2.227   4.760
 3712TIP3    H211022   0.324   2.308   4.674
 3713TIP3   OH211023   0.438   2.512   4.911
 3713TIP3    H111024   0.411   2.439   4.856
 3713TIP3    H211025   0.364   2.573   4.910
 3714TIP3   OH211026   9.481   3.851   2.944
 3714TIP3    H111027   9.571   3.820   2.927
 3714TIP3    H211028   9.459   3.813   3.029
 3715TIP3   OH211029   0.941   3.969   3.622
 3715TIP3    H111030   0.952   3.998   3.713
 3715TIP3    H211031   0.977   4.040   3.569
 3716TIP3   OH211032   0.949   4.005   3.898
 3716TIP3    H111033   0.908   3.918   3.903
 3716TIP3    H211034   1.023   3.999   3.959
 3717TIP3   OH211035   1.071   3.680   4.478
 3717TIP3    H111036   0.991   3.679   4.529
 3717TIP3    H211037   1.100   3.771   4.480
 3718TIP3   OH211038   0.855   3.209   3.084
 3718TIP3    H111039   0.911   3.282   3.059
 3718TIP3    H211040   0.894   3.173   3.163
 3719TIP3   OH211041   0.970   3.074   3.298
 3719TIP3    H111042   0.900   3.032   3.348
 3719TIP3    H211043   1.030   3.108   3.364
 3720TIP3   OH211044   1.030   3.481   3.731
 3720TIP3    H111045   1.067   3.414   3.674
 3720TIP3    H211046   1.022   3.558   3.675
 3721TIP3   OH211047   0.840   3.752   3.933
 3721TIP3    H111048   0.771   3.793   3.984
 3721TIP3    H211049   0.795   3.710   3.860
 3722TIP3   OH211050   0.880   2.980   2.935
 3722TIP3    H111051   0.810   2.977   2.870
 3722TIP3    H211052   0.863   3.060   2.985
 3723TIP3   OH211053   0.746   2.616   2.911
 3723TIP3    H111054   0.664   2.645   2.871
 3723TIP3    H211055   0.759   2.527   2.879
 3724TIP3   OH211056   0.772   2.933   3.431
 3724TIP3    H111057   0.773   2.840   3.411
 3724TIP3    H211058   0.748   2.937   3.524
 3725TIP3   OH211059   9.164   3.042   4.183
 3725TIP3    H111060   9.138   2.993   4.105
 3725TIP3    H211061   9.253   3.071   4.165
 3726TIP3   OH211062   1.031   3.339   4.226
 3726TIP3    H111063   1.022   3.272   4.158
 3726TIP3    H211064   0.993   3.418   4.186
 3727TIP3   OH211065   1.235   3.146   4.362
 3727TIP3    H111066   1.154   3.095   4.370
 3727TIP3    H211067   1.305   3.082   4.371
 3728TIP3   OH211068   0.780   2.667   3.328
 3728TIP3    H111069   0.816   2.579   3.335
 3728TIP3    H211070   0.820   2.704   3.249
 3729TIP3   OH211071   0.916   2.818   3.838
 3729TIP3    H111072   0.995   2.841   3.790
 3729TIP3    H211073   0.927   2.860   3.924
 3730TIP3   OH211074   0.978   2.981   4.057
 3730TIP3    H111075   0.902   3.001   4.112
 3730TIP3    H211076   0.997   3.063   4.010
 3731TIP3   OH211077   9.455   2.638   4.818
 3731TIP3    H111078   9.533   2.652   4.871
 3731TIP3    H211079   9.392   2.703   4.850
 3732TIP3   OH211080   1.450   2.563   4.596
 3732TIP3    H111081   1.513   2.501   4.559
 3732TIP3    H211082   1.417   2.611   4.521
 3733TIP3   OH211083   0.874   2.404   3.356
 3733TIP3    H111084   0.908   2.376   3.441
 3733TIP3    H211085   0.782   2.378   3.357
 3734TIP3   OH211086   9.134   2.682   4.200
 3734TIP3    H111087   9.197   2.720   4.138
 3734TIP3    H211088   9.152   2.727   4.283
 3735TIP3   OH211089   1.302   2.689   4.401
 3735TIP3    H111090   1.228   2.725   4.451
 3735TIP3    H211091   1.262   2.621   4.346
 3736TIP3   OH211092   1.020   2.325   2.933
 3736TIP3    H111093   1.079   2.264   2.977
 3736TIP3    H211094   1.042   2.411   2.968
 3737TIP3   OH211095   0.510   3.865   3.274
 3737TIP3    H111096   0.565   3.862   3.196
 3737TIP3    H211097   0.542   3.941   3.322
 3738TIP3   OH211098   9.405   2.188   4.654
 3738TIP3    H111099   9.397   2.243   4.733
 3738TIP3    H211100   9.374   2.244   4.583
 3739TIP3   OH211101   9.470   3.660   4.620
 3739TIP3    H111102   9.422   3.737   4.652
 3739TIP3    H211103   9.505   3.619   4.698
 3740TIP3   OH211104   9.644   3.749   4.223
 3740TIP3    H111105   9.582   3.782   4.158
 3740TIP3    H211106   9.727   3.742   4.176
 3741TIP3   OH211107   0.254   3.925   4.320
 3741TIP3    H111108   0.284   3.927   4.410
 3741TIP3    H211109   0.312   3.986   4.274
 3742TIP3   OH211110   0.428   4.101   4.204
 3742TIP3    H111111   0.498   4.058   4.155
 3742TIP3    H211112   0.474   4.159   4.265
 3743TIP3   OH211113   1.211   2.412   4.306
 3743TIP3    H111114   1.121   2.386   4.282
 3743TIP3    H211115   1.261   2.331   4.299
 3744TIP3   OH211116   9.483   3.862   4.037
 3744TIP3    H111117   9.405   3.807   4.022
 3744TIP3    H211118   9.478   3.929   3.969
 3745TIP3   OH211119   0.151   3.952   3.890
 3745TIP3    H111120   0.084   3.964   3.823
 3745TIP3    H211121   0.159   4.038   3.931
 3746TIP3   OH211122   0.407   3.880   3.939
 3746TIP3    H111123   0.315   3.901   3.923
 3746TIP3    H211124   0.456   3.948   3.894
 3747TIP3   OH211125   0.595   4.061   3.842
 3747TIP3    H111126   0.589   4.149   3.805
 3747TIP3    H211127   0.620   4.006   3.767
 3748TIP3   OH211128   9.244   3.714   4.002
 3748TIP3    H111129   9.262   3.677   4.089
 3748TIP3    H211130   9.202   3.643   3.954
 3749TIP3   OH211131   9.457   3.574   3.788
 3749TIP3    H111132   9.502   3.570   3.872
 3749TIP3    H211133   9.481   3.659   3.751
 3750TIP3   OH211134   9.710   3.713   3.832
 3750TIP3    H111135   9.731   3.623   3.806
 3750TIP3    H211136   9.751   3.723   3.918
 3751TIP3   OH211137   0.423   2.385   3.968
 3751TIP3    H111138   0.376   2.316   4.014
 3751TIP3    H211139   0.481   2.339   3.907
 3752TIP3   OH211140   0.904   2.246   3.808
 3752TIP3    H111141   0.937   2.302   3.738
 3752TIP3    H211142   0.811   2.268   3.814
 3753TIP3   OH211143   1.023   2.342   3.579
 3753TIP3    H111144   1.097   2.287   3.555
 3753TIP3    H211145   1.058   2.431   3.575
 3754TIP3   OH211146   0.628   2.265   3.820
 3754TIP3    H111147   0.564   2.260   3.748
 3754TIP3    H211148   0.622   2.179   3.862
 3755TIP3   OH211149   9.728   3.707   2.932
 3755TIP3    H111150   9.818   3.718   2.902
 3755TIP3    H211151   9.696   3.631   2.884
 3756TIP3   OH211152   0.659   3.828   3.042
 3756TIP3    H111153   0.649   3.732   3.037
 3756TIP3    H211154   0.613   3.860   2.964
 3757TIP3   OH211155   9.702   2.371   4.819
 3757TIP3    H111156   9.671   2.289   4.857
 3757TIP3    H211157   9.796   2.373   4.836
 3758TIP3   OH211158   0.146   2.349   4.945
 3758TIP3    H111159   0.221   2.324   4.890
 3758TIP3    H211160   0.135   2.275   5.005
 3759TIP3   OH211161   0.956   2.434   4.724
 3759TIP3    H111162   0.971   2.404   4.813
 3759TIP3    H211163   1.041   2.428   4.681
 3760TIP3   OH211164   0.880   3.967   4.236
 3760TIP3    H111165   0.804   3.937   4.186
 3760TIP3    H211166   0.869   4.062   4.241
 3761TIP3   OH211167   2.081   3.302   2.943
 3761TIP3    H111168   2.053   3.327   3.031
 3761TIP3    H211169   2.046   3.371   2.886
 3762TIP3   OH211170   2.154   3.329   3.380
 3762TIP3    H111171   2.197   3.322   3.465
 3762TIP3    H211172   2.105   3.247   3.371
 3763TIP3   OH211173   1.464   3.230   3.782
 3763TIP3    H111174   1.493   3.150   3.824
 3763TIP3    H211175   1.522   3.241   3.706
 3764TIP3   OH211176   2.424   3.631   3.072
 3764TIP3    H111177   2.413   3.575   3.148
 3764TIP3    H211178   2.444   3.718   3.108
 3765TIP3   OH211179   1.455   3.651   3.458
 3765TIP3    H111180   1.432   3.558   3.453
 3765TIP3    H211181   1.544   3.654   3.423
 3766TIP3   OH211182   1.128   2.856   3.218
 3766TIP3    H111183   1.084   2.937   3.242
 3766TIP3    H211184   1.060   2.802   3.178
 3767TIP3   OH211185   1.199   3.147   3.446
 3767TIP3    H111186   1.250   3.067   3.462
 3767TIP3    H211187   1.256   3.201   3.391
 3768TIP3   OH211188   2.056   4.083   3.083
 3768TIP3    H111189   2.105   4.027   3.023
 3768TIP3    H211190   1.973   4.038   3.096
 3769TIP3   OH211191   1.947   3.555   3.402
 3769TIP3    H111192   1.990   3.480   3.360
 3769TIP3    H211193   2.020   3.607   3.436
 3770TIP3   OH211194   2.994   2.885   3.410
 3770TIP3    H111195   3.012   2.968   3.453
 3770TIP3    H211196   3.029   2.895   3.322
 3771TIP3   OH211197   2.352   3.055   3.449
 3771TIP3    H111198   2.390   2.969   3.469
 3771TIP3    H211199   2.317   3.045   3.360
 3772TIP3   OH211200   1.718   2.707   3.388
 3772TIP3    H111201   1.693   2.781   3.333
 3772TIP3    H211202   1.665   2.634   3.357
 3773TIP3   OH211203   2.398   2.854   3.021
 3773TIP3    H111204   2.456   2.843   3.096
 3773TIP3    H211205   2.456   2.876   2.948
 3774TIP3   OH211206   1.347   2.926   3.524
 3774TIP3    H111207   1.428   2.898   3.567
 3774TIP3    H211208   1.343   2.874   3.444
 3775TIP3   OH211209   1.755   3.125   3.354
 3775TIP3    H111210   1.849   3.109   3.354
 3775TIP3    H211211   1.717   3.045   3.317
 3776TIP3   OH211212   3.049   3.104   3.576
 3776TIP3    H111213   2.960   3.137   3.575
 3776TIP3    H211214   3.086   3.136   3.658
 3777TIP3   OH211215   1.691   2.717   3.853
 3777TIP3    H111216   1.637   2.745   3.779
 3777TIP3    H211217   1.631   2.717   3.928
 3778TIP3   OH211218   1.798   3.478   3.623
 3778TIP3    H111219   1.746   3.549   3.661
 3778TIP3    H211220   1.838   3.518   3.546
 3779TIP3   OH211221   2.550   2.864   3.245
 3779TIP3    H111222   2.520   2.826   3.328
 3779TIP3    H211223   2.623   2.921   3.270
 3780TIP3   OH211224   1.589   2.812   3.613
 3780TIP3    H111225   1.647   2.886   3.635
 3780TIP3    H211226   1.634   2.768   3.541
 3781TIP3   OH211227   1.643   3.677   3.742
 3781TIP3    H111228   1.603   3.749   3.692
 3781TIP3    H211229   1.578   3.655   3.808
 3782TIP3   OH211230   1.018   3.406   2.975
 3782TIP3    H111231   0.980   3.423   2.889
 3782TIP3    H211232   1.038   3.493   3.010
 3783TIP3   OH211233   2.460   3.887   3.196
 3783TIP3    H111234   2.380   3.881   3.248
 3783TIP3    H211235   2.454   3.971   3.150
 3784TIP3   OH211236   2.780   2.798   3.572
 3784TIP3    H111237   2.699   2.805   3.521
 3784TIP3    H211238   2.850   2.817   3.509
 3785TIP3   OH211239   2.043   2.428   3.570
 3785TIP3    H111240   2.036   2.334   3.589
 3785TIP3    H211241   1.966   2.467   3.612
 3786TIP3   OH211242   2.144   3.932   2.868
 3786TIP3    H111243   2.190   3.848   2.862
 3786TIP3    H211244   2.208   3.996   2.837
 3787TIP3   OH211245   2.295   3.712   2.841
 3787TIP3    H111246   2.329   3.668   2.763
 3787TIP3    H211247   2.346   3.675   2.913
 3788TIP3   OH211248   2.674   3.792   3.556
 3788TIP3    H111249   2.665   3.718   3.496
 3788TIP3    H211250   2.661   3.869   3.500
 3789TIP3   OH211251   1.958   2.974   2.521
 3789TIP3    H111252   2.014   3.015   2.587
 3789TIP3    H211253   2.015   2.912   2.476
 3790TIP3   OH211254   2.868   3.449   3.424
 3790TIP3    H111255   2.785   3.496   3.422
 3790TIP3    H211256   2.904   3.460   3.336
 3791TIP3   OH211257   2.370   3.240   2.887
 3791TIP3    H111258   2.387   3.325   2.928
 3791TIP3    H211259   2.455   3.197   2.884
 3792TIP3   OH211260   2.567   3.297   3.740
 3792TIP3    H111261   2.575   3.384   3.779
 3792TIP3    H211262   2.488   3.302   3.685
 3793TIP3   OH211263   1.548   3.253   3.198
 3793TIP3    H111264   1.510   3.196   3.131
 3793TIP3    H211265   1.620   3.201   3.235
 3794TIP3   OH211266   1.698   3.682   3.326
 3794TIP3    H111267   1.673   3.669   3.235
 3794TIP3    H211268   1.785   3.642   3.333
 3795TIP3   OH211269   1.653   3.250   3.576
 3795TIP3    H111270   1.688   3.213   3.495
 3795TIP3    H211271   1.705   3.330   3.590
 3796TIP3   OH211272   2.250   3.883   3.365
 3796TIP3    H111273   2.212   3.968   3.388
 3796TIP3    H211274   2.200   3.820   3.418
 3797TIP3   OH211275   1.826   3.809   3.897
 3797TIP3    H111276   1.763   3.868   3.939
 3797TIP3    H211277   1.773   3.755   3.839
 3798TIP3   OH211278   2.178   3.099   2.645
 3798TIP3    H111279   2.151   3.180   2.602
 3798TIP3    H211280   2.237   3.057   2.582
 3799TIP3   OH211281   1.592   3.369   3.999
 3799TIP3    H111282   1.570   3.462   3.994
 3799TIP3    H211283   1.540   3.328   3.929
 3800TIP3   OH211284   1.872   3.909   2.948
 3800TIP3    H111285   1.961   3.891   2.917
 3800TIP3    H211286   1.824   3.934   2.869
 3801TIP3   OH211287   1.619   3.969   3.986
 3801TIP3    H111288   1.596   3.981   3.894
 3801TIP3    H211289   1.539   3.938   4.028
 3802TIP3   OH211290   2.675   2.365   2.682
 3802TIP3    H111291   2.595   2.386   2.730
 3802TIP3    H211292   2.692   2.443   2.628
 3803TIP3   OH211293   1.425   3.094   3.000
 3803TIP3    H111294   1.353   3.147   2.964
 3803TIP3    H211295   1.388   3.006   3.007
 3804TIP3   OH211296   2.502   3.745   2.214
 3804TIP3    H111297   2.498   3.838   2.194
 3804TIP3    H211298   2.592   3.719   2.196
 3805TIP3   OH211299   1.222   3.525   3.932
 3805TIP3    H111300   1.151   3.519   3.868
 3805TIP3    H211301   1.219   3.442   3.979
 3806TIP3   OH211302   1.055   3.718   3.582
 3806TIP3    H111303   1.144   3.748   3.602
 3806TIP3    H211304   0.999   3.794   3.599
 3807TIP3   OH211305   2.908   4.139   3.624
 3807TIP3    H111306   2.912   4.045   3.639
 3807TIP3    H211307   2.828   4.168   3.669
 3808TIP3   OH211308   2.019   3.941   3.753
 3808TIP3    H111309   2.009   4.033   3.778
 3808TIP3    H211310   1.951   3.895   3.804
 3809TIP3   OH211311   1.793   4.045   2.703
 3809TIP3    H111312   1.753   4.019   2.620
 3809TIP3    H211313   1.754   4.130   2.723
 3810TIP3   OH211314   1.239   3.891   3.078
 3810TIP3    H111315   1.284   3.880   3.162
 3810TIP3    H211316   1.188   3.811   3.067
 3811TIP3   OH211317   2.008   3.974   2.337
 3811TIP3    H111318   2.061   3.902   2.303
 3811TIP3    H211319   2.038   3.985   2.428
 3812TIP3   OH211320   2.049   4.014   2.607
 3812TIP3    H111321   1.961   4.020   2.645
 3812TIP3    H211322   2.101   3.969   2.674
 3813TIP3   OH211323   2.819   3.257   3.884
 3813TIP3    H111324   2.732   3.270   3.846
 3813TIP3    H211325   2.834   3.163   3.878
 3814TIP3   OH211326   1.469   3.638   3.956
 3814TIP3    H111327   1.452   3.712   4.015
 3814TIP3    H211328   1.383   3.600   3.939
 3815TIP3   OH211329   1.801   2.508   3.698
 3815TIP3    H111330   1.720   2.467   3.668
 3815TIP3    H211331   1.773   2.579   3.755
 3816TIP3   OH211332   2.340   2.642   3.912
 3816TIP3    H111333   2.413   2.605   3.962
 3816TIP3    H211334   2.262   2.606   3.954
 3817TIP3   OH211335   2.540   3.036   3.828
 3817TIP3    H111336   2.524   3.036   3.922
 3817TIP3    H211337   2.551   3.128   3.804
 3818TIP3   OH211338   2.271   3.086   2.375
 3818TIP3    H111339   2.231   3.104   2.290
 3818TIP3    H211340   2.355   3.133   2.372
 3819TIP3   OH211341   1.737   3.025   3.714
 3819TIP3    H111342   1.693   3.027   3.799
 3819TIP3    H211343   1.709   3.106   3.671
 3820TIP3   OH211344   1.618   2.916   3.240
 3820TIP3    H111345   1.529   2.889   3.264
 3820TIP3    H211346   1.630   2.883   3.151
 3821TIP3   OH211347   2.257   3.182   4.099
 3821TIP3    H111348   2.308   3.103   4.115
 3821TIP3    H211349   2.313   3.253   4.132
 3822TIP3   OH211350   2.263   3.032   3.189
 3822TIP3    H111351   2.235   3.098   3.125
 3822TIP3    H211352   2.301   2.962   3.136
 3823TIP3   OH211353   1.583   3.035   3.944
 3823TIP3    H111354   1.598   3.085   4.024
 3823TIP3    H211355   1.553   2.949   3.975
 3824TIP3   OH211356   1.605   2.531   2.693
 3824TIP3    H111357   1.599   2.526   2.788
 3824TIP3    H211358   1.524   2.574   2.666
 3825TIP3   OH211359   1.159   2.570   3.520
 3825TIP3    H111360   1.239   2.598   3.564
 3825TIP3    H211361   1.189   2.539   3.434
 3826TIP3   OH211362   1.102   2.568   3.042
 3826TIP3    H111363   1.154   2.610   2.973
 3826TIP3    H211364   1.029   2.629   3.057
 3827TIP3   OH211365   2.284   3.250   3.624
 3827TIP3    H111366   2.316   3.185   3.562
 3827TIP3    H211367   2.246   3.199   3.695
 3828TIP3   OH211368   1.987   2.703   3.279
 3828TIP3    H111369   1.907   2.696   3.333
 3828TIP3    H211370   2.058   2.686   3.340
 3829TIP3   OH211371   1.383   2.785   3.293
 3829TIP3    H111372   1.295   2.794   3.256
 3829TIP3    H211373   1.408   2.695   3.274
 3830TIP3   OH211374   1.646   2.791   3.001
 3830TIP3    H111375   1.739   2.795   2.980
 3830TIP3    H211376   1.602   2.810   2.918
 3831TIP3   OH211377   2.427   2.789   3.487
 3831TIP3    H111378   2.405   2.802   3.579
 3831TIP3    H211379   2.367   2.722   3.457
 3832TIP3   OH211380   1.521   2.829   2.763
 3832TIP3    H111381   1.452   2.783   2.715
 3832TIP3    H211382   1.577   2.866   2.695
 3833TIP3   OH211383   2.629   4.493   3.709
 3833TIP3    H111384   2.624   4.511   3.615
 3833TIP3    H211385   2.708   4.538   3.738
 3834TIP3   OH211386   2.031   3.072   3.385
 3834TIP3    H111387   2.096   3.021   3.337
 3834TIP3    H211388   2.028   3.031   3.472
 3835TIP3   OH211389   1.526   2.538   3.270
 3835TIP3    H111390   1.496   2.463   3.322
 3835TIP3    H211391   1.543   2.501   3.183
 3836TIP3   OH211392   2.000   2.984   3.650
 3836TIP3    H111393   1.907   2.995   3.669
 3836TIP3    H211394   2.044   3.042   3.713
 3837TIP3   OH211395   1.645   3.391   2.765
 3837TIP3    H111396   1.613   3.301   2.758
 3837TIP3    H211397   1.681   3.397   2.854
 3838TIP3   OH211398   2.634   3.588   3.376
 3838TIP3    H111399   2.672   3.636   3.303
 3838TIP3    H211400   2.556   3.546   3.340
 3839TIP3   OH211401   2.158   3.684   3.802
 3839TIP3    H111402   2.253   3.696   3.812
 3839TIP3    H211403   2.124   3.772   3.790
 3840TIP3   OH211404   1.441   3.369   3.425
 3840TIP3    H111405   1.468   3.342   3.338
 3840TIP3    H211406   1.504   3.328   3.484
 3841TIP3   OH211407   1.271   3.266   4.097
 3841TIP3    H111408   1.328   3.189   4.100
 3841TIP3    H211409   1.200   3.242   4.038
 3842TIP3   OH211410   2.289   3.953   3.692
 3842TIP3    H111411   2.193   3.958   3.691
 3842TIP3    H211412   2.314   3.993   3.775
 3843TIP3   OH211413   2.677   3.002   2.575
 3843TIP3    H111414   2.616   2.957   2.517
 3843TIP3    H211415   2.686   3.089   2.536
 3844TIP3   OH211416   2.925   3.856   3.645
 3844TIP3    H111417   2.831   3.844   3.635
 3844TIP3    H211418   2.962   3.835   3.559
 3845TIP3   OH211419   2.426   3.814   2.475
 3845TIP3    H111420   2.408   3.737   2.529
 3845TIP3    H211421   2.446   3.779   2.389
 3846TIP3   OH211422   2.407   3.443   3.281
 3846TIP3    H111423   2.319   3.417   3.308
 3846TIP3    H211424   2.449   3.362   3.253
 3847TIP3   OH211425   1.575   3.674   3.076
 3847TIP3    H111426   1.589   3.752   3.022
 3847TIP3    H211427   1.481   3.659   3.072
 3848TIP3   OH211428   1.125   2.973   2.809
 3848TIP3    H111429   1.162   3.059   2.830
 3848TIP3    H211430   1.042   2.970   2.858
 3849TIP3   OH211431   1.700   3.425   3.037
 3849TIP3    H111432   1.668   3.515   3.042
 3849TIP3    H211433   1.643   3.376   3.096
 3850TIP3   OH211434   1.827   4.002   3.548
 3850TIP3    H111435   1.859   4.077   3.498
 3850TIP3    H211436   1.905   3.971   3.595
 3851TIP3   OH211437   1.477   3.908   2.938
 3851TIP3    H111438   1.390   3.913   2.976
 3851TIP3    H211439   1.511   3.998   2.943
 3852TIP3   OH211440   2.175   3.656   3.523
 3852TIP3    H111441   2.166   3.655   3.618
 3852TIP3    H211442   2.268   3.638   3.508
 3853TIP3   OH211443   2.168   3.551   2.377
 3853TIP3    H111444   2.194   3.538   2.468
 3853TIP3    H211445   2.082   3.509   2.371
 3854TIP3   OH211446   2.438   4.171   3.550
 3854TIP3    H111447   2.363   4.112   3.560
 3854TIP3    H211448   2.414   4.227   3.476
 3855TIP3   OH211449   2.497   4.019   2.184
 3855TIP3    H111450   2.521   4.086   2.119
 3855TIP3    H211451   2.426   4.058   2.234
 3856TIP3   OH211452   1.496   2.796   4.056
 3856TIP3    H111453   1.402   2.812   4.066
 3856TIP3    H211454   1.515   2.727   4.120
 3857TIP3   OH211455   2.391   3.578   2.614
 3857TIP3    H111456   2.321   3.514   2.625
 3857TIP3    H211457   2.470   3.526   2.603
 3858TIP3   OH211458   1.266   3.928   3.680
 3858TIP3    H111459   1.354   3.896   3.698
 3858TIP3    H211460   1.265   4.017   3.715
 3859TIP3   OH211461   1.541   3.524   2.398
 3859TIP3    H111462   1.550   3.431   2.377
 3859TIP3    H211463   1.516   3.525   2.491
 3860TIP3   OH211464   1.453   3.547   2.657
 3860TIP3    H111465   1.526   3.503   2.698
 3860TIP3    H211466   1.470   3.641   2.670
 3861TIP3   OH211467   1.212   3.228   2.884
 3861TIP3    H111468   1.148   3.278   2.934
 3861TIP3    H211469   1.230   3.283   2.807
 3862TIP3   OH211470   2.348   2.858   3.745
 3862TIP3    H111471   2.428   2.905   3.771
 3862TIP3    H211472   2.347   2.781   3.802
 3863TIP3   OH211473   2.268   2.620   2.945
 3863TIP3    H111474   2.242   2.647   2.857
 3863TIP3    H211475   2.313   2.696   2.981
 3864TIP3   OH211476   1.762   3.724   2.619
 3864TIP3    H111477   1.675   3.746   2.652
 3864TIP3    H211478   1.784   3.797   2.561
 3865TIP3   OH211479   1.930   2.787   3.022
 3865TIP3    H111480   1.994   2.856   3.006
 3865TIP3    H211481   1.942   2.763   3.114
 3866TIP3   OH211482   2.204   3.078   3.845
 3866TIP3    H111483   2.283   3.101   3.893
 3866TIP3    H211484   2.225   2.996   3.801
 3867TIP3   OH211485   2.083   2.493   3.114
 3867TIP3    H111486   2.057   2.568   3.167
 3867TIP3    H211487   2.155   2.526   3.060
 3868TIP3   OH211488   1.506   3.814   2.682
 3868TIP3    H111489   1.485   3.888   2.624
 3868TIP3    H211490   1.495   3.849   2.771
 3869TIP3   OH211491   1.592   2.518   2.976
 3869TIP3    H111492   1.588   2.611   2.996
 3869TIP3    H211493   1.685   2.499   2.967
 3870TIP3   OH211494   2.810   2.985   3.789
 3870TIP3    H111495   2.716   2.984   3.805
 3870TIP3    H211496   2.822   2.923   3.717
 3871TIP3   OH211497   2.511   3.191   3.207
 3871TIP3    H111498   2.441   3.128   3.221
 3871TIP3    H211499   2.586   3.156   3.255
 3872TIP3   OH211500   1.223   3.397   2.661
 3872TIP3    H111501   1.290   3.466   2.665
 3872TIP3    H211502   1.259   3.333   2.600
 3873TIP3   OH211503   1.206   2.708   2.836
 3873TIP3    H111504   1.185   2.800   2.819
 3873TIP3    H211505   1.200   2.665   2.751
 3874TIP3   OH211506   2.474   4.159   3.121
 3874TIP3    H111507   2.432   4.212   3.054
 3874TIP3    H211508   2.568   4.172   3.108
 3875TIP3   OH211509   1.542   2.410   3.666
 3875TIP3    H111510   1.510   2.378   3.582
 3875TIP3    H211511   1.537   2.333   3.724
 3876TIP3   OH211512   1.059   3.674   3.054
 3876TIP3    H111513   1.017   3.710   3.132
 3876TIP3    H211514   1.014   3.715   2.980
 3877TIP3   OH211515   1.257   4.193   4.116
 3877TIP3    H111516   1.338   4.191   4.166
 3877TIP3    H211517   1.227   4.102   4.114
 3878TIP3   OH211518   1.737   4.093   4.210
 3878TIP3    H111519   1.799   4.161   4.184
 3878TIP3    H211520   1.706   4.056   4.127
 3879TIP3   OH211521   1.707   3.720   2.306
 3879TIP3    H111522   1.658   3.650   2.349
 3879TIP3    H211523   1.782   3.676   2.265
 3880TIP3   OH211524   2.352   4.045   3.943
 3880TIP3    H111525   2.366   3.979   4.012
 3880TIP3    H211526   2.427   4.104   3.951
 3881TIP3   OH211527   2.144   3.770   2.219
 3881TIP3    H111528   2.174   3.702   2.279
 3881TIP3    H211529   2.205   3.766   2.146
 3882TIP3   OH211530   1.357   3.202   2.521
 3882TIP3    H111531   1.409   3.178   2.598
 3882TIP3    H211532   1.422   3.218   2.452
 3883TIP3   OH211533   1.993   3.682   4.069
 3883TIP3    H111534   1.934   3.716   4.001
 3883TIP3    H211535   2.065   3.643   4.020
 3884TIP3   OH211536   1.910   3.445   2.376
 3884TIP3    H111537   1.893   3.461   2.469
 3884TIP3    H211538   1.901   3.351   2.366
 3885TIP3   OH211539   2.447   3.729   3.700
 3885TIP3    H111540   2.528   3.749   3.654
 3885TIP3    H211541   2.394   3.809   3.691
 3886TIP3   OH211542   1.416   3.392   4.316
 3886TIP3    H111543   1.480   3.390   4.245
 3886TIP3    H211544   1.468   3.407   4.395
 3887TIP3   OH211545   1.532   3.139   2.732
 3887TIP3    H111546   1.510   3.100   2.816
 3887TIP3    H211547   1.587   3.073   2.689
 3888TIP3   OH211548   1.922   3.256   3.993
 3888TIP3    H111549   1.834   3.283   4.021
 3888TIP3    H211550   1.932   3.293   3.905
 3889TIP3   OH211551   1.685   2.953   2.583
 3889TIP3    H111552   1.658   2.939   2.493
 3889TIP3    H211553   1.780   2.962   2.578
 3890TIP3   OH211554   2.392   3.595   4.161
 3890TIP3    H111555   2.485   3.612   4.147
 3890TIP3    H211556   2.389   3.505   4.193
 3891TIP3   OH211557   2.470   3.248   2.254
 3891TIP3    H111558   2.464   3.213   2.165
 3891TIP3    H211559   2.442   3.339   2.246
 3892TIP3   OH211560   1.996   2.981   4.050
 3892TIP3    H111561   1.997   2.903   3.995
 3892TIP3    H211562   1.921   2.968   4.108
 3893TIP3   OH211563   1.959   2.778   3.870
 3893TIP3    H111564   1.980   2.805   3.780
 3893TIP3    H211565   1.866   2.755   3.867
 3894TIP3   OH211566   1.998   3.334   3.747
 3894TIP3    H111567   2.079   3.368   3.711
 3894TIP3    H211568   1.929   3.383   3.704
 3895TIP3   OH211569   2.496   3.310   4.194
 3895TIP3    H111570   2.524   3.251   4.265
 3895TIP3    H211571   2.576   3.355   4.169
 3896TIP3   OH211572   2.605   3.549   3.843
 3896TIP3    H111573   2.546   3.612   3.802
 3896TIP3    H211574   2.692   3.574   3.812
 3897TIP3   OH211575   2.087   2.557   3.985
 3897TIP3    H111576   2.041   2.631   3.947
 3897TIP3    H211577   2.029   2.482   3.971
 3898TIP3   OH211578   2.436   2.972   4.079
 3898TIP3    H111579   2.411   2.880   4.087
 3898TIP3    H211580   2.521   2.977   4.122
 3899TIP3   OH211581   2.687   2.960   4.193
 3899TIP3    H111582   2.704   2.870   4.222
 3899TIP3    H211583   2.677   3.010   4.274
 3900TIP3   OH211584   1.676   2.857   4.396
 3900TIP3    H111585   1.676   2.769   4.358
 3900TIP3    H211586   1.724   2.848   4.478
 3901TIP3   OH211587   2.160   2.542   4.250
 3901TIP3    H111588   2.231   2.478   4.248
 3901TIP3    H211589   2.127   2.544   4.161
 3902TIP3   OH211590   2.189   2.764   4.407
 3902TIP3    H111591   2.198   2.690   4.348
 3902TIP3    H211592   2.095   2.774   4.419
 3903TIP3   OH211593   1.497   4.029   2.506
 3903TIP3    H111594   1.586   4.005   2.477
 3903TIP3    H211595   1.458   4.071   2.429
 3904TIP3   OH211596   0.951   3.397   2.689
 3904TIP3    H111597   1.045   3.409   2.685
 3904TIP3    H211598   0.935   3.312   2.648
 3905TIP3   OH211599   0.865   3.981   3.135
 3905TIP3    H111600   0.798   3.929   3.089
 3905TIP3    H211601   0.906   3.918   3.195
 3906TIP3   OH211602   1.001   3.807   3.302
 3906TIP3    H111603   0.991   3.742   3.372
 3906TIP3    H211604   1.052   3.877   3.342
 3907TIP3   OH211605   2.745   4.212   3.116
 3907TIP3    H111606   2.764   4.244   3.205
 3907TIP3    H211607   2.800   4.265   3.059
 3908TIP3   OH211608   2.754   4.250   3.399
 3908TIP3    H111609   2.708   4.167   3.392
 3908TIP3    H211610   2.825   4.234   3.461
 3909TIP3   OH211611   2.817   3.953   3.963
 3909TIP3    H111612   2.747   3.960   4.029
 3909TIP3    H211613   2.863   4.037   3.969
 3910TIP3   OH211614   2.641   3.459   2.589
 3910TIP3    H111615   2.696   3.530   2.555
 3910TIP3    H211616   2.692   3.423   2.661
 3911TIP3   OH211617   2.784   3.326   2.785
 3911TIP3    H111618   2.731   3.277   2.848
 3911TIP3    H211619   2.854   3.365   2.837
 3912TIP3   OH211620   2.813   3.723   3.213
 3912TIP3    H111621   2.866   3.655   3.171
 3912TIP3    H211622   2.815   3.797   3.152
 3913TIP3   OH211623   2.614   4.009   3.399
 3913TIP3    H111624   2.542   4.053   3.446
 3913TIP3    H211625   2.572   3.968   3.324
 3914TIP3   OH211626   2.676   3.238   2.432
 3914TIP3    H111627   2.605   3.237   2.368
 3914TIP3    H211628   2.660   3.316   2.485
 3915TIP3   OH211629   2.515   2.879   2.397
 3915TIP3    H111630   2.483   2.893   2.308
 3915TIP3    H211631   2.501   2.786   2.414
 3916TIP3   OH211632   2.627   3.161   2.946
 3916TIP3    H111633   2.636   3.068   2.927
 3916TIP3    H211634   2.609   3.165   3.040
 3917TIP3   OH211635   1.193   3.215   3.711
 3917TIP3    H111636   1.187   3.202   3.616
 3917TIP3    H211637   1.285   3.234   3.727
 3918TIP3   OH211638   2.864   3.606   3.773
 3918TIP3    H111639   2.928   3.536   3.759
 3918TIP3    H211640   2.896   3.679   3.719
 3919TIP3   OH211641   3.029   3.386   3.766
 3919TIP3    H111642   2.954   3.345   3.809
 3919TIP3    H211643   3.103   3.328   3.784
 3920TIP3   OH211644   2.472   2.611   2.421
 3920TIP3    H111645   2.559   2.588   2.455
 3920TIP3    H211646   2.433   2.528   2.397
 3921TIP3   OH211647   2.592   2.906   2.829
 3921TIP3    H111648   2.632   2.819   2.834
 3921TIP3    H211649   2.617   2.940   2.743
 3922TIP3   OH211650   2.724   3.065   3.329
 3922TIP3    H111651   2.804   3.083   3.279
 3922TIP3    H211652   2.741   3.103   3.415
 3923TIP3   OH211653   2.790   3.217   3.552
 3923TIP3    H111654   2.722   3.244   3.614
 3923TIP3    H211655   2.820   3.298   3.512
 3924TIP3   OH211656   1.418   2.945   4.376
 3924TIP3    H111657   1.512   2.924   4.380
 3924TIP3    H211658   1.374   2.860   4.381
 3925TIP3   OH211659   3.239   2.819   4.088
 3925TIP3    H111660   3.304   2.759   4.051
 3925TIP3    H211661   3.202   2.864   4.012
 3926TIP3   OH211662   2.683   2.645   2.857
 3926TIP3    H111663   2.725   2.629   2.942
 3926TIP3    H211664   2.616   2.577   2.849
 3927TIP3   OH211665   1.379   2.633   3.681
 3927TIP3    H111666   1.429   2.553   3.688
 3927TIP3    H211667   1.443   2.700   3.657
 3928TIP3   OH211668   1.153   2.926   3.737
 3928TIP3    H111669   1.207   2.896   3.665
 3928TIP3    H211670   1.157   3.021   3.733
 3929TIP3   OH211671   3.089   2.933   3.890
 3929TIP3    H111672   3.018   2.971   3.943
 3929TIP3    H211673   3.046   2.863   3.840
 3930TIP3   OH211674   2.733   2.567   2.503
 3930TIP3    H111675   2.787   2.507   2.453
 3930TIP3    H211676   2.784   2.648   2.506
 3931TIP3   OH211677   1.145   2.426   3.267
 3931TIP3    H111678   1.055   2.411   3.297
 3931TIP3    H211679   1.136   2.482   3.190
 3932TIP3   OH211680   2.307   4.121   2.766
 3932TIP3    H111681   2.360   4.110   2.687
 3932TIP3    H211682   2.349   4.194   2.812
 3933TIP3   OH211683   1.371   2.487   4.081
 3933TIP3    H111684   1.316   2.463   4.156
 3933TIP3    H211685   1.309   2.523   4.017
 3934TIP3   OH211686   1.395   3.861   4.122
 3934TIP3    H111687   1.302   3.878   4.109
 3934TIP3    H211688   1.406   3.854   4.217
 3935TIP3   OH211689   1.595   3.968   3.701
 3935TIP3    H111690   1.553   4.047   3.667
 3935TIP3    H211691   1.679   3.965   3.656
 3936TIP3   OH211692   2.006   4.206   3.830
 3936TIP3    H111693   2.047   4.200   3.917
 3936TIP3    H211694   2.067   4.260   3.779
 3937TIP3   OH211695   2.197   4.359   3.701
 3937TIP3    H111696   2.258   4.315   3.643
 3937TIP3    H211697   2.251   4.416   3.755
 3938TIP3   OH211698   2.997   2.666   3.795
 3938TIP3    H111699   2.907   2.645   3.771
 3938TIP3    H211700   3.044   2.584   3.786
 3939TIP3   OH211701   1.266   4.206   3.738
 3939TIP3    H111702   1.175   4.222   3.714
 3939TIP3    H211703   1.286   4.274   3.802
 3940TIP3   OH211704   1.500   4.202   3.591
 3940TIP3    H111705   1.415   4.210   3.635
 3940TIP3    H211706   1.482   4.225   3.500
 3941TIP3   OH211707   1.906   4.213   3.388
 3941TIP3    H111708   1.840   4.228   3.320
 3941TIP3    H211709   1.923   4.301   3.424
 3942TIP3   OH211710   2.173   4.143   3.426
 3942TIP3    H111711   2.081   4.160   3.403
 3942TIP3    H211712   2.223   4.205   3.373
 3943TIP3   OH211713   2.375   4.318   3.323
 3943TIP3    H111714   2.379   4.406   3.287
 3943TIP3    H211715   2.406   4.261   3.253
 3944TIP3   OH211716   1.171   3.993   3.429
 3944TIP3    H111717   1.189   3.973   3.521
 3944TIP3    H211718   1.246   3.957   3.381
 3945TIP3   OH211719   1.386   3.874   3.314
 3945TIP3    H111720   1.400   3.794   3.365
 3945TIP3    H211721   1.471   3.917   3.311
 3946TIP3   OH211722   1.652   3.962   3.333
 3946TIP3    H111723   1.674   3.871   3.312
 3946TIP3    H211724   1.703   3.981   3.411
 3947TIP3   OH211725   2.215   2.604   3.413
 3947TIP3    H111726   2.174   2.537   3.469
 3947TIP3    H211727   2.282   2.556   3.364
 3948TIP3   OH211728   2.713   2.541   3.330
 3948TIP3    H111729   2.749   2.581   3.252
 3948TIP3    H211730   2.618   2.545   3.317
 3949TIP3   OH211731   2.830   2.599   3.088
 3949TIP3    H111732   2.898   2.538   3.059
 3949TIP3    H211733   2.867   2.686   3.073
 3950TIP3   OH211734   1.447   2.319   3.422
 3950TIP3    H111735   1.359   2.283   3.433
 3950TIP3    H211736   1.504   2.242   3.417
 3951TIP3   OH211737   1.245   2.227   3.090
 3951TIP3    H111738   1.293   2.272   3.021
 3951TIP3    H211739   1.227   2.295   3.156
 3952TIP3   OH211740   1.933   2.359   3.313
 3952TIP3    H111741   1.986   2.399   3.245
 3952TIP3    H211742   1.973   2.387   3.395
 3953TIP3   OH211743   2.434   2.481   3.285
 3953TIP3    H111744   2.465   2.440   3.204
 3953TIP3    H211745   2.435   2.410   3.350
 3954TIP3   OH211746   2.481   2.452   2.864
 3954TIP3    H111747   2.404   2.500   2.894
 3954TIP3    H211748   2.471   2.365   2.903
 3955TIP3   OH211749   0.940   3.789   2.834
 3955TIP3    H111750   0.856   3.759   2.799
 3955TIP3    H211751   0.947   3.880   2.806
 3956TIP3   OH211752   1.386   2.356   2.878
 3956TIP3    H111753   1.437   2.300   2.819
 3956TIP3    H211754   1.451   2.413   2.920
 3957TIP3   OH211755   1.862   2.532   2.934
 3957TIP3    H111756   1.927   2.479   2.980
 3957TIP3    H211757   1.888   2.622   2.950
 3958TIP3   OH211758   1.752   3.952   2.437
 3958TIP3    H111759   1.835   3.979   2.399
 3958TIP3    H211760   1.726   3.875   2.387
 3959TIP3   OH211761   2.451   4.079   2.532
 3959TIP3    H111762   2.447   3.984   2.520
 3959TIP3    H211763   2.408   4.115   2.455
 3960TIP3   OH211764   1.691   2.586   4.313
 3960TIP3    H111765   1.654   2.515   4.367
 3960TIP3    H211766   1.782   2.591   4.339
 3961TIP3   OH211767   1.943   2.598   4.434
 3961TIP3    H111768   2.014   2.561   4.382
 3961TIP3    H211769   1.925   2.532   4.500
 3962TIP3   OH211770   1.046   3.770   2.493
 3962TIP3    H111771   1.048   3.786   2.588
 3962TIP3    H211772   1.132   3.731   2.474
 3963TIP3   OH211773   2.749   2.683   4.218
 3963TIP3    H111774   2.768   2.648   4.305
 3963TIP3    H211775   2.832   2.679   4.172
 3964TIP3   OH211776   2.659   4.218   3.719
 3964TIP3    H111777   2.586   4.190   3.664
 3964TIP3    H211778   2.650   4.314   3.722
 3965TIP3   OH211779   3.945   3.607   2.455
 3965TIP3    H111780   3.909   3.693   2.436
 3965TIP3    H211781   3.875   3.546   2.432
 3966TIP3   OH211782   3.943   3.600   2.884
 3966TIP3    H111783   3.997   3.583   2.961
 3966TIP3    H211784   3.898   3.517   2.867
 3967TIP3   OH211785   3.241   3.457   3.232
 3967TIP3    H111786   3.282   3.405   3.301
 3967TIP3    H211787   3.314   3.483   3.175
 3968TIP3   OH211788   4.216   3.909   2.553
 3968TIP3    H111789   4.201   3.843   2.620
 3968TIP3    H211790   4.234   3.990   2.602
 3969TIP3   OH211791   3.234   3.885   2.909
 3969TIP3    H111792   3.217   3.791   2.915
 3969TIP3    H211793   3.330   3.891   2.899
 3970TIP3   OH211794   2.920   3.093   2.700
 3970TIP3    H111795   2.885   3.179   2.722
 3970TIP3    H211796   2.847   3.047   2.660
 3971TIP3   OH211797   3.009   3.413   2.922
 3971TIP3    H111798   3.059   3.335   2.946
 3971TIP3    H211799   3.075   3.479   2.902
 3972TIP3   OH211800   3.877   4.329   2.572
 3972TIP3    H111801   3.897   4.266   2.503
 3972TIP3    H211802   3.890   4.280   2.653
 3973TIP3   OH211803   3.751   3.820   2.887
 3973TIP3    H111804   3.797   3.741   2.860
 3973TIP3    H211805   3.820   3.879   2.917
 3974TIP3   OH211806   4.787   3.141   2.902
 3974TIP3    H111807   4.802   3.226   2.942
 3974TIP3    H211808   4.815   3.152   2.811
 3975TIP3   OH211809   4.154   3.309   2.921
 3975TIP3    H111810   4.186   3.223   2.949
 3975TIP3    H211811   4.119   3.293   2.834
 3976TIP3   OH211812   3.513   2.966   2.880
 3976TIP3    H111813   3.491   3.039   2.823
 3976TIP3    H211814   3.457   2.894   2.849
 3977TIP3   OH211815   4.211   3.071   2.518
 3977TIP3    H111816   4.274   3.065   2.589
 3977TIP3    H211817   4.261   3.105   2.444
 3978TIP3   OH211818   3.141   3.185   3.008
 3978TIP3    H111819   3.224   3.164   3.051
 3978TIP3    H211820   3.143   3.133   2.927
 3979TIP3   OH211821   3.554   3.384   2.830
 3979TIP3    H111822   3.649   3.369   2.835
 3979TIP3    H211823   3.519   3.302   2.796
 3980TIP3   OH211824   4.840   3.362   3.067
 3980TIP3    H111825   4.752   3.400   3.062
 3980TIP3    H211826   4.876   3.398   3.148
 3981TIP3   OH211827   3.496   2.971   3.331
 3981TIP3    H111828   3.444   3.006   3.258
 3981TIP3    H211829   3.441   2.986   3.408
 3982TIP3   OH211830   3.803   3.813   2.342
 3982TIP3    H111831   3.782   3.798   2.250
 3982TIP3    H211832   3.764   3.899   2.362
 3983TIP3   OH211833   3.584   3.747   3.096
 3983TIP3    H111834   3.532   3.821   3.129
 3983TIP3    H211835   3.634   3.784   3.023
 3984TIP3   OH211836   4.366   3.093   2.742
 3984TIP3    H111837   4.323   3.073   2.825
 3984TIP3    H211838   4.422   3.168   2.762
 3985TIP3   OH211839   3.384   3.077   3.101
 3985TIP3    H111840   3.440   3.152   3.123
 3985TIP3    H211841   3.431   3.034   3.030
 3986TIP3   OH211842   3.432   3.954   3.202
 3986TIP3    H111843   3.419   4.043   3.171
 3986TIP3    H211844   3.354   3.935   3.254
 3987TIP3   OH211845   2.804   3.652   2.462
 3987TIP3    H111846   2.770   3.669   2.374
 3987TIP3    H211847   2.826   3.738   2.497
 3988TIP3   OH211848   4.247   4.155   2.700
 3988TIP3    H111849   4.159   4.149   2.736
 3988TIP3    H211850   4.248   4.239   2.653
 3989TIP3   OH211851   4.588   3.030   3.071
 3989TIP3    H111852   4.503   3.053   3.033
 3989TIP3    H211853   4.652   3.057   3.005
 3990TIP3   OH211854   3.835   2.663   3.067
 3990TIP3    H111855   3.829   2.571   3.092
 3990TIP3    H211856   3.757   2.704   3.105
 3991TIP3   OH211857   3.953   4.180   2.349
 3991TIP3    H111858   4.006   4.101   2.337
 3991TIP3    H211859   4.011   4.251   2.322
 3992TIP3   OH211860   4.112   3.965   2.301
 3992TIP3    H111861   4.121   3.888   2.245
 3992TIP3    H211862   4.150   3.938   2.385
 3993TIP3   OH211863   4.494   4.037   3.045
 3993TIP3    H111864   4.471   3.966   2.985
 3993TIP3    H211865   4.479   4.117   2.994
 3994TIP3   OH211866   3.770   3.442   2.310
 3994TIP3    H111867   3.690   3.491   2.291
 3994TIP3    H211868   3.820   3.445   2.227
 3995TIP3   OH211869   3.745   3.259   1.997
 3995TIP3    H111870   3.808   3.309   2.049
 3995TIP3    H211871   3.798   3.192   1.954
 3996TIP3   OH211872   4.659   3.705   2.908
 3996TIP3    H111873   4.575   3.750   2.905
 3996TIP3    H211874   4.697   3.718   2.820
 3997TIP3   OH211875   4.132   3.540   2.267
 3997TIP3    H111876   4.077   3.567   2.341
 3997TIP3    H211877   4.215   3.513   2.308
 3998TIP3   OH211878   4.360   3.564   3.220
 3998TIP3    H111879   4.354   3.647   3.266
 3998TIP3    H211880   4.279   3.560   3.169
 3999TIP3   OH211881   3.359   3.517   2.672
 3999TIP3    H111882   3.323   3.455   2.608
 3999TIP3    H211883   3.432   3.469   2.712
 4000TIP3   OH211884   3.497   3.936   2.816
 4000TIP3    H111885   3.475   3.925   2.724
 4000TIP3    H211886   3.585   3.898   2.824
 4001TIP3   OH211887   3.451   3.512   3.052
 4001TIP3    H111888   3.491   3.475   2.973
 4001TIP3    H211889   3.499   3.593   3.068
 4002TIP3   OH211890   4.002   4.151   2.822
 4002TIP3    H111891   3.992   4.232   2.873
 4002TIP3    H211892   3.988   4.081   2.885
 4003TIP3   OH211893   3.627   4.049   3.375
 4003TIP3    H111894   3.565   4.105   3.421
 4003TIP3    H211895   3.574   3.998   3.314
 4004TIP3   OH211896   3.963   3.399   2.104
 4004TIP3    H111897   4.023   3.456   2.151
 4004TIP3    H211898   3.992   3.403   2.013
 4005TIP3   OH211899   3.385   3.600   3.519
 4005TIP3    H111900   3.386   3.694   3.535
 4005TIP3    H211901   3.292   3.578   3.509
 4006TIP3   OH211902   3.699   4.073   2.359
 4006TIP3    H111903   3.787   4.112   2.363
 4006TIP3    H211904   3.647   4.136   2.309
 4007TIP3   OH211905   3.415   4.207   3.459
 4007TIP3    H111906   3.396   4.219   3.366
 4007TIP3    H211907   3.329   4.195   3.499
 4008TIP3   OH211908   4.470   2.624   2.160
 4008TIP3    H111909   4.394   2.647   2.214
 4008TIP3    H211910   4.481   2.700   2.103
 4009TIP3   OH211911   3.231   3.357   2.474
 4009TIP3    H111912   3.154   3.406   2.445
 4009TIP3    H211913   3.199   3.269   2.491
 4010TIP3   OH211914   4.297   3.999   1.717
 4010TIP3    H111915   4.291   4.091   1.694
 4010TIP3    H211916   4.386   3.973   1.694
 4011TIP3   OH211917   3.015   3.767   3.405
 4011TIP3    H111918   2.947   3.748   3.341
 4011TIP3    H211919   3.051   3.682   3.430
 4012TIP3   OH211920   2.858   3.958   3.063
 4012TIP3    H111921   2.950   3.982   3.077
 4012TIP3    H211922   2.809   4.035   3.091
 4013TIP3   OH211923   4.726   4.435   3.107
 4013TIP3    H111924   4.734   4.340   3.112
 4013TIP3    H211925   4.645   4.455   3.154
 4014TIP3   OH211926   3.818   4.193   3.238
 4014TIP3    H111927   3.809   4.284   3.265
 4014TIP3    H211928   3.750   4.147   3.287
 4015TIP3   OH211929   3.599   4.288   2.189
 4015TIP3    H111930   3.556   4.268   2.106
 4015TIP3    H211931   3.562   4.371   2.216
 4016TIP3   OH211932   3.032   4.146   2.566
 4016TIP3    H111933   3.077   4.137   2.650
 4016TIP3    H211934   2.983   4.064   2.556
 4017TIP3   OH211935   3.801   4.223   1.813
 4017TIP3    H111936   3.850   4.148   1.779
 4017TIP3    H211937   3.836   4.237   1.901
 4018TIP3   OH211938   3.853   4.266   2.083
 4018TIP3    H111939   3.768   4.268   2.126
 4018TIP3    H211940   3.912   4.231   2.149
 4019TIP3   OH211941   4.602   3.524   3.380
 4019TIP3    H111942   4.521   3.531   3.330
 4019TIP3    H211943   4.622   3.431   3.379
 4020TIP3   OH211944   3.216   3.955   3.374
 4020TIP3    H111945   3.266   3.940   3.454
 4020TIP3    H211946   3.143   3.893   3.380
 4021TIP3   OH211947   3.596   2.752   3.190
 4021TIP3    H111948   3.512   2.719   3.159
 4021TIP3    H211949   3.575   2.834   3.236
 4022TIP3   OH211950   4.138   2.880   3.392
 4022TIP3    H111951   4.208   2.855   3.452
 4022TIP3    H211952   4.057   2.863   3.440
 4023TIP3   OH211953   4.362   3.298   3.308
 4023TIP3    H111954   4.321   3.294   3.395
 4023TIP3    H211955   4.346   3.387   3.279
 4024TIP3   OH211956   4.042   3.381   1.842
 4024TIP3    H111957   3.996   3.384   1.758
 4024TIP3    H211958   4.125   3.424   1.826
 4025TIP3   OH211959   3.740   2.807   2.153
 4025TIP3    H111960   3.712   2.814   2.244
 4025TIP3    H211961   3.705   2.723   2.123
 4026TIP3   OH211962   3.536   3.289   3.196
 4026TIP3    H111963   3.492   3.295   3.281
 4026TIP3    H211964   3.513   3.370   3.151
 4027TIP3   OH211965   3.416   3.169   2.723
 4027TIP3    H111966   3.327   3.143   2.747
 4027TIP3    H211967   3.426   3.138   2.632
 4028TIP3   OH211968   3.897   3.241   2.445
 4028TIP3    H111969   3.849   3.313   2.405
 4028TIP3    H211970   3.956   3.209   2.376
 4029TIP3   OH211971   4.082   3.507   3.518
 4029TIP3    H111972   4.056   3.440   3.580
 4029TIP3    H211973   4.175   3.522   3.537
 4030TIP3   OH211974   4.063   3.256   2.669
 4030TIP3    H111975   3.996   3.277   2.604
 4030TIP3    H211976   4.112   3.183   2.630
 4031TIP3   OH211977   3.378   3.299   3.421
 4031TIP3    H111978   3.404   3.358   3.492
 4031TIP3    H211979   3.359   3.216   3.465
 4032TIP3   OH211980   3.399   2.784   2.130
 4032TIP3    H111981   3.396   2.788   2.226
 4032TIP3    H211982   3.329   2.842   2.101
 4033TIP3   OH211983   2.958   2.822   3.007
 4033TIP3    H111984   3.032   2.859   3.055
 4033TIP3    H211985   2.993   2.802   2.921
 4034TIP3   OH211986   2.866   2.809   2.518
 4034TIP3    H111987   2.917   2.856   2.451
 4034TIP3    H211988   2.797   2.870   2.542
 4035TIP3   OH211989   4.110   3.510   3.096
 4035TIP3    H111990   4.133   3.444   3.031
 4035TIP3    H211991   4.064   3.462   3.165
 4036TIP3   OH211992   3.781   2.957   2.772
 4036TIP3    H111993   3.703   2.956   2.826
 4036TIP3    H211994   3.854   2.948   2.834
 4037TIP3   OH211995   3.179   3.040   2.779
 4037TIP3    H111996   3.091   3.045   2.741
 4037TIP3    H211997   3.207   2.950   2.764
 4038TIP3   OH211998   3.433   3.053   2.475
 4038TIP3    H111999   3.527   3.063   2.466
 4038TIP3    H212000   3.398   3.071   2.388
 4039TIP3   OH212001   4.222   3.046   2.980
 4039TIP3    H112002   4.204   3.064   3.072
 4039TIP3    H212003   4.155   2.984   2.953
 4040TIP3   OH212004   3.324   3.077   2.225
 4040TIP3    H112005   3.257   3.038   2.169
 4040TIP3    H212006   3.382   3.123   2.164
 4041TIP3   OH212007   4.410   4.745   3.205
 4041TIP3    H112008   4.438   4.791   3.126
 4041TIP3    H212009   4.448   4.795   3.277
 4042TIP3   OH212010   3.365   3.868   3.608
 4042TIP3    H112011   3.446   3.885   3.655
 4042TIP3    H212012   3.296   3.876   3.674
 4043TIP3   OH212013   3.828   3.331   2.876
 4043TIP3    H112014   3.894   3.283   2.827
 4043TIP3    H212015   3.826   3.289   2.962
 4044TIP3   OH212016   3.319   2.792   2.766
 4044TIP3    H112017   3.289   2.717   2.819
 4044TIP3    H212018   3.342   2.753   2.682
 4045TIP3   OH212019   3.802   3.231   3.139
 4045TIP3    H112020   3.714   3.263   3.163
 4045TIP3    H212021   3.861   3.283   3.193
 4046TIP3   OH212022   3.539   3.584   2.251
 4046TIP3    H112023   3.463   3.530   2.227
 4046TIP3    H212024   3.512   3.628   2.331
 4047TIP3   OH212025   4.425   3.843   2.861
 4047TIP3    H112026   4.462   3.893   2.788
 4047TIP3    H212027   4.346   3.802   2.825
 4048TIP3   OH212028   3.998   2.900   2.168
 4048TIP3    H112029   3.904   2.883   2.158
 4048TIP3    H212030   4.004   2.995   2.176
 4049TIP3   OH212031   3.942   3.926   3.274
 4049TIP3    H112032   3.997   3.918   3.352
 4049TIP3    H212033   3.905   4.014   3.279
 4050TIP3   OH212034   4.061   3.166   2.229
 4050TIP3    H112035   4.156   3.170   2.239
 4050TIP3    H212036   4.039   3.243   2.177
 4051TIP3   OH212037   3.225   3.596   2.901
 4051TIP3    H112038   3.264   3.579   2.814
 4051TIP3    H212039   3.293   3.568   2.962
 4052TIP3   OH212040   3.690   3.743   2.089
 4052TIP3    H112041   3.642   3.826   2.087
 4052TIP3    H212042   3.637   3.685   2.144
 4053TIP3   OH212043   3.109   3.537   3.540
 4053TIP3    H112044   3.118   3.509   3.631
 4053TIP3    H212045   3.035   3.487   3.506
 4054TIP3   OH212046   3.853   3.665   3.556
 4054TIP3    H112047   3.784   3.607   3.524
 4054TIP3    H212048   3.935   3.623   3.528
 4055TIP3   OH212049   4.089   4.210   3.165
 4055TIP3    H112050   3.994   4.200   3.167
 4055TIP3    H212051   4.112   4.248   3.250
 4056TIP3   OH212052   4.471   3.257   2.047
 4056TIP3    H112053   4.412   3.213   1.986
 4056TIP3    H212054   4.479   3.345   2.013
 4057TIP3   OH212055   4.736   4.156   3.125
 4057TIP3    H112056   4.644   4.130   3.132
 4057TIP3    H212057   4.766   4.116   3.043
 4058TIP3   OH212058   4.213   4.072   1.976
 4058TIP3    H112059   4.189   3.999   2.032
 4058TIP3    H212060   4.237   4.032   1.893
 4059TIP3   OH212061   4.197   3.706   2.756
 4059TIP3    H112062   4.107   3.685   2.780
 4059TIP3    H212063   4.232   3.625   2.718
 4060TIP3   OH212064   3.356   3.944   2.573
 4060TIP3    H112065   3.355   4.020   2.514
 4060TIP3    H212066   3.265   3.935   2.602
 4061TIP3   OH212067   2.902   3.241   2.273
 4061TIP3    H112068   2.946   3.323   2.296
 4061TIP3    H212069   2.824   3.239   2.328
 4062TIP3   OH212070   3.428   3.698   2.469
 4062TIP3    H112071   3.418   3.788   2.502
 4062TIP3    H212072   3.406   3.643   2.543
 4063TIP3   OH212073   3.636   4.264   3.027
 4063TIP3    H112074   3.670   4.338   2.977
 4063TIP3    H212075   3.712   4.231   3.076
 4064TIP3   OH212076   3.268   4.165   2.423
 4064TIP3    H112077   3.180   4.172   2.461
 4064TIP3    H212078   3.303   4.254   2.428
 4065TIP3   OH212079   3.982   3.932   2.999
 4065TIP3    H112080   3.969   3.927   3.094
 4065TIP3    H212081   4.062   3.883   2.983
 4066TIP3   OH212082   3.983   3.810   1.887
 4066TIP3    H112083   4.032   3.795   1.969
 4066TIP3    H212084   3.897   3.772   1.903
 4067TIP3   OH212085   4.244   4.417   3.036
 4067TIP3    H112086   4.170   4.360   3.055
 4067TIP3    H212087   4.212   4.475   2.967
 4068TIP3   OH212088   4.291   4.271   1.675
 4068TIP3    H112089   4.312   4.331   1.604
 4068TIP3    H212090   4.221   4.314   1.723
 4069TIP3   OH212091   3.325   3.045   3.539
 4069TIP3    H112092   3.230   3.054   3.543
 4069TIP3    H212093   3.347   2.989   3.613
 4070TIP3   OH212094   4.159   3.761   2.101
 4070TIP3    H112095   4.142   3.684   2.156
 4070TIP3    H212096   4.253   3.754   2.081
 4071TIP3   OH212097   3.064   4.167   3.189
 4071TIP3    H112098   3.117   4.109   3.243
 4071TIP3    H212099   3.078   4.254   3.224
 4072TIP3   OH212100   3.331   3.781   1.891
 4072TIP3    H112101   3.346   3.691   1.863
 4072TIP3    H212102   3.319   3.776   1.986
 4073TIP3   OH212103   3.275   3.789   2.164
 4073TIP3    H112104   3.337   3.763   2.232
 4073TIP3    H212105   3.275   3.885   2.167
 4074TIP3   OH212106   3.006   3.483   2.368
 4074TIP3    H112107   2.941   3.530   2.420
 4074TIP3    H212108   3.027   3.542   2.296
 4075TIP3   OH212109   4.167   3.110   3.242
 4075TIP3    H112110   4.246   3.154   3.273
 4075TIP3    H212111   4.158   3.033   3.298
 4076TIP3   OH212112   4.062   2.851   2.434
 4076TIP3    H112113   4.039   2.869   2.343
 4076TIP3    H212114   4.106   2.931   2.463
 4077TIP3   OH212115   3.543   3.970   2.088
 4077TIP3    H112116   3.460   3.995   2.128
 4077TIP3    H212117   3.568   4.046   2.036
 4078TIP3   OH212118   3.710   3.055   2.521
 4078TIP3    H112119   3.773   3.122   2.495
 4078TIP3    H212120   3.734   3.034   2.612
 4079TIP3   OH212121   4.007   3.344   3.291
 4079TIP3    H112122   4.033   3.386   3.373
 4079TIP3    H212123   4.057   3.263   3.289
 4080TIP3   OH212124   3.876   2.747   2.610
 4080TIP3    H112125   3.853   2.824   2.661
 4080TIP3    H212126   3.946   2.777   2.552
 4081TIP3   OH212127   3.295   4.062   2.170
 4081TIP3    H112128   3.275   4.133   2.110
 4081TIP3    H212129   3.285   4.100   2.257
 4082TIP3   OH212130   3.399   2.783   2.412
 4082TIP3    H112131   3.389   2.873   2.443
 4082TIP3    H212132   3.493   2.767   2.416
 4083TIP3   OH212133   4.628   3.248   3.290
 4083TIP3    H112134   4.533   3.254   3.301
 4083TIP3    H212135   4.639   3.195   3.211
 4084TIP3   OH212136   4.289   3.447   2.669
 4084TIP3    H112137   4.212   3.390   2.680
 4084TIP3    H212138   4.356   3.408   2.724
 4085TIP3   OH212139   3.032   3.657   2.150
 4085TIP3    H112140   3.104   3.719   2.160
 4085TIP3    H212141   3.065   3.593   2.086
 4086TIP3   OH212142   2.959   2.977   2.326
 4086TIP3    H112143   2.947   3.070   2.310
 4086TIP3    H212144   2.973   2.938   2.240
 4087TIP3   OH212145   4.267   4.420   2.611
 4087TIP3    H112146   4.226   4.472   2.542
 4087TIP3    H212147   4.361   4.433   2.599
 4088TIP3   OH212148   3.332   2.670   3.152
 4088TIP3    H112149   3.303   2.637   3.067
 4088TIP3    H212150   3.324   2.595   3.211
 4089TIP3   OH212151   2.855   3.923   2.542
 4089TIP3    H112152   2.813   3.960   2.619
 4089TIP3    H212153   2.812   3.966   2.468
 4090TIP3   OH212154   3.071   4.465   3.609
 4090TIP3    H112155   3.150   4.477   3.661
 4090TIP3    H212156   3.070   4.371   3.588
 4091TIP3   OH212157   3.526   4.362   3.658
 4091TIP3    H112158   3.619   4.337   3.662
 4091TIP3    H212159   3.491   4.312   3.584
 4092TIP3   OH212160   3.483   3.978   1.771
 4092TIP3    H112161   3.437   3.909   1.819
 4092TIP3    H212162   3.557   3.934   1.731
 4093TIP3   OH212163   4.142   4.307   3.417
 4093TIP3    H112164   4.163   4.239   3.482
 4093TIP3    H212165   4.215   4.368   3.423
 4094TIP3   OH212166   3.926   4.007   1.700
 4094TIP3    H112167   3.963   3.945   1.763
 4094TIP3    H212168   3.985   4.001   1.624
 4095TIP3   OH212169   3.159   3.867   3.797
 4095TIP3    H112170   3.182   3.775   3.808
 4095TIP3    H212171   3.072   3.865   3.757
 4096TIP3   OH212172   3.161   3.468   2.000
 4096TIP3    H112173   3.212   3.444   2.077
 4096TIP3    H212174   3.227   3.487   1.933
 4097TIP3   OH212175   3.783   3.940   3.576
 4097TIP3    H112176   3.739   3.963   3.494
 4097TIP3    H212177   3.820   3.854   3.561
 4098TIP3   OH212178   3.713   3.685   1.822
 4098TIP3    H112179   3.694   3.695   1.915
 4098TIP3    H212180   3.699   3.592   1.804
 4099TIP3   OH212181   4.260   3.987   3.192
 4099TIP3    H112182   4.338   4.015   3.144
 4099TIP3    H212183   4.197   4.058   3.177
 4100TIP3   OH212184   3.274   3.615   3.803
 4100TIP3    H112185   3.349   3.593   3.747
 4100TIP3    H212186   3.312   3.627   3.890
 4101TIP3   OH212187   3.329   3.407   2.211
 4101TIP3    H112188   3.308   3.378   2.299
 4101TIP3    H212189   3.379   3.335   2.173
 4102TIP3   OH212190   3.635   3.484   3.464
 4102TIP3    H112191   3.553   3.530   3.477
 4102TIP3    H212192   3.669   3.516   3.380
 4103TIP3   OH212193   3.475   3.226   2.055
 4103TIP3    H112194   3.444   3.235   1.965
 4103TIP3    H212195   3.570   3.235   2.049
 4104TIP3   OH212196   4.144   3.866   3.546
 4104TIP3    H112197   4.211   3.829   3.489
 4104TIP3    H212198   4.140   3.806   3.621
 4105TIP3   OH212199   4.261   3.511   1.736
 4105TIP3    H112200   4.250   3.470   1.650
 4105TIP3    H212201   4.235   3.602   1.723
 4106TIP3   OH212202   3.744   3.256   3.572
 4106TIP3    H112203   3.748   3.185   3.508
 4106TIP3    H212204   3.708   3.330   3.524
 4107TIP3   OH212205   3.754   3.059   3.368
 4107TIP3    H112206   3.781   3.095   3.284
 4107TIP3    H212207   3.663   3.031   3.354
 4108TIP3   OH212208   3.755   3.595   3.248
 4108TIP3    H112209   3.843   3.630   3.234
 4108TIP3    H212210   3.698   3.651   3.195
 4109TIP3   OH212211   4.351   3.540   3.615
 4109TIP3    H112212   4.387   3.452   3.622
 4109TIP3    H212213   4.427   3.596   3.598
 4110TIP3   OH212214   4.375   3.810   3.362
 4110TIP3    H112215   4.324   3.871   3.309
 4110TIP3    H212216   4.465   3.822   3.332
 4111TIP3   OH212217   3.631   3.338   3.817
 4111TIP3    H112218   3.561   3.276   3.837
 4111TIP3    H212219   3.658   3.314   3.728
 4112TIP3   OH212220   3.873   2.828   3.473
 4112TIP3    H112221   3.833   2.908   3.439
 4112TIP3    H212222   3.807   2.760   3.460
 4113TIP3   OH212223   4.000   3.297   3.675
 4113TIP3    H112224   3.989   3.284   3.769
 4113TIP3    H212225   3.914   3.276   3.638
 4114TIP3   OH212226   4.248   3.255   3.549
 4114TIP3    H112227   4.168   3.253   3.602
 4114TIP3    H212228   4.317   3.228   3.609
 4115TIP3   OH212229   4.480   3.216   3.699
 4115TIP3    H112230   4.496   3.122   3.705
 4115TIP3    H212231   4.477   3.245   3.791
 4116TIP3   OH212232   3.461   3.120   3.880
 4116TIP3    H112233   3.466   3.032   3.843
 4116TIP3    H212234   3.499   3.112   3.967
 4117TIP3   OH212235   3.938   2.803   3.739
 4117TIP3    H112236   4.006   2.737   3.733
 4117TIP3    H212237   3.908   2.816   3.649
 4118TIP3   OH212238   4.037   3.017   3.883
 4118TIP3    H112239   4.005   2.944   3.829
 4118TIP3    H212240   3.964   3.079   3.884
 4119TIP3   OH212241   3.292   4.272   1.988
 4119TIP3    H112242   3.381   4.251   1.962
 4119TIP3    H212243   3.254   4.315   1.912
 4120TIP3   OH212244   2.760   3.652   2.173
 4120TIP3    H112245   2.854   3.666   2.168
 4120TIP3    H212246   2.747   3.565   2.136
 4121TIP3   OH212247   2.657   4.232   2.627
 4121TIP3    H112248   2.593   4.178   2.582
 4121TIP3    H212249   2.703   4.171   2.686
 4122TIP3   OH212250   2.803   4.064   2.793
 4122TIP3    H112251   2.795   3.996   2.860
 4122TIP3    H212252   2.856   4.132   2.835
 4123TIP3   OH212253   4.537   4.473   2.606
 4123TIP3    H112254   4.552   4.502   2.696
 4123TIP3    H212255   4.583   4.537   2.552
 4124TIP3   OH212256   4.551   4.512   2.885
 4124TIP3    H112257   4.508   4.426   2.885
 4124TIP3    H212258   4.624   4.502   2.945
 4125TIP3   OH212259   4.625   4.207   3.466
 4125TIP3    H112260   4.554   4.222   3.528
 4125TIP3    H212261   4.666   4.293   3.455
 4126TIP3   OH212262   4.433   3.723   2.066
 4126TIP3    H112263   4.491   3.792   2.033
 4126TIP3    H212264   4.481   3.684   2.138
 4127TIP3   OH212265   4.565   3.578   2.264
 4127TIP3    H112266   4.498   3.542   2.321
 4127TIP3    H212267   4.631   3.615   2.324
 4128TIP3   OH212268   4.612   3.982   2.703
 4128TIP3    H112269   4.663   3.915   2.658
 4128TIP3    H212270   4.613   4.057   2.644
 4129TIP3   OH212271   4.421   4.259   2.896
 4129TIP3    H112272   4.354   4.306   2.945
 4129TIP3    H212273   4.374   4.220   2.822
 4130TIP3   OH212274   4.471   3.497   1.912
 4130TIP3    H112275   4.400   3.495   1.848
 4130TIP3    H212276   4.455   3.575   1.964
 4131TIP3   OH212277   4.311   3.147   1.855
 4131TIP3    H112278   4.272   3.180   1.774
 4131TIP3    H212279   4.305   3.052   1.847
 4132TIP3   OH212280   4.358   3.441   2.399
 4132TIP3    H112281   4.364   3.346   2.385
 4132TIP3    H212282   4.339   3.450   2.493
 4133TIP3   OH212283   2.979   3.501   3.179
 4133TIP3    H112284   2.971   3.471   3.089
 4133TIP3    H212285   3.073   3.495   3.199
 4134TIP3   OH212286   4.630   3.854   3.260
 4134TIP3    H112287   4.699   3.791   3.241
 4134TIP3    H212288   4.622   3.906   3.180
 4135TIP3   OH212289   4.814   3.644   3.254
 4135TIP3    H112290   4.740   3.604   3.300
 4135TIP3    H212291   4.889   3.588   3.275
 4136TIP3   OH212292   4.280   2.876   1.827
 4136TIP3    H112293   4.348   2.846   1.887
 4136TIP3    H212294   4.200   2.832   1.857
 4137TIP3   OH212295   4.351   3.163   2.287
 4137TIP3    H112296   4.397   3.080   2.299
 4137TIP3    H212297   4.391   3.202   2.210
 4138TIP3   OH212298   4.504   3.327   2.811
 4138TIP3    H112299   4.584   3.344   2.762
 4138TIP3    H212300   4.519   3.366   2.897
 4139TIP3   OH212301   4.579   3.475   3.040
 4139TIP3    H112302   4.507   3.504   3.095
 4139TIP3    H212303   4.609   3.555   2.996
 4140TIP3   OH212304   3.198   3.173   3.811
 4140TIP3    H112305   3.291   3.170   3.832
 4140TIP3    H212306   3.162   3.093   3.847
 4141TIP3   OH212307   5.039   3.072   3.576
 4141TIP3    H112308   5.106   3.018   3.535
 4141TIP3    H212309   5.001   3.122   3.504
 4142TIP3   OH212310   4.468   2.914   2.339
 4142TIP3    H112311   4.514   2.899   2.421
 4142TIP3    H212312   4.406   2.842   2.332
 4143TIP3   OH212313   3.172   2.896   3.173
 4143TIP3    H112314   3.224   2.816   3.176
 4143TIP3    H212315   3.234   2.965   3.152
 4144TIP3   OH212316   2.956   3.165   3.220
 4144TIP3    H112317   3.007   3.155   3.139
 4144TIP3    H212318   2.991   3.243   3.261
 4145TIP3   OH212319   4.888   3.186   3.377
 4145TIP3    H112320   4.803   3.226   3.393
 4145TIP3    H212321   4.869   3.108   3.326
 4146TIP3   OH212322   4.510   2.824   1.977
 4146TIP3    H112323   4.560   2.765   1.919
 4146TIP3    H212324   4.563   2.904   1.981
 4147TIP3   OH212325   2.948   2.680   2.744
 4147TIP3    H112326   2.862   2.658   2.780
 4147TIP3    H212327   2.929   2.732   2.666
 4148TIP3   OH212328   4.091   4.388   2.247
 4148TIP3    H112329   4.148   4.378   2.171
 4148TIP3    H212330   4.134   4.455   2.300
 4149TIP3   OH212331   3.164   2.730   3.568
 4149TIP3    H112332   3.107   2.715   3.644
 4149TIP3    H212333   3.107   2.774   3.505
 4150TIP3   OH212334   3.179   4.192   3.616
 4150TIP3    H112335   3.088   4.162   3.612
 4150TIP3    H212336   3.206   4.178   3.707
 4151TIP3   OH212337   3.409   4.231   3.177
 4151TIP3    H112338   3.358   4.306   3.145
 4151TIP3    H212339   3.493   4.238   3.133
 4152TIP3   OH212340   3.802   4.460   3.315
 4152TIP3    H112341   3.840   4.453   3.403
 4152TIP3    H212342   3.865   4.514   3.266
 4153TIP3   OH212343   3.993   4.616   3.192
 4153TIP3    H112344   4.059   4.571   3.140
 4153TIP3    H212345   4.044   4.674   3.250
 4154TIP3   OH212346   4.804   2.939   3.273
 4154TIP3    H112347   4.719   2.933   3.231
 4154TIP3    H212348   4.840   2.850   3.267
 4155TIP3   OH212349   3.068   4.461   3.227
 4155TIP3    H112350   2.977   4.478   3.202
 4155TIP3    H212351   3.090   4.531   3.289
 4156TIP3   OH212352   3.298   4.461   3.074
 4156TIP3    H112353   3.214   4.463   3.121
 4156TIP3    H212354   3.276   4.484   2.984
 4157TIP3   OH212355   3.709   4.477   2.868
 4157TIP3    H112356   3.639   4.489   2.804
 4157TIP3    H212357   3.721   4.563   2.907
 4158TIP3   OH212358   3.972   4.408   2.918
 4158TIP3    H112359   3.881   4.431   2.896
 4158TIP3    H212360   4.025   4.474   2.873
 4159TIP3   OH212361   4.170   4.577   2.816
 4159TIP3    H112362   4.182   4.667   2.784
 4159TIP3    H212363   4.202   4.522   2.745
 4160TIP3   OH212364   2.977   4.243   2.937
 4160TIP3    H112365   3.003   4.222   3.026
 4160TIP3    H212366   3.048   4.211   2.882
 4161TIP3   OH212367   3.181   4.129   2.798
 4161TIP3    H112368   3.192   4.044   2.841
 4161TIP3    H212369   3.267   4.170   2.803
 4162TIP3   OH212370   3.448   4.214   2.825
 4162TIP3    H112371   3.469   4.122   2.809
 4162TIP3    H212372   3.504   4.238   2.899
 4163TIP3   OH212373   4.005   2.863   2.915
 4163TIP3    H112374   3.964   2.793   2.966
 4163TIP3    H212375   4.073   2.820   2.864
 4164TIP3   OH212376   4.507   2.776   2.793
 4164TIP3    H112377   4.545   2.826   2.720
 4164TIP3    H212378   4.417   2.806   2.797
 4165TIP3   OH212379   4.625   2.859   2.560
 4165TIP3    H112380   4.693   2.797   2.535
 4165TIP3    H212381   4.665   2.946   2.548
 4166TIP3   OH212382   3.244   2.566   2.911
 4166TIP3    H112383   3.155   2.532   2.920
 4166TIP3    H212384   3.299   2.488   2.902
 4167TIP3   OH212385   3.079   2.482   2.586
 4167TIP3    H112386   3.108   2.530   2.508
 4167TIP3    H212387   3.042   2.550   2.643
 4168TIP3   OH212388   3.731   2.603   2.806
 4168TIP3    H112389   3.778   2.651   2.738
 4168TIP3    H212390   3.771   2.633   2.888
 4169TIP3   OH212391   4.216   2.743   2.784
 4169TIP3    H112392   4.228   2.713   2.694
 4169TIP3    H212393   4.229   2.665   2.838
 4170TIP3   OH212394   4.283   2.703   2.348
 4170TIP3    H112395   4.203   2.750   2.372
 4170TIP3    H212396   4.273   2.616   2.387
 4171TIP3   OH212397   2.739   4.046   2.325
 4171TIP3    H112398   2.656   4.013   2.291
 4171TIP3    H212399   2.743   4.136   2.293
 4172TIP3   OH212400   3.190   2.613   2.361
 4172TIP3    H112401   3.227   2.547   2.301
 4172TIP3    H212402   3.264   2.667   2.385
 4173TIP3   OH212403   3.673   2.804   2.420
 4173TIP3    H112404   3.730   2.751   2.475
 4173TIP3    H212405   3.686   2.894   2.451
 4174TIP3   OH212406   3.547   4.198   1.919
 4174TIP3    H112407   3.631   4.224   1.881
 4174TIP3    H212408   3.516   4.128   1.862
 4175TIP3   OH212409   4.244   4.341   2.020
 4175TIP3    H112410   4.238   4.245   2.010
 4175TIP3    H212411   4.204   4.375   1.940
 4176TIP3   OH212412   3.476   2.850   3.793
 4176TIP3    H112413   3.439   2.784   3.851
 4176TIP3    H212414   3.568   2.857   3.819
 4177TIP3   OH212415   3.723   2.855   3.917
 4177TIP3    H112416   3.800   2.833   3.865
 4177TIP3    H212417   3.715   2.783   3.980
 4178TIP3   OH212418   2.853   4.041   1.979
 4178TIP3    H112419   2.855   4.052   2.074
 4178TIP3    H212420   2.935   3.995   1.959
 4179TIP3   OH212421   4.546   2.946   3.700
 4179TIP3    H112422   4.564   2.916   3.789
 4179TIP3    H212423   4.631   2.941   3.656
 4180TIP3   OH212424   4.466   4.477   3.198
 4180TIP3    H112425   4.393   4.444   3.147
 4180TIP3    H212426   4.450   4.571   3.206
 4181TIP3   OH212427   5.742   3.863   1.943
 4181TIP3    H112428   5.707   3.950   1.924
 4181TIP3    H212429   5.672   3.802   1.918
 4182TIP3   OH212430   5.739   3.858   2.372
 4182TIP3    H112431   5.795   3.839   2.447
 4182TIP3    H212432   5.695   3.776   2.353
 4183TIP3   OH212433   5.037   3.714   2.714
 4183TIP3    H112434   5.077   3.662   2.784
 4183TIP3    H212435   5.110   3.739   2.658
 4184TIP3   OH212436   6.010   4.165   2.039
 4184TIP3    H112437   5.996   4.098   2.106
 4184TIP3    H212438   6.028   4.245   2.089
 4185TIP3   OH212439   5.033   4.144   2.397
 4185TIP3    H112440   5.015   4.050   2.404
 4185TIP3    H212441   5.128   4.148   2.386
 4186TIP3   OH212442   4.711   3.349   2.184
 4186TIP3    H112443   4.674   3.434   2.207
 4186TIP3    H212444   4.639   3.301   2.143
 4187TIP3   OH212445   4.794   3.664   2.407
 4187TIP3    H112446   4.844   3.586   2.432
 4187TIP3    H212447   4.860   3.729   2.383
 4188TIP3   OH212448   5.673   4.585   2.056
 4188TIP3    H112449   5.695   4.523   1.986
 4188TIP3    H212450   5.681   4.534   2.136
 4189TIP3   OH212451   5.546   4.078   2.374
 4189TIP3    H112452   5.592   3.998   2.346
 4189TIP3    H212453   5.615   4.136   2.404
 4190TIP3   OH212454   6.583   3.397   2.389
 4190TIP3    H112455   6.599   3.482   2.430
 4190TIP3    H212456   6.610   3.409   2.298
 4191TIP3   OH212457   5.950   3.566   2.408
 4191TIP3    H112458   5.982   3.481   2.436
 4191TIP3    H212459   5.915   3.551   2.320
 4192TIP3   OH212460   5.308   3.223   2.366
 4192TIP3    H112461   5.287   3.296   2.308
 4192TIP3    H212462   5.253   3.151   2.335
 4193TIP3   OH212463   6.006   3.327   2.005
 4193TIP3    H112464   6.069   3.322   2.076
 4193TIP3    H212465   6.057   3.361   1.931
 4194TIP3   OH212466   4.932   3.439   2.497
 4194TIP3    H112467   5.016   3.422   2.540
 4194TIP3    H212468   4.936   3.389   2.416
 4195TIP3   OH212469   5.350   3.639   2.317
 4195TIP3    H112470   5.445   3.625   2.321
 4195TIP3    H212471   5.315   3.557   2.281
 4196TIP3   OH212472   6.637   3.618   2.553
 4196TIP3    H112473   6.549   3.655   2.549
 4196TIP3    H212474   6.674   3.654   2.634
 4197TIP3   OH212475   5.289   3.229   2.818
 4197TIP3    H112476   5.240   3.265   2.744
 4197TIP3    H212477   5.234   3.246   2.894
 4198TIP3   OH212478   5.604   4.072   1.830
 4198TIP3    H112479   5.579   4.053   1.740
 4198TIP3    H212480   5.564   4.157   1.849
 4199TIP3   OH212481   5.378   4.007   2.583
 4199TIP3    H112482   5.328   4.081   2.618
 4199TIP3    H212483   5.427   4.044   2.510
 4200TIP3   OH212484   6.161   3.352   2.229
 4200TIP3    H112485   6.119   3.330   2.312
 4200TIP3    H212486   6.218   3.426   2.250
 4201TIP3   OH212487   5.180   3.335   2.587
 4201TIP3    H112488   5.235   3.411   2.609
 4201TIP3    H212489   5.226   3.292   2.515
 4202TIP3   OH212490   5.230   4.216   2.696
 4202TIP3    H112491   5.216   4.305   2.665
 4202TIP3    H212492   5.151   4.194   2.745
 4203TIP3   OH212493   4.603   3.911   1.946
 4203TIP3    H112494   4.572   3.929   1.857
 4203TIP3    H212495   4.626   3.997   1.981
 4204TIP3   OH212496   6.038   4.411   2.184
 4204TIP3    H112497   5.950   4.406   2.221
 4204TIP3    H212498   6.040   4.493   2.136
 4205TIP3   OH212499   6.384   3.288   2.558
 4205TIP3    H112500   6.300   3.309   2.519
 4205TIP3    H212501   6.448   3.314   2.492
 4206TIP3   OH212502   5.632   2.919   2.553
 4206TIP3    H112503   5.625   2.827   2.578
 4206TIP3    H212504   5.554   2.960   2.591
 4207TIP3   OH212505   5.751   4.438   1.832
 4207TIP3    H112506   5.803   4.358   1.821
 4207TIP3    H212507   5.810   4.509   1.806
 4208TIP3   OH212508   5.909   4.222   1.787
 4208TIP3    H112509   5.913   4.144   1.732
 4208TIP3    H212510   5.946   4.194   1.871
 4209TIP3   OH212511   6.273   4.301   2.524
 4209TIP3    H112512   6.258   4.226   2.467
 4209TIP3    H212513   6.260   4.377   2.468
 4210TIP3   OH212514   5.566   3.700   1.797
 4210TIP3    H112515   5.484   3.747   1.779
 4210TIP3    H212516   5.613   3.701   1.713
 4211TIP3   OH212517   5.536   3.513   1.483
 4211TIP3    H112518   5.601   3.561   1.533
 4211TIP3    H212519   5.586   3.446   1.437
 4212TIP3   OH212520   6.457   3.962   2.397
 4212TIP3    H112521   6.373   4.007   2.394
 4212TIP3    H212522   6.494   3.974   2.309
 4213TIP3   OH212523   5.927   3.795   1.754
 4213TIP3    H112524   5.872   3.821   1.827
 4213TIP3    H212525   6.010   3.769   1.794
 4214TIP3   OH212526   6.156   3.820   2.707
 4214TIP3    H112527   6.153   3.904   2.753
 4214TIP3    H212528   6.075   3.817   2.656
 4215TIP3   OH212529   5.152   3.771   2.162
 4215TIP3    H112530   5.117   3.710   2.096
 4215TIP3    H212531   5.225   3.724   2.201
 4216TIP3   OH212532   5.295   4.195   2.302
 4216TIP3    H112533   5.271   4.183   2.210
 4216TIP3    H212534   5.382   4.156   2.309
 4217TIP3   OH212535   5.248   3.769   2.539
 4217TIP3    H112536   5.287   3.732   2.459
 4217TIP3    H212537   5.295   3.851   2.553
 4218TIP3   OH212538   5.796   4.413   2.313
 4218TIP3    H112539   5.788   4.492   2.367
 4218TIP3    H212540   5.785   4.340   2.375
 4219TIP3   OH212541   5.423   4.318   2.868
 4219TIP3    H112542   5.364   4.378   2.914
 4219TIP3    H212543   5.365   4.268   2.809
 4220TIP3   OH212544   5.757   3.653   1.589
 4220TIP3    H112545   5.817   3.711   1.637
 4220TIP3    H212546   5.787   3.656   1.499
 4221TIP3   OH212547   5.177   3.847   3.011
 4221TIP3    H112548   5.181   3.942   3.026
 4221TIP3    H212549   5.084   3.829   3.001
 4222TIP3   OH212550   5.497   4.330   1.847
 4222TIP3    H112551   5.584   4.370   1.849
 4222TIP3    H212552   5.443   4.391   1.797
 4223TIP3   OH212553   5.231   4.508   2.958
 4223TIP3    H112554   5.200   4.504   2.868
 4223TIP3    H212555   5.155   4.484   3.011
 4224TIP3   OH212556   6.267   2.881   1.650
 4224TIP3    H112557   6.191   2.902   1.704
 4224TIP3    H212558   6.277   2.956   1.592
 4225TIP3   OH212559   5.028   3.612   1.961
 4225TIP3    H112560   4.951   3.661   1.932
 4225TIP3    H212561   4.997   3.523   1.974
 4226TIP3   OH212562   6.095   4.251   1.203
 4226TIP3    H112563   6.085   4.343   1.179
 4226TIP3    H212564   6.184   4.229   1.175
 4227TIP3   OH212565   4.812   4.024   2.898
 4227TIP3    H112566   4.742   4.006   2.835
 4227TIP3    H212567   4.845   3.937   2.922
 4228TIP3   OH212568   4.652   4.221   2.555
 4228TIP3    H112569   4.742   4.248   2.573
 4228TIP3    H212570   4.599   4.297   2.578
 4229TIP3   OH212571   6.501   4.656   2.599
 4229TIP3    H112572   6.505   4.562   2.613
 4229TIP3    H212573   6.423   4.684   2.648
 4230TIP3   OH212574   5.619   4.449   2.726
 4230TIP3    H112575   5.618   4.538   2.761
 4230TIP3    H212576   5.548   4.404   2.773
 4231TIP3   OH212577   5.394   4.545   1.675
 4231TIP3    H112578   5.351   4.525   1.592
 4231TIP3    H212579   5.355   4.628   1.703
 4232TIP3   OH212580   4.828   4.402   2.051
 4232TIP3    H112581   4.873   4.394   2.136
 4232TIP3    H212582   4.780   4.321   2.042
 4233TIP3   OH212583   5.595   4.481   1.301
 4233TIP3    H112584   5.645   4.407   1.266
 4233TIP3    H212585   5.631   4.495   1.389
 4234TIP3   OH212586   5.648   4.523   1.571
 4234TIP3    H112587   5.562   4.526   1.612
 4234TIP3    H212588   5.705   4.485   1.638
 4235TIP3   OH212589   6.397   3.779   2.869
 4235TIP3    H112590   6.316   3.786   2.817
 4235TIP3    H212591   6.417   3.686   2.868
 4236TIP3   OH212592   5.014   4.210   2.866
 4236TIP3    H112593   5.063   4.193   2.947
 4236TIP3    H212594   4.940   4.149   2.871
 4237TIP3   OH212595   5.393   3.010   2.677
 4237TIP3    H112596   5.309   2.977   2.645
 4237TIP3    H212597   5.371   3.092   2.722
 4238TIP3   OH212598   5.934   3.138   2.878
 4238TIP3    H112599   6.004   3.112   2.938
 4238TIP3    H212600   5.853   3.121   2.927
 4239TIP3   OH212601   6.156   3.553   2.794
 4239TIP3    H112602   6.118   3.550   2.882
 4239TIP3    H212603   6.142   3.643   2.765
 4240TIP3   OH212604   5.837   3.634   1.328
 4240TIP3    H112605   5.789   3.638   1.245
 4240TIP3    H212606   5.920   3.678   1.309
 4241TIP3   OH212607   5.544   3.053   1.646
 4241TIP3    H112608   5.506   3.061   1.734
 4241TIP3    H212609   5.509   2.971   1.612
 4242TIP3   OH212610   5.332   3.547   2.684
 4242TIP3    H112611   5.288   3.553   2.769
 4242TIP3    H212612   5.311   3.628   2.639
 4243TIP3   OH212613   5.212   3.424   2.207
 4243TIP3    H112614   5.122   3.401   2.231
 4243TIP3    H212615   5.221   3.393   2.117
 4244TIP3   OH212616   5.690   3.497   1.933
 4244TIP3    H112617   5.643   3.570   1.893
 4244TIP3    H212618   5.749   3.465   1.865
 4245TIP3   OH212619   5.878   3.762   3.004
 4245TIP3    H112620   5.853   3.694   3.066
 4245TIP3    H212621   5.970   3.779   3.023
 4246TIP3   OH212622   5.859   3.514   2.155
 4246TIP3    H112623   5.791   3.534   2.091
 4246TIP3    H212624   5.907   3.440   2.117
 4247TIP3   OH212625   5.173   3.561   2.908
 4247TIP3    H112626   5.185   3.625   2.978
 4247TIP3    H212627   5.154   3.479   2.953
 4248TIP3   OH212628   5.212   3.033   1.623
 4248TIP3    H112629   5.202   3.040   1.718
 4248TIP3    H212630   5.134   3.077   1.588
 4249TIP3   OH212631   4.760   3.081   2.490
 4249TIP3    H112632   4.832   3.117   2.542
 4249TIP3    H212633   4.798   3.068   2.403
 4250TIP3   OH212634   4.658   3.059   1.989
 4250TIP3    H112635   4.704   3.094   1.912
 4250TIP3    H212636   4.595   3.127   2.012
 4251TIP3   OH212637   5.906   3.767   2.583
 4251TIP3    H112638   5.930   3.701   2.518
 4251TIP3    H212639   5.861   3.718   2.652
 4252TIP3   OH212640   5.578   3.212   2.257
 4252TIP3    H112641   5.500   3.211   2.313
 4252TIP3    H212642   5.652   3.203   2.318
 4253TIP3   OH212643   4.972   3.299   2.265
 4253TIP3    H112644   4.884   3.304   2.227
 4253TIP3    H212645   5.001   3.210   2.248
 4254TIP3   OH212646   5.224   3.304   1.960
 4254TIP3    H112647   5.319   3.313   1.951
 4254TIP3    H212648   5.190   3.321   1.872
 4255TIP3   OH212649   6.018   3.304   2.466
 4255TIP3    H112650   5.999   3.321   2.559
 4255TIP3    H212651   5.951   3.241   2.439
 4256TIP3   OH212652   5.115   3.325   1.710
 4256TIP3    H112653   5.052   3.275   1.657
 4256TIP3    H212654   5.168   3.371   1.646
 4257TIP3   OH212655   6.220   5.008   2.688
 4257TIP3    H112656   6.214   5.026   2.594
 4257TIP3    H212657   6.299   5.053   2.716
 4258TIP3   OH212658   5.162   4.117   3.098
 4258TIP3    H112659   5.242   4.136   3.147
 4258TIP3    H212660   5.092   4.128   3.162
 4259TIP3   OH212661   5.624   3.589   2.363
 4259TIP3    H112662   5.690   3.540   2.313
 4259TIP3    H212663   5.623   3.546   2.448
 4260TIP3   OH212664   5.113   3.050   2.250
 4260TIP3    H112665   5.086   2.974   2.302
 4260TIP3    H212666   5.134   3.014   2.164
 4261TIP3   OH212667   5.597   3.487   2.626
 4261TIP3    H112668   5.510   3.520   2.649
 4261TIP3    H212669   5.658   3.539   2.679
 4262TIP3   OH212670   5.329   3.837   1.741
 4262TIP3    H112671   5.253   3.783   1.716
 4262TIP3    H212672   5.302   3.879   1.822
 4263TIP3   OH212673   6.221   4.097   2.347
 4263TIP3    H112674   6.259   4.145   2.273
 4263TIP3    H212675   6.143   4.056   2.310
 4264TIP3   OH212676   5.797   3.156   1.653
 4264TIP3    H112677   5.704   3.135   1.647
 4264TIP3    H212678   5.799   3.251   1.663
 4265TIP3   OH212679   5.746   4.181   2.763
 4265TIP3    H112680   5.802   4.166   2.839
 4265TIP3    H212681   5.710   4.268   2.776
 4266TIP3   OH212682   5.855   3.422   1.718
 4266TIP3    H112683   5.950   3.426   1.728
 4266TIP3    H212684   5.833   3.499   1.666
 4267TIP3   OH212685   5.017   3.852   2.389
 4267TIP3    H112686   5.055   3.835   2.303
 4267TIP3    H212687   5.085   3.825   2.451
 4268TIP3   OH212688   5.482   3.999   1.584
 4268TIP3    H112689   5.434   4.081   1.581
 4268TIP3    H212690   5.427   3.941   1.637
 4269TIP3   OH212691   4.902   3.786   3.025
 4269TIP3    H112692   4.902   3.759   3.117
 4269TIP3    H212693   4.827   3.740   2.986
 4270TIP3   OH212694   5.648   3.914   3.045
 4270TIP3    H112695   5.578   3.854   3.017
 4270TIP3    H212696   5.729   3.873   3.015
 4271TIP3   OH212697   5.883   4.464   2.629
 4271TIP3    H112698   5.789   4.449   2.638
 4271TIP3    H212699   5.908   4.506   2.711
 4272TIP3   OH212700   6.267   3.511   1.533
 4272TIP3    H112701   6.210   3.466   1.471
 4272TIP3    H212702   6.274   3.600   1.499
 4273TIP3   OH212703   6.518   4.374   2.620
 4273TIP3    H112704   6.424   4.361   2.608
 4273TIP3    H212705   6.557   4.350   2.536
 4274TIP3   OH212706   6.017   4.327   1.464
 4274TIP3    H112707   5.986   4.256   1.520
 4274TIP3    H212708   6.037   4.285   1.380
 4275TIP3   OH212709   5.993   3.962   2.242
 4275TIP3    H112710   5.903   3.940   2.266
 4275TIP3    H212711   6.028   3.881   2.204
 4276TIP3   OH212712   5.152   4.200   2.061
 4276TIP3    H112713   5.151   4.275   2.001
 4276TIP3    H212714   5.061   4.192   2.091
 4277TIP3   OH212715   4.711   3.483   1.774
 4277TIP3    H112716   4.753   3.566   1.795
 4277TIP3    H212717   4.629   3.483   1.824
 4278TIP3   OH212718   5.224   3.952   1.961
 4278TIP3    H112719   5.213   4.042   1.993
 4278TIP3    H212720   5.201   3.898   2.036
 4279TIP3   OH212721   5.431   4.521   2.514
 4279TIP3    H112722   5.463   4.595   2.462
 4279TIP3    H212723   5.509   4.485   2.556
 4280TIP3   OH212724   5.065   4.420   1.910
 4280TIP3    H112725   4.978   4.427   1.948
 4280TIP3    H212726   5.101   4.509   1.915
 4281TIP3   OH212727   5.776   4.189   2.487
 4281TIP3    H112728   5.766   4.183   2.582
 4281TIP3    H212729   5.851   4.133   2.467
 4282TIP3   OH212730   5.784   4.065   1.364
 4282TIP3    H112731   5.824   4.048   1.449
 4282TIP3    H212732   5.700   4.019   1.367
 4283TIP3   OH212733   6.039   4.681   2.524
 4283TIP3    H112734   5.966   4.620   2.539
 4283TIP3    H212735   6.010   4.736   2.451
 4284TIP3   OH212736   6.082   4.521   1.162
 4284TIP3    H112737   6.110   4.588   1.100
 4284TIP3    H212738   6.010   4.563   1.210
 4285TIP3   OH212739   5.117   3.307   3.025
 4285TIP3    H112740   5.022   3.315   3.029
 4285TIP3    H212741   5.139   3.250   3.098
 4286TIP3   OH212742   5.951   4.015   1.587
 4286TIP3    H112743   5.934   3.939   1.642
 4286TIP3    H212744   6.045   4.009   1.566
 4287TIP3   OH212745   4.857   4.422   2.671
 4287TIP3    H112746   4.912   4.369   2.729
 4287TIP3    H212747   4.866   4.511   2.705
 4288TIP3   OH212748   5.126   4.026   1.371
 4288TIP3    H112749   5.137   3.935   1.345
 4288TIP3    H212750   5.113   4.022   1.466
 4289TIP3   OH212751   5.068   4.043   1.644
 4289TIP3    H112752   5.133   4.018   1.710
 4289TIP3    H212753   5.067   4.139   1.647
 4290TIP3   OH212754   4.802   3.735   1.854
 4290TIP3    H112755   4.737   3.783   1.906
 4290TIP3    H212756   4.822   3.792   1.781
 4291TIP3   OH212757   5.961   3.368   2.729
 4291TIP3    H112758   6.041   3.411   2.758
 4291TIP3    H212759   5.953   3.290   2.785
 4292TIP3   OH212760   5.858   3.108   1.920
 4292TIP3    H112761   5.837   3.126   1.828
 4292TIP3    H212762   5.901   3.187   1.950
 4293TIP3   OH212763   5.336   4.227   1.578
 4293TIP3    H112764   5.253   4.252   1.617
 4293TIP3    H212765   5.362   4.301   1.524
 4294TIP3   OH212766   5.504   3.308   2.006
 4294TIP3    H112767   5.566   3.375   1.979
 4294TIP3    H212768   5.529   3.287   2.096
 4295TIP3   OH212769   5.802   3.601   2.777
 4295TIP3    H112770   5.829   3.642   2.859
 4295TIP3    H212771   5.852   3.519   2.774
 4296TIP3   OH212772   5.669   3.002   2.092
 4296TIP3    H112773   5.645   3.079   2.143
 4296TIP3    H212774   5.739   3.032   2.035
 4297TIP3   OH212775   5.088   4.316   1.657
 4297TIP3    H112776   5.069   4.388   1.597
 4297TIP3    H212777   5.079   4.355   1.744
 4298TIP3   OH212778   5.180   3.030   1.903
 4298TIP3    H112779   5.169   3.121   1.930
 4298TIP3    H212780   5.275   3.015   1.909
 4299TIP3   OH212781   6.423   3.503   2.776
 4299TIP3    H112782   6.328   3.510   2.786
 4299TIP3    H212783   6.434   3.448   2.698
 4300TIP3   OH212784   6.085   3.703   2.155
 4300TIP3    H112785   6.009   3.646   2.165
 4300TIP3    H212786   6.152   3.664   2.211
 4301TIP3   OH212787   4.825   3.909   1.636
 4301TIP3    H112788   4.897   3.972   1.645
 4301TIP3    H212789   4.856   3.847   1.571
 4302TIP3   OH212790   4.733   3.204   1.770
 4302TIP3    H112791   4.744   3.299   1.777
 4302TIP3    H212792   4.687   3.193   1.686
 4303TIP3   OH212793   6.066   4.675   2.098
 4303TIP3    H112794   6.025   4.728   2.031
 4303TIP3    H212795   6.160   4.687   2.084
 4304TIP3   OH212796   5.130   2.925   2.638
 4304TIP3    H112797   5.101   2.894   2.552
 4304TIP3    H212798   5.121   2.850   2.696
 4305TIP3   OH212799   4.652   4.179   2.031
 4305TIP3    H112800   4.613   4.217   2.110
 4305TIP3    H212801   4.607   4.223   1.958
 4306TIP3   OH212802   4.841   4.707   3.068
 4306TIP3    H112803   4.912   4.711   3.132
 4306TIP3    H212804   4.799   4.622   3.084
 4307TIP3   OH212805   5.453   4.654   3.044
 4307TIP3    H112806   5.478   4.581   3.100
 4307TIP3    H212807   5.370   4.628   3.004
 4308TIP3   OH212808   5.277   4.230   1.261
 4308TIP3    H112809   5.231   4.159   1.306
 4308TIP3    H212810   5.353   4.187   1.220
 4309TIP3   OH212811   5.932   4.581   2.869
 4309TIP3    H112812   5.936   4.507   2.929
 4309TIP3    H212813   6.007   4.635   2.892
 4310TIP3   OH212814   5.722   4.268   1.186
 4310TIP3    H112815   5.760   4.204   1.247
 4310TIP3    H212816   5.778   4.263   1.109
 4311TIP3   OH212817   4.959   4.127   3.289
 4311TIP3    H112818   4.973   4.033   3.299
 4311TIP3    H212819   4.873   4.134   3.246
 4312TIP3   OH212820   4.946   3.720   1.480
 4312TIP3    H112821   4.996   3.695   1.557
 4312TIP3    H212822   5.011   3.733   1.411
 4313TIP3   OH212823   5.568   4.182   3.065
 4313TIP3    H112824   5.531   4.211   2.982
 4313TIP3    H212825   5.606   4.097   3.046
 4314TIP3   OH212826   5.534   3.940   1.322
 4314TIP3    H112827   5.507   3.951   1.413
 4314TIP3    H212828   5.512   3.849   1.301
 4315TIP3   OH212829   6.055   4.248   2.684
 4315TIP3    H112830   6.132   4.272   2.633
 4315TIP3    H212831   5.989   4.313   2.658
 4316TIP3   OH212832   5.068   3.869   3.294
 4316TIP3    H112833   5.141   3.850   3.236
 4316TIP3    H212834   5.109   3.885   3.380
 4317TIP3   OH212835   5.118   3.662   1.692
 4317TIP3    H112836   5.100   3.631   1.781
 4317TIP3    H212837   5.169   3.591   1.652
 4318TIP3   OH212838   5.437   3.746   2.954
 4318TIP3    H112839   5.351   3.786   2.965
 4318TIP3    H212840   5.466   3.774   2.868
 4319TIP3   OH212841   5.264   3.480   1.540
 4319TIP3    H112842   5.235   3.484   1.449
 4319TIP3    H212843   5.360   3.489   1.534
 4320TIP3   OH212844   5.939   4.123   3.020
 4320TIP3    H112845   6.011   4.087   2.968
 4320TIP3    H212846   5.936   4.068   3.098
 4321TIP3   OH212847   6.057   3.763   1.219
 4321TIP3    H112848   6.044   3.723   1.133
 4321TIP3    H212849   6.033   3.855   1.206
 4322TIP3   OH212850   5.539   3.513   3.060
 4322TIP3    H112851   5.543   3.443   2.995
 4322TIP3    H212852   5.506   3.589   3.012
 4323TIP3   OH212853   5.548   3.317   2.856
 4323TIP3    H112854   5.576   3.353   2.772
 4323TIP3    H212855   5.458   3.289   2.841
 4324TIP3   OH212856   5.546   3.843   2.725
 4324TIP3    H112857   5.635   3.871   2.708
 4324TIP3    H212858   5.491   3.903   2.675
 4325TIP3   OH212859   6.146   3.798   3.101
 4325TIP3    H112860   6.177   3.707   3.108
 4325TIP3    H212861   6.225   3.849   3.084
 4326TIP3   OH212862   6.176   4.068   2.846
 4326TIP3    H112863   6.125   4.131   2.795
 4326TIP3    H212864   6.266   4.080   2.816
 4327TIP3   OH212865   5.426   3.595   3.304
 4327TIP3    H112866   5.356   3.532   3.324
 4327TIP3    H212867   5.454   3.573   3.216
 4328TIP3   OH212868   5.670   3.087   2.960
 4328TIP3    H112869   5.629   3.167   2.926
 4328TIP3    H212870   5.604   3.019   2.946
 4329TIP3   OH212871   5.797   3.552   3.162
 4329TIP3    H112872   5.787   3.540   3.256
 4329TIP3    H212873   5.710   3.531   3.126
 4330TIP3   OH212874   6.047   3.514   3.038
 4330TIP3    H112875   5.967   3.510   3.090
 4330TIP3    H212876   6.117   3.484   3.096
 4331TIP3   OH212877   6.278   3.471   3.187
 4331TIP3    H112878   6.293   3.377   3.193
 4331TIP3    H212879   6.275   3.500   3.278
 4332TIP3   OH212880   5.255   3.378   3.367
 4332TIP3    H112881   5.262   3.291   3.329
 4332TIP3    H212882   5.295   3.370   3.454
 4333TIP3   OH212883   5.734   3.061   3.225
 4333TIP3    H112884   5.803   2.994   3.219
 4333TIP3    H212885   5.705   3.074   3.135
 4334TIP3   OH212886   5.833   3.274   3.371
 4334TIP3    H112887   5.803   3.202   3.315
 4334TIP3    H212888   5.760   3.336   3.371
 4335TIP3   OH212889   5.087   4.527   1.477
 4335TIP3    H112890   5.177   4.506   1.449
 4335TIP3    H212891   5.049   4.572   1.401
 4336TIP3   OH212892   4.551   3.908   1.656
 4336TIP3    H112893   4.646   3.920   1.650
 4336TIP3    H212894   4.535   3.823   1.615
 4337TIP3   OH212895   4.455   4.489   2.115
 4337TIP3    H112896   4.390   4.436   2.069
 4337TIP3    H212897   4.500   4.428   2.173
 4338TIP3   OH212898   4.600   4.319   2.281
 4338TIP3    H112899   4.592   4.253   2.349
 4338TIP3    H212900   4.651   4.389   2.321
 4339TIP3   OH212901   6.339   4.724   2.091
 4339TIP3    H112902   6.358   4.755   2.179
 4339TIP3    H212903   6.394   4.777   2.034
 4340TIP3   OH212904   6.350   4.762   2.374
 4340TIP3    H112905   6.305   4.678   2.365
 4340TIP3    H212906   6.420   4.746   2.437
 4341TIP3   OH212907   6.401   4.463   2.955
 4341TIP3    H112908   6.332   4.476   3.020
 4341TIP3    H212909   6.449   4.546   2.954
 4342TIP3   OH212910   6.227   3.979   1.553
 4342TIP3    H112911   6.285   4.047   1.520
 4342TIP3    H212912   6.275   3.939   1.625
 4343TIP3   OH212913   6.362   3.836   1.751
 4343TIP3    H112914   6.295   3.798   1.808
 4343TIP3    H212915   6.427   3.872   1.811
 4344TIP3   OH212916   6.406   4.235   2.188
 4344TIP3    H112917   6.458   4.167   2.147
 4344TIP3    H212918   6.409   4.308   2.126
 4345TIP3   OH212919   6.211   4.521   2.374
 4345TIP3    H112920   6.144   4.566   2.426
 4345TIP3    H212921   6.162   4.480   2.302
 4346TIP3   OH212922   6.265   3.752   1.399
 4346TIP3    H112923   6.195   3.750   1.334
 4346TIP3    H212924   6.248   3.830   1.450
 4347TIP3   OH212925   6.113   3.398   1.337
 4347TIP3    H112926   6.068   3.434   1.260
 4347TIP3    H212927   6.107   3.303   1.326
 4348TIP3   OH212928   6.155   3.697   1.885
 4348TIP3    H112929   6.160   3.602   1.871
 4348TIP3    H212930   6.136   3.706   1.979
 4349TIP3   OH212931   4.773   3.754   2.665
 4349TIP3    H112932   4.764   3.725   2.574
 4349TIP3    H212933   4.867   3.750   2.682
 4350TIP3   OH212934   6.435   4.111   2.753
 4350TIP3    H112935   6.500   4.043   2.737
 4350TIP3    H212936   6.456   4.180   2.690
 4351TIP3   OH212937   6.610   3.898   2.743
 4351TIP3    H112938   6.537   3.857   2.788
 4351TIP3    H212939   6.685   3.842   2.763
 4352TIP3   OH212940   6.080   3.126   1.306
 4352TIP3    H112941   6.145   3.101   1.371
 4352TIP3    H212942   5.998   3.089   1.338
 4353TIP3   OH212943   6.147   3.418   1.774
 4353TIP3    H112944   6.193   3.336   1.787
 4353TIP3    H212945   6.187   3.457   1.696
 4354TIP3   OH212946   6.300   3.584   2.299
 4354TIP3    H112947   6.380   3.601   2.249
 4354TIP3    H212948   6.316   3.623   2.384
 4355TIP3   OH212949   6.376   3.732   2.527
 4355TIP3    H112950   6.303   3.760   2.583
 4355TIP3    H212951   6.407   3.812   2.485
 4356TIP3   OH212952   4.990   3.434   3.303
 4356TIP3    H112953   5.084   3.431   3.321
 4356TIP3    H212954   4.956   3.353   3.341
 4357TIP3   OH212955   6.835   3.330   3.063
 4357TIP3    H112956   6.902   3.275   3.022
 4357TIP3    H212957   6.797   3.380   2.990
 4358TIP3   OH212958   6.264   3.170   1.827
 4358TIP3    H112959   6.309   3.154   1.909
 4358TIP3    H212960   6.201   3.097   1.820
 4359TIP3   OH212961   4.970   3.153   2.660
 4359TIP3    H112962   5.023   3.073   2.663
 4359TIP3    H212963   5.032   3.222   2.639
 4360TIP3   OH212964   4.746   3.418   2.710
 4360TIP3    H112965   4.799   3.405   2.631
 4360TIP3    H212966   4.771   3.505   2.742
 4361TIP3   OH212967   6.684   3.443   2.864
 4361TIP3    H112968   6.599   3.482   2.881
 4361TIP3    H212969   6.664   3.364   2.812
 4362TIP3   OH212970   6.305   3.080   1.464
 4362TIP3    H112971   6.354   3.020   1.408
 4362TIP3    H212972   6.360   3.158   1.468
 4363TIP3   OH212973   4.737   2.928   2.215
 4363TIP3    H112974   4.651   2.916   2.257
 4363TIP3    H212975   4.718   2.981   2.138
 4364TIP3   OH212976   5.894   4.645   1.735
 4364TIP3    H112977   5.950   4.633   1.658
 4364TIP3    H212978   5.937   4.714   1.785
 4365TIP3   OH212979   4.969   2.988   3.046
 4365TIP3    H112980   4.915   2.976   3.124
 4365TIP3    H212981   4.911   3.033   2.984
 4366TIP3   OH212982   5.012   4.441   3.129
 4366TIP3    H112983   4.920   4.438   3.102
 4366TIP3    H212984   5.012   4.409   3.219
 4367TIP3   OH212985   5.210   4.494   2.675
 4367TIP3    H112986   5.157   4.566   2.642
 4367TIP3    H212987   5.292   4.500   2.625
 4368TIP3   OH212988   5.688   4.708   2.826
 4368TIP3    H112989   5.772   4.663   2.838
 4368TIP3    H212990   5.705   4.774   2.759
 4369TIP3   OH212991   5.795   4.893   2.657
 4369TIP3    H112992   5.852   4.854   2.591
 4369TIP3    H212993   5.853   4.944   2.712
 4370TIP3   OH212994   6.600   3.196   2.760
 4370TIP3    H112995   6.514   3.190   2.718
 4370TIP3    H212996   6.635   3.107   2.754
 4371TIP3   OH212997   4.860   4.708   2.714
 4371TIP3    H112998   4.770   4.725   2.684
 4371TIP3    H212999   4.875   4.774   2.782
 4372TIP3   OH213000   5.095   4.719   2.569
 4372TIP3    H113001   5.010   4.720   2.614
 4372TIP3    H213002   5.075   4.745   2.479
 4373TIP3   OH213003   5.503   4.733   2.351
 4373TIP3    H113004   5.431   4.741   2.288
 4373TIP3    H213005   5.512   4.820   2.389
 4374TIP3   OH213006   5.766   4.673   2.409
 4374TIP3    H113007   5.675   4.691   2.384
 4374TIP3    H213008   5.818   4.733   2.357
 4375TIP3   OH213009   5.968   4.832   2.301
 4375TIP3    H113010   5.973   4.920   2.264
 4375TIP3    H213011   5.999   4.775   2.231
 4376TIP3   OH213012   4.771   4.502   2.418
 4376TIP3    H113013   4.793   4.480   2.508
 4376TIP3    H213014   4.844   4.469   2.366
 4377TIP3   OH213015   4.976   4.385   2.284
 4377TIP3    H113016   4.988   4.301   2.328
 4377TIP3    H213017   5.062   4.427   2.288
 4378TIP3   OH213018   5.243   4.472   2.312
 4378TIP3    H113019   5.264   4.380   2.295
 4378TIP3    H213020   5.297   4.496   2.387
 4379TIP3   OH213021   5.805   3.119   2.398
 4379TIP3    H113022   5.765   3.048   2.448
 4379TIP3    H213023   5.873   3.077   2.347
 4380TIP3   OH213024   6.308   3.041   2.288
 4380TIP3    H113025   6.344   3.089   2.213
 4380TIP3    H213026   6.215   3.062   2.287
 4381TIP3   OH213027   6.421   3.115   2.049
 4381TIP3    H113028   6.489   3.054   2.022
 4381TIP3    H213029   6.461   3.202   2.036
 4382TIP3   OH213030   5.044   2.823   2.396
 4382TIP3    H113031   4.955   2.789   2.406
 4382TIP3    H213032   5.098   2.744   2.387
 4383TIP3   OH213033   4.868   2.734   2.052
 4383TIP3    H113034   4.894   2.781   1.972
 4383TIP3    H213035   4.831   2.801   2.109
 4384TIP3   OH213036   5.526   2.861   2.293
 4384TIP3    H113037   5.573   2.906   2.223
 4384TIP3    H213038   5.568   2.890   2.374
 4385TIP3   OH213039   6.019   2.999   2.270
 4385TIP3    H113040   6.037   2.963   2.183
 4385TIP3    H213041   6.027   2.923   2.329
 4386TIP3   OH213042   6.078   2.958   1.835
 4386TIP3    H113043   5.999   3.005   1.860
 4386TIP3    H213044   6.068   2.871   1.873
 4387TIP3   OH213045   4.532   4.303   1.817
 4387TIP3    H113046   4.449   4.270   1.782
 4387TIP3    H213047   4.539   4.392   1.782
 4388TIP3   OH213048   4.974   2.859   1.812
 4388TIP3    H113049   5.020   2.799   1.754
 4388TIP3    H213050   5.042   2.916   1.847
 4389TIP3   OH213051   5.455   3.056   1.909
 4389TIP3    H113052   5.515   3.003   1.962
 4389TIP3    H213053   5.471   3.146   1.938
 4390TIP3   OH213054   5.342   4.452   1.407
 4390TIP3    H113055   5.425   4.479   1.368
 4390TIP3    H213056   5.311   4.382   1.349
 4391TIP3   OH213057   6.045   4.596   1.506
 4391TIP3    H113058   6.041   4.501   1.498
 4391TIP3    H213059   6.002   4.629   1.428
 4392TIP3   OH213060   5.274   3.109   3.277
 4392TIP3    H113061   5.240   3.043   3.337
 4392TIP3    H213062   5.367   3.118   3.300
 4393TIP3   OH213063   5.521   3.114   3.401
 4393TIP3    H113064   5.597   3.093   3.348
 4393TIP3    H213065   5.516   3.045   3.466
 4394TIP3   OH213066   4.655   4.300   1.461
 4394TIP3    H113067   4.659   4.312   1.556
 4394TIP3    H213068   4.735   4.251   1.441
 4395TIP3   OH213069   6.343   3.201   3.187
 4395TIP3    H113070   6.360   3.171   3.276
 4395TIP3    H213071   6.428   3.196   3.143
 4396TIP3   OH213072   6.252   4.734   2.701
 4396TIP3    H113073   6.181   4.705   2.642
 4396TIP3    H213074   6.244   4.829   2.702
 4397TIP3   OH213075   7.536   4.118   1.432
 4397TIP3    H113076   7.504   4.206   1.409
 4397TIP3    H213077   7.466   4.059   1.406
 4398TIP3   OH213078   7.534   4.114   1.858
 4398TIP3    H113079   7.588   4.097   1.935
 4398TIP3    H213080   7.490   4.030   1.841
 4399TIP3   OH213081   6.833   3.971   2.202
 4399TIP3    H113082   6.873   3.920   2.272
 4399TIP3    H213083   6.906   3.997   2.146
 4400TIP3   OH213084   7.810   4.419   1.532
 4400TIP3    H113085   7.795   4.352   1.598
 4400TIP3    H213086   7.829   4.499   1.582
 4401TIP3   OH213087   6.826   4.399   1.882
 4401TIP3    H113088   6.807   4.305   1.889
 4401TIP3    H213089   6.921   4.404   1.876
 4402TIP3   OH213090   6.507   3.606   1.670
 4402TIP3    H113091   6.470   3.691   1.693
 4402TIP3    H213092   6.434   3.558   1.629
 4403TIP3   OH213093   6.590   3.921   1.895
 4403TIP3    H113094   6.640   3.843   1.919
 4403TIP3    H213095   6.656   3.986   1.871
 4404TIP3   OH213096   7.464   4.846   1.550
 4404TIP3    H113097   7.491   4.783   1.483
 4404TIP3    H213098   7.477   4.799   1.633
 4405TIP3   OH213099   7.344   4.335   1.861
 4405TIP3    H113100   7.389   4.255   1.834
 4405TIP3    H213101   7.413   4.393   1.892
 4406TIP3   OH213102   8.377   3.647   1.880
 4406TIP3    H113103   8.389   3.734   1.919
 4406TIP3    H213104   8.410   3.657   1.791
 4407TIP3   OH213105   7.746   3.822   1.897
 4407TIP3    H113106   7.778   3.737   1.925
 4407TIP3    H213107   7.709   3.807   1.810
 4408TIP3   OH213108   7.101   3.479   1.854
 4408TIP3    H113109   7.081   3.553   1.796
 4408TIP3    H213110   7.046   3.408   1.822
 4409TIP3   OH213111   7.799   3.590   1.495
 4409TIP3    H113112   7.864   3.583   1.565
 4409TIP3    H213113   7.848   3.626   1.421
 4410TIP3   OH213114   6.728   3.696   1.984
 4410TIP3    H113115   6.812   3.679   2.027
 4410TIP3    H213116   6.731   3.646   1.903
 4411TIP3   OH213117   7.146   3.896   1.803
 4411TIP3    H113118   7.241   3.882   1.808
 4411TIP3    H213119   7.112   3.814   1.768
 4412TIP3   OH213120   8.421   3.868   2.045
 4412TIP3    H113121   8.336   3.911   2.034
 4412TIP3    H213122   8.459   3.908   2.124
 4413TIP3   OH213123   7.086   3.486   2.305
 4413TIP3    H113124   7.037   3.522   2.232
 4413TIP3    H213125   7.031   3.503   2.382
 4414TIP3   OH213126   7.411   4.328   1.308
 4414TIP3    H113127   7.382   4.310   1.218
 4414TIP3    H213128   7.367   4.410   1.331
 4415TIP3   OH213129   7.175   4.261   2.068
 4415TIP3    H113130   7.124   4.334   2.102
 4415TIP3    H213131   7.226   4.298   1.997
 4416TIP3   OH213132   7.956   3.612   1.718
 4416TIP3    H113133   7.913   3.592   1.801
 4416TIP3    H213134   8.014   3.686   1.737
 4417TIP3   OH213135   6.976   3.593   2.075
 4417TIP3    H113136   7.031   3.668   2.097
 4417TIP3    H213137   7.021   3.550   2.003
 4418TIP3   OH213138   7.024   4.466   2.176
 4418TIP3    H113139   7.011   4.556   2.145
 4418TIP3    H213140   6.946   4.448   2.228
 4419TIP3   OH213141   6.399   4.166   1.431
 4419TIP3    H113142   6.365   4.190   1.345
 4419TIP3    H213143   6.424   4.249   1.471
 4420TIP3   OH213144   7.837   4.661   1.678
 4420TIP3    H113145   7.748   4.656   1.712
 4420TIP3    H213146   7.840   4.745   1.631
 4421TIP3   OH213147   8.185   3.536   2.052
 4421TIP3    H113148   8.099   3.557   2.016
 4421TIP3    H213149   8.247   3.563   1.984
 4422TIP3   OH213150   7.427   3.176   2.043
 4422TIP3    H113151   7.420   3.084   2.069
 4422TIP3    H213152   7.349   3.217   2.081
 4423TIP3   OH213153   7.544   4.694   1.333
 4423TIP3    H113154   7.600   4.617   1.324
 4423TIP3    H213155   7.596   4.766   1.297
 4424TIP3   OH213156   7.703   4.481   1.286
 4424TIP3    H113157   7.696   4.401   1.234
 4424TIP3    H213158   7.744   4.453   1.367
 4425TIP3   OH213159   8.071   4.556   2.013
 4425TIP3    H113160   8.052   4.482   1.956
 4425TIP3    H213161   8.058   4.633   1.958
 4426TIP3   OH213162   7.361   3.959   1.284
 4426TIP3    H113163   7.280   4.006   1.262
 4426TIP3    H213164   7.409   3.957   1.201
 4427TIP3   OH213165   7.335   3.772   0.966
 4427TIP3    H113166   7.401   3.821   1.015
 4427TIP3    H213167   7.384   3.704   0.920
 4428TIP3   OH213168   8.249   4.218   1.888
 4428TIP3    H113169   8.164   4.263   1.884
 4428TIP3    H213170   8.285   4.228   1.800
 4429TIP3   OH213171   7.722   4.054   1.243
 4429TIP3    H113172   7.666   4.079   1.317
 4429TIP3    H213173   7.805   4.027   1.282
 4430TIP3   OH213174   7.951   4.076   2.195
 4430TIP3    H113175   7.947   4.161   2.240
 4430TIP3    H213176   7.870   4.073   2.144
 4431TIP3   OH213177   6.949   4.027   1.648
 4431TIP3    H113178   6.914   3.966   1.583
 4431TIP3    H213179   7.022   3.981   1.688
 4432TIP3   OH213180   7.090   4.450   1.793
 4432TIP3    H113181   7.066   4.436   1.702
 4432TIP3    H213182   7.178   4.413   1.801
 4433TIP3   OH213183   7.043   4.025   2.024
 4433TIP3    H113184   7.082   3.988   1.945
 4433TIP3    H213185   7.091   4.106   2.040
 4434TIP3   OH213186   7.591   4.662   1.797
 4434TIP3    H113187   7.581   4.742   1.849
 4434TIP3    H213188   7.579   4.591   1.859
 4435TIP3   OH213189   7.221   4.561   2.347
 4435TIP3    H113190   7.159   4.618   2.394
 4435TIP3    H213191   7.167   4.510   2.287
 4436TIP3   OH213192   7.549   3.918   1.077
 4436TIP3    H113193   7.610   3.974   1.125
 4436TIP3    H213194   7.575   3.927   0.985
 4437TIP3   OH213195   6.976   4.108   2.496
 4437TIP3    H113196   6.979   4.202   2.510
 4437TIP3    H213197   6.882   4.088   2.486
 4438TIP3   OH213198   7.292   4.579   1.346
 4438TIP3    H113199   7.377   4.623   1.356
 4438TIP3    H213200   7.236   4.644   1.303
 4439TIP3   OH213201   7.008   4.718   2.431
 4439TIP3    H113202   6.988   4.731   2.339
 4439TIP3    H213203   6.922   4.708   2.473
 4440TIP3   OH213204   8.055   3.148   1.166
 4440TIP3    H113205   7.974   3.172   1.211
 4440TIP3    H213206   8.075   3.223   1.110
 4441TIP3   OH213207   6.826   3.869   1.447
 4441TIP3    H113208   6.748   3.917   1.419
 4441TIP3    H213209   6.795   3.779   1.460
 4442TIP3   OH213210   7.878   4.489   0.701
 4442TIP3    H113211   7.882   4.582   0.677
 4442TIP3    H213212   7.968   4.458   0.691
 4443TIP3   OH213213   6.607   4.279   2.382
 4443TIP3    H113214   6.538   4.260   2.318
 4443TIP3    H213215   6.642   4.193   2.406
 4444TIP3   OH213216   6.452   4.469   2.035
 4444TIP3    H113217   6.545   4.489   2.047
 4444TIP3    H213218   6.406   4.547   2.066
 4445TIP3   OH213219   8.301   4.918   2.085
 4445TIP3    H113220   8.306   4.823   2.099
 4445TIP3    H213221   8.222   4.945   2.132
 4446TIP3   OH213222   7.411   4.707   2.211
 4446TIP3    H113223   7.401   4.798   2.240
 4446TIP3    H213224   7.344   4.659   2.260
 4447TIP3   OH213225   7.179   4.797   1.184
 4447TIP3    H113226   7.128   4.788   1.104
 4447TIP3    H213227   7.154   4.883   1.219
 4448TIP3   OH213228   6.618   4.657   1.546
 4448TIP3    H113229   6.666   4.650   1.629
 4448TIP3    H213230   6.571   4.574   1.538
 4449TIP3   OH213231   7.376   4.710   0.804
 4449TIP3    H113232   7.431   4.640   0.767
 4449TIP3    H213233   7.405   4.717   0.895
 4450TIP3   OH213234   7.419   4.717   1.079
 4450TIP3    H113235   7.336   4.738   1.121
 4450TIP3    H213236   7.472   4.678   1.148
 4451TIP3   OH213237   8.192   4.038   2.358
 4451TIP3    H113238   8.110   4.047   2.309
 4451TIP3    H213239   8.213   3.945   2.352
 4452TIP3   OH213240   6.807   4.467   2.348
 4452TIP3    H113241   6.858   4.452   2.427
 4452TIP3    H213242   6.734   4.405   2.354
 4453TIP3   OH213243   7.188   3.267   2.165
 4453TIP3    H113244   7.104   3.234   2.132
 4453TIP3    H213245   7.166   3.349   2.209
 4454TIP3   OH213246   7.732   3.392   2.366
 4454TIP3    H113247   7.802   3.368   2.428
 4454TIP3    H213248   7.652   3.377   2.415
 4455TIP3   OH213249   7.952   3.808   2.278
 4455TIP3    H113250   7.914   3.805   2.366
 4455TIP3    H213251   7.939   3.899   2.250
 4456TIP3   OH213252   7.621   3.927   0.816
 4456TIP3    H113253   7.580   3.917   0.730
 4456TIP3    H213254   7.710   3.958   0.797
 4457TIP3   OH213255   7.335   3.315   1.142
 4457TIP3    H113256   7.296   3.317   1.229
 4457TIP3    H213257   7.300   3.236   1.101
 4458TIP3   OH213258   7.128   3.804   2.170
 4458TIP3    H113259   7.084   3.811   2.255
 4458TIP3    H213260   7.107   3.885   2.125
 4459TIP3   OH213261   7.007   3.681   1.693
 4459TIP3    H113262   6.917   3.657   1.718
 4459TIP3    H213263   7.016   3.649   1.603
 4460TIP3   OH213264   7.483   3.757   1.423
 4460TIP3    H113265   7.435   3.830   1.383
 4460TIP3    H213266   7.545   3.729   1.355
 4461TIP3   OH213267   7.675   4.020   2.491
 4461TIP3    H113268   7.649   3.953   2.554
 4461TIP3    H213269   7.767   4.038   2.511
 4462TIP3   OH213270   7.650   3.770   1.647
 4462TIP3    H113271   7.582   3.792   1.582
 4462TIP3    H213272   7.699   3.699   1.607
 4463TIP3   OH213273   6.969   3.817   2.395
 4463TIP3    H113274   6.987   3.880   2.465
 4463TIP3    H213275   6.951   3.735   2.440
 4464TIP3   OH213276   7.004   3.292   1.114
 4464TIP3    H113277   6.994   3.297   1.209
 4464TIP3    H213278   6.926   3.335   1.079
 4465TIP3   OH213279   6.556   3.336   1.976
 4465TIP3    H113280   6.628   3.373   2.028
 4465TIP3    H213281   6.594   3.322   1.889
 4466TIP3   OH213282   6.455   3.314   1.475
 4466TIP3    H113283   6.501   3.349   1.399
 4466TIP3    H213284   6.392   3.382   1.499
 4467TIP3   OH213285   7.701   4.025   2.071
 4467TIP3    H113286   7.725   3.958   2.006
 4467TIP3    H213287   7.656   3.976   2.140
 4468TIP3   OH213288   7.368   3.473   1.747
 4468TIP3    H113289   7.290   3.473   1.803
 4468TIP3    H213290   7.441   3.465   1.808
 4469TIP3   OH213291   6.767   3.556   1.752
 4469TIP3    H113292   6.679   3.561   1.714
 4469TIP3    H213293   6.796   3.466   1.735
 4470TIP3   OH213294   7.020   3.560   1.446
 4470TIP3    H113295   7.114   3.571   1.438
 4470TIP3    H213296   6.985   3.578   1.359
 4471TIP3   OH213297   7.814   3.559   1.954
 4471TIP3    H113298   7.795   3.576   2.046
 4471TIP3    H213299   7.745   3.499   1.926
 4472TIP3   OH213300   6.911   3.583   1.196
 4472TIP3    H113301   6.848   3.534   1.143
 4472TIP3    H213302   6.966   3.629   1.133
 4473TIP3   OH213303   8.016   5.265   2.172
 4473TIP3    H113304   8.012   5.281   2.078
 4473TIP3    H213305   8.095   5.310   2.200
 4474TIP3   OH213306   6.957   4.377   2.582
 4474TIP3    H113307   7.038   4.396   2.628
 4474TIP3    H213308   6.888   4.386   2.648
 4475TIP3   OH213309   7.420   3.844   1.850
 4475TIP3    H113310   7.487   3.798   1.799
 4475TIP3    H213311   7.420   3.802   1.935
 4476TIP3   OH213312   6.908   3.307   1.736
 4476TIP3    H113313   6.881   3.231   1.788
 4476TIP3    H213314   6.927   3.271   1.650
 4477TIP3   OH213315   7.394   3.744   2.114
 4477TIP3    H113316   7.308   3.778   2.137
 4477TIP3    H213317   7.455   3.797   2.167
 4478TIP3   OH213318   7.126   4.097   1.222
 4478TIP3    H113319   7.052   4.041   1.199
 4478TIP3    H213320   7.101   4.137   1.305
 4479TIP3   OH213321   8.013   4.353   1.836
 4479TIP3    H113322   8.050   4.400   1.762
 4479TIP3    H213323   7.935   4.311   1.801
 4480TIP3   OH213324   7.583   3.429   1.154
 4480TIP3    H113325   7.489   3.409   1.149
 4480TIP3    H213326   7.587   3.524   1.164
 4481TIP3   OH213327   7.536   4.438   2.250
 4481TIP3    H113328   7.592   4.428   2.327
 4481TIP3    H213329   7.501   4.527   2.257
 4482TIP3   OH213330   7.650   3.692   1.210
 4482TIP3    H113331   7.746   3.694   1.215
 4482TIP3    H213332   7.628   3.766   1.153
 4483TIP3   OH213333   6.813   4.108   1.875
 4483TIP3    H113334   6.852   4.091   1.789
 4483TIP3    H213335   6.881   4.081   1.937
 4484TIP3   OH213336   7.284   4.254   1.065
 4484TIP3    H113337   7.238   4.338   1.064
 4484TIP3    H213338   7.230   4.197   1.118
 4485TIP3   OH213339   6.699   4.047   2.515
 4485TIP3    H113340   6.705   4.021   2.607
 4485TIP3    H213341   6.624   3.998   2.480
 4486TIP3   OH213342   7.444   4.178   2.533
 4486TIP3    H113343   7.376   4.118   2.504
 4486TIP3    H213344   7.526   4.137   2.503
 4487TIP3   OH213345   7.681   4.725   2.137
 4487TIP3    H113346   7.586   4.715   2.139
 4487TIP3    H213347   7.702   4.763   2.222
 4488TIP3   OH213348   8.065   3.780   1.024
 4488TIP3    H113349   7.994   3.744   0.972
 4488TIP3    H213350   8.078   3.869   0.991
 4489TIP3   OH213351   8.315   4.637   2.106
 4489TIP3    H113352   8.221   4.623   2.099
 4489TIP3    H213353   8.350   4.610   2.021
 4490TIP3   OH213354   7.810   4.556   0.967
 4490TIP3    H113355   7.781   4.481   1.020
 4490TIP3    H213356   7.825   4.519   0.880
 4491TIP3   OH213357   7.787   4.217   1.731
 4491TIP3    H113358   7.697   4.196   1.756
 4491TIP3    H213359   7.822   4.136   1.694
 4492TIP3   OH213360   6.946   4.448   1.554
 4492TIP3    H113361   6.940   4.525   1.497
 4492TIP3    H213362   6.856   4.435   1.585
 4493TIP3   OH213363   6.506   3.739   1.262
 4493TIP3    H113364   6.548   3.822   1.284
 4493TIP3    H213365   6.424   3.740   1.312
 4494TIP3   OH213366   7.022   4.207   1.445
 4494TIP3    H113367   7.011   4.296   1.478
 4494TIP3    H213368   6.999   4.151   1.519
 4495TIP3   OH213369   7.229   4.777   2.003
 4495TIP3    H113370   7.264   4.851   1.953
 4495TIP3    H213371   7.304   4.744   2.053
 4496TIP3   OH213372   6.854   4.669   1.408
 4496TIP3    H113373   6.766   4.673   1.444
 4496TIP3    H213374   6.889   4.758   1.419
 4497TIP3   OH213375   7.574   4.444   1.975
 4497TIP3    H113376   7.561   4.439   2.069
 4497TIP3    H213377   7.655   4.395   1.959
 4498TIP3   OH213378   7.574   4.306   0.857
 4498TIP3    H113379   7.624   4.296   0.938
 4498TIP3    H213380   7.487   4.273   0.877
 4499TIP3   OH213381   7.835   4.930   2.021
 4499TIP3    H113382   7.766   4.866   2.041
 4499TIP3    H213383   7.800   4.981   1.948
 4500TIP3   OH213384   7.911   4.754   0.645
 4500TIP3    H113385   7.938   4.800   0.565
 4500TIP3    H213386   7.829   4.796   0.670
 4501TIP3   OH213387   6.915   3.563   2.512
 4501TIP3    H113388   6.819   3.571   2.516
 4501TIP3    H213389   6.937   3.509   2.588
 4502TIP3   OH213390   7.747   4.272   1.075
 4502TIP3    H113391   7.727   4.197   1.131
 4502TIP3    H213392   7.840   4.265   1.056
 4503TIP3   OH213393   6.656   4.679   2.164
 4503TIP3    H113394   6.708   4.620   2.218
 4503TIP3    H213395   6.671   4.766   2.201
 4504TIP3   OH213396   6.919   4.280   0.864
 4504TIP3    H113397   6.930   4.190   0.833
 4504TIP3    H213398   6.908   4.271   0.959
 4505TIP3   OH213399   6.870   4.289   1.138
 4505TIP3    H113400   6.935   4.258   1.201
 4505TIP3    H213401   6.872   4.384   1.146
 4506TIP3   OH213402   6.598   3.990   1.342
 4506TIP3    H113403   6.532   4.038   1.393
 4506TIP3    H213404   6.619   4.047   1.268
 4507TIP3   OH213405   7.758   3.622   2.215
 4507TIP3    H113406   7.836   3.667   2.245
 4507TIP3    H213407   7.751   3.545   2.273
 4508TIP3   OH213408   7.644   3.374   1.417
 4508TIP3    H113409   7.624   3.392   1.325
 4508TIP3    H213410   7.688   3.453   1.448
 4509TIP3   OH213411   7.140   4.482   1.071
 4509TIP3    H113412   7.057   4.504   1.115
 4509TIP3    H213413   7.160   4.559   1.018
 4510TIP3   OH213414   7.298   3.566   1.493
 4510TIP3    H113415   7.360   3.634   1.466
 4510TIP3    H213416   7.322   3.546   1.584
 4511TIP3   OH213417   7.599   3.858   2.266
 4511TIP3    H113418   7.626   3.901   2.347
 4511TIP3    H213419   7.650   3.777   2.265
 4512TIP3   OH213420   7.459   3.263   1.588
 4512TIP3    H113421   7.434   3.340   1.640
 4512TIP3    H213422   7.530   3.294   1.532
 4513TIP3   OH213423   6.891   4.560   1.162
 4513TIP3    H113424   6.864   4.631   1.103
 4513TIP3    H213425   6.879   4.596   1.250
 4514TIP3   OH213426   6.975   3.286   1.393
 4514TIP3    H113427   6.964   3.378   1.419
 4514TIP3    H213428   7.069   3.270   1.400
 4515TIP3   OH213429   8.220   3.770   2.267
 4515TIP3    H113430   8.125   3.768   2.274
 4515TIP3    H213431   8.240   3.730   2.182
 4516TIP3   OH213432   7.879   3.960   1.645
 4516TIP3    H113433   7.803   3.903   1.658
 4516TIP3    H213434   7.948   3.921   1.699
 4517TIP3   OH213435   6.623   4.164   1.125
 4517TIP3    H113436   6.697   4.224   1.136
 4517TIP3    H213437   6.653   4.101   1.059
 4518TIP3   OH213438   6.525   3.461   1.255
 4518TIP3    H113439   6.539   3.555   1.265
 4518TIP3    H213440   6.474   3.453   1.175
 4519TIP3   OH213441   7.858   4.923   1.591
 4519TIP3    H113442   7.814   4.975   1.524
 4519TIP3    H213443   7.951   4.944   1.582
 4520TIP3   OH213444   6.926   3.182   2.124
 4520TIP3    H113445   6.897   3.150   2.039
 4520TIP3    H213446   6.917   3.107   2.182
 4521TIP3   OH213447   6.450   4.430   1.525
 4521TIP3    H113448   6.406   4.467   1.601
 4521TIP3    H213449   6.404   4.467   1.450
 4522TIP3   OH213450   6.661   4.980   2.586
 4522TIP3    H113451   6.741   4.991   2.637
 4522TIP3    H213452   6.659   4.886   2.565
 4523TIP3   OH213453   7.117   4.878   2.628
 4523TIP3    H113454   7.209   4.852   2.636
 4523TIP3    H213455   7.084   4.825   2.555
 4524TIP3   OH213456   7.076   4.482   0.761
 4524TIP3    H113457   7.030   4.409   0.803
 4524TIP3    H213458   7.154   4.441   0.722
 4525TIP3   OH213459   7.736   4.825   2.386
 4525TIP3    H113460   7.750   4.755   2.449
 4525TIP3    H213461   7.810   4.884   2.398
 4526TIP3   OH213462   7.515   4.515   0.682
 4526TIP3    H113463   7.560   4.449   0.736
 4526TIP3    H213464   7.569   4.523   0.604
 4527TIP3   OH213465   6.751   4.376   2.772
 4527TIP3    H113466   6.773   4.284   2.784
 4527TIP3    H213467   6.664   4.376   2.732
 4528TIP3   OH213468   6.743   3.975   0.968
 4528TIP3    H113469   6.795   3.950   1.045
 4528TIP3    H213470   6.807   3.989   0.899
 4529TIP3   OH213471   7.376   4.456   2.551
 4529TIP3    H113472   7.333   4.478   2.468
 4529TIP3    H213473   7.413   4.369   2.536
 4530TIP3   OH213474   7.295   4.198   0.797
 4530TIP3    H113475   7.282   4.207   0.892
 4530TIP3    H213476   7.284   4.105   0.780
 4531TIP3   OH213477   7.847   4.501   2.166
 4531TIP3    H113478   7.925   4.528   2.117
 4531TIP3    H213479   7.784   4.573   2.151
 4532TIP3   OH213480   6.866   4.122   2.779
 4532TIP3    H113481   6.941   4.108   2.721
 4532TIP3    H213482   6.906   4.139   2.865
 4533TIP3   OH213483   6.918   3.918   1.179
 4533TIP3    H113484   6.899   3.888   1.268
 4533TIP3    H213485   6.968   3.847   1.140
 4534TIP3   OH213486   7.233   4.001   2.440
 4534TIP3    H113487   7.149   4.045   2.452
 4534TIP3    H213488   7.264   4.031   2.355
 4535TIP3   OH213489   7.064   3.737   1.027
 4535TIP3    H113490   7.032   3.741   0.937
 4535TIP3    H213491   7.159   3.745   1.019
 4536TIP3   OH213492   7.731   4.375   2.514
 4536TIP3    H113493   7.801   4.339   2.460
 4536TIP3    H213494   7.730   4.319   2.592
 4537TIP3   OH213495   7.857   4.020   0.705
 4537TIP3    H113496   7.842   3.973   0.623
 4537TIP3    H213497   7.828   4.110   0.688
 4538TIP3   OH213498   7.336   3.769   2.547
 4538TIP3    H113499   7.341   3.700   2.481
 4538TIP3    H213500   7.303   3.845   2.499
 4539TIP3   OH213501   7.346   3.572   2.342
 4539TIP3    H113502   7.374   3.610   2.258
 4539TIP3    H213503   7.255   3.545   2.327
 4540TIP3   OH213504   7.346   4.103   2.216
 4540TIP3    H113505   7.434   4.139   2.205
 4540TIP3    H213506   7.290   4.161   2.164
 4541TIP3   OH213507   7.943   4.061   2.590
 4541TIP3    H113508   7.991   3.978   2.594
 4541TIP3    H213509   8.011   4.128   2.581
 4542TIP3   OH213510   7.968   4.324   2.331
 4542TIP3    H113511   7.915   4.385   2.280
 4542TIP3    H213512   8.057   4.338   2.300
 4543TIP3   OH213513   7.221   3.850   2.790
 4543TIP3    H113514   7.152   3.787   2.809
 4543TIP3    H213515   7.251   3.828   2.701
 4544TIP3   OH213516   7.467   3.343   2.446
 4544TIP3    H113517   7.427   3.423   2.412
 4544TIP3    H213518   7.400   3.275   2.433
 4545TIP3   OH213519   7.594   3.810   2.648
 4545TIP3    H113520   7.584   3.797   2.743
 4545TIP3    H213521   7.507   3.788   2.613
 4546TIP3   OH213522   7.841   3.766   2.520
 4546TIP3    H113523   7.762   3.766   2.575
 4546TIP3    H213524   7.912   3.744   2.581
 4547TIP3   OH213525   8.074   3.731   2.672
 4547TIP3    H113526   8.088   3.637   2.679
 4547TIP3    H213527   8.069   3.761   2.763
 4548TIP3   OH213528   7.050   3.634   2.854
 4548TIP3    H113529   7.058   3.547   2.817
 4548TIP3    H213530   7.090   3.627   2.941
 4549TIP3   OH213531   7.531   3.316   2.712
 4549TIP3    H113532   7.600   3.250   2.705
 4549TIP3    H213533   7.501   3.330   2.622
 4550TIP3   OH213534   7.629   3.530   2.857
 4550TIP3    H113535   7.598   3.458   2.802
 4550TIP3    H213536   7.557   3.592   2.858
 4551TIP3   OH213537   6.866   4.769   0.984
 4551TIP3    H113538   6.955   4.750   0.955
 4551TIP3    H213539   6.816   4.780   0.902
 4552TIP3   OH213540   6.349   4.169   1.129
 4552TIP3    H113541   6.445   4.176   1.132
 4552TIP3    H213542   6.334   4.081   1.095
 4553TIP3   OH213543   6.251   4.748   1.603
 4553TIP3    H113544   6.186   4.696   1.558
 4553TIP3    H213545   6.295   4.687   1.662
 4554TIP3   OH213546   6.393   4.578   1.771
 4554TIP3    H113547   6.384   4.510   1.837
 4554TIP3    H213548   6.447   4.645   1.812
 4555TIP3   OH213549   8.116   5.006   1.581
 4555TIP3    H113550   8.147   5.029   1.668
 4555TIP3    H213551   8.192   5.018   1.524
 4556TIP3   OH213552   8.145   5.024   1.863
 4556TIP3    H113553   8.101   4.939   1.854
 4556TIP3    H213554   8.216   5.007   1.926
 4557TIP3   OH213555   8.197   4.711   2.429
 4557TIP3    H113556   8.124   4.719   2.491
 4557TIP3    H213557   8.238   4.797   2.430
 4558TIP3   OH213558   8.018   4.231   1.047
 4558TIP3    H113559   8.079   4.299   1.017
 4558TIP3    H213560   8.065   4.189   1.119
 4559TIP3   OH213561   8.153   4.090   1.242
 4559TIP3    H113562   8.086   4.053   1.300
 4559TIP3    H213563   8.218   4.127   1.302
 4560TIP3   OH213564   8.194   4.484   1.672
 4560TIP3    H113565   8.247   4.412   1.636
 4560TIP3    H213566   8.207   4.556   1.610
 4561TIP3   OH213567   8.010   4.779   1.865
 4561TIP3    H113568   7.943   4.823   1.918
 4561TIP3    H213569   7.960   4.738   1.794
 4562TIP3   OH213570   8.063   4.015   0.884
 4562TIP3    H113571   7.991   4.009   0.822
 4562TIP3    H213572   8.044   4.092   0.937
 4563TIP3   OH213573   7.865   3.700   0.862
 4563TIP3    H113574   7.799   3.716   0.794
 4563TIP3    H213575   7.861   3.606   0.877
 4564TIP3   OH213576   7.947   3.956   1.376
 4564TIP3    H113577   7.950   3.862   1.360
 4564TIP3    H213578   7.928   3.964   1.469
 4565TIP3   OH213579   6.569   4.012   2.153
 4565TIP3    H113580   6.560   3.981   2.063
 4565TIP3    H213581   6.663   4.007   2.170
 4566TIP3   OH213582   8.223   4.369   2.235
 4566TIP3    H113583   8.290   4.303   2.218
 4566TIP3    H213584   8.235   4.434   2.166
 4567TIP3   OH213585   8.401   4.161   2.230
 4567TIP3    H113586   8.327   4.121   2.277
 4567TIP3    H213587   8.475   4.103   2.247
 4568TIP3   OH213588   7.855   3.434   0.894
 4568TIP3    H113589   7.928   3.373   0.902
 4568TIP3    H213590   7.781   3.380   0.867
 4569TIP3   OH213591   7.940   3.687   1.265
 4569TIP3    H113592   7.986   3.604   1.280
 4569TIP3    H213593   7.982   3.724   1.187
 4570TIP3   OH213594   8.096   3.843   1.786
 4570TIP3    H113595   8.176   3.861   1.737
 4570TIP3    H213596   8.110   3.883   1.872
 4571TIP3   OH213597   8.168   3.988   2.016
 4571TIP3    H113598   8.096   4.017   2.073
 4571TIP3    H213599   8.199   4.068   1.974
 4572TIP3   OH213600   6.787   3.689   2.788
 4572TIP3    H113601   6.880   3.687   2.808
 4572TIP3    H213602   6.753   3.608   2.826
 4573TIP3   OH213603   8.636   3.579   2.553
 4573TIP3    H113604   8.693   3.522   2.503
 4573TIP3    H213605   8.593   3.635   2.488
 4574TIP3   OH213606   8.056   3.443   1.333
 4574TIP3    H113607   8.097   3.436   1.420
 4574TIP3    H213608   7.993   3.372   1.330
 4575TIP3   OH213609   6.766   3.409   2.145
 4575TIP3    H113610   6.819   3.330   2.149
 4575TIP3    H213611   6.828   3.479   2.125
 4576TIP3   OH213612   6.543   3.673   2.198
 4576TIP3    H113613   6.595   3.661   2.119
 4576TIP3    H213614   6.572   3.757   2.234
 4577TIP3   OH213615   8.479   3.701   2.368
 4577TIP3    H113616   8.399   3.743   2.401
 4577TIP3    H213617   8.448   3.631   2.311
 4578TIP3   OH213618   8.123   3.341   0.978
 4578TIP3    H113619   8.189   3.294   0.927
 4578TIP3    H213620   8.154   3.432   0.980
 4579TIP3   OH213621   6.532   3.185   1.704
 4579TIP3    H113622   6.447   3.172   1.745
 4579TIP3    H213623   6.514   3.238   1.626
 4580TIP3   OH213624   7.676   4.903   1.219
 4580TIP3    H113625   7.733   4.881   1.145
 4580TIP3    H213626   7.729   4.960   1.274
 4581TIP3   OH213627   6.762   3.237   2.529
 4581TIP3    H113628   6.710   3.229   2.609
 4581TIP3    H213629   6.706   3.285   2.469
 4582TIP3   OH213630   6.773   4.705   2.589
 4582TIP3    H113631   6.682   4.677   2.587
 4582TIP3    H213632   6.800   4.694   2.680
 4583TIP3   OH213633   7.000   4.743   2.150
 4583TIP3    H113634   6.950   4.818   2.118
 4583TIP3    H213635   7.086   4.751   2.108
 4584TIP3   OH213636   7.394   4.974   2.288
 4584TIP3    H113637   7.432   4.966   2.376
 4584TIP3    H213638   7.457   5.027   2.240
 4585TIP3   OH213639   7.587   5.127   2.164
 4585TIP3    H113640   7.651   5.074   2.115
 4585TIP3    H213641   7.641   5.186   2.217
 4586TIP3   OH213642   8.390   3.466   2.246
 4586TIP3    H113643   8.309   3.471   2.195
 4586TIP3    H213644   8.416   3.374   2.240
 4587TIP3   OH213645   6.660   4.976   2.200
 4587TIP3    H113646   6.569   4.994   2.176
 4587TIP3    H213647   6.682   5.045   2.263
 4588TIP3   OH213648   6.889   4.972   2.048
 4588TIP3    H113649   6.806   4.976   2.096
 4588TIP3    H213650   6.866   4.997   1.958
 4589TIP3   OH213651   7.301   4.991   1.842
 4589TIP3    H113652   7.228   5.003   1.782
 4589TIP3    H213653   7.313   5.077   1.882
 4590TIP3   OH213654   7.559   4.915   1.898
 4590TIP3    H113655   7.470   4.941   1.874
 4590TIP3    H213656   7.615   4.979   1.854
 4591TIP3   OH213657   7.759   5.075   1.798
 4591TIP3    H113658   7.757   5.165   1.765
 4591TIP3    H213659   7.793   5.024   1.725
 4592TIP3   OH213660   6.569   4.756   1.912
 4592TIP3    H113661   6.595   4.736   2.002
 4592TIP3    H213662   6.641   4.724   1.858
 4593TIP3   OH213663   6.773   4.644   1.774
 4593TIP3    H113664   6.785   4.558   1.816
 4593TIP3    H213665   6.860   4.684   1.779
 4594TIP3   OH213666   7.041   4.727   1.803
 4594TIP3    H113667   7.061   4.635   1.786
 4594TIP3    H213668   7.098   4.750   1.877
 4595TIP3   OH213669   7.593   3.382   1.885
 4595TIP3    H113670   7.559   3.308   1.936
 4595TIP3    H213671   7.662   3.344   1.830
 4596TIP3   OH213672   8.096   3.336   1.811
 4596TIP3    H113673   8.134   3.381   1.736
 4596TIP3    H213674   8.004   3.359   1.810
 4597TIP3   OH213675   8.198   3.407   1.568
 4597TIP3    H113676   8.269   3.347   1.546
 4597TIP3    H213677   8.234   3.494   1.552
 4598TIP3   OH213678   6.838   3.080   1.882
 4598TIP3    H113679   6.749   3.046   1.892
 4598TIP3    H213680   6.892   3.002   1.874
 4599TIP3   OH213681   6.663   2.991   1.540
 4599TIP3    H113682   6.687   3.039   1.461
 4599TIP3    H213683   6.625   3.058   1.598
 4600TIP3   OH213684   7.320   3.117   1.786
 4600TIP3    H113685   7.364   3.168   1.718
 4600TIP3    H213686   7.361   3.145   1.868
 4601TIP3   OH213687   7.812   3.273   1.761
 4601TIP3    H113688   7.864   3.235   1.690
 4601TIP3    H213689   7.807   3.205   1.827
 4602TIP3   OH213690   7.875   3.235   1.361
 4602TIP3    H113691   7.794   3.282   1.379
 4602TIP3    H213692   7.866   3.153   1.410
 4603TIP3   OH213693   6.323   4.531   1.305
 4603TIP3    H113694   6.241   4.497   1.271
 4603TIP3    H213695   6.321   4.624   1.286
 4604TIP3   OH213696   6.764   3.120   1.302
 4604TIP3    H113697   6.808   3.057   1.245
 4604TIP3    H213698   6.834   3.175   1.337
 4605TIP3   OH213699   7.249   3.312   1.404
 4605TIP3    H113700   7.310   3.263   1.460
 4605TIP3    H213701   7.263   3.403   1.428
 4606TIP3   OH213702   7.119   4.710   0.899
 4606TIP3    H113703   7.205   4.735   0.866
 4606TIP3    H213704   7.094   4.634   0.846
 4607TIP3   OH213705   7.821   4.827   0.986
 4607TIP3    H113706   7.825   4.732   0.992
 4607TIP3    H213707   7.777   4.843   0.902
 4608TIP3   OH213708   7.068   3.365   2.764
 4608TIP3    H113709   7.035   3.299   2.824
 4608TIP3    H213710   7.161   3.374   2.787
 4609TIP3   OH213711   7.316   3.370   2.886
 4609TIP3    H113712   7.393   3.348   2.834
 4609TIP3    H213713   7.311   3.301   2.952
 4610TIP3   OH213714   6.449   4.548   0.953
 4610TIP3    H113715   6.446   4.548   1.049
 4610TIP3    H213716   6.530   4.501   0.932
 4611TIP3   OH213717   8.138   3.460   2.675
 4611TIP3    H113718   8.155   3.431   2.765
 4611TIP3    H213719   8.223   3.454   2.631
 4612TIP3   OH213720   8.054   4.991   2.183
 4612TIP3    H113721   7.980   4.960   2.130
 4612TIP3    H213722   8.042   5.086   2.187
 4613TIP3   OH213723   8.618   4.216   1.699
 4613TIP3    H113724   8.658   4.168   1.772
 4613TIP3    H213725   8.692   4.250   1.649
 4614TIP3   OH213726   8.570   4.652   1.404
 4614TIP3    H113727   8.556   4.557   1.398
 4614TIP3    H213728   8.663   4.663   1.385
 4615TIP3   OH213729   8.301   3.867   1.157
 4615TIP3    H113730   8.264   3.951   1.185
 4615TIP3    H213731   8.226   3.820   1.120
 4616TIP3   OH213732   8.379   4.175   1.384
 4616TIP3    H113733   8.430   4.097   1.407
 4616TIP3    H213734   8.444   4.241   1.363
 4617TIP3   OH213735   9.161   5.072   1.043
 4617TIP3    H113736   9.212   5.146   1.010
 4617TIP3    H213737   9.136   5.098   1.132
 4618TIP3   OH213738   9.082   4.605   1.318
 4618TIP3    H113739   9.103   4.561   1.236
 4618TIP3    H213740   9.152   4.669   1.329
 4619TIP3   OH213741   8.853   3.738   1.359
 4619TIP3    H113742   8.862   3.809   1.296
 4619TIP3    H213743   8.805   3.670   1.311
 4620TIP3   OH213744   8.519   3.951   1.469
 4620TIP3    H113745   8.596   3.925   1.519
 4620TIP3    H213746   8.529   3.906   1.385
 4621TIP3   OH213747   8.926   4.163   1.281
 4621TIP3    H113748   9.015   4.158   1.248
 4621TIP3    H213749   8.886   4.079   1.256
 4622TIP3   OH213750   8.874   3.750   1.817
 4622TIP3    H113751   8.824   3.780   1.741
 4622TIP3    H213752   8.814   3.762   1.891
 4623TIP3   OH213753   8.976   4.510   1.560
 4623TIP3    H113754   8.913   4.573   1.596
 4623TIP3    H213755   9.009   4.551   1.480
 4624TIP3   OH213756   8.749   3.840   1.585
 4624TIP3    H113757   8.806   3.915   1.601
 4624TIP3    H213758   8.789   3.795   1.511
 4625TIP3   OH213759   8.797   4.695   1.661
 4625TIP3    H113760   8.791   4.786   1.632
 4625TIP3    H213761   8.716   4.679   1.710
 4626TIP3   OH213762   8.200   4.408   0.940
 4626TIP3    H113763   8.166   4.426   0.853
 4626TIP3    H213764   8.226   4.494   0.974
 4627TIP3   OH213765   8.722   4.293   1.138
 4627TIP3    H113766   8.683   4.235   1.074
 4627TIP3    H213767   8.791   4.240   1.179
 4628TIP3   OH213768   8.819   4.695   1.281
 4628TIP3    H113769   8.795   4.684   1.189
 4628TIP3    H213770   8.908   4.659   1.287
 4629TIP3   OH213771   8.827   4.283   1.513
 4629TIP3    H113772   8.864   4.246   1.433
 4629TIP3    H213773   8.878   4.363   1.528
 4630TIP3   OH213774   9.004   4.789   1.823
 4630TIP3    H113775   8.957   4.853   1.876
 4630TIP3    H213776   8.936   4.748   1.769
 4631TIP3   OH213777   8.751   4.397   1.941
 4631TIP3    H113778   8.742   4.487   1.972
 4631TIP3    H213779   8.663   4.359   1.952
 4632TIP3   OH213780   9.070   4.857   0.895
 4632TIP3    H113781   9.106   4.928   0.947
 4632TIP3    H213782   8.996   4.896   0.849
 4633TIP3   OH213783   8.796   4.960   1.908
 4633TIP3    H113784   8.772   4.962   1.816
 4633TIP3    H213785   8.712   4.951   1.955
 4634TIP3   OH213786   8.610   4.125   0.944
 4634TIP3    H113787   8.533   4.171   0.911
 4634TIP3    H213788   8.585   4.032   0.942
 4635TIP3   OH213789   8.391   4.534   1.866
 4635TIP3    H113790   8.322   4.510   1.804
 4635TIP3    H213791   8.428   4.450   1.893
 4636TIP3   OH213792   8.289   4.698   1.517
 4636TIP3    H113793   8.380   4.690   1.488
 4636TIP3    H213794   8.288   4.774   1.575
 4637TIP3   OH213795   9.182   4.955   1.686
 4637TIP3    H113796   9.197   5.046   1.713
 4637TIP3    H213797   9.121   4.921   1.752
 4638TIP3   OH213798   8.432   4.890   1.020
 4638TIP3    H113799   8.472   4.891   1.107
 4638TIP3    H213800   8.385   4.807   1.016
 4639TIP3   OH213801   8.570   4.736   1.821
 4639TIP3    H113802   8.620   4.727   1.902
 4639TIP3    H213803   8.502   4.669   1.827
 4640TIP3   OH213804   8.965   3.525   1.688
 4640TIP3    H113805   8.882   3.501   1.647
 4640TIP3    H213806   8.946   3.605   1.736
 4641TIP3   OH213807   8.903   4.054   1.652
 4641TIP3    H113808   8.864   4.059   1.740
 4641TIP3    H213809   8.878   4.136   1.610
 4642TIP3   OH213810   8.809   3.942   1.175
 4642TIP3    H113811   8.719   3.916   1.192
 4642TIP3    H213812   8.826   3.915   1.084
 4643TIP3   OH213813   8.757   4.057   1.889
 4643TIP3    H113814   8.814   4.105   1.949
 4643TIP3    H213815   8.734   3.978   1.937
 4644TIP3   OH213816   8.788   3.641   0.619
 4644TIP3    H113817   8.770   3.652   0.713
 4644TIP3    H213818   8.715   3.686   0.576
 4645TIP3   OH213819   8.327   3.627   1.479
 4645TIP3    H113820   8.406   3.648   1.529
 4645TIP3    H213821   8.360   3.599   1.394
 4646TIP3   OH213822   8.258   3.587   0.976
 4646TIP3    H113823   8.319   3.626   0.913
 4646TIP3    H213824   8.188   3.652   0.986
 4647TIP3   OH213825   8.563   3.831   1.225
 4647TIP3    H113826   8.472   3.834   1.194
 4647TIP3    H213827   8.589   3.740   1.213
 4648TIP3   OH213828   8.850   3.859   0.915
 4648TIP3    H113829   8.921   3.889   0.858
 4648TIP3    H213830   8.771   3.872   0.862
 4649TIP3   OH213831   8.632   3.881   0.753
 4649TIP3    H113832   8.550   3.832   0.743
 4649TIP3    H213833   8.661   3.896   0.663
 4650TIP3   OH213834   8.699   4.650   2.050
 4650TIP3    H113835   8.781   4.669   2.095
 4650TIP3    H213836   8.634   4.644   2.120
 4651TIP3   OH213837   8.685   3.584   1.196
 4651TIP3    H113838   8.658   3.506   1.244
 4651TIP3    H213839   8.707   3.552   1.109
 4652TIP3   OH213840   8.860   4.427   0.718
 4652TIP3    H113841   8.829   4.337   0.712
 4652TIP3    H213842   8.893   4.434   0.808
 4653TIP3   OH213843   9.307   4.713   1.705
 4653TIP3    H113844   9.229   4.661   1.722
 4653TIP3    H213845   9.275   4.802   1.688
 4654TIP3   OH213846   8.592   4.368   1.371
 4654TIP3    H113847   8.629   4.355   1.284
 4654TIP3    H213848   8.660   4.338   1.431
 4655TIP3   OH213849   8.490   4.309   2.002
 4655TIP3    H113850   8.505   4.282   2.093
 4655TIP3    H213851   8.416   4.257   1.973
 4656TIP3   OH213852   9.197   4.399   2.001
 4656TIP3    H113853   9.116   4.349   2.006
 4656TIP3    H213854   9.228   4.387   1.911
 4657TIP3   OH213855   8.727   4.684   1.018
 4657TIP3    H113856   8.729   4.765   0.967
 4657TIP3    H213857   8.645   4.642   0.992
 4658TIP3   OH213858   8.292   3.992   0.737
 4658TIP3    H113859   8.338   4.074   0.757
 4658TIP3    H213860   8.211   3.997   0.788
 4659TIP3   OH213861   8.892   4.461   0.996
 4659TIP3    H113862   8.853   4.548   0.994
 4659TIP3    H213863   8.830   4.407   1.046
 4660TIP3   OH213864   9.015   5.020   1.478
 4660TIP3    H113865   9.055   5.089   1.425
 4660TIP3    H213866   9.084   4.996   1.540
 4661TIP3   OH213867   8.665   4.921   0.875
 4661TIP3    H113868   8.580   4.920   0.918
 4661TIP3    H213869   8.697   5.010   0.884
 4662TIP3   OH213870   8.700   3.806   2.021
 4662TIP3    H113871   8.604   3.814   2.025
 4662TIP3    H213872   8.721   3.742   2.089
 4663TIP3   OH213873   8.430   4.931   1.671
 4663TIP3    H113874   8.483   4.871   1.723
 4663TIP3    H213875   8.443   5.017   1.712
 4664TIP3   OH213876   8.623   4.564   0.693
 4664TIP3    H113877   8.710   4.524   0.696
 4664TIP3    H213878   8.639   4.652   0.659
 4665TIP3   OH213879   8.388   4.239   0.828
 4665TIP3    H113880   8.324   4.280   0.886
 4665TIP3    H213881   8.400   4.301   0.757
 4666TIP3   OH213882   8.657   4.824   0.618
 4666TIP3    H113883   8.665   4.902   0.563
 4666TIP3    H213884   8.663   4.857   0.707
 4667TIP3   OH213885   8.787   3.588   0.919
 4667TIP3    H113886   8.821   3.676   0.938
 4667TIP3    H213887   8.865   3.532   0.921
 4668TIP3   OH213888   8.399   4.428   0.625
 4668TIP3    H113889   8.465   4.491   0.656
 4668TIP3    H213890   8.447   4.373   0.562
 4669TIP3   OH213891   8.374   3.733   0.765
 4669TIP3    H113892   8.347   3.825   0.760
 4669TIP3    H213893   8.303   3.684   0.724
 4670TIP3   OH213894   8.706   3.440   1.619
 4670TIP3    H113895   8.692   3.414   1.528
 4670TIP3    H213896   8.712   3.358   1.668
 4671TIP3   OH213897   8.262   4.669   1.034
 4671TIP3    H113898   8.223   4.705   1.114
 4671TIP3    H213899   8.206   4.702   0.963
 4672TIP3   OH213900   8.438   5.230   2.072
 4672TIP3    H113901   8.510   5.232   2.134
 4672TIP3    H213902   8.433   5.139   2.043
 4673TIP3   OH213903   8.849   5.180   2.073
 4673TIP3    H113904   8.943   5.194   2.079
 4673TIP3    H213905   8.840   5.101   2.019
 4674TIP3   OH213906   8.536   4.612   2.273
 4674TIP3    H113907   8.562   4.520   2.275
 4674TIP3    H213908   8.450   4.612   2.230
 4675TIP3   OH213909   8.568   4.255   0.494
 4675TIP3    H113910   8.620   4.230   0.571
 4675TIP3    H213911   8.632   4.283   0.429
 4676TIP3   OH213912   9.114   4.664   2.041
 4676TIP3    H113913   9.093   4.695   1.953
 4676TIP3    H213914   9.162   4.583   2.027
 4677TIP3   OH213915   8.684   4.356   2.269
 4677TIP3    H113916   8.757   4.302   2.239
 4677TIP3    H213917   8.712   4.390   2.353
 4678TIP3   OH213918   8.741   4.176   0.697
 4678TIP3    H113919   8.705   4.148   0.781
 4678TIP3    H213920   8.778   4.096   0.659
 4679TIP3   OH213921   8.975   4.245   1.938
 4679TIP3    H113922   8.897   4.300   1.942
 4679TIP3    H213923   9.016   4.268   1.854
 4680TIP3   OH213924   8.838   3.954   0.557
 4680TIP3    H113925   8.811   3.942   0.466
 4680TIP3    H213926   8.925   3.913   0.562
 4681TIP3   OH213927   9.105   4.049   2.086
 4681TIP3    H113928   9.120   3.972   2.030
 4681TIP3    H213929   9.072   4.116   2.026
 4682TIP3   OH213930   9.117   3.863   1.881
 4682TIP3    H113931   9.169   3.847   1.803
 4682TIP3    H213932   9.033   3.820   1.864
 4683TIP3   OH213933   9.121   4.341   1.723
 4683TIP3    H113934   9.159   4.282   1.658
 4683TIP3    H213935   9.072   4.406   1.672
 4684TIP3   OH213936   8.898   4.151   2.246
 4684TIP3    H113937   8.867   4.066   2.279
 4684TIP3    H213938   8.970   4.129   2.187
 4685TIP3   OH213939   8.826   3.897   2.328
 4685TIP3    H113940   8.833   3.812   2.284
 4685TIP3    H213941   8.855   3.880   2.417
 4686TIP3   OH213942   8.131   4.393   0.666
 4686TIP3    H113943   8.220   4.420   0.643
 4686TIP3    H213944   8.116   4.314   0.615
 4687TIP3   OH213945   8.032   4.964   1.096
 4687TIP3    H113946   7.968   4.912   1.047
 4687TIP3    H213947   8.073   4.902   1.156
 4688TIP3   OH213948   8.184   4.810   1.269
 4688TIP3    H113949   8.176   4.742   1.336
 4688TIP3    H213950   8.236   4.879   1.311
 4689TIP3   OH213951   8.358   4.264   1.642
 4689TIP3    H113952   8.350   4.233   1.551
 4689TIP3    H213953   8.452   4.256   1.660
 4690TIP3   OH213954   8.563   3.946   2.274
 4690TIP3    H113955   8.658   3.945   2.287
 4690TIP3    H213956   8.533   3.867   2.317
 4691TIP3   OH213957   8.545   3.660   1.650
 4691TIP3    H113958   8.596   3.580   1.647
 4691TIP3    H213959   8.608   3.730   1.634
 4692TIP3   OH213960   8.338   3.934   1.687
 4692TIP3    H113961   8.384   3.919   1.605
 4692TIP3    H213962   8.374   4.016   1.721
 4693TIP3   OH213963   8.314   3.487   1.226
 4693TIP3    H113964   8.226   3.471   1.260
 4693TIP3    H213965   8.300   3.534   1.144
 4694TIP3   OH213966   8.558   3.485   2.013
 4694TIP3    H113967   8.511   3.488   2.097
 4694TIP3    H213968   8.503   3.536   1.953
 4695TIP3   OH213969   8.573   4.956   2.073
 4695TIP3    H113970   8.480   4.934   2.077
 4695TIP3    H213971   8.603   4.955   2.164
 4696TIP3   OH213972   8.792   4.964   1.628
 4696TIP3    H113973   8.734   5.038   1.607
 4696TIP3    H213974   8.873   4.984   1.582
 4697TIP3   OH213975   9.255   5.219   1.707
 4697TIP3    H113976   9.299   5.243   1.789
 4697TIP3    H213977   9.326   5.216   1.643
 4698TIP3   OH213978   8.441   5.216   1.729
 4698TIP3    H113979   8.355   5.242   1.697
 4698TIP3    H213980   8.470   5.290   1.784
 4699TIP3   OH213981   8.657   5.189   1.565
 4699TIP3    H113982   8.582   5.204   1.622
 4699TIP3    H213983   8.624   5.201   1.476
 4700TIP3   OH213984   9.110   5.201   1.291
 4700TIP3    H113985   9.025   5.216   1.250
 4700TIP3    H213986   9.155   5.285   1.285
 4701TIP3   OH213987   9.367   5.203   1.421
 4701TIP3    H113988   9.287   5.166   1.383
 4701TIP3    H213989   9.377   5.288   1.378
 4702TIP3   OH213990   8.348   4.992   1.418
 4702TIP3    H113991   8.382   4.975   1.506
 4702TIP3    H213992   8.421   4.972   1.360
 4703TIP3   OH213993   8.548   4.894   1.266
 4703TIP3    H113994   8.558   4.810   1.311
 4703TIP3    H213995   8.633   4.938   1.277
 4704TIP3   OH213996   8.815   4.968   1.298
 4704TIP3    H113997   8.821   4.873   1.288
 4704TIP3    H213998   8.878   4.990   1.366
 4705TIP3   OH213999   8.613   3.372   1.355
 4705TIP3    H114000   8.532   3.341   1.396
 4705TIP3    H214001   8.676   3.301   1.371
 4706TIP3   OH214002   8.436   3.280   1.093
 4706TIP3    H114003   8.399   3.306   1.008
 4706TIP3    H214004   8.411   3.350   1.153
 4707TIP3   OH214005   8.121   4.769   0.827
 4707TIP3    H114006   8.045   4.745   0.774
 4707TIP3    H214007   8.153   4.851   0.789
 4708TIP3   OH214008   8.607   3.448   0.770
 4708TIP3    H114009   8.629   3.365   0.812
 4708TIP3    H214010   8.655   3.514   0.821
 4709TIP3   OH214011   8.829   3.622   2.237
 4709TIP3    H114012   8.787   3.549   2.283
 4709TIP3    H214013   8.918   3.626   2.273
 4710TIP3   OH214014   9.062   3.616   2.387
 4710TIP3    H114015   9.153   3.610   2.356
 4710TIP3    H214016   9.053   3.545   2.450
 4711TIP3   OH214017   8.198   4.829   0.495
 4711TIP3    H114018   8.192   4.891   0.567
 4711TIP3    H214019   8.274   4.774   0.516
 4712TIP3   OH214020   0.036   4.907   3.507
 4712TIP3    H114021   0.032   4.880   3.598
 4712TIP3    H214022  -0.022   4.846   3.461
 4713TIP3   OH214023   0.279   5.201   3.203
 4713TIP3    H114024   0.265   5.132   3.268
 4713TIP3    H214025   0.290   5.281   3.254
 4714TIP3   OH214026   9.683   5.521   3.252
 4714TIP3    H114027   9.776   5.531   3.229
 4714TIP3    H214028   9.678   5.548   3.343
 4715TIP3   OH214029   9.572   5.043   3.504
 4715TIP3    H114030   9.660   5.007   3.502
 4715TIP3    H214031   9.584   5.136   3.485
 4716TIP3   OH214032   0.834   4.442   3.568
 4716TIP3    H114033   0.849   4.526   3.610
 4716TIP3    H214034   0.847   4.460   3.474
 4717TIP3   OH214035   0.240   4.605   3.562
 4717TIP3    H114036   0.275   4.524   3.599
 4717TIP3    H214037   0.181   4.575   3.492
 4718TIP3   OH214038   9.374   4.352   3.539
 4718TIP3    H114039   9.309   4.411   3.576
 4718TIP3    H214040   9.352   4.266   3.575
 4719TIP3   OH214041   0.277   4.389   3.191
 4719TIP3    H114042   0.346   4.377   3.256
 4719TIP3    H214043   0.322   4.421   3.113
 4720TIP3   OH214044   9.352   4.725   3.500
 4720TIP3    H114045   9.389   4.655   3.447
 4720TIP3    H214046   9.258   4.725   3.479
 4721TIP3   OH214047   0.890   4.668   3.726
 4721TIP3    H114048   0.800   4.700   3.719
 4721TIP3    H214049   0.921   4.700   3.810
 4722TIP3   OH214050   9.743   5.034   2.932
 4722TIP3    H114051   9.689   5.047   2.854
 4722TIP3    H214052   9.805   5.108   2.931
 4723TIP3   OH214053   0.444   4.383   3.407
 4723TIP3    H114054   0.398   4.362   3.489
 4723TIP3    H214055   0.490   4.465   3.426
 4724TIP3   OH214056   0.305   5.431   3.363
 4724TIP3    H114057   0.222   5.428   3.412
 4724TIP3    H214058   0.309   5.520   3.328
 4725TIP3   OH214059   0.633   4.329   3.736
 4725TIP3    H114060   0.545   4.346   3.703
 4725TIP3    H214061   0.692   4.358   3.666
 4726TIP3   OH214062   9.734   3.964   3.722
 4726TIP3    H114063   9.707   3.878   3.755
 4726TIP3    H214064   9.653   4.016   3.723
 4727TIP3   OH214065   0.020   5.458   2.995
 4727TIP3    H114066   0.081   5.385   2.986
 4727TIP3    H214067   0.074   5.532   3.022
 4728TIP3   OH214068   0.157   5.222   2.958
 4728TIP3    H114069   0.200   5.165   2.895
 4728TIP3    H214070   0.206   5.210   3.040
 4729TIP3   OH214071   0.564   5.322   3.701
 4729TIP3    H114072   0.538   5.252   3.640
 4729TIP3    H214073   0.544   5.403   3.655
 4730TIP3   OH214074   9.625   4.508   2.728
 4730TIP3    H114075   9.682   4.511   2.805
 4730TIP3    H214076   9.675   4.460   2.662
 4731TIP3   OH214077   0.719   5.007   3.556
 4731TIP3    H114078   0.632   5.047   3.557
 4731TIP3    H214079   0.753   5.025   3.468
 4732TIP3   OH214080   0.443   4.896   3.864
 4732TIP3    H114081   0.425   4.973   3.918
 4732TIP3    H214082   0.361   4.880   3.817
 4733TIP3   OH214083   9.428   4.907   3.715
 4733TIP3    H114084   9.343   4.880   3.681
 4733TIP3    H214085   9.465   4.963   3.646
 4734TIP3   OH214086   0.082   5.448   3.521
 4734TIP3    H114087   0.071   5.537   3.554
 4734TIP3    H214088   0.080   5.392   3.598
 4735TIP3   OH214089   9.575   5.329   3.070
 4735TIP3    H114090   9.657   5.378   3.063
 4735TIP3    H214091   9.522   5.380   3.131
 4736TIP3   OH214092   0.520   3.925   2.821
 4736TIP3    H114093   0.445   3.945   2.877
 4736TIP3    H214094   0.530   4.002   2.765
 4737TIP3   OH214095   0.354   5.303   2.366
 4737TIP3    H114096   0.352   5.395   2.340
 4737TIP3    H214097   0.444   5.276   2.349
 4738TIP3   OH214098   0.776   5.723   3.782
 4738TIP3    H114099   0.782   5.628   3.787
 4738TIP3    H214100   0.700   5.745   3.835
 4739TIP3   OH214101   9.744   5.514   3.859
 4739TIP3    H114102   9.726   5.607   3.845
 4739TIP3    H214103   9.659   5.471   3.851
 4740TIP3   OH214104   9.536   5.671   2.850
 4740TIP3    H114105   9.477   5.614   2.801
 4740TIP3    H214106   9.507   5.663   2.941
 4741TIP3   OH214107   9.713   5.542   2.466
 4741TIP3    H114108   9.778   5.479   2.434
 4741TIP3    H214109   9.739   5.559   2.557
 4742TIP3   OH214110   9.768   5.593   2.729
 4742TIP3    H114111   9.689   5.607   2.781
 4742TIP3    H214112   9.840   5.608   2.791
 4743TIP3   OH214113   0.658   4.825   4.044
 4743TIP3    H114114   0.579   4.840   3.992
 4743TIP3    H214115   0.670   4.730   4.043
 4744TIP3   OH214116   9.445   4.056   3.852
 4744TIP3    H114117   9.387   4.061   3.776
 4744TIP3    H214118   9.515   4.119   3.833
 4745TIP3   OH214119   0.197   4.162   4.060
 4745TIP3    H114120   0.273   4.149   4.117
 4745TIP3    H214121   0.122   4.136   4.113
 4746TIP3   OH214122   0.440   4.636   3.976
 4746TIP3    H114123   0.385   4.603   4.048
 4746TIP3    H214124   0.390   4.710   3.940
 4747TIP3   OH214125   0.136   4.656   2.546
 4747TIP3    H114126   0.072   4.659   2.476
 4747TIP3    H214127   0.207   4.713   2.517
 4748TIP3   OH214128   9.642   4.133   2.789
 4748TIP3    H114129   9.619   4.140   2.882
 4748TIP3    H214130   9.565   4.095   2.748
 4749TIP3   OH214131   9.237   4.631   3.913
 4749TIP3    H114132   9.271   4.551   3.955
 4749TIP3    H214133   9.304   4.697   3.930
 4750TIP3   OH214134   9.185   4.475   3.319
 4750TIP3    H114135   9.207   4.564   3.293
 4750TIP3    H214136   9.266   4.425   3.304
 4751TIP3   OH214137   0.188   4.785   4.184
 4751TIP3    H114138   0.176   4.711   4.244
 4751TIP3    H214139   0.275   4.818   4.204
 4752TIP3   OH214140   0.092   4.526   3.342
 4752TIP3    H114141   0.018   4.523   3.282
 4752TIP3    H214142   0.161   4.477   3.298
 4753TIP3   OH214143   9.383   4.032   2.763
 4753TIP3    H114144   9.414   3.964   2.823
 4753TIP3    H214145   9.327   4.088   2.817
 4754TIP3   OH214146   0.213   4.807   3.748
 4754TIP3    H114147   0.224   4.746   3.675
 4754TIP3    H214148   0.160   4.759   3.812
 4755TIP3   OH214149   9.633   4.244   3.384
 4755TIP3    H114150   9.545   4.257   3.349
 4755TIP3    H214151   9.688   4.304   3.333
 4756TIP3   OH214152   0.311   4.350   3.652
 4756TIP3    H114153   0.306   4.364   3.747
 4756TIP3    H214154   0.239   4.290   3.633
 4757TIP3   OH214155   9.004   4.431   2.843
 4757TIP3    H114156   9.035   4.355   2.795
 4757TIP3    H214157   8.957   4.395   2.918
 4758TIP3   OH214158   0.482   6.044   3.875
 4758TIP3    H114159   0.419   6.089   3.818
 4758TIP3    H214160   0.557   6.104   3.879
 4759TIP3   OH214161   9.738   4.587   3.567
 4759TIP3    H114162   9.783   4.568   3.484
 4759TIP3    H214163   9.766   4.518   3.626
 4760TIP3   OH214164   9.218   4.056   3.377
 4760TIP3    H114165   9.156   3.983   3.385
 4760TIP3    H214166   9.245   4.055   3.285
 4761TIP3   OH214167   9.715   4.459   3.810
 4761TIP3    H114168   9.638   4.514   3.795
 4761TIP3    H214169   9.778   4.518   3.852
 4762TIP3   OH214170   9.506   4.849   3.021
 4762TIP3    H114171   9.490   4.756   3.002
 4762TIP3    H214172   9.421   4.890   3.013
 4763TIP3   OH214173   0.485   5.142   3.515
 4763TIP3    H114174   0.513   5.199   3.443
 4763TIP3    H214175   0.407   5.097   3.482
 4764TIP3   OH214176   0.094   4.224   2.827
 4764TIP3    H114177   0.002   4.202   2.811
 4764TIP3    H214178   0.101   4.317   2.807
 4765TIP3   OH214179   0.028   5.267   3.962
 4765TIP3    H114180   0.055   5.258   4.053
 4765TIP3    H214181  -0.001   5.357   3.954
 4766TIP3   OH214182   0.126   4.492   2.773
 4766TIP3    H114183   0.194   4.514   2.835
 4766TIP3    H214184   0.136   4.555   2.702
 4767TIP3   OH214185   9.546   5.052   2.742
 4767TIP3    H114186   9.511   5.141   2.744
 4767TIP3    H214187   9.471   4.996   2.760
 4768TIP3   OH214188  -0.019   5.023   4.248
 4768TIP3    H114189  -0.037   4.935   4.214
 4768TIP3    H214190   0.071   5.041   4.220
 4769TIP3   OH214191   0.205   5.494   3.794
 4769TIP3    H114192   0.112   5.502   3.814
 4769TIP3    H214193   0.249   5.511   3.878
 4770TIP3   OH214194   0.526   4.555   2.711
 4770TIP3    H114195   0.469   4.510   2.649
 4770TIP3    H214196   0.532   4.645   2.677
 4771TIP3   OH214197   0.797   5.450   3.779
 4771TIP3    H114198   0.708   5.416   3.790
 4771TIP3    H214199   0.827   5.412   3.697
 4772TIP3   OH214200   0.269   5.367   2.626
 4772TIP3    H114201   0.221   5.298   2.671
 4772TIP3    H214202   0.290   5.331   2.540
 4773TIP3   OH214203   0.275   5.001   3.403
 4773TIP3    H114204   0.190   4.978   3.441
 4773TIP3    H214205   0.309   4.918   3.369
 4774TIP3   OH214206   9.266   4.979   3.079
 4774TIP3    H114207   9.305   4.983   3.167
 4774TIP3    H214208   9.179   4.941   3.093
 4775TIP3   OH214209   0.062   5.199   3.697
 4775TIP3    H114210   0.046   5.224   3.788
 4775TIP3    H214211   0.148   5.156   3.699
 4776TIP3   OH214212   0.061   5.112   2.526
 4776TIP3    H114213   0.096   5.086   2.611
 4776TIP3    H214214  -0.024   5.070   2.521
 4777TIP3   OH214215   0.338   5.719   3.701
 4777TIP3    H114216   0.265   5.661   3.723
 4777TIP3    H214217   0.306   5.773   3.629
 4778TIP3   OH214218   0.367   5.572   2.313
 4778TIP3    H114219   0.411   5.641   2.264
 4778TIP3    H214220   0.290   5.615   2.350
 4779TIP3   OH214221   0.211   5.038   2.751
 4779TIP3    H114222   0.187   4.951   2.784
 4779TIP3    H214223   0.305   5.033   2.735
 4780TIP3   OH214224   9.218   5.077   2.523
 4780TIP3    H114225   9.267   4.996   2.512
 4780TIP3    H214226   9.178   5.070   2.610
 4781TIP3   OH214227   0.278   4.380   3.921
 4781TIP3    H114228   0.319   4.421   3.998
 4781TIP3    H214229   0.237   4.301   3.955
 4782TIP3   OH214230   0.139   4.170   3.093
 4782TIP3    H114231   0.115   4.195   3.004
 4782TIP3    H214232   0.169   4.251   3.133
 4783TIP3   OH214233   9.382   5.265   2.777
 4783TIP3    H114234   9.334   5.265   2.860
 4783TIP3    H214235   9.394   5.357   2.755
 4784TIP3   OH214236   0.120   4.608   3.917
 4784TIP3    H114237   0.075   4.592   4.000
 4784TIP3    H214238   0.182   4.536   3.908
 4785TIP3   OH214239   9.743   4.036   3.225
 4785TIP3    H114240   9.718   4.093   3.298
 4785TIP3    H214241   9.817   4.080   3.184
 4786TIP3   OH214242   9.329   4.025   3.132
 4786TIP3    H114243   9.264   3.997   3.068
 4786TIP3    H214244   9.408   4.040   3.080
 4787TIP3   OH214245   0.685   4.534   3.932
 4787TIP3    H114246   0.596   4.566   3.950
 4787TIP3    H214247   0.674   4.471   3.861
 4788TIP3   OH214248   0.351   4.741   3.329
 4788TIP3    H114249   0.274   4.702   3.370
 4788TIP3    H214250   0.425   4.704   3.377
 4789TIP3   OH214251   0.338   5.697   3.298
 4789TIP3    H114252   0.264   5.702   3.237
 4789TIP3    H214253   0.411   5.737   3.250
 4790TIP3   OH214254   9.318   5.324   2.478
 4790TIP3    H114255   9.269   5.246   2.503
 4790TIP3    H214256   9.406   5.310   2.512
 4791TIP3   OH214257   0.294   5.546   4.044
 4791TIP3    H114258   0.287   5.502   4.129
 4791TIP3    H214259   0.230   5.616   4.048
 4792TIP3   OH214260   0.046   5.333   2.363
 4792TIP3    H114261   0.063   5.262   2.425
 4792TIP3    H214262   0.099   5.311   2.286
 4793TIP3   OH214263   9.515   5.294   4.284
 4793TIP3    H114264   9.509   5.215   4.232
 4793TIP3    H214265   9.509   5.264   4.375
 4794TIP3   OH214266   9.610   4.999   2.482
 4794TIP3    H114267   9.588   5.033   2.569
 4794TIP3    H214268   9.539   4.938   2.461
 4795TIP3   OH214269   0.326   5.246   3.821
 4795TIP3    H114270   0.407   5.280   3.784
 4795TIP3    H214271   0.265   5.320   3.817
 4796TIP3   OH214272   9.238   4.689   2.881
 4796TIP3    H114273   9.302   4.636   2.927
 4796TIP3    H214274   9.215   4.638   2.803
 4797TIP3   OH214275   9.410   4.832   3.979
 4797TIP3    H114276   9.444   4.902   4.035
 4797TIP3    H214277   9.422   4.865   3.890
 4798TIP3   OH214278   9.354   4.437   2.740
 4798TIP3    H114279   9.334   4.477   2.655
 4798TIP3    H214280   9.448   4.452   2.752
 4799TIP3   OH214281   0.234   5.101   4.202
 4799TIP3    H114282   0.309   5.101   4.143
 4799TIP3    H214283   0.272   5.083   4.288
 4800TIP3   OH214284   0.314   4.812   2.401
 4800TIP3    H114285   0.300   4.766   2.318
 4800TIP3    H214286   0.293   4.904   2.382
 4801TIP3   OH214287   9.532   4.498   4.361
 4801TIP3    H114288   9.459   4.442   4.387
 4801TIP3    H214289   9.510   4.527   4.272
 4802TIP3   OH214290   9.653   4.241   3.968
 4802TIP3    H114291   9.688   4.312   3.914
 4802TIP3    H214292   9.563   4.267   3.986
 4803TIP3   OH214293   9.703   4.973   3.952
 4803TIP3    H114294   9.714   4.922   3.872
 4803TIP3    H214295   9.697   5.063   3.923
 4804TIP3   OH214296   0.443   4.830   4.286
 4804TIP3    H114297   0.468   4.774   4.359
 4804TIP3    H214298   0.523   4.841   4.235
 4805TIP3   OH214299   0.448   5.123   4.028
 4805TIP3    H114300   0.391   5.171   3.968
 4805TIP3    H214301   0.536   5.138   3.995
 4806TIP3   OH214302   9.750   4.051   4.132
 4806TIP3    H114303   9.722   4.118   4.069
 4806TIP3    H214304   9.718   3.968   4.094
 4807TIP3   OH214305   0.111   4.569   4.329
 4807TIP3    H114306   0.072   4.567   4.417
 4807TIP3    H214307   0.037   4.556   4.270
 4808TIP3   OH214308   0.324   4.489   4.174
 4808TIP3    H114309   0.252   4.504   4.234
 4808TIP3    H214310   0.402   4.491   4.229
 4809TIP3   OH214311   0.549   4.503   4.333
 4809TIP3    H114312   0.555   4.412   4.362
 4809TIP3    H214313   0.526   4.552   4.412
 4810TIP3   OH214314   0.033   4.068   4.398
 4810TIP3    H114315   0.102   4.003   4.383
 4810TIP3    H214316  -0.006   4.082   4.312
 4811TIP3   OH214317   0.138   4.301   4.508
 4811TIP3    H114318   0.104   4.215   4.486
 4811TIP3    H214319   0.061   4.351   4.536
 4812TIP3   OH214320   0.611   5.791   3.277
 4812TIP3    H114321   0.609   5.787   3.373
 4812TIP3    H214322   0.612   5.885   3.258
 4813TIP3   OH214323   0.627   5.778   3.550
 4813TIP3    H114324   0.574   5.699   3.554
 4813TIP3    H214325   0.682   5.775   3.628
 4814TIP3   OH214326   0.659   5.515   4.115
 4814TIP3    H114327   0.575   5.530   4.159
 4814TIP3    H214328   0.707   5.597   4.127
 4815TIP3   OH214329   0.483   5.022   2.726
 4815TIP3    H114330   0.540   5.092   2.697
 4815TIP3    H214331   0.529   4.983   2.801
 4816TIP3   OH214332   0.607   4.881   2.926
 4816TIP3    H114333   0.541   4.833   2.976
 4816TIP3    H214334   0.669   4.911   2.993
 4817TIP3   OH214335   0.667   5.299   3.365
 4817TIP3    H114336   0.712   5.230   3.317
 4817TIP3    H214337   0.658   5.370   3.302
 4818TIP3   OH214338   0.485   5.539   3.554
 4818TIP3    H114339   0.420   5.588   3.606
 4818TIP3    H214340   0.434   5.499   3.484
 4819TIP3   OH214341   0.523   4.795   2.576
 4819TIP3    H114342   0.453   4.794   2.511
 4819TIP3    H214343   0.507   4.874   2.628
 4820TIP3   OH214344   0.378   4.446   2.513
 4820TIP3    H114345   0.324   4.482   2.443
 4820TIP3    H214346   0.367   4.351   2.505
 4821TIP3   OH214347   0.425   4.729   3.060
 4821TIP3    H114348   0.412   4.637   3.038
 4821TIP3    H214349   0.394   4.737   3.150
 4822TIP3   OH214350   0.695   5.166   3.916
 4822TIP3    H114351   0.758   5.097   3.897
 4822TIP3    H214352   0.674   5.205   3.830
 4823TIP3   OH214353   0.865   4.947   3.910
 4823TIP3    H114354   0.791   4.908   3.957
 4823TIP3    H214355   0.939   4.890   3.932
 4824TIP3   OH214356   0.339   4.174   2.487
 4824TIP3    H114357   0.406   4.156   2.552
 4824TIP3    H214358   0.260   4.135   2.522
 4825TIP3   OH214359   0.410   4.464   2.953
 4825TIP3    H114360   0.448   4.377   2.963
 4825TIP3    H214361   0.449   4.499   2.873
 4826TIP3   OH214362   0.561   4.625   3.474
 4826TIP3    H114363   0.644   4.642   3.430
 4826TIP3    H214364   0.570   4.668   3.559
 4827TIP3   OH214365   0.636   4.781   3.695
 4827TIP3    H114366   0.568   4.810   3.755
 4827TIP3    H214367   0.665   4.861   3.651
 4828TIP3   OH214368   1.094   4.372   4.245
 4828TIP3    H114369   1.155   4.314   4.199
 4828TIP3    H214370   1.055   4.426   4.176
 4829TIP3   OH214371   0.520   4.210   2.998
 4829TIP3    H114372   0.560   4.197   3.084
 4829TIP3    H214373   0.455   4.141   2.990
 4830TIP3   OH214374   0.941   4.505   4.062
 4830TIP3    H114375   0.879   4.548   4.122
 4830TIP3    H214376   0.886   4.461   3.998
 4831TIP3   OH214377   0.565   4.126   2.638
 4831TIP3    H114378   0.616   4.065   2.584
 4831TIP3    H214379   0.621   4.204   2.644
 4832TIP3   OH214380   0.177   5.697   2.871
 4832TIP3    H114381   0.238   5.681   2.799
 4832TIP3    H214382   0.201   5.784   2.904
 4833TIP3   OH214383   9.646   5.867   4.045
 4833TIP3    H114384   9.661   5.959   4.021
 4833TIP3    H214385   9.617   5.826   3.963
 4834TIP3   OH214386   0.144   5.899   3.819
 4834TIP3    H114387   0.224   5.896   3.767
 4834TIP3    H214388   0.163   5.963   3.888
 4835TIP3   OH214389   0.837   4.257   3.934
 4835TIP3    H114390   0.755   4.269   3.885
 4835TIP3    H214391   0.858   4.164   3.922
 4836TIP3   OH214392   0.048   5.723   3.585
 4836TIP3    H114393  -0.013   5.756   3.652
 4836TIP3    H214394   0.099   5.800   3.559
 4837TIP3   OH214395   0.272   5.880   3.494
 4837TIP3    H114396   0.277   5.965   3.451
 4837TIP3    H214397   0.290   5.817   3.424
 4838TIP3   OH214398   0.096   4.174   3.613
 4838TIP3    H114399   0.045   4.099   3.644
 4838TIP3    H214400   0.147   4.141   3.540
 4839TIP3   OH214401   0.554   4.076   3.459
 4839TIP3    H114402   0.590   4.130   3.389
 4839TIP3    H214403   0.461   4.097   3.459
 4840TIP3   OH214404   0.671   4.159   3.225
 4840TIP3    H114405   0.741   4.100   3.196
 4840TIP3    H214406   0.708   4.246   3.213
 4841TIP3   OH214407   9.737   3.866   3.465
 4841TIP3    H114408   9.661   3.918   3.436
 4841TIP3    H214409   9.754   3.897   3.554
 4842TIP3   OH214410   0.273   4.061   3.434
 4842TIP3    H114411   0.259   4.029   3.345
 4842TIP3    H214412   0.273   3.981   3.488
 4843TIP3   OH214413   0.335   4.000   3.005
 4843TIP3    H114414   0.262   4.055   3.032
 4843TIP3    H214415   0.316   3.915   3.044
 4844TIP3   OH214416   9.568   4.152   3.051
 4844TIP3    H114417   9.627   4.100   3.106
 4844TIP3    H214418   9.591   4.243   3.070
 4845TIP3   OH214419   9.383   5.523   2.678
 4845TIP3    H114420   9.428   5.539   2.595
 4845TIP3    H214421   9.300   5.483   2.654
 4846TIP3   OH214422   0.318   5.636   2.642
 4846TIP3    H114423   0.303   5.541   2.641
 4846TIP3    H214424   0.273   5.668   2.564
 4847TIP3   OH214425   9.577   4.098   4.488
 4847TIP3    H114426   9.670   4.091   4.469
 4847TIP3    H214427   9.570   4.077   4.582
 4848TIP3   OH214428   0.604   4.236   4.368
 4848TIP3    H114429   0.621   4.208   4.458
 4848TIP3    H214430   0.690   4.235   4.326
 4849TIP3   OH214431   0.532   5.779   3.888
 4849TIP3    H114432   0.463   5.743   3.832
 4849TIP3    H214433   0.518   5.874   3.886
 4850TIP3   OH214434   1.786   5.170   2.607
 4850TIP3    H114435   1.756   5.257   2.580
 4850TIP3    H214436   1.715   5.111   2.581
 4851TIP3   OH214437   1.780   5.156   3.032
 4851TIP3    H114438   1.837   5.140   3.108
 4851TIP3    H214439   1.738   5.072   3.016
 4852TIP3   OH214440   1.085   5.020   3.368
 4852TIP3    H114441   1.118   4.967   3.441
 4852TIP3    H214442   1.163   5.042   3.317
 4853TIP3   OH214443   2.053   5.465   2.703
 4853TIP3    H114444   2.043   5.399   2.772
 4853TIP3    H214445   2.072   5.546   2.751
 4854TIP3   OH214446   1.147   5.482   3.185
 4854TIP3    H114447   1.116   5.395   3.160
 4854TIP3    H214448   1.217   5.502   3.123
 4855TIP3   OH214449   0.760   4.657   2.845
 4855TIP3    H114450   0.717   4.738   2.871
 4855TIP3    H214451   0.689   4.603   2.809
 4856TIP3   OH214452   0.836   4.949   3.070
 4856TIP3    H114453   0.883   4.872   3.104
 4856TIP3    H214454   0.893   4.983   3.000
 4857TIP3   OH214455   1.712   5.883   2.734
 4857TIP3    H114456   1.740   5.824   2.664
 4857TIP3    H214457   1.730   5.835   2.814
 4858TIP3   OH214458   1.594   5.378   3.029
 4858TIP3    H114459   1.641   5.299   3.001
 4858TIP3    H214460   1.663   5.436   3.061
 4859TIP3   OH214461   2.629   4.698   3.054
 4859TIP3    H114462   2.644   4.783   3.095
 4859TIP3    H214463   2.654   4.711   2.962
 4860TIP3   OH214464   1.996   4.868   3.071
 4860TIP3    H114465   2.029   4.782   3.098
 4860TIP3    H214466   1.958   4.852   2.984
 4861TIP3   OH214467   1.356   4.525   3.027
 4861TIP3    H114468   1.333   4.598   2.971
 4861TIP3    H214469   1.300   4.453   2.997
 4862TIP3   OH214470   2.051   4.630   2.669
 4862TIP3    H114471   2.115   4.624   2.740
 4862TIP3    H214472   2.102   4.664   2.595
 4863TIP3   OH214473   0.981   4.737   3.164
 4863TIP3    H114474   1.066   4.720   3.206
 4863TIP3    H214475   0.983   4.684   3.085
 4864TIP3   OH214476   1.392   4.945   2.979
 4864TIP3    H114477   1.486   4.929   2.983
 4864TIP3    H214478   1.356   4.863   2.944
 4865TIP3   OH214479   2.680   4.918   3.219
 4865TIP3    H114480   2.594   4.959   3.211
 4865TIP3    H214481   2.718   4.956   3.299
 4866TIP3   OH214482   1.334   4.530   3.484
 4866TIP3    H114483   1.286   4.564   3.409
 4866TIP3    H214484   1.278   4.548   3.559
 4867TIP3   OH214485   1.684   5.387   2.468
 4867TIP3    H114486   1.645   5.357   2.386
 4867TIP3    H214487   1.632   5.464   2.492
 4868TIP3   OH214488   1.448   5.313   3.251
 4868TIP3    H114489   1.432   5.395   3.297
 4868TIP3    H214490   1.493   5.339   3.170
 4869TIP3   OH214491   2.207   4.653   2.892
 4869TIP3    H114492   2.165   4.630   2.975
 4869TIP3    H214493   2.263   4.728   2.913
 4870TIP3   OH214494   1.232   4.637   3.250
 4870TIP3    H114495   1.287   4.712   3.273
 4870TIP3    H214496   1.278   4.595   3.178
 4871TIP3   OH214497   0.652   5.213   2.610
 4871TIP3    H114498   0.618   5.230   2.522
 4871TIP3    H214499   0.674   5.299   2.645
 4872TIP3   OH214500   2.085   5.709   2.847
 4872TIP3    H114501   1.997   5.705   2.884
 4872TIP3    H214502   2.085   5.789   2.794
 4873TIP3   OH214503   2.433   4.580   3.221
 4873TIP3    H114504   2.347   4.603   3.185
 4873TIP3    H214505   2.495   4.610   3.154
 4874TIP3   OH214506   1.679   4.223   3.215
 4874TIP3    H114507   1.670   4.130   3.237
 4874TIP3    H214508   1.603   4.265   3.253
 4875TIP3   OH214509   1.802   5.735   2.520
 4875TIP3    H114510   1.854   5.658   2.498
 4875TIP3    H214511   1.854   5.809   2.485
 4876TIP3   OH214512   1.939   5.507   2.454
 4876TIP3    H114513   1.862   5.450   2.456
 4876TIP3    H214514   1.988   5.485   2.534
 4877TIP3   OH214515   2.314   5.601   3.193
 4877TIP3    H114516   2.302   5.527   3.133
 4877TIP3    H214517   2.300   5.678   3.138
 4878TIP3   OH214518   1.610   5.009   2.462
 4878TIP3    H114519   1.527   5.052   2.442
 4878TIP3    H214520   1.656   5.008   2.378
 4879TIP3   OH214521   1.579   4.822   2.150
 4879TIP3    H114522   1.645   4.869   2.201
 4879TIP3    H214523   1.630   4.756   2.102
 4880TIP3   OH214524   2.502   5.262   3.058
 4880TIP3    H114525   2.418   5.308   3.057
 4880TIP3    H214526   2.539   5.278   2.971
 4881TIP3   OH214527   1.973   5.095   2.422
 4881TIP3    H114528   1.919   5.125   2.495
 4881TIP3    H214529   2.057   5.072   2.462
 4882TIP3   OH214530   2.201   5.120   3.370
 4882TIP3    H114531   2.199   5.205   3.414
 4882TIP3    H214532   2.120   5.117   3.319
 4883TIP3   OH214533   1.185   5.082   2.842
 4883TIP3    H114534   1.150   5.022   2.776
 4883TIP3    H214535   1.258   5.034   2.881
 4884TIP3   OH214536   1.331   5.503   2.974
 4884TIP3    H114537   1.299   5.483   2.886
 4884TIP3    H214538   1.419   5.464   2.976
 4885TIP3   OH214539   1.307   5.075   3.209
 4885TIP3    H114540   1.340   5.038   3.127
 4885TIP3    H214541   1.357   5.155   3.222
 4886TIP3   OH214542   1.844   5.703   2.977
 4886TIP3    H114543   1.829   5.784   3.026
 4886TIP3    H214544   1.827   5.633   3.040
 4887TIP3   OH214545   1.426   5.608   3.502
 4887TIP3    H114546   1.361   5.670   3.536
 4887TIP3    H214547   1.442   5.548   3.576
 4888TIP3   OH214548   1.801   4.959   2.256
 4888TIP3    H114549   1.861   5.016   2.304
 4888TIP3    H214550   1.832   4.962   2.165
 4889TIP3   OH214551   1.227   5.149   3.665
 4889TIP3    H114552   1.235   5.242   3.687
 4889TIP3    H214553   1.132   5.133   3.663
 4890TIP3   OH214554   1.549   5.627   2.507
 4890TIP3    H114555   1.632   5.672   2.521
 4890TIP3    H214556   1.495   5.690   2.459
 4891TIP3   OH214557   1.238   5.780   3.603
 4891TIP3    H114558   1.214   5.869   3.578
 4891TIP3    H214559   1.175   5.756   3.671
 4892TIP3   OH214560   2.312   4.180   2.314
 4892TIP3    H114561   2.236   4.199   2.368
 4892TIP3    H214562   2.323   4.257   2.258
 4893TIP3   OH214563   1.070   4.920   2.636
 4893TIP3    H114564   0.993   4.965   2.601
 4893TIP3    H214565   1.042   4.829   2.645
 4894TIP3   OH214566   2.138   5.562   1.861
 4894TIP3    H114567   2.133   5.657   1.847
 4894TIP3    H214568   2.227   5.539   1.835
 4895TIP3   OH214569   0.878   5.325   3.548
 4895TIP3    H114570   0.801   5.310   3.492
 4895TIP3    H214571   0.901   5.237   3.580
 4896TIP3   OH214572   0.683   5.534   3.203
 4896TIP3    H114573   0.769   5.563   3.175
 4896TIP3    H214574   0.640   5.613   3.235
 4897TIP3   OH214575   2.554   5.958   3.267
 4897TIP3    H114576   2.555   5.863   3.284
 4897TIP3    H214577   2.474   5.988   3.310
 4898TIP3   OH214578   1.641   5.747   3.390
 4898TIP3    H114579   1.632   5.837   3.420
 4898TIP3    H214580   1.564   5.702   3.425
 4899TIP3   OH214581   1.445   5.841   2.342
 4899TIP3    H114582   1.399   5.829   2.259
 4899TIP3    H214583   1.416   5.926   2.374
 4900TIP3   OH214584   0.881   5.703   2.720
 4900TIP3    H114585   0.922   5.695   2.807
 4900TIP3    H214586   0.829   5.624   2.710
 4901TIP3   OH214587   1.640   5.780   1.967
 4901TIP3    H114588   1.691   5.707   1.933
 4901TIP3    H214589   1.676   5.796   2.054
 4902TIP3   OH214590   1.702   5.831   2.233
 4902TIP3    H114591   1.620   5.826   2.283
 4902TIP3    H214592   1.771   5.829   2.299
 4903TIP3   OH214593   2.444   5.081   3.532
 4903TIP3    H114594   2.362   5.092   3.485
 4903TIP3    H214595   2.464   4.988   3.524
 4904TIP3   OH214596   1.096   5.482   3.503
 4904TIP3    H114597   1.152   5.474   3.581
 4904TIP3    H214598   1.021   5.425   3.522
 4905TIP3   OH214599   1.443   4.312   3.345
 4905TIP3    H114600   1.362   4.279   3.307
 4905TIP3    H214601   1.418   4.393   3.389
 4906TIP3   OH214602   1.975   4.436   3.541
 4906TIP3    H114603   2.045   4.413   3.603
 4906TIP3    H214604   1.894   4.422   3.591
 4907TIP3   OH214605   2.201   4.852   3.456
 4907TIP3    H114606   2.162   4.849   3.543
 4907TIP3    H214607   2.188   4.943   3.428
 4908TIP3   OH214608   1.885   4.939   1.996
 4908TIP3    H114609   1.837   4.941   1.914
 4908TIP3    H214610   1.967   4.986   1.978
 4909TIP3   OH214611   1.592   4.360   2.308
 4909TIP3    H114612   1.554   4.369   2.395
 4909TIP3    H214613   1.556   4.278   2.274
 4910TIP3   OH214614   1.381   4.848   3.352
 4910TIP3    H114615   1.332   4.853   3.434
 4910TIP3    H214616   1.363   4.931   3.308
 4911TIP3   OH214617   1.255   4.728   2.872
 4911TIP3    H114618   1.167   4.702   2.897
 4911TIP3    H214619   1.265   4.696   2.782
 4912TIP3   OH214620   1.734   4.803   2.596
 4912TIP3    H114621   1.687   4.876   2.556
 4912TIP3    H214622   1.793   4.771   2.527
 4913TIP3   OH214623   1.926   5.062   3.669
 4913TIP3    H114624   1.901   4.994   3.731
 4913TIP3    H214625   2.018   5.081   3.688
 4914TIP3   OH214626   1.902   4.814   2.819
 4914TIP3    H114627   1.835   4.835   2.755
 4914TIP3    H214628   1.951   4.741   2.780
 4915TIP3   OH214629   1.211   4.865   3.567
 4915TIP3    H114630   1.216   4.932   3.636
 4915TIP3    H214631   1.192   4.784   3.614
 4916TIP3   OH214632   1.255   4.342   2.290
 4916TIP3    H114633   1.244   4.345   2.385
 4916TIP3    H214634   1.177   4.386   2.256
 4917TIP3   OH214635   0.804   4.380   3.149
 4917TIP3    H114636   0.879   4.416   3.196
 4917TIP3    H214637   0.839   4.359   3.062
 4918TIP3   OH214638   0.714   4.360   2.654
 4918TIP3    H114639   0.757   4.395   2.576
 4918TIP3    H214640   0.649   4.426   2.677
 4919TIP3   OH214641   1.950   5.069   3.245
 4919TIP3    H114642   1.974   5.003   3.180
 4919TIP3    H214643   1.907   5.018   3.315
 4920TIP3   OH214644   1.624   4.519   2.921
 4920TIP3    H114645   1.545   4.517   2.976
 4920TIP3    H214646   1.696   4.509   2.983
 4921TIP3   OH214647   1.017   4.602   2.929
 4921TIP3    H114648   0.929   4.608   2.892
 4921TIP3    H214649   1.044   4.511   2.912
 4922TIP3   OH214650   1.270   4.607   2.626
 4922TIP3    H114651   1.364   4.616   2.615
 4922TIP3    H214652   1.234   4.624   2.539
 4923TIP3   OH214653   2.064   4.606   3.130
 4923TIP3    H114654   2.044   4.623   3.222
 4923TIP3    H214655   1.997   4.544   3.102
 4924TIP3   OH214656   1.158   4.633   2.378
 4924TIP3    H114657   1.094   4.583   2.328
 4924TIP3    H214658   1.212   4.677   2.312
 4925TIP3   OH214659   2.269   6.311   3.354
 4925TIP3    H114660   2.269   6.322   3.259
 4925TIP3    H214661   2.347   6.357   3.385
 4926TIP3   OH214662   1.229   5.422   3.745
 4926TIP3    H114663   1.307   5.439   3.799
 4926TIP3    H214664   1.155   5.434   3.805
 4927TIP3   OH214665   1.666   4.888   3.027
 4927TIP3    H114666   1.730   4.838   2.976
 4927TIP3    H214667   1.665   4.846   3.112
 4928TIP3   OH214668   1.161   4.354   2.909
 4928TIP3    H114669   1.132   4.277   2.960
 4928TIP3    H214670   1.178   4.319   2.822
 4929TIP3   OH214671   1.644   4.789   3.291
 4929TIP3    H114672   1.557   4.821   3.315
 4929TIP3    H214673   1.705   4.841   3.343
 4930TIP3   OH214674   1.369   5.144   2.409
 4930TIP3    H114675   1.295   5.087   2.385
 4930TIP3    H214676   1.344   5.182   2.493
 4931TIP3   OH214677   2.268   5.399   3.010
 4931TIP3    H114678   2.304   5.451   2.937
 4931TIP3    H214679   2.189   5.359   2.973
 4932TIP3   OH214680   1.846   4.460   2.318
 4932TIP3    H114681   1.753   4.439   2.311
 4932TIP3    H214682   1.848   4.555   2.328
 4933TIP3   OH214683   1.766   5.500   3.445
 4933TIP3    H114684   1.852   5.506   3.487
 4933TIP3    H214685   1.742   5.590   3.426
 4934TIP3   OH214686   1.900   4.727   2.382
 4934TIP3    H114687   1.995   4.731   2.392
 4934TIP3    H214688   1.878   4.805   2.330
 4935TIP3   OH214689   1.106   5.229   3.074
 4935TIP3    H114690   1.119   5.193   2.987
 4935TIP3    H214691   1.149   5.166   3.133
 4936TIP3   OH214692   1.526   5.299   2.250
 4936TIP3    H114693   1.479   5.383   2.244
 4936TIP3    H214694   1.470   5.243   2.303
 4937TIP3   OH214695   0.952   5.089   3.684
 4937TIP3    H114696   0.950   5.060   3.775
 4937TIP3    H214697   0.879   5.043   3.642
 4938TIP3   OH214698   1.693   5.210   3.722
 4938TIP3    H114699   1.623   5.152   3.692
 4938TIP3    H214700   1.773   5.170   3.687
 4939TIP3   OH214701   1.918   5.762   3.322
 4939TIP3    H114702   1.823   5.768   3.318
 4939TIP3    H214703   1.942   5.806   3.403
 4940TIP3   OH214704   2.312   4.811   2.196
 4940TIP3    H114705   2.257   4.765   2.133
 4940TIP3    H214706   2.318   4.901   2.163
 4941TIP3   OH214707   2.562   5.673   3.286
 4941TIP3    H114708   2.467   5.662   3.273
 4941TIP3    H214709   2.600   5.651   3.201
 4942TIP3   OH214710   2.057   5.632   2.135
 4942TIP3    H114711   2.027   5.568   2.199
 4942TIP3    H214712   2.072   5.581   2.055
 4943TIP3   OH214713   2.040   5.263   2.905
 4943TIP3    H114714   1.950   5.243   2.929
 4943TIP3    H214715   2.073   5.181   2.868
 4944TIP3   OH214716   1.178   5.499   2.734
 4944TIP3    H114717   1.187   5.578   2.681
 4944TIP3    H214718   1.094   5.462   2.707
 4945TIP3   OH214719   0.762   4.782   2.440
 4945TIP3    H114720   0.801   4.867   2.461
 4945TIP3    H214721   0.680   4.781   2.490
 4946TIP3   OH214722   1.275   5.253   2.639
 4946TIP3    H114723   1.267   5.343   2.670
 4946TIP3    H214724   1.246   5.199   2.712
 4947TIP3   OH214725   1.475   5.815   3.166
 4947TIP3    H114726   1.509   5.895   3.125
 4947TIP3    H214727   1.541   5.790   3.230
 4948TIP3   OH214728   1.115   5.721   2.576
 4948TIP3    H114729   1.028   5.730   2.615
 4948TIP3    H214730   1.151   5.810   2.578
 4949TIP3   OH214731   1.817   5.486   3.161
 4949TIP3    H114732   1.797   5.482   3.255
 4949TIP3    H214733   1.906   5.452   3.154
 4950TIP3   OH214734   1.824   5.362   2.015
 4950TIP3    H114735   1.874   5.333   2.091
 4950TIP3    H214736   1.739   5.317   2.024
 4951TIP3   OH214737   2.080   5.974   3.195
 4951TIP3    H114738   2.005   5.917   3.212
 4951TIP3    H214739   2.053   6.027   3.120
 4952TIP3   OH214740   2.144   5.839   1.833
 4952TIP3    H114741   2.190   5.913   1.794
 4952TIP3    H214742   2.065   5.876   1.871
 4953TIP3   OH214743   1.161   4.612   3.685
 4953TIP3    H114744   1.066   4.623   3.687
 4953TIP3    H214745   1.181   4.567   3.768
 4954TIP3   OH214746   1.998   5.269   2.205
 4954TIP3    H114747   1.982   5.220   2.286
 4954TIP3    H214748   2.093   5.281   2.203
 4955TIP3   OH214749   0.950   5.713   3.358
 4955TIP3    H114750   0.871   5.689   3.408
 4955TIP3    H214751   0.950   5.808   3.357
 4956TIP3   OH214752   1.171   5.330   2.031
 4956TIP3    H114753   1.182   5.238   2.005
 4956TIP3    H214754   1.158   5.326   2.126
 4957TIP3   OH214755   1.118   5.346   2.304
 4957TIP3    H114756   1.191   5.320   2.361
 4957TIP3    H214757   1.115   5.441   2.310
 4958TIP3   OH214758   0.848   5.037   2.519
 4958TIP3    H114759   0.782   5.085   2.567
 4958TIP3    H214760   0.869   5.093   2.444
 4959TIP3   OH214761   2.005   4.667   3.392
 4959TIP3    H114762   2.084   4.711   3.422
 4959TIP3    H214763   1.997   4.589   3.448
 4960TIP3   OH214764   1.904   4.410   2.585
 4960TIP3    H114765   1.883   4.428   2.493
 4960TIP3    H214766   1.948   4.490   2.615
 4961TIP3   OH214767   1.380   5.527   2.239
 4961TIP3    H114768   1.297   5.555   2.278
 4961TIP3    H214769   1.410   5.604   2.191
 4962TIP3   OH214770   1.550   4.612   2.670
 4962TIP3    H114771   1.611   4.680   2.643
 4962TIP3    H214772   1.574   4.592   2.760
 4963TIP3   OH214773   1.850   4.904   3.441
 4963TIP3    H114774   1.876   4.945   3.524
 4963TIP3    H214775   1.899   4.821   3.439
 4964TIP3   OH214776   1.710   4.311   2.755
 4964TIP3    H114777   1.687   4.388   2.807
 4964TIP3    H214778   1.781   4.341   2.698
 4965TIP3   OH214779   1.133   5.618   2.322
 4965TIP3    H114780   1.113   5.689   2.262
 4965TIP3    H214781   1.126   5.658   2.409
 4966TIP3   OH214782   1.225   4.334   2.570
 4966TIP3    H114783   1.214   4.425   2.597
 4966TIP3    H214784   1.319   4.319   2.573
 4967TIP3   OH214785   2.469   4.813   3.440
 4967TIP3    H114786   2.373   4.812   3.448
 4967TIP3    H214787   2.486   4.772   3.355
 4968TIP3   OH214788   2.129   5.003   2.819
 4968TIP3    H114789   2.052   4.947   2.830
 4968TIP3    H214790   2.196   4.964   2.875
 4969TIP3   OH214791   0.878   5.210   2.301
 4969TIP3    H114792   0.950   5.272   2.308
 4969TIP3    H214793   0.906   5.147   2.235
 4970TIP3   OH214794   0.776   4.504   2.430
 4970TIP3    H114795   0.789   4.598   2.438
 4970TIP3    H214796   0.714   4.495   2.358
 4971TIP3   OH214797   2.102   5.965   2.740
 4971TIP3    H114798   2.058   6.022   2.677
 4971TIP3    H214799   2.194   5.993   2.738
 4972TIP3   OH214800   1.185   4.230   3.287
 4972TIP3    H114801   1.155   4.201   3.201
 4972TIP3    H214802   1.170   4.154   3.344
 4973TIP3   OH214803   0.707   5.480   2.693
 4973TIP3    H114804   0.660   5.517   2.768
 4973TIP3    H214805   0.666   5.522   2.617
 4974TIP3   OH214806   0.903   5.998   3.749
 4974TIP3    H114807   0.982   6.003   3.803
 4974TIP3    H214808   0.873   5.908   3.758
 4975TIP3   OH214809   1.365   5.937   3.817
 4975TIP3    H114810   1.458   5.946   3.835
 4975TIP3    H214811   1.360   5.867   3.752
 4976TIP3   OH214812   1.322   5.532   1.918
 4976TIP3    H114813   1.276   5.462   1.965
 4976TIP3    H214814   1.398   5.488   1.880
 4977TIP3   OH214815   1.982   5.871   3.564
 4977TIP3    H114816   1.999   5.803   3.629
 4977TIP3    H214817   2.056   5.931   3.573
 4978TIP3   OH214818   1.769   5.570   1.846
 4978TIP3    H114819   1.802   5.506   1.909
 4978TIP3    H214820   1.831   5.565   1.772
 4979TIP3   OH214821   1.024   5.423   3.933
 4979TIP3    H114822   1.039   5.329   3.949
 4979TIP3    H214823   0.936   5.426   3.894
 4980TIP3   OH214824   0.996   5.020   2.145
 4980TIP3    H114825   1.046   4.995   2.222
 4980TIP3    H214826   1.062   5.035   2.077
 4981TIP3   OH214827   1.626   5.478   3.696
 4981TIP3    H114828   1.662   5.497   3.609
 4981TIP3    H214829   1.655   5.389   3.715
 4982TIP3   OH214830   1.569   5.244   1.984
 4982TIP3    H114831   1.545   5.254   2.076
 4982TIP3    H214832   1.549   5.153   1.964
 4983TIP3   OH214833   2.085   5.541   3.337
 4983TIP3    H114834   2.165   5.565   3.291
 4983TIP3    H214835   2.027   5.616   3.327
 4984TIP3   OH214836   1.129   5.167   3.959
 4984TIP3    H114837   1.206   5.131   3.915
 4984TIP3    H214838   1.159   5.185   4.048
 4985TIP3   OH214839   1.165   4.963   2.361
 4985TIP3    H114840   1.144   4.930   2.449
 4985TIP3    H214841   1.214   4.892   2.320
 4986TIP3   OH214842   1.486   5.046   3.620
 4986TIP3    H114843   1.398   5.084   3.628
 4986TIP3    H214844   1.515   5.072   3.532
 4987TIP3   OH214845   1.309   4.783   2.205
 4987TIP3    H114846   1.278   4.787   2.115
 4987TIP3    H214847   1.404   4.793   2.198
 4988TIP3   OH214848   1.984   5.421   3.699
 4988TIP3    H114849   2.050   5.381   3.642
 4988TIP3    H214850   1.980   5.364   3.775
 4989TIP3   OH214851   2.101   5.072   1.882
 4989TIP3    H114852   2.086   5.031   1.796
 4989TIP3    H214853   2.078   5.164   1.868
 4990TIP3   OH214854   1.589   4.813   3.722
 4990TIP3    H114855   1.590   4.744   3.656
 4990TIP3    H214856   1.554   4.890   3.676
 4991TIP3   OH214857   1.594   4.615   3.518
 4991TIP3    H114858   1.621   4.653   3.434
 4991TIP3    H214859   1.503   4.590   3.504
 4992TIP3   OH214860   1.601   5.130   3.388
 4992TIP3    H114861   1.692   5.152   3.374
 4992TIP3    H214862   1.552   5.195   3.339
 4993TIP3   OH214863   2.193   5.109   3.766
 4993TIP3    H114864   2.247   5.030   3.767
 4993TIP3    H214865   2.257   5.181   3.761
 4994TIP3   OH214866   2.220   5.369   3.502
 4994TIP3    H114867   2.166   5.429   3.452
 4994TIP3    H214868   2.309   5.386   3.472
 4995TIP3   OH214869   1.473   4.896   3.966
 4995TIP3    H114870   1.399   4.838   3.986
 4995TIP3    H214871   1.498   4.872   3.876
 4996TIP3   OH214872   1.711   4.389   3.632
 4996TIP3    H114873   1.673   4.468   3.594
 4996TIP3    H214874   1.646   4.321   3.614
 4997TIP3   OH214875   1.844   4.852   3.826
 4997TIP3    H114876   1.831   4.841   3.920
 4997TIP3    H214877   1.758   4.832   3.788
 4998TIP3   OH214878   2.091   4.810   3.698
 4998TIP3    H114879   2.012   4.810   3.753
 4998TIP3    H214880   2.162   4.790   3.759
 4999TIP3   OH214881   2.325   4.775   3.849
 4999TIP3    H114882   2.338   4.680   3.856
 4999TIP3    H214883   2.320   4.805   3.939
 5000TIP3   OH214884   1.303   4.676   4.026
 5000TIP3    H114885   1.305   4.587   3.992
 5000TIP3    H214886   1.340   4.670   4.114
 5001TIP3   OH214887   1.774   4.348   3.895
 5001TIP3    H114888   1.849   4.291   3.882
 5001TIP3    H214889   1.742   4.368   3.807
 5002TIP3   OH214890   1.872   4.568   4.036
 5002TIP3    H114891   1.838   4.500   3.977
 5002TIP3    H214892   1.803   4.635   4.038
 5003TIP3   OH214893   1.126   5.823   2.136
 5003TIP3    H114894   1.216   5.806   2.109
 5003TIP3    H214895   1.087   5.869   2.061
 5004TIP3   OH214896   0.606   5.210   2.320
 5004TIP3    H114897   0.702   5.220   2.316
 5004TIP3    H214898   0.590   5.124   2.282
 5005TIP3   OH214899   0.525   5.784   2.739
 5005TIP3    H114900   0.460   5.732   2.692
 5005TIP3    H214901   0.559   5.725   2.806
 5006TIP3   OH214902   0.637   5.624   2.931
 5006TIP3    H114903   0.615   5.568   3.006
 5006TIP3    H214904   0.690   5.694   2.969
 5007TIP3   OH214905   2.369   6.044   2.762
 5007TIP3    H114906   2.387   6.056   2.855
 5007TIP3    H214907   2.388   6.130   2.723
 5008TIP3   OH214908   2.406   6.052   3.039
 5008TIP3    H114909   2.355   5.971   3.036
 5008TIP3    H214910   2.474   6.035   3.104
 5009TIP3   OH214911   2.458   5.759   3.610
 5009TIP3    H114912   2.384   5.770   3.669
 5009TIP3    H214913   2.504   5.843   3.612
 5010TIP3   OH214914   2.278   5.276   2.214
 5010TIP3    H114915   2.334   5.349   2.185
 5010TIP3    H214916   2.324   5.239   2.290
 5011TIP3   OH214917   2.410   5.135   2.416
 5011TIP3    H114918   2.342   5.099   2.473
 5011TIP3    H214919   2.474   5.173   2.476
 5012TIP3   OH214920   2.451   5.546   2.854
 5012TIP3    H114921   2.501   5.481   2.805
 5012TIP3    H214922   2.450   5.624   2.798
 5013TIP3   OH214923   2.253   5.820   3.041
 5013TIP3    H114924   2.186   5.867   3.091
 5013TIP3    H214925   2.205   5.781   2.968
 5014TIP3   OH214926   2.308   5.051   2.061
 5014TIP3    H114927   2.236   5.052   1.998
 5014TIP3    H214928   2.294   5.129   2.114
 5015TIP3   OH214929   2.165   4.697   1.996
 5015TIP3    H114930   2.114   4.730   1.922
 5015TIP3    H214931   2.159   4.602   1.988
 5016TIP3   OH214932   2.203   4.998   2.551
 5016TIP3    H114933   2.206   4.904   2.536
 5016TIP3    H214934   2.182   5.007   2.644
 5017TIP3   OH214935   0.825   5.075   3.312
 5017TIP3    H114936   0.813   5.036   3.225
 5017TIP3    H214937   0.918   5.065   3.331
 5018TIP3   OH214938   2.481   5.415   3.415
 5018TIP3    H114939   2.546   5.348   3.396
 5018TIP3    H214940   2.504   5.489   3.358
 5019TIP3   OH214941   2.656   5.201   3.403
 5019TIP3    H114942   2.582   5.161   3.450
 5019TIP3    H214943   2.731   5.145   3.425
 5020TIP3   OH214944   2.131   4.425   1.971
 5020TIP3    H114945   2.194   4.401   2.039
 5020TIP3    H214946   2.047   4.390   2.002
 5021TIP3   OH214947   2.192   4.720   2.438
 5021TIP3    H114948   2.238   4.636   2.450
 5021TIP3    H214949   2.233   4.758   2.360
 5022TIP3   OH214950   2.345   4.885   2.963
 5022TIP3    H114951   2.425   4.902   2.914
 5022TIP3    H214952   2.360   4.926   3.049
 5023TIP3   OH214953   2.421   5.033   3.191
 5023TIP3    H114954   2.349   5.062   3.248
 5023TIP3    H214955   2.451   5.113   3.148
 5024TIP3   OH214956   1.042   4.741   3.962
 5024TIP3    H114957   1.135   4.741   3.983
 5024TIP3    H214958   1.007   4.663   4.004
 5025TIP3   OH214959   2.883   4.624   3.728
 5025TIP3    H114960   2.949   4.571   3.684
 5025TIP3    H214961   2.844   4.677   3.658
 5026TIP3   OH214962   2.309   4.470   2.490
 5026TIP3    H114963   2.354   4.455   2.573
 5026TIP3    H214964   2.246   4.398   2.484
 5027TIP3   OH214965   1.022   4.452   3.306
 5027TIP3    H114966   1.075   4.373   3.311
 5027TIP3    H214967   1.085   4.523   3.292
 5028TIP3   OH214968   0.807   4.707   3.385
 5028TIP3    H114969   0.856   4.702   3.303
 5028TIP3    H214970   0.829   4.793   3.420
 5029TIP3   OH214971   2.732   4.749   3.539
 5029TIP3    H114972   2.653   4.791   3.574
 5029TIP3    H214973   2.698   4.679   3.482
 5030TIP3   OH214974   2.353   4.381   2.132
 5030TIP3    H114975   2.402   4.323   2.073
 5030TIP3    H214976   2.406   4.461   2.137
 5031TIP3   OH214977   0.786   4.232   2.884
 5031TIP3    H114978   0.700   4.217   2.923
 5031TIP3    H214979   0.768   4.284   2.806
 5032TIP3   OH214980   1.929   5.938   2.394
 5032TIP3    H114981   1.993   5.936   2.322
 5032TIP3    H214982   1.952   6.015   2.445
 5033TIP3   OH214983   1.003   4.267   3.700
 5033TIP3    H114984   0.957   4.273   3.784
 5033TIP3    H214985   0.951   4.323   3.641
 5034TIP3   OH214986   1.052   5.728   3.796
 5034TIP3    H114987   0.958   5.718   3.784
 5034TIP3    H214988   1.065   5.719   3.890
 5035TIP3   OH214989   1.642   6.014   3.465
 5035TIP3    H114990   1.681   6.009   3.552
 5035TIP3    H214991   1.702   6.068   3.414
 5036TIP3   OH214992   1.831   6.174   3.341
 5036TIP3    H114993   1.892   6.133   3.279
 5036TIP3    H214994   1.886   6.230   3.395
 5037TIP3   OH214995   2.638   4.507   3.420
 5037TIP3    H114996   2.557   4.511   3.369
 5037TIP3    H214997   2.667   4.416   3.413
 5038TIP3   OH214998   0.903   5.994   3.358
 5038TIP3    H114999   0.813   6.016   3.334
 5038TIP3    H215000   0.927   6.060   3.423
 5039TIP3   OH215001   1.148   6.022   3.222
 5039TIP3    H115002   1.063   6.016   3.265
 5039TIP3    H215003   1.127   6.045   3.131
 5040TIP3   OH215004   1.550   6.039   3.020
 5040TIP3    H115005   1.487   6.053   2.950
 5040TIP3    H215006   1.565   6.126   3.057
 5041TIP3   OH215007   1.804   5.954   3.079
 5041TIP3    H115008   1.716   5.982   3.056
 5041TIP3    H215009   1.862   6.013   3.030
 5042TIP3   OH215010   2.004   6.099   2.963
 5042TIP3    H115011   2.023   6.189   2.939
 5042TIP3    H215012   2.032   6.048   2.887
 5043TIP3   OH215013   0.816   5.804   3.050
 5043TIP3    H115014   0.824   5.826   3.143
 5043TIP3    H215015   0.900   5.766   3.026
 5044TIP3   OH215016   1.038   5.678   2.954
 5044TIP3    H115017   1.073   5.590   2.944
 5044TIP3    H215018   1.116   5.734   2.955
 5045TIP3   OH215019   1.291   5.786   2.966
 5045TIP3    H115020   1.322   5.698   2.944
 5045TIP3    H215021   1.341   5.810   3.044
 5046TIP3   OH215022   1.850   4.424   3.062
 5046TIP3    H115023   1.810   4.351   3.111
 5046TIP3    H215024   1.918   4.382   3.010
 5047TIP3   OH215025   2.353   4.337   2.950
 5047TIP3    H115026   2.390   4.386   2.876
 5047TIP3    H215027   2.260   4.358   2.949
 5048TIP3   OH215028   2.466   4.414   2.712
 5048TIP3    H115029   2.534   4.352   2.684
 5048TIP3    H215030   2.506   4.500   2.699
 5049TIP3   OH215031   1.091   4.125   3.051
 5049TIP3    H115032   1.001   4.092   3.062
 5049TIP3    H215033   1.144   4.046   3.044
 5050TIP3   OH215034   0.917   4.038   2.722
 5050TIP3    H115035   0.939   4.087   2.643
 5050TIP3    H215036   0.878   4.104   2.780
 5051TIP3   OH215037   1.569   4.165   2.955
 5051TIP3    H115038   1.616   4.211   2.885
 5051TIP3    H215039   1.614   4.194   3.035
 5052TIP3   OH215040   2.066   4.309   2.931
 5052TIP3    H115041   2.073   4.273   2.843
 5052TIP3    H215042   2.070   4.233   2.989
 5053TIP3   OH215043   2.124   4.258   2.502
 5053TIP3    H115044   2.045   4.306   2.526
 5053TIP3    H215045   2.113   4.171   2.541
 5054TIP3   OH215046   0.598   5.595   2.470
 5054TIP3    H115047   0.516   5.560   2.436
 5054TIP3    H215048   0.600   5.686   2.440
 5055TIP3   OH215049   1.015   4.166   2.485
 5055TIP3    H115050   1.059   4.102   2.429
 5055TIP3    H215051   1.085   4.221   2.518
 5056TIP3   OH215052   1.500   4.362   2.569
 5056TIP3    H115053   1.557   4.307   2.622
 5056TIP3    H215054   1.516   4.451   2.600
 5057TIP3   OH215055   1.384   5.754   2.067
 5057TIP3    H115056   1.469   5.780   2.031
 5057TIP3    H215057   1.355   5.683   2.011
 5058TIP3   OH215058   2.090   5.902   2.167
 5058TIP3    H115059   2.083   5.806   2.161
 5058TIP3    H215060   2.045   5.934   2.089
 5059TIP3   OH215061   1.312   4.403   3.940
 5059TIP3    H115062   1.276   4.336   3.998
 5059TIP3    H215063   1.403   4.412   3.968
 5060TIP3   OH215064   1.557   4.411   4.065
 5060TIP3    H115065   1.634   4.386   4.014
 5060TIP3    H215066   1.547   4.340   4.129
 5061TIP3   OH215067   0.691   5.586   2.128
 5061TIP3    H115068   0.695   5.599   2.223
 5061TIP3    H215069   0.774   5.543   2.106
 5062TIP3   OH215070   2.387   4.502   3.852
 5062TIP3    H115071   2.406   4.473   3.941
 5062TIP3    H215072   2.471   4.497   3.807
 5063TIP3   OH215073   2.302   6.036   3.355
 5063TIP3    H115074   2.228   6.006   3.303
 5063TIP3    H215075   2.291   6.131   3.362
 5064TIP3   OH215076   3.582   5.442   2.079
 5064TIP3    H115077   3.583   5.465   2.172
 5064TIP3    H215078   3.508   5.382   2.070
 5065TIP3   OH215079   3.559   5.395   2.524
 5065TIP3    H115080   3.615   5.388   2.602
 5065TIP3    H215081   3.520   5.309   2.514
 5066TIP3   OH215082   2.879   5.276   2.863
 5066TIP3    H115083   2.917   5.225   2.934
 5066TIP3    H215084   2.954   5.301   2.808
 5067TIP3   OH215085   3.861   5.712   2.202
 5067TIP3    H115086   3.831   5.642   2.261
 5067TIP3    H215087   3.942   5.744   2.241
 5068TIP3   OH215088   2.875   5.693   2.563
 5068TIP3    H115089   2.852   5.600   2.560
 5068TIP3    H215090   2.944   5.699   2.630
 5069TIP3   OH215091   2.552   4.906   2.332
 5069TIP3    H115092   2.515   4.990   2.358
 5069TIP3    H215093   2.479   4.859   2.292
 5070TIP3   OH215094   2.637   5.223   2.559
 5070TIP3    H115095   2.686   5.145   2.584
 5070TIP3    H215096   2.704   5.287   2.536
 5071TIP3   OH215097   3.480   6.111   2.213
 5071TIP3    H115098   3.509   6.044   2.151
 5071TIP3    H215099   3.496   6.072   2.299
 5072TIP3   OH215100   3.397   5.627   2.528
 5072TIP3    H115101   3.442   5.544   2.513
 5072TIP3    H215102   3.467   5.689   2.546
 5073TIP3   OH215103   4.426   4.950   2.539
 5073TIP3    H115104   4.438   5.033   2.585
 5073TIP3    H215105   4.454   4.969   2.449
 5074TIP3   OH215106   3.783   5.123   2.559
 5074TIP3    H115107   3.821   5.041   2.589
 5074TIP3    H215108   3.745   5.102   2.473
 5075TIP3   OH215109   3.148   4.781   2.517
 5075TIP3    H115110   3.127   4.855   2.459
 5075TIP3    H215111   3.092   4.710   2.486
 5076TIP3   OH215112   3.849   4.884   2.156
 5076TIP3    H115113   3.913   4.881   2.227
 5076TIP3    H215114   3.898   4.919   2.081
 5077TIP3   OH215115   2.773   4.997   2.649
 5077TIP3    H115116   2.856   4.979   2.692
 5077TIP3    H215117   2.775   4.946   2.568
 5078TIP3   OH215118   3.191   5.197   2.461
 5078TIP3    H115119   3.285   5.177   2.470
 5078TIP3    H215120   3.153   5.116   2.429
 5079TIP3   OH215121   4.463   5.158   2.721
 5079TIP3    H115122   4.389   5.216   2.705
 5079TIP3    H215123   4.458   5.138   2.814
 5080TIP3   OH215124   3.130   4.787   2.969
 5080TIP3    H115125   3.081   4.823   2.895
 5080TIP3    H215126   3.075   4.805   3.045
 5081TIP3   OH215127   3.423   5.717   1.942
 5081TIP3    H115128   3.401   5.630   1.907
 5081TIP3    H215129   3.514   5.708   1.972
 5082TIP3   OH215130   3.222   5.564   2.732
 5082TIP3    H115131   3.170   5.638   2.762
 5082TIP3    H215132   3.278   5.600   2.664
 5083TIP3   OH215133   4.003   4.916   2.379
 5083TIP3    H115134   3.961   4.893   2.462
 5083TIP3    H215135   4.061   4.989   2.400
 5084TIP3   OH215136   3.021   4.894   2.738
 5084TIP3    H115137   3.075   4.969   2.761
 5084TIP3    H215138   3.067   4.851   2.666
 5085TIP3   OH215139   3.057   5.769   2.820
 5085TIP3    H115140   3.054   5.862   2.801
 5085TIP3    H215141   2.986   5.754   2.882
 5086TIP3   OH215142   2.446   5.469   2.096
 5086TIP3    H115143   2.406   5.495   2.012
 5086TIP3    H215144   2.470   5.552   2.137
 5087TIP3   OH215145   4.233   4.844   2.716
 5087TIP3    H115146   4.148   4.864   2.676
 5087TIP3    H215147   4.297   4.870   2.650
 5088TIP3   OH215148   3.473   4.477   2.703
 5088TIP3    H115149   3.466   4.385   2.728
 5088TIP3    H215150   3.395   4.518   2.742
 5089TIP3   OH215151   3.538   5.969   1.971
 5089TIP3    H115152   3.599   5.896   1.983
 5089TIP3    H215153   3.594   6.044   1.950
 5090TIP3   OH215154   3.697   5.746   1.982
 5090TIP3    H115155   3.749   5.704   1.913
 5090TIP3    H215156   3.751   5.737   2.060
 5091TIP3   OH215157   4.087   5.914   2.663
 5091TIP3    H115158   4.109   5.872   2.580
 5091TIP3    H215159   4.038   5.992   2.638
 5092TIP3   OH215160   3.406   5.263   1.951
 5092TIP3    H115161   3.323   5.304   1.927
 5092TIP3    H215162   3.455   5.258   1.869
 5093TIP3   OH215163   3.381   5.070   1.630
 5093TIP3    H115164   3.446   5.117   1.682
 5093TIP3    H215165   3.431   5.002   1.585
 5094TIP3   OH215166   4.279   5.548   2.547
 5094TIP3    H115167   4.224   5.622   2.522
 5094TIP3    H215168   4.323   5.522   2.466
 5095TIP3   OH215169   3.767   5.365   1.896
 5095TIP3    H115170   3.712   5.396   1.968
 5095TIP3    H215171   3.847   5.335   1.939
 5096TIP3   OH215172   3.992   5.381   2.858
 5096TIP3    H115173   3.992   5.465   2.903
 5096TIP3    H215174   3.912   5.381   2.806
 5097TIP3   OH215175   3.003   5.336   2.303
 5097TIP3    H115176   2.964   5.273   2.242
 5097TIP3    H215177   3.073   5.288   2.346
 5098TIP3   OH215178   3.166   5.764   2.441
 5098TIP3    H115179   3.122   5.697   2.388
 5098TIP3    H215180   3.250   5.724   2.466
 5099TIP3   OH215181   3.092   5.327   2.685
 5099TIP3    H115182   3.132   5.291   2.606
 5099TIP3    H215183   3.141   5.408   2.702
 5100TIP3   OH215184   3.553   5.974   2.444
 5100TIP3    H115185   3.596   6.049   2.485
 5100TIP3    H215186   3.583   5.899   2.494
 5101TIP3   OH215187   3.263   5.857   3.004
 5101TIP3    H115188   3.202   5.914   3.051
 5101TIP3    H215189   3.207   5.809   2.943
 5102TIP3   OH215190   3.595   5.215   1.744
 5102TIP3    H115191   3.656   5.272   1.790
 5102TIP3    H215192   3.622   5.220   1.652
 5103TIP3   OH215193   3.020   5.408   3.156
 5103TIP3    H115194   3.024   5.503   3.173
 5103TIP3    H215195   2.927   5.390   3.148
 5104TIP3   OH215196   3.056   6.017   3.095
 5104TIP3    H115197   3.033   6.035   3.004
 5104TIP3    H215198   2.972   6.005   3.139
 5105TIP3   OH215199   4.108   4.438   1.797
 5105TIP3    H115200   4.032   4.460   1.852
 5105TIP3    H215201   4.118   4.514   1.740
 5106TIP3   OH215202   2.870   5.175   2.109
 5106TIP3    H115203   2.791   5.220   2.082
 5106TIP3    H215204   2.841   5.086   2.129
 5107TIP3   OH215205   3.923   5.820   1.342
 5107TIP3    H115206   3.928   5.914   1.323
 5107TIP3    H215207   4.011   5.787   1.323
 5108TIP3   OH215208   2.654   5.582   3.046
 5108TIP3    H115209   2.584   5.566   2.983
 5108TIP3    H215210   2.687   5.496   3.068
 5109TIP3   OH215211   2.486   5.793   2.714
 5109TIP3    H115212   2.572   5.825   2.739
 5109TIP3    H215213   2.427   5.868   2.729
 5110TIP3   OH215214   4.337   6.195   2.743
 5110TIP3    H115215   4.337   6.102   2.762
 5110TIP3    H215216   4.261   6.229   2.791
 5111TIP3   OH215217   3.459   6.001   2.872
 5111TIP3    H115218   3.451   6.093   2.898
 5111TIP3    H215219   3.390   5.957   2.921
 5112TIP3   OH215220   3.285   6.089   1.875
 5112TIP3    H115221   3.211   6.103   1.815
 5112TIP3    H215222   3.274   6.156   1.942
 5113TIP3   OH215223   2.673   5.959   2.202
 5113TIP3    H115224   2.728   5.952   2.279
 5113TIP3    H215225   2.626   5.876   2.198
 5114TIP3   OH215226   3.441   6.029   1.440
 5114TIP3    H115227   3.501   5.961   1.408
 5114TIP3    H215228   3.477   6.055   1.525
 5115TIP3   OH215229   3.501   6.103   1.699
 5115TIP3    H115230   3.428   6.111   1.760
 5115TIP3    H215231   3.579   6.109   1.754
 5116TIP3   OH215232   4.248   5.324   3.015
 5116TIP3    H115233   4.167   5.347   2.970
 5116TIP3    H215234   4.262   5.232   2.994
 5117TIP3   OH215235   2.857   5.765   3.007
 5117TIP3    H115236   2.905   5.756   3.089
 5117TIP3    H215237   2.782   5.706   3.016
 5118TIP3   OH215238   3.234   4.568   2.828
 5118TIP3    H115239   3.150   4.535   2.795
 5118TIP3    H215240   3.212   4.650   2.873
 5119TIP3   OH215241   3.776   4.692   3.030
 5119TIP3    H115242   3.846   4.670   3.091
 5119TIP3    H215243   3.695   4.677   3.079
 5120TIP3   OH215244   3.977   5.114   2.936
 5120TIP3    H115245   3.946   5.110   3.026
 5120TIP3    H215246   3.973   5.207   2.913
 5121TIP3   OH215247   3.670   5.213   1.483
 5121TIP3    H115248   3.629   5.204   1.396
 5121TIP3    H215249   3.756   5.251   1.464
 5122TIP3   OH215250   3.382   4.614   1.795
 5122TIP3    H115251   3.347   4.620   1.884
 5122TIP3    H215252   3.348   4.531   1.762
 5123TIP3   OH215253   3.172   5.105   2.833
 5123TIP3    H115254   3.128   5.113   2.918
 5123TIP3    H215255   3.151   5.187   2.788
 5124TIP3   OH215256   3.049   4.982   2.357
 5124TIP3    H115257   2.961   4.957   2.382
 5124TIP3    H215258   3.059   4.949   2.267
 5125TIP3   OH215259   3.531   5.057   2.083
 5125TIP3    H115260   3.484   5.129   2.043
 5125TIP3    H215261   3.590   5.025   2.015
 5126TIP3   OH215262   3.721   5.321   3.155
 5126TIP3    H115263   3.695   5.254   3.218
 5126TIP3    H215264   3.813   5.338   3.174
 5127TIP3   OH215265   3.690   5.056   2.311
 5127TIP3    H115266   3.626   5.075   2.243
 5127TIP3    H215267   3.745   4.988   2.273
 5128TIP3   OH215268   3.012   5.121   3.057
 5128TIP3    H115269   3.028   5.184   3.126
 5128TIP3    H215270   2.994   5.039   3.103
 5129TIP3   OH215271   3.052   4.591   1.773
 5129TIP3    H115272   3.043   4.596   1.868
 5129TIP3    H215273   2.974   4.635   1.740
 5130TIP3   OH215274   2.602   4.635   2.640
 5130TIP3    H115275   2.673   4.673   2.691
 5130TIP3    H215276   2.640   4.621   2.553
 5131TIP3   OH215277   2.502   4.615   2.140
 5131TIP3    H115278   2.546   4.649   2.062
 5131TIP3    H215279   2.439   4.683   2.164
 5132TIP3   OH215280   3.735   5.325   2.734
 5132TIP3    H115281   3.762   5.258   2.671
 5132TIP3    H215282   3.694   5.276   2.805
 5133TIP3   OH215283   3.417   4.770   2.405
 5133TIP3    H115284   3.339   4.770   2.462
 5133TIP3    H215285   3.490   4.759   2.465
 5134TIP3   OH215286   2.811   4.856   2.416
 5134TIP3    H115287   2.724   4.861   2.378
 5134TIP3    H215288   2.840   4.767   2.400
 5135TIP3   OH215289   3.064   4.861   2.111
 5135TIP3    H115290   3.159   4.870   2.102
 5135TIP3    H215291   3.030   4.878   2.023
 5136TIP3   OH215292   3.857   4.860   2.611
 5136TIP3    H115293   3.838   4.875   2.704
 5136TIP3    H215294   3.791   4.797   2.582
 5137TIP3   OH215295   2.956   4.885   1.860
 5137TIP3    H115296   2.894   4.835   1.808
 5137TIP3    H215297   3.011   4.930   1.795
 5138TIP3   OH215298   4.067   6.568   2.846
 5138TIP3    H115299   4.062   6.578   2.750
 5138TIP3    H215300   4.148   6.614   2.870
 5139TIP3   OH215301   3.003   5.675   3.246
 5139TIP3    H115302   3.084   5.697   3.292
 5139TIP3    H215303   2.934   5.688   3.310
 5140TIP3   OH215304   3.459   5.130   2.513
 5140TIP3    H115305   3.527   5.082   2.465
 5140TIP3    H215306   3.460   5.091   2.601
 5141TIP3   OH215307   2.954   4.608   2.402
 5141TIP3    H115308   2.926   4.532   2.454
 5141TIP3    H215309   2.976   4.571   2.317
 5142TIP3   OH215310   3.437   5.044   2.780
 5142TIP3    H115311   3.351   5.078   2.804
 5142TIP3    H215312   3.498   5.096   2.833
 5143TIP3   OH215313   3.170   5.399   1.890
 5143TIP3    H115314   3.097   5.342   1.864
 5143TIP3    H215315   3.138   5.443   1.969
 5144TIP3   OH215316   3.637   4.716   1.803
 5144TIP3    H115317   3.543   4.696   1.798
 5144TIP3    H215318   3.640   4.811   1.814
 5145TIP3   OH215319   3.577   5.736   2.879
 5145TIP3    H115320   3.638   5.731   2.953
 5145TIP3    H215321   3.540   5.824   2.885
 5146TIP3   OH215322   3.697   4.981   1.869
 5146TIP3    H115323   3.792   4.982   1.880
 5146TIP3    H215324   3.678   5.059   1.815
 5147TIP3   OH215325   2.861   5.402   2.535
 5147TIP3    H115326   2.900   5.391   2.449
 5147TIP3    H215327   2.929   5.374   2.596
 5148TIP3   OH215328   3.292   5.571   1.717
 5148TIP3    H115329   3.257   5.656   1.742
 5148TIP3    H215330   3.245   5.508   1.773
 5149TIP3   OH215331   2.744   5.346   3.175
 5149TIP3    H115332   2.748   5.320   3.267
 5149TIP3    H215333   2.668   5.300   3.140
 5150TIP3   OH215334   3.492   5.480   3.196
 5150TIP3    H115335   3.423   5.421   3.165
 5150TIP3    H215336   3.573   5.440   3.167
 5151TIP3   OH215337   3.734   6.015   2.805
 5151TIP3    H115338   3.638   6.012   2.803
 5151TIP3    H215339   3.755   6.060   2.887
 5152TIP3   OH215340   4.108   5.072   1.687
 5152TIP3    H115341   4.049   5.028   1.625
 5152TIP3    H215342   4.117   5.161   1.653
 5153TIP3   OH215343   4.344   5.911   2.762
 5153TIP3    H115344   4.251   5.914   2.740
 5153TIP3    H215345   4.387   5.891   2.679
 5154TIP3   OH215346   3.837   5.872   1.604
 5154TIP3    H115347   3.826   5.791   1.654
 5154TIP3    H215348   3.871   5.843   1.519
 5155TIP3   OH215349   3.769   5.497   2.357
 5155TIP3    H115350   3.704   5.465   2.418
 5155TIP3    H215351   3.831   5.425   2.347
 5156TIP3   OH215352   2.943   5.748   2.205
 5156TIP3    H115353   2.961   5.834   2.242
 5156TIP3    H215354   2.850   5.733   2.221
 5157TIP3   OH215355   2.547   5.038   1.924
 5157TIP3    H115356   2.590   5.121   1.947
 5157TIP3    H215357   2.466   5.039   1.975
 5158TIP3   OH215358   3.055   5.523   2.100
 5158TIP3    H115359   3.025   5.608   2.133
 5158TIP3    H215360   3.039   5.462   2.173
 5159TIP3   OH215361   3.279   6.084   2.663
 5159TIP3    H115362   3.316   6.155   2.611
 5159TIP3    H215363   3.354   6.045   2.708
 5160TIP3   OH215364   3.630   5.753   2.605
 5160TIP3    H115365   3.622   5.744   2.700
 5160TIP3    H215366   3.719   5.724   2.586
 5161TIP3   OH215367   3.621   5.622   1.521
 5161TIP3    H115368   3.667   5.606   1.603
 5161TIP3    H215369   3.541   5.571   1.528
 5162TIP3   OH215370   3.858   6.275   2.708
 5162TIP3    H115371   3.806   6.197   2.692
 5162TIP3    H215372   3.854   6.324   2.626
 5163TIP3   OH215373   3.939   6.091   1.320
 5163TIP3    H115374   3.987   6.161   1.274
 5163TIP3    H215375   3.863   6.135   1.357
 5164TIP3   OH215376   2.959   4.866   3.176
 5164TIP3    H115377   2.864   4.874   3.181
 5164TIP3    H215378   2.983   4.815   3.253
 5165TIP3   OH215379   3.801   5.590   1.738
 5165TIP3    H115380   3.780   5.513   1.792
 5165TIP3    H215381   3.895   5.581   1.720
 5166TIP3   OH215382   2.700   5.967   2.814
 5166TIP3    H115383   2.755   5.917   2.874
 5166TIP3    H215384   2.704   6.057   2.848
 5167TIP3   OH215385   2.972   5.580   1.530
 5167TIP3    H115386   2.981   5.489   1.503
 5167TIP3    H215387   2.956   5.576   1.624
 5168TIP3   OH215388   2.911   5.608   1.803
 5168TIP3    H115389   2.951   5.579   1.885
 5168TIP3    H215390   2.910   5.704   1.810
 5169TIP3   OH215391   2.641   5.291   2.003
 5169TIP3    H115392   2.576   5.339   2.055
 5169TIP3    H215393   2.659   5.349   1.929
 5170TIP3   OH215394   3.796   4.918   2.872
 5170TIP3    H115395   3.871   4.969   2.902
 5170TIP3    H215396   3.793   4.843   2.932
 5171TIP3   OH215397   3.700   4.665   2.069
 5171TIP3    H115398   3.679   4.684   1.978
 5171TIP3    H215399   3.745   4.744   2.101
 5172TIP3   OH215400   3.205   5.834   1.790
 5172TIP3    H115401   3.113   5.836   1.817
 5172TIP3    H215402   3.207   5.881   1.707
 5173TIP3   OH215403   3.343   4.867   2.155
 5173TIP3    H115404   3.406   4.935   2.129
 5173TIP3    H215405   3.368   4.845   2.245
 5174TIP3   OH215406   3.641   5.158   2.933
 5174TIP3    H115407   3.669   5.203   3.012
 5174TIP3    H215408   3.692   5.078   2.931
 5175TIP3   OH215409   3.511   4.559   2.242
 5175TIP3    H115410   3.488   4.636   2.294
 5175TIP3    H215411   3.582   4.589   2.185
 5176TIP3   OH215412   2.934   5.884   1.825
 5176TIP3    H115413   2.918   5.941   1.750
 5176TIP3    H215414   2.899   5.933   1.900
 5177TIP3   OH215415   3.024   4.587   2.053
 5177TIP3    H115416   3.012   4.677   2.081
 5177TIP3    H215417   3.118   4.571   2.059
 5178TIP3   OH215418   4.242   5.063   2.906
 5178TIP3    H115419   4.147   5.071   2.916
 5178TIP3    H215420   4.253   4.991   2.844
 5179TIP3   OH215421   3.921   5.255   2.308
 5179TIP3    H115422   3.853   5.191   2.329
 5179TIP3    H215423   3.996   5.228   2.362
 5180TIP3   OH215424   2.667   5.468   1.786
 5180TIP3    H115425   2.736   5.533   1.794
 5180TIP3    H215426   2.699   5.405   1.722
 5181TIP3   OH215427   2.564   4.759   1.915
 5181TIP3    H115428   2.578   4.853   1.924
 5181TIP3    H215429   2.499   4.751   1.846
 5182TIP3   OH215430   3.896   6.306   2.251
 5182TIP3    H115431   3.858   6.311   2.164
 5182TIP3    H215432   3.991   6.304   2.236
 5183TIP3   OH215433   2.972   4.483   2.786
 5183TIP3    H115434   2.942   4.451   2.701
 5183TIP3    H215435   2.963   4.407   2.844
 5184TIP3   OH215436   2.501   5.731   2.188
 5184TIP3    H115437   2.463   5.770   2.266
 5184TIP3    H215438   2.459   5.776   2.115
 5185TIP3   OH215439   2.699   6.275   3.250
 5185TIP3    H115440   2.781   6.280   3.300
 5185TIP3    H215441   2.686   6.181   3.235
 5186TIP3   OH215442   3.163   6.178   3.292
 5186TIP3    H115443   3.255   6.154   3.300
 5186TIP3    H215444   3.130   6.125   3.220
 5187TIP3   OH215445   3.131   5.775   1.416
 5187TIP3    H115446   3.084   5.702   1.456
 5187TIP3    H215447   3.206   5.734   1.373
 5188TIP3   OH215448   3.778   6.126   3.054
 5188TIP3    H115449   3.796   6.056   3.117
 5188TIP3    H215450   3.851   6.187   3.063
 5189TIP3   OH215451   3.600   5.823   1.338
 5189TIP3    H115452   3.607   5.759   1.408
 5189TIP3    H215453   3.691   5.848   1.319
 5190TIP3   OH215454   2.797   5.676   3.436
 5190TIP3    H115455   2.817   5.583   3.447
 5190TIP3    H215456   2.709   5.677   3.398
 5191TIP3   OH215457   2.790   5.280   1.631
 5191TIP3    H115458   2.840   5.254   1.708
 5191TIP3    H215459   2.855   5.291   1.562
 5192TIP3   OH215460   3.418   5.758   3.212
 5192TIP3    H115461   3.377   5.780   3.129
 5192TIP3    H215462   3.459   5.673   3.198
 5193TIP3   OH215463   3.362   5.505   1.461
 5193TIP3    H115464   3.328   5.519   1.549
 5193TIP3    H215465   3.345   5.413   1.443
 5194TIP3   OH215466   3.895   5.788   2.817
 5194TIP3    H115467   3.969   5.818   2.765
 5194TIP3    H215468   3.832   5.861   2.813
 5195TIP3   OH215469   2.913   5.420   3.445
 5195TIP3    H115470   2.988   5.411   3.386
 5195TIP3    H215471   2.953   5.441   3.530
 5196TIP3   OH215472   2.963   5.221   1.842
 5196TIP3    H115473   2.941   5.191   1.931
 5196TIP3    H215474   3.011   5.148   1.804
 5197TIP3   OH215475   3.278   5.301   3.101
 5197TIP3    H115476   3.194   5.345   3.113
 5197TIP3    H215477   3.311   5.333   3.017
 5198TIP3   OH215478   3.109   5.039   1.689
 5198TIP3    H115479   3.078   5.042   1.599
 5198TIP3    H215480   3.204   5.045   1.683
 5199TIP3   OH215481   3.785   5.676   3.185
 5199TIP3    H115482   3.853   5.639   3.129
 5199TIP3    H215483   3.783   5.617   3.261
 5200TIP3   OH215484   3.899   5.325   1.375
 5200TIP3    H115485   3.887   5.281   1.291
 5200TIP3    H215486   3.875   5.416   1.359
 5201TIP3   OH215487   3.380   5.071   3.211
 5201TIP3    H115488   3.385   5.001   3.146
 5201TIP3    H215489   3.348   5.146   3.162
 5202TIP3   OH215490   3.390   4.873   3.007
 5202TIP3    H115491   3.418   4.910   2.924
 5202TIP3    H215492   3.299   4.846   2.991
 5203TIP3   OH215493   3.395   5.409   2.881
 5203TIP3    H115494   3.483   5.446   2.871
 5203TIP3    H215495   3.339   5.467   2.830
 5204TIP3   OH215496   3.990   5.355   3.253
 5204TIP3    H115497   4.033   5.270   3.261
 5204TIP3    H215498   4.062   5.417   3.241
 5205TIP3   OH215499   4.018   5.626   2.996
 5205TIP3    H115500   3.965   5.683   2.941
 5205TIP3    H215501   4.108   5.641   2.967
 5206TIP3   OH215502   3.265   5.153   3.453
 5206TIP3    H115503   3.195   5.090   3.472
 5206TIP3    H215504   3.294   5.131   3.365
 5207TIP3   OH215505   3.510   4.644   3.112
 5207TIP3    H115506   3.471   4.724   3.077
 5207TIP3    H215507   3.444   4.576   3.097
 5208TIP3   OH215508   3.637   5.113   3.313
 5208TIP3    H115509   3.629   5.101   3.408
 5208TIP3    H215510   3.550   5.091   3.279
 5209TIP3   OH215511   3.883   5.065   3.184
 5209TIP3    H115512   3.805   5.066   3.240
 5209TIP3    H215513   3.955   5.045   3.243
 5210TIP3   OH215514   4.118   5.038   3.332
 5210TIP3    H115515   4.135   4.944   3.340
 5210TIP3    H215516   4.122   5.071   3.422
 5211TIP3   OH215517   3.095   4.935   3.517
 5211TIP3    H115518   3.103   4.847   3.479
 5211TIP3    H215519   3.135   4.928   3.603
 5212TIP3   OH215520   3.576   4.616   3.376
 5212TIP3    H115521   3.646   4.551   3.368
 5212TIP3    H215522   3.546   4.630   3.286
 5213TIP3   OH215523   3.671   4.830   3.524
 5213TIP3    H115524   3.641   4.759   3.467
 5213TIP3    H215525   3.599   4.893   3.524
 5214TIP3   OH215526   2.932   6.062   1.615
 5214TIP3    H115527   3.025   6.052   1.594
 5214TIP3    H215528   2.896   6.112   1.543
 5215TIP3   OH215529   2.392   5.474   1.788
 5215TIP3    H115530   2.487   5.482   1.794
 5215TIP3    H215531   2.377   5.386   1.756
 5216TIP3   OH215532   2.304   6.045   2.262
 5216TIP3    H115533   2.235   5.994   2.219
 5216TIP3    H215534   2.345   5.984   2.322
 5217TIP3   OH215535   2.444   5.872   2.429
 5217TIP3    H115536   2.430   5.813   2.503
 5217TIP3    H215537   2.500   5.941   2.464
 5218TIP3   OH215538   4.169   6.345   2.226
 5218TIP3    H115539   4.199   6.429   2.261
 5218TIP3    H215540   4.238   6.318   2.166
 5219TIP3   OH215541   4.199   6.329   2.530
 5219TIP3    H115542   4.195   6.278   2.449
 5219TIP3    H215543   4.254   6.276   2.588
 5220TIP3   OH215544   4.255   6.019   3.099
 5220TIP3    H115545   4.184   6.030   3.161
 5220TIP3    H215546   4.300   6.104   3.099
 5221TIP3   OH215547   4.072   5.541   1.703
 5221TIP3    H115548   4.133   5.608   1.671
 5221TIP3    H215549   4.118   5.499   1.776
 5222TIP3   OH215550   4.202   5.392   1.900
 5222TIP3    H115551   4.136   5.361   1.961
 5222TIP3    H215552   4.269   5.432   1.955
 5223TIP3   OH215553   4.109   5.312   1.551
 5223TIP3    H115554   4.036   5.311   1.489
 5223TIP3    H215555   4.094   5.391   1.604
 5224TIP3   OH215556   3.948   4.963   1.494
 5224TIP3    H115557   3.906   4.996   1.414
 5224TIP3    H215558   3.942   4.868   1.486
 5225TIP3   OH215559   3.985   5.258   2.037
 5225TIP3    H115560   3.999   5.164   2.025
 5225TIP3    H215561   3.969   5.269   2.130
 5226TIP3   OH215562   2.615   5.316   2.816
 5226TIP3    H115563   2.605   5.286   2.725
 5226TIP3    H215564   2.709   5.312   2.832
 5227TIP3   OH215565   4.275   5.675   2.906
 5227TIP3    H115566   4.341   5.608   2.886
 5227TIP3    H215567   4.299   5.749   2.851
 5228TIP3   OH215568   4.455   5.466   2.896
 5228TIP3    H115569   4.385   5.415   2.937
 5228TIP3    H215570   4.536   5.427   2.928
 5229TIP3   OH215571   3.915   4.692   1.461
 5229TIP3    H115572   3.984   4.662   1.521
 5229TIP3    H215573   3.836   4.649   1.493
 5230TIP3   OH215574   3.985   4.973   1.923
 5230TIP3    H115575   4.032   4.891   1.935
 5230TIP3    H215576   4.028   5.014   1.847
 5231TIP3   OH215577   4.142   5.148   2.452
 5231TIP3    H115578   4.221   5.162   2.399
 5231TIP3    H215579   4.159   5.194   2.534
 5232TIP3   OH215580   4.213   5.310   2.672
 5232TIP3    H115581   4.141   5.332   2.730
 5232TIP3    H215582   4.237   5.393   2.631
 5233TIP3   OH215583   2.832   4.992   3.451
 5233TIP3    H115584   2.926   4.990   3.470
 5233TIP3    H215585   2.798   4.912   3.491
 5234TIP3   OH215586   4.106   4.726   1.976
 5234TIP3    H115587   4.152   4.712   2.058
 5234TIP3    H215588   4.044   4.653   1.970
 5235TIP3   OH215589   2.812   4.710   2.807
 5235TIP3    H115590   2.865   4.630   2.811
 5235TIP3    H215591   2.874   4.780   2.788
 5236TIP3   OH215592   2.588   4.974   2.864
 5236TIP3    H115593   2.641   4.964   2.785
 5236TIP3    H215594   2.611   5.062   2.896
 5237TIP3   OH215595   4.527   5.066   2.996
 5237TIP3    H115596   4.477   5.076   3.077
 5237TIP3    H215597   4.512   4.975   2.970
 5238TIP3   OH215598   4.144   4.637   1.611
 5238TIP3    H115599   4.194   4.577   1.556
 5238TIP3    H215600   4.198   4.716   1.616
 5239TIP3   OH215601   2.578   4.483   2.367
 5239TIP3    H115602   2.493   4.471   2.409
 5239TIP3    H215603   2.560   4.538   2.290
 5240TIP3   OH215604   3.703   6.166   1.876
 5240TIP3    H115605   3.777   6.161   1.815
 5240TIP3    H215606   3.721   6.244   1.929
 5241TIP3   OH215607   2.806   4.530   3.189
 5241TIP3    H115608   2.757   4.532   3.272
 5241TIP3    H215609   2.752   4.581   3.129
 5242TIP3   OH215610   2.828   5.993   3.257
 5242TIP3    H115611   2.735   5.972   3.254
 5242TIP3    H215612   2.850   5.993   3.350
 5243TIP3   OH215613   3.051   6.045   2.812
 5243TIP3    H115614   2.999   6.120   2.781
 5243TIP3    H215615   3.136   6.057   2.770
 5244TIP3   OH215616   3.443   6.271   2.946
 5244TIP3    H115617   3.478   6.266   3.035
 5244TIP3    H215618   3.508   6.323   2.898
 5245TIP3   OH215619   3.641   6.424   2.827
 5245TIP3    H115620   3.709   6.370   2.785
 5245TIP3    H215621   3.690   6.486   2.881
 5246TIP3   OH215622   4.457   4.783   2.910
 5246TIP3    H115623   4.371   4.785   2.869
 5246TIP3    H215624   4.481   4.691   2.911
 5247TIP3   OH215625   2.702   6.272   2.856
 5247TIP3    H115626   2.612   6.290   2.827
 5247TIP3    H215627   2.721   6.340   2.920
 5248TIP3   OH215628   2.936   6.274   2.711
 5248TIP3    H115629   2.852   6.276   2.757
 5248TIP3    H215630   2.915   6.302   2.622
 5249TIP3   OH215631   3.358   6.295   2.502
 5249TIP3    H115632   3.288   6.309   2.438
 5249TIP3    H215633   3.367   6.380   2.545
 5250TIP3   OH215634   3.625   6.226   2.537
 5250TIP3    H115635   3.534   6.248   2.520
 5250TIP3    H215636   3.675   6.300   2.503
 5251TIP3   OH215637   3.826   6.436   2.475
 5251TIP3    H115638   3.812   6.522   2.436
 5251TIP3    H215639   3.852   6.380   2.402
 5252TIP3   OH215640   2.627   6.045   2.551
 5252TIP3    H115641   2.640   6.026   2.644
 5252TIP3    H215642   2.704   6.009   2.508
 5253TIP3   OH215643   2.841   5.926   2.423
 5253TIP3    H115644   2.850   5.845   2.472
 5253TIP3    H215645   2.922   5.973   2.439
 5254TIP3   OH215646   3.097   6.030   2.459
 5254TIP3    H115647   3.127   5.940   2.442
 5254TIP3    H215648   3.150   6.058   2.534
 5255TIP3   OH215649   3.641   4.675   2.543
 5255TIP3    H115650   3.604   4.604   2.596
 5255TIP3    H215651   3.711   4.632   2.493
 5256TIP3   OH215652   4.150   4.594   2.433
 5256TIP3    H115653   4.188   4.642   2.360
 5256TIP3    H215654   4.059   4.624   2.437
 5257TIP3   OH215655   4.264   4.673   2.197
 5257TIP3    H115656   4.332   4.611   2.171
 5257TIP3    H215657   4.304   4.759   2.184
 5258TIP3   OH215658   2.883   4.379   2.545
 5258TIP3    H115659   2.794   4.346   2.555
 5258TIP3    H215660   2.937   4.301   2.537
 5259TIP3   OH215661   2.703   4.289   2.199
 5259TIP3    H115662   2.731   4.337   2.121
 5259TIP3    H215663   2.668   4.355   2.258
 5260TIP3   OH215664   3.366   4.419   2.442
 5260TIP3    H115665   3.415   4.465   2.373
 5260TIP3    H215666   3.408   4.448   2.524
 5261TIP3   OH215667   3.857   4.555   2.419
 5261TIP3    H115668   3.881   4.521   2.333
 5261TIP3    H215669   3.866   4.481   2.478
 5262TIP3   OH215670   3.920   4.515   1.984
 5262TIP3    H115671   3.841   4.562   2.010
 5262TIP3    H215672   3.909   4.428   2.022
 5263TIP3   OH215673   2.388   5.852   1.969
 5263TIP3    H115674   2.302   5.820   1.942
 5263TIP3    H215675   2.391   5.942   1.936
 5264TIP3   OH215676   2.816   4.416   1.963
 5264TIP3    H115677   2.862   4.355   1.907
 5264TIP3    H215678   2.885   4.472   1.999
 5265TIP3   OH215679   3.298   4.615   2.060
 5265TIP3    H115680   3.359   4.562   2.112
 5265TIP3    H215681   3.314   4.705   2.088
 5266TIP3   OH215682   3.196   5.992   1.564
 5266TIP3    H115683   3.275   6.026   1.522
 5266TIP3    H215684   3.165   5.923   1.506
 5267TIP3   OH215685   3.874   6.141   1.658
 5267TIP3    H115686   3.867   6.047   1.643
 5267TIP3    H215687   3.839   6.180   1.578
 5268TIP3   OH215688   3.113   4.667   3.423
 5268TIP3    H115689   3.080   4.600   3.484
 5268TIP3    H215690   3.206   4.676   3.446
 5269TIP3   OH215691   3.360   4.672   3.547
 5269TIP3    H115692   3.437   4.650   3.495
 5269TIP3    H215693   3.356   4.603   3.614
 5270TIP3   OH215694   2.491   5.851   1.607
 5270TIP3    H115695   2.489   5.862   1.702
 5270TIP3    H215696   2.572   5.802   1.591
 5271TIP3   OH215697   4.172   4.763   3.349
 5271TIP3    H115698   4.195   4.743   3.440
 5271TIP3    H215699   4.254   4.757   3.301
 5272TIP3   OH215700   4.098   6.292   2.851
 5272TIP3    H115701   4.019   6.270   2.802
 5272TIP3    H215702   4.095   6.388   2.859
 5273TIP3   OH215703   5.378   5.674   1.582
 5273TIP3    H115704   5.344   5.761   1.562
 5273TIP3    H215705   5.308   5.614   1.557
 5274TIP3   OH215706   5.378   5.671   2.005
 5274TIP3    H115707   5.431   5.654   2.083
 5274TIP3    H215708   5.333   5.588   1.989
 5275TIP3   OH215709   4.686   5.536   2.348
 5275TIP3    H115710   4.724   5.485   2.420
 5275TIP3    H215711   4.761   5.561   2.294
 5276TIP3   OH215712   5.652   5.974   1.684
 5276TIP3    H115713   5.636   5.908   1.752
 5276TIP3    H215714   5.669   6.055   1.732
 5277TIP3   OH215715   4.670   5.954   2.019
 5277TIP3    H115716   4.650   5.861   2.033
 5277TIP3    H215717   4.766   5.957   2.017
 5278TIP3   OH215718   4.350   5.161   1.822
 5278TIP3    H115719   4.316   5.246   1.848
 5278TIP3    H215720   4.275   5.116   1.783
 5279TIP3   OH215721   4.429   5.481   2.037
 5279TIP3    H115722   4.480   5.407   2.070
 5279TIP3    H215723   4.493   5.550   2.025
 5280TIP3   OH215724   5.300   6.400   1.698
 5280TIP3    H115725   5.330   6.335   1.634
 5280TIP3    H215726   5.309   6.356   1.782
 5281TIP3   OH215727   5.189   5.893   2.007
 5281TIP3    H115728   5.234   5.814   1.980
 5281TIP3    H215729   5.258   5.950   2.040
 5282TIP3   OH215730   6.218   5.211   2.029
 5282TIP3    H115731   6.234   5.295   2.071
 5282TIP3    H215732   6.238   5.226   1.937
 5283TIP3   OH215733   5.590   5.380   2.045
 5283TIP3    H115734   5.622   5.294   2.073
 5283TIP3    H215735   5.551   5.365   1.959
 5284TIP3   OH215736   4.946   5.037   2.004
 5284TIP3    H115737   4.926   5.110   1.946
 5284TIP3    H215738   4.890   4.966   1.973
 5285TIP3   OH215739   5.637   5.138   1.651
 5285TIP3    H115740   5.703   5.133   1.721
 5285TIP3    H215741   5.685   5.173   1.576
 5286TIP3   OH215742   4.573   5.256   2.127
 5286TIP3    H115743   4.655   5.239   2.173
 5286TIP3    H215744   4.581   5.207   2.045
 5287TIP3   OH215745   4.992   5.455   1.945
 5287TIP3    H115746   5.086   5.439   1.953
 5287TIP3    H215747   4.957   5.372   1.912
 5288TIP3   OH215748   6.271   5.430   2.196
 5288TIP3    H115749   6.187   5.474   2.186
 5288TIP3    H215750   6.311   5.470   2.273
 5289TIP3   OH215751   4.920   5.046   2.465
 5289TIP3    H115752   4.872   5.081   2.390
 5289TIP3    H215753   4.864   5.064   2.540
 5290TIP3   OH215754   5.243   5.883   1.464
 5290TIP3    H115755   5.217   5.869   1.373
 5290TIP3    H215756   5.201   5.965   1.488
 5291TIP3   OH215757   5.019   5.822   2.215
 5291TIP3    H115758   4.966   5.894   2.249
 5291TIP3    H215759   5.069   5.860   2.143
 5292TIP3   OH215760   5.802   5.163   1.867
 5292TIP3    H115761   5.758   5.142   1.950
 5292TIP3    H215762   5.857   5.238   1.888
 5293TIP3   OH215763   4.819   5.148   2.227
 5293TIP3    H115764   4.873   5.224   2.249
 5293TIP3    H215765   4.866   5.106   2.155
 5294TIP3   OH215766   4.866   6.026   2.323
 5294TIP3    H115767   4.852   6.116   2.294
 5294TIP3    H215768   4.790   6.006   2.377
 5295TIP3   OH215769   4.244   5.725   1.584
 5295TIP3    H115770   4.213   5.747   1.496
 5295TIP3    H215771   4.269   5.808   1.623
 5296TIP3   OH215772   5.678   6.218   1.825
 5296TIP3    H115773   5.590   6.213   1.862
 5296TIP3    H215774   5.680   6.301   1.779
 5297TIP3   OH215775   6.023   5.088   2.194
 5297TIP3    H115776   5.937   5.114   2.160
 5297TIP3    H215777   6.085   5.120   2.129
 5298TIP3   OH215778   5.266   4.735   2.192
 5298TIP3    H115779   5.256   4.642   2.216
 5298TIP3    H215780   5.190   4.777   2.232
 5299TIP3   OH215781   5.391   6.239   1.491
 5299TIP3    H115782   5.444   6.161   1.478
 5299TIP3    H215783   5.449   6.312   1.468
 5300TIP3   OH215784   5.548   6.020   1.434
 5300TIP3    H115785   5.540   5.936   1.390
 5300TIP3    H215786   5.587   5.999   1.519
 5301TIP3   OH215787   5.912   6.116   2.164
 5301TIP3    H115788   5.894   6.041   2.107
 5301TIP3    H215789   5.897   6.192   2.107
 5302TIP3   OH215790   5.203   5.511   1.436
 5302TIP3    H115791   5.123   5.559   1.415
 5302TIP3    H215792   5.252   5.508   1.353
 5303TIP3   OH215793   5.182   5.324   1.104
 5303TIP3    H115794   5.244   5.371   1.160
 5303TIP3    H215795   5.236   5.259   1.059
 5304TIP3   OH215796   6.093   5.776   2.041
 5304TIP3    H115797   6.009   5.821   2.039
 5304TIP3    H215798   6.130   5.788   1.953
 5305TIP3   OH215799   5.567   5.593   1.402
 5305TIP3    H115800   5.511   5.622   1.475
 5305TIP3    H215801   5.649   5.568   1.444
 5306TIP3   OH215802   5.793   5.635   2.342
 5306TIP3    H115803   5.790   5.719   2.387
 5306TIP3    H215804   5.712   5.631   2.292
 5307TIP3   OH215805   4.795   5.590   1.796
 5307TIP3    H115806   4.759   5.528   1.732
 5307TIP3    H215807   4.868   5.544   1.836
 5308TIP3   OH215808   4.938   6.010   1.937
 5308TIP3    H115809   4.914   5.996   1.845
 5308TIP3    H215810   5.025   5.972   1.946
 5309TIP3   OH215811   4.895   5.581   2.172
 5309TIP3    H115812   4.932   5.546   2.091
 5309TIP3    H215813   4.940   5.665   2.185
 5310TIP3   OH215814   5.437   6.221   1.950
 5310TIP3    H115815   5.425   6.302   2.000
 5310TIP3    H215816   5.422   6.151   2.014
 5311TIP3   OH215817   5.060   6.120   2.499
 5311TIP3    H115818   4.998   6.175   2.546
 5311TIP3    H215819   5.006   6.070   2.438
 5312TIP3   OH215820   5.390   5.469   1.231
 5312TIP3    H115821   5.453   5.521   1.282
 5312TIP3    H215822   5.416   5.483   1.140
 5313TIP3   OH215823   4.808   5.656   2.649
 5313TIP3    H115824   4.815   5.750   2.665
 5313TIP3    H215825   4.715   5.639   2.639
 5314TIP3   OH215826   5.132   6.135   1.496
 5314TIP3    H115827   5.217   6.179   1.505
 5314TIP3    H215828   5.076   6.200   1.454
 5315TIP3   OH215829   4.846   6.277   2.583
 5315TIP3    H115830   4.828   6.289   2.490
 5315TIP3    H215831   4.760   6.265   2.623
 5316TIP3   OH215832   5.903   4.690   1.288
 5316TIP3    H115833   5.826   4.714   1.340
 5316TIP3    H215834   5.917   4.766   1.231
 5317TIP3   OH215835   4.670   5.429   1.597
 5317TIP3    H115836   4.591   5.477   1.568
 5317TIP3    H215837   4.638   5.342   1.619
 5318TIP3   OH215838   5.682   6.100   0.976
 5318TIP3    H115839   5.702   6.185   0.936
 5318TIP3    H215840   5.758   6.045   0.956
 5319TIP3   OH215841   4.454   5.836   2.522
 5319TIP3    H115842   4.375   5.824   2.469
 5319TIP3    H215843   4.485   5.747   2.539
 5320TIP3   OH215844   4.258   5.980   2.145
 5320TIP3    H115845   4.348   5.980   2.178
 5320TIP3    H215846   4.210   5.926   2.209
 5321TIP3   OH215847   6.143   6.472   2.237
 5321TIP3    H115848   6.147   6.378   2.251
 5321TIP3    H215849   6.064   6.500   2.283
 5322TIP3   OH215850   5.251   6.264   2.362
 5322TIP3    H115851   5.242   6.355   2.390
 5322TIP3    H215852   5.182   6.217   2.411
 5323TIP3   OH215853   5.007   6.347   1.336
 5323TIP3    H115854   4.962   6.323   1.255
 5323TIP3    H215855   4.975   6.434   1.358
 5324TIP3   OH215856   4.464   6.217   1.694
 5324TIP3    H115857   4.511   6.211   1.777
 5324TIP3    H215858   4.419   6.133   1.686
 5325TIP3   OH215859   5.197   6.302   0.994
 5325TIP3    H115860   5.237   6.219   0.970
 5325TIP3    H215861   5.231   6.321   1.081
 5326TIP3   OH215862   5.267   6.328   1.255
 5326TIP3    H115863   5.180   6.328   1.295
 5326TIP3    H215864   5.322   6.280   1.316
 5327TIP3   OH215865   6.034   5.598   2.509
 5327TIP3    H115866   5.953   5.607   2.460
 5327TIP3    H215867   6.054   5.505   2.505
 5328TIP3   OH215868   4.655   6.021   2.500
 5328TIP3    H115869   4.705   6.002   2.580
 5328TIP3    H215870   4.581   5.961   2.502
 5329TIP3   OH215871   5.029   4.827   2.323
 5329TIP3    H115872   4.946   4.794   2.288
 5329TIP3    H215873   5.005   4.908   2.369
 5330TIP3   OH215874   5.568   4.956   2.505
 5330TIP3    H115875   5.638   4.936   2.568
 5330TIP3    H215876   5.487   4.939   2.553
 5331TIP3   OH215877   5.797   5.367   2.424
 5331TIP3    H115878   5.759   5.363   2.512
 5331TIP3    H215879   5.782   5.457   2.396
 5332TIP3   OH215880   5.459   5.479   0.970
 5332TIP3    H115881   5.411   5.431   0.902
 5332TIP3    H215882   5.548   5.486   0.936
 5333TIP3   OH215883   5.181   4.867   1.282
 5333TIP3    H115884   5.144   4.875   1.370
 5333TIP3    H215885   5.146   4.785   1.248
 5334TIP3   OH215886   4.971   5.359   2.323
 5334TIP3    H115887   4.926   5.368   2.407
 5334TIP3    H215888   4.951   5.441   2.276
 5335TIP3   OH215889   4.854   5.237   1.841
 5335TIP3    H115890   4.764   5.215   1.865
 5335TIP3    H215891   4.862   5.206   1.751
 5336TIP3   OH215892   5.328   5.309   1.571
 5336TIP3    H115893   5.280   5.382   1.531
 5336TIP3    H215894   5.387   5.278   1.501
 5337TIP3   OH215895   5.517   5.577   2.642
 5337TIP3    H115896   5.493   5.507   2.703
 5337TIP3    H215897   5.609   5.595   2.661
 5338TIP3   OH215898   5.492   5.327   1.796
 5338TIP3    H115899   5.425   5.349   1.731
 5338TIP3    H215900   5.539   5.253   1.758
 5339TIP3   OH215901   4.812   5.378   2.546
 5339TIP3    H115902   4.812   5.447   2.612
 5339TIP3    H215903   4.786   5.299   2.594
 5340TIP3   OH215904   4.848   4.847   1.259
 5340TIP3    H115905   4.840   4.853   1.355
 5340TIP3    H215906   4.771   4.892   1.226
 5341TIP3   OH215907   4.399   4.894   2.126
 5341TIP3    H115908   4.466   4.932   2.182
 5341TIP3    H215909   4.439   4.892   2.039
 5342TIP3   OH215910   4.293   4.872   1.626
 5342TIP3    H115911   4.340   4.909   1.550
 5342TIP3    H215912   4.232   4.941   1.651
 5343TIP3   OH215913   5.544   5.583   2.219
 5343TIP3    H115914   5.567   5.516   2.155
 5343TIP3    H215915   5.496   5.535   2.287
 5344TIP3   OH215916   5.214   5.025   1.893
 5344TIP3    H115917   5.136   5.026   1.949
 5344TIP3    H215918   5.287   5.018   1.955
 5345TIP3   OH215919   4.613   5.114   1.896
 5345TIP3    H115920   4.524   5.118   1.861
 5345TIP3    H215921   4.641   5.024   1.881
 5346TIP3   OH215922   4.862   5.117   1.593
 5346TIP3    H115923   4.957   5.127   1.585
 5346TIP3    H215924   4.828   5.135   1.505
 5347TIP3   OH215925   5.656   5.117   2.102
 5347TIP3    H115926   5.635   5.137   2.193
 5347TIP3    H215927   5.588   5.055   2.075
 5348TIP3   OH215928   4.756   5.141   1.341
 5348TIP3    H115929   4.692   5.092   1.289
 5348TIP3    H215930   4.810   5.186   1.276
 5349TIP3   OH215931   5.860   6.822   2.323
 5349TIP3    H115932   5.855   6.840   2.230
 5349TIP3    H215933   5.939   6.867   2.352
 5350TIP3   OH215934   4.800   5.929   2.732
 5350TIP3    H115935   4.879   5.948   2.782
 5350TIP3    H215936   4.729   5.939   2.795
 5351TIP3   OH215937   5.264   5.401   2.000
 5351TIP3    H115938   5.330   5.353   1.951
 5351TIP3    H215939   5.261   5.359   2.086
 5352TIP3   OH215940   4.751   4.864   1.886
 5352TIP3    H115941   4.724   4.789   1.938
 5352TIP3    H215942   4.773   4.828   1.801
 5353TIP3   OH215943   5.235   5.300   2.264
 5353TIP3    H115944   5.148   5.331   2.287
 5353TIP3    H215945   5.295   5.353   2.316
 5354TIP3   OH215946   4.975   5.652   1.368
 5354TIP3    H115947   4.899   5.600   1.344
 5354TIP3    H215948   4.948   5.698   1.448
 5355TIP3   OH215949   5.856   5.909   1.990
 5355TIP3    H115950   5.894   5.957   1.917
 5355TIP3    H215951   5.777   5.868   1.954
 5356TIP3   OH215952   5.435   4.969   1.289
 5356TIP3    H115953   5.342   4.948   1.284
 5356TIP3    H215954   5.437   5.064   1.298
 5357TIP3   OH215955   5.376   5.997   2.400
 5357TIP3    H115956   5.429   5.989   2.480
 5357TIP3    H215957   5.337   6.084   2.406
 5358TIP3   OH215958   5.491   5.235   1.354
 5358TIP3    H115959   5.586   5.239   1.363
 5358TIP3    H215960   5.469   5.310   1.299
 5359TIP3   OH215961   4.655   5.663   2.026
 5359TIP3    H115962   4.696   5.646   1.941
 5359TIP3    H215963   4.719   5.633   2.090
 5360TIP3   OH215964   5.132   5.810   1.206
 5360TIP3    H115965   5.081   5.891   1.210
 5360TIP3    H215966   5.082   5.747   1.259
 5361TIP3   OH215967   4.534   5.592   2.658
 5361TIP3    H115968   4.529   5.560   2.748
 5361TIP3    H215969   4.452   5.563   2.617
 5362TIP3   OH215970   5.285   5.736   2.687
 5362TIP3    H115971   5.214   5.678   2.659
 5362TIP3    H215972   5.365   5.693   2.655
 5363TIP3   OH215973   5.521   6.285   2.287
 5363TIP3    H115974   5.427   6.273   2.290
 5363TIP3    H215975   5.544   6.322   2.372
 5364TIP3   OH215976   5.908   5.312   1.197
 5364TIP3    H115977   5.850   5.262   1.140
 5364TIP3    H215978   5.890   5.404   1.175
 5365TIP3   OH215979   6.157   6.190   2.259
 5365TIP3    H115980   6.063   6.178   2.247
 5365TIP3    H215981   6.195   6.165   2.174
 5366TIP3   OH215982   5.549   6.171   1.202
 5366TIP3    H115983   5.554   6.111   1.276
 5366TIP3    H215984   5.587   6.123   1.129
 5367TIP3   OH215985   5.629   5.774   1.884
 5367TIP3    H115986   5.539   5.753   1.909
 5367TIP3    H215987   5.663   5.693   1.846
 5368TIP3   OH215988   4.790   6.011   1.698
 5368TIP3    H115989   4.782   6.087   1.640
 5368TIP3    H215990   4.706   6.005   1.742
 5369TIP3   OH215991   4.342   5.297   1.403
 5369TIP3    H115992   4.388   5.377   1.427
 5369TIP3    H215993   4.263   5.298   1.457
 5370TIP3   OH215994   4.860   5.768   1.586
 5370TIP3    H115995   4.850   5.857   1.619
 5370TIP3    H215996   4.840   5.712   1.661
 5371TIP3   OH215997   5.070   6.336   2.152
 5371TIP3    H115998   5.105   6.410   2.102
 5371TIP3    H215999   5.145   6.303   2.202
 5372TIP3   OH216000   4.699   6.233   1.553
 5372TIP3    H116001   4.612   6.239   1.591
 5372TIP3    H216002   4.735   6.321   1.559
 5373TIP3   OH216003   5.418   6.002   2.126
 5373TIP3    H116004   5.403   5.997   2.221
 5373TIP3    H216005   5.499   5.954   2.113
 5374TIP3   OH216006   5.372   5.848   1.062
 5374TIP3    H116007   5.446   5.840   1.122
 5374TIP3    H216008   5.295   5.827   1.116
 5375TIP3   OH216009   5.675   6.492   2.167
 5375TIP3    H116010   5.605   6.431   2.186
 5375TIP3    H216011   5.642   6.547   2.095
 5376TIP3   OH216012   5.721   6.345   0.843
 5376TIP3    H116013   5.797   6.400   0.822
 5376TIP3    H216014   5.657   6.406   0.879
 5377TIP3   OH216015   4.744   5.128   2.673
 5377TIP3    H116016   4.650   5.140   2.683
 5377TIP3    H216017   4.770   5.077   2.749
 5378TIP3   OH216018   5.581   5.812   1.239
 5378TIP3    H116019   5.575   5.732   1.292
 5378TIP3    H216020   5.675   5.821   1.222
 5379TIP3   OH216021   4.499   6.246   2.318
 5379TIP3    H116022   4.546   6.180   2.369
 5379TIP3    H216023   4.519   6.329   2.362
 5380TIP3   OH216024   4.750   5.835   1.023
 5380TIP3    H116025   4.772   5.747   0.993
 5380TIP3    H216026   4.741   5.827   1.118
 5381TIP3   OH216027   4.702   5.843   1.296
 5381TIP3    H116028   4.761   5.815   1.367
 5381TIP3    H216029   4.702   5.938   1.300
 5382TIP3   OH216030   4.439   5.546   1.490
 5382TIP3    H116031   4.376   5.593   1.544
 5382TIP3    H216032   4.457   5.604   1.416
 5383TIP3   OH216033   5.597   5.187   2.360
 5383TIP3    H116034   5.677   5.229   2.391
 5383TIP3    H216035   5.588   5.109   2.415
 5384TIP3   OH216036   5.493   4.920   1.557
 5384TIP3    H116037   5.472   4.939   1.466
 5384TIP3    H216038   5.535   4.999   1.590
 5385TIP3   OH216039   4.974   6.026   1.228
 5385TIP3    H116040   4.893   6.044   1.275
 5385TIP3    H216041   4.988   6.103   1.173
 5386TIP3   OH216042   5.141   5.121   1.642
 5386TIP3    H116043   5.204   5.188   1.615
 5386TIP3    H216044   5.165   5.100   1.732
 5387TIP3   OH216045   5.438   5.419   2.414
 5387TIP3    H116046   5.465   5.462   2.495
 5387TIP3    H216047   5.489   5.338   2.411
 5388TIP3   OH216048   5.304   4.815   1.730
 5388TIP3    H116049   5.281   4.893   1.781
 5388TIP3    H216050   5.375   4.845   1.672
 5389TIP3   OH216051   4.723   6.112   1.309
 5389TIP3    H116052   4.693   6.177   1.245
 5389TIP3    H216053   4.715   6.158   1.393
 5390TIP3   OH216054   4.818   4.843   1.539
 5390TIP3    H116055   4.806   4.934   1.566
 5390TIP3    H216056   4.912   4.828   1.545
 5391TIP3   OH216057   6.066   5.330   2.417
 5391TIP3    H116058   5.970   5.327   2.422
 5391TIP3    H216059   6.086   5.302   2.328
 5392TIP3   OH216060   5.721   5.516   1.796
 5392TIP3    H116061   5.643   5.461   1.808
 5392TIP3    H216062   5.787   5.477   1.853
 5393TIP3   OH216063   4.452   5.723   1.273
 5393TIP3    H116064   4.524   5.785   1.286
 5393TIP3    H216065   4.486   5.661   1.208
 5394TIP3   OH216066   4.372   5.019   1.409
 5394TIP3    H116067   4.380   5.114   1.415
 5394TIP3    H216068   4.336   5.004   1.321
 5395TIP3   OH216069   5.701   6.480   1.743
 5395TIP3    H116070   5.655   6.540   1.685
 5395TIP3    H216071   5.794   6.499   1.728
 5396TIP3   OH216072   4.768   4.743   2.272
 5396TIP3    H116073   4.739   4.712   2.186
 5396TIP3    H216074   4.759   4.667   2.329
 5397TIP3   OH216075   4.295   5.987   1.678
 5397TIP3    H116076   4.260   6.024   1.759
 5397TIP3    H216077   4.249   6.035   1.608
 5398TIP3   OH216078   4.506   6.539   2.734
 5398TIP3    H116079   4.585   6.549   2.787
 5398TIP3    H216080   4.504   6.446   2.711
 5399TIP3   OH216081   4.959   6.434   2.779
 5399TIP3    H116082   5.051   6.407   2.785
 5399TIP3    H216083   4.923   6.383   2.707
 5400TIP3   OH216084   4.918   6.022   0.914
 5400TIP3    H116085   4.860   5.962   0.961
 5400TIP3    H216086   4.995   5.969   0.894
 5401TIP3   OH216087   5.577   6.382   2.538
 5401TIP3    H116088   5.594   6.312   2.600
 5401TIP3    H216089   5.650   6.443   2.549
 5402TIP3   OH216090   5.306   6.070   0.913
 5402TIP3    H116091   5.331   6.000   0.974
 5402TIP3    H216092   5.386   6.086   0.863
 5403TIP3   OH216093   4.582   5.942   2.912
 5403TIP3    H116094   4.610   5.851   2.927
 5403TIP3    H216095   4.495   5.934   2.874
 5404TIP3   OH216096   4.580   5.535   1.122
 5404TIP3    H116097   4.631   5.510   1.200
 5404TIP3    H216098   4.646   5.549   1.054
 5405TIP3   OH216099   5.216   6.013   2.701
 5405TIP3    H116100   5.171   6.035   2.619
 5405TIP3    H216101   5.252   5.926   2.686
 5406TIP3   OH216102   5.071   5.760   0.935
 5406TIP3    H116103   5.091   5.771   1.028
 5406TIP3    H216104   5.070   5.665   0.922
 5407TIP3   OH216105   5.688   6.060   2.316
 5407TIP3    H116106   5.766   6.087   2.268
 5407TIP3    H216107   5.625   6.130   2.302
 5408TIP3   OH216108   4.701   5.696   2.931
 5408TIP3    H116109   4.768   5.657   2.875
 5408TIP3    H216110   4.741   5.700   3.017
 5409TIP3   OH216111   4.762   5.476   1.328
 5409TIP3    H116112   4.744   5.447   1.417
 5409TIP3    H216113   4.811   5.404   1.288
 5410TIP3   OH216114   5.077   5.566   2.592
 5410TIP3    H116115   4.988   5.601   2.602
 5410TIP3    H216116   5.105   5.596   2.506
 5411TIP3   OH216117   4.906   5.293   1.167
 5411TIP3    H116118   4.875   5.297   1.076
 5411TIP3    H216119   5.001   5.300   1.159
 5412TIP3   OH216120   5.572   5.934   2.667
 5412TIP3    H116121   5.639   5.895   2.611
 5412TIP3    H216122   5.569   5.877   2.744
 5413TIP3   OH216123   5.183   5.330   2.686
 5413TIP3    H116124   5.179   5.260   2.621
 5413TIP3    H216125   5.144   5.406   2.643
 5414TIP3   OH216126   5.184   5.125   2.492
 5414TIP3    H116127   5.209   5.161   2.407
 5414TIP3    H216128   5.092   5.100   2.481
 5415TIP3   OH216129   5.187   5.664   2.364
 5415TIP3    H116130   5.274   5.701   2.353
 5415TIP3    H216131   5.130   5.721   2.312
 5416TIP3   OH216132   5.786   5.624   2.737
 5416TIP3    H116133   5.840   5.544   2.735
 5416TIP3    H216134   5.849   5.695   2.731
 5417TIP3   OH216135   5.813   5.881   2.479
 5417TIP3    H116136   5.759   5.943   2.429
 5417TIP3    H216137   5.902   5.897   2.448
 5418TIP3   OH216138   5.098   5.394   2.946
 5418TIP3    H116139   5.022   5.339   2.965
 5418TIP3    H216140   5.116   5.378   2.853
 5419TIP3   OH216141   5.316   4.898   2.597
 5419TIP3    H116142   5.271   4.978   2.570
 5419TIP3    H216143   5.247   4.831   2.595
 5420TIP3   OH216144   5.438   5.355   2.787
 5420TIP3    H116145   5.416   5.341   2.879
 5420TIP3    H216146   5.355   5.341   2.740
 5421TIP3   OH216147   5.688   5.324   2.665
 5421TIP3    H116148   5.607   5.321   2.717
 5421TIP3    H216149   5.757   5.303   2.728
 5422TIP3   OH216150   5.916   5.285   2.821
 5422TIP3    H116151   5.932   5.191   2.831
 5422TIP3    H216152   5.912   5.318   2.911
 5423TIP3   OH216153   4.909   5.195   3.002
 5423TIP3    H116154   4.895   5.106   2.968
 5423TIP3    H216155   4.939   5.181   3.092
 5424TIP3   OH216156   4.674   6.304   1.119
 5424TIP3    H116157   4.767   6.303   1.098
 5424TIP3    H216158   4.632   6.340   1.042
 5425TIP3   OH216159   4.179   5.720   1.295
 5425TIP3    H116160   4.274   5.732   1.289
 5425TIP3    H216161   4.162   5.636   1.251
 5426TIP3   OH216162   4.091   6.293   1.745
 5426TIP3    H116163   4.025   6.237   1.705
 5426TIP3    H216164   4.138   6.235   1.806
 5427TIP3   OH216165   4.236   6.132   1.917
 5427TIP3    H116166   4.225   6.066   1.985
 5427TIP3    H216167   4.290   6.199   1.958
 5428TIP3   OH216168   5.970   6.541   1.739
 5428TIP3    H116169   5.987   6.574   1.827
 5428TIP3    H216170   6.028   6.592   1.683
 5429TIP3   OH216171   5.985   6.578   2.016
 5429TIP3    H116172   5.940   6.494   2.010
 5429TIP3    H216173   6.057   6.562   2.078
 5430TIP3   OH216174   6.052   6.273   2.586
 5430TIP3    H116175   5.980   6.285   2.648
 5430TIP3    H216176   6.098   6.357   2.586
 5431TIP3   OH216177   5.860   5.791   1.215
 5431TIP3    H116178   5.927   5.856   1.193
 5431TIP3    H216179   5.902   5.735   1.280
 5432TIP3   OH216180   6.001   5.628   1.391
 5432TIP3    H116181   5.934   5.594   1.450
 5432TIP3    H216182   6.062   5.674   1.449
 5433TIP3   OH216183   6.041   6.043   1.832
 5433TIP3    H116184   6.092   5.977   1.786
 5433TIP3    H216185   6.046   6.121   1.778
 5434TIP3   OH216186   5.848   6.336   2.014
 5434TIP3    H116187   5.781   6.381   2.066
 5434TIP3    H216188   5.799   6.295   1.943
 5435TIP3   OH216189   5.832   5.547   1.086
 5435TIP3    H116190   5.786   5.534   1.003
 5435TIP3    H216191   5.814   5.638   1.110
 5436TIP3   OH216192   5.736   5.218   1.017
 5436TIP3    H116193   5.718   5.282   0.948
 5436TIP3    H216194   5.710   5.134   0.979
 5437TIP3   OH216195   5.796   5.501   1.531
 5437TIP3    H116196   5.796   5.406   1.519
 5437TIP3    H216197   5.776   5.513   1.623
 5438TIP3   OH216198   4.419   5.497   2.323
 5438TIP3    H116199   4.394   5.529   2.237
 5438TIP3    H216200   4.512   5.517   2.330
 5439TIP3   OH216201   6.072   5.926   2.389
 5439TIP3    H116202   6.138   5.859   2.370
 5439TIP3    H216203   6.093   5.998   2.328
 5440TIP3   OH216204   6.247   5.712   2.379
 5440TIP3    H116205   6.174   5.674   2.427
 5440TIP3    H216206   6.322   5.657   2.401
 5441TIP3   OH216207   5.730   4.946   0.948
 5441TIP3    H116208   5.785   4.916   1.020
 5441TIP3    H216209   5.643   4.910   0.968
 5442TIP3   OH216210   5.783   5.225   1.428
 5442TIP3    H116211   5.827   5.141   1.441
 5442TIP3    H216212   5.825   5.263   1.351
 5443TIP3   OH216213   5.937   5.397   1.939
 5443TIP3    H116214   6.017   5.415   1.890
 5443TIP3    H216215   5.951   5.438   2.024
 5444TIP3   OH216216   6.012   5.545   2.168
 5444TIP3    H116217   5.939   5.573   2.223
 5444TIP3    H216218   6.043   5.625   2.126
 5445TIP3   OH216219   4.661   5.310   2.993
 5445TIP3    H116220   4.752   5.282   2.989
 5445TIP3    H216221   4.611   5.229   2.998
 5446TIP3   OH216222   6.472   5.141   2.701
 5446TIP3    H116223   6.539   5.086   2.660
 5446TIP3    H216224   6.434   5.192   2.629
 5447TIP3   OH216225   5.901   4.978   1.472
 5447TIP3    H116226   5.943   4.961   1.556
 5447TIP3    H216227   5.838   4.906   1.463
 5448TIP3   OH216228   4.606   4.969   2.296
 5448TIP3    H116229   4.661   4.890   2.299
 5448TIP3    H216230   4.668   5.040   2.277
 5449TIP3   OH216231   4.374   5.226   2.328
 5449TIP3    H116232   4.434   5.207   2.256
 5449TIP3    H216233   4.381   5.320   2.341
 5450TIP3   OH216234   6.323   5.258   2.504
 5450TIP3    H116235   6.240   5.301   2.526
 5450TIP3    H216236   6.298   5.182   2.452
 5451TIP3   OH216237   5.952   4.890   1.107
 5451TIP3    H116238   5.996   4.832   1.046
 5451TIP3    H216239   6.011   4.966   1.115
 5452TIP3   OH216240   4.372   4.731   1.846
 5452TIP3    H116241   4.288   4.723   1.892
 5452TIP3    H216242   4.353   4.789   1.772
 5453TIP3   OH216243   5.525   6.463   1.412
 5453TIP3    H116244   5.575   6.453   1.330
 5453TIP3    H216245   5.566   6.537   1.456
 5454TIP3   OH216246   4.599   4.774   2.665
 5454TIP3    H116247   4.562   4.788   2.752
 5454TIP3    H216248   4.547   4.830   2.607
 5455TIP3   OH216249   4.605   6.265   2.736
 5455TIP3    H116250   4.516   6.230   2.730
 5455TIP3    H216251   4.631   6.247   2.826
 5456TIP3   OH216252   4.843   6.303   2.302
 5456TIP3    H116253   4.791   6.377   2.270
 5456TIP3    H216254   4.927   6.312   2.258
 5457TIP3   OH216255   5.235   6.531   2.438
 5457TIP3    H116256   5.273   6.524   2.526
 5457TIP3    H216257   5.298   6.585   2.389
 5458TIP3   OH216258   5.427   6.686   2.314
 5458TIP3    H116259   5.490   6.636   2.262
 5458TIP3    H216260   5.482   6.744   2.367
 5459TIP3   OH216261   6.233   5.017   2.395
 5459TIP3    H116262   6.151   5.019   2.345
 5459TIP3    H216263   6.262   4.926   2.388
 5460TIP3   OH216264   4.503   6.555   2.347
 5460TIP3    H116265   4.410   6.566   2.330
 5460TIP3    H216266   4.523   6.622   2.413
 5461TIP3   OH216267   4.733   6.533   2.198
 5461TIP3    H116268   4.650   6.541   2.246
 5461TIP3    H216269   4.709   6.554   2.108
 5462TIP3   OH216270   5.144   6.548   1.991
 5462TIP3    H116271   5.071   6.559   1.929
 5462TIP3    H216272   5.154   6.635   2.030
 5463TIP3   OH216273   5.404   6.479   2.042
 5463TIP3    H116274   5.314   6.502   2.021
 5463TIP3    H216275   5.457   6.545   1.997
 5464TIP3   OH216276   5.604   6.645   1.944
 5464TIP3    H116277   5.608   6.733   1.906
 5464TIP3    H216278   5.635   6.588   1.873
 5465TIP3   OH216279   4.406   6.308   2.066
 5465TIP3    H116280   4.432   6.287   2.156
 5465TIP3    H216281   4.479   6.277   2.012
 5466TIP3   OH216282   4.614   6.203   1.924
 5466TIP3    H116283   4.625   6.116   1.964
 5466TIP3    H216284   4.701   6.243   1.931
 5467TIP3   OH216285   4.883   6.285   1.951
 5467TIP3    H116286   4.903   6.193   1.934
 5467TIP3    H216287   4.938   6.309   2.026
 5468TIP3   OH216288   5.442   4.936   2.035
 5468TIP3    H116289   5.402   4.865   2.085
 5468TIP3    H216290   5.510   4.893   1.983
 5469TIP3   OH216291   5.943   4.851   1.928
 5469TIP3    H116292   5.980   4.901   1.855
 5469TIP3    H216293   5.850   4.873   1.928
 5470TIP3   OH216294   6.059   4.929   1.693
 5470TIP3    H116295   6.129   4.869   1.664
 5470TIP3    H216296   6.096   5.016   1.679
 5471TIP3   OH216297   4.680   4.637   2.031
 5471TIP3    H116298   4.591   4.604   2.042
 5471TIP3    H216299   4.734   4.558   2.023
 5472TIP3   OH216300   4.502   4.541   1.681
 5472TIP3    H116301   4.529   4.592   1.604
 5472TIP3    H216302   4.463   4.606   1.740
 5473TIP3   OH216303   5.163   4.674   1.930
 5473TIP3    H116304   5.210   4.721   1.861
 5473TIP3    H216305   5.203   4.705   2.011
 5474TIP3   OH216306   5.655   4.814   1.906
 5474TIP3    H116307   5.670   4.780   1.818
 5474TIP3    H216308   5.663   4.738   1.963
 5475TIP3   OH216309   5.714   4.771   1.472
 5475TIP3    H116310   5.634   4.818   1.496
 5475TIP3    H216311   5.703   4.684   1.510
 5476TIP3   OH216312   4.173   6.114   1.470
 5476TIP3    H116313   4.091   6.078   1.434
 5476TIP3    H216314   4.177   6.203   1.435
 5477TIP3   OH216315   4.609   4.674   1.446
 5477TIP3    H116316   4.656   4.614   1.389
 5477TIP3    H216317   4.677   4.731   1.483
 5478TIP3   OH216318   5.093   4.869   1.545
 5478TIP3    H116319   5.152   4.817   1.598
 5478TIP3    H216320   5.108   4.959   1.573
 5479TIP3   OH216321   4.941   6.249   1.069
 5479TIP3    H116322   5.019   6.294   1.037
 5479TIP3    H216323   4.924   6.181   1.004
 5480TIP3   OH216324   5.661   6.415   1.174
 5480TIP3    H116325   5.629   6.326   1.185
 5480TIP3    H216326   5.621   6.445   1.092
 5481TIP3   OH216327   4.888   4.927   2.908
 5481TIP3    H116328   4.847   4.861   2.965
 5481TIP3    H216329   4.979   4.930   2.936
 5482TIP3   OH216330   5.134   4.918   3.042
 5482TIP3    H116331   5.208   4.879   2.997
 5482TIP3    H216332   5.111   4.855   3.110
 5483TIP3   OH216333   4.282   6.111   1.105
 5483TIP3    H116334   4.291   6.123   1.200
 5483TIP3    H216335   4.361   6.063   1.080
 5484TIP3   OH216336   5.978   5.013   2.831
 5484TIP3    H116337   5.990   4.975   2.918
 5484TIP3    H216338   6.065   5.009   2.791
 5485TIP3   OH216339   5.895   6.548   2.333
 5485TIP3    H116340   5.821   6.518   2.279
 5485TIP3    H216341   5.884   6.643   2.338
 5486TIP3   OH216342   7.129   5.860   1.230
 5486TIP3    H116343   7.125   5.933   1.292
 5486TIP3    H216344   7.082   5.892   1.153
 5487TIP3   OH216345   7.147   5.922   1.515
 5487TIP3    H116346   7.197   5.909   1.596
 5487TIP3    H216347   7.107   5.837   1.498
 5488TIP3   OH216348   6.471   5.793   1.848
 5488TIP3    H116349   6.503   5.738   1.920
 5488TIP3    H216350   6.550   5.825   1.805
 5489TIP3   OH216351   7.344   6.100   1.184
 5489TIP3    H116352   7.362   6.076   1.275
 5489TIP3    H216353   7.360   6.194   1.180
 5490TIP3   OH216354   6.466   6.198   1.558
 5490TIP3    H116355   6.442   6.105   1.558
 5490TIP3    H216356   6.559   6.199   1.535
 5491TIP3   OH216357   6.153   5.417   1.294
 5491TIP3    H116358   6.114   5.497   1.329
 5491TIP3    H216359   6.079   5.362   1.269
 5492TIP3   OH216360   6.218   5.731   1.536
 5492TIP3    H116361   6.271   5.656   1.561
 5492TIP3    H216362   6.281   5.802   1.522
 5493TIP3   OH216363   6.996   6.592   1.253
 5493TIP3    H116364   7.052   6.534   1.200
 5493TIP3    H216365   7.016   6.568   1.343
 5494TIP3   OH216366   6.985   6.152   1.515
 5494TIP3    H116367   7.029   6.068   1.499
 5494TIP3    H216368   7.054   6.211   1.544
 5495TIP3   OH216369   7.957   5.478   1.569
 5495TIP3    H116370   7.989   5.561   1.605
 5495TIP3    H216371   8.010   5.464   1.490
 5496TIP3   OH216372   7.419   5.637   1.566
 5496TIP3    H116373   7.467   5.562   1.601
 5496TIP3    H216374   7.354   5.598   1.507
 5497TIP3   OH216375   6.726   5.305   1.493
 5497TIP3    H116376   6.708   5.375   1.431
 5497TIP3    H216377   6.672   5.232   1.463
 5498TIP3   OH216378   7.428   5.389   1.214
 5498TIP3    H116379   7.501   5.362   1.268
 5498TIP3    H216380   7.461   5.385   1.124
 5499TIP3   OH216381   6.363   5.513   1.622
 5499TIP3    H116382   6.444   5.495   1.669
 5499TIP3    H216383   6.368   5.460   1.543
 5500TIP3   OH216384   6.793   5.704   1.458
 5500TIP3    H116385   6.887   5.691   1.469
 5500TIP3    H216386   6.762   5.625   1.415
 5501TIP3   OH216387   8.053   5.699   1.707
 5501TIP3    H116388   7.962   5.730   1.705
 5501TIP3    H216389   8.090   5.738   1.786
 5502TIP3   OH216390   6.719   5.299   1.945
 5502TIP3    H116391   6.670   5.338   1.873
 5502TIP3    H216392   6.665   5.315   2.023
 5503TIP3   OH216393   6.986   6.136   1.146
 5503TIP3    H116394   6.962   6.048   1.115
 5503TIP3    H216395   6.911   6.190   1.123
 5504TIP3   OH216396   6.817   6.078   1.720
 5504TIP3    H116397   6.762   6.149   1.752
 5504TIP3    H216398   6.868   6.118   1.650
 5505TIP3   OH216399   7.635   5.378   1.393
 5505TIP3    H116400   7.579   5.366   1.469
 5505TIP3    H216401   7.684   5.457   1.411
 5506TIP3   OH216402   6.607   5.410   1.717
 5506TIP3    H116403   6.661   5.485   1.742
 5506TIP3    H216404   6.653   5.369   1.644
 5507TIP3   OH216405   6.658   6.279   1.818
 5507TIP3    H116406   6.646   6.369   1.788
 5507TIP3    H216407   6.578   6.259   1.867
 5508TIP3   OH216408   6.068   5.970   1.138
 5508TIP3    H116409   6.006   5.981   1.065
 5508TIP3    H216410   6.064   6.053   1.185
 5509TIP3   OH216411   7.419   6.503   1.438
 5509TIP3    H116412   7.331   6.470   1.459
 5509TIP3    H216413   7.408   6.598   1.437
 5510TIP3   OH216414   7.775   5.335   1.710
 5510TIP3    H116415   7.689   5.353   1.674
 5510TIP3    H216416   7.836   5.379   1.650
 5511TIP3   OH216417   7.062   4.988   1.689
 5511TIP3    H116418   7.056   4.897   1.717
 5511TIP3    H216419   6.985   5.030   1.728
 5512TIP3   OH216420   7.167   6.467   1.076
 5512TIP3    H116421   7.222   6.414   1.133
 5512TIP3    H216422   7.208   6.459   0.989
 5513TIP3   OH216423   7.370   6.397   0.884
 5513TIP3    H116424   7.325   6.317   0.909
 5513TIP3    H216425   7.463   6.374   0.883
 5514TIP3   OH216426   7.738   6.343   1.691
 5514TIP3    H116427   7.700   6.276   1.634
 5514TIP3    H216428   7.729   6.425   1.641
 5515TIP3   OH216429   6.971   5.895   1.011
 5515TIP3    H116430   6.878   5.879   0.996
 5515TIP3    H216431   7.015   5.826   0.962
 5516TIP3   OH216432   6.971   5.617   0.621
 5516TIP3    H116433   7.066   5.606   0.630
 5516TIP3    H216434   6.941   5.533   0.587
 5517TIP3   OH216435   7.876   6.037   1.616
 5517TIP3    H116436   7.791   6.076   1.600
 5517TIP3    H216437   7.914   6.025   1.529
 5518TIP3   OH216438   7.418   5.742   0.802
 5518TIP3    H116439   7.374   5.815   0.847
 5518TIP3    H216440   7.499   5.729   0.852
 5519TIP3   OH216441   7.570   5.882   1.834
 5519TIP3    H116442   7.581   5.965   1.880
 5519TIP3    H216443   7.485   5.890   1.790
 5520TIP3   OH216444   6.570   5.801   1.337
 5520TIP3    H116445   6.543   5.715   1.303
 5520TIP3    H216446   6.655   5.784   1.378
 5521TIP3   OH216447   6.724   6.234   1.438
 5521TIP3    H116448   6.703   6.206   1.349
 5521TIP3    H216449   6.815   6.207   1.450
 5522TIP3   OH216450   6.686   5.845   1.673
 5522TIP3    H116451   6.728   5.807   1.596
 5522TIP3    H216452   6.733   5.927   1.689
 5523TIP3   OH216453   7.144   6.479   1.477
 5523TIP3    H116454   7.166   6.559   1.524
 5523TIP3    H216455   7.156   6.409   1.542
 5524TIP3   OH216456   6.855   6.369   1.990
 5524TIP3    H116457   6.795   6.427   2.037
 5524TIP3    H216458   6.799   6.320   1.930
 5525TIP3   OH216459   7.250   5.607   0.632
 5525TIP3    H116460   7.306   5.663   0.686
 5525TIP3    H216461   7.262   5.639   0.543
 5526TIP3   OH216462   6.613   5.928   2.125
 5526TIP3    H116463   6.614   6.022   2.142
 5526TIP3    H216464   6.520   5.906   2.119
 5527TIP3   OH216465   6.931   6.388   0.960
 5527TIP3    H116466   7.010   6.411   1.009
 5527TIP3    H216467   6.873   6.464   0.972
 5528TIP3   OH216468   6.647   6.532   2.071
 5528TIP3    H116469   6.625   6.544   1.979
 5528TIP3    H216470   6.562   6.522   2.115
 5529TIP3   OH216471   7.680   4.871   0.740
 5529TIP3    H116472   7.609   4.886   0.803
 5529TIP3    H216473   7.668   4.939   0.674
 5530TIP3   OH216474   6.245   6.092   2.020
 5530TIP3    H116475   6.174   6.071   1.959
 5530TIP3    H216476   6.280   6.006   2.046
 5531TIP3   OH216477   6.091   6.285   1.705
 5531TIP3    H116478   6.183   6.308   1.718
 5531TIP3    H216479   6.043   6.362   1.735
 5532TIP3   OH216480   7.943   6.739   1.748
 5532TIP3    H116481   7.947   6.644   1.753
 5532TIP3    H216482   7.864   6.762   1.798
 5533TIP3   OH216483   7.033   6.527   1.856
 5533TIP3    H116484   7.026   6.611   1.900
 5533TIP3    H216485   6.976   6.468   1.906
 5534TIP3   OH216486   6.750   6.772   0.799
 5534TIP3    H116487   6.745   6.677   0.812
 5534TIP3    H216488   6.765   6.782   0.705
 5535TIP3   OH216489   6.245   6.430   1.245
 5535TIP3    H116490   6.303   6.429   1.321
 5535TIP3    H216491   6.205   6.343   1.244
 5536TIP3   OH216492   7.049   6.444   0.715
 5536TIP3    H116493   6.990   6.395   0.773
 5536TIP3    H216494   7.048   6.533   0.751
 5537TIP3   OH216495   7.829   5.843   2.007
 5537TIP3    H116496   7.743   5.859   1.970
 5537TIP3    H216497   7.844   5.750   1.994
 5538TIP3   OH216498   6.438   6.284   1.986
 5538TIP3    H116499   6.490   6.272   2.065
 5538TIP3    H216500   6.368   6.219   1.993
 5539TIP3   OH216501   6.824   5.083   1.804
 5539TIP3    H116502   6.740   5.050   1.771
 5539TIP3    H216503   6.801   5.164   1.849
 5540TIP3   OH216504   7.368   5.204   2.006
 5540TIP3    H116505   7.439   5.181   2.066
 5540TIP3    H216506   7.288   5.187   2.055
 5541TIP3   OH216507   7.584   5.622   1.920
 5541TIP3    H116508   7.547   5.617   2.008
 5541TIP3    H216509   7.567   5.712   1.893
 5542TIP3   OH216510   6.992   5.004   0.846
 5542TIP3    H116511   6.959   5.022   0.934
 5542TIP3    H216512   6.939   4.931   0.815
 5543TIP3   OH216513   6.759   5.618   1.812
 5543TIP3    H116514   6.716   5.625   1.898
 5543TIP3    H216515   6.738   5.700   1.768
 5544TIP3   OH216516   6.630   5.509   1.324
 5544TIP3    H116517   6.546   5.471   1.352
 5544TIP3    H216518   6.644   5.473   1.237
 5545TIP3   OH216519   7.056   5.601   1.151
 5545TIP3    H116520   7.066   5.684   1.198
 5545TIP3    H216521   7.145   5.577   1.125
 5546TIP3   OH216522   7.314   5.835   2.124
 5546TIP3    H116523   7.293   5.770   2.191
 5546TIP3    H216524   7.403   5.863   2.145
 5547TIP3   OH216525   7.254   5.521   1.379
 5547TIP3    H116526   7.286   5.592   1.323
 5547TIP3    H216527   7.290   5.442   1.340
 5548TIP3   OH216528   6.598   5.626   2.035
 5548TIP3    H116529   6.632   5.685   2.103
 5548TIP3    H216530   6.581   5.544   2.081
 5549TIP3   OH216531   6.521   5.110   0.836
 5549TIP3    H116532   6.534   5.137   0.927
 5549TIP3    H216533   6.526   5.191   0.786
 5550TIP3   OH216534   6.187   5.153   1.614
 5550TIP3    H116535   6.263   5.185   1.662
 5550TIP3    H216536   6.221   5.122   1.531
 5551TIP3   OH216537   6.103   5.125   1.131
 5551TIP3    H116538   6.155   5.161   1.059
 5551TIP3    H216539   6.036   5.192   1.148
 5552TIP3   OH216540   7.319   5.841   1.713
 5552TIP3    H116541   7.359   5.773   1.658
 5552TIP3    H216542   7.278   5.792   1.784
 5553TIP3   OH216543   7.002   5.269   1.415
 5553TIP3    H116544   6.925   5.279   1.471
 5553TIP3    H216545   7.076   5.277   1.474
 5554TIP3   OH216546   6.405   5.371   1.390
 5554TIP3    H116547   6.316   5.373   1.353
 5554TIP3    H216548   6.431   5.279   1.385
 5555TIP3   OH216549   6.673   5.383   1.084
 5555TIP3    H116550   6.766   5.377   1.105
 5555TIP3    H216551   6.671   5.423   0.997
 5556TIP3   OH216552   7.471   5.359   1.611
 5556TIP3    H116553   7.442   5.382   1.700
 5556TIP3    H216554   7.400   5.305   1.576
 5557TIP3   OH216555   6.407   5.404   0.948
 5557TIP3    H116556   6.358   5.326   0.924
 5557TIP3    H216557   6.479   5.408   0.886
 5558TIP3   OH216558   7.658   7.086   1.888
 5558TIP3    H116559   7.666   7.100   1.794
 5558TIP3    H216560   7.725   7.143   1.926
 5559TIP3   OH216561   6.591   6.192   2.218
 5559TIP3    H116562   6.673   6.211   2.264
 5559TIP3    H216563   6.523   6.203   2.285
 5560TIP3   OH216564   7.056   5.653   1.513
 5560TIP3    H116565   7.118   5.598   1.465
 5560TIP3    H216566   7.051   5.613   1.600
 5561TIP3   OH216567   6.538   5.126   1.381
 5561TIP3    H116568   6.516   5.046   1.427
 5561TIP3    H216569   6.553   5.098   1.290
 5562TIP3   OH216570   7.025   5.555   1.770
 5562TIP3    H116571   6.939   5.590   1.792
 5562TIP3    H216572   7.086   5.607   1.821
 5563TIP3   OH216573   6.712   5.903   0.951
 5563TIP3    H116574   6.632   5.922   0.903
 5563TIP3    H216575   6.700   5.946   1.036
 5564TIP3   OH216576   7.647   6.154   1.522
 5564TIP3    H116577   7.682   6.185   1.438
 5564TIP3    H216578   7.557   6.128   1.502
 5565TIP3   OH216579   7.243   5.107   0.793
 5565TIP3    H116580   7.160   5.058   0.790
 5565TIP3    H216581   7.219   5.196   0.766
 5566TIP3   OH216582   7.174   6.238   1.908
 5566TIP3    H116583   7.237   6.212   1.975
 5566TIP3    H216584   7.155   6.330   1.928
 5567TIP3   OH216585   7.313   5.386   0.772
 5567TIP3    H116586   7.406   5.406   0.759
 5567TIP3    H216587   7.267   5.456   0.727
 5568TIP3   OH216588   6.435   5.913   1.547
 5568TIP3    H116589   6.474   5.887   1.463
 5568TIP3    H216590   6.501   5.888   1.612
 5569TIP3   OH216591   6.966   6.102   0.834
 5569TIP3    H116592   6.876   6.128   0.813
 5569TIP3    H216593   6.957   6.037   0.903
 5570TIP3   OH216594   6.338   5.862   2.153
 5570TIP3    H116595   6.347   5.838   2.245
 5570TIP3    H216596   6.262   5.813   2.122
 5571TIP3   OH216597   7.087   5.994   2.168
 5571TIP3    H116598   7.023   5.939   2.122
 5571TIP3    H216599   7.172   5.959   2.142
 5572TIP3   OH216600   7.285   6.591   1.772
 5572TIP3    H116601   7.197   6.558   1.788
 5572TIP3    H216602   7.336   6.562   1.848
 5573TIP3   OH216603   7.849   5.543   0.652
 5573TIP3    H116604   7.836   5.478   0.582
 5573TIP3    H216605   7.783   5.610   0.634
 5574TIP3   OH216606   7.979   6.468   1.757
 5574TIP3    H116607   7.895   6.437   1.791
 5574TIP3    H216608   7.989   6.422   1.673
 5575TIP3   OH216609   7.399   6.053   1.450
 5575TIP3    H116610   7.315   6.021   1.484
 5575TIP3    H216611   7.449   5.973   1.433
 5576TIP3   OH216612   6.533   6.234   1.190
 5576TIP3    H116613   6.518   6.327   1.173
 5576TIP3    H216614   6.451   6.191   1.163
 5577TIP3   OH216615   6.104   5.573   1.036
 5577TIP3    H116616   6.064   5.592   0.951
 5577TIP3    H216617   6.030   5.565   1.096
 5578TIP3   OH216618   6.682   6.009   1.198
 5578TIP3    H116619   6.625   6.086   1.196
 5578TIP3    H216620   6.633   5.944   1.249
 5579TIP3   OH216621   6.864   6.582   1.647
 5579TIP3    H116622   6.899   6.659   1.601
 5579TIP3    H216623   6.932   6.557   1.708
 5580TIP3   OH216624   6.475   6.484   1.104
 5580TIP3    H116625   6.382   6.474   1.128
 5580TIP3    H216626   6.500   6.569   1.140
 5581TIP3   OH216627   7.215   6.263   1.638
 5581TIP3    H116628   7.194   6.251   1.731
 5581TIP3    H216629   7.309   6.246   1.632
 5582TIP3   OH216630   7.090   6.347   0.407
 5582TIP3    H116631   7.014   6.294   0.429
 5582TIP3    H216632   7.115   6.319   0.319
 5583TIP3   OH216633   7.512   6.715   1.694
 5583TIP3    H116634   7.434   6.666   1.719
 5583TIP3    H216635   7.480   6.788   1.642
 5584TIP3   OH216636   6.550   5.372   2.154
 5584TIP3    H116637   6.455   5.380   2.161
 5584TIP3    H216638   6.576   5.322   2.232
 5585TIP3   OH216639   7.435   6.053   0.669
 5585TIP3    H116640   7.371   5.985   0.647
 5585TIP3    H216641   7.505   6.043   0.605
 5586TIP3   OH216642   6.291   6.484   1.824
 5586TIP3    H116643   6.346   6.424   1.876
 5586TIP3    H216644   6.310   6.571   1.860
 5587TIP3   OH216645   6.538   6.080   0.498
 5587TIP3    H116646   6.551   5.993   0.462
 5587TIP3    H216647   6.614   6.095   0.553
 5588TIP3   OH216648   6.509   6.085   0.867
 5588TIP3    H116649   6.589   6.115   0.909
 5588TIP3    H216650   6.464   6.165   0.841
 5589TIP3   OH216651   7.392   5.435   1.860
 5589TIP3    H116652   7.469   5.482   1.893
 5589TIP3    H216653   7.385   5.358   1.917
 5590TIP3   OH216654   7.148   5.218   1.039
 5590TIP3    H116655   7.159   5.168   0.957
 5590TIP3    H216656   7.238   5.241   1.064
 5591TIP3   OH216657   6.926   5.366   1.171
 5591TIP3    H116658   6.969   5.451   1.164
 5591TIP3    H216659   6.955   5.330   1.255
 5592TIP3   OH216660   7.232   5.670   1.911
 5592TIP3    H116661   7.261   5.718   1.988
 5592TIP3    H216662   7.285   5.591   1.911
 5593TIP3   OH216663   7.093   5.061   1.257
 5593TIP3    H116664   7.076   5.131   1.321
 5593TIP3    H216665   7.127   5.107   1.180
 5594TIP3   OH216666   6.600   5.116   1.103
 5594TIP3    H116667   6.607   5.211   1.109
 5594TIP3    H216668   6.690   5.085   1.095
 5595TIP3   OH216669   7.849   5.574   1.911
 5595TIP3    H116670   7.754   5.579   1.917
 5595TIP3    H216671   7.866   5.519   1.834
 5596TIP3   OH216672   7.546   5.842   1.362
 5596TIP3    H116673   7.477   5.787   1.327
 5596TIP3    H216674   7.606   5.782   1.406
 5597TIP3   OH216675   6.144   5.973   0.767
 5597TIP3    H116676   6.149   6.066   0.744
 5597TIP3    H216677   6.225   5.936   0.732
 5598TIP3   OH216678   6.221   5.219   0.900
 5598TIP3    H116679   6.152   5.273   0.861
 5598TIP3    H216680   6.207   5.132   0.863
 5599TIP3   OH216681   7.519   6.746   1.316
 5599TIP3    H116682   7.463   6.728   1.241
 5599TIP3    H216683   7.575   6.668   1.323
 5600TIP3   OH216684   6.565   4.994   1.759
 5600TIP3    H116685   6.536   4.962   1.674
 5600TIP3    H216686   6.556   4.919   1.817
 5601TIP3   OH216687   6.050   6.222   1.240
 5601TIP3    H116688   6.028   6.267   1.321
 5601TIP3    H216689   6.018   6.281   1.171
 5602TIP3   OH216690   6.294   6.794   2.219
 5602TIP3    H116691   6.376   6.802   2.269
 5602TIP3    H216692   6.287   6.700   2.201
 5603TIP3   OH216693   6.756   6.693   2.267
 5603TIP3    H116694   6.849   6.671   2.273
 5603TIP3    H216695   6.724   6.640   2.194
 5604TIP3   OH216696   6.389   6.190   2.412
 5604TIP3    H116697   6.409   6.097   2.422
 5604TIP3    H216698   6.302   6.191   2.373
 5605TIP3   OH216699   6.367   5.877   0.647
 5605TIP3    H116700   6.448   5.839   0.680
 5605TIP3    H216701   6.393   5.964   0.616
 5606TIP3   OH216702   7.012   6.270   2.193
 5606TIP3    H116703   6.969   6.291   2.110
 5606TIP3    H216704   7.057   6.187   2.176
 5607TIP3   OH216705   6.943   6.084   0.458
 5607TIP3    H116706   6.875   6.151   0.455
 5607TIP3    H216707   6.899   6.004   0.431
 5608TIP3   OH216708   7.489   6.298   1.811
 5608TIP3    H116709   7.572   6.335   1.779
 5608TIP3    H216710   7.460   6.359   1.879
 5609TIP3   OH216711   6.507   5.933   2.417
 5609TIP3    H116712   6.583   5.926   2.359
 5609TIP3    H216713   6.543   5.954   2.503
 5610TIP3   OH216714   6.853   5.798   2.064
 5610TIP3    H116715   6.777   5.853   2.082
 5610TIP3    H216716   6.896   5.839   1.989
 5611TIP3   OH216717   6.669   5.467   0.812
 5611TIP3    H116718   6.635   5.416   0.739
 5611TIP3    H216719   6.762   5.443   0.817
 5612TIP3   OH216720   7.345   6.215   2.124
 5612TIP3    H116721   7.379   6.304   2.121
 5612TIP3    H216722   7.358   6.187   2.215
 5613TIP3   OH216723   6.974   5.584   2.186
 5613TIP3    H116724   6.980   5.511   2.125
 5613TIP3    H216725   6.936   5.656   2.135
 5614TIP3   OH216726   6.979   5.381   1.988
 5614TIP3    H116727   7.008   5.421   1.906
 5614TIP3    H216728   6.888   5.355   1.972
 5615TIP3   OH216729   6.993   5.931   1.873
 5615TIP3    H116730   7.077   5.978   1.872
 5615TIP3    H216731   6.935   5.985   1.819
 5616TIP3   OH216732   7.576   5.886   2.229
 5616TIP3    H116733   7.634   5.811   2.235
 5616TIP3    H216734   7.634   5.961   2.223
 5617TIP3   OH216735   7.629   6.114   1.961
 5617TIP3    H116736   7.565   6.175   1.925
 5617TIP3    H216737   7.714   6.150   1.935
 5618TIP3   OH216738   6.858   5.666   2.427
 5618TIP3    H116739   6.789   5.602   2.445
 5618TIP3    H216740   6.889   5.644   2.339
 5619TIP3   OH216741   7.103   5.152   2.085
 5619TIP3    H116742   7.063   5.233   2.053
 5619TIP3    H216743   7.037   5.085   2.071
 5620TIP3   OH216744   7.233   5.628   2.288
 5620TIP3    H116745   7.224   5.616   2.383
 5620TIP3    H216746   7.146   5.608   2.253
 5621TIP3   OH216747   7.476   5.574   2.160
 5621TIP3    H116748   7.399   5.580   2.216
 5621TIP3    H216749   7.548   5.559   2.221
 5622TIP3   OH216750   7.715   5.547   2.308
 5622TIP3    H116751   7.727   5.452   2.314
 5622TIP3    H216752   7.708   5.577   2.398
 5623TIP3   OH216753   6.688   5.449   2.491
 5623TIP3    H116754   6.696   5.361   2.454
 5623TIP3    H216755   6.728   5.442   2.578
 5624TIP3   OH216756   7.168   5.129   2.350
 5624TIP3    H116757   7.238   5.064   2.344
 5624TIP3    H216758   7.139   5.141   2.259
 5625TIP3   OH216759   7.264   5.343   2.495
 5625TIP3    H116760   7.233   5.272   2.439
 5625TIP3    H216761   7.192   5.406   2.495
 5626TIP3   OH216762   5.909   5.954   0.912
 5626TIP3    H116763   5.990   5.939   0.863
 5626TIP3    H216764   5.853   5.880   0.888
 5627TIP3   OH216765   5.869   6.551   1.286
 5627TIP3    H116766   5.806   6.499   1.236
 5627TIP3    H216767   5.911   6.489   1.345
 5628TIP3   OH216768   6.015   6.390   1.456
 5628TIP3    H116769   6.015   6.331   1.531
 5628TIP3    H216770   6.075   6.461   1.482
 5629TIP3   OH216771   7.826   6.715   1.235
 5629TIP3    H116772   7.882   6.724   1.312
 5629TIP3    H216773   7.783   6.801   1.227
 5630TIP3   OH216774   7.794   6.816   1.524
 5630TIP3    H116775   7.751   6.731   1.516
 5630TIP3    H216776   7.865   6.802   1.587
 5631TIP3   OH216777   7.790   6.519   2.042
 5631TIP3    H116778   7.695   6.529   2.049
 5631TIP3    H216779   7.825   6.606   2.062
 5632TIP3   OH216780   7.721   6.104   0.676
 5632TIP3    H116781   7.679   6.183   0.710
 5632TIP3    H216782   7.737   6.050   0.754
 5633TIP3   OH216783   7.804   5.934   0.886
 5633TIP3    H116784   7.788   5.969   0.973
 5633TIP3    H216785   7.893   5.961   0.865
 5634TIP3   OH216786   7.814   6.280   1.325
 5634TIP3    H116787   7.794   6.218   1.255
 5634TIP3    H216788   7.758   6.356   1.306
 5635TIP3   OH216789   7.675   6.564   1.542
 5635TIP3    H116790   7.622   6.612   1.606
 5635TIP3    H216791   7.611   6.523   1.484
 5636TIP3   OH216792   7.560   5.886   1.066
 5636TIP3    H116793   7.606   5.815   1.020
 5636TIP3    H216794   7.535   5.847   1.150
 5637TIP3   OH216795   6.205   5.816   1.796
 5637TIP3    H116796   6.195   5.789   1.705
 5637TIP3    H216797   6.300   5.818   1.811
 5638TIP3   OH216798   7.882   6.193   1.881
 5638TIP3    H116799   7.938   6.117   1.862
 5638TIP3    H216800   7.855   6.225   1.795
 5639TIP3   OH216801   8.042   5.969   1.895
 5639TIP3    H116802   7.968   5.928   1.939
 5639TIP3    H216803   8.116   5.912   1.916
 5640TIP3   OH216804   7.582   5.240   0.458
 5640TIP3    H116805   7.591   5.211   0.549
 5640TIP3    H216806   7.498   5.285   0.454
 5641TIP3   OH216807   7.550   5.400   0.963
 5641TIP3    H116808   7.643   5.394   0.985
 5641TIP3    H216809   7.546   5.467   0.895
 5642TIP3   OH216810   7.722   5.639   1.447
 5642TIP3    H116811   7.808   5.665   1.414
 5642TIP3    H216812   7.723   5.666   1.539
 5643TIP3   OH216813   7.782   5.786   1.679
 5643TIP3    H116814   7.706   5.807   1.732
 5643TIP3    H216815   7.820   5.870   1.656
 5644TIP3   OH216816   6.425   5.504   2.425
 5644TIP3    H116817   6.519   5.503   2.445
 5644TIP3    H216818   6.391   5.424   2.465
 5645TIP3   OH216819   8.266   5.402   2.192
 5645TIP3    H116820   8.328   5.343   2.149
 5645TIP3    H216821   8.228   5.453   2.121
 5646TIP3   OH216822   7.711   5.138   0.974
 5646TIP3    H116823   7.756   5.155   1.057
 5646TIP3    H216824   7.656   5.062   0.993
 5647TIP3   OH216825   6.403   5.220   1.774
 5647TIP3    H116826   6.458   5.141   1.780
 5647TIP3    H216827   6.466   5.291   1.761
 5648TIP3   OH216828   6.180   5.488   1.839
 5648TIP3    H116829   6.232   5.476   1.759
 5648TIP3    H216830   6.198   5.578   1.867
 5649TIP3   OH216831   8.119   5.520   1.996
 5649TIP3    H116832   8.040   5.559   2.032
 5649TIP3    H216833   8.087   5.448   1.940
 5650TIP3   OH216834   7.787   5.027   0.531
 5650TIP3    H116835   7.834   5.045   0.612
 5650TIP3    H216836   7.789   5.109   0.482
 5651TIP3   OH216837   6.167   5.000   1.364
 5651TIP3    H116838   6.080   4.987   1.400
 5651TIP3    H216839   6.153   5.050   1.284
 5652TIP3   OH216840   7.340   6.704   0.839
 5652TIP3    H116841   7.408   6.641   0.816
 5652TIP3    H216842   7.337   6.765   0.765
 5653TIP3   OH216843   6.398   5.046   2.163
 5653TIP3    H116844   6.348   5.044   2.245
 5653TIP3    H216845   6.343   5.096   2.103
 5654TIP3   OH216846   6.416   6.515   2.228
 5654TIP3    H116847   6.324   6.490   2.227
 5654TIP3    H216848   6.440   6.512   2.321
 5655TIP3   OH216849   6.633   6.553   1.791
 5655TIP3    H116850   6.581   6.625   1.757
 5655TIP3    H216851   6.718   6.562   1.748
 5656TIP3   OH216852   7.037   6.787   1.952
 5656TIP3    H116853   7.090   6.765   2.029
 5656TIP3    H216854   7.097   6.834   1.894
 5657TIP3   OH216855   7.231   6.882   1.778
 5657TIP3    H116856   7.272   6.796   1.793
 5657TIP3    H216857   7.284   6.943   1.829
 5658TIP3   OH216858   8.020   5.277   1.884
 5658TIP3    H116859   7.933   5.267   1.844
 5658TIP3    H216860   8.060   5.190   1.876
 5659TIP3   OH216861   6.295   6.786   1.845
 5659TIP3    H116862   6.204   6.802   1.819
 5659TIP3    H216863   6.316   6.857   1.905
 5660TIP3   OH216864   6.519   6.779   1.689
 5660TIP3    H116865   6.439   6.782   1.742
 5660TIP3    H216866   6.491   6.806   1.602
 5661TIP3   OH216867   6.944   6.797   1.495
 5661TIP3    H116868   6.861   6.799   1.447
 5661TIP3    H216869   6.949   6.883   1.537
 5662TIP3   OH216870   7.207   6.750   1.511
 5662TIP3    H116871   7.113   6.763   1.500
 5662TIP3    H216872   7.230   6.802   1.589
 5663TIP3   OH216873   7.450   6.913   1.524
 5663TIP3    H116874   7.408   6.994   1.494
 5663TIP3    H216875   7.462   6.861   1.444
 5664TIP3   OH216876   6.204   6.571   1.577
 5664TIP3    H116877   6.228   6.549   1.667
 5664TIP3    H216878   6.276   6.537   1.524
 5665TIP3   OH216879   6.412   6.445   1.460
 5665TIP3    H116880   6.424   6.359   1.499
 5665TIP3    H216881   6.500   6.481   1.455
 5666TIP3   OH216882   6.680   6.510   1.457
 5666TIP3    H116883   6.696   6.417   1.441
 5666TIP3    H216884   6.743   6.534   1.525
 5667TIP3   OH216885   7.246   5.191   1.533
 5667TIP3    H116886   7.207   5.118   1.581
 5667TIP3    H216887   7.311   5.150   1.475
 5668TIP3   OH216888   7.740   5.095   1.418
 5668TIP3    H116889   7.785   5.149   1.354
 5668TIP3    H216890   7.652   5.133   1.424
 5669TIP3   OH216891   7.876   5.170   1.191
 5669TIP3    H116892   7.937   5.100   1.167
 5669TIP3    H216893   7.927   5.250   1.182
 5670TIP3   OH216894   6.475   4.892   1.517
 5670TIP3    H116895   6.386   4.859   1.529
 5670TIP3    H216896   6.530   4.814   1.511
 5671TIP3   OH216897   6.272   4.783   1.218
 5671TIP3    H116898   6.320   4.827   1.148
 5671TIP3    H216899   6.241   4.854   1.274
 5672TIP3   OH216900   6.944   4.922   1.443
 5672TIP3    H116901   6.998   4.963   1.375
 5672TIP3    H216902   6.984   4.950   1.525
 5673TIP3   OH216903   7.449   5.070   1.393
 5673TIP3    H116904   7.478   5.037   1.308
 5673TIP3    H216905   7.457   4.995   1.452
 5674TIP3   OH216906   7.530   4.931   0.956
 5674TIP3    H116907   7.473   5.002   0.984
 5674TIP3    H216908   7.503   4.856   1.009
 5675TIP3   OH216909   5.976   6.390   1.042
 5675TIP3    H116910   5.976   6.325   0.972
 5675TIP3    H216911   5.934   6.467   1.002
 5676TIP3   OH216912   6.416   4.902   1.015
 5676TIP3    H116913   6.467   4.864   0.944
 5676TIP3    H216914   6.471   4.973   1.049
 5677TIP3   OH216915   6.874   5.097   1.081
 5677TIP3    H116916   6.920   5.047   1.149
 5677TIP3    H216917   6.907   5.187   1.093
 5678TIP3   OH216918   6.705   5.180   2.398
 5678TIP3    H116919   6.671   5.115   2.460
 5678TIP3    H216920   6.797   5.189   2.420
 5679TIP3   OH216921   6.952   5.184   2.521
 5679TIP3    H116922   7.030   5.163   2.469
 5679TIP3    H216923   6.948   5.116   2.588
 5680TIP3   OH216924   6.143   6.411   0.695
 5680TIP3    H116925   6.174   6.413   0.786
 5680TIP3    H216926   6.197   6.474   0.649
 5681TIP3   OH216927   7.775   5.274   2.313
 5681TIP3    H116928   7.792   5.245   2.402
 5681TIP3    H216929   7.859   5.269   2.268
 5682TIP3   OH216930   7.707   6.816   1.858
 5682TIP3    H116931   7.632   6.780   1.810
 5682TIP3    H216932   7.682   6.906   1.877
 5683TIP3   OH216933   8.949   6.171   0.989
 5683TIP3    H116934   9.030   6.206   0.952
 5683TIP3    H216935   8.922   6.101   0.929
 5684TIP3   OH216936   8.228   6.103   1.381
 5684TIP3    H116937   8.291   6.043   1.422
 5684TIP3    H216938   8.277   6.184   1.368
 5685TIP3   OH216939   8.246   6.393   0.972
 5685TIP3    H116940   8.283   6.311   1.006
 5685TIP3    H216941   8.203   6.433   1.048
 5686TIP3   OH216942   7.958   5.694   0.854
 5686TIP3    H116943   7.886   5.753   0.878
 5686TIP3    H216944   7.918   5.631   0.794
 5687TIP3   OH216945   8.063   5.991   0.839
 5687TIP3    H116946   8.081   5.987   0.933
 5687TIP3    H216947   8.103   6.074   0.811
 5688TIP3   OH216948   8.816   6.409   1.022
 5688TIP3    H116949   8.807   6.331   0.968
 5688TIP3    H216950   8.910   6.426   1.024
 5689TIP3   OH216951   9.161   5.944   1.028
 5689TIP3    H116952   9.158   5.851   1.051
 5689TIP3    H216953   9.234   5.951   0.966
 5690TIP3   OH216954   8.544   5.568   0.919
 5690TIP3    H116955   8.490   5.634   0.963
 5690TIP3    H216956   8.490   5.489   0.921
 5691TIP3   OH216957   8.043   5.683   1.121
 5691TIP3    H116958   8.136   5.700   1.132
 5691TIP3    H216959   8.029   5.684   1.026
 5692TIP3   OH216960   8.713   6.047   0.760
 5692TIP3    H116961   8.803   6.021   0.782
 5692TIP3    H216962   8.674   5.968   0.724
 5693TIP3   OH216963   8.500   5.538   1.472
 5693TIP3    H116964   8.457   5.534   1.387
 5693TIP3    H216965   8.434   5.574   1.531
 5694TIP3   OH216966   8.567   6.315   1.253
 5694TIP3    H116967   8.587   6.386   1.313
 5694TIP3    H216968   8.566   6.356   1.166
 5695TIP3   OH216969   8.279   5.669   1.303
 5695TIP3    H116970   8.309   5.760   1.301
 5695TIP3    H216971   8.339   5.622   1.246
 5696TIP3   OH216972   8.470   6.545   1.448
 5696TIP3    H116973   8.447   6.578   1.361
 5696TIP3    H216974   8.386   6.526   1.490
 5697TIP3   OH216975   8.867   5.199   1.161
 5697TIP3    H116976   8.838   5.118   1.204
 5697TIP3    H216977   8.802   5.265   1.187
 5698TIP3   OH216978   8.326   6.095   0.772
 5698TIP3    H116979   8.297   6.139   0.692
 5698TIP3    H216980   8.377   6.020   0.741
 5699TIP3   OH216981   8.556   6.483   1.032
 5699TIP3    H116982   8.518   6.414   0.978
 5699TIP3    H216983   8.650   6.464   1.032
 5700TIP3   OH216984   8.621   6.048   1.223
 5700TIP3    H116985   8.603   6.025   1.133
 5700TIP3    H216986   8.597   6.141   1.230
 5701TIP3   OH216987   8.678   6.712   1.526
 5701TIP3    H116988   8.664   6.753   1.611
 5701TIP3    H216989   8.598   6.660   1.511
 5702TIP3   OH216990   8.397   6.223   1.595
 5702TIP3    H116991   8.395   6.306   1.643
 5702TIP3    H216992   8.310   6.184   1.610
 5703TIP3   OH216993   8.419   6.821   1.621
 5703TIP3    H116994   8.406   6.799   1.528
 5703TIP3    H216995   8.347   6.778   1.666
 5704TIP3   OH216996   8.024   6.319   1.522
 5704TIP3    H116997   7.951   6.300   1.464
 5704TIP3    H216998   8.064   6.234   1.539
 5705TIP3   OH216999   7.862   6.503   1.062
 5705TIP3    H117000   7.950   6.474   1.085
 5705TIP3    H217001   7.851   6.587   1.106
 5706TIP3   OH217002   8.813   6.808   1.316
 5706TIP3    H117003   8.813   6.903   1.327
 5706TIP3    H217004   8.764   6.775   1.392
 5707TIP3   OH217005   8.215   6.518   1.543
 5707TIP3    H117006   8.254   6.509   1.630
 5707TIP3    H217007   8.157   6.442   1.535
 5708TIP3   OH217008   8.558   5.230   1.319
 5708TIP3    H117009   8.465   5.247   1.306
 5708TIP3    H217010   8.602   5.306   1.281
 5709TIP3   OH217011   9.142   5.415   1.554
 5709TIP3    H117012   9.187   5.354   1.613
 5709TIP3    H217013   9.051   5.386   1.554
 5710TIP3   OH217014   8.583   5.885   1.444
 5710TIP3    H117015   8.498   5.894   1.488
 5710TIP3    H217016   8.591   5.963   1.389
 5711TIP3   OH217017   8.460   5.853   0.735
 5711TIP3    H117018   8.375   5.812   0.720
 5711TIP3    H217019   8.523   5.797   0.690
 5712TIP3   OH217020   9.122   6.105   1.675
 5712TIP3    H117021   9.112   6.024   1.726
 5712TIP3    H217022   9.216   6.124   1.679
 5713TIP3   OH217023   8.333   5.900   1.555
 5713TIP3    H117024   8.268   5.947   1.606
 5713TIP3    H217025   8.328   5.809   1.586
 5714TIP3   OH217026   8.030   5.390   1.150
 5714TIP3    H117027   8.062   5.406   1.239
 5714TIP3    H217028   8.078   5.452   1.096
 5715TIP3   OH217029   8.121   5.507   0.603
 5715TIP3    H117030   8.130   5.563   0.526
 5715TIP3    H217031   8.030   5.519   0.631
 5716TIP3   OH217032   9.151   6.163   1.210
 5716TIP3    H117033   9.136   6.106   1.134
 5716TIP3    H217034   9.064   6.174   1.248
 5717TIP3   OH217035   8.787   5.450   0.937
 5717TIP3    H117036   8.705   5.492   0.913
 5717TIP3    H217037   8.853   5.518   0.925
 5718TIP3   OH217038   8.191   5.502   0.941
 5718TIP3    H117039   8.125   5.461   0.885
 5718TIP3    H217040   8.261   5.437   0.946
 5719TIP3   OH217041   9.160   5.679   1.117
 5719TIP3    H117042   9.186   5.708   1.205
 5719TIP3    H217043   9.078   5.633   1.129
 5720TIP3   OH217044   8.393   6.449   1.750
 5720TIP3    H117045   8.477   6.467   1.793
 5720TIP3    H217046   8.329   6.453   1.821
 5721TIP3   OH217047   8.954   5.946   0.839
 5721TIP3    H117048   8.943   5.852   0.821
 5721TIP3    H217049   9.034   5.952   0.891
 5722TIP3   OH217050   8.394   5.321   0.939
 5722TIP3    H117051   8.361   5.240   0.978
 5722TIP3    H217052   8.379   5.310   0.845
 5723TIP3   OH217053   8.820   5.778   1.374
 5723TIP3    H117054   8.746   5.829   1.407
 5723TIP3    H217055   8.897   5.827   1.402
 5724TIP3   OH217056   8.995   6.608   1.319
 5724TIP3    H117057   8.991   6.560   1.401
 5724TIP3    H217058   8.932   6.679   1.330
 5725TIP3   OH217059   8.358   6.149   1.037
 5725TIP3    H117060   8.336   6.119   0.949
 5725TIP3    H217061   8.349   6.071   1.092
 5726TIP3   OH217062   8.156   6.103   1.675
 5726TIP3    H117063   8.186   6.111   1.766
 5726TIP3    H217064   8.071   6.060   1.682
 5727TIP3   OH217065   8.900   6.253   1.708
 5727TIP3    H117066   8.827   6.214   1.661
 5727TIP3    H217067   8.974   6.193   1.693
 5728TIP3   OH217068   9.148   6.757   1.149
 5728TIP3    H117069   9.105   6.693   1.206
 5728TIP3    H217070   9.230   6.777   1.194
 5729TIP3   OH217071   8.631   6.989   1.177
 5729TIP3    H117072   8.669   7.038   1.104
 5729TIP3    H217073   8.653   6.898   1.158
 5730TIP3   OH217074   9.083   6.459   1.048
 5730TIP3    H117075   9.131   6.448   1.130
 5730TIP3    H217076   9.150   6.446   0.980
 5731TIP3   OH217077   8.320   5.634   1.657
 5731TIP3    H117078   8.224   5.642   1.666
 5731TIP3    H217079   8.345   5.571   1.725
 5732TIP3   OH217080   8.054   6.693   1.410
 5732TIP3    H117081   8.107   6.637   1.467
 5732TIP3    H217082   8.063   6.781   1.446
 5733TIP3   OH217083   9.097   5.643   1.421
 5733TIP3    H117084   9.135   5.714   1.473
 5733TIP3    H217085   9.118   5.563   1.469
 5734TIP3   OH217086   9.019   5.947   1.473
 5734TIP3    H117087   9.061   5.995   1.545
 5734TIP3    H217088   9.092   5.921   1.417
 5735TIP3   OH217089   8.282   5.219   1.281
 5735TIP3    H117090   8.265   5.184   1.193
 5735TIP3    H217091   8.294   5.142   1.335
 5736TIP3   OH217092   8.052   6.991   1.792
 5736TIP3    H117093   8.133   6.980   1.841
 5736TIP3    H217094   8.018   6.902   1.782
 5737TIP3   OH217095   8.536   6.946   1.833
 5737TIP3    H117096   8.628   6.919   1.831
 5737TIP3    H217097   8.496   6.901   1.759
 5738TIP3   OH217098   9.269   7.020   1.589
 5738TIP3    H117099   9.208   6.975   1.531
 5738TIP3    H217100   9.349   6.967   1.587
 5739TIP3   OH217101   8.188   6.431   1.932
 5739TIP3    H117102   8.196   6.336   1.938
 5739TIP3    H217103   8.108   6.445   1.881
 5740TIP3   OH217104   8.845   6.526   1.725
 5740TIP3    H117105   8.800   6.511   1.642
 5740TIP3    H217106   8.885   6.441   1.746
 5741TIP3   OH217107   8.320   6.168   1.903
 5741TIP3    H117108   8.404   6.150   1.861
 5741TIP3    H217109   8.343   6.199   1.991
 5742TIP3   OH217110   8.609   6.074   1.682
 5742TIP3    H117111   8.533   6.122   1.648
 5742TIP3    H217112   8.673   6.077   1.611
 5743TIP3   OH217113   9.178   6.452   1.696
 5743TIP3    H117114   9.142   6.405   1.621
 5743TIP3    H217115   9.182   6.386   1.765
 5744TIP3   OH217116   8.792   5.822   1.680
 5744TIP3    H117117   8.781   5.731   1.654
 5744TIP3    H217118   8.714   5.867   1.647
 5745TIP3   OH217119   8.756   5.578   1.547
 5745TIP3    H117120   8.787   5.637   1.478
 5745TIP3    H217121   8.665   5.560   1.525
 5746TIP3   OH217122   8.799   6.102   1.487
 5746TIP3    H117123   8.870   6.038   1.482
 5746TIP3    H217124   8.809   6.156   1.408
 5747TIP3   OH217125   9.386   6.154   1.730
 5747TIP3    H117126   9.437   6.080   1.762
 5747TIP3    H217127   9.416   6.167   1.640
 5748TIP3   OH217128   8.639   5.950   1.927
 5748TIP3    H117129   8.579   5.876   1.930
 5748TIP3    H217130   8.630   5.985   1.838
 5749TIP3   OH217131   8.883   5.343   1.582
 5749TIP3    H117132   8.841   5.428   1.569
 5749TIP3    H217133   8.811   5.280   1.575
 5750TIP3   OH217134   9.049   5.865   1.774
 5750TIP3    H117135   9.027   5.855   1.867
 5750TIP3    H217136   8.967   5.849   1.728
 5751TIP3   OH217137   9.264   5.772   1.604
 5751TIP3    H117138   9.200   5.795   1.671
 5751TIP3    H217139   9.347   5.769   1.651
 5752TIP3   OH217140   9.519   5.758   1.734
 5752TIP3    H117141   9.528   5.681   1.790
 5752TIP3    H217142   9.505   5.831   1.795
 5753TIP3   OH217143   8.490   5.712   1.974
 5753TIP3    H117144   8.494   5.625   1.934
 5753TIP3    H217145   8.528   5.700   2.061
 5754TIP3   OH217146   8.967   5.392   1.839
 5754TIP3    H117147   9.028   5.321   1.860
 5754TIP3    H217148   8.940   5.375   1.749
 5755TIP3   OH217149   9.051   5.614   1.976
 5755TIP3    H117150   9.026   5.543   1.917
 5755TIP3    H217151   8.980   5.678   1.969
 5756TIP3   OH217152   7.899   6.570   0.806
 5756TIP3    H117153   7.857   6.545   0.888
 5756TIP3    H217154   7.979   6.616   0.832
 5757TIP3   OH217155   7.976   6.021   1.366
 5757TIP3    H117156   7.949   6.047   1.278
 5757TIP3    H217157   8.068   6.048   1.372
 5758TIP3   OH217158   8.223   5.768   1.933
 5758TIP3    H117159   8.318   5.762   1.940
 5758TIP3    H217160   8.191   5.684   1.965
 5759TIP3   OH217161   8.159   5.438   1.391
 5759TIP3    H117162   8.218   5.372   1.356
 5759TIP3    H217163   8.200   5.522   1.368
 5760TIP3   OH217164   7.951   5.746   1.366
 5760TIP3    H117165   7.989   5.718   1.283
 5760TIP3    H217166   7.977   5.838   1.375
 5761TIP3   OH217167   8.026   5.314   0.828
 5761TIP3    H117168   8.081   5.248   0.870
 5761TIP3    H217169   8.038   5.298   0.734
 5762TIP3   OH217170   8.200   5.319   1.659
 5762TIP3    H117171   8.127   5.321   1.721
 5762TIP3    H217172   8.165   5.358   1.579
 5763TIP3   OH217173   8.217   6.725   1.773
 5763TIP3    H117174   8.123   6.722   1.753
 5763TIP3    H217175   8.221   6.721   1.869
 5764TIP3   OH217176   8.436   6.882   1.341
 5764TIP3    H117177   8.365   6.941   1.314
 5764TIP3    H217178   8.515   6.920   1.302
 5765TIP3   OH217179   8.845   7.056   1.415
 5765TIP3    H117180   8.895   7.006   1.480
 5765TIP3    H217181   8.912   7.099   1.362
 5766TIP3   OH217182   9.042   7.191   1.287
 5766TIP3    H117183   9.096   7.147   1.221
 5766TIP3    H217184   9.105   7.223   1.351
 5767TIP3   OH217185   8.092   6.962   1.432
 5767TIP3    H117186   8.040   7.011   1.367
 5767TIP3    H217187   8.121   7.028   1.495
 5768TIP3   OH217188   8.294   7.053   1.173
 5768TIP3    H117189   8.216   7.093   1.135
 5768TIP3    H217190   8.314   6.979   1.116
 5769TIP3   OH217191   7.916   6.844   0.965
 5769TIP3    H117192   7.941   6.864   1.055
 5769TIP3    H217193   7.993   6.799   0.928
 5770TIP3   OH217194   8.125   6.706   0.857
 5770TIP3    H117195   8.202   6.653   0.876
 5770TIP3    H217196   8.157   6.778   0.803
 5771TIP3   OH217197   8.403   6.865   1.009
 5771TIP3    H117198   8.379   6.790   0.955
 5771TIP3    H217199   8.495   6.850   1.031
 5772TIP3   OH217200   9.091   5.386   0.971
 5772TIP3    H117201   9.010   5.359   1.013
 5772TIP3    H217202   9.076   5.372   0.877
 5773TIP3   OH217203   8.257   5.102   1.027
 5773TIP3    H117204   8.172   5.059   1.041
 5773TIP3    H217205   8.318   5.030   1.013
 5774TIP3   OH217206   8.146   5.012   0.697
 5774TIP3    H117207   8.148   5.088   0.639
 5774TIP3    H217208   8.059   5.014   0.736
 5775TIP3   OH217209   8.758   5.178   0.904
 5775TIP3    H117210   8.763   5.272   0.890
 5775TIP3    H217211   8.806   5.163   0.985
 5776TIP3   OH217212   8.498   5.439   1.902
 5776TIP3    H117213   8.462   5.373   1.961
 5776TIP3    H217214   8.591   5.443   1.925
 5777TIP3   OH217215   8.752   5.435   2.012
 5777TIP3    H117216   8.822   5.440   1.947
 5777TIP3    H217217   8.763   5.350   2.053
 5778TIP3   OH217218   9.691   7.055   2.863
 5778TIP3    H117219   9.732   6.989   2.919
 5778TIP3    H217220   9.663   7.124   2.923
 5779TIP3   OH217221   0.500   6.254   3.168
 5779TIP3    H117222   0.507   6.340   3.209
 5779TIP3    H217223   0.535   6.266   3.079
 5780TIP3   OH217224   9.680   6.456   3.180
 5780TIP3    H117225   9.678   6.408   3.263
 5780TIP3    H217226   9.635   6.399   3.118
 5781TIP3   OH217227  -0.009   6.294   2.815
 5781TIP3    H117228   0.039   6.245   2.882
 5781TIP3    H217229   0.023   6.260   2.732
 5782TIP3   OH217230   0.540   6.476   3.339
 5782TIP3    H117231   0.471   6.535   3.308
 5782TIP3    H217232   0.499   6.425   3.409
 5783TIP3   OH217233   0.118   6.183   3.045
 5783TIP3    H117234   0.034   6.184   3.091
 5783TIP3    H217235   0.158   6.267   3.067
 5784TIP3   OH217236   0.321   6.114   3.339
 5784TIP3    H117237   0.231   6.096   3.315
 5784TIP3    H217238   0.359   6.155   3.262
 5785TIP3   OH217239   0.157   7.218   3.354
 5785TIP3    H117240   0.149   7.139   3.300
 5785TIP3    H217241   0.132   7.289   3.296
 5786TIP3   OH217242   0.363   6.834   3.205
 5786TIP3    H117243   0.286   6.891   3.212
 5786TIP3    H217244   0.391   6.842   3.114
 5787TIP3   OH217245   9.623   6.555   2.498
 5787TIP3    H117246   9.559   6.605   2.448
 5787TIP3    H217247   9.672   6.620   2.548
 5788TIP3   OH217248  -0.017   6.870   3.367
 5788TIP3    H117249   0.027   6.914   3.440
 5788TIP3    H217250  -0.005   6.777   3.385
 5789TIP3   OH217251   0.181   5.739   2.421
 5789TIP3    H117252   0.102   5.757   2.474
 5789TIP3    H217253   0.194   5.820   2.371
 5790TIP3   OH217254   0.405   7.525   3.378
 5790TIP3    H117255   0.413   7.430   3.392
 5790TIP3    H217256   0.327   7.550   3.428
 5791TIP3   OH217257   0.270   6.638   3.602
 5791TIP3    H117258   0.222   6.698   3.659
 5791TIP3    H217259   0.256   6.552   3.640
 5792TIP3   OH217260   0.105   6.385   3.496
 5792TIP3    H117261   0.110   6.387   3.592
 5792TIP3    H217262   0.023   6.339   3.478
 5793TIP3   OH217263   9.508   6.327   3.011
 5793TIP3    H117264   9.518   6.383   2.934
 5793TIP3    H217265   9.511   6.237   2.977
 5794TIP3   OH217266   0.062   6.031   3.341
 5794TIP3    H117267   0.035   6.048   3.432
 5794TIP3    H217268  -0.004   6.075   3.288
 5795TIP3   OH217269   0.158   7.013   3.173
 5795TIP3    H117270   0.189   7.050   3.090
 5795TIP3    H217271   0.081   6.961   3.149
 5796TIP3   OH217272   9.452   6.086   2.494
 5796TIP3    H117273   9.382   6.106   2.431
 5796TIP3    H217274   9.523   6.051   2.439
 5797TIP3   OH217275   9.689   6.314   2.392
 5797TIP3    H117276   9.752   6.299   2.462
 5797TIP3    H217277   9.652   6.400   2.411
 5798TIP3   OH217278   0.211   6.377   2.332
 5798TIP3    H117279   0.153   6.329   2.273
 5798TIP3    H217280   0.201   6.468   2.306
 5799TIP3   OH217281   0.419   7.245   3.420
 5799TIP3    H117282   0.323   7.238   3.414
 5799TIP3    H217283   0.450   7.214   3.335
 5800TIP3   OH217284   9.755   6.863   3.050
 5800TIP3    H117285   9.673   6.856   3.099
 5800TIP3    H217286   9.777   6.773   3.027
 5801TIP3   OH217287   9.797   6.097   3.620
 5801TIP3    H117288   9.775   6.124   3.709
 5801TIP3    H217289   9.717   6.055   3.587
 5802TIP3   OH217290   9.659   6.050   2.669
 5802TIP3    H117291   9.578   6.069   2.622
 5802TIP3    H217292   9.643   6.084   2.758
 5803TIP3   OH217293   0.375   6.334   3.496
 5803TIP3    H117294   0.285   6.368   3.494
 5803TIP3    H217295   0.368   6.246   3.458
 5804TIP3   OH217296   0.027   6.597   2.997
 5804TIP3    H117297  -0.033   6.548   3.054
 5804TIP3    H217298   0.111   6.553   3.010
 5805TIP3   OH217299   9.764   7.418   2.939
 5805TIP3    H117300   9.686   7.363   2.950
 5805TIP3    H217301   9.759   7.448   2.848
 5806TIP3   OH217302   9.752   6.638   3.885
 5806TIP3    H117303   9.793   6.574   3.943
 5806TIP3    H217304   9.820   6.705   3.871
 5807TIP3   OH217305   0.087   7.008   3.581
 5807TIP3    H117306   0.049   7.093   3.558
 5807TIP3    H217307   0.181   7.020   3.570
 5808TIP3   OH217308   9.703   6.426   3.716
 5808TIP3    H117309   9.675   6.344   3.756
 5808TIP3    H217310   9.693   6.491   3.787
 5809TIP3   OH217311   0.296   6.281   3.994
 5809TIP3    H117312   0.282   6.189   4.014
 5809TIP3    H217313   0.336   6.317   4.073
 5810TIP3   OH217314   0.288   7.767   2.911
 5810TIP3    H117315   0.269   7.708   2.983
 5810TIP3    H217316   0.316   7.710   2.839
 5811TIP3   OH217317   0.259   7.628   3.154
 5811TIP3    H117318   0.202   7.551   3.157
 5811TIP3    H217319   0.330   7.608   3.214
 5812TIP3   OH217320   0.246   7.357   3.777
 5812TIP3    H117321   0.175   7.371   3.840
 5812TIP3    H217322   0.301   7.435   3.784
 5813TIP3   OH217323   0.143   6.827   2.356
 5813TIP3    H117324   0.193   6.905   2.333
 5813TIP3    H217325   0.186   6.794   2.435
 5814TIP3   OH217326   0.269   6.692   2.565
 5814TIP3    H117327   0.201   6.655   2.622
 5814TIP3    H217328   0.331   6.733   2.625
 5815TIP3   OH217329   0.313   7.115   2.971
 5815TIP3    H117330   0.358   7.036   2.942
 5815TIP3    H217331   0.338   7.182   2.908
 5816TIP3   OH217332   0.065   7.428   3.190
 5816TIP3    H117333   0.007   7.500   3.215
 5816TIP3    H217334   0.044   7.412   3.097
 5817TIP3   OH217335   0.157   6.609   2.200
 5817TIP3    H117336   0.080   6.609   2.143
 5817TIP3    H217337   0.146   6.687   2.254
 5818TIP3   OH217338   0.031   6.269   2.160
 5818TIP3    H117339  -0.036   6.283   2.226
 5818TIP3    H217340   0.018   6.178   2.132
 5819TIP3   OH217341   0.079   6.565   2.719
 5819TIP3    H117342   0.063   6.471   2.713
 5819TIP3    H217343   0.046   6.590   2.805
 5820TIP3   OH217344   0.362   7.001   3.560
 5820TIP3    H117345   0.416   6.922   3.558
 5820TIP3    H217346   0.401   7.059   3.494
 5821TIP3   OH217347   0.511   6.768   3.561
 5821TIP3    H117348   0.433   6.712   3.569
 5821TIP3    H217349   0.584   6.710   3.583
 5822TIP3   OH217350   9.794   6.000   2.104
 5822TIP3    H117351   9.868   5.990   2.164
 5822TIP3    H217352   9.727   5.941   2.138
 5823TIP3   OH217353   0.096   6.260   2.562
 5823TIP3    H117354   0.140   6.177   2.577
 5823TIP3    H217355   0.153   6.307   2.501
 5824TIP3   OH217356   0.229   6.433   3.103
 5824TIP3    H117357   0.312   6.454   3.060
 5824TIP3    H217358   0.236   6.475   3.189
 5825TIP3   OH217359   0.289   6.597   3.320
 5825TIP3    H117360   0.270   6.612   3.412
 5825TIP3    H217361   0.305   6.684   3.284
 5826TIP3   OH217362   0.740   6.185   3.860
 5826TIP3    H117363   0.796   6.118   3.821
 5826TIP3    H217364   0.712   6.240   3.787
 5827TIP3   OH217365   0.200   6.013   2.615
 5827TIP3    H117366   0.234   5.998   2.703
 5827TIP3    H217367   0.132   5.946   2.603
 5828TIP3   OH217368   0.626   6.320   3.651
 5828TIP3    H117369   0.554   6.354   3.705
 5828TIP3    H217370   0.586   6.249   3.601
 5829TIP3   OH217371   0.223   5.958   2.256
 5829TIP3    H117372   0.268   5.896   2.198
 5829TIP3    H217373   0.286   6.029   2.267
 5830TIP3   OH217374   0.528   6.063   3.564
 5830TIP3    H117375   0.437   6.075   3.593
 5830TIP3    H217376   0.544   5.969   3.574
 5831TIP3   OH217377   9.425   6.046   3.172
 5831TIP3    H117378   9.451   6.056   3.263
 5831TIP3    H217379   9.384   5.960   3.168
 5832TIP3   OH217380   0.211   5.916   3.071
 5832TIP3    H117381   0.272   5.937   3.000
 5832TIP3    H217382   0.161   5.997   3.084
 5833TIP3   OH217383   0.345   5.960   2.842
 5833TIP3    H117384   0.415   5.906   2.806
 5833TIP3    H217385   0.376   6.050   2.832
 5834TIP3   OH217386   9.670   5.893   2.991
 5834TIP3    H117387   9.658   5.808   2.951
 5834TIP3    H217388   9.676   5.875   3.085
 5835TIP3   OH217389   9.795   5.830   2.597
 5835TIP3    H117390   9.737   5.896   2.636
 5835TIP3    H217391   9.775   5.750   2.645
 5836TIP3   OH217392   0.252   6.018   4.039
 5836TIP3    H117393   0.249   6.003   4.134
 5836TIP3    H217394   0.340   5.990   4.013
 5837TIP3   OH217395   0.174   7.565   3.526
 5837TIP3    H117396   0.156   7.482   3.570
 5837TIP3    H217397   0.184   7.628   3.597
 5838TIP3   OH217398   1.424   6.989   2.247
 5838TIP3    H117399   1.392   7.075   2.222
 5838TIP3    H217400   1.352   6.929   2.226
 5839TIP3   OH217401   1.415   6.974   2.673
 5839TIP3    H117402   1.470   6.959   2.750
 5839TIP3    H217403   1.375   6.889   2.655
 5840TIP3   OH217404   0.722   6.833   3.016
 5840TIP3    H117405   0.761   6.784   3.088
 5840TIP3    H217406   0.795   6.858   2.960
 5841TIP3   OH217407   1.686   7.281   2.343
 5841TIP3    H117408   1.677   7.213   2.410
 5841TIP3    H217409   1.708   7.360   2.391
 5842TIP3   OH217410   0.702   7.254   2.711
 5842TIP3    H117411   0.691   7.159   2.706
 5842TIP3    H217412   0.796   7.268   2.706
 5843TIP3   OH217413   0.419   6.469   2.489
 5843TIP3    H117414   0.378   6.550   2.519
 5843TIP3    H217415   0.352   6.427   2.435
 5844TIP3   OH217416   0.490   6.786   2.705
 5844TIP3    H117417   0.541   6.709   2.731
 5844TIP3    H217418   0.556   6.852   2.683
 5845TIP3   OH217419   1.363   7.697   2.371
 5845TIP3    H117420   1.389   7.638   2.300
 5845TIP3    H217421   1.370   7.644   2.450
 5846TIP3   OH217422   1.229   7.196   2.676
 5846TIP3    H117423   1.274   7.115   2.650
 5846TIP3    H217424   1.299   7.254   2.705
 5847TIP3   OH217425   1.628   6.693   2.708
 5847TIP3    H117426   1.657   6.608   2.738
 5847TIP3    H217427   1.591   6.677   2.621
 5848TIP3   OH217428   0.993   6.338   2.671
 5848TIP3    H117429   0.975   6.413   2.615
 5848TIP3    H217430   0.936   6.269   2.636
 5849TIP3   OH217431   1.687   6.442   2.310
 5849TIP3    H117432   1.745   6.436   2.386
 5849TIP3    H217433   1.742   6.478   2.241
 5850TIP3   OH217434   0.632   6.568   2.795
 5850TIP3    H117435   0.715   6.548   2.839
 5850TIP3    H217436   0.634   6.513   2.717
 5851TIP3   OH217437   1.041   6.757   2.622
 5851TIP3    H117438   1.135   6.743   2.628
 5851TIP3    H217439   1.007   6.675   2.587
 5852TIP3   OH217440   2.312   6.727   2.876
 5852TIP3    H117441   2.240   6.770   2.830
 5852TIP3    H217442   2.269   6.676   2.945
 5853TIP3   OH217443   0.971   6.344   3.124
 5853TIP3    H117444   0.921   6.383   3.052
 5853TIP3    H217445   0.920   6.364   3.203
 5854TIP3   OH217446   1.318   7.207   2.111
 5854TIP3    H117447   1.282   7.177   2.028
 5854TIP3    H217448   1.265   7.283   2.134
 5855TIP3   OH217449   1.065   7.120   2.885
 5855TIP3    H117450   1.012   7.193   2.918
 5855TIP3    H217451   1.115   7.159   2.813
 5856TIP3   OH217452   1.836   6.464   2.535
 5856TIP3    H117453   1.796   6.442   2.620
 5856TIP3    H217454   1.902   6.530   2.557
 5857TIP3   OH217455   0.872   6.456   2.891
 5857TIP3    H117456   0.928   6.530   2.915
 5857TIP3    H217457   0.919   6.412   2.820
 5858TIP3   OH217458   0.908   7.322   2.990
 5858TIP3    H117459   0.899   7.413   2.962
 5858TIP3    H217460   0.830   7.305   3.042
 5859TIP3   OH217461   0.307   7.029   2.254
 5859TIP3    H117462   0.322   7.033   2.160
 5859TIP3    H217463   0.309   7.120   2.283
 5860TIP3   OH217464   1.718   7.525   2.485
 5860TIP3    H117465   1.629   7.522   2.521
 5860TIP3    H217466   1.721   7.608   2.437
 5861TIP3   OH217467   1.311   6.043   2.848
 5861TIP3    H117468   1.307   5.952   2.877
 5861TIP3    H217469   1.235   6.084   2.890
 5862TIP3   OH217470   1.446   7.554   2.150
 5862TIP3    H117471   1.496   7.474   2.133
 5862TIP3    H217472   1.500   7.624   2.112
 5863TIP3   OH217473   1.575   7.320   2.093
 5863TIP3    H117474   1.496   7.266   2.098
 5863TIP3    H217475   1.624   7.299   2.173
 5864TIP3   OH217476   1.963   7.412   2.829
 5864TIP3    H117477   1.944   7.337   2.772
 5864TIP3    H217478   1.949   7.488   2.773
 5865TIP3   OH217479   1.249   6.822   2.104
 5865TIP3    H117480   1.168   6.871   2.085
 5865TIP3    H217481   1.296   6.822   2.021
 5866TIP3   OH217482   1.225   6.597   1.815
 5866TIP3    H117483   1.289   6.647   1.866
 5866TIP3    H217484   1.278   6.541   1.758
 5867TIP3   OH217485   2.140   7.084   2.690
 5867TIP3    H117486   2.055   7.127   2.688
 5867TIP3    H217487   2.174   7.095   2.601
 5868TIP3   OH217488   1.611   6.902   2.067
 5868TIP3    H117489   1.558   6.937   2.139
 5868TIP3    H217490   1.695   6.880   2.108
 5869TIP3   OH217491   1.836   6.935   3.008
 5869TIP3    H117492   1.833   7.018   3.056
 5869TIP3    H217493   1.755   6.933   2.958
 5870TIP3   OH217494   0.841   6.879   2.468
 5870TIP3    H117495   0.808   6.813   2.408
 5870TIP3    H217496   0.916   6.838   2.511
 5871TIP3   OH217497   0.969   7.308   2.620
 5871TIP3    H117498   0.940   7.292   2.530
 5871TIP3    H217499   1.057   7.271   2.624
 5872TIP3   OH217500   0.932   6.886   2.840
 5872TIP3    H117501   0.973   6.849   2.762
 5872TIP3    H217502   0.981   6.967   2.856
 5873TIP3   OH217503   1.475   7.528   2.613
 5873TIP3    H117504   1.470   7.605   2.669
 5873TIP3    H217505   1.466   7.454   2.673
 5874TIP3   OH217506   1.108   7.417   3.160
 5874TIP3    H117507   1.048   7.476   3.206
 5874TIP3    H217508   1.052   7.365   3.102
 5875TIP3   OH217509   1.440   6.765   1.903
 5875TIP3    H117510   1.499   6.821   1.953
 5875TIP3    H217511   1.463   6.782   1.811
 5876TIP3   OH217512   0.868   6.971   3.305
 5876TIP3    H117513   0.872   7.065   3.321
 5876TIP3    H217514   0.775   6.951   3.301
 5877TIP3   OH217515   1.190   7.453   2.154
 5877TIP3    H117516   1.277   7.493   2.162
 5877TIP3    H217517   1.138   7.519   2.109
 5878TIP3   OH217518   0.903   7.581   3.244
 5878TIP3    H117519   0.876   7.592   3.153
 5878TIP3    H217520   0.821   7.567   3.291
 5879TIP3   OH217521   1.946   5.996   1.947
 5879TIP3    H117522   1.871   6.018   2.001
 5879TIP3    H217523   1.958   6.073   1.891
 5880TIP3   OH217524   0.726   6.700   2.284
 5880TIP3    H117525   0.650   6.752   2.260
 5880TIP3    H217526   0.691   6.612   2.302
 5881TIP3   OH217527   1.764   7.375   1.498
 5881TIP3    H117528   1.770   7.468   1.477
 5881TIP3    H217529   1.853   7.342   1.486
 5882TIP3   OH217530   0.497   7.137   3.185
 5882TIP3    H117531   0.432   7.122   3.116
 5882TIP3    H217532   0.531   7.050   3.205
 5883TIP3   OH217533   0.443   7.307   2.816
 5883TIP3    H117534   0.529   7.285   2.779
 5883TIP3    H217535   0.461   7.375   2.881
 5884TIP3   OH217536   2.195   7.780   2.897
 5884TIP3    H117537   2.201   7.685   2.908
 5884TIP3    H217538   2.115   7.805   2.943
 5885TIP3   OH217539   1.302   7.557   3.026
 5885TIP3    H117540   1.293   7.648   3.055
 5885TIP3    H217541   1.233   7.510   3.073
 5886TIP3   OH217542   1.097   7.677   1.994
 5886TIP3    H117543   1.043   7.658   1.917
 5886TIP3    H217544   1.082   7.770   2.011
 5887TIP3   OH217545   0.506   7.516   2.396
 5887TIP3    H117546   0.577   7.526   2.460
 5887TIP3    H217547   0.433   7.481   2.447
 5888TIP3   OH217548   1.277   7.589   1.598
 5888TIP3    H117549   1.341   7.528   1.562
 5888TIP3    H217550   1.309   7.608   1.686
 5889TIP3   OH217551   1.340   7.638   1.866
 5889TIP3    H117552   1.257   7.642   1.914
 5889TIP3    H217553   1.405   7.616   1.933
 5890TIP3   OH217554   2.090   6.879   3.138
 5890TIP3    H117555   2.005   6.896   3.097
 5890TIP3    H217556   2.106   6.785   3.122
 5891TIP3   OH217557   0.689   7.331   3.159
 5891TIP3    H117558   0.741   7.320   3.238
 5891TIP3    H217559   0.621   7.264   3.166
 5892TIP3   OH217560   1.074   6.129   2.978
 5892TIP3    H117561   0.992   6.100   2.939
 5892TIP3    H217562   1.052   6.209   3.026
 5893TIP3   OH217563   1.617   6.257   3.178
 5893TIP3    H117564   1.685   6.233   3.240
 5893TIP3    H217565   1.535   6.242   3.225
 5894TIP3   OH217566   1.850   6.668   3.095
 5894TIP3    H117567   1.810   6.664   3.182
 5894TIP3    H217568   1.833   6.757   3.065
 5895TIP3   OH217569   1.498   6.787   1.636
 5895TIP3    H117570   1.487   6.758   1.545
 5895TIP3    H217571   1.580   6.837   1.635
 5896TIP3   OH217572   1.225   6.164   1.953
 5896TIP3    H117573   1.199   6.173   2.044
 5896TIP3    H217574   1.190   6.079   1.926
 5897TIP3   OH217575   1.019   6.667   2.988
 5897TIP3    H117576   0.974   6.674   3.073
 5897TIP3    H217577   0.998   6.749   2.943
 5898TIP3   OH217578   0.905   6.543   2.513
 5898TIP3    H117579   0.816   6.520   2.539
 5898TIP3    H217580   0.913   6.510   2.423
 5899TIP3   OH217581   1.373   6.614   2.234
 5899TIP3    H117582   1.328   6.689   2.195
 5899TIP3    H217583   1.433   6.584   2.167
 5900TIP3   OH217584   1.557   6.881   3.304
 5900TIP3    H117585   1.533   6.813   3.367
 5900TIP3    H217586   1.650   6.899   3.322
 5901TIP3   OH217587   1.532   6.628   2.462
 5901TIP3    H117588   1.468   6.644   2.392
 5901TIP3    H217589   1.585   6.555   2.429
 5902TIP3   OH217590   0.857   6.682   3.210
 5902TIP3    H117591   0.874   6.747   3.279
 5902TIP3    H217592   0.841   6.601   3.257
 5903TIP3   OH217593   0.871   6.151   1.886
 5903TIP3    H117594   0.868   6.157   1.981
 5903TIP3    H217595   0.790   6.192   1.856
 5904TIP3   OH217596   0.451   6.197   2.774
 5904TIP3    H117597   0.517   6.240   2.829
 5904TIP3    H217598   0.489   6.197   2.686
 5905TIP3   OH217599   0.393   6.176   2.283
 5905TIP3    H117600   0.435   6.208   2.203
 5905TIP3    H217601   0.334   6.247   2.308
 5906TIP3   OH217602   1.582   6.890   2.886
 5906TIP3    H117603   1.607   6.826   2.821
 5906TIP3    H217604   1.540   6.839   2.956
 5907TIP3   OH217605   1.252   6.327   2.552
 5907TIP3    H117606   1.174   6.327   2.608
 5907TIP3    H217607   1.325   6.317   2.612
 5908TIP3   OH217608   0.671   6.415   2.573
 5908TIP3    H117609   0.583   6.421   2.534
 5908TIP3    H217610   0.700   6.327   2.551
 5909TIP3   OH217611   0.908   6.411   2.271
 5909TIP3    H117612   1.002   6.424   2.260
 5909TIP3    H217613   0.871   6.429   2.184
 5910TIP3   OH217614   1.664   6.426   2.758
 5910TIP3    H117615   1.660   6.437   2.853
 5910TIP3    H217616   1.595   6.362   2.738
 5911TIP3   OH217617   0.791   6.424   2.025
 5911TIP3    H117618   0.719   6.384   1.976
 5911TIP3    H217619   0.845   6.466   1.958
 5912TIP3   OH217620   1.908   8.116   2.986
 5912TIP3    H117621   1.904   8.129   2.891
 5912TIP3    H217622   1.986   8.164   3.013
 5913TIP3   OH217623   0.848   7.240   3.389
 5913TIP3    H117624   0.930   7.259   3.436
 5913TIP3    H217625   0.780   7.252   3.455
 5914TIP3   OH217626   1.311   6.701   2.664
 5914TIP3    H117627   1.379   6.657   2.613
 5914TIP3    H217628   1.312   6.657   2.749
 5915TIP3   OH217629   0.806   6.172   2.540
 5915TIP3    H117630   0.778   6.092   2.586
 5915TIP3    H217631   0.834   6.142   2.454
 5916TIP3   OH217632   1.282   6.601   2.929
 5916TIP3    H117633   1.197   6.637   2.953
 5916TIP3    H217634   1.345   6.652   2.980
 5917TIP3   OH217635   1.016   6.967   2.046
 5917TIP3    H117636   0.955   6.894   2.037
 5917TIP3    H217637   0.995   7.005   2.131
 5918TIP3   OH217638   1.901   7.215   2.648
 5918TIP3    H117639   1.937   7.265   2.574
 5918TIP3    H217640   1.822   7.173   2.613
 5919TIP3   OH217641   1.476   6.280   1.934
 5919TIP3    H117642   1.384   6.258   1.945
 5919TIP3    H217643   1.482   6.373   1.958
 5920TIP3   OH217644   1.426   7.294   3.062
 5920TIP3    H117645   1.480   7.281   3.140
 5920TIP3    H217646   1.390   7.382   3.071
 5921TIP3   OH217647   1.542   6.534   2.023
 5921TIP3    H117648   1.636   6.537   2.040
 5921TIP3    H217649   1.523   6.615   1.975
 5922TIP3   OH217650   0.706   6.972   2.689
 5922TIP3    H117651   0.745   6.950   2.604
 5922TIP3    H217652   0.772   6.944   2.753
 5923TIP3   OH217653   1.183   7.106   1.879
 5923TIP3    H117654   1.143   7.193   1.877
 5923TIP3    H217655   1.123   7.054   1.933
 5924TIP3   OH217656   0.597   6.909   3.330
 5924TIP3    H117657   0.599   6.879   3.421
 5924TIP3    H217658   0.522   6.864   3.292
 5925TIP3   OH217659   1.329   7.039   3.346
 5925TIP3    H117660   1.260   6.979   3.319
 5925TIP3    H217661   1.410   6.998   3.316
 5926TIP3   OH217662   1.570   7.587   2.947
 5926TIP3    H117663   1.476   7.570   2.950
 5926TIP3    H217664   1.591   7.623   3.033
 5927TIP3   OH217665   1.952   6.623   1.839
 5927TIP3    H117666   1.898   6.576   1.775
 5927TIP3    H217667   1.955   6.712   1.806
 5928TIP3   OH217668   2.207   7.504   2.916
 5928TIP3    H117669   2.114   7.483   2.914
 5928TIP3    H217670   2.241   7.470   2.834
 5929TIP3   OH217671   1.694   7.454   1.770
 5929TIP3    H117672   1.671   7.390   1.839
 5929TIP3    H217673   1.717   7.400   1.695
 5930TIP3   OH217674   1.673   7.080   2.544
 5930TIP3    H117675   1.583   7.057   2.568
 5930TIP3    H217676   1.710   6.998   2.510
 5931TIP3   OH217677   0.823   7.296   2.383
 5931TIP3    H117678   0.818   7.372   2.324
 5931TIP3    H217679   0.732   7.276   2.403
 5932TIP3   OH217680   0.409   6.593   2.094
 5932TIP3    H117681   0.454   6.673   2.123
 5932TIP3    H217682   0.322   6.599   2.134
 5933TIP3   OH217683   0.929   7.064   2.281
 5933TIP3    H117684   0.905   7.151   2.312
 5933TIP3    H217685   0.899   7.005   2.350
 5934TIP3   OH217686   1.121   7.637   2.822
 5934TIP3    H117687   1.157   7.710   2.773
 5934TIP3    H217688   1.196   7.602   2.872
 5935TIP3   OH217689   0.731   7.509   2.230
 5935TIP3    H117690   0.642   7.516   2.264
 5935TIP3    H217691   0.769   7.596   2.244
 5936TIP3   OH217692   1.463   7.305   2.787
 5936TIP3    H117693   1.450   7.298   2.881
 5936TIP3    H217694   1.542   7.253   2.770
 5937TIP3   OH217695   1.464   7.163   1.665
 5937TIP3    H117696   1.522   7.130   1.733
 5937TIP3    H217697   1.378   7.131   1.689
 5938TIP3   OH217698   1.729   7.787   2.828
 5938TIP3    H117699   1.659   7.726   2.853
 5938TIP3    H217700   1.692   7.840   2.758
 5939TIP3   OH217701   1.783   7.647   1.460
 5939TIP3    H117702   1.825   7.707   1.399
 5939TIP3    H217703   1.702   7.691   1.484
 5940TIP3   OH217704   0.811   6.432   3.335
 5940TIP3    H117705   0.716   6.446   3.336
 5940TIP3    H217706   0.828   6.382   3.415
 5941TIP3   OH217707   1.643   7.060   1.841
 5941TIP3    H117708   1.627   7.017   1.925
 5941TIP3    H217709   1.737   7.079   1.842
 5942TIP3   OH217710   0.539   7.517   2.987
 5942TIP3    H117711   0.593   7.462   3.044
 5942TIP3    H217712   0.554   7.606   3.018
 5943TIP3   OH217713   0.870   7.144   1.656
 5943TIP3    H117714   0.852   7.054   1.631
 5943TIP3    H217715   0.846   7.149   1.748
 5944TIP3   OH217716   0.804   7.155   1.923
 5944TIP3    H117717   0.853   7.104   1.988
 5944TIP3    H217718   0.806   7.245   1.955
 5945TIP3   OH217719   0.502   6.831   2.203
 5945TIP3    H117720   0.437   6.877   2.257
 5945TIP3    H217721   0.516   6.890   2.128
 5946TIP3   OH217722   1.647   6.488   3.028
 5946TIP3    H117723   1.732   6.526   3.048
 5946TIP3    H217724   1.643   6.409   3.082
 5947TIP3   OH217725   1.538   6.231   2.211
 5947TIP3    H117726   1.523   6.256   2.120
 5947TIP3    H217727   1.583   6.306   2.250
 5948TIP3   OH217728   1.064   7.345   1.885
 5948TIP3    H117729   0.987   7.365   1.938
 5948TIP3    H217730   1.074   7.420   1.827
 5949TIP3   OH217731   1.184   6.427   2.304
 5949TIP3    H117732   1.247   6.495   2.279
 5949TIP3    H217733   1.208   6.404   2.394
 5950TIP3   OH217734   1.487   6.716   3.078
 5950TIP3    H117735   1.514   6.758   3.160
 5950TIP3    H217736   1.541   6.637   3.073
 5951TIP3   OH217737   1.357   6.117   2.391
 5951TIP3    H117738   1.335   6.193   2.445
 5951TIP3    H217739   1.430   6.146   2.336
 5952TIP3   OH217740   0.817   7.427   1.983
 5952TIP3    H117741   0.813   7.509   1.935
 5952TIP3    H217742   0.788   7.450   2.072
 5953TIP3   OH217743   0.873   6.144   2.170
 5953TIP3    H117744   0.856   6.232   2.204
 5953TIP3    H217745   0.966   6.130   2.184
 5954TIP3   OH217746   2.112   6.602   3.036
 5954TIP3    H117747   2.019   6.613   3.056
 5954TIP3    H217748   2.113   6.533   2.969
 5955TIP3   OH217749   1.767   6.824   2.460
 5955TIP3    H117750   1.693   6.767   2.478
 5955TIP3    H217751   1.840   6.785   2.509
 5956TIP3   OH217752   0.504   7.014   2.004
 5956TIP3    H117753   0.501   7.103   1.970
 5956TIP3    H217754   0.551   6.964   1.937
 5957TIP3   OH217755   0.433   6.324   2.055
 5957TIP3    H117756   0.443   6.417   2.072
 5957TIP3    H217757   0.347   6.315   2.016
 5958TIP3   OH217758   1.749   7.786   2.392
 5958TIP3    H117759   1.708   7.836   2.321
 5958TIP3    H217760   1.843   7.799   2.379
 5959TIP3   OH217761   0.817   6.047   2.911
 5959TIP3    H117762   0.793   6.021   2.822
 5959TIP3    H217763   0.804   5.968   2.963
 5960TIP3   OH217764   0.321   7.299   2.315
 5960TIP3    H117765   0.293   7.326   2.402
 5960TIP3    H217766   0.376   7.371   2.284
 5961TIP3   OH217767   0.532   7.838   3.403
 5961TIP3    H117768   0.614   7.840   3.453
 5961TIP3    H217769   0.513   7.744   3.394
 5962TIP3   OH217770   1.010   7.738   3.444
 5962TIP3    H117771   1.099   7.706   3.456
 5962TIP3    H217772   0.976   7.689   3.370
 5963TIP3   OH217773   0.938   7.386   1.551
 5963TIP3    H117774   0.912   7.305   1.595
 5963TIP3    H217775   0.954   7.361   1.460
 5964TIP3   OH217776   1.623   7.684   3.197
 5964TIP3    H117777   1.637   7.613   3.259
 5964TIP3    H217778   1.698   7.742   3.209
 5965TIP3   OH217779   1.456   7.395   1.519
 5965TIP3    H117780   1.470   7.327   1.585
 5965TIP3    H217781   1.544   7.419   1.490
 5966TIP3   OH217782   0.645   7.242   3.581
 5966TIP3    H117783   0.668   7.150   3.593
 5966TIP3    H217784   0.561   7.241   3.536
 5967TIP3   OH217785   0.666   6.850   1.855
 5967TIP3    H117786   0.723   6.814   1.922
 5967TIP3    H217787   0.724   6.904   1.801
 5968TIP3   OH217788   1.265   7.317   3.364
 5968TIP3    H117789   1.220   7.338   3.282
 5968TIP3    H217790   1.301   7.229   3.350
 5969TIP3   OH217791   1.184   7.059   1.607
 5969TIP3    H117792   1.164   7.081   1.698
 5969TIP3    H217793   1.190   6.964   1.606
 5970TIP3   OH217794   1.737   7.363   2.981
 5970TIP3    H117795   1.815   7.388   2.932
 5970TIP3    H217796   1.674   7.433   2.964
 5971TIP3   OH217797   0.759   6.989   3.592
 5971TIP3    H117798   0.835   6.967   3.539
 5971TIP3    H217799   0.795   7.002   3.680
 5972TIP3   OH217800   0.847   6.754   2.036
 5972TIP3    H117801   0.815   6.722   2.121
 5972TIP3    H217802   0.880   6.676   1.992
 5973TIP3   OH217803   1.123   6.861   3.253
 5973TIP3    H117804   1.038   6.905   3.264
 5973TIP3    H217805   1.154   6.889   3.167
 5974TIP3   OH217806   0.951   6.566   1.856
 5974TIP3    H117807   0.919   6.578   1.766
 5974TIP3    H217808   1.046   6.574   1.849
 5975TIP3   OH217809   1.617   7.233   3.325
 5975TIP3    H117810   1.689   7.198   3.272
 5975TIP3    H217811   1.615   7.178   3.403
 5976TIP3   OH217812   1.735   6.891   1.529
 5976TIP3    H117813   1.733   6.848   1.444
 5976TIP3    H217814   1.710   6.982   1.511
 5977TIP3   OH217815   1.226   6.628   3.358
 5977TIP3    H117816   1.229   6.558   3.293
 5977TIP3    H217817   1.193   6.704   3.310
 5978TIP3   OH217818   1.232   6.429   3.156
 5978TIP3    H117819   1.259   6.467   3.072
 5978TIP3    H217820   1.141   6.403   3.142
 5979TIP3   OH217821   1.235   6.957   3.026
 5979TIP3    H117822   1.324   6.989   3.014
 5979TIP3    H217823   1.180   7.018   2.977
 5980TIP3   OH217824   1.825   6.923   3.399
 5980TIP3    H117825   1.862   6.834   3.395
 5980TIP3    H217826   1.901   6.981   3.390
 5981TIP3   OH217827   1.854   7.183   3.147
 5981TIP3    H117828   1.803   7.245   3.095
 5981TIP3    H217829   1.944   7.195   3.116
 5982TIP3   OH217830   1.109   6.711   3.598
 5982TIP3    H117831   1.043   6.645   3.619
 5982TIP3    H217832   1.139   6.688   3.510
 5983TIP3   OH217833   1.356   6.204   3.265
 5983TIP3    H117834   1.314   6.283   3.230
 5983TIP3    H217835   1.293   6.134   3.249
 5984TIP3   OH217836   1.481   6.669   3.462
 5984TIP3    H117837   1.471   6.657   3.557
 5984TIP3    H217838   1.396   6.648   3.425
 5985TIP3   OH217839   1.734   6.637   3.339
 5985TIP3    H117840   1.654   6.632   3.391
 5985TIP3    H217841   1.803   6.607   3.398
 5986TIP3   OH217842   1.965   6.589   3.489
 5986TIP3    H117843   1.977   6.495   3.495
 5986TIP3    H217844   1.959   6.619   3.580
 5987TIP3   OH217845   0.955   6.484   3.663
 5987TIP3    H117846   0.953   6.396   3.626
 5987TIP3    H217847   0.994   6.473   3.750
 5988TIP3   OH217848   1.414   6.165   3.529
 5988TIP3    H117849   1.487   6.104   3.518
 5988TIP3    H217850   1.386   6.185   3.440
 5989TIP3   OH217851   1.511   6.386   3.668
 5989TIP3    H117852   1.478   6.315   3.613
 5989TIP3    H217853   1.440   6.450   3.669
 5990TIP3   OH217854   0.322   7.417   2.577
 5990TIP3    H117855   0.337   7.347   2.641
 5990TIP3    H217856   0.330   7.498   2.628
 5991TIP3   OH217857   2.020   7.836   2.388
 5991TIP3    H117858   2.043   7.859   2.478
 5991TIP3    H217859   2.076   7.891   2.334
 5992TIP3   OH217860   2.045   7.859   2.667
 5992TIP3    H117861   1.998   7.775   2.663
 5992TIP3    H217862   2.113   7.844   2.733
 5993TIP3   OH217863   2.090   7.577   3.244
 5993TIP3    H117864   2.018   7.586   3.306
 5993TIP3    H217865   2.137   7.661   3.250
 5994TIP3   OH217866   1.919   7.088   1.856
 5994TIP3    H117867   1.975   7.160   1.828
 5994TIP3    H217868   1.964   7.051   1.933
 5995TIP3   OH217869   2.049   6.948   2.057
 5995TIP3    H117870   1.983   6.913   2.117
 5995TIP3    H217871   2.115   6.987   2.115
 5996TIP3   OH217872   2.083   7.355   2.489
 5996TIP3    H117873   2.137   7.287   2.449
 5996TIP3    H217874   2.087   7.428   2.427
 5997TIP3   OH217875   1.895   7.628   2.674
 5997TIP3    H117876   1.831   7.675   2.727
 5997TIP3    H217877   1.845   7.588   2.604
 5998TIP3   OH217878   1.944   6.862   1.704
 5998TIP3    H117879   1.870   6.867   1.643
 5998TIP3    H217880   1.935   6.940   1.759
 5999TIP3   OH217881   1.812   6.502   1.636
 5999TIP3    H117882   1.769   6.535   1.557
 5999TIP3    H217883   1.805   6.407   1.629
 6000TIP3   OH217884   1.842   6.813   2.195
 6000TIP3    H117885   1.851   6.718   2.185
 6000TIP3    H217886   1.823   6.826   2.287
 6001TIP3   OH217887   0.463   6.885   2.957
 6001TIP3    H117888   0.454   6.850   2.868
 6001TIP3    H217889   0.557   6.877   2.976
 6002TIP3   OH217890   2.113   7.222   3.053
 6002TIP3    H117891   2.183   7.158   3.044
 6002TIP3    H217892   2.122   7.280   2.977
 6003TIP3   OH217893   2.305   7.026   3.052
 6003TIP3    H117894   2.232   6.969   3.076
 6003TIP3    H217895   2.383   6.979   3.083
 6004TIP3   OH217896   1.765   6.228   1.601
 6004TIP3    H117897   1.827   6.209   1.671
 6004TIP3    H217898   1.681   6.196   1.634
 6005TIP3   OH217899   1.828   6.529   2.078
 6005TIP3    H117900   1.876   6.447   2.090
 6005TIP3    H217901   1.871   6.570   2.002
 6006TIP3   OH217902   1.984   6.700   2.581
 6006TIP3    H117903   2.063   6.724   2.531
 6006TIP3    H217904   2.005   6.724   2.671
 6007TIP3   OH217905   2.060   6.849   2.810
 6007TIP3    H117906   1.986   6.874   2.866
 6007TIP3    H217907   2.088   6.931   2.770
 6008TIP3   OH217908   0.703   6.592   3.651
 6008TIP3    H117909   0.797   6.573   3.654
 6008TIP3    H217910   0.661   6.506   3.647
 6009TIP3   OH217911   2.519   6.446   3.363
 6009TIP3    H117912   2.583   6.390   3.319
 6009TIP3    H217913   2.484   6.502   3.294
 6010TIP3   OH217914   1.949   6.281   2.122
 6010TIP3    H117915   1.995   6.268   2.205
 6010TIP3    H217916   1.884   6.211   2.120
 6011TIP3   OH217917   0.661   6.274   2.938
 6011TIP3    H117918   0.714   6.194   2.937
 6011TIP3    H217919   0.724   6.345   2.925
 6012TIP3   OH217920   0.467   6.545   3.019
 6012TIP3    H117921   0.512   6.539   2.935
 6012TIP3    H217922   0.493   6.629   3.054
 6013TIP3   OH217923   2.377   6.595   3.180
 6013TIP3    H117924   2.305   6.629   3.233
 6013TIP3    H217925   2.336   6.530   3.123
 6014TIP3   OH217926   1.986   6.196   1.761
 6014TIP3    H117927   2.036   6.136   1.706
 6014TIP3    H217928   2.042   6.273   1.770
 6015TIP3   OH217929   0.456   6.035   2.506
 6015TIP3    H117930   0.369   6.023   2.545
 6015TIP3    H217931   0.441   6.092   2.431
 6016TIP3   OH217932   1.577   7.750   2.019
 6016TIP3    H117933   1.635   7.752   1.943
 6016TIP3    H217934   1.609   7.819   2.076
 6017TIP3   OH217935   0.640   6.064   3.309
 6017TIP3    H117936   0.598   6.072   3.394
 6017TIP3    H217937   0.595   6.128   3.253
 6018TIP3   OH217938   0.680   7.550   3.407
 6018TIP3    H117939   0.586   7.535   3.392
 6018TIP3    H217940   0.689   7.547   3.502
 6019TIP3   OH217941   0.889   7.595   2.962
 6019TIP3    H117942   0.836   7.666   2.926
 6019TIP3    H217943   0.975   7.607   2.921
 6020TIP3   OH217944   1.285   7.821   3.101
 6020TIP3    H117945   1.324   7.817   3.188
 6020TIP3    H217946   1.344   7.877   3.051
 6021TIP3   OH217947   1.464   7.980   2.966
 6021TIP3    H117948   1.513   7.925   2.905
 6021TIP3    H217949   1.532   8.021   3.020
 6022TIP3   OH217950   2.310   6.316   3.079
 6022TIP3    H117951   2.241   6.331   3.014
 6022TIP3    H217952   2.338   6.226   3.065
 6023TIP3   OH217953   0.545   7.817   3.007
 6023TIP3    H117954   0.455   7.824   2.977
 6023TIP3    H217955   0.557   7.890   3.067
 6024TIP3   OH217956   0.772   7.816   2.853
 6024TIP3    H117957   0.690   7.821   2.901
 6024TIP3    H217958   0.750   7.847   2.765
 6025TIP3   OH217959   1.196   7.846   2.658
 6025TIP3    H117960   1.124   7.853   2.595
 6025TIP3    H217961   1.202   7.933   2.697
 6026TIP3   OH217962   1.456   7.786   2.717
 6026TIP3    H117963   1.366   7.803   2.690
 6026TIP3    H217964   1.509   7.843   2.661
 6027TIP3   OH217965   1.656   7.937   2.601
 6027TIP3    H117966   1.658   8.025   2.564
 6027TIP3    H217967   1.685   7.880   2.530
 6028TIP3   OH217968   0.454   7.614   2.738
 6028TIP3    H117969   0.474   7.586   2.828
 6028TIP3    H217970   0.530   7.587   2.687
 6029TIP3   OH217971   0.674   7.516   2.612
 6029TIP3    H117972   0.686   7.428   2.647
 6029TIP3    H217973   0.762   7.554   2.612
 6030TIP3   OH217974   0.942   7.589   2.617
 6030TIP3    H117975   0.959   7.496   2.602
 6030TIP3    H217976   0.998   7.612   2.691
 6031TIP3   OH217977   1.464   6.232   2.699
 6031TIP3    H117978   1.424   6.163   2.751
 6031TIP3    H217979   1.533   6.188   2.650
 6032TIP3   OH217980   1.984   6.161   2.577
 6032TIP3    H117981   2.024   6.200   2.499
 6032TIP3    H217982   1.995   6.228   2.645
 6033TIP3   OH217983   2.110   6.229   2.342
 6033TIP3    H117984   2.181   6.168   2.319
 6033TIP3    H217985   2.147   6.316   2.327
 6034TIP3   OH217986   0.743   5.938   2.670
 6034TIP3    H117987   0.653   5.906   2.674
 6034TIP3    H217988   0.797   5.859   2.673
 6035TIP3   OH217989   0.551   5.833   2.338
 6035TIP3    H117990   0.583   5.883   2.263
 6035TIP3    H217991   0.523   5.899   2.401
 6036TIP3   OH217992   1.211   5.976   2.589
 6036TIP3    H117993   1.259   6.022   2.520
 6036TIP3    H217994   1.249   6.008   2.671
 6037TIP3   OH217995   1.673   6.108   2.577
 6037TIP3    H117996   1.762   6.138   2.558
 6037TIP3    H217997   1.686   6.029   2.630
 6038TIP3   OH217998   1.756   6.079   2.129
 6038TIP3    H117999   1.680   6.128   2.159
 6038TIP3    H218000   1.746   5.992   2.168
 6039TIP3   OH218001   0.662   5.970   2.114
 6039TIP3    H118002   0.705   5.908   2.055
 6039TIP3    H218003   0.732   6.030   2.141
 6040TIP3   OH218004   1.146   6.172   2.214
 6040TIP3    H118005   1.206   6.123   2.270
 6040TIP3    H218006   1.156   6.263   2.242
 6041TIP3   OH218007   1.032   7.569   1.729
 6041TIP3    H118008   1.111   7.598   1.684
 6041TIP3    H218009   0.988   7.512   1.667
 6042TIP3   OH218010   1.722   7.726   1.782
 6042TIP3    H118011   1.716   7.631   1.781
 6042TIP3    H218012   1.683   7.754   1.699
 6043TIP3   OH218013   0.957   6.203   3.565
 6043TIP3    H118014   0.920   6.139   3.625
 6043TIP3    H218015   1.047   6.216   3.596
 6044TIP3   OH218016   1.198   6.222   3.701
 6044TIP3    H118017   1.278   6.200   3.652
 6044TIP3    H218018   1.192   6.154   3.768
 6045TIP3   OH218019   2.023   6.317   3.489
 6045TIP3    H118020   2.042   6.288   3.578
 6045TIP3    H218021   2.108   6.314   3.444
 6046TIP3   OH218022   1.946   7.843   2.994
 6046TIP3    H118023   1.872   7.813   2.940
 6046TIP3    H218024   1.933   7.938   3.000
 6047TIP3   OH218025   3.220   7.237   1.732
 6047TIP3    H118026   3.190   7.324   1.705
 6047TIP3    H218027   3.147   7.179   1.709
 6048TIP3   OH218028   3.218   7.224   2.154
 6048TIP3    H118029   3.270   7.208   2.233
 6048TIP3    H218030   3.172   7.141   2.139
 6049TIP3   OH218031   2.512   7.094   2.500
 6049TIP3    H118032   2.550   7.042   2.571
 6049TIP3    H218033   2.587   7.117   2.445
 6050TIP3   OH218034   3.482   7.538   1.831
 6050TIP3    H118035   3.473   7.472   1.900
 6050TIP3    H218036   3.500   7.619   1.878
 6051TIP3   OH218037   2.509   7.512   2.180
 6051TIP3    H118038   2.489   7.419   2.188
 6051TIP3    H218039   2.604   7.516   2.175
 6052TIP3   OH218040   2.193   6.724   1.964
 6052TIP3    H118041   2.157   6.808   1.995
 6052TIP3    H218042   2.117   6.675   1.933
 6053TIP3   OH218043   2.276   7.041   2.192
 6053TIP3    H118044   2.328   6.965   2.219
 6053TIP3    H218045   2.341   7.108   2.173
 6054TIP3   OH218046   3.128   8.000   1.825
 6054TIP3    H118047   3.161   7.923   1.780
 6054TIP3    H218048   3.147   7.983   1.918
 6055TIP3   OH218049   3.027   7.446   2.158
 6055TIP3    H118050   3.069   7.365   2.128
 6055TIP3    H218051   3.099   7.499   2.192
 6056TIP3   OH218052   4.066   6.771   2.178
 6056TIP3    H118053   4.080   6.857   2.218
 6056TIP3    H218054   4.099   6.781   2.088
 6057TIP3   OH218055   3.427   6.940   2.196
 6057TIP3    H118056   3.451   6.853   2.226
 6057TIP3    H218057   3.391   6.926   2.108
 6058TIP3   OH218058   2.787   6.598   2.150
 6058TIP3    H118059   2.765   6.672   2.093
 6058TIP3    H218060   2.727   6.529   2.125
 6059TIP3   OH218061   3.492   6.703   1.798
 6059TIP3    H118062   3.556   6.688   1.868
 6059TIP3    H218063   3.544   6.738   1.725
 6060TIP3   OH218064   2.421   6.823   2.282
 6060TIP3    H118065   2.501   6.800   2.329
 6060TIP3    H218066   2.422   6.768   2.203
 6061TIP3   OH218067   2.830   7.013   2.100
 6061TIP3    H118068   2.924   6.997   2.108
 6061TIP3    H218069   2.795   6.931   2.065
 6062TIP3   OH218070   4.114   6.994   2.339
 6062TIP3    H118071   4.025   7.027   2.336
 6062TIP3    H218072   4.150   7.028   2.421
 6063TIP3   OH218073   2.760   6.606   2.612
 6063TIP3    H118074   2.713   6.642   2.538
 6063TIP3    H218075   2.703   6.622   2.688
 6064TIP3   OH218076   3.120   7.453   1.589
 6064TIP3    H118077   3.081   7.425   1.507
 6064TIP3    H218078   3.069   7.530   1.616
 6065TIP3   OH218079   2.860   7.375   2.368
 6065TIP3    H118080   2.806   7.446   2.403
 6065TIP3    H218081   2.908   7.415   2.295
 6066TIP3   OH218082   3.651   6.699   2.029
 6066TIP3    H118083   3.591   6.694   2.104
 6066TIP3    H218084   3.700   6.780   2.043
 6067TIP3   OH218085   2.668   6.715   2.374
 6067TIP3    H118086   2.722   6.790   2.400
 6067TIP3    H218087   2.716   6.674   2.303
 6068TIP3   OH218088   2.702   7.573   2.478
 6068TIP3    H118089   2.687   7.663   2.449
 6068TIP3    H218090   2.626   7.552   2.532
 6069TIP3   OH218091   2.086   7.280   1.744
 6069TIP3    H118092   2.053   7.295   1.656
 6069TIP3    H218093   2.109   7.367   1.777
 6070TIP3   OH218094   3.512   7.783   1.971
 6070TIP3    H118095   3.434   7.782   2.026
 6070TIP3    H218096   3.510   7.868   1.927
 6071TIP3   OH218097   3.852   6.688   2.343
 6071TIP3    H118098   3.773   6.720   2.300
 6071TIP3    H218099   3.923   6.704   2.280
 6072TIP3   OH218100   3.110   6.294   2.336
 6072TIP3    H118101   3.107   6.203   2.364
 6072TIP3    H218102   3.034   6.335   2.377
 6073TIP3   OH218103   3.237   7.808   1.658
 6073TIP3    H118104   3.287   7.730   1.637
 6073TIP3    H218105   3.285   7.880   1.616
 6074TIP3   OH218106   3.371   7.581   1.581
 6074TIP3    H118107   3.296   7.522   1.582
 6074TIP3    H218108   3.420   7.558   1.661
 6075TIP3   OH218109   3.750   7.676   2.313
 6075TIP3    H118110   3.735   7.600   2.257
 6075TIP3    H218111   3.738   7.751   2.255
 6076TIP3   OH218112   3.045   7.073   1.588
 6076TIP3    H118113   2.963   7.120   1.569
 6076TIP3    H218114   3.093   7.074   1.505
 6077TIP3   OH218115   3.010   6.889   1.270
 6077TIP3    H118116   3.072   6.938   1.323
 6077TIP3    H218117   3.062   6.819   1.231
 6078TIP3   OH218118   3.935   7.332   2.182
 6078TIP3    H118119   3.852   7.378   2.182
 6078TIP3    H218120   3.972   7.347   2.095
 6079TIP3   OH218121   3.405   7.158   1.548
 6079TIP3    H118122   3.351   7.189   1.621
 6079TIP3    H218123   3.490   7.138   1.587
 6080TIP3   OH218124   3.634   7.194   2.495
 6080TIP3    H118125   3.633   7.278   2.539
 6080TIP3    H218126   3.553   7.191   2.444
 6081TIP3   OH218127   2.636   7.147   1.946
 6081TIP3    H118128   2.599   7.085   1.883
 6081TIP3    H218129   2.708   7.100   1.987
 6082TIP3   OH218130   2.775   7.566   2.094
 6082TIP3    H118131   2.751   7.558   2.002
 6082TIP3    H218132   2.862   7.527   2.099
 6083TIP3   OH218133   2.726   7.141   2.323
 6083TIP3    H118134   2.766   7.104   2.244
 6083TIP3    H218135   2.774   7.222   2.338
 6084TIP3   OH218136   3.310   7.779   2.155
 6084TIP3    H118137   3.323   7.819   2.241
 6084TIP3    H218138   3.281   7.690   2.174
 6085TIP3   OH218139   2.899   7.671   2.648
 6085TIP3    H118140   2.839   7.728   2.695
 6085TIP3    H218141   2.843   7.619   2.590
 6086TIP3   OH218142   3.231   7.026   1.380
 6086TIP3    H118143   3.293   7.082   1.427
 6086TIP3    H218144   3.261   7.029   1.289
 6087TIP3   OH218145   2.654   7.218   2.793
 6087TIP3    H118146   2.659   7.312   2.812
 6087TIP3    H218147   2.560   7.200   2.789
 6088TIP3   OH218148   2.988   7.691   1.631
 6088TIP3    H118149   3.068   7.740   1.652
 6088TIP3    H218150   2.933   7.755   1.586
 6089TIP3   OH218151   2.692   7.832   2.734
 6089TIP3    H118152   2.665   7.841   2.643
 6089TIP3    H218153   2.611   7.818   2.782
 6090TIP3   OH218154   3.749   6.254   1.435
 6090TIP3    H118155   3.674   6.285   1.486
 6090TIP3    H218156   3.768   6.326   1.375
 6091TIP3   OH218157   2.505   6.985   1.751
 6091TIP3    H118158   2.429   7.033   1.721
 6091TIP3    H218159   2.471   6.901   1.782
 6092TIP3   OH218160   3.532   7.621   0.997
 6092TIP3    H118161   3.531   7.714   0.975
 6092TIP3    H218162   3.624   7.596   0.996
 6093TIP3   OH218163   2.288   7.388   2.684
 6093TIP3    H118164   2.218   7.371   2.621
 6093TIP3    H218165   2.322   7.301   2.707
 6094TIP3   OH218166   2.134   7.584   2.332
 6094TIP3    H118167   2.226   7.605   2.349
 6094TIP3    H218168   2.085   7.661   2.360
 6095TIP3   OH218169   3.988   8.029   2.387
 6095TIP3    H118170   3.992   7.935   2.402
 6095TIP3    H218171   3.909   8.057   2.432
 6096TIP3   OH218172   3.088   7.817   2.512
 6096TIP3    H118173   3.080   7.907   2.544
 6096TIP3    H218174   3.019   7.770   2.558
 6097TIP3   OH218175   2.881   7.898   1.469
 6097TIP3    H118176   2.839   7.891   1.383
 6097TIP3    H218177   2.855   7.984   1.501
 6098TIP3   OH218178   2.307   7.774   1.841
 6098TIP3    H118179   2.355   7.767   1.924
 6098TIP3    H218180   2.261   7.690   1.833
 6099TIP3   OH218181   3.071   7.855   1.091
 6099TIP3    H118182   3.120   7.781   1.055
 6099TIP3    H218183   3.107   7.867   1.179
 6100TIP3   OH218184   3.135   7.893   1.357
 6100TIP3    H118185   3.056   7.885   1.409
 6100TIP3    H218186   3.206   7.896   1.422
 6101TIP3   OH218187   3.878   7.148   2.651
 6101TIP3    H118188   3.795   7.158   2.605
 6101TIP3    H218189   3.897   7.055   2.647
 6102TIP3   OH218190   2.487   7.576   2.651
 6102TIP3    H118191   2.539   7.562   2.731
 6102TIP3    H218192   2.415   7.514   2.658
 6103TIP3   OH218193   2.875   6.390   2.468
 6103TIP3    H118194   2.794   6.353   2.435
 6103TIP3    H218195   2.848   6.470   2.514
 6104TIP3   OH218196   3.419   6.508   2.670
 6104TIP3    H118197   3.490   6.481   2.729
 6104TIP3    H218198   3.339   6.492   2.719
 6105TIP3   OH218199   3.631   6.927   2.580
 6105TIP3    H118200   3.592   6.922   2.668
 6105TIP3    H218201   3.618   7.018   2.553
 6106TIP3   OH218202   3.306   6.989   1.116
 6106TIP3    H118203   3.263   6.998   1.031
 6106TIP3    H218204   3.390   7.034   1.106
 6107TIP3   OH218205   3.017   6.425   1.433
 6107TIP3    H118206   2.986   6.431   1.524
 6107TIP3    H218207   2.981   6.342   1.401
 6108TIP3   OH218208   2.814   6.926   2.477
 6108TIP3    H118209   2.765   6.931   2.560
 6108TIP3    H218210   2.790   7.006   2.431
 6109TIP3   OH218211   2.692   6.799   1.990
 6109TIP3    H118212   2.603   6.777   2.017
 6109TIP3    H218213   2.700   6.764   1.901
 6110TIP3   OH218214   3.169   6.868   1.722
 6110TIP3    H118215   3.122   6.942   1.683
 6110TIP3    H218216   3.228   6.838   1.652
 6111TIP3   OH218217   3.355   7.137   2.794
 6111TIP3    H118218   3.329   7.069   2.857
 6111TIP3    H218219   3.447   7.153   2.813
 6112TIP3   OH218220   3.340   6.887   1.943
 6112TIP3    H118221   3.269   6.906   1.881
 6112TIP3    H218222   3.388   6.814   1.903
 6113TIP3   OH218223   2.645   6.937   2.693
 6113TIP3    H118224   2.650   7.004   2.762
 6113TIP3    H218225   2.621   6.857   2.740
 6114TIP3   OH218226   2.685   6.404   1.410
 6114TIP3    H118227   2.679   6.409   1.505
 6114TIP3    H218228   2.609   6.452   1.378
 6115TIP3   OH218229   2.239   6.445   2.244
 6115TIP3    H118230   2.310   6.482   2.296
 6115TIP3    H218231   2.280   6.416   2.163
 6116TIP3   OH218232   2.141   6.427   1.777
 6116TIP3    H118233   2.185   6.465   1.701
 6116TIP3    H218234   2.081   6.495   1.807
 6117TIP3   OH218235   3.383   7.142   2.371
 6117TIP3    H118236   3.407   7.076   2.307
 6117TIP3    H218237   3.340   7.094   2.441
 6118TIP3   OH218238   3.051   6.589   2.042
 6118TIP3    H118239   2.972   6.589   2.095
 6118TIP3    H218240   3.122   6.575   2.105
 6119TIP3   OH218241   2.453   6.680   2.049
 6119TIP3    H118242   2.363   6.682   2.015
 6119TIP3    H218243   2.478   6.588   2.043
 6120TIP3   OH218244   2.703   6.670   1.746
 6120TIP3    H118245   2.797   6.684   1.737
 6120TIP3    H218246   2.668   6.690   1.659
 6121TIP3   OH218247   3.477   6.673   2.244
 6121TIP3    H118248   3.469   6.687   2.339
 6121TIP3    H218249   3.407   6.611   2.223
 6122TIP3   OH218250   2.594   6.696   1.496
 6122TIP3    H118251   2.528   6.649   1.445
 6122TIP3    H218252   2.646   6.742   1.429
 6123TIP3   OH218253   3.702   8.374   2.472
 6123TIP3    H118254   3.698   8.386   2.377
 6123TIP3    H218255   3.778   8.427   2.500
 6124TIP3   OH218256   2.643   7.489   2.880
 6124TIP3    H118257   2.723   7.507   2.928
 6124TIP3    H218258   2.573   7.498   2.946
 6125TIP3   OH218259   3.101   6.958   2.153
 6125TIP3    H118260   3.167   6.906   2.107
 6125TIP3    H218261   3.098   6.920   2.241
 6126TIP3   OH218262   2.589   6.427   2.041
 6126TIP3    H118263   2.563   6.351   2.093
 6126TIP3    H218264   2.608   6.391   1.954
 6127TIP3   OH218265   3.077   6.866   2.418
 6127TIP3    H118266   2.991   6.900   2.443
 6127TIP3    H218267   3.139   6.916   2.471
 6128TIP3   OH218268   2.814   7.214   1.527
 6128TIP3    H118269   2.741   7.156   1.506
 6128TIP3    H218270   2.787   7.259   1.607
 6129TIP3   OH218271   3.700   7.470   2.136
 6129TIP3    H118272   3.738   7.520   2.063
 6129TIP3    H218273   3.621   7.431   2.099
 6130TIP3   OH218274   3.270   6.532   1.430
 6130TIP3    H118275   3.176   6.512   1.429
 6130TIP3    H218276   3.273   6.627   1.443
 6131TIP3   OH218277   3.222   7.553   2.547
 6131TIP3    H118278   3.271   7.544   2.628
 6131TIP3    H218279   3.177   7.637   2.555
 6132TIP3   OH218280   3.334   6.794   1.506
 6132TIP3    H118281   3.429   6.800   1.518
 6132TIP3    H218282   3.312   6.873   1.456
 6133TIP3   OH218283   2.497   7.222   2.174
 6133TIP3    H118284   2.536   7.207   2.088
 6133TIP3    H218285   2.562   7.193   2.237
 6134TIP3   OH218286   2.968   7.370   1.363
 6134TIP3    H118287   2.920   7.453   1.362
 6134TIP3    H218288   2.916   7.313   1.419
 6135TIP3   OH218289   2.381   7.151   2.814
 6135TIP3    H118290   2.379   7.122   2.905
 6135TIP3    H218291   2.305   7.109   2.773
 6136TIP3   OH218292   3.124   7.295   2.835
 6136TIP3    H118293   3.054   7.236   2.809
 6136TIP3    H218294   3.204   7.252   2.806
 6137TIP3   OH218295   3.347   7.856   2.424
 6137TIP3    H118296   3.255   7.835   2.441
 6137TIP3    H218297   3.381   7.886   2.508
 6138TIP3   OH218298   3.750   6.880   1.323
 6138TIP3    H118299   3.692   6.834   1.261
 6138TIP3    H218300   3.752   6.970   1.291
 6139TIP3   OH218301   3.997   7.745   2.409
 6139TIP3    H118302   3.902   7.735   2.397
 6139TIP3    H218303   4.034   7.721   2.324
 6140TIP3   OH218304   3.487   7.701   1.268
 6140TIP3    H118305   3.458   7.638   1.334
 6140TIP3    H218306   3.487   7.652   1.187
 6141TIP3   OH218307   3.470   7.335   2.033
 6141TIP3    H118308   3.380   7.312   2.055
 6141TIP3    H218309   3.506   7.254   1.995
 6142TIP3   OH218310   2.631   7.575   1.850
 6142TIP3    H118311   2.628   7.650   1.790
 6142TIP3    H218312   2.545   7.573   1.891
 6143TIP3   OH218313   2.179   6.857   1.561
 6143TIP3    H118314   2.224   6.938   1.584
 6143TIP3    H218315   2.100   6.857   1.615
 6144TIP3   OH218316   2.706   7.330   1.746
 6144TIP3    H118317   2.691   7.419   1.777
 6144TIP3    H218318   2.682   7.274   1.819
 6145TIP3   OH218319   2.895   7.927   2.317
 6145TIP3    H118320   2.903   8.022   2.325
 6145TIP3    H218321   2.977   7.892   2.352
 6146TIP3   OH218322   2.541   7.793   1.693
 6146TIP3    H118323   2.454   7.798   1.734
 6146TIP3    H218324   2.572   7.883   1.691
 6147TIP3   OH218325   3.264   7.534   2.275
 6147TIP3    H118326   3.251   7.537   2.370
 6147TIP3    H218327   3.340   7.477   2.263
 6148TIP3   OH218328   3.243   7.434   1.163
 6148TIP3    H118329   3.305   7.406   1.230
 6148TIP3    H218330   3.157   7.415   1.200
 6149TIP3   OH218331   3.520   8.047   2.307
 6149TIP3    H118332   3.448   7.993   2.338
 6149TIP3    H218333   3.481   8.102   2.238
 6150TIP3   OH218334   3.552   7.892   0.950
 6150TIP3    H118335   3.565   7.942   0.870
 6150TIP3    H218336   3.486   7.941   0.999
 6151TIP3   OH218337   2.583   6.692   2.819
 6151TIP3    H118338   2.488   6.703   2.829
 6151TIP3    H218339   2.610   6.643   2.897
 6152TIP3   OH218340   3.428   7.338   1.338
 6152TIP3    H118341   3.412   7.287   1.417
 6152TIP3    H218342   3.522   7.351   1.336
 6153TIP3   OH218343   2.334   7.782   2.459
 6153TIP3    H118344   2.389   7.728   2.517
 6153TIP3    H218345   2.344   7.871   2.493
 6154TIP3   OH218346   2.592   7.399   1.155
 6154TIP3    H118347   2.615   7.309   1.133
 6154TIP3    H218348   2.581   7.398   1.251
 6155TIP3   OH218349   2.546   7.413   1.431
 6155TIP3    H118350   2.609   7.387   1.498
 6155TIP3    H218351   2.546   7.509   1.435
 6156TIP3   OH218352   2.279   7.105   1.643
 6156TIP3    H118353   2.217   7.152   1.698
 6156TIP3    H218354   2.295   7.164   1.570
 6157TIP3   OH218355   3.448   6.731   2.510
 6157TIP3    H118356   3.524   6.781   2.541
 6157TIP3    H218357   3.441   6.657   2.570
 6158TIP3   OH218358   3.337   6.492   1.700
 6158TIP3    H118359   3.313   6.514   1.610
 6158TIP3    H218360   3.380   6.571   1.733
 6159TIP3   OH218361   2.816   7.594   1.364
 6159TIP3    H118362   2.732   7.619   1.403
 6159TIP3    H218363   2.850   7.675   1.327
 6160TIP3   OH218364   2.980   6.680   1.790
 6160TIP3    H118365   3.043   6.748   1.765
 6160TIP3    H218366   3.003   6.660   1.880
 6161TIP3   OH218367   3.286   6.976   2.568
 6161TIP3    H118368   3.308   7.020   2.650
 6161TIP3    H218369   3.335   6.893   2.572
 6162TIP3   OH218370   3.153   6.385   1.877
 6162TIP3    H118371   3.131   6.461   1.930
 6162TIP3    H218372   3.225   6.413   1.821
 6163TIP3   OH218373   2.565   7.684   1.443
 6163TIP3    H118374   2.546   7.755   1.381
 6163TIP3    H218375   2.557   7.725   1.529
 6164TIP3   OH218376   2.663   6.398   1.689
 6164TIP3    H118377   2.651   6.488   1.717
 6164TIP3    H218378   2.757   6.382   1.697
 6165TIP3   OH218379   3.897   6.874   2.561
 6165TIP3    H118380   3.802   6.883   2.573
 6165TIP3    H218381   3.906   6.812   2.488
 6166TIP3   OH218382   3.564   7.076   1.946
 6166TIP3    H118383   3.485   7.022   1.957
 6166TIP3    H218384   3.629   7.036   2.003
 6167TIP3   OH218385   2.300   7.283   1.426
 6167TIP3    H118386   2.368   7.348   1.439
 6167TIP3    H218387   2.337   7.220   1.364
 6168TIP3   OH218388   2.201   6.577   1.555
 6168TIP3    H118389   2.219   6.670   1.568
 6168TIP3    H218390   2.128   6.575   1.493
 6169TIP3   OH218391   3.535   8.048   1.891
 6169TIP3    H118392   3.493   8.096   1.820
 6169TIP3    H218393   3.628   8.064   1.880
 6170TIP3   OH218394   2.626   6.287   2.413
 6170TIP3    H118395   2.592   6.258   2.328
 6170TIP3    H218396   2.615   6.211   2.470
 6171TIP3   OH218397   2.136   7.548   1.823
 6171TIP3    H118398   2.096   7.586   1.901
 6171TIP3    H218399   2.092   7.591   1.750
 6172TIP3   OH218400   2.332   8.082   2.890
 6172TIP3    H118401   2.416   8.088   2.936
 6172TIP3    H218402   2.315   7.988   2.883
 6173TIP3   OH218403   2.802   7.996   2.927
 6173TIP3    H118404   2.893   7.968   2.935
 6173TIP3    H218405   2.767   7.942   2.856
 6174TIP3   OH218406   2.755   7.605   1.056
 6174TIP3    H118407   2.711   7.533   1.102
 6174TIP3    H218408   2.832   7.564   1.017
 6175TIP3   OH218409   3.422   7.931   2.676
 6175TIP3    H118410   3.437   7.863   2.742
 6175TIP3    H218411   3.494   7.993   2.690
 6176TIP3   OH218412   3.199   7.642   0.979
 6176TIP3    H118413   3.240   7.577   1.036
 6176TIP3    H218414   3.246   7.635   0.896
 6177TIP3   OH218415   2.436   7.499   3.071
 6177TIP3    H118416   2.459   7.406   3.082
 6177TIP3    H218417   2.349   7.497   3.031
 6178TIP3   OH218418   2.443   7.099   1.281
 6178TIP3    H118419   2.496   7.077   1.358
 6178TIP3    H218420   2.507   7.109   1.211
 6179TIP3   OH218421   3.059   7.572   2.850
 6179TIP3    H118422   3.012   7.591   2.769
 6179TIP3    H218423   3.093   7.483   2.837
 6180TIP3   OH218424   2.956   7.311   1.094
 6180TIP3    H118425   2.954   7.319   1.189
 6180TIP3    H218426   2.952   7.217   1.078
 6181TIP3   OH218427   3.528   7.625   2.471
 6181TIP3    H118428   3.605   7.651   2.420
 6181TIP3    H218429   3.462   7.691   2.450
 6182TIP3   OH218430   2.554   7.250   3.080
 6182TIP3    H118431   2.625   7.212   3.030
 6182TIP3    H218432   2.588   7.258   3.169
 6183TIP3   OH218433   2.610   7.031   1.491
 6183TIP3    H118434   2.585   7.003   1.578
 6183TIP3    H218435   2.652   6.955   1.451
 6184TIP3   OH218436   2.918   7.123   2.742
 6184TIP3    H118437   2.830   7.159   2.751
 6184TIP3    H218438   2.946   7.149   2.654
 6185TIP3   OH218439   2.738   6.847   1.318
 6185TIP3    H118440   2.709   6.852   1.227
 6185TIP3    H218441   2.832   6.860   1.314
 6186TIP3   OH218442   3.413   7.492   2.816
 6186TIP3    H118443   3.482   7.454   2.761
 6186TIP3    H218444   3.410   7.435   2.893
 6187TIP3   OH218445   3.526   7.125   1.018
 6187TIP3    H118446   3.506   7.084   0.934
 6187TIP3    H218447   3.494   7.215   1.008
 6188TIP3   OH218448   3.021   6.889   2.845
 6188TIP3    H118449   3.021   6.818   2.780
 6188TIP3    H218450   2.986   6.965   2.798
 6189TIP3   OH218451   3.023   6.688   2.643
 6189TIP3    H118452   3.048   6.726   2.559
 6189TIP3    H218453   2.931   6.663   2.632
 6190TIP3   OH218454   3.028   7.212   2.509
 6190TIP3    H118455   3.117   7.247   2.499
 6190TIP3    H218456   2.972   7.271   2.460
 6191TIP3   OH218457   3.624   7.175   2.890
 6191TIP3    H118458   3.669   7.091   2.895
 6191TIP3    H218459   3.694   7.240   2.881
 6192TIP3   OH218460   3.655   7.442   2.628
 6192TIP3    H118461   3.601   7.506   2.580
 6192TIP3    H218462   3.744   7.457   2.597
 6193TIP3   OH218463   2.907   6.968   3.090
 6193TIP3    H118464   2.839   6.904   3.111
 6193TIP3    H218465   2.934   6.947   3.001
 6194TIP3   OH218466   3.149   6.460   2.747
 6194TIP3    H118467   3.109   6.540   2.713
 6194TIP3    H218468   3.083   6.392   2.733
 6195TIP3   OH218469   3.275   6.926   2.951
 6195TIP3    H118470   3.264   6.912   3.045
 6195TIP3    H218471   3.189   6.906   2.913
 6196TIP3   OH218472   3.520   6.883   2.821
 6196TIP3    H118473   3.441   6.882   2.876
 6196TIP3    H218474   3.591   6.859   2.881
 6197TIP3   OH218475   3.755   6.849   2.971
 6197TIP3    H118476   3.770   6.755   2.977
 6197TIP3    H218477   3.751   6.878   3.062
 6198TIP3   OH218478   2.750   6.741   3.152
 6198TIP3    H118479   2.750   6.654   3.113
 6198TIP3    H218480   2.789   6.729   3.238
 6199TIP3   OH218481   3.217   6.429   3.011
 6199TIP3    H118482   3.286   6.363   3.002
 6199TIP3    H218483   3.186   6.444   2.922
 6200TIP3   OH218484   3.310   6.644   3.158
 6200TIP3    H118485   3.280   6.572   3.102
 6200TIP3    H218486   3.238   6.707   3.158
 6201TIP3   OH218487   2.555   7.886   1.254
 6201TIP3    H118488   2.648   7.876   1.237
 6201TIP3    H218489   2.522   7.939   1.181
 6202TIP3   OH218490   2.023   7.268   1.466
 6202TIP3    H118491   2.114   7.291   1.447
 6202TIP3    H218492   2.007   7.187   1.418
 6203TIP3   OH218493   1.931   7.863   1.903
 6203TIP3    H118494   1.866   7.815   1.851
 6203TIP3    H218495   1.971   7.797   1.959
 6204TIP3   OH218496   2.076   7.688   2.066
 6204TIP3    H118497   2.069   7.621   2.134
 6204TIP3    H218498   2.129   7.757   2.106
 6205TIP3   OH218499   3.808   8.101   1.882
 6205TIP3    H118500   3.828   8.125   1.972
 6205TIP3    H218501   3.855   8.164   1.828
 6206TIP3   OH218502   3.837   8.126   2.159
 6206TIP3    H118503   3.791   8.043   2.154
 6206TIP3    H218504   3.906   8.111   2.223
 6207TIP3   OH218505   3.893   7.832   2.732
 6207TIP3    H118506   3.820   7.842   2.792
 6207TIP3    H218507   3.938   7.917   2.734
 6208TIP3   OH218508   3.704   7.341   1.353
 6208TIP3    H118509   3.757   7.418   1.329
 6208TIP3    H218510   3.752   7.301   1.425
 6209TIP3   OH218511   3.847   7.201   1.544
 6209TIP3    H118512   3.780   7.168   1.603
 6209TIP3    H218513   3.912   7.242   1.601
 6210TIP3   OH218514   3.882   7.611   1.977
 6210TIP3    H118515   3.935   7.544   1.933
 6210TIP3    H218516   3.885   7.686   1.918
 6211TIP3   OH218517   3.691   7.892   2.157
 6211TIP3    H118518   3.626   7.942   2.205
 6211TIP3    H218519   3.643   7.853   2.084
 6212TIP3   OH218520   3.732   7.120   1.196
 6212TIP3    H118521   3.656   7.117   1.137
 6212TIP3    H218522   3.719   7.199   1.249
 6213TIP3   OH218523   3.592   6.770   1.129
 6213TIP3    H118524   3.540   6.801   1.055
 6213TIP3    H218525   3.590   6.674   1.121
 6214TIP3   OH218526   3.637   7.071   1.678
 6214TIP3    H118527   3.641   6.977   1.665
 6214TIP3    H218528   3.617   7.081   1.772
 6215TIP3   OH218529   2.251   7.142   2.446
 6215TIP3    H118530   2.240   7.104   2.359
 6215TIP3    H218531   2.344   7.134   2.465
 6216TIP3   OH218532   3.915   7.486   2.539
 6216TIP3    H118533   3.980   7.418   2.521
 6216TIP3    H218534   3.940   7.559   2.481
 6217TIP3   OH218535   4.089   7.272   2.528
 6217TIP3    H118536   4.016   7.231   2.573
 6217TIP3    H218537   4.164   7.215   2.549
 6218TIP3   OH218538   3.562   6.497   1.105
 6218TIP3    H118539   3.624   6.472   1.174
 6218TIP3    H218540   3.478   6.461   1.133
 6219TIP3   OH218541   3.626   6.796   1.563
 6219TIP3    H118542   3.673   6.713   1.575
 6219TIP3    H218543   3.666   6.835   1.486
 6220TIP3   OH218544   3.775   6.946   2.087
 6220TIP3    H118545   3.854   6.966   2.036
 6220TIP3    H218546   3.790   6.990   2.171
 6221TIP3   OH218547   3.850   7.102   2.310
 6221TIP3    H118548   3.780   7.131   2.369
 6221TIP3    H218549   3.882   7.182   2.270
 6222TIP3   OH218550   2.500   6.853   3.152
 6222TIP3    H118551   2.591   6.824   3.148
 6222TIP3    H218552   2.449   6.772   3.157
 6223TIP3   OH218553   4.319   6.700   2.851
 6223TIP3    H118554   4.385   6.646   2.808
 6223TIP3    H218555   4.279   6.750   2.780
 6224TIP3   OH218556   3.748   6.552   1.607
 6224TIP3    H118557   3.796   6.531   1.687
 6224TIP3    H218558   3.684   6.481   1.598
 6225TIP3   OH218559   2.469   6.515   2.374
 6225TIP3    H118560   2.519   6.439   2.405
 6225TIP3    H218561   2.529   6.589   2.386
 6226TIP3   OH218562   2.216   6.812   2.476
 6226TIP3    H118563   2.275   6.801   2.402
 6226TIP3    H218564   2.264   6.868   2.537
 6227TIP3   OH218565   4.163   6.817   2.658
 6227TIP3    H118566   4.082   6.859   2.690
 6227TIP3    H218567   4.132   6.742   2.608
 6228TIP3   OH218568   3.793   6.450   1.250
 6228TIP3    H118569   3.837   6.388   1.192
 6228TIP3    H218570   3.849   6.528   1.249
 6229TIP3   OH218571   2.212   6.273   1.991
 6229TIP3    H118572   2.130   6.271   2.040
 6229TIP3    H218573   2.196   6.336   1.921
 6230TIP3   OH218574   3.350   8.009   1.513
 6230TIP3    H118575   3.415   8.003   1.443
 6230TIP3    H218576   3.386   8.073   1.574
 6231TIP3   OH218577   2.435   6.336   2.817
 6231TIP3    H118578   2.417   6.346   2.910
 6231TIP3    H218579   2.353   6.360   2.774
 6232TIP3   OH218580   2.470   7.806   2.900
 6232TIP3    H118581   2.378   7.785   2.891
 6232TIP3    H218582   2.488   7.794   2.993
 6233TIP3   OH218583   2.671   7.846   2.453
 6233TIP3    H118584   2.614   7.914   2.418
 6233TIP3    H218585   2.756   7.862   2.413
 6234TIP3   OH218586   3.085   8.085   2.579
 6234TIP3    H118587   3.123   8.080   2.667
 6234TIP3    H218588   3.148   8.136   2.528
 6235TIP3   OH218589   3.278   8.233   2.446
 6235TIP3    H118590   3.332   8.222   2.368
 6235TIP3    H218591   3.335   8.278   2.509
 6236TIP3   OH218592   4.074   6.567   2.561
 6236TIP3    H118593   3.985   6.543   2.535
 6236TIP3    H218594   4.123   6.484   2.557
 6237TIP3   OH218595   2.334   8.065   2.494
 6237TIP3    H118596   2.244   8.090   2.472
 6237TIP3    H218597   2.361   8.129   2.560
 6238TIP3   OH218598   2.562   8.070   2.340
 6238TIP3    H118599   2.478   8.074   2.385
 6238TIP3    H218600   2.543   8.097   2.250
 6239TIP3   OH218601   3.415   8.197   2.103
 6239TIP3    H118602   3.360   8.266   2.067
 6239TIP3    H218603   3.449   8.151   2.027
 6240TIP3   OH218604   2.252   7.867   2.208
 6240TIP3    H118605   2.276   7.842   2.297
 6240TIP3    H218606   2.325   7.836   2.154
 6241TIP3   OH218607   2.459   7.756   2.070
 6241TIP3    H118608   2.470   7.672   2.114
 6241TIP3    H218609   2.545   7.798   2.078
 6242TIP3   OH218610   2.724   7.844   2.108
 6242TIP3    H118611   2.749   7.752   2.100
 6242TIP3    H218612   2.780   7.878   2.177
 6243TIP3   OH218613   3.267   6.486   2.188
 6243TIP3    H118614   3.221   6.421   2.241
 6243TIP3    H218615   3.330   6.436   2.137
 6244TIP3   OH218616   3.738   6.409   2.017
 6244TIP3    H118617   3.801   6.432   1.948
 6244TIP3    H218618   3.712   6.492   2.056
 6245TIP3   OH218619   3.908   6.483   1.820
 6245TIP3    H118620   3.976   6.420   1.796
 6245TIP3    H218621   3.951   6.568   1.812
 6246TIP3   OH218622   2.526   6.191   2.173
 6246TIP3    H118623   2.439   6.156   2.190
 6246TIP3    H218624   2.582   6.113   2.168
 6247TIP3   OH218625   2.321   6.080   1.818
 6247TIP3    H118626   2.358   6.133   1.748
 6247TIP3    H218627   2.290   6.144   1.883
 6248TIP3   OH218628   3.058   6.195   2.057
 6248TIP3    H118629   3.077   6.268   1.997
 6248TIP3    H218630   3.063   6.234   2.144
 6249TIP3   OH218631   3.460   6.338   2.064
 6249TIP3    H118632   3.551   6.358   2.039
 6249TIP3    H218633   3.467   6.262   2.121
 6250TIP3   OH218634   3.554   6.352   1.601
 6250TIP3    H118635   3.479   6.403   1.633
 6250TIP3    H218636   3.537   6.263   1.632
 6251TIP3   OH218637   2.019   7.666   1.607
 6251TIP3    H118638   1.934   7.635   1.574
 6251TIP3    H218639   2.027   7.755   1.571
 6252TIP3   OH218640   2.452   6.227   1.602
 6252TIP3    H118641   2.499   6.170   1.542
 6252TIP3    H218642   2.520   6.284   1.638
 6253TIP3   OH218643   2.939   6.425   1.699
 6253TIP3    H118644   3.003   6.379   1.754
 6253TIP3    H218645   2.949   6.517   1.724
 6254TIP3   OH218646   2.819   7.830   1.199
 6254TIP3    H118647   2.902   7.857   1.159
 6254TIP3    H218648   2.790   7.755   1.147
 6255TIP3   OH218649   3.519   7.971   1.294
 6255TIP3    H118650   3.513   7.875   1.287
 6255TIP3    H218651   3.477   8.003   1.215
 6256TIP3   OH218652   2.755   6.470   3.060
 6256TIP3    H118653   2.719   6.406   3.122
 6256TIP3    H218654   2.847   6.478   3.086
 6257TIP3   OH218655   3.001   6.479   3.187
 6257TIP3    H118656   3.079   6.458   3.135
 6257TIP3    H218657   2.996   6.408   3.252
 6258TIP3   OH218658   2.137   7.632   1.252
 6258TIP3    H118659   2.153   7.637   1.346
 6258TIP3    H218660   2.219   7.597   1.215
 6259TIP3   OH218661   3.821   6.581   2.977
 6259TIP3    H118662   3.838   6.549   3.066
 6259TIP3    H218663   3.906   6.572   2.933
 6260TIP3   OH218664   3.738   8.102   2.478
 6260TIP3    H118665   3.665   8.074   2.421
 6260TIP3    H218666   3.728   8.197   2.485
 6261TIP3   OH218667   5.020   7.469   1.229
 6261TIP3    H118668   4.996   7.561   1.245
 6261TIP3    H218669   4.938   7.427   1.205
 6262TIP3   OH218670   5.009   7.480   1.650
 6262TIP3    H118671   5.057   7.466   1.731
 6262TIP3    H218672   4.965   7.396   1.634
 6263TIP3   OH218673   4.310   7.342   1.989
 6263TIP3    H118674   4.350   7.292   2.061
 6263TIP3    H218675   4.385   7.369   1.935
 6264TIP3   OH218676   5.254   7.786   1.386
 6264TIP3    H118677   5.255   7.706   1.438
 6264TIP3    H218678   5.287   7.853   1.445
 6265TIP3   OH218679   4.306   7.768   1.668
 6265TIP3    H118680   4.288   7.675   1.678
 6265TIP3    H218681   4.401   7.772   1.654
 6266TIP3   OH218682   3.989   6.976   1.453
 6266TIP3    H118683   3.953   7.060   1.482
 6266TIP3    H218684   3.914   6.928   1.416
 6267TIP3   OH218685   4.071   7.295   1.683
 6267TIP3    H118686   4.122   7.218   1.709
 6267TIP3    H218687   4.137   7.362   1.665
 6268TIP3   OH218688   4.946   8.239   1.331
 6268TIP3    H118689   4.966   8.152   1.298
 6268TIP3    H218690   4.938   8.227   1.426
 6269TIP3   OH218691   4.825   7.704   1.645
 6269TIP3    H118692   4.871   7.623   1.623
 6269TIP3    H218693   4.894   7.762   1.679
 6270TIP3   OH218694   5.852   7.021   1.680
 6270TIP3    H118695   5.863   7.108   1.718
 6270TIP3    H218696   5.887   7.030   1.591
 6271TIP3   OH218697   5.229   7.193   1.703
 6271TIP3    H118698   5.263   7.108   1.730
 6271TIP3    H218699   5.190   7.177   1.617
 6272TIP3   OH218700   4.579   6.846   1.649
 6272TIP3    H118701   4.560   6.922   1.593
 6272TIP3    H218702   4.524   6.776   1.613
 6273TIP3   OH218703   5.287   6.960   1.303
 6273TIP3    H118704   5.342   6.941   1.378
 6273TIP3    H218705   5.347   6.996   1.238
 6274TIP3   OH218706   4.205   7.069   1.774
 6274TIP3    H118707   4.288   7.052   1.818
 6274TIP3    H218708   4.209   7.018   1.693
 6275TIP3   OH218709   4.631   7.272   1.596
 6275TIP3    H118710   4.726   7.257   1.601
 6275TIP3    H218711   4.595   7.189   1.566
 6276TIP3   OH218712   5.904   7.240   1.845
 6276TIP3    H118713   5.819   7.283   1.836
 6276TIP3    H218714   5.947   7.286   1.917
 6277TIP3   OH218715   4.565   6.858   2.094
 6277TIP3    H118716   4.515   6.895   2.021
 6277TIP3    H218717   4.510   6.874   2.171
 6278TIP3   OH218718   4.909   7.718   1.213
 6278TIP3    H118719   4.842   7.681   1.154
 6278TIP3    H218720   4.860   7.779   1.268
 6279TIP3   OH218721   4.656   7.635   1.854
 6279TIP3    H118722   4.603   7.707   1.888
 6279TIP3    H218723   4.704   7.672   1.781
 6280TIP3   OH218724   5.444   6.955   1.524
 6280TIP3    H118725   5.394   6.938   1.604
 6280TIP3    H218726   5.495   7.034   1.544
 6281TIP3   OH218727   4.452   6.965   1.865
 6281TIP3    H118728   4.507   7.041   1.886
 6281TIP3    H218729   4.498   6.920   1.795
 6282TIP3   OH218730   4.503   7.837   1.964
 6282TIP3    H118731   4.490   7.926   1.934
 6282TIP3    H218732   4.424   7.817   2.015
 6283TIP3   OH218733   3.869   7.538   1.258
 6283TIP3    H118734   3.833   7.555   1.171
 6283TIP3    H218735   3.898   7.624   1.289
 6284TIP3   OH218736   5.320   8.023   1.513
 6284TIP3    H118737   5.230   8.026   1.546
 6284TIP3    H218738   5.313   8.052   1.422
 6285TIP3   OH218739   5.658   6.904   1.841
 6285TIP3    H118740   5.573   6.925   1.802
 6285TIP3    H218741   5.721   6.936   1.777
 6286TIP3   OH218742   4.904   6.547   1.834
 6286TIP3    H118743   4.898   6.455   1.860
 6286TIP3    H218744   4.827   6.588   1.871
 6287TIP3   OH218745   4.980   8.019   1.172
 6287TIP3    H118746   5.039   7.943   1.175
 6287TIP3    H218747   5.021   8.079   1.110
 6288TIP3   OH218748   5.185   7.836   1.134
 6288TIP3    H118749   5.205   7.763   1.075
 6288TIP3    H218750   5.202   7.801   1.221
 6289TIP3   OH218751   5.548   7.923   1.810
 6289TIP3    H118752   5.531   7.847   1.755
 6289TIP3    H218753   5.536   7.998   1.751
 6290TIP3   OH218754   4.819   7.330   1.095
 6290TIP3    H118755   4.728   7.357   1.085
 6290TIP3    H218756   4.854   7.327   1.006
 6291TIP3   OH218757   4.758   7.066   0.944
 6291TIP3    H118758   4.809   7.129   0.996
 6291TIP3    H218759   4.812   7.049   0.867
 6292TIP3   OH218760   5.736   7.573   1.670
 6292TIP3    H118761   5.652   7.618   1.679
 6292TIP3    H218762   5.769   7.599   1.584
 6293TIP3   OH218763   5.206   7.395   1.052
 6293TIP3    H118764   5.136   7.421   1.112
 6293TIP3    H218765   5.275   7.362   1.109
 6294TIP3   OH218766   5.425   7.451   1.987
 6294TIP3    H118767   5.424   7.535   2.032
 6294TIP3    H218768   5.343   7.449   1.937
 6295TIP3   OH218769   4.427   7.395   1.449
 6295TIP3    H118770   4.388   7.329   1.392
 6295TIP3    H218771   4.503   7.352   1.488
 6296TIP3   OH218772   4.568   7.816   1.572
 6296TIP3    H118773   4.545   7.809   1.479
 6296TIP3    H218774   4.658   7.782   1.577
 6297TIP3   OH218775   4.522   7.400   1.815
 6297TIP3    H118776   4.563   7.363   1.737
 6297TIP3    H218777   4.569   7.482   1.831
 6298TIP3   OH218778   5.064   8.033   1.599
 6298TIP3    H118779   5.053   8.113   1.649
 6298TIP3    H218780   5.049   7.962   1.662
 6299TIP3   OH218781   4.700   7.932   2.135
 6299TIP3    H118782   4.639   7.989   2.182
 6299TIP3    H218783   4.645   7.881   2.076
 6300TIP3   OH218784   5.013   7.204   0.937
 6300TIP3    H118785   5.097   7.249   0.944
 6300TIP3    H218786   4.974   7.240   0.857
 6301TIP3   OH218787   4.453   7.479   2.281
 6301TIP3    H118788   4.458   7.573   2.297
 6301TIP3    H218789   4.360   7.460   2.272
 6302TIP3   OH218790   4.737   7.928   1.272
 6302TIP3    H118791   4.814   7.974   1.238
 6302TIP3    H218792   4.680   7.917   1.195
 6303TIP3   OH218793   4.489   8.089   2.220
 6303TIP3    H118794   4.466   8.101   2.128
 6303TIP3    H218795   4.406   8.077   2.265
 6304TIP3   OH218796   5.535   6.522   0.946
 6304TIP3    H118797   5.458   6.532   1.003
 6304TIP3    H218798   5.568   6.610   0.935
 6305TIP3   OH218799   4.284   7.221   1.278
 6305TIP3    H118800   4.204   7.269   1.255
 6305TIP3    H218801   4.253   7.134   1.302
 6306TIP3   OH218802   4.085   7.651   2.170
 6306TIP3    H118803   4.016   7.633   2.106
 6306TIP3    H218804   4.120   7.564   2.193
 6307TIP3   OH218805   3.924   7.850   1.832
 6307TIP3    H118806   4.013   7.878   1.854
 6307TIP3    H218807   3.869   7.925   1.854
 6308TIP3   OH218808   5.779   8.278   1.891
 6308TIP3    H118809   5.781   8.183   1.904
 6308TIP3    H218810   5.699   8.306   1.935
 6309TIP3   OH218811   4.887   8.079   1.997
 6309TIP3    H118812   4.879   8.169   2.028
 6309TIP3    H218813   4.821   8.030   2.047
 6310TIP3   OH218814   4.566   8.168   1.046
 6310TIP3    H118815   4.528   8.200   0.964
 6310TIP3    H218816   4.656   8.201   1.045
 6311TIP3   OH218817   4.090   8.031   1.342
 6311TIP3    H118818   4.140   8.023   1.423
 6311TIP3    H218819   4.043   7.948   1.334
 6312TIP3   OH218820   4.840   8.113   0.593
 6312TIP3    H118821   4.879   8.025   0.597
 6312TIP3    H218822   4.839   8.142   0.684
 6313TIP3   OH218823   4.926   8.070   0.882
 6313TIP3    H118824   4.892   8.134   0.944
 6313TIP3    H218825   4.989   8.118   0.829
 6314TIP3   OH218826   5.671   7.409   2.149
 6314TIP3    H118827   5.588   7.418   2.102
 6314TIP3    H218828   5.691   7.315   2.145
 6315TIP3   OH218829   4.284   7.838   2.134
 6315TIP3    H118830   4.335   7.826   2.215
 6315TIP3    H218831   4.212   7.776   2.142
 6316TIP3   OH218832   4.665   6.639   1.952
 6316TIP3    H118833   4.581   6.605   1.921
 6316TIP3    H218834   4.643   6.720   1.997
 6317TIP3   OH218835   5.209   6.764   2.154
 6317TIP3    H118836   5.279   6.740   2.215
 6317TIP3    H218837   5.128   6.748   2.202
 6318TIP3   OH218838   5.428   7.182   2.066
 6318TIP3    H118839   5.391   7.178   2.154
 6318TIP3    H218840   5.415   7.273   2.038
 6319TIP3   OH218841   5.229   7.206   0.722
 6319TIP3    H118842   5.187   7.165   0.647
 6319TIP3    H218843   5.240   7.298   0.697
 6320TIP3   OH218844   4.837   6.516   0.976
 6320TIP3    H118845   4.824   6.576   1.049
 6320TIP3    H218846   4.749   6.492   0.948
 6321TIP3   OH218847   4.605   7.176   1.959
 6321TIP3    H118848   4.562   7.183   2.044
 6321TIP3    H218849   4.585   7.258   1.914
 6322TIP3   OH218850   4.486   7.058   1.501
 6322TIP3    H118851   4.396   7.035   1.524
 6322TIP3    H218852   4.498   7.020   1.414
 6323TIP3   OH218853   4.948   7.137   1.250
 6323TIP3    H118854   4.911   7.210   1.200
 6323TIP3    H218855   5.000   7.088   1.187
 6324TIP3   OH218856   5.154   7.393   2.280
 6324TIP3    H118857   5.128   7.325   2.343
 6324TIP3    H218858   5.246   7.410   2.299
 6325TIP3   OH218859   5.133   7.140   1.453
 6325TIP3    H118860   5.061   7.160   1.392
 6325TIP3    H218861   5.181   7.069   1.409
 6326TIP3   OH218862   4.447   7.190   2.183
 6326TIP3    H118863   4.462   7.253   2.253
 6326TIP3    H218864   4.429   7.108   2.229
 6327TIP3   OH218865   4.422   6.644   0.948
 6327TIP3    H118866   4.433   6.655   1.042
 6327TIP3    H218867   4.348   6.701   0.925
 6328TIP3   OH218868   4.045   6.708   1.762
 6328TIP3    H118869   4.108   6.746   1.823
 6328TIP3    H218870   4.090   6.708   1.678
 6329TIP3   OH218871   3.941   6.688   1.250
 6329TIP3    H118872   3.986   6.725   1.174
 6329TIP3    H218873   3.879   6.756   1.277
 6330TIP3   OH218874   5.172   7.401   1.866
 6330TIP3    H118875   5.201   7.333   1.804
 6330TIP3    H218876   5.127   7.353   1.935
 6331TIP3   OH218877   4.846   6.839   1.541
 6331TIP3    H118878   4.769   6.838   1.598
 6331TIP3    H218879   4.920   6.833   1.602
 6332TIP3   OH218880   4.246   6.928   1.543
 6332TIP3    H118881   4.159   6.931   1.502
 6332TIP3    H218882   4.278   6.840   1.523
 6333TIP3   OH218883   4.492   6.917   1.269
 6333TIP3    H118884   4.582   6.931   1.240
 6333TIP3    H218885   4.439   6.930   1.190
 6334TIP3   OH218886   5.287   6.925   1.749
 6334TIP3    H118887   5.268   6.943   1.841
 6334TIP3    H218888   5.216   6.866   1.722
 6335TIP3   OH218889   4.306   6.911   1.068
 6335TIP3    H118890   4.221   6.887   1.032
 6335TIP3    H218891   4.356   6.944   0.993
 6336TIP3   OH218892   5.495   8.636   1.980
 6336TIP3    H118893   5.490   8.642   1.885
 6336TIP3    H218894   5.573   8.686   2.003
 6337TIP3   OH218895   4.436   7.747   2.369
 6337TIP3    H118896   4.517   7.767   2.416
 6337TIP3    H218897   4.367   7.759   2.434
 6338TIP3   OH218898   4.902   7.214   1.642
 6338TIP3    H118899   4.968   7.166   1.593
 6338TIP3    H218900   4.900   7.172   1.728
 6339TIP3   OH218901   4.383   6.678   1.524
 6339TIP3    H118902   4.358   6.601   1.576
 6339TIP3    H218903   4.404   6.643   1.438
 6340TIP3   OH218904   4.871   7.117   1.904
 6340TIP3    H118905   4.785   7.150   1.927
 6340TIP3    H218906   4.932   7.168   1.957
 6341TIP3   OH218907   4.565   7.414   1.048
 6341TIP3    H118908   4.488   7.364   1.021
 6341TIP3    H218909   4.536   7.463   1.125
 6342TIP3   OH218910   5.490   7.702   1.653
 6342TIP3    H118911   5.526   7.748   1.578
 6342TIP3    H218912   5.411   7.659   1.620
 6343TIP3   OH218913   5.049   6.723   0.980
 6343TIP3    H118914   4.962   6.707   0.944
 6343TIP3    H218915   5.052   6.818   0.995
 6344TIP3   OH218916   5.013   7.807   2.044
 6344TIP3    H118917   5.070   7.796   2.120
 6344TIP3    H218918   4.977   7.895   2.053
 6345TIP3   OH218919   5.077   6.979   1.060
 6345TIP3    H118920   5.171   6.989   1.044
 6345TIP3    H218921   5.036   7.046   1.005
 6346TIP3   OH218922   4.289   7.478   1.671
 6346TIP3    H118923   4.328   7.461   1.585
 6346TIP3    H218924   4.356   7.454   1.734
 6347TIP3   OH218925   4.722   7.638   1.033
 6347TIP3    H118926   4.670   7.718   1.043
 6347TIP3    H218927   4.659   7.567   1.041
 6348TIP3   OH218928   4.177   7.417   2.300
 6348TIP3    H118929   4.182   7.391   2.392
 6348TIP3    H218930   4.102   7.369   2.265
 6349TIP3   OH218931   4.922   7.550   2.321
 6349TIP3    H118932   4.853   7.490   2.292
 6349TIP3    H218933   5.004   7.509   2.292
 6350TIP3   OH218934   5.156   8.096   1.927
 6350TIP3    H118935   5.061   8.084   1.930
 6350TIP3    H218936   5.178   8.131   2.013
 6351TIP3   OH218937   5.565   7.137   0.831
 6351TIP3    H118938   5.505   7.090   0.773
 6351TIP3    H218939   5.526   7.223   0.841
 6352TIP3   OH218940   5.793   7.998   1.902
 6352TIP3    H118941   5.698   7.986   1.895
 6352TIP3    H218942   5.826   7.973   1.815
 6353TIP3   OH218943   5.456   7.889   0.742
 6353TIP3    H118944   5.367   7.894   0.777
 6353TIP3    H218945   5.458   7.805   0.696
 6354TIP3   OH218946   5.263   7.569   1.553
 6354TIP3    H118947   5.172   7.547   1.575
 6354TIP3    H218948   5.298   7.490   1.513
 6355TIP3   OH218949   4.416   7.818   1.332
 6355TIP3    H118950   4.409   7.897   1.280
 6355TIP3    H218951   4.326   7.787   1.340
 6356TIP3   OH218952   3.970   7.110   1.062
 6356TIP3    H118953   4.016   7.190   1.090
 6356TIP3    H218954   3.888   7.111   1.111
 6357TIP3   OH218955   4.514   7.573   1.257
 6357TIP3    H118956   4.489   7.663   1.276
 6357TIP3    H218957   4.484   7.523   1.334
 6358TIP3   OH218958   4.708   8.149   1.789
 6358TIP3    H118959   4.746   8.222   1.740
 6358TIP3    H218960   4.781   8.117   1.842
 6359TIP3   OH218961   4.318   8.043   1.197
 6359TIP3    H118962   4.231   8.042   1.237
 6359TIP3    H218963   4.350   8.132   1.210
 6360TIP3   OH218964   5.052   7.811   1.770
 6360TIP3    H118965   5.037   7.807   1.864
 6360TIP3    H218966   5.136   7.767   1.757
 6361TIP3   OH218967   5.145   7.689   0.689
 6361TIP3    H118968   5.188   7.695   0.774
 6361TIP3    H218969   5.053   7.671   0.709
 6362TIP3   OH218970   5.312   8.300   1.824
 6362TIP3    H118971   5.247   8.233   1.844
 6362TIP3    H218972   5.271   8.354   1.756
 6363TIP3   OH218973   4.391   6.935   2.299
 6363TIP3    H118974   4.296   6.945   2.304
 6363TIP3    H218975   4.414   6.885   2.378
 6364TIP3   OH218976   5.269   7.639   0.932
 6364TIP3    H118977   5.260   7.569   0.996
 6364TIP3    H218978   5.363   7.650   0.921
 6365TIP3   OH218979   4.133   8.038   1.951
 6365TIP3    H118980   4.188   7.982   2.005
 6365TIP3    H218981   4.145   8.126   1.988
 6366TIP3   OH218982   4.384   7.723   0.606
 6366TIP3    H118983   4.401   7.630   0.590
 6366TIP3    H218984   4.406   7.736   0.698
 6367TIP3   OH218985   4.270   7.720   1.043
 6367TIP3    H118986   4.344   7.682   0.996
 6367TIP3    H218987   4.264   7.809   1.008
 6368TIP3   OH218988   4.060   7.347   1.176
 6368TIP3    H118989   3.997   7.393   1.232
 6368TIP3    H218990   4.077   7.408   1.104
 6369TIP3   OH218991   5.232   6.996   2.008
 6369TIP3    H118992   5.311   7.041   2.036
 6369TIP3    H218993   5.227   6.919   2.064
 6370TIP3   OH218994   5.147   6.722   1.237
 6370TIP3    H118995   5.111   6.728   1.149
 6370TIP3    H218996   5.182   6.810   1.255
 6371TIP3   OH218997   4.605   7.893   1.025
 6371TIP3    H118998   4.565   7.978   1.042
 6371TIP3    H218999   4.649   7.904   0.941
 6372TIP3   OH219000   4.771   6.929   1.289
 6372TIP3    H119001   4.827   7.005   1.270
 6372TIP3    H219002   4.794   6.904   1.378
 6373TIP3   OH219003   5.074   7.229   2.058
 6373TIP3    H119004   5.103   7.272   2.139
 6373TIP3    H219005   5.125   7.149   2.054
 6374TIP3   OH219006   4.939   6.625   1.387
 6374TIP3    H119007   4.915   6.704   1.437
 6374TIP3    H219008   5.018   6.651   1.340
 6375TIP3   OH219009   4.287   7.976   0.937
 6375TIP3    H119010   4.319   8.055   0.892
 6375TIP3    H219011   4.298   7.996   1.030
 6376TIP3   OH219012   4.455   6.644   1.226
 6376TIP3    H119013   4.450   6.736   1.250
 6376TIP3    H219014   4.549   6.625   1.220
 6377TIP3   OH219015   5.696   7.139   2.061
 6377TIP3    H119016   5.601   7.139   2.064
 6377TIP3    H219017   5.718   7.105   1.974
 6378TIP3   OH219018   5.353   7.323   1.459
 6378TIP3    H119019   5.275   7.268   1.464
 6378TIP3    H219020   5.416   7.281   1.517
 6379TIP3   OH219021   4.057   7.558   0.998
 6379TIP3    H119022   4.115   7.617   1.045
 6379TIP3    H219023   4.088   7.561   0.907
 6380TIP3   OH219024   4.019   6.842   1.030
 6380TIP3    H119025   4.016   6.933   1.061
 6380TIP3    H219026   3.966   6.841   0.951
 6381TIP3   OH219027   5.337   8.342   1.426
 6381TIP3    H119028   5.295   8.302   1.350
 6381TIP3    H219029   5.430   8.322   1.415
 6382TIP3   OH219030   4.401   6.552   1.916
 6382TIP3    H119031   4.372   6.520   1.830
 6382TIP3    H219032   4.393   6.476   1.974
 6383TIP3   OH219033   3.922   7.807   1.314
 6383TIP3    H119034   3.879   7.847   1.389
 6383TIP3    H219035   3.876   7.843   1.238
 6384TIP3   OH219036   4.129   8.350   2.377
 6384TIP3    H119037   4.211   8.355   2.426
 6384TIP3    H219038   4.114   8.257   2.365
 6385TIP3   OH219039   4.596   8.252   2.414
 6385TIP3    H119040   4.688   8.226   2.424
 6385TIP3    H219041   4.563   8.199   2.343
 6386TIP3   OH219042   4.584   7.895   0.525
 6386TIP3    H119043   4.534   7.814   0.532
 6386TIP3    H219044   4.646   7.880   0.454
 6387TIP3   OH219045   5.214   8.197   2.174
 6387TIP3    H119046   5.227   8.127   2.237
 6387TIP3    H219047   5.288   8.256   2.188
 6388TIP3   OH219048   4.230   7.748   2.560
 6388TIP3    H119049   4.251   7.656   2.571
 6388TIP3    H219050   4.143   7.749   2.522
 6389TIP3   OH219051   4.162   7.312   0.828
 6389TIP3    H119052   4.225   7.284   0.894
 6389TIP3    H219053   4.180   7.405   0.816
 6390TIP3   OH219054   4.854   7.827   2.339
 6390TIP3    H119055   4.811   7.849   2.256
 6390TIP3    H219056   4.891   7.740   2.324
 6391TIP3   OH219057   4.661   7.625   0.658
 6391TIP3    H119058   4.749   7.633   0.695
 6391TIP3    H219059   4.672   7.575   0.577
 6392TIP3   OH219060   5.320   7.870   1.954
 6392TIP3    H119061   5.400   7.897   1.907
 6392TIP3    H219062   5.259   7.942   1.940
 6393TIP3   OH219063   4.346   7.493   2.568
 6393TIP3    H119064   4.421   7.480   2.510
 6393TIP3    H219065   4.384   7.512   2.653
 6394TIP3   OH219066   4.354   7.244   1.011
 6394TIP3    H119067   4.335   7.235   1.104
 6394TIP3    H219068   4.401   7.164   0.988
 6395TIP3   OH219069   4.713   7.374   2.227
 6395TIP3    H119070   4.628   7.417   2.238
 6395TIP3    H219071   4.744   7.405   2.141
 6396TIP3   OH219072   4.494   7.030   0.911
 6396TIP3    H119073   4.496   7.072   0.825
 6396TIP3    H219074   4.585   7.028   0.939
 6397TIP3   OH219075   5.207   7.747   2.301
 6397TIP3    H119076   5.280   7.713   2.249
 6397TIP3    H219077   5.206   7.692   2.379
 6398TIP3   OH219078   5.250   7.409   0.379
 6398TIP3    H119079   5.335   7.388   0.340
 6398TIP3    H219080   5.269   7.430   0.470
 6399TIP3   OH219081   4.814   7.142   2.334
 6399TIP3    H119082   4.819   7.073   2.269
 6399TIP3    H219083   4.782   7.218   2.286
 6400TIP3   OH219084   4.824   6.945   2.131
 6400TIP3    H119085   4.852   6.982   2.047
 6400TIP3    H219086   4.733   6.917   2.115
 6401TIP3   OH219087   4.825   7.477   2.002
 6401TIP3    H119088   4.913   7.515   1.995
 6401TIP3    H219089   4.769   7.535   1.950
 6402TIP3   OH219090   5.422   7.436   2.378
 6402TIP3    H119091   5.472   7.354   2.381
 6402TIP3    H219092   5.488   7.505   2.372
 6403TIP3   OH219093   5.450   7.698   2.118
 6403TIP3    H119094   5.396   7.758   2.067
 6403TIP3    H219095   5.539   7.712   2.086
 6404TIP3   OH219096   4.700   7.224   2.577
 6404TIP3    H119097   4.630   7.162   2.597
 6404TIP3    H219098   4.729   7.201   2.489
 6405TIP3   OH219099   4.945   6.715   2.235
 6405TIP3    H119100   4.905   6.795   2.201
 6405TIP3    H219101   4.878   6.648   2.221
 6406TIP3   OH219102   5.072   7.182   2.436
 6406TIP3    H119103   5.062   7.169   2.531
 6406TIP3    H219104   4.985   7.161   2.401
 6407TIP3   OH219105   5.319   7.139   2.308
 6407TIP3    H119106   5.241   7.139   2.363
 6407TIP3    H219107   5.391   7.118   2.369
 6408TIP3   OH219108   5.553   7.104   2.460
 6408TIP3    H119109   5.567   7.009   2.466
 6408TIP3    H219110   5.548   7.133   2.551
 6409TIP3   OH219111   4.528   7.011   2.643
 6409TIP3    H119112   4.535   6.923   2.606
 6409TIP3    H219113   4.567   7.004   2.730
 6410TIP3   OH219114   5.009   6.688   2.500
 6410TIP3    H119115   5.078   6.622   2.492
 6410TIP3    H219116   4.980   6.702   2.410
 6411TIP3   OH219117   5.107   6.901   2.646
 6411TIP3    H119118   5.076   6.830   2.590
 6411TIP3    H219119   5.034   6.964   2.646
 6412TIP3   OH219120   4.302   8.017   0.613
 6412TIP3    H119121   4.396   8.010   0.593
 6412TIP3    H219122   4.275   8.098   0.569
 6413TIP3   OH219123   3.787   7.525   0.979
 6413TIP3    H119124   3.883   7.534   0.981
 6413TIP3    H219125   3.772   7.436   0.949
 6414TIP3   OH219126   3.726   8.117   1.395
 6414TIP3    H119127   3.658   8.066   1.352
 6414TIP3    H219128   3.769   8.056   1.454
 6415TIP3   OH219129   3.870   7.949   1.561
 6415TIP3    H119130   3.865   7.882   1.629
 6415TIP3    H219131   3.924   8.018   1.600
 6416TIP3   OH219132   5.613   8.331   1.392
 6416TIP3    H119133   5.647   8.358   1.477
 6416TIP3    H219134   5.617   8.410   1.338
 6417TIP3   OH219135   5.652   8.375   1.662
 6417TIP3    H119136   5.601   8.294   1.658
 6417TIP3    H219137   5.716   8.360   1.732
 6418TIP3   OH219138   5.681   8.088   2.215
 6418TIP3    H119139   5.608   8.094   2.277
 6418TIP3    H219140   5.728   8.171   2.224
 6419TIP3   OH219141   5.542   7.637   0.891
 6419TIP3    H119142   5.604   7.687   0.837
 6419TIP3    H219143   5.592   7.560   0.920
 6420TIP3   OH219144   5.626   7.445   1.075
 6420TIP3    H119145   5.565   7.446   1.148
 6420TIP3    H219146   5.707   7.484   1.110
 6421TIP3   OH219147   5.658   7.836   1.489
 6421TIP3    H119148   5.714   7.776   1.440
 6421TIP3    H219149   5.652   7.914   1.434
 6422TIP3   OH219150   5.493   8.155   1.673
 6422TIP3    H119151   5.428   8.199   1.728
 6422TIP3    H219152   5.441   8.110   1.606
 6423TIP3   OH219153   5.582   7.356   0.587
 6423TIP3    H119154   5.491   7.363   0.614
 6423TIP3    H219155   5.632   7.370   0.668
 6424TIP3   OH219156   5.409   7.003   0.657
 6424TIP3    H119157   5.384   7.052   0.579
 6424TIP3    H219158   5.421   6.914   0.626
 6425TIP3   OH219159   5.413   7.303   1.195
 6425TIP3    H119160   5.447   7.214   1.191
 6425TIP3    H219161   5.399   7.320   1.289
 6426TIP3   OH219162   4.048   7.387   1.940
 6426TIP3    H119163   4.038   7.357   1.849
 6426TIP3    H219164   4.141   7.382   1.958
 6427TIP3   OH219165   5.709   7.737   2.026
 6427TIP3    H119166   5.774   7.669   2.011
 6427TIP3    H219167   5.733   7.807   1.965
 6428TIP3   OH219168   5.883   7.524   2.019
 6428TIP3    H119169   5.811   7.484   2.066
 6428TIP3    H219170   5.959   7.470   2.041
 6429TIP3   OH219171   5.427   6.733   0.655
 6429TIP3    H119172   5.510   6.686   0.661
 6429TIP3    H219173   5.399   6.743   0.747
 6430TIP3   OH219174   5.510   7.048   1.149
 6430TIP3    H119175   5.520   6.953   1.152
 6430TIP3    H219176   5.599   7.082   1.140
 6431TIP3   OH219177   5.553   7.195   1.608
 6431TIP3    H119178   5.635   7.218   1.565
 6431TIP3    H219179   5.560   7.235   1.695
 6432TIP3   OH219180   5.642   7.359   1.823
 6432TIP3    H119181   5.569   7.394   1.875
 6432TIP3    H219182   5.675   7.434   1.774
 6433TIP3   OH219183   4.264   7.061   2.573
 6433TIP3    H119184   4.358   7.060   2.595
 6433TIP3    H219185   4.230   6.981   2.612
 6434TIP3   OH219186   6.111   6.956   2.340
 6434TIP3    H119187   6.177   6.902   2.297
 6434TIP3    H219188   6.072   7.008   2.269
 6435TIP3   OH219189   5.519   6.774   1.158
 6435TIP3    H119190   5.576   6.764   1.235
 6435TIP3    H219191   5.460   6.698   1.163
 6436TIP3   OH219192   4.244   6.782   1.941
 6436TIP3    H119193   4.297   6.702   1.944
 6436TIP3    H219194   4.306   6.851   1.920
 6437TIP3   OH219195   4.014   7.045   1.982
 6437TIP3    H119196   4.069   7.039   1.905
 6437TIP3    H219197   4.041   7.126   2.025
 6438TIP3   OH219198   5.960   7.075   2.146
 6438TIP3    H119199   5.878   7.116   2.174
 6438TIP3    H219200   5.931   7.001   2.091
 6439TIP3   OH219201   5.675   6.760   0.863
 6439TIP3    H119202   5.670   6.697   0.791
 6439TIP3    H219203   5.675   6.846   0.821
 6440TIP3   OH219204   4.008   6.544   1.475
 6440TIP3    H119205   3.924   6.546   1.522
 6440TIP3    H219206   3.995   6.604   1.401
 6441TIP3   OH219207   5.134   8.225   1.063
 6441TIP3    H119208   5.195   8.212   0.990
 6441TIP3    H219209   5.153   8.313   1.094
 6442TIP3   OH219210   4.231   6.603   2.324
 6442TIP3    H119211   4.181   6.601   2.406
 6442TIP3    H219212   4.179   6.658   2.266
 6443TIP3   OH219213   4.263   8.067   2.383
 6443TIP3    H119214   4.170   8.045   2.377
 6443TIP3    H219215   4.283   8.062   2.477
 6444TIP3   OH219216   4.480   8.111   1.938
 6444TIP3    H119217   4.426   8.183   1.905
 6444TIP3    H219218   4.565   8.122   1.895
 6445TIP3   OH219219   4.874   8.344   2.076
 6445TIP3    H119220   4.911   8.336   2.165
 6445TIP3    H219221   4.938   8.397   2.029
 6446TIP3   OH219222   5.067   8.496   1.952
 6446TIP3    H119223   5.132   8.443   1.907
 6446TIP3    H219224   5.118   8.554   2.008
 6447TIP3   OH219225   5.868   6.833   2.035
 6447TIP3    H119226   5.786   6.837   1.987
 6447TIP3    H219227   5.895   6.741   2.030
 6448TIP3   OH219228   4.136   8.340   1.987
 6448TIP3    H119229   4.045   8.356   1.962
 6448TIP3    H219230   4.157   8.409   2.050
 6449TIP3   OH219231   4.364   8.336   1.834
 6449TIP3    H119232   4.282   8.340   1.883
 6449TIP3    H219233   4.340   8.366   1.746
 6450TIP3   OH219234   4.784   8.363   1.622
 6450TIP3    H119235   4.700   8.366   1.575
 6450TIP3    H219236   4.790   8.447   1.666
 6451TIP3   OH219237   5.037   8.290   1.690
 6451TIP3    H119238   4.947   8.316   1.668
 6451TIP3    H219239   5.090   8.365   1.662
 6452TIP3   OH219240   5.229   8.479   1.629
 6452TIP3    H119241   5.213   8.567   1.594
 6452TIP3    H219242   5.265   8.430   1.555
 6453TIP3   OH219243   4.047   8.128   1.701
 6453TIP3    H119244   4.069   8.103   1.791
 6453TIP3    H219245   4.120   8.095   1.648
 6454TIP3   OH219246   4.252   8.014   1.564
 6454TIP3    H119247   4.261   7.927   1.602
 6454TIP3    H219248   4.339   8.052   1.569
 6455TIP3   OH219249   4.520   8.090   1.594
 6455TIP3    H119250   4.539   7.998   1.573
 6455TIP3    H219251   4.578   8.110   1.668
 6456TIP3   OH219252   5.074   6.747   1.678
 6456TIP3    H119253   5.035   6.675   1.727
 6456TIP3    H219254   5.143   6.706   1.625
 6457TIP3   OH219255   5.562   6.674   1.611
 6457TIP3    H119256   5.599   6.723   1.538
 6457TIP3    H219257   5.467   6.686   1.602
 6458TIP3   OH219258   5.683   6.732   1.373
 6458TIP3    H119259   5.756   6.676   1.346
 6458TIP3    H219260   5.718   6.821   1.366
 6459TIP3   OH219261   4.315   6.449   1.672
 6459TIP3    H119262   4.227   6.413   1.680
 6459TIP3    H219263   4.372   6.373   1.665
 6460TIP3   OH219264   4.107   6.337   1.317
 6460TIP3    H119265   4.150   6.385   1.246
 6460TIP3    H219266   4.078   6.405   1.378
 6461TIP3   OH219267   4.792   6.487   1.580
 6461TIP3    H119268   4.841   6.533   1.512
 6461TIP3    H219269   4.834   6.514   1.662
 6462TIP3   OH219270   5.285   6.628   1.548
 6462TIP3    H119271   5.307   6.599   1.460
 6462TIP3    H219272   5.292   6.549   1.602
 6463TIP3   OH219273   5.352   6.561   1.149
 6463TIP3    H119274   5.273   6.610   1.169
 6463TIP3    H219275   5.338   6.475   1.189
 6464TIP3   OH219276   3.799   7.905   1.083
 6464TIP3    H119277   3.711   7.879   1.055
 6464TIP3    H219278   3.801   8.000   1.073
 6465TIP3   OH219279   4.243   6.476   1.117
 6465TIP3    H119280   4.290   6.428   1.049
 6465TIP3    H219281   4.310   6.528   1.161
 6466TIP3   OH219282   4.735   6.668   1.200
 6466TIP3    H119283   4.796   6.632   1.264
 6466TIP3    H219284   4.746   6.763   1.208
 6467TIP3   OH219285   4.558   8.134   0.644
 6467TIP3    H119286   4.635   8.171   0.687
 6467TIP3    H219287   4.590   8.051   0.607
 6468TIP3   OH219288   5.341   8.167   0.890
 6468TIP3    H119289   5.373   8.090   0.936
 6468TIP3    H219290   5.326   8.137   0.800
 6469TIP3   OH219291   4.548   6.744   2.554
 6469TIP3    H119292   4.515   6.676   2.612
 6469TIP3    H219293   4.641   6.752   2.576
 6470TIP3   OH219294   4.796   6.744   2.675
 6470TIP3    H119295   4.872   6.721   2.622
 6470TIP3    H219296   4.791   6.675   2.742
 6471TIP3   OH219297   3.857   7.865   0.803
 6471TIP3    H119298   3.855   7.869   0.899
 6471TIP3    H219299   3.948   7.844   0.782
 6472TIP3   OH219300   5.617   6.832   2.462
 6472TIP3    H119301   5.634   6.803   2.551
 6472TIP3    H219302   5.702   6.827   2.418
 6473TIP3   OH219303   5.534   8.363   1.979
 6473TIP3    H119304   5.457   8.334   1.930
 6473TIP3    H219305   5.522   8.457   1.989
 6474TIP3   OH219306   6.676   7.721   1.273
 6474TIP3    H119307   6.760   7.763   1.254
 6474TIP3    H219308   6.676   7.643   1.217
 6475TIP3   OH219309   6.084   7.579   1.516
 6475TIP3    H119310   6.119   7.526   1.587
 6475TIP3    H219311   6.162   7.609   1.468
 6476TIP3   OH219312   5.913   7.930   1.244
 6476TIP3    H119313   5.943   7.839   1.244
 6476TIP3    H219314   5.990   7.982   1.265
 6477TIP3   OH219315   5.730   7.189   1.045
 6477TIP3    H119316   5.701   7.279   1.059
 6477TIP3    H219317   5.686   7.162   0.964
 6478TIP3   OH219318   5.864   7.527   1.172
 6478TIP3    H119319   5.902   7.451   1.216
 6478TIP3    H219320   5.937   7.587   1.161
 6479TIP3   OH219321   6.629   8.002   1.175
 6479TIP3    H119322   6.661   7.932   1.119
 6479TIP3    H219323   6.704   8.060   1.187
 6480TIP3   OH219324   7.611   7.282   1.251
 6480TIP3    H119325   7.573   7.354   1.302
 6480TIP3    H219326   7.552   7.272   1.176
 6481TIP3   OH219327   6.932   7.456   1.245
 6481TIP3    H119328   6.961   7.371   1.277
 6481TIP3    H219329   6.997   7.481   1.180
 6482TIP3   OH219330   6.333   7.135   1.187
 6482TIP3    H119331   6.346   7.171   1.100
 6482TIP3    H219332   6.288   7.053   1.173
 6483TIP3   OH219333   5.956   7.324   1.330
 6483TIP3    H119334   6.044   7.323   1.369
 6483TIP3    H219335   5.957   7.250   1.268
 6484TIP3   OH219336   6.473   7.647   0.991
 6484TIP3    H119337   6.551   7.701   0.987
 6484TIP3    H219338   6.498   7.566   0.946
 6485TIP3   OH219339   7.733   7.564   1.372
 6485TIP3    H119340   7.640   7.559   1.351
 6485TIP3    H219341   7.743   7.509   1.449
 6486TIP3   OH219342   6.353   7.105   1.600
 6486TIP3    H119343   6.298   7.150   1.535
 6486TIP3    H219344   6.305   7.113   1.682
 6487TIP3   OH219345   6.413   7.880   1.455
 6487TIP3    H119346   6.337   7.930   1.486
 6487TIP3    H219347   6.480   7.946   1.440
 6488TIP3   OH219348   7.221   7.285   0.981
 6488TIP3    H119349   7.165   7.233   1.038
 6488TIP3    H219350   7.298   7.306   1.035
 6489TIP3   OH219351   6.212   7.239   1.405
 6489TIP3    H119352   6.268   7.312   1.433
 6489TIP3    H219353   6.256   7.205   1.328
 6490TIP3   OH219354   6.259   8.105   1.513
 6490TIP3    H119355   6.263   8.199   1.493
 6490TIP3    H219356   6.184   8.097   1.573
 6491TIP3   OH219357   5.763   7.766   0.782
 6491TIP3    H119358   5.734   7.830   0.717
 6491TIP3    H219359   5.756   7.813   0.866
 6492TIP3   OH219360   7.142   8.420   0.856
 6492TIP3    H119361   7.144   8.325   0.867
 6492TIP3    H219362   7.109   8.433   0.767
 6493TIP3   OH219363   7.382   7.167   1.458
 6493TIP3    H119364   7.287   7.167   1.464
 6493TIP3    H219365   7.400   7.177   1.364
 6494TIP3   OH219366   6.697   6.782   1.384
 6494TIP3    H119367   6.678   6.689   1.395
 6494TIP3    H219368   6.618   6.827   1.415
 6495TIP3   OH219369   7.311   8.197   1.317
 6495TIP3    H119370   7.264   8.151   1.247
 6495TIP3    H219371   7.247   8.256   1.355
 6496TIP3   OH219372   7.440   7.826   0.995
 6496TIP3    H119373   7.382   7.897   1.023
 6496TIP3    H219374   7.479   7.857   0.913
 6497TIP3   OH219375   7.195   7.682   1.541
 6497TIP3    H119376   7.206   7.757   1.598
 6497TIP3    H219377   7.110   7.696   1.498
 6498TIP3   OH219378   6.204   7.666   0.972
 6498TIP3    H119379   6.182   7.582   0.932
 6498TIP3    H219380   6.298   7.663   0.985
 6499TIP3   OH219381   6.363   8.118   1.117
 6499TIP3    H119382   6.335   8.128   1.026
 6499TIP3    H219383   6.390   8.027   1.125
 6500TIP3   OH219384   6.298   7.646   1.354
 6500TIP3    H119385   6.342   7.605   1.279
 6500TIP3    H219386   6.345   7.728   1.367
 6501TIP3   OH219387   6.838   8.108   0.953
 6501TIP3    H119388   6.848   8.190   1.001
 6501TIP3    H219389   6.865   8.040   1.015
 6502TIP3   OH219390   6.466   8.191   1.689
 6502TIP3    H119391   6.394   8.244   1.721
 6502TIP3    H219392   6.428   8.140   1.617
 6503TIP3   OH219393   6.247   7.760   1.775
 6503TIP3    H119394   6.245   7.854   1.794
 6503TIP3    H219395   6.155   7.736   1.767
 6504TIP3   OH219396   6.259   8.357   1.749
 6504TIP3    H119397   6.224   8.373   1.661
 6504TIP3    H219398   6.181   8.347   1.804
 6505TIP3   OH219399   6.234   7.447   0.816
 6505TIP3    H119400   6.297   7.482   0.753
 6505TIP3    H219401   6.154   7.436   0.766
 6506TIP3   OH219402   5.874   7.905   1.659
 6506TIP3    H119403   5.803   7.879   1.599
 6506TIP3    H219404   5.911   7.822   1.688
 6507TIP3   OH219405   5.681   8.057   1.338
 6507TIP3    H119406   5.767   8.037   1.300
 6507TIP3    H219407   5.684   8.151   1.357
 6508TIP3   OH219408   7.586   8.563   1.289
 6508TIP3    H119409   7.636   8.482   1.303
 6508TIP3    H219410   7.510   8.555   1.347
 6509TIP3   OH219411   6.668   8.348   1.583
 6509TIP3    H119412   6.658   8.441   1.605
 6509TIP3    H219413   6.601   8.304   1.635
 6510TIP3   OH219414   5.957   8.279   0.818
 6510TIP3    H119415   5.974   8.251   0.908
 6510TIP3    H219416   5.907   8.207   0.780
 6511TIP3   OH219417   7.472   7.686   1.700
 6511TIP3    H119418   7.465   7.677   1.605
 6511TIP3    H219419   7.444   7.601   1.734
 6512TIP3   OH219420   6.037   8.122   1.665
 6512TIP3    H119421   6.084   8.109   1.747
 6512TIP3    H219422   5.976   8.049   1.660
 6513TIP3   OH219423   6.446   6.890   1.450
 6513TIP3    H119424   6.360   6.858   1.422
 6513TIP3    H219425   6.426   6.972   1.496
 6514TIP3   OH219426   7.006   7.011   1.653
 6514TIP3    H119427   7.075   6.983   1.713
 6514TIP3    H219428   6.925   6.999   1.702
 6515TIP3   OH219429   7.184   7.413   1.588
 6515TIP3    H119430   7.216   7.402   1.677
 6515TIP3    H219431   7.186   7.508   1.573
 6516TIP3   OH219432   6.405   7.424   1.483
 6516TIP3    H119433   6.383   7.436   1.576
 6516TIP3    H219434   6.375   7.505   1.441
 6517TIP3   OH219435   6.356   7.235   0.938
 6517TIP3    H119436   6.317   7.321   0.928
 6517TIP3    H219437   6.345   7.193   0.852
 6518TIP3   OH219438   6.941   7.686   1.822
 6518TIP3    H119439   6.914   7.610   1.872
 6518TIP3    H219440   7.035   7.694   1.838
 6519TIP3   OH219441   6.890   7.516   0.846
 6519TIP3    H119442   6.827   7.541   0.778
 6519TIP3    H219443   6.909   7.424   0.829
 6520TIP3   OH219444   6.215   7.421   1.702
 6520TIP3    H119445   6.280   7.469   1.754
 6520TIP3    H219446   6.205   7.337   1.747
 6521TIP3   OH219447   5.789   6.971   1.311
 6521TIP3    H119448   5.866   7.006   1.356
 6521TIP3    H219449   5.819   6.955   1.221
 6522TIP3   OH219450   5.690   6.968   0.659
 6522TIP3    H119451   5.683   7.020   0.579
 6522TIP3    H219452   5.667   7.029   0.729
 6523TIP3   OH219453   6.948   7.671   1.419
 6523TIP3    H119454   6.942   7.607   1.348
 6523TIP3    H219455   6.909   7.626   1.495
 6524TIP3   OH219456   6.585   7.025   1.187
 6524TIP3    H119457   6.499   7.067   1.197
 6524TIP3    H219458   6.646   7.083   1.233
 6525TIP3   OH219459   5.999   7.127   1.149
 6525TIP3    H119460   5.921   7.087   1.112
 6525TIP3    H219461   6.060   7.054   1.159
 6526TIP3   OH219462   6.286   7.148   0.689
 6526TIP3    H119463   6.339   7.070   0.670
 6526TIP3    H219464   6.234   7.162   0.611
 6527TIP3   OH219465   7.055   7.174   1.196
 6527TIP3    H119466   7.079   7.154   1.286
 6527TIP3    H219467   6.961   7.157   1.192
 6528TIP3   OH219468   7.244   8.865   1.432
 6528TIP3    H119469   7.204   8.835   1.351
 6528TIP3    H219470   7.323   8.911   1.404
 6529TIP3   OH219471   6.229   8.027   1.868
 6529TIP3    H119472   6.312   8.051   1.909
 6529TIP3    H219473   6.166   8.025   1.940
 6530TIP3   OH219474   6.683   7.481   1.139
 6530TIP3    H119475   6.690   7.421   1.065
 6530TIP3    H219476   6.769   7.477   1.181
 6531TIP3   OH219477   6.175   6.917   1.140
 6531TIP3    H119478   6.154   6.825   1.154
 6531TIP3    H219479   6.153   6.932   1.048
 6532TIP3   OH219480   6.680   7.369   1.459
 6532TIP3    H119481   6.594   7.411   1.466
 6532TIP3    H219482   6.739   7.428   1.507
 6533TIP3   OH219483   7.275   8.011   1.107
 6533TIP3    H119484   7.226   8.061   1.041
 6533TIP3    H219485   7.214   7.944   1.138
 6534TIP3   OH219486   6.792   8.013   1.577
 6534TIP3    H119487   6.788   8.022   1.672
 6534TIP3    H219488   6.708   8.049   1.546
 6535TIP3   OH219489   6.068   7.708   1.200
 6535TIP3    H119490   6.112   7.702   1.116
 6535TIP3    H219491   6.136   7.689   1.264
 6536TIP3   OH219492   5.972   7.689   1.801
 6536TIP3    H119493   5.987   7.663   1.892
 6536TIP3    H219494   5.910   7.624   1.767
 6537TIP3   OH219495   6.702   7.815   1.778
 6537TIP3    H119496   6.679   7.780   1.691
 6537TIP3    H219497   6.785   7.772   1.799
 6538TIP3   OH219498   6.907   8.292   1.477
 6538TIP3    H119499   6.817   8.292   1.510
 6538TIP3    H219500   6.956   8.346   1.539
 6539TIP3   OH219501   7.563   8.164   1.398
 6539TIP3    H119502   7.469   8.183   1.390
 6539TIP3    H219503   7.606   8.246   1.373
 6540TIP3   OH219504   7.051   7.896   0.882
 6540TIP3    H119505   6.997   7.850   0.946
 6540TIP3    H219506   7.068   7.831   0.813
 6541TIP3   OH219507   6.236   8.171   0.884
 6541TIP3    H119508   6.264   8.191   0.794
 6541TIP3    H219509   6.215   8.078   0.882
 6542TIP3   OH219510   5.842   7.323   0.487
 6542TIP3    H119511   5.862   7.376   0.411
 6542TIP3    H219512   5.759   7.357   0.520
 6543TIP3   OH219513   6.327   7.699   0.688
 6543TIP3    H119514   6.251   7.715   0.632
 6543TIP3    H219515   6.297   7.721   0.776
 6544TIP3   OH219516   6.465   8.554   1.445
 6544TIP3    H119517   6.483   8.528   1.355
 6544TIP3    H219518   6.551   8.576   1.481
 6545TIP3   OH219519   6.914   7.953   1.166
 6545TIP3    H119520   6.936   7.998   1.247
 6545TIP3    H219521   6.971   7.875   1.165
 6546TIP3   OH219522   7.138   8.675   1.241
 6546TIP3    H119523   7.065   8.622   1.272
 6546TIP3    H219524   7.108   8.711   1.157
 6547TIP3   OH219525   6.188   7.164   1.815
 6547TIP3    H119526   6.093   7.170   1.824
 6547TIP3    H219527   6.215   7.114   1.892
 6548TIP3   OH219528   5.927   8.302   1.465
 6548TIP3    H119529   5.959   8.237   1.529
 6548TIP3    H219530   5.926   8.384   1.513
 6549TIP3   OH219531   5.795   7.612   0.566
 6549TIP3    H119532   5.795   7.669   0.642
 6549TIP3    H219533   5.847   7.658   0.501
 6550TIP3   OH219534   7.107   7.182   1.468
 6550TIP3    H119535   7.117   7.261   1.522
 6550TIP3    H219536   7.065   7.119   1.526
 6551TIP3   OH219537   6.621   7.171   0.675
 6551TIP3    H119538   6.706   7.216   0.667
 6551TIP3    H219539   6.629   7.117   0.753
 6552TIP3   OH219540   6.863   7.503   1.623
 6552TIP3    H119541   6.875   7.574   1.686
 6552TIP3    H219542   6.902   7.427   1.666
 6553TIP3   OH219543   6.180   6.887   0.597
 6553TIP3    H119544   6.165   6.974   0.561
 6553TIP3    H219545   6.274   6.882   0.612
 6554TIP3   OH219546   7.497   7.352   1.621
 6554TIP3    H119547   7.448   7.368   1.702
 6554TIP3    H219548   7.452   7.278   1.580
 6555TIP3   OH219549   7.093   7.667   0.744
 6555TIP3    H119550   7.025   7.607   0.774
 6555TIP3    H219551   7.174   7.629   0.778
 6556TIP3   OH219552   5.882   7.028   0.397
 6556TIP3    H119553   5.819   7.095   0.424
 6556TIP3    H219554   5.831   6.947   0.394
 6557TIP3   OH219555   6.180   6.807   1.432
 6557TIP3    H119556   6.156   6.767   1.349
 6557TIP3    H219557   6.181   6.734   1.494
 6558TIP3   OH219558   5.695   7.965   0.945
 6558TIP3    H119559   5.733   8.019   1.015
 6558TIP3    H219560   5.672   8.028   0.876
 6559TIP3   OH219561   5.936   8.610   1.875
 6559TIP3    H119562   6.013   8.615   1.932
 6559TIP3    H219563   5.926   8.516   1.857
 6560TIP3   OH219564   6.377   8.468   1.977
 6560TIP3    H119565   6.470   8.490   1.972
 6560TIP3    H219566   6.355   8.436   1.890
 6561TIP3   OH219567   7.009   8.467   1.667
 6561TIP3    H119568   7.000   8.386   1.718
 6561TIP3    H219569   7.072   8.520   1.716
 6562TIP3   OH219570   6.025   7.997   2.053
 6562TIP3    H119571   6.047   7.905   2.064
 6562TIP3    H219572   5.938   7.997   2.015
 6563TIP3   OH219573   6.666   8.079   1.831
 6563TIP3    H119574   6.594   8.103   1.772
 6563TIP3    H219575   6.673   7.983   1.823
 6564TIP3   OH219576   7.198   8.169   1.630
 6564TIP3    H119577   7.192   8.238   1.564
 6564TIP3    H219578   7.120   8.179   1.684
 6565TIP3   OH219579   6.143   7.743   2.055
 6565TIP3    H119580   6.218   7.729   1.998
 6565TIP3    H219581   6.182   7.765   2.140
 6566TIP3   OH219582   6.449   7.579   1.723
 6566TIP3    H119583   6.388   7.650   1.747
 6566TIP3    H219584   6.515   7.622   1.669
 6567TIP3   OH219585   7.012   7.970   1.813
 6567TIP3    H119586   7.095   7.928   1.788
 6567TIP3    H219587   6.961   7.900   1.853
 6568TIP3   OH219588   6.578   7.374   1.854
 6568TIP3    H119589   6.600   7.303   1.795
 6568TIP3    H219590   6.546   7.444   1.797
 6569TIP3   OH219591   6.614   7.179   1.651
 6569TIP3    H119592   6.643   7.232   1.577
 6569TIP3    H219593   6.524   7.156   1.630
 6570TIP3   OH219594   6.607   7.708   1.539
 6570TIP3    H119595   6.657   7.703   1.458
 6570TIP3    H219596   6.534   7.767   1.518
 6571TIP3   OH219597   7.206   7.705   1.871
 6571TIP3    H119598   7.238   7.616   1.885
 6571TIP3    H219599   7.276   7.749   1.822
 6572TIP3   OH219600   7.278   7.917   1.693
 6572TIP3    H119601   7.247   8.000   1.657
 6572TIP3    H219602   7.368   7.909   1.661
 6573TIP3   OH219603   6.478   7.493   2.080
 6573TIP3    H119604   6.410   7.431   2.107
 6573TIP3    H219605   6.507   7.462   1.995
 6574TIP3   OH219606   6.742   6.947   1.726
 6574TIP3    H119607   6.701   7.030   1.702
 6574TIP3    H219608   6.674   6.881   1.712
 6575TIP3   OH219609   6.853   7.457   1.930
 6575TIP3    H119610   6.904   7.441   2.009
 6575TIP3    H219611   6.770   7.413   1.945
 6576TIP3   OH219612   6.323   7.265   2.140
 6576TIP3    H119613   6.335   7.181   2.096
 6576TIP3    H219614   6.365   7.254   2.225
 6577TIP3   OH219615   6.802   6.931   1.993
 6577TIP3    H119616   6.878   6.872   1.994
 6577TIP3    H219617   6.777   6.937   1.901
 6578TIP3   OH219618   6.886   7.142   2.149
 6578TIP3    H119619   6.861   7.072   2.089
 6578TIP3    H219620   6.814   7.205   2.146
 6579TIP3   OH219621   5.491   8.391   0.897
 6579TIP3    H119622   5.442   8.310   0.914
 6579TIP3    H219623   5.521   8.419   0.983
 6580TIP3   OH219624   5.738   8.204   1.073
 6580TIP3    H119625   5.652   8.198   1.116
 6580TIP3    H219626   5.784   8.273   1.121
 6581TIP3   OH219627   7.442   8.689   1.097
 6581TIP3    H119628   7.425   8.627   1.026
 6581TIP3    H219629   7.480   8.636   1.167
 6582TIP3   OH219630   7.422   8.336   1.693
 6582TIP3    H119631   7.340   8.290   1.709
 6582TIP3    H219632   7.428   8.401   1.763
 6583TIP3   OH219633   7.236   8.450   1.113
 6583TIP3    H119634   7.214   8.537   1.145
 6583TIP3    H219635   7.211   8.450   1.021
 6584TIP3   OH219636   5.837   7.639   1.424
 6584TIP3    H119637   5.832   7.603   1.335
 6584TIP3    H219638   5.927   7.624   1.452
 6585TIP3   OH219639   7.543   7.971   1.592
 6585TIP3    H119640   7.548   7.884   1.553
 6585TIP3    H219641   7.561   8.031   1.520
 6586TIP3   OH219642   7.453   7.417   1.062
 6586TIP3    H119643   7.515   7.454   0.998
 6586TIP3    H219644   7.429   7.491   1.117
 6587TIP3   OH219645   7.374   7.647   1.185
 6587TIP3    H119646   7.414   7.660   1.271
 6587TIP3    H219647   7.398   7.726   1.136
 6588TIP3   OH219648   6.062   7.321   2.069
 6588TIP3    H119649   6.155   7.319   2.090
 6588TIP3    H219650   6.028   7.240   2.107
 6589TIP3   OH219651   7.925   7.218   1.873
 6589TIP3    H119652   7.965   7.137   1.841
 6589TIP3    H219653   7.877   7.253   1.797
 6590TIP3   OH219654   6.020   7.033   1.454
 6590TIP3    H119655   6.077   6.956   1.452
 6590TIP3    H219656   6.079   7.107   1.443
 6591TIP3   OH219657   5.789   7.311   1.542
 6591TIP3    H119658   5.845   7.315   1.465
 6591TIP3    H219659   5.799   7.397   1.584
 6592TIP3   OH219660   7.760   7.291   1.670
 6592TIP3    H119661   7.685   7.345   1.696
 6592TIP3    H219662   7.721   7.211   1.635
 6593TIP3   OH219663   5.845   6.901   1.047
 6593TIP3    H119664   5.766   6.849   1.033
 6593TIP3    H219665   5.888   6.903   0.962
 6594TIP3   OH219666   6.033   6.854   1.805
 6594TIP3    H119667   5.986   6.853   1.889
 6594TIP3    H219668   5.978   6.906   1.747
 6595TIP3   OH219669   6.043   8.332   1.914
 6595TIP3    H119670   5.952   8.307   1.899
 6595TIP3    H219671   6.057   8.315   2.007
 6596TIP3   OH219672   6.258   8.373   1.462
 6596TIP3    H119673   6.187   8.420   1.418
 6596TIP3    H219674   6.325   8.439   1.477
 6597TIP3   OH219675   6.694   8.638   1.567
 6597TIP3    H119676   6.762   8.644   1.634
 6597TIP3    H219677   6.733   8.680   1.490
 6598TIP3   OH219678   7.669   7.042   1.613
 6598TIP3    H119679   7.578   7.017   1.598
 6598TIP3    H219680   7.718   6.962   1.597
 6599TIP3   OH219681   5.921   8.569   1.550
 6599TIP3    H119682   5.834   8.592   1.519
 6599TIP3    H219683   5.949   8.644   1.602
 6600TIP3   OH219684   6.094   8.555   1.338
 6600TIP3    H119685   6.035   8.566   1.412
 6600TIP3    H219686   6.062   8.617   1.273
 6601TIP3   OH219687   6.612   8.630   1.050
 6601TIP3    H119688   6.535   8.663   1.003
 6601TIP3    H219689   6.635   8.700   1.111
 6602TIP3   OH219690   6.880   8.648   1.051
 6602TIP3    H119691   6.789   8.638   1.023
 6602TIP3    H219692   6.876   8.649   1.146
 6603TIP3   OH219693   7.188   8.687   0.927
 6603TIP3    H119694   7.115   8.728   0.880
 6603TIP3    H219695   7.187   8.596   0.896
 6604TIP3   OH219696   5.853   8.415   1.222
 6604TIP3    H119697   5.874   8.373   1.306
 6604TIP3    H219698   5.928   8.397   1.166
 6605TIP3   OH219699   6.018   8.225   1.086
 6605TIP3    H119700   6.034   8.175   1.166
 6605TIP3    H219701   6.095   8.281   1.076
 6606TIP3   OH219702   6.233   8.374   1.094
 6606TIP3    H119703   6.304   8.313   1.076
 6606TIP3    H219704   6.275   8.446   1.141
 6607TIP3   OH219705   7.362   6.979   0.962
 6607TIP3    H119706   7.435   6.972   0.900
 6607TIP3    H219707   7.327   6.890   0.967
 6608TIP3   OH219708   7.524   7.001   0.731
 6608TIP3    H119709   7.598   6.964   0.779
 6608TIP3    H219710   7.527   7.095   0.750
 6609TIP3   OH219711   6.106   6.663   1.204
 6609TIP3    H119712   6.017   6.632   1.219
 6609TIP3    H219713   6.160   6.584   1.210
 6610TIP3   OH219714   5.901   6.594   0.879
 6610TIP3    H119715   5.982   6.634   0.848
 6610TIP3    H219716   5.841   6.668   0.889
 6611TIP3   OH219717   6.491   6.743   1.182
 6611TIP3    H119718   6.470   6.802   1.110
 6611TIP3    H219719   6.531   6.798   1.248
 6612TIP3   OH219720   5.947   6.760   0.540
 6612TIP3    H119721   5.977   6.682   0.493
 6612TIP3    H219722   6.026   6.810   0.558
 6613TIP3   OH219723   6.441   6.923   0.687
 6613TIP3    H119724   6.462   6.927   0.781
 6613TIP3    H219725   6.514   6.970   0.645
 6614TIP3   OH219726   6.333   6.997   2.033
 6614TIP3    H119727   6.301   6.933   2.095
 6614TIP3    H219728   6.426   7.006   2.053
 6615TIP3   OH219729   6.579   6.991   2.154
 6615TIP3    H119730   6.660   6.972   2.106
 6615TIP3    H219731   6.577   6.925   2.224
 6616TIP3   OH219732   7.401   7.008   1.950
 6616TIP3    H119733   7.404   7.006   2.046
 6616TIP3    H219734   7.481   7.053   1.925
 6617TIP3   OH219735   7.344   8.598   1.408
 6617TIP3    H119736   7.282   8.628   1.341
 6617TIP3    H219737   7.336   8.663   1.478
 6618TIP3   OH219738   8.130   7.306   1.110
 6618TIP3    H119739   8.113   7.312   1.016
 6618TIP3    H219740   8.043   7.299   1.150
 6619TIP3   OH219741   8.075   8.019   1.234
 6619TIP3    H119742   8.054   8.093   1.291
 6619TIP3    H219743   8.021   8.033   1.156
 6620TIP3   OH219744   7.789   8.137   1.176
 6620TIP3    H119745   7.726   8.126   1.105
 6620TIP3    H219746   7.801   8.049   1.212
 6621TIP3   OH219747   8.015   8.281   1.082
 6621TIP3    H119748   8.011   8.367   1.123
 6621TIP3    H219749   7.934   8.238   1.110
 6622TIP3   OH219750   8.906   7.314   1.081
 6622TIP3    H119751   8.952   7.278   1.158
 6622TIP3    H219752   8.855   7.240   1.048
 6623TIP3   OH219753   7.988   7.742   1.110
 6623TIP3    H119754   8.081   7.757   1.094
 6623TIP3    H219755   7.984   7.652   1.144
 6624TIP3   OH219756   8.036   8.232   1.411
 6624TIP3    H119757   8.103   8.205   1.475
 6624TIP3    H219758   7.954   8.228   1.460
 6625TIP3   OH219759   7.812   7.878   1.269
 6625TIP3    H119760   7.876   7.830   1.215
 6625TIP3    H219761   7.728   7.838   1.248
 6626TIP3   OH219762   7.985   7.524   1.282
 6626TIP3    H119763   7.896   7.550   1.304
 6626TIP3    H219764   7.991   7.432   1.307
 6627TIP3   OH219765   7.854   7.083   0.837
 6627TIP3    H119766   7.903   7.069   0.756
 6627TIP3    H219767   7.878   7.008   0.892
 6628TIP3   OH219768   7.664   8.829   1.335
 6628TIP3    H119769   7.756   8.854   1.341
 6628TIP3    H219770   7.663   8.752   1.279
 6629TIP3   OH219771   7.825   8.188   1.582
 6629TIP3    H119772   7.866   8.167   1.666
 6629TIP3    H219773   7.755   8.250   1.604
 6630TIP3   OH219774   8.221   7.870   1.053
 6630TIP3    H119775   8.189   7.924   1.125
 6630TIP3    H219776   8.237   7.932   0.981
 6631TIP3   OH219777   8.460   7.580   1.323
 6631TIP3    H119778   8.439   7.492   1.355
 6631TIP3    H219779   8.375   7.622   1.308
 6632TIP3   OH219780   8.539   7.428   1.086
 6632TIP3    H119781   8.589   7.505   1.111
 6632TIP3    H219782   8.448   7.458   1.087
 6633TIP3   OH219783   8.364   7.800   1.552
 6633TIP3    H119784   8.392   7.725   1.605
 6633TIP3    H219785   8.438   7.817   1.494
 6634TIP3   OH219786   8.587   7.238   1.285
 6634TIP3    H119787   8.551   7.284   1.209
 6634TIP3    H219788   8.600   7.148   1.255
 6635TIP3   OH219789   8.593   7.810   1.407
 6635TIP3    H119790   8.683   7.791   1.435
 6635TIP3    H219791   8.565   7.732   1.360
 6636TIP3   OH219792   8.104   7.559   1.790
 6636TIP3    H119793   8.128   7.510   1.711
 6636TIP3    H219794   8.162   7.524   1.858
 6637TIP3   OH219795   8.680   7.220   1.547
 6637TIP3    H119796   8.738   7.152   1.512
 6637TIP3    H219797   8.641   7.260   1.469
 6638TIP3   OH219798   8.628   7.375   1.771
 6638TIP3    H119799   8.633   7.315   1.696
 6638TIP3    H219800   8.570   7.445   1.742
 6639TIP3   OH219801   7.770   7.341   0.752
 6639TIP3    H119802   7.805   7.268   0.803
 6639TIP3    H219803   7.778   7.313   0.661
 6640TIP3   OH219804   7.595   7.535   0.850
 6640TIP3    H119805   7.656   7.468   0.820
 6640TIP3    H219806   7.640   7.618   0.834
 6641TIP3   OH219807   7.777   7.113   1.373
 6641TIP3    H119808   7.743   7.088   1.459
 6641TIP3    H219809   7.715   7.177   1.340
 6642TIP3   OH219810   7.901   8.593   1.420
 6642TIP3    H119811   7.843   8.522   1.391
 6642TIP3    H219812   7.869   8.615   1.508
 6643TIP3   OH219813   8.107   7.179   1.611
 6643TIP3    H119814   8.078   7.113   1.673
 6643TIP3    H219815   8.181   7.222   1.654
 6644TIP3   OH219816   8.337   7.230   1.761
 6644TIP3    H119817   8.374   7.172   1.694
 6644TIP3    H219818   8.317   7.171   1.834
 6645TIP3   OH219819   9.269   7.260   1.440
 6645TIP3    H119820   9.277   7.175   1.482
 6645TIP3    H219821   9.252   7.321   1.512
 6646TIP3   OH219822   0.356   8.020   3.524
 6646TIP3    H119823   0.418   7.961   3.480
 6646TIP3    H219824   0.301   8.054   3.453
 6647TIP3   OH219825   0.187   8.109   3.325
 6647TIP3    H119826   0.103   8.135   3.363
 6647TIP3    H219827   0.167   8.031   3.274
 6648TIP3   OH219828   0.123   7.876   3.189
 6648TIP3    H119829   0.032   7.844   3.183
 6648TIP3    H219830   0.176   7.798   3.179
 6649TIP3   OH219831   1.900   8.316   2.331
 6649TIP3    H119832   1.928   8.395   2.378
 6649TIP3    H219833   1.928   8.330   2.241
 6650TIP3   OH219834   1.297   8.488   2.340
 6650TIP3    H119835   1.333   8.407   2.378
 6650TIP3    H219836   1.235   8.458   2.274
 6651TIP3   OH219837   1.303   8.214   1.979
 6651TIP3    H119838   1.362   8.187   2.050
 6651TIP3    H219839   1.348   8.289   1.939
 6652TIP3   OH219840   1.996   8.522   2.494
 6652TIP3    H119841   1.943   8.596   2.463
 6652TIP3    H219842   2.028   8.550   2.580
 6653TIP3   OH219843   0.601   8.151   2.733
 6653TIP3    H119844   0.543   8.171   2.659
 6653TIP3    H219845   0.546   8.164   2.811
 6654TIP3   OH219846   1.488   8.212   2.181
 6654TIP3    H119847   1.450   8.213   2.269
 6654TIP3    H219848   1.546   8.288   2.179
 6655TIP3   OH219849   0.503   8.241   2.481
 6655TIP3    H119850   0.553   8.319   2.504
 6655TIP3    H219851   0.506   8.237   2.385
 6656TIP3   OH219852   1.707   8.188   2.495
 6656TIP3    H119853   1.626   8.236   2.482
 6656TIP3    H219854   1.768   8.224   2.431
 6657TIP3   OH219855   0.963   7.853   2.503
 6657TIP3    H119856   0.955   7.760   2.523
 6657TIP3    H219857   0.883   7.892   2.538
 6658TIP3   OH219858   1.588   8.847   2.540
 6658TIP3    H119859   1.560   8.934   2.568
 6658TIP3    H219860   1.546   8.835   2.455
 6659TIP3   OH219861   1.573   7.810   1.539
 6659TIP3    H119862   1.506   7.835   1.602
 6659TIP3    H219863   1.595   7.891   1.493
 6660TIP3   OH219864   1.725   8.702   2.751
 6660TIP3    H119865   1.685   8.741   2.673
 6660TIP3    H219866   1.744   8.611   2.726
 6661TIP3   OH219867   0.715   7.931   2.608
 6661TIP3    H119868   0.635   7.894   2.571
 6661TIP3    H219869   0.687   8.015   2.646
 6662TIP3   OH219870   1.242   8.066   2.819
 6662TIP3    H119871   1.315   8.041   2.876
 6662TIP3    H219872   1.164   8.037   2.867
 6663TIP3   OH219873   1.504   8.384   2.768
 6663TIP3    H119874   1.475   8.404   2.858
 6663TIP3    H219875   1.485   8.464   2.719
 6664TIP3   OH219876   0.614   8.483   2.585
 6664TIP3    H119877   0.555   8.468   2.659
 6664TIP3    H219878   0.567   8.547   2.530
 6665TIP3   OH219879   1.204   8.657   2.900
 6665TIP3    H119880   1.194   8.578   2.953
 6665TIP3    H219881   1.298   8.677   2.905
 6666TIP3   OH219882   1.135   8.385   2.149
 6666TIP3    H119883   1.091   8.451   2.095
 6666TIP3    H219884   1.175   8.325   2.087
 6667TIP3   OH219885   0.469   8.454   2.824
 6667TIP3    H119886   0.388   8.499   2.848
 6667TIP3    H219887   0.467   8.372   2.873
 6668TIP3   OH219888   1.235   8.715   2.477
 6668TIP3    H119889   1.261   8.651   2.411
 6668TIP3    H219890   1.196   8.663   2.547
 6669TIP3   OH219891   0.935   8.121   2.187
 6669TIP3    H119892   0.897   8.208   2.203
 6669TIP3    H219893   1.000   8.110   2.257
 6670TIP3   OH219894   1.351   8.228   2.423
 6670TIP3    H119895   1.326   8.248   2.513
 6670TIP3    H219896   1.285   8.165   2.393
 6671TIP3   OH219897   0.903   8.376   2.311
 6671TIP3    H119898   0.991   8.386   2.276
 6671TIP3    H219899   0.915   8.371   2.406
 6672TIP3   OH219900   0.883   8.386   2.587
 6672TIP3    H119901   0.796   8.426   2.584
 6672TIP3    H219902   0.939   8.453   2.626
 6673TIP3   OH219903   1.027   8.821   3.045
 6673TIP3    H119904   0.943   8.816   3.000
 6673TIP3    H219905   1.086   8.769   2.991
 6674TIP3   OH219906   0.466   8.216   2.968
 6674TIP3    H119907   0.387   8.162   2.972
 6674TIP3    H219908   0.515   8.192   3.046
 6675TIP3   OH219909   1.263   8.296   2.675
 6675TIP3    H119910   1.350   8.317   2.709
 6675TIP3    H219911   1.238   8.216   2.721
 6676TIP3   OH219912   1.178   8.129   1.750
 6676TIP3    H119913   1.231   8.145   1.672
 6676TIP3    H219914   1.230   8.163   1.822
 6677TIP3   OH219915   1.120   8.536   2.665
 6677TIP3    H119916   1.144   8.570   2.751
 6677TIP3    H219917   1.164   8.451   2.660
 6678TIP3   OH219918   1.088   7.964   2.018
 6678TIP3    H119919   1.032   8.015   2.077
 6678TIP3    H219920   1.148   8.029   1.980
 6679TIP3   OH219921   1.767   8.425   2.716
 6679TIP3    H119922   1.685   8.391   2.751
 6679TIP3    H219923   1.755   8.423   2.621
 6680TIP3   OH219924   1.394   8.488   2.015
 6680TIP3    H119925   1.389   8.464   2.107
 6680TIP3    H219926   1.467   8.549   2.009
 6681TIP3   OH219927   0.463   7.827   2.552
 6681TIP3    H119928   0.446   7.780   2.471
 6681TIP3    H219929   0.446   7.763   2.621
 6682TIP3   OH219930   0.505   8.762   3.216
 6682TIP3    H119931   0.530   8.672   3.194
 6682TIP3    H219932   0.424   8.753   3.266
 6683TIP3   OH219933   0.723   8.558   2.842
 6683TIP3    H119934   0.635   8.522   2.852
 6683TIP3    H219935   0.730   8.579   2.749
 6684TIP3   OH219936   0.863   8.373   3.000
 6684TIP3    H119937   0.861   8.299   2.939
 6684TIP3    H219938   0.814   8.443   2.955
 6685TIP3   OH219939   0.861   8.196   2.786
 6685TIP3    H119940   0.886   8.248   2.710
 6685TIP3    H219941   0.769   8.177   2.773
 6686TIP3   OH219942   1.460   8.666   3.159
 6686TIP3    H119943   1.428   8.589   3.112
 6686TIP3    H219944   1.545   8.684   3.120
 6687TIP3   OH219945   0.623   8.522   3.188
 6687TIP3    H119946   0.608   8.432   3.217
 6687TIP3    H219947   0.718   8.530   3.182
 6688TIP3   OH219948   0.990   7.983   2.897
 6688TIP3    H119949   0.949   8.061   2.859
 6688TIP3    H219950   0.926   7.913   2.883
 6689TIP3   OH219951   1.129   8.424   3.037
 6689TIP3    H119952   1.125   8.470   3.121
 6689TIP3    H219953   1.039   8.394   3.022
 6690TIP3   OH219954   1.400   8.443   3.011
 6690TIP3    H119955   1.315   8.404   3.028
 6690TIP3    H219956   1.461   8.392   3.065
 6691TIP3   OH219957   1.618   8.355   3.154
 6691TIP3    H119958   1.631   8.260   3.151
 6691TIP3    H219959   1.611   8.375   3.247
 6692TIP3   OH219960   0.583   8.272   3.296
 6692TIP3    H119961   0.586   8.183   3.259
 6692TIP3    H219962   0.623   8.263   3.382
 6693TIP3   OH219963   1.055   7.961   3.161
 6693TIP3    H119964   1.125   7.898   3.152
 6693TIP3    H219965   1.023   7.974   3.072
 6694TIP3   OH219966   1.156   8.171   3.304
 6694TIP3    H119967   1.130   8.096   3.250
 6694TIP3    H219968   1.080   8.228   3.305
 6695TIP3   OH219969   1.536   8.567   1.739
 6695TIP3    H119970   1.495   8.482   1.751
 6695TIP3    H219971   1.539   8.605   1.827
 6696TIP3   OH219972   1.914   8.937   2.655
 6696TIP3    H119973   1.898   9.031   2.641
 6696TIP3    H219974   1.999   8.921   2.614
 6697TIP3   OH219975   1.433   8.310   1.703
 6697TIP3    H119976   1.493   8.236   1.711
 6697TIP3    H219977   1.433   8.330   1.609
 6698TIP3   OH219978   1.630   8.446   2.210
 6698TIP3    H119979   1.711   8.471   2.166
 6698TIP3    H219980   1.654   8.446   2.303
 6699TIP3   OH219981   1.659   8.506   2.477
 6699TIP3    H119982   1.578   8.538   2.517
 6699TIP3    H219983   1.710   8.585   2.460
 6700TIP3   OH219984   0.321   8.355   3.298
 6700TIP3    H119985   0.410   8.327   3.278
 6700TIP3    H219986   0.269   8.275   3.296
 6701TIP3   OH219987   2.156   8.260   3.001
 6701TIP3    H119988   2.221   8.198   2.970
 6701TIP3    H219989   2.119   8.299   2.921
 6702TIP3   OH219990   1.586   8.079   1.762
 6702TIP3    H119991   1.624   8.072   1.849
 6702TIP3    H219992   1.520   8.010   1.758
 6703TIP3   OH219993   0.333   8.068   2.626
 6703TIP3    H119994   0.371   7.985   2.599
 6703TIP3    H219995   0.367   8.132   2.563
 6704TIP3   OH219996   2.013   8.342   2.785
 6704TIP3    H119997   1.926   8.381   2.776
 6704TIP3    H219998   2.004   8.256   2.743
 6705TIP3   OH219999   1.656   8.017   1.372
 6705TIP3    H120000   1.707   7.957   1.318
 6705TIP3    H220001   1.717   8.088   1.393
 6706TIP3   OH220002   0.270   8.030   3.000
 6706TIP3    H120003   0.213   7.997   3.069
 6706TIP3    H220004   0.268   7.962   2.933
 6707TIP3   OH220005   1.919   8.103   2.694
 6707TIP3    H120006   1.834   8.102   2.650
 6707TIP3    H220007   1.950   8.012   2.687
 6708TIP3   OH220008   1.137   8.049   2.363
 6708TIP3    H120009   1.089   7.980   2.409
 6708TIP3    H220010   1.202   8.003   2.310
 6709TIP3   OH220011   1.631   7.950   2.205
 6709TIP3    H120012   1.674   8.006   2.140
 6709TIP3    H220013   1.545   7.988   2.217
 6710TIP3   OH220014   1.751   8.059   1.984
 6710TIP3    H120015   1.821   7.998   1.958
 6710TIP3    H220016   1.787   8.146   1.964
 6711TIP3   OH220017   0.811   7.762   2.277
 6711TIP3    H120018   0.785   7.826   2.210
 6711TIP3    H220019   0.873   7.810   2.332
 6712TIP3   OH220020   1.334   7.925   2.221
 6712TIP3    H120021   1.321   7.890   2.133
 6712TIP3    H220022   1.349   7.848   2.276
 6713TIP3   OH220023   1.396   7.876   1.740
 6713TIP3    H120024   1.304   7.885   1.715
 6713TIP3    H220025   1.398   7.799   1.796
 6714TIP3   OH220026   0.597   8.014   3.202
 6714TIP3    H120027   0.558   7.956   3.267
 6714TIP3    H220028   0.690   8.019   3.227
 6715TIP3   OH220029   0.840   8.021   3.330
 6715TIP3    H120030   0.919   7.999   3.280
 6715TIP3    H220031   0.834   7.952   3.396
 6716TIP3   OH220032   1.669   8.088   3.122
 6716TIP3    H120033   1.689   8.061   3.212
 6716TIP3    H220034   1.754   8.092   3.079
 6717TIP3   OH220035   1.823   8.438   1.611
 6717TIP3    H120036   1.773   8.511   1.574
 6717TIP3    H220037   1.789   8.428   1.700
 6718TIP3   OH220038   3.714   8.570   1.791
 6718TIP3    H120039   3.721   8.658   1.829
 6718TIP3    H220040   3.747   8.580   1.702
 6719TIP3   OH220041   3.095   8.729   1.856
 6719TIP3    H120042   3.136   8.647   1.882
 6719TIP3    H220043   3.052   8.709   1.773
 6720TIP3   OH220044   2.400   8.406   1.800
 6720TIP3    H120045   2.389   8.481   1.742
 6720TIP3    H220046   2.350   8.336   1.759
 6721TIP3   OH220047   3.107   8.499   1.436
 6721TIP3    H120048   3.166   8.489   1.511
 6721TIP3    H220049   3.161   8.539   1.368
 6722TIP3   OH220050   2.045   8.594   1.927
 6722TIP3    H120051   2.133   8.578   1.962
 6722TIP3    H220052   2.049   8.565   1.836
 6723TIP3   OH220053   2.482   8.780   1.779
 6723TIP3    H120054   2.574   8.764   1.761
 6723TIP3    H220055   2.435   8.730   1.712
 6724TIP3   OH220056   3.743   8.783   1.975
 6724TIP3    H120057   3.670   8.835   1.944
 6724TIP3    H220058   3.717   8.753   2.062
 6725TIP3   OH220059   2.417   8.398   2.247
 6725TIP3    H120060   2.363   8.443   2.182
 6725TIP3    H220061   2.368   8.404   2.329
 6726TIP3   OH220062   3.271   8.523   1.651
 6726TIP3    H120063   3.257   8.485   1.738
 6726TIP3    H220064   3.331   8.596   1.666
 6727TIP3   OH220065   2.289   8.507   2.027
 6727TIP3    H120066   2.349   8.580   2.040
 6727TIP3    H220067   2.326   8.459   1.953
 6728TIP3   OH220068   3.550   8.493   2.004
 6728TIP3    H120069   3.457   8.475   1.987
 6728TIP3    H220070   3.587   8.511   1.918
 6729TIP3   OH220071   2.716   8.092   1.950
 6729TIP3    H120072   2.729   8.007   1.993
 6729TIP3    H220073   2.645   8.133   2.000
 6730TIP3   OH220074   2.646   8.724   0.988
 6730TIP3    H120075   2.730   8.693   1.021
 6730TIP3    H220076   2.635   8.679   0.904
 6731TIP3   OH220077   3.315   9.040   2.070
 6731TIP3    H120078   3.282   9.128   2.050
 6731TIP3    H220079   3.237   8.986   2.071
 6732TIP3   OH220080   3.382   8.068   1.072
 6732TIP3    H120081   3.304   8.089   1.124
 6732TIP3    H220082   3.393   8.143   1.015
 6733TIP3   OH220083   3.527   8.983   2.240
 6733TIP3    H120084   3.456   8.997   2.177
 6733TIP3    H220085   3.545   8.889   2.235
 6734TIP3   OH220086   2.497   8.181   2.098
 6734TIP3    H120087   2.410   8.155   2.067
 6734TIP3    H220088   2.483   8.265   2.141
 6735TIP3   OH220089   3.051   8.373   2.352
 6735TIP3    H120090   3.126   8.322   2.382
 6735TIP3    H220091   2.978   8.310   2.354
 6736TIP3   OH220092   3.284   8.758   2.222
 6736TIP3    H120093   3.262   8.735   2.312
 6736TIP3    H220094   3.221   8.708   2.169
 6737TIP3   OH220095   2.642   8.247   1.063
 6737TIP3    H120096   2.628   8.252   1.158
 6737TIP3    H220097   2.613   8.158   1.040
 6738TIP3   OH220098   2.474   8.707   2.036
 6738TIP3    H120099   2.463   8.789   2.085
 6738TIP3    H220100   2.476   8.734   1.944
 6739TIP3   OH220101   2.326   8.606   1.626
 6739TIP3    H120102   2.234   8.589   1.646
 6739TIP3    H220103   2.340   8.566   1.540
 6740TIP3   OH220104   2.823   8.696   1.352
 6740TIP3    H120105   2.789   8.780   1.323
 6740TIP3    H220106   2.881   8.668   1.281
 6741TIP3   OH220107   3.030   8.923   2.407
 6741TIP3    H120108   3.017   8.844   2.460
 6741TIP3    H220109   3.125   8.936   2.406
 6742TIP3   OH220110   2.969   8.682   1.600
 6742TIP3    H120111   2.908   8.703   1.529
 6742TIP3    H220112   3.018   8.606   1.568
 6743TIP3   OH220113   2.278   8.677   2.372
 6743TIP3    H120114   2.224   8.730   2.431
 6743TIP3    H220115   2.274   8.589   2.408
 6744TIP3   OH220116   2.309   8.213   1.019
 6744TIP3    H120117   2.319   8.220   1.114
 6744TIP3    H220118   2.215   8.229   1.004
 6745TIP3   OH220119   1.877   8.284   1.889
 6745TIP3    H120120   1.943   8.311   1.953
 6745TIP3    H220121   1.927   8.238   1.822
 6746TIP3   OH220122   1.827   8.229   1.434
 6746TIP3    H120123   1.858   8.264   1.350
 6746TIP3    H220124   1.822   8.305   1.491
 6747TIP3   OH220125   3.061   8.932   2.041
 6747TIP3    H120126   3.079   8.876   1.965
 6747TIP3    H220127   2.997   8.883   2.092
 6748TIP3   OH220128   2.654   8.420   1.669
 6748TIP3    H120129   2.585   8.411   1.736
 6748TIP3    H220130   2.730   8.379   1.709
 6749TIP3   OH220131   2.088   8.475   1.680
 6749TIP3    H120132   2.000   8.462   1.644
 6749TIP3    H220133   2.130   8.389   1.671
 6750TIP3   OH220134   2.349   8.472   1.387
 6750TIP3    H120135   2.441   8.495   1.374
 6750TIP3    H220136   2.305   8.504   1.309
 6751TIP3   OH220137   2.193   8.510   1.160
 6751TIP3    H120138   2.154   8.436   1.113
 6751TIP3    H220139   2.257   8.546   1.099
 6752TIP3   OH220140   2.749   8.715   1.783
 6752TIP3    H120141   2.827   8.700   1.729
 6752TIP3    H220142   2.765   8.663   1.862
 6753TIP3   OH220143   2.226   8.230   1.670
 6753TIP3    H120144   2.198   8.154   1.721
 6753TIP3    H220145   2.271   8.194   1.595
 6754TIP3   OH220146   2.731   8.612   2.056
 6754TIP3    H120147   2.642   8.646   2.050
 6754TIP3    H220148   2.781   8.681   2.100
 6755TIP3   OH220149   2.896   8.359   1.066
 6755TIP3    H120150   2.803   8.339   1.064
 6755TIP3    H220151   2.900   8.454   1.072
 6756TIP3   OH220152   2.977   8.629   1.122
 6756TIP3    H120153   3.060   8.604   1.162
 6756TIP3    H220154   3.002   8.676   1.042
 6757TIP3   OH220155   2.843   9.087   2.534
 6757TIP3    H120156   2.776   9.088   2.466
 6757TIP3    H220157   2.918   9.043   2.494
 6758TIP3   OH220158   3.379   8.699   0.999
 6758TIP3    H120159   3.328   8.677   0.921
 6758TIP3    H220160   3.394   8.793   0.992
 6759TIP3   OH220161   2.263   8.422   2.477
 6759TIP3    H120162   2.168   8.419   2.480
 6759TIP3    H220163   2.291   8.360   2.545
 6760TIP3   OH220164   3.075   8.577   2.167
 6760TIP3    H120165   3.117   8.531   2.094
 6760TIP3    H220166   3.063   8.509   2.234
 6761TIP3   OH220167   2.968   8.287   1.327
 6761TIP3    H120168   2.946   8.319   1.239
 6761TIP3    H220169   3.009   8.363   1.370
 6762TIP3   OH220170   2.626   8.506   1.413
 6762TIP3    H120171   2.695   8.571   1.396
 6762TIP3    H220172   2.636   8.484   1.505
 6763TIP3   OH220173   2.896   8.783   2.204
 6763TIP3    H120174   2.928   8.827   2.283
 6763TIP3    H220175   2.953   8.707   2.194
 6764TIP3   OH220176   2.814   8.166   1.519
 6764TIP3    H120177   2.843   8.204   1.602
 6764TIP3    H220178   2.873   8.204   1.453
 6765TIP3   OH220179   2.331   8.208   1.302
 6765TIP3    H120180   2.319   8.295   1.340
 6765TIP3    H220181   2.424   8.189   1.316
 6766TIP3   OH220182   3.547   8.704   2.182
 6766TIP3    H120183   3.455   8.721   2.201
 6766TIP3    H220184   3.546   8.629   2.122
 6767TIP3   OH220185   3.214   8.842   1.541
 6767TIP3    H120186   3.132   8.807   1.576
 6767TIP3    H220187   3.280   8.813   1.604
 6768TIP3   OH220188   2.233   8.104   2.060
 6768TIP3    H120189   2.208   8.072   1.973
 6768TIP3    H220190   2.230   8.026   2.116
 6769TIP3   OH220191   2.336   9.020   2.696
 6769TIP3    H120192   2.369   8.931   2.708
 6769TIP3    H220193   2.268   9.029   2.763
 6770TIP3   OH220194   2.494   8.832   2.320
 6770TIP3    H120195   2.429   8.765   2.340
 6770TIP3    H220196   2.450   8.891   2.258
 6771TIP3   OH220197   2.387   8.611   0.995
 6771TIP3    H120198   2.389   8.589   0.902
 6771TIP3    H220199   2.469   8.657   1.011
 6772TIP3   OH220200   2.671   8.647   2.472
 6772TIP3    H120201   2.680   8.571   2.414
 6772TIP3    H220202   2.625   8.712   2.419
 6773TIP3   OH220203   2.686   8.447   2.275
 6773TIP3    H120204   2.716   8.489   2.195
 6773TIP3    H220205   2.593   8.431   2.261
 6774TIP3   OH220206   3.260   8.886   2.625
 6774TIP3    H120207   3.261   8.806   2.573
 6774TIP3    H220208   3.291   8.954   2.564
 6775TIP3   OH220209   2.442   8.771   2.697
 6775TIP3    H120210   2.429   8.678   2.715
 6775TIP3    H220211   2.534   8.778   2.671
 6776TIP3   OH220212   2.803   8.213   2.360
 6776TIP3    H120213   2.774   8.297   2.327
 6776TIP3    H220214   2.726   8.156   2.354
 6777TIP3   OH220215   2.939   8.692   2.536
 6777TIP3    H120216   2.936   8.728   2.625
 6777TIP3    H220217   2.848   8.671   2.516
 6778TIP3   OH220218   3.205   8.671   2.467
 6778TIP3    H120219   3.114   8.643   2.482
 6778TIP3    H220220   3.258   8.602   2.507
 6779TIP3   OH220221   3.444   8.633   2.635
 6779TIP3    H120222   3.448   8.537   2.633
 6779TIP3    H220223   3.427   8.654   2.727
 6780TIP3   OH220224   2.361   8.524   2.795
 6780TIP3    H120225   2.370   8.443   2.746
 6780TIP3    H220226   2.415   8.511   2.873
 6781TIP3   OH220227   2.847   8.222   2.633
 6781TIP3    H120228   2.923   8.164   2.630
 6781TIP3    H220229   2.820   8.231   2.542
 6782TIP3   OH220230   2.938   8.427   2.792
 6782TIP3    H120231   2.914   8.358   2.730
 6782TIP3    H220232   2.864   8.487   2.791
 6783TIP3   OH220233   3.232   8.616   0.788
 6783TIP3    H120234   3.182   8.642   0.710
 6783TIP3    H220235   3.227   8.521   0.790
 6784TIP3   OH220236   3.345   8.831   1.296
 6784TIP3    H120237   3.306   8.745   1.281
 6784TIP3    H220238   3.307   8.860   1.379
 6785TIP3   OH220239   3.773   9.109   2.279
 6785TIP3    H120240   3.685   9.082   2.252
 6785TIP3    H220241   3.827   9.032   2.265
 6786TIP3   OH220242   3.187   8.346   0.767
 6786TIP3    H120243   3.262   8.305   0.811
 6786TIP3    H220244   3.114   8.286   0.782
 6787TIP3   OH220245   3.243   8.578   1.204
 6787TIP3    H120246   3.290   8.496   1.221
 6787TIP3    H220247   3.291   8.618   1.131
 6788TIP3   OH220248   3.421   8.752   1.706
 6788TIP3    H120249   3.504   8.771   1.663
 6788TIP3    H220250   3.431   8.786   1.795
 6789TIP3   OH220251   3.511   8.922   1.917
 6789TIP3    H120252   3.439   8.945   1.975
 6789TIP3    H220253   3.528   9.003   1.868
 6790TIP3   OH220254   2.099   8.594   2.743
 6790TIP3    H120255   2.194   8.586   2.734
 6790TIP3    H220256   2.070   8.508   2.772
 6791TIP3   OH220257   3.941   8.526   2.477
 6791TIP3    H120258   4.008   8.466   2.445
 6791TIP3    H220259   3.910   8.572   2.399
 6792TIP3   OH220260   3.373   8.344   1.261
 6792TIP3    H120261   3.417   8.332   1.346
 6792TIP3    H220262   3.311   8.271   1.256
 6793TIP3   OH220263   2.071   8.325   2.090
 6793TIP3    H120264   2.127   8.246   2.089
 6793TIP3    H220265   2.133   8.397   2.078
 6794TIP3   OH220266   1.866   8.563   2.133
 6794TIP3    H120267   1.923   8.551   2.057
 6794TIP3    H220268   1.867   8.658   2.150
 6795TIP3   OH220269   3.803   8.635   2.265
 6795TIP3    H120270   3.716   8.674   2.274
 6795TIP3    H220271   3.786   8.547   2.230
 6796TIP3   OH220272   3.427   8.266   0.886
 6796TIP3    H120273   3.477   8.208   0.828
 6796TIP3    H220274   3.482   8.344   0.895
 6797TIP3   OH220275   1.854   8.079   1.661
 6797TIP3    H120276   1.765   8.074   1.697
 6797TIP3    H220277   1.845   8.136   1.585
 6798TIP3   OH220278   2.078   8.154   2.466
 6798TIP3    H120279   2.024   8.139   2.543
 6798TIP3    H220280   2.021   8.201   2.405
 6799TIP3   OH220281   3.722   8.381   2.190
 6799TIP3    H120282   3.645   8.394   2.135
 6799TIP3    H220283   3.745   8.289   2.177
 6800TIP3   OH220284   2.863   8.272   1.772
 6800TIP3    H120285   2.843   8.217   1.848
 6800TIP3    H220286   2.958   8.279   1.772
 6801TIP3   OH220287   3.416   8.204   1.700
 6801TIP3    H120288   3.457   8.259   1.632
 6801TIP3    H220289   3.349   8.261   1.739
 6802TIP3   OH220290   3.539   8.305   1.477
 6802TIP3    H120291   3.609   8.246   1.451
 6802TIP3    H220292   3.575   8.392   1.465
 6803TIP3   OH220293   2.155   8.004   1.814
 6803TIP3    H120294   2.067   7.969   1.824
 6803TIP3    H220295   2.211   7.927   1.808
 6804TIP3   OH220296   1.980   7.906   1.477
 6804TIP3    H120297   2.008   7.965   1.407
 6804TIP3    H220298   1.943   7.964   1.544
 6805TIP3   OH220299   2.618   8.054   1.692
 6805TIP3    H120300   2.675   8.101   1.630
 6805TIP3    H220301   2.653   8.076   1.778
 6806TIP3   OH220302   3.113   8.190   1.630
 6806TIP3    H120303   3.181   8.157   1.572
 6806TIP3    H220304   3.116   8.132   1.706
 6807TIP3   OH220305   3.187   8.140   1.251
 6807TIP3    H120306   3.108   8.189   1.276
 6807TIP3    H220307   3.174   8.053   1.289
 6808TIP3   OH220308   2.096   8.062   1.261
 6808TIP3    H120309   2.118   7.991   1.200
 6808TIP3    H220310   2.181   8.099   1.286
 6809TIP3   OH220311   2.607   8.242   1.337
 6809TIP3    H120312   2.667   8.197   1.398
 6809TIP3    H220313   2.612   8.334   1.363
 6810TIP3   OH220314   2.380   8.264   2.688
 6810TIP3    H120315   2.348   8.203   2.755
 6810TIP3    H220316   2.473   8.275   2.708
 6811TIP3   OH220317   2.627   8.277   2.806
 6811TIP3    H120318   2.707   8.261   2.755
 6811TIP3    H220319   2.629   8.212   2.875
 6812TIP3   OH220320   3.463   8.358   2.612
 6812TIP3    H120321   3.483   8.332   2.702
 6812TIP3    H220322   3.548   8.360   2.568
 6813TIP3   OH220323   3.611   8.782   1.162
 6813TIP3    H120324   3.578   8.836   1.233
 6813TIP3    H220325   3.535   8.731   1.134
 6814TIP3   OH220326   5.457   8.861   1.423
 6814TIP3    H120327   5.505   8.932   1.465
 6814TIP3    H220328   5.397   8.904   1.362
 6815TIP3   OH220329   4.777   9.015   1.358
 6815TIP3    H120330   4.780   8.926   1.392
 6815TIP3    H220331   4.858   9.023   1.306
 6816TIP3   OH220332   4.137   8.688   1.323
 6816TIP3    H120333   4.173   8.743   1.254
 6816TIP3    H220334   4.104   8.611   1.277
 6817TIP3   OH220335   4.841   8.831   0.984
 6817TIP3    H120336   4.892   8.760   1.021
 6817TIP3    H220337   4.895   8.867   0.914
 6818TIP3   OH220338   3.838   8.874   1.418
 6818TIP3    H120339   3.923   8.861   1.461
 6818TIP3    H220340   3.851   8.841   1.329
 6819TIP3   OH220341   4.212   9.088   1.327
 6819TIP3    H120342   4.307   9.090   1.321
 6819TIP3    H220343   4.184   9.044   1.246
 6820TIP3   OH220344   5.568   9.105   1.493
 6820TIP3    H120345   5.478   9.135   1.487
 6820TIP3    H220346   5.602   9.144   1.573
 6821TIP3   OH220347   4.196   8.662   1.750
 6821TIP3    H120348   4.149   8.708   1.680
 6821TIP3    H220349   4.141   8.673   1.828
 6822TIP3   OH220350   5.156   8.744   1.235
 6822TIP3    H120351   5.125   8.725   1.147
 6822TIP3    H220352   5.216   8.817   1.224
 6823TIP3   OH220353   4.076   8.805   1.552
 6823TIP3    H120354   4.138   8.877   1.563
 6823TIP3    H220355   4.104   8.761   1.471
 6824TIP3   OH220356   5.236   8.713   1.496
 6824TIP3    H120357   5.180   8.726   1.420
 6824TIP3    H220358   5.322   8.746   1.469
 6825TIP3   OH220359   4.537   8.346   1.491
 6825TIP3    H120360   4.527   8.255   1.520
 6825TIP3    H220361   4.459   8.390   1.524
 6826TIP3   OH220362   8.347   0.025   1.593
 6826TIP3    H120363   8.358   0.120   1.599
 6826TIP3    H220364   8.258   0.013   1.561
 6827TIP3   OH220365   5.255   8.387   0.522
 6827TIP3    H120366   5.184   8.372   0.461
 6827TIP3    H220367   5.280   8.478   0.510
 6828TIP3   OH220368   5.304   9.222   1.769
 6828TIP3    H120369   5.234   9.226   1.704
 6828TIP3    H220370   5.331   9.130   1.768
 6829TIP3   OH220371   4.305   8.455   1.593
 6829TIP3    H120372   4.219   8.423   1.563
 6829TIP3    H220373   4.285   8.537   1.638
 6830TIP3   OH220374   4.849   8.573   1.793
 6830TIP3    H120375   4.921   8.549   1.852
 6830TIP3    H220376   4.770   8.548   1.841
 6831TIP3   OH220377   5.072   8.999   1.710
 6831TIP3    H120378   5.041   9.004   1.801
 6831TIP3    H220379   5.058   9.087   1.675
 6832TIP3   OH220380   4.654   8.474   0.507
 6832TIP3    H120381   4.560   8.455   0.510
 6832TIP3    H220382   4.690   8.407   0.449
 6833TIP3   OH220383   4.234   9.037   1.595
 6833TIP3    H120384   4.157   9.057   1.648
 6833TIP3    H220385   4.214   9.071   1.508
 6834TIP3   OH220386   4.132   8.883   1.111
 6834TIP3    H120387   4.044   8.870   1.149
 6834TIP3    H220388   4.127   8.843   1.025
 6835TIP3   OH220389   4.578   8.941   0.827
 6835TIP3    H120390   4.506   8.900   0.779
 6835TIP3    H220391   4.654   8.931   0.769
 6836TIP3   OH220392   4.779   9.200   1.921
 6836TIP3    H120393   4.772   9.127   1.983
 6836TIP3    H220394   4.861   9.243   1.944
 6837TIP3   OH220395   4.689   9.022   1.097
 6837TIP3    H120396   4.750   8.957   1.061
 6837TIP3    H220397   4.715   9.031   1.189
 6838TIP3   OH220398   4.077   9.006   1.842
 6838TIP3    H120399   3.987   9.036   1.854
 6838TIP3    H220400   4.076   8.916   1.874
 6839TIP3   OH220401   4.124   8.567   0.532
 6839TIP3    H120402   4.093   8.656   0.549
 6839TIP3    H220403   4.048   8.521   0.495
 6840TIP3   OH220404   3.667   8.529   1.401
 6840TIP3    H120405   3.742   8.564   1.448
 6840TIP3    H220406   3.702   8.505   1.315
 6841TIP3   OH220407   3.562   8.509   0.926
 6841TIP3    H120408   3.609   8.561   0.861
 6841TIP3    H220409   3.495   8.568   0.961
 6842TIP3   OH220410   4.819   9.227   1.518
 6842TIP3    H120411   4.809   9.148   1.464
 6842TIP3    H220412   4.761   9.212   1.593
 6843TIP3   OH220413   4.488   8.752   1.271
 6843TIP3    H120414   4.427   8.682   1.249
 6843TIP3    H220415   4.563   8.707   1.311
 6844TIP3   OH220416   3.886   8.760   1.167
 6844TIP3    H120417   3.792   8.766   1.150
 6844TIP3    H220418   3.907   8.668   1.155
 6845TIP3   OH220419   4.109   8.736   0.878
 6845TIP3    H120420   4.144   8.647   0.888
 6845TIP3    H220421   4.028   8.723   0.829
 6846TIP3   OH220422   4.866   8.765   1.414
 6846TIP3    H120423   4.860   8.764   1.509
 6846TIP3    H220424   4.882   8.674   1.389
 6847TIP3   OH220425   4.040   8.827   0.567
 6847TIP3    H120426   4.040   8.899   0.630
 6847TIP3    H220427   4.078   8.865   0.488
 6848TIP3   OH220428   4.485   9.060   1.339
 6848TIP3    H120429   4.574   9.096   1.335
 6848TIP3    H220430   4.496   8.977   1.385
 6849TIP3   OH220431   4.020   8.484   1.169
 6849TIP3    H120432   3.989   8.427   1.239
 6849TIP3    H220433   4.032   8.426   1.094
 6850TIP3   OH220434   4.482   8.910   1.588
 6850TIP3    H120435   4.401   8.961   1.586
 6850TIP3    H220436   4.548   8.971   1.620
 6851TIP3   OH220437   7.793   0.027   2.026
 6851TIP3    H120438   7.722  -0.012   1.974
 6851TIP3    H220439   7.872   0.012   1.974
 6852TIP3   OH220440   4.022   8.747   1.950
 6852TIP3    H120441   3.927   8.759   1.955
 6852TIP3    H220442   4.044   8.700   2.030
 6853TIP3   OH220443   4.849   8.828   1.686
 6853TIP3    H120444   4.937   8.864   1.696
 6853TIP3    H220445   4.852   8.744   1.732
 6854TIP3   OH220446   4.593   8.701   0.678
 6854TIP3    H120447   4.593   8.638   0.606
 6854TIP3    H220448   4.685   8.711   0.701
 6855TIP3   OH220449   4.445   8.683   0.914
 6855TIP3    H120450   4.502   8.710   0.842
 6855TIP3    H220451   4.442   8.759   0.972
 6856TIP3   OH220452   4.685   9.055   1.704
 6856TIP3    H120453   4.715   9.102   1.782
 6856TIP3    H220454   4.739   8.976   1.702
 6857TIP3   OH220455   4.605   8.509   1.073
 6857TIP3    H120456   4.622   8.521   1.166
 6857TIP3    H220457   4.521   8.554   1.059
 6858TIP3   OH220458   3.999   8.423   0.779
 6858TIP3    H120459   3.965   8.511   0.764
 6858TIP3    H220460   4.080   8.436   0.828
 6859TIP3   OH220461   5.339   8.935   1.698
 6859TIP3    H120462   5.244   8.948   1.709
 6859TIP3    H220463   5.346   8.874   1.625
 6860TIP3   OH220464   8.193   0.059   1.062
 6860TIP3    H120465   8.164  -0.011   1.003
 6860TIP3    H220466   8.259   0.107   1.011
 6861TIP3   OH220467   3.623   8.728   0.759
 6861TIP3    H120468   3.638   8.819   0.786
 6861TIP3    H220469   3.570   8.735   0.680
 6862TIP3   OH220470   4.045   8.371   1.563
 6862TIP3    H120471   4.011   8.339   1.479
 6862TIP3    H220472   4.037   8.296   1.622
 6863TIP3   OH220473   7.307   0.013   2.225
 6863TIP3    H120474   7.317  -0.036   2.143
 6863TIP3    H220475   7.213   0.024   2.235
 6864TIP3   OH220476   4.335   9.124   1.856
 6864TIP3    H120477   4.245   9.092   1.868
 6864TIP3    H220478   4.344   9.135   1.762
 6865TIP3   OH220479   4.473   8.925   1.984
 6865TIP3    H120480   4.474   8.848   1.927
 6865TIP3    H220481   4.435   8.994   1.930
 6866TIP3   OH220482   4.459   8.727   1.788
 6866TIP3    H120483   4.480   8.779   1.711
 6866TIP3    H220484   4.366   8.704   1.777
 6867TIP3   OH220485   5.060   9.244   2.019
 6867TIP3    H120486   5.047   9.150   2.006
 6867TIP3    H220487   5.148   9.261   1.984
 6868TIP3   OH220488   4.331   9.029   2.208
 6868TIP3    H120489   4.268   8.960   2.228
 6868TIP3    H220490   4.369   9.004   2.124
 6869TIP3   OH220491   4.589   8.500   1.866
 6869TIP3    H120492   4.548   8.582   1.838
 6869TIP3    H220493   4.520   8.434   1.856
 6870TIP3   OH220494   4.731   8.978   2.075
 6870TIP3    H120495   4.725   8.976   2.171
 6870TIP3    H220496   4.644   8.953   2.045
 6871TIP3   OH220497   4.989   8.983   1.968
 6871TIP3    H120498   4.907   8.960   2.011
 6871TIP3    H220499   5.057   8.941   2.021
 6872TIP3   OH220500   5.205   8.906   2.116
 6872TIP3    H120501   5.217   8.812   2.124
 6872TIP3    H220502   5.196   8.938   2.206
 6873TIP3   OH220503   4.183   8.805   2.280
 6873TIP3    H120504   4.185   8.719   2.238
 6873TIP3    H220505   4.223   8.791   2.365
 6874TIP3   OH220506   4.645   8.494   2.134
 6874TIP3    H120507   4.717   8.431   2.132
 6874TIP3    H220508   4.617   8.501   2.043
 6875TIP3   OH220509   4.738   8.710   2.277
 6875TIP3    H120510   4.706   8.638   2.222
 6875TIP3    H220511   4.668   8.775   2.275
 6876TIP3   OH220512   5.121   9.077   0.970
 6876TIP3    H120513   5.035   9.084   0.929
 6876TIP3    H220514   5.180   9.123   0.911
 6877TIP3   OH220515   8.795   0.141   1.806
 6877TIP3    H120516   8.713   0.099   1.780
 6877TIP3    H220517   8.863   0.082   1.775
 6878TIP3   OH220518   5.045   8.862   0.776
 6878TIP3    H120519   5.108   8.804   0.733
 6878TIP3    H220520   5.063   8.948   0.739
 6879TIP3   OH220521   5.289   8.983   1.252
 6879TIP3    H120522   5.324   9.035   1.179
 6879TIP3    H220523   5.257   9.048   1.314
 6880TIP3   OH220524   5.307   9.173   1.456
 6880TIP3    H120525   5.222   9.199   1.492
 6880TIP3    H220526   5.328   9.242   1.394
 6881TIP3   OH220527   3.924   8.886   2.255
 6881TIP3    H120528   4.017   8.871   2.266
 6881TIP3    H220529   3.884   8.800   2.264
 6882TIP3   OH220530   5.744   8.771   1.984
 6882TIP3    H120531   5.810   8.719   1.937
 6882TIP3    H220532   5.704   8.826   1.916
 6883TIP3   OH220533   5.151   8.633   0.669
 6883TIP3    H120534   5.244   8.644   0.649
 6883TIP3    H220535   5.147   8.550   0.716
 6884TIP3   OH220536   3.881   8.594   1.566
 6884TIP3    H120537   3.940   8.519   1.572
 6884TIP3    H220538   3.938   8.671   1.568
 6885TIP3   OH220539   3.660   8.865   1.625
 6885TIP3    H120540   3.716   8.842   1.551
 6885TIP3    H220541   3.648   8.959   1.619
 6886TIP3   OH220542   5.597   8.910   1.799
 6886TIP3    H120543   5.502   8.923   1.791
 6886TIP3    H220544   5.621   8.862   1.719
 6887TIP3   OH220545   3.633   8.370   1.153
 6887TIP3    H120546   3.546   8.360   1.192
 6887TIP3    H220547   3.618   8.423   1.074
 6888TIP3   OH220548   3.874   8.405   1.944
 6888TIP3    H120549   3.824   8.407   2.026
 6888TIP3    H220550   3.822   8.457   1.882
 6889TIP3   OH220551   5.485   8.590   1.706
 6889TIP3    H120552   5.396   8.562   1.685
 6889TIP3    H220553   5.538   8.511   1.693
 6890TIP3   OH220554   4.659   8.542   1.337
 6890TIP3    H120555   4.630   8.473   1.397
 6890TIP3    H220556   4.752   8.524   1.323
 6891TIP3   OH220557   5.215   8.468   1.172
 6891TIP3    H120558   5.248   8.522   1.101
 6891TIP3    H220559   5.183   8.531   1.237
 6892TIP3   OH220560   5.340   8.612   0.977
 6892TIP3    H120561   5.423   8.608   0.930
 6892TIP3    H220562   5.323   8.706   0.986
 6893TIP3   OH220563   3.946   8.270   1.330
 6893TIP3    H120564   3.859   8.232   1.341
 6893TIP3    H220565   4.003   8.195   1.313
 6894TIP3   OH220566   3.763   8.170   1.023
 6894TIP3    H120567   3.743   8.207   0.937
 6894TIP3    H220568   3.720   8.228   1.085
 6895TIP3   OH220569   4.421   8.296   1.240
 6895TIP3    H120570   4.485   8.259   1.179
 6895TIP3    H220571   4.471   8.309   1.321
 6896TIP3   OH220572   4.918   8.503   1.263
 6896TIP3    H120573   4.958   8.521   1.178
 6896TIP3    H220574   4.944   8.414   1.283
 6897TIP3   OH220575   4.897   8.427   0.624
 6897TIP3    H120576   4.825   8.459   0.569
 6897TIP3    H220577   4.853   8.375   0.692
 6898TIP3   OH220578   3.752   8.297   0.774
 6898TIP3    H120579   3.780   8.221   0.724
 6898TIP3    H220580   3.834   8.343   0.795
 6899TIP3   OH220581   4.236   8.491   0.903
 6899TIP3    H120582   4.270   8.403   0.921
 6899TIP3    H220583   4.314   8.547   0.907
 6900TIP3   OH220584   4.186   8.540   2.184
 6900TIP3    H120585   4.150   8.478   2.247
 6900TIP3    H220586   4.278   8.546   2.207
 6901TIP3   OH220587   4.432   8.545   2.307
 6901TIP3    H120588   4.510   8.525   2.255
 6901TIP3    H220589   4.429   8.474   2.372
 6902TIP3   OH220590   5.250   8.634   2.107
 6902TIP3    H120591   5.267   8.605   2.196
 6902TIP3    H220592   5.336   8.635   2.065
 6903TIP3   OH220593   8.867   0.039   0.854
 6903TIP3    H120594   8.928  -0.015   0.803
 6903TIP3    H220595   8.782   0.024   0.814
 6904TIP3   OH220596   6.034   8.895   1.374
 6904TIP3    H120597   5.957   8.872   1.322
 6904TIP3    H220598   6.004   8.888   1.465
 6905TIP3   OH220599   5.850   9.131   1.008
 6905TIP3    H120600   5.933   9.085   1.018
 6905TIP3    H220601   5.823   9.113   0.918
 6906TIP3   OH220602   6.381   8.684   0.928
 6906TIP3    H120603   6.346   8.653   0.844
 6906TIP3    H220604   6.366   8.779   0.926
 6907TIP3   OH220605   6.070   8.724   1.119
 6907TIP3    H120606   6.042   8.681   1.038
 6907TIP3    H220607   6.071   8.817   1.097
 6908TIP3   OH220608   0.379   0.186   1.112
 6908TIP3    H120609   0.361   0.116   1.175
 6908TIP3    H220610   0.292   0.215   1.083
 6909TIP3   OH220611   9.308   0.162   1.131
 6909TIP3    H120612   9.299   0.068   1.148
 6909TIP3    H220613   9.246   0.180   1.060
 6910TIP3   OH220614  -0.000   0.275   1.464
 6910TIP3    H120615  -0.041   0.208   1.519
 6910TIP3    H220616   0.094   0.264   1.479
 6911TIP3   OH220617   9.049   0.047   1.266
 6911TIP3    H120618   9.048   0.045   1.362
 6911TIP3    H220619   9.124  -0.007   1.242
 6912TIP3   OH220620   5.555   8.713   0.838
 6912TIP3    H120621   5.565   8.807   0.851
 6912TIP3    H220622   5.592   8.697   0.751
 6913TIP3   OH220623   9.594   0.001   1.110
 6913TIP3    H120624   9.563   0.015   1.021
 6913TIP3    H220625   9.647   0.078   1.129
 6914TIP3   OH220626   9.564   0.225   1.620
 6914TIP3    H120627   9.532   0.290   1.557
 6914TIP3    H220628   9.546   0.141   1.578
 6915TIP3   OH220629   5.816   8.987   1.527
 6915TIP3    H120630   5.730   9.021   1.504
 6915TIP3    H220631   5.798   8.902   1.568
 6916TIP3   OH220632   6.630   9.068   1.165
 6916TIP3    H120633   6.705   9.125   1.149
 6916TIP3    H220634   6.667   8.993   1.211
 6917TIP3   OH220635   9.731   0.227   1.193
 6917TIP3    H120636   9.762   0.247   1.281
 6917TIP3    H220637   9.810   0.208   1.143
 6918TIP3   OH220638   0.676   0.135   1.152
 6918TIP3    H120639   0.708   0.097   1.234
 6918TIP3    H220640   0.668   0.060   1.093
 6919TIP3   OH220641   5.732   8.686   1.046
 6919TIP3    H120642   5.674   8.696   0.971
 6919TIP3    H220643   5.770   8.598   1.036
 6920TIP3   OH220644   9.119   0.221   1.692
 6920TIP3    H120645   9.208   0.256   1.697
 6920TIP3    H220646   9.070   0.287   1.644
 6921TIP3   OH220647   9.238   0.253   1.387
 6921TIP3    H120648   9.218   0.173   1.435
 6921TIP3    H220649   9.258   0.224   1.299
 6922TIP3   OH220650   6.216   9.185   1.545
 6922TIP3    H120651   6.244   9.099   1.514
 6922TIP3    H220652   6.219   9.240   1.467
 6923TIP3   OH220653   6.284   8.985   1.367
 6923TIP3    H120654   6.318   8.986   1.278
 6923TIP3    H220655   6.195   8.952   1.359
 6924TIP3   OH220656   0.269   0.295   1.513
 6924TIP3    H120657   0.279   0.203   1.491
 6924TIP3    H220658   0.353   0.319   1.554
 6925TIP3   OH220659   9.368   0.055   1.766
 6925TIP3    H120660   9.298  -0.006   1.791
 6925TIP3    H220661   9.396   0.025   1.680
 6926TIP3   OH220662   6.281   8.744   1.506
 6926TIP3    H120663   6.290   8.823   1.453
 6926TIP3    H220664   6.336   8.679   1.462
 6927TIP3   OH220665   6.512   9.258   1.619
 6927TIP3    H120666   6.450   9.223   1.684
 6927TIP3    H220667   6.487   9.215   1.537
 6928TIP3   OH220668   6.773   9.256   1.546
 6928TIP3    H120669   6.680   9.260   1.570
 6928TIP3    H220670   6.798   9.166   1.567
 6929TIP3   OH220671   7.029   9.165   1.664
 6929TIP3    H120672   6.964   9.095   1.654
 6929TIP3    H220673   7.008   9.204   1.749
 6930TIP3   OH220674   5.945   9.070   1.797
 6930TIP3    H120675   5.952   8.991   1.744
 6930TIP3    H220676   5.992   9.050   1.878
 6931TIP3   OH220677   6.458   8.718   1.711
 6931TIP3    H120678   6.540   8.687   1.672
 6931TIP3    H220679   6.396   8.720   1.638
 6932TIP3   OH220680   6.534   8.977   1.788
 6932TIP3    H120681   6.510   8.906   1.728
 6932TIP3    H220682   6.457   9.034   1.790
 6933TIP3   OH220683   5.689   9.163   1.739
 6933TIP3    H120684   5.781   9.152   1.763
 6933TIP3    H220685   5.645   9.088   1.779
 6934TIP3   OH220686   7.469   9.013   1.382
 6934TIP3    H120687   7.537   8.946   1.379
 6934TIP3    H220688   7.475   9.057   1.297
 6935TIP3   OH220689   5.630   8.953   0.934
 6935TIP3    H120690   5.721   8.936   0.910
 6935TIP3    H220691   5.636   9.002   1.016
 6936TIP3   OH220692   5.395   9.135   1.055
 6936TIP3    H120693   5.393   9.158   0.962
 6936TIP3    H220694   5.486   9.145   1.080
 6937TIP3   OH220695   5.674   8.749   1.590
 6937TIP3    H120696   5.609   8.693   1.633
 6937TIP3    H220697   5.672   8.721   1.498
 6938TIP3   OH220698   7.281   8.905   1.131
 6938TIP3    H120699   7.195   8.884   1.096
 6938TIP3    H220700   7.333   8.826   1.117
 6939TIP3   OH220701   5.708   8.590   0.640
 6939TIP3    H120702   5.719   8.555   0.729
 6939TIP3    H220703   5.744   8.521   0.583
 6940TIP3   OH220704   5.997   8.805   1.691
 6940TIP3    H120705   5.966   8.746   1.759
 6940TIP3    H220706   6.091   8.814   1.708
 6941TIP3   OH220707   6.234   8.814   1.842
 6941TIP3    H120708   6.317   8.785   1.805
 6941TIP3    H220709   6.212   8.749   1.908
 6942TIP3   OH220710   7.019   8.817   1.606
 6942TIP3    H120711   7.043   8.820   1.698
 6942TIP3    H220712   7.100   8.793   1.561
 6943TIP3   OH220713   1.816   0.237   6.033
 6943TIP3    H120714   1.907   0.206   6.039
 6943TIP3    H220715   1.813   0.313   6.090
 6944TIP3   OH220716   1.417   0.670   6.073
 6944TIP3    H120717   1.452   0.590   6.032
 6944TIP3    H220718   1.417   0.651   6.166
 6945TIP3   OH220719   1.798   0.461   6.201
 6945TIP3    H120720   1.703   0.456   6.209
 6945TIP3    H220721   1.814   0.549   6.166
 6946TIP3   OH220722   1.545   0.484   5.914
 6946TIP3    H120723   1.574   0.400   5.877
 6946TIP3    H220724   1.611   0.547   5.884
 6947TIP3   OH220725   1.673   0.269   5.797
 6947TIP3    H120726   1.675   0.185   5.753
 6947TIP3    H220727   1.723   0.255   5.878
 6948TIP3   OH220728   2.066   0.373   6.586
 6948TIP3    H120729   2.048   0.293   6.536
 6948TIP3    H220730   2.034   0.444   6.530
 6949TIP3   OH220731   2.272   0.019   6.426
 6949TIP3    H120732   2.181   0.047   6.435
 6949TIP3    H220733   2.290   0.025   6.333
 6950TIP3   OH220734   1.901   0.360   5.283
 6950TIP3    H120735   1.913   0.453   5.263
 6950TIP3    H220736   1.988   0.322   5.271
 6951TIP3   OH220737   2.301   0.726   6.643
 6951TIP3    H120738   2.303   0.631   6.641
 6951TIP3    H220739   2.264   0.747   6.729
 6952TIP3   OH220740   1.155   0.648   5.662
 6952TIP3    H120741   1.077   0.592   5.659
 6952TIP3    H220742   1.130   0.720   5.720
 6953TIP3   OH220743   1.332   0.581   5.393
 6953TIP3    H120744   1.404   0.560   5.334
 6953TIP3    H220745   1.367   0.649   5.450
 6954TIP3   OH220746   1.427   0.596   5.683
 6954TIP3    H120747   1.331   0.597   5.683
 6954TIP3    H220748   1.450   0.553   5.766
 6955TIP3   OH220749   2.008   1.058   6.738
 6955TIP3    H120750   2.006   1.059   6.643
 6955TIP3    H220751   2.093   1.097   6.761
 6956TIP3   OH220752   2.027   0.160   6.411
 6956TIP3    H120753   2.068   0.207   6.338
 6956TIP3    H220754   1.946   0.124   6.374
 6957TIP3   OH220755   2.323   0.455   6.647
 6957TIP3    H120756   2.235   0.420   6.662
 6957TIP3    H220757   2.353   0.412   6.567
 6958TIP3   OH220758   1.893   0.400   5.566
 6958TIP3    H120759   1.867   0.331   5.628
 6958TIP3    H220760   1.891   0.357   5.480
 6959TIP3   OH220761   1.435   0.134   5.480
 6959TIP3    H120762   1.524   0.165   5.497
 6959TIP3    H220763   1.412   0.083   5.558
 6960TIP3   OH220764   1.921   0.634   5.242
 6960TIP3    H120765   1.969   0.710   5.211
 6960TIP3    H220766   1.844   0.670   5.285
 6961TIP3   OH220767   1.730   0.014   5.697
 6961TIP3    H120768   1.719  -0.027   5.783
 6961TIP3    H220769   1.823   0.038   5.693
 6962TIP3   OH220770   1.848   0.725   6.141
 6962TIP3    H120771   1.805   0.778   6.075
 6962TIP3    H220772   1.942   0.739   6.126
 6963TIP3   OH220773   1.801   0.660   6.803
 6963TIP3    H120774   1.830   0.569   6.808
 6963TIP3    H220775   1.853   0.705   6.870
 6964TIP3   OH220776   1.438   0.237   5.232
 6964TIP3    H120777   1.443   0.219   5.325
 6964TIP3    H220778   1.488   0.318   5.220
 6965TIP3   OH220779   8.425   9.150   5.175
 6965TIP3    H120780   8.449   9.093   5.102
 6965TIP3    H220781   8.335   9.178   5.157
 6966TIP3   OH220782   2.120   0.774   6.140
 6966TIP3    H120783   2.138   0.799   6.230
 6966TIP3    H220784   2.167   0.839   6.087
 6967TIP3   OH220785   2.137   0.793   6.422
 6967TIP3    H120786   2.088   0.710   6.418
 6967TIP3    H220787   2.203   0.778   6.489
 6968TIP3   OH220788   2.183   0.513   6.979
 6968TIP3    H120789   2.118   0.522   7.048
 6968TIP3    H220790   2.227   0.598   6.976
 6969TIP3   OH220791   1.996   0.075   5.709
 6969TIP3    H120792   2.056   0.124   5.653
 6969TIP3    H220793   2.051   0.006   5.746
 6970TIP3   OH220794   8.676   9.119   5.855
 6970TIP3    H120795   8.648   9.091   5.942
 6970TIP3    H220796   8.762   9.161   5.869
 6971TIP3   OH220797   2.167   0.285   6.214
 6971TIP3    H120798   2.231   0.222   6.181
 6971TIP3    H220799   2.182   0.364   6.162
 6972TIP3   OH220800   1.966   0.569   6.408
 6972TIP3    H120801   1.890   0.626   6.412
 6972TIP3    H220802   1.949   0.512   6.333
 6973TIP3   OH220803   8.674   9.165   5.481
 6973TIP3    H120804   8.714   9.161   5.394
 6973TIP3    H220805   8.598   9.223   5.470
 6974TIP3   OH220806   2.244   0.154   6.784
 6974TIP3    H120807   2.300   0.078   6.774
 6974TIP3    H220808   2.188   0.154   6.706
 6975TIP3   OH220809   8.973   9.200   6.788
 6975TIP3    H120810   8.970   9.118   6.838
 6975TIP3    H220811   9.056   9.240   6.813
 6976TIP3   OH220812   1.717   0.666   5.812
 6976TIP3    H120813   1.759   0.673   5.726
 6976TIP3    H220814   1.730   0.752   5.852
 6977TIP3   OH220815   1.620   0.921   6.742
 6977TIP3    H120816   1.540   0.959   6.705
 6977TIP3    H220817   1.660   0.992   6.791
 6978TIP3   OH220818   1.396   0.694   6.362
 6978TIP3    H120819   1.309   0.661   6.383
 6978TIP3    H220820   1.383   0.787   6.342
 6979TIP3   OH220821   1.635   0.728   6.501
 6979TIP3    H120822   1.553   0.705   6.457
 6979TIP3    H220823   1.678   0.791   6.442
 6980TIP3   OH220824   1.785   0.898   6.347
 6980TIP3    H120825   1.765   0.982   6.306
 6980TIP3    H220826   1.804   0.840   6.273
 6981TIP3   OH220827   1.087   0.482   5.344
 6981TIP3    H120828   1.173   0.524   5.357
 6981TIP3    H220829   1.108   0.396   5.307
 6982TIP3   OH220830   1.835   0.666   5.560
 6982TIP3    H120831   1.850   0.572   5.560
 6982TIP3    H220832   1.771   0.680   5.490
 6983TIP3   OH220833   3.346   0.175   5.473
 6983TIP3    H120834   3.311   0.218   5.551
 6983TIP3    H220835   3.274   0.122   5.440
 6984TIP3   OH220836   3.315   0.167   5.890
 6984TIP3    H120837   3.363   0.152   5.972
 6984TIP3    H220838   3.271   0.084   5.872
 6985TIP3   OH220839   2.613   0.041   6.231
 6985TIP3    H120840   2.646  -0.011   6.304
 6985TIP3    H220841   2.689   0.056   6.175
 6986TIP3   OH220842   3.567   0.473   5.571
 6986TIP3    H120843   3.563   0.404   5.637
 6986TIP3    H220844   3.599   0.550   5.619
 6987TIP3   OH220845   2.609   0.447   5.931
 6987TIP3    H120846   2.589   0.353   5.932
 6987TIP3    H220847   2.705   0.451   5.939
 6988TIP3   OH220848   8.839   8.909   5.762
 6988TIP3    H120849   8.777   8.980   5.780
 6988TIP3    H220850   8.787   8.829   5.768
 6989TIP3   OH220851   8.926   9.208   5.927
 6989TIP3    H120852   8.973   9.130   5.954
 6989TIP3    H220853   8.994   9.271   5.905
 6990TIP3   OH220854   3.192   0.753   5.585
 6990TIP3    H120855   3.255   0.737   5.655
 6990TIP3    H220856   3.140   0.827   5.615
 6991TIP3   OH220857   3.131   0.385   5.899
 6991TIP3    H120858   3.174   0.302   5.882
 6991TIP3    H220859   3.200   0.443   5.931
 6992TIP3   OH220860   0.276   9.116   5.952
 6992TIP3    H120861   0.350   9.059   5.969
 6992TIP3    H220862   0.241   9.086   5.868
 6993TIP3   OH220863   9.051   8.978   6.023
 6993TIP3    H120864   9.134   8.962   6.069
 6993TIP3    H220865   9.053   8.918   5.948
 6994TIP3   OH220866   9.468   9.184   5.845
 6994TIP3    H120867   9.562   9.166   5.846
 6994TIP3    H220868   9.428   9.101   5.822
 6995TIP3   OH220869   0.836   9.069   6.077
 6995TIP3    H120870   0.767   9.136   6.069
 6995TIP3    H220871   0.891   9.099   6.149
 6996TIP3   OH220872   3.094   0.484   5.373
 6996TIP3    H120873   3.100   0.448   5.285
 6996TIP3    H220874   3.039   0.422   5.421
 6997TIP3   OH220875   2.963   0.310   6.110
 6997TIP3    H120876   2.908   0.380   6.147
 6997TIP3    H220877   3.011   0.353   6.039
 6998TIP3   OH220878   9.298   8.905   6.113
 6998TIP3    H120879   9.363   8.961   6.155
 6998TIP3    H220880   9.349   8.852   6.051
 6999TIP3   OH220881   2.805   0.511   6.218
 6999TIP3    H120882   2.791   0.602   6.191
 6999TIP3    H220883   2.729   0.490   6.272
 7000TIP3   OH220884   2.175   0.223   5.541
 7000TIP3    H120885   2.147   0.233   5.450
 7000TIP3    H220886   2.206   0.310   5.567
 7001TIP3   OH220887   3.616   0.718   5.714
 7001TIP3    H120888   3.526   0.712   5.743
 7001TIP3    H220889   3.620   0.801   5.665
 7002TIP3   OH220890   3.307   0.720   5.299
 7002TIP3    H120891   3.375   0.654   5.285
 7002TIP3    H220892   3.345   0.801   5.266
 7003TIP3   OH220893   3.470   0.508   5.313
 7003TIP3    H120894   3.493   0.435   5.256
 7003TIP3    H220895   3.511   0.486   5.397
 7004TIP3   OH220896   3.847   0.610   6.054
 7004TIP3    H120897   3.828   0.536   5.996
 7004TIP3    H220898   3.837   0.687   5.998
 7005TIP3   OH220899   3.165   0.017   5.339
 7005TIP3    H120900   3.081   0.057   5.317
 7005TIP3    H220901   3.208   0.005   5.254
 7006TIP3   OH220902   9.645   9.049   5.046
 7006TIP3    H120903   9.712   9.104   5.086
 7006TIP3    H220904   9.694   8.980   5.001
 7007TIP3   OH220905   4.023   0.278   5.943
 7007TIP3    H120906   3.938   0.321   5.937
 7007TIP3    H220907   4.059   0.285   5.854
 7008TIP3   OH220908   3.514   0.096   5.273
 7008TIP3    H120909   3.461   0.126   5.348
 7008TIP3    H220910   3.595   0.063   5.313
 7009TIP3   OH220911   3.723   0.139   6.233
 7009TIP3    H120912   3.719   0.221   6.283
 7009TIP3    H220913   3.639   0.136   6.186
 7010TIP3   OH220914   2.761   0.086   5.681
 7010TIP3    H120915   2.715   0.024   5.624
 7010TIP3    H220916   2.823   0.032   5.730
 7011TIP3   OH220917   2.879   0.502   5.832
 7011TIP3    H120918   2.847   0.471   5.747
 7011TIP3    H220919   2.964   0.458   5.842
 7012TIP3   OH220920   2.835   0.071   6.068
 7012TIP3    H120921   2.875   0.031   5.990
 7012TIP3    H220922   2.885   0.151   6.083
 7013TIP3   OH220923   3.358   0.708   5.813
 7013TIP3    H120924   3.355   0.790   5.862
 7013TIP3    H220925   3.356   0.639   5.879
 7014TIP3   OH220926   3.002   0.616   6.386
 7014TIP3    H120927   2.941   0.674   6.432
 7014TIP3    H220928   2.946   0.562   6.331
 7015TIP3   OH220929   0.056   9.213   5.112
 7015TIP3    H120930   0.129   9.247   5.164
 7015TIP3    H220931   0.093   9.203   5.024
 7016TIP3   OH220932   2.766   0.176   6.511
 7016TIP3    H120933   2.771   0.263   6.550
 7016TIP3    H220934   2.673   0.154   6.513
 7017TIP3   OH220935   2.799   0.784   6.474
 7017TIP3    H120936   2.774   0.788   6.382
 7017TIP3    H220937   2.718   0.764   6.521
 7018TIP3   OH220938   9.154   9.164   5.501
 7018TIP3    H120939   9.079   9.221   5.486
 7018TIP3    H220940   9.119   9.075   5.495
 7019TIP3   OH220941   3.670   0.571   4.734
 7019TIP3    H120942   3.665   0.663   4.709
 7019TIP3    H220943   3.760   0.545   4.714
 7020TIP3   OH220944   2.394   0.324   6.416
 7020TIP3    H120945   2.326   0.297   6.355
 7020TIP3    H220946   2.433   0.242   6.446
 7021TIP3   OH220947   2.230   0.522   6.083
 7021TIP3    H120948   2.323   0.541   6.095
 7021TIP3    H220949   2.185   0.603   6.108
 7022TIP3   OH220950   4.078   0.956   6.129
 7022TIP3    H120951   4.082   0.862   6.147
 7022TIP3    H220952   4.000   0.986   6.177
 7023TIP3   OH220953   3.188   0.762   6.247
 7023TIP3    H120954   3.182   0.851   6.280
 7023TIP3    H220955   3.122   0.713   6.297
 7024TIP3   OH220956   2.418   0.716   5.588
 7024TIP3    H120957   2.463   0.709   5.672
 7024TIP3    H220958   2.368   0.635   5.579
 7025TIP3   OH220959   3.193   0.792   4.818
 7025TIP3    H120960   3.231   0.710   4.787
 7025TIP3    H220961   3.265   0.836   4.865
 7026TIP3   OH220962   3.943   0.046   6.417
 7026TIP3    H120963   3.890   0.088   6.350
 7026TIP3    H220964   4.013   0.002   6.370
 7027TIP3   OH220965   2.592   0.516   6.396
 7027TIP3    H120966   2.639   0.501   6.477
 7027TIP3    H220967   2.521   0.451   6.397
 7028TIP3   OH220968   0.390   9.126   6.339
 7028TIP3    H120969   0.469   9.077   6.362
 7028TIP3    H220970   0.422   9.210   6.306
 7029TIP3   OH220971   0.158   9.162   4.852
 7029TIP3    H120972   0.097   9.168   4.777
 7029TIP3    H220973   0.230   9.221   4.828
 7030TIP3   OH220974   9.462   9.097   6.231
 7030TIP3    H120975   9.408   9.103   6.310
 7030TIP3    H220976   9.435   9.172   6.178
 7031TIP3   OH220977   9.332   8.963   5.760
 7031TIP3    H120978   9.250   8.920   5.786
 7031TIP3    H220979   9.343   8.939   5.668
 7032TIP3   OH220980   0.014   9.050   5.482
 7032TIP3    H120981  -0.035   9.122   5.443
 7032TIP3    H220982   0.078   9.025   5.415
 7033TIP3   OH220983   3.456   0.108   6.528
 7033TIP3    H120984   3.427   0.051   6.599
 7033TIP3    H220985   3.550   0.118   6.541
 7034TIP3   OH220986   0.183   9.044   5.700
 7034TIP3    H120987   0.118   9.062   5.632
 7034TIP3    H220988   0.225   8.963   5.672
 7035TIP3   OH220989   9.279   9.139   6.434
 7035TIP3    H120990   9.295   9.220   6.484
 7035TIP3    H220991   9.230   9.083   6.495
 7036TIP3   OH220992   3.466   0.082   6.112
 7036TIP3    H120993   3.496   0.012   6.054
 7036TIP3    H220994   3.425   0.036   6.185
 7037TIP3   OH220995   9.092   8.823   5.793
 7037TIP3    H120996   9.008   8.864   5.773
 7037TIP3    H220997   9.086   8.735   5.756
 7038TIP3   OH220998   9.356   8.878   5.501
 7038TIP3    H120999   9.449   8.859   5.486
 7038TIP3    H221000   9.315   8.867   5.416
 7039TIP3   OH221001   9.243   8.855   5.252
 7039TIP3    H121002   9.198   8.796   5.192
 7039TIP3    H221003   9.288   8.917   5.195
 7040TIP3   OH221004   3.801   1.312   6.217
 7040TIP3    H121005   3.798   1.326   6.123
 7040TIP3    H221006   3.881   1.355   6.246
 7041TIP3   OH221007   2.735   0.427   6.637
 7041TIP3    H121008   2.816   0.444   6.685
 7041TIP3    H221009   2.668   0.419   6.704
 7042TIP3   OH221010   9.746   9.145   5.876
 7042TIP3    H121011   9.815   9.091   5.839
 7042TIP3    H221012   9.741   9.118   5.968
 7043TIP3   OH221013   9.728   9.079   6.140
 7043TIP3    H121014   9.641   9.079   6.180
 7043TIP3    H221015   9.787   9.104   6.210
 7044TIP3   OH221016   2.931   0.154   5.289
 7044TIP3    H121017   2.859   0.093   5.271
 7044TIP3    H221018   2.910   0.192   5.374
 7045TIP3   OH221019   3.787   0.408   5.876
 7045TIP3    H121020   3.825   0.457   5.803
 7045TIP3    H221021   3.710   0.365   5.839
 7046TIP3   OH221022   3.316   0.492   6.279
 7046TIP3    H121023   3.364   0.472   6.359
 7046TIP3    H221024   3.273   0.576   6.296
 7047TIP3   OH221025   0.200   8.987   5.294
 7047TIP3    H121026   0.295   8.979   5.303
 7047TIP3    H221027   0.184   8.972   5.201
 7048TIP3   OH221028   2.613   0.160   5.907
 7048TIP3    H121029   2.655   0.143   5.822
 7048TIP3    H221030   2.675   0.126   5.972
 7049TIP3   OH221031   3.017   0.340   5.111
 7049TIP3    H121032   2.935   0.383   5.084
 7049TIP3    H221033   2.988   0.268   5.168
 7050TIP3   OH221034   2.504   0.099   6.544
 7050TIP3    H121035   2.505   0.076   6.637
 7050TIP3    H221036   2.427   0.054   6.509
 7051TIP3   OH221037   3.222   0.252   6.577
 7051TIP3    H121038   3.153   0.191   6.549
 7051TIP3    H221039   3.303   0.213   6.544
 7052TIP3   OH221040   3.458   0.776   6.164
 7052TIP3    H121041   3.363   0.764   6.173
 7052TIP3    H221042   3.486   0.812   6.248
 7053TIP3   OH221043   0.559   9.070   5.071
 7053TIP3    H121044   0.537   9.003   5.006
 7053TIP3    H221045   0.545   9.153   5.026
 7054TIP3   OH221046   4.092   0.673   6.154
 7054TIP3    H121047   3.998   0.662   6.143
 7054TIP3    H221048   4.129   0.652   6.068
 7055TIP3   OH221049   3.570   0.629   4.988
 7055TIP3    H121050   3.546   0.549   5.035
 7055TIP3    H221051   3.601   0.598   4.903
 7056TIP3   OH221052   3.560   0.272   5.770
 7056TIP3    H121053   3.475   0.248   5.808
 7056TIP3    H221054   3.593   0.191   5.731
 7057TIP3   OH221055   2.712   0.495   5.587
 7057TIP3    H121056   2.702   0.574   5.533
 7057TIP3    H221057   2.625   0.481   5.625
 7058TIP3   OH221058   8.958   8.971   5.422
 7058TIP3    H121059   8.912   9.039   5.373
 7058TIP3    H221060   8.905   8.958   5.501
 7059TIP3   OH221061   2.867   0.285   5.518
 7059TIP3    H121062   2.812   0.360   5.538
 7059TIP3    H221063   2.837   0.216   5.577
 7060TIP3   OH221064   3.012   0.831   6.038
 7060TIP3    H121065   3.048   0.907   5.992
 7060TIP3    H221066   3.084   0.800   6.093
 7061TIP3   OH221067   2.651   0.724   5.441
 7061TIP3    H121068   2.564   0.738   5.479
 7061TIP3    H221069   2.691   0.811   5.441
 7062TIP3   OH221070   3.363   0.498   6.006
 7062TIP3    H121071   3.343   0.498   6.100
 7062TIP3    H221072   3.448   0.454   5.999
 7063TIP3   OH221073   3.370   0.365   4.888
 7063TIP3    H121074   3.410   0.347   4.973
 7063TIP3    H221075   3.286   0.319   4.890
 7064TIP3   OH221076   3.610   0.986   6.058
 7064TIP3    H121077   3.544   0.919   6.075
 7064TIP3    H221078   3.576   1.036   5.984
 7065TIP3   OH221079   3.665   0.840   4.691
 7065TIP3    H121080   3.688   0.898   4.618
 7065TIP3    H221081   3.593   0.884   4.735
 7066TIP3   OH221082   3.527   0.317   5.112
 7066TIP3    H121083   3.513   0.237   5.163
 7066TIP3    H221084   3.620   0.316   5.091
 7067TIP3   OH221085   2.440   0.720   6.207
 7067TIP3    H121086   2.491   0.662   6.263
 7067TIP3    H221087   2.451   0.807   6.245
 7068TIP3   OH221088   2.739   0.332   4.906
 7068TIP3    H121089   2.737   0.242   4.874
 7068TIP3    H221090   2.717   0.324   4.999
 7069TIP3   OH221091   2.698   0.351   5.177
 7069TIP3    H121092   2.729   0.331   5.265
 7069TIP3    H221093   2.682   0.446   5.178
 7070TIP3   OH221094   2.410   0.085   5.438
 7070TIP3    H121095   2.330   0.101   5.487
 7070TIP3    H221096   2.402   0.141   5.361
 7071TIP3   OH221097   9.630   8.841   5.507
 7071TIP3    H121098   9.694   8.910   5.490
 7071TIP3    H221099   9.637   8.824   5.601
 7072TIP3   OH221100   0.117   9.168   6.328
 7072TIP3    H121101   0.118   9.232   6.399
 7072TIP3    H221102   0.203   9.126   6.332
 7073TIP3   OH221103   2.651   0.614   5.188
 7073TIP3    H121104   2.654   0.685   5.123
 7073TIP3    H221105   2.651   0.660   5.272
 7074TIP3   OH221106   0.373   9.258   5.679
 7074TIP3    H121107   0.304   9.193   5.692
 7074TIP3    H221108   0.444   9.229   5.736
 7075TIP3   OH221109   2.419   0.257   5.193
 7075TIP3    H121110   2.486   0.325   5.200
 7075TIP3    H221111   2.462   0.186   5.145
 7076TIP3   OH221112   8.801   8.710   5.392
 7076TIP3    H121113   8.745   8.689   5.317
 7076TIP3    H221114   8.754   8.779   5.438
 7077TIP3   OH221115   3.635   0.980   5.615
 7077TIP3    H121116   3.596   1.030   5.543
 7077TIP3    H221117   3.729   0.997   5.608
 7078TIP3   OH221118   2.252   0.491   5.576
 7078TIP3    H121119   2.201   0.530   5.647
 7078TIP3    H221120   2.218   0.532   5.497
 7079TIP3   OH221121   2.443   1.020   6.631
 7079TIP3    H121122   2.523   1.023   6.682
 7079TIP3    H221123   2.427   0.927   6.615
 7080TIP3   OH221124   2.912   0.933   6.679
 7080TIP3    H121125   2.996   0.890   6.693
 7080TIP3    H221126   2.874   0.888   6.603
 7081TIP3   OH221127   2.878   0.535   4.790
 7081TIP3    H121128   2.830   0.465   4.833
 7081TIP3    H221129   2.950   0.490   4.744
 7082TIP3   OH221130   3.530   0.875   6.405
 7082TIP3    H121131   3.531   0.806   6.472
 7082TIP3    H221132   3.600   0.935   6.432
 7083TIP3   OH221133   3.305   0.568   4.712
 7083TIP3    H121134   3.344   0.505   4.772
 7083TIP3    H221135   3.357   0.560   4.632
 7084TIP3   OH221136   2.529   0.428   6.828
 7084TIP3    H121137   2.497   0.364   6.892
 7084TIP3    H221138   2.457   0.437   6.766
 7085TIP3   OH221139   2.571   0.069   5.053
 7085TIP3    H121140   2.627   0.047   5.128
 7085TIP3    H221141   2.631   0.073   4.979
 7086TIP3   OH221142   3.152   0.519   6.596
 7086TIP3    H121143   3.108   0.538   6.513
 7086TIP3    H221144   3.187   0.431   6.585
 7087TIP3   OH221145   3.124   0.242   4.867
 7087TIP3    H121146   3.083   0.263   4.951
 7087TIP3    H221147   3.102   0.150   4.852
 7088TIP3   OH221148   3.624   0.550   6.204
 7088TIP3    H121149   3.703   0.579   6.158
 7088TIP3    H221150   3.561   0.621   6.189
 7089TIP3   OH221151   2.675   0.096   6.814
 7089TIP3    H121152   2.764   0.067   6.793
 7089TIP3    H221153   2.686   0.151   6.892
 7090TIP3   OH221154   9.263   9.216   5.253
 7090TIP3    H121155   9.230   9.186   5.337
 7090TIP3    H221156   9.298   9.137   5.211
 7091TIP3   OH221157   3.025   0.075   6.487
 7091TIP3    H121158   2.937   0.113   6.490
 7091TIP3    H221159   3.056   0.096   6.399
 7092TIP3   OH221160   9.375   9.027   5.085
 7092TIP3    H121161   9.347   9.033   4.993
 7092TIP3    H221162   9.470   9.035   5.081
 7093TIP3   OH221163   3.515   0.434   6.565
 7093TIP3    H121164   3.582   0.394   6.511
 7093TIP3    H221165   3.509   0.377   6.642
 7094TIP3   OH221166   3.623   0.073   4.735
 7094TIP3    H121167   3.608   0.033   4.649
 7094TIP3    H221168   3.606   0.166   4.722
 7095TIP3   OH221169   9.650   9.100   6.627
 7095TIP3    H121170   9.666   9.035   6.559
 7095TIP3    H221171   9.616   9.176   6.580
 7096TIP3   OH221172   3.142   0.164   6.259
 7096TIP3    H121173   3.229   0.194   6.232
 7096TIP3    H221174   3.081   0.218   6.208
 7097TIP3   OH221175   3.723   0.131   6.616
 7097TIP3    H121176   3.779   0.061   6.582
 7097TIP3    H221177   3.781   0.206   6.628
 7098TIP3   OH221178   3.746   0.380   6.378
 7098TIP3    H121179   3.693   0.441   6.327
 7098TIP3    H221180   3.835   0.391   6.343
 7099TIP3   OH221181   9.470   9.215   6.822
 7099TIP3    H121182   9.431   9.159   6.889
 7099TIP3    H221183   9.525   9.156   6.770
 7100TIP3   OH221184   0.095   9.188   6.725
 7100TIP3    H121185   0.095   9.185   6.821
 7100TIP3    H221186   0.011   9.150   6.700
 7101TIP3   OH221187   2.682   0.820   5.006
 7101TIP3    H121188   2.776   0.808   4.990
 7101TIP3    H221189   2.650   0.864   4.927
 7102TIP3   OH221190   2.153   0.244   5.264
 7102TIP3    H121191   2.246   0.262   5.251
 7102TIP3    H221192   2.135   0.169   5.206
 7103TIP3   OH221193   2.045   0.809   5.649
 7103TIP3    H121194   1.975   0.762   5.605
 7103TIP3    H221195   2.084   0.745   5.708
 7104TIP3   OH221196   2.177   0.631   5.815
 7104TIP3    H121197   2.164   0.562   5.880
 7104TIP3    H221198   2.231   0.696   5.860
 7105TIP3   OH221199   3.902   1.046   5.619
 7105TIP3    H121200   3.930   1.071   5.707
 7105TIP3    H221201   3.967   1.085   5.561
 7106TIP3   OH221202   3.932   1.069   5.904
 7106TIP3    H121203   3.886   0.986   5.896
 7106TIP3    H221204   4.001   1.052   5.968
 7107TIP3   OH221205   3.974   0.772   6.473
 7107TIP3    H121206   3.903   0.779   6.537
 7107TIP3    H221207   4.022   0.854   6.482
 7108TIP3   OH221208   3.797   0.300   5.074
 7108TIP3    H121209   3.857   0.368   5.042
 7108TIP3    H221210   3.839   0.267   5.153
 7109TIP3   OH221211   3.912   0.179   5.291
 7109TIP3    H121212   3.854   0.131   5.350
 7109TIP3    H221213   3.979   0.217   5.349
 7110TIP3   OH221214   3.971   0.547   5.717
 7110TIP3    H121215   4.018   0.473   5.679
 7110TIP3    H221216   3.984   0.618   5.654
 7111TIP3   OH221217   3.788   0.832   5.904
 7111TIP3    H121218   3.721   0.876   5.957
 7111TIP3    H221219   3.738   0.790   5.833
 7112TIP3   OH221220   3.811   0.066   4.933
 7112TIP3    H121221   3.746   0.068   4.863
 7112TIP3    H221222   3.798   0.149   4.980
 7113TIP3   OH221223   0.433   8.964   4.851
 7113TIP3    H121224   0.357   9.022   4.852
 7113TIP3    H221225   0.410   8.894   4.791
 7114TIP3   OH221226   0.468   9.245   5.418
 7114TIP3    H121227   0.473   9.151   5.402
 7114TIP3    H221228   0.439   9.251   5.509
 7115TIP3   OH221229   2.353   0.093   6.170
 7115TIP3    H121230   2.346   0.044   6.088
 7115TIP3    H221231   2.445   0.084   6.194
 7116TIP3   OH221232   4.003   0.408   6.280
 7116TIP3    H121233   4.076   0.346   6.285
 7116TIP3    H221234   4.032   0.474   6.217
 7117TIP3   OH221235   4.226   0.253   6.336
 7117TIP3    H121236   4.203   0.232   6.426
 7117TIP3    H221237   4.304   0.309   6.343
 7118TIP3   OH221238   0.480   8.976   5.320
 7118TIP3    H121239   0.534   8.900   5.344
 7118TIP3    H221240   0.514   9.002   5.234
 7119TIP3   OH221241   0.586   9.178   5.828
 7119TIP3    H121242   0.664   9.200   5.776
 7119TIP3    H221243   0.611   9.200   5.918
 7120TIP3   OH221244   3.933   0.049   6.072
 7120TIP3    H121245   3.857   0.083   6.120
 7120TIP3    H221246   3.974   0.126   6.034
 7121TIP3   OH221247   8.837   9.015   6.199
 7121TIP3    H121248   8.909   8.994   6.139
 7121TIP3    H221249   8.881   9.032   6.283
 7122TIP3   OH221250   3.425   0.960   5.232
 7122TIP3    H121251   3.498   0.940   5.173
 7122TIP3    H221252   3.462   1.018   5.298
 7123TIP3   OH221253   2.579   0.745   6.638
 7123TIP3    H121254   2.486   0.722   6.628
 7123TIP3    H221255   2.601   0.716   6.727
 7124TIP3   OH221256   2.786   0.786   6.191
 7124TIP3    H121257   2.733   0.860   6.161
 7124TIP3    H221258   2.869   0.797   6.145
 7125TIP3   OH221259   3.185   1.026   6.336
 7125TIP3    H121260   3.224   1.001   6.419
 7125TIP3    H221261   3.253   1.075   6.291
 7126TIP3   OH221262   3.384   1.169   6.208
 7126TIP3    H121263   3.449   1.113   6.167
 7126TIP3    H221264   3.435   1.229   6.263
 7127TIP3   OH221265   2.438   1.022   6.242
 7127TIP3    H121266   2.346   1.039   6.221
 7127TIP3    H221267   2.461   1.090   6.305
 7128TIP3   OH221268   2.674   1.017   6.098
 7128TIP3    H121269   2.589   1.021   6.143
 7128TIP3    H221270   2.655   1.048   6.009
 7129TIP3   OH221271   3.084   1.050   5.878
 7129TIP3    H121272   3.004   1.061   5.827
 7129TIP3    H221273   3.095   1.133   5.924
 7130TIP3   OH221274   3.343   0.964   5.910
 7130TIP3    H121275   3.254   0.995   5.899
 7130TIP3    H221276   3.399   1.035   5.877
 7131TIP3   OH221277   3.545   1.134   5.827
 7131TIP3    H121278   3.551   1.223   5.793
 7131TIP3    H221279   3.578   1.079   5.755
 7132TIP3   OH221280   2.354   0.803   5.955
 7132TIP3    H121281   2.377   0.781   6.045
 7132TIP3    H221282   2.428   0.770   5.903
 7133TIP3   OH221283   2.562   0.692   5.820
 7133TIP3    H121284   2.572   0.606   5.862
 7133TIP3    H221285   2.650   0.730   5.823
 7134TIP3   OH221286   2.832   0.775   5.835
 7134TIP3    H121287   2.848   0.682   5.823
 7134TIP3    H221288   2.885   0.800   5.911
 7135TIP3   OH221289   2.177   0.620   5.347
 7135TIP3    H121290   2.088   0.592   5.323
 7135TIP3    H221291   2.180   0.713   5.323
 7136TIP3   OH221292   2.940   0.761   4.935
 7136TIP3    H121293   3.027   0.783   4.902
 7136TIP3    H221294   2.916   0.683   4.886
 7137TIP3   OH221295   3.609   0.896   5.036
 7137TIP3    H121296   3.603   0.801   5.025
 7137TIP3    H221297   3.576   0.932   4.953
 7138TIP3   OH221298   2.274   0.614   5.016
 7138TIP3    H121299   2.282   0.623   5.111
 7138TIP3    H221300   2.352   0.565   4.990
 7139TIP3   OH221301   3.831   1.037   6.228
 7139TIP3    H121302   3.757   1.009   6.175
 7139TIP3    H221303   3.822   1.132   6.234
 7140TIP3   OH221304   5.105   0.433   4.981
 7140TIP3    H121305   5.082   0.522   4.954
 7140TIP3    H221306   5.034   0.379   4.945
 7141TIP3   OH221307   5.084   0.441   5.344
 7141TIP3    H121308   5.130   0.420   5.425
 7141TIP3    H221309   5.090   0.361   5.291
 7142TIP3   OH221310   4.381   0.355   5.728
 7142TIP3    H121311   4.425   0.306   5.798
 7142TIP3    H221312   4.452   0.391   5.675
 7143TIP3   OH221313   5.385   0.723   5.068
 7143TIP3    H121314   5.363   0.669   5.144
 7143TIP3    H221315   5.403   0.810   5.104
 7144TIP3   OH221316   4.384   0.714   5.423
 7144TIP3    H121317   4.365   0.621   5.418
 7144TIP3    H221318   4.479   0.719   5.416
 7145TIP3   OH221319   0.772   9.203   5.175
 7145TIP3    H121320   0.737   9.283   5.214
 7145TIP3    H221321   0.695   9.157   5.141
 7146TIP3   OH221322   4.146   0.264   5.420
 7146TIP3    H121323   4.193   0.181   5.430
 7146TIP3    H221324   4.214   0.327   5.397
 7147TIP3   OH221325   5.049   1.150   5.076
 7147TIP3    H121326   5.071   1.087   5.008
 7147TIP3    H221327   5.063   1.103   5.158
 7148TIP3   OH221328   4.909   0.655   5.391
 7148TIP3    H121329   4.947   0.573   5.361
 7148TIP3    H221330   4.984   0.710   5.413
 7149TIP3   OH221331   5.409   0.167   5.407
 7149TIP3    H121332   5.475   0.144   5.472
 7149TIP3    H221333   5.352   0.091   5.402
 7150TIP3   OH221334   0.988   9.257   5.481
 7150TIP3    H121335   1.074   9.240   5.519
 7150TIP3    H221336   0.989   9.208   5.399
 7151TIP3   OH221337   4.706   0.283   5.341
 7151TIP3    H121338   4.795   0.246   5.345
 7151TIP3    H221339   4.649   0.208   5.327
 7152TIP3   OH221340   5.957   0.066   5.505
 7152TIP3    H121341   5.912   0.149   5.516
 7152TIP3    H221342   6.015   0.060   5.581
 7153TIP3   OH221343   5.017   0.649   4.836
 7153TIP3    H121344   4.977   0.617   4.755
 7153TIP3    H221345   4.964   0.724   4.861
 7154TIP3   OH221346   4.773   0.603   5.627
 7154TIP3    H121347   4.707   0.671   5.644
 7154TIP3    H221348   4.813   0.630   5.544
 7155TIP3   OH221349   1.253   9.197   5.528
 7155TIP3    H121350   1.286   9.267   5.584
 7155TIP3    H221351   1.322   9.183   5.463
 7156TIP3   OH221352   4.583   0.782   5.705
 7156TIP3    H121353   4.573   0.873   5.678
 7156TIP3    H221354   4.505   0.763   5.757
 7157TIP3   OH221355   3.971   0.483   4.962
 7157TIP3    H121356   3.942   0.503   4.873
 7157TIP3    H221357   3.997   0.568   4.998
 7158TIP3   OH221358   5.413   0.976   5.191
 7158TIP3    H121359   5.325   0.970   5.227
 7158TIP3    H221360   5.416   1.060   5.145
 7159TIP3   OH221361   5.129   1.002   4.853
 7159TIP3    H121362   5.183   0.924   4.843
 7159TIP3    H221363   5.186   1.074   4.826
 7160TIP3   OH221364   5.268   0.769   4.821
 7160TIP3    H121365   5.190   0.713   4.823
 7160TIP3    H221366   5.317   0.745   4.900
 7161TIP3   OH221367   5.650   0.894   5.551
 7161TIP3    H121368   5.632   0.817   5.497
 7161TIP3    H221369   5.630   0.968   5.493
 7162TIP3   OH221370   4.933   0.274   4.828
 7162TIP3    H121371   4.844   0.306   4.819
 7162TIP3    H221372   4.974   0.292   4.743
 7163TIP3   OH221373   4.897   0.086   4.563
 7163TIP3    H121374   4.964   0.151   4.583
 7163TIP3    H221375   4.924   0.009   4.613
 7164TIP3   OH221376   5.839   0.561   5.387
 7164TIP3    H121377   5.753   0.603   5.388
 7164TIP3    H221378   5.877   0.588   5.304
 7165TIP3   OH221379   5.285   0.377   4.776
 7165TIP3    H121380   5.239   0.400   4.857
 7165TIP3    H221381   5.369   0.341   4.806
 7166TIP3   OH221382   5.476   0.422   5.704
 7166TIP3    H121383   5.492   0.506   5.746
 7166TIP3    H221384   5.398   0.435   5.650
 7167TIP3   OH221385   4.507   0.382   5.161
 7167TIP3    H121386   4.473   0.313   5.104
 7167TIP3    H221387   4.581   0.341   5.207
 7168TIP3   OH221388   4.651   0.755   5.330
 7168TIP3    H121389   4.631   0.745   5.236
 7168TIP3    H221390   4.740   0.720   5.339
 7169TIP3   OH221391   4.597   0.405   5.557
 7169TIP3    H121392   4.640   0.371   5.478
 7169TIP3    H221393   4.658   0.470   5.591
 7170TIP3   OH221394   5.169   0.979   5.309
 7170TIP3    H121395   5.161   1.056   5.366
 7170TIP3    H221396   5.158   0.904   5.368
 7171TIP3   OH221397   4.790   0.874   5.869
 7171TIP3    H121398   4.728   0.931   5.915
 7171TIP3    H221399   4.734   0.821   5.812
 7172TIP3   OH221400   5.090   0.286   4.605
 7172TIP3    H121401   5.154   0.335   4.657
 7172TIP3    H221402   5.111   0.309   4.514
 7173TIP3   OH221403   4.521   0.464   6.002
 7173TIP3    H121404   4.529   0.553   6.035
 7173TIP3    H221405   4.429   0.442   6.014
 7174TIP3   OH221406   4.879   0.886   4.863
 7174TIP3    H121407   4.961   0.936   4.868
 7174TIP3    H221408   4.819   0.943   4.814
 7175TIP3   OH221409   4.580   1.028   5.960
 7175TIP3    H121410   4.557   1.043   5.868
 7175TIP3    H221411   4.496   1.017   6.005
 7176TIP3   OH221412   4.392   0.209   4.972
 7176TIP3    H121413   4.316   0.256   4.938
 7176TIP3    H221414   4.358   0.123   4.997
 7177TIP3   OH221415   5.464   0.824   4.225
 7177TIP3    H121416   5.457   0.916   4.201
 7177TIP3    H221417   5.554   0.800   4.202
 7178TIP3   OH221418   4.176   0.589   5.908
 7178TIP3    H121419   4.105   0.572   5.847
 7178TIP3    H221420   4.210   0.502   5.931
 7179TIP3   OH221421   4.058   0.760   5.555
 7179TIP3    H121422   4.152   0.758   5.539
 7179TIP3    H221423   4.044   0.839   5.607
 7180TIP3   OH221424   5.876   1.223   5.615
 7180TIP3    H121425   5.882   1.130   5.634
 7180TIP3    H221426   5.796   1.251   5.660
 7181TIP3   OH221427   4.985   1.014   5.734
 7181TIP3    H121428   4.982   1.105   5.765
 7181TIP3    H221429   4.916   0.970   5.784
 7182TIP3   OH221430   4.770   1.105   4.693
 7182TIP3    H121431   4.727   1.085   4.610
 7182TIP3    H221432   4.731   1.188   4.721
 7183TIP3   OH221433   4.202   0.966   5.070
 7183TIP3    H121434   4.247   0.959   5.154
 7183TIP3    H221435   4.155   0.883   5.061
 7184TIP3   OH221436   4.972   1.046   4.319
 7184TIP3    H121437   5.021   0.972   4.282
 7184TIP3    H221438   5.008   1.057   4.407
 7185TIP3   OH221439   5.024   1.084   4.589
 7185TIP3    H121440   4.938   1.086   4.631
 7185TIP3    H221441   5.082   1.047   4.656
 7186TIP3   OH221442   5.786   0.395   5.777
 7186TIP3    H121443   5.771   0.466   5.839
 7186TIP3    H221444   5.730   0.323   5.808
 7187TIP3   OH221445   4.366   0.787   5.876
 7187TIP3    H121446   4.417   0.779   5.957
 7187TIP3    H221447   4.299   0.719   5.884
 7188TIP3   OH221448   5.583   0.262   5.899
 7188TIP3    H121449   5.518   0.193   5.909
 7188TIP3    H221450   5.538   0.330   5.847
 7189TIP3   OH221451   5.252   0.272   4.372
 7189TIP3    H121452   5.193   0.257   4.297
 7189TIP3    H221453   5.311   0.341   4.342
 7190TIP3   OH221454   4.633   0.158   5.672
 7190TIP3    H121455   4.597   0.163   5.761
 7190TIP3    H221456   4.610   0.241   5.632
 7191TIP3   OH221457   4.516   0.101   5.276
 7191TIP3    H121458   4.456   0.026   5.283
 7191TIP3    H221459   4.566   0.084   5.196
 7192TIP3   OH221460   5.137   0.109   4.921
 7192TIP3    H121461   5.067   0.157   4.878
 7192TIP3    H221462   5.133   0.021   4.882
 7193TIP3   OH221463   5.256   0.454   5.986
 7193TIP3    H121464   5.196   0.416   6.051
 7193TIP3    H221465   5.343   0.424   6.013
 7194TIP3   OH221466   5.175   0.243   5.163
 7194TIP3    H121467   5.161   0.326   5.118
 7194TIP3    H221468   5.199   0.181   5.094
 7195TIP3   OH221469   4.519   0.201   5.913
 7195TIP3    H121470   4.529   0.274   5.974
 7195TIP3    H221471   4.475   0.133   5.964
 7196TIP3   OH221472   5.253   0.358   5.538
 7196TIP3    H121473   5.304   0.286   5.501
 7196TIP3    H221474   5.221   0.324   5.622
 7197TIP3   OH221475   1.076   9.118   5.255
 7197TIP3    H121476   1.054   9.158   5.171
 7197TIP3    H221477   1.016   9.044   5.264
 7198TIP3   OH221478   1.328   9.056   4.966
 7198TIP3    H121479   1.423   9.054   4.970
 7198TIP3    H221480   1.308   9.125   4.903
 7199TIP3   OH221481   1.133   9.190   4.755
 7199TIP3    H121482   1.080   9.202   4.834
 7199TIP3    H221483   1.076   9.217   4.683
 7200TIP3   OH221484   5.599   1.572   5.703
 7200TIP3    H121485   5.597   1.589   5.609
 7200TIP3    H221486   5.678   1.615   5.734
 7201TIP3   OH221487   4.518   0.716   6.112
 7201TIP3    H121488   4.601   0.730   6.158
 7201TIP3    H221489   4.451   0.720   6.181
 7202TIP3   OH221490   4.935   0.122   5.387
 7202TIP3    H121491   4.873   0.049   5.387
 7202TIP3    H221492   4.966   0.127   5.477
 7203TIP3   OH221493   4.998   0.048   5.646
 7203TIP3    H121494   4.918  -0.002   5.664
 7203TIP3    H221495   5.055   0.029   5.720
 7204TIP3   OH221496   4.698   0.397   4.754
 7204TIP3    H121497   4.620   0.350   4.726
 7204TIP3    H221498   4.670   0.448   4.830
 7205TIP3   OH221499   5.602   0.702   5.364
 7205TIP3    H121500   5.634   0.750   5.288
 7205TIP3    H221501   5.515   0.671   5.338
 7206TIP3   OH221502   5.142   0.769   5.746
 7206TIP3    H121503   5.096   0.689   5.772
 7206TIP3    H221504   5.082   0.840   5.770
 7207TIP3   OH221505   5.278   0.087   4.600
 7207TIP3    H121506   5.315   0.066   4.686
 7207TIP3    H221507   5.206   0.147   4.619
 7208TIP3   OH221508   4.367   0.434   5.394
 7208TIP3    H121509   4.406   0.421   5.307
 7208TIP3    H221510   4.438   0.416   5.455
 7209TIP3   OH221511   4.862   0.571   4.620
 7209TIP3    H121512   4.811   0.652   4.616
 7209TIP3    H221513   4.803   0.508   4.662
 7210TIP3   OH221514   4.266   0.362   6.052
 7210TIP3    H121515   4.283   0.342   6.144
 7210TIP3    H221516   4.189   0.311   6.029
 7211TIP3   OH221517   4.981   0.539   6.068
 7211TIP3    H121518   4.905   0.483   6.051
 7211TIP3    H221519   5.028   0.543   5.985
 7212TIP3   OH221520   5.257   1.040   5.648
 7212TIP3    H121521   5.164   1.019   5.656
 7212TIP3    H221522   5.284   1.067   5.735
 7213TIP3   OH221523   5.707   0.082   4.597
 7213TIP3    H121524   5.735   0.009   4.542
 7213TIP3    H221525   5.675   0.147   4.534
 7214TIP3   OH221526   5.900   0.942   5.635
 7214TIP3    H121527   5.805   0.939   5.623
 7214TIP3    H221528   5.936   0.925   5.548
 7215TIP3   OH221529   5.383   0.888   4.488
 7215TIP3    H121530   5.355   0.815   4.543
 7215TIP3    H221531   5.404   0.848   4.403
 7216TIP3   OH221532   5.345   0.577   5.304
 7216TIP3    H121533   5.259   0.535   5.304
 7216TIP3    H221534   5.406   0.507   5.331
 7217TIP3   OH221535   4.526   0.775   5.080
 7217TIP3    H121536   4.519   0.851   5.023
 7217TIP3    H221537   4.435   0.751   5.098
 7218TIP3   OH221538   4.053   0.055   4.806
 7218TIP3    H121539   4.100   0.137   4.823
 7218TIP3    H221540   3.972   0.064   4.855
 7219TIP3   OH221541   4.604   0.542   4.959
 7219TIP3    H121542   4.601   0.631   4.994
 7219TIP3    H221543   4.572   0.487   5.031
 7220TIP3   OH221544   4.804   1.083   5.528
 7220TIP3    H121545   4.839   1.156   5.478
 7220TIP3    H221546   4.878   1.051   5.580
 7221TIP3   OH221547   4.435   0.987   4.925
 7221TIP3    H121548   4.348   0.994   4.964
 7221TIP3    H221549   4.471   1.076   4.931
 7222TIP3   OH221550   5.159   0.754   5.472
 7222TIP3    H121551   5.161   0.755   5.567
 7222TIP3    H221552   5.235   0.701   5.448
 7223TIP3   OH221553   5.155   0.627   4.359
 7223TIP3    H121554   5.203   0.598   4.436
 7223TIP3    H221555   5.067   0.591   4.370
 7224TIP3   OH221556   5.407   1.247   5.543
 7224TIP3    H121557   5.342   1.180   5.564
 7224TIP3    H221558   5.368   1.298   5.472
 7225TIP3   OH221559   5.458   1.093   4.174
 7225TIP3    H121560   5.468   1.148   4.096
 7225TIP3    H221561   5.390   1.137   4.226
 7226TIP3   OH221562   5.322   0.535   4.552
 7226TIP3    H121563   5.308   0.493   4.637
 7226TIP3    H221564   5.417   0.548   4.548
 7227TIP3   OH221565   4.221   0.983   5.699
 7227TIP3    H121566   4.271   0.924   5.755
 7227TIP3    H221567   4.239   1.070   5.733
 7228TIP3   OH221568   4.499   0.614   4.400
 7228TIP3    H121569   4.509   0.524   4.369
 7228TIP3    H221570   4.489   0.605   4.495
 7229TIP3   OH221571   4.442   0.610   4.674
 7229TIP3    H121572   4.504   0.586   4.742
 7229TIP3    H221573   4.442   0.706   4.675
 7230TIP3   OH221574   4.161   0.309   4.860
 7230TIP3    H121575   4.099   0.360   4.913
 7230TIP3    H221576   4.182   0.366   4.787
 7231TIP3   OH221577   4.711   0.794   4.597
 7231TIP3    H121578   4.625   0.819   4.633
 7231TIP3    H221579   4.735   0.866   4.539
 7232TIP3   OH221580   1.605   9.049   5.009
 7232TIP3    H121581   1.630   9.133   5.048
 7232TIP3    H221582   1.651   8.984   5.062
 7233TIP3   OH221583   5.177   0.282   5.787
 7233TIP3    H121584   5.200   0.351   5.848
 7233TIP3    H221585   5.211   0.202   5.827
 7234TIP3   OH221586   4.461   0.882   4.674
 7234TIP3    H121587   4.443   0.953   4.613
 7234TIP3    H221588   4.451   0.922   4.761
 7235TIP3   OH221589   5.481   0.245   5.140
 7235TIP3    H121590   5.428   0.227   5.217
 7235TIP3    H221591   5.552   0.301   5.171
 7236TIP3   OH221592   4.194   0.489   4.649
 7236TIP3    H121593   4.268   0.548   4.663
 7236TIP3    H221594   4.224   0.427   4.582
 7237TIP3   OH221595   0.779   9.013   4.778
 7237TIP3    H121596   0.784   9.105   4.805
 7237TIP3    H221597   0.764   8.965   4.860
 7238TIP3   OH221598   5.437   1.240   5.110
 7238TIP3    H121599   5.393   1.293   5.043
 7238TIP3    H221600   5.530   1.260   5.100
 7239TIP3   OH221601   4.027   0.745   5.051
 7239TIP3    H121602   3.989   0.781   5.131
 7239TIP3    H221603   3.981   0.789   4.980
 7240TIP3   OH221604   4.238   1.285   6.116
 7240TIP3    H121605   4.315   1.298   6.170
 7240TIP3    H221606   4.236   1.191   6.098
 7241TIP3   OH221607   4.688   1.194   6.153
 7241TIP3    H121608   4.780   1.169   6.164
 7241TIP3    H221609   4.657   1.139   6.081
 7242TIP3   OH221610   4.658   0.799   4.274
 7242TIP3    H121611   4.610   0.732   4.323
 7242TIP3    H221612   4.730   0.751   4.233
 7243TIP3   OH221613   5.321   1.130   5.898
 7243TIP3    H121614   5.330   1.066   5.969
 7243TIP3    H221615   5.391   1.193   5.914
 7244TIP3   OH221616   5.095   0.836   4.194
 7244TIP3    H121617   5.132   0.771   4.253
 7244TIP3    H221618   5.150   0.832   4.115
 7245TIP3   OH221619   4.321   0.701   6.305
 7245TIP3    H121620   4.347   0.611   6.326
 7245TIP3    H221621   4.234   0.693   6.267
 7246TIP3   OH221622   4.309   0.300   4.492
 7246TIP3    H121623   4.359   0.274   4.569
 7246TIP3    H221624   4.375   0.322   4.426
 7247TIP3   OH221625   4.944   0.810   6.085
 7247TIP3    H121626   4.900   0.823   6.000
 7247TIP3    H221627   4.974   0.719   6.082
 7248TIP3   OH221628   4.898   0.529   4.353
 7248TIP3    H121629   4.877   0.545   4.445
 7248TIP3    H221630   4.888   0.434   4.343
 7249TIP3   OH221631   5.419   0.777   5.666
 7249TIP3    H121632   5.476   0.845   5.632
 7249TIP3    H221633   5.335   0.821   5.682
 7250TIP3   OH221634   4.425   0.433   6.304
 7250TIP3    H121635   4.507   0.403   6.265
 7250TIP3    H221636   4.449   0.462   6.392
 7251TIP3   OH221637   4.477   0.239   4.703
 7251TIP3    H121638   4.462   0.212   4.793
 7251TIP3    H221639   4.521   0.165   4.662
 7252TIP3   OH221640   4.782   0.380   5.969
 7252TIP3    H121641   4.692   0.412   5.978
 7252TIP3    H221642   4.797   0.373   5.875
 7253TIP3   OH221643   4.621   0.055   4.553
 7253TIP3    H121644   4.587   0.059   4.464
 7253TIP3    H221645   4.716   0.061   4.543
 7254TIP3   OH221646   5.317   0.708   6.094
 7254TIP3    H121647   5.296   0.652   6.019
 7254TIP3    H221648   5.326   0.648   6.168
 7255TIP3   OH221649   5.477   0.352   4.226
 7255TIP3    H121650   5.456   0.301   4.147
 7255TIP3    H221651   5.447   0.440   4.206
 7256TIP3   OH221652   4.944   0.155   5.995
 7256TIP3    H121653   4.881   0.102   6.044
 7256TIP3    H221654   4.894   0.232   5.968
 7257TIP3   OH221655   4.991   0.542   5.785
 7257TIP3    H121656   5.001   0.449   5.767
 7257TIP3    H221657   4.913   0.568   5.736
 7258TIP3   OH221658   5.625   0.338   6.204
 7258TIP3    H121659   5.540   0.313   6.168
 7258TIP3    H221660   5.604   0.380   6.287
 7259TIP3   OH221661   5.556   0.647   5.856
 7259TIP3    H121662   5.497   0.698   5.801
 7259TIP3    H221663   5.643   0.664   5.820
 7260TIP3   OH221664   4.676   0.331   6.263
 7260TIP3    H121665   4.675   0.292   6.350
 7260TIP3    H221666   4.750   0.392   6.265
 7261TIP3   OH221667   5.124   0.284   6.159
 7261TIP3    H121668   5.108   0.254   6.249
 7261TIP3    H221669   5.062   0.234   6.106
 7262TIP3   OH221670   4.462   1.090   4.492
 7262TIP3    H121671   4.552   1.070   4.465
 7262TIP3    H221672   4.423   1.133   4.416
 7263TIP3   OH221673   3.923   0.481   4.678
 7263TIP3    H121674   4.017   0.494   4.667
 7263TIP3    H221675   3.905   0.397   4.635
 7264TIP3   OH221676   3.831   1.038   5.125
 7264TIP3    H121677   3.765   0.984   5.081
 7264TIP3    H221678   3.874   0.978   5.186
 7265TIP3   OH221679   3.973   0.877   5.301
 7265TIP3    H121680   3.969   0.810   5.369
 7265TIP3    H221681   4.021   0.949   5.341
 7266TIP3   OH221682   5.702   1.313   5.113
 7266TIP3    H121683   5.721   1.324   5.206
 7266TIP3    H221684   5.739   1.390   5.071
 7267TIP3   OH221685   5.728   1.325   5.391
 7267TIP3    H121686   5.678   1.243   5.386
 7267TIP3    H221687   5.797   1.308   5.454
 7268TIP3   OH221688   5.768   1.046   5.935
 7268TIP3    H121689   5.700   1.050   6.002
 7268TIP3    H221690   5.820   1.125   5.949
 7269TIP3   OH221691   5.598   0.552   4.565
 7269TIP3    H121692   5.651   0.624   4.531
 7269TIP3    H221693   5.638   0.532   4.650
 7270TIP3   OH221694   5.704   0.444   4.798
 7270TIP3    H121695   5.636   0.382   4.826
 7270TIP3    H221696   5.736   0.482   4.879
 7271TIP3   OH221697   5.785   0.821   5.195
 7271TIP3    H121698   5.840   0.763   5.142
 7271TIP3    H221699   5.784   0.904   5.147
 7272TIP3   OH221700   5.577   1.095   5.384
 7272TIP3    H121701   5.509   1.139   5.435
 7272TIP3    H221702   5.528   1.051   5.314
 7273TIP3   OH221703   5.637   0.310   4.444
 7273TIP3    H121704   5.580   0.317   4.367
 7273TIP3    H221705   5.622   0.391   4.493
 7274TIP3   OH221706   5.515   0.250   4.870
 7274TIP3    H121707   5.500   0.160   4.843
 7274TIP3    H221708   5.504   0.249   4.965
 7275TIP3   OH221709   4.120   0.313   5.685
 7275TIP3    H121710   4.116   0.301   5.590
 7275TIP3    H221711   4.212   0.331   5.703
 7276TIP3   OH221712   5.809   0.695   5.758
 7276TIP3    H121713   5.886   0.639   5.747
 7276TIP3    H221714   5.826   0.771   5.703
 7277TIP3   OH221715   6.027   0.525   5.770
 7277TIP3    H121716   5.970   0.448   5.769
 7277TIP3    H221717   6.084   0.511   5.845
 7278TIP3   OH221718   2.171   9.222   4.796
 7278TIP3    H121719   2.209   9.157   4.855
 7278TIP3    H221720   2.194   9.192   4.708
 7279TIP3   OH221721   5.719   0.154   5.324
 7279TIP3    H121722   5.752   0.228   5.272
 7279TIP3    H221723   5.732   0.181   5.415
 7280TIP3   OH221724   5.845   0.319   5.519
 7280TIP3    H121725   5.828   0.344   5.610
 7280TIP3    H221726   5.846   0.402   5.472
 7281TIP3   OH221727   4.078   0.034   5.693
 7281TIP3    H121728   4.130   0.019   5.615
 7281TIP3    H221729   4.081   0.128   5.707
 7282TIP3   OH221730   5.270   1.207   4.752
 7282TIP3    H121731   5.325   1.195   4.674
 7282TIP3    H221732   5.311   1.278   4.800
 7283TIP3   OH221733   4.348   1.012   6.121
 7283TIP3    H121734   4.258   0.982   6.119
 7283TIP3    H221735   4.376   1.001   6.212
 7284TIP3   OH221736   4.575   1.055   5.679
 7284TIP3    H121737   4.526   1.132   5.647
 7284TIP3    H221738   4.660   1.061   5.635
 7285TIP3   OH221739   4.976   1.279   5.819
 7285TIP3    H121740   5.016   1.271   5.906
 7285TIP3    H221741   5.038   1.332   5.769
 7286TIP3   OH221742   5.168   1.431   5.690
 7286TIP3    H121743   5.231   1.374   5.647
 7286TIP3    H221744   5.221   1.490   5.743
 7287TIP3   OH221745   4.237   1.278   5.730
 7287TIP3    H121746   4.146   1.297   5.708
 7287TIP3    H221747   4.261   1.344   5.794
 7288TIP3   OH221748   4.465   1.284   5.576
 7288TIP3    H121749   4.382   1.285   5.622
 7288TIP3    H221750   4.443   1.305   5.485
 7289TIP3   OH221751   4.877   1.296   5.368
 7289TIP3    H121752   4.804   1.308   5.307
 7289TIP3    H221753   4.888   1.382   5.410
 7290TIP3   OH221754   5.141   1.233   5.411
 7290TIP3    H121755   5.049   1.254   5.392
 7290TIP3    H221756   5.190   1.302   5.367
 7291TIP3   OH221757   5.342   1.402   5.314
 7291TIP3    H121758   5.345   1.490   5.275
 7291TIP3    H221759   5.372   1.344   5.244
 7292TIP3   OH221760   4.140   1.061   5.445
 7292TIP3    H121761   4.167   1.040   5.535
 7292TIP3    H221762   4.213   1.033   5.391
 7293TIP3   OH221763   4.347   0.956   5.304
 7293TIP3    H121764   4.357   0.872   5.347
 7293TIP3    H221765   4.434   0.996   5.307
 7294TIP3   OH221766   4.616   1.034   5.328
 7294TIP3    H121767   4.632   0.941   5.315
 7294TIP3    H221768   4.673   1.058   5.401
 7295TIP3   OH221769   3.902   0.866   4.839
 7295TIP3    H121770   3.821   0.834   4.799
 7295TIP3    H221771   3.914   0.953   4.803
 7296TIP3   OH221772   4.718   1.017   4.423
 7296TIP3    H121773   4.802   1.046   4.386
 7296TIP3    H221774   4.688   0.949   4.364
 7297TIP3   OH221775   5.419   1.156   4.523
 7297TIP3    H121776   5.412   1.061   4.516
 7297TIP3    H221777   5.377   1.190   4.444
 7298TIP3   OH221778   4.028   0.863   4.479
 7298TIP3    H121779   4.034   0.878   4.574
 7298TIP3    H221780   4.108   0.814   4.458
 7299TIP3   OH221781   5.628   1.298   5.707
 7299TIP3    H121782   5.553   1.270   5.655
 7299TIP3    H221783   5.618   1.393   5.715
 7300TIP3   OH221784   6.912   0.701   4.484
 7300TIP3    H121785   6.890   0.792   4.462
 7300TIP3    H221786   6.841   0.650   4.445
 7301TIP3   OH221787   6.867   0.686   4.838
 7301TIP3    H121788   6.917   0.675   4.919
 7301TIP3    H221789   6.826   0.601   4.823
 7302TIP3   OH221790   6.257   0.672   5.181
 7302TIP3    H121791   6.278   0.579   5.174
 7302TIP3    H221792   6.274   0.694   5.273
 7303TIP3   OH221793   7.175   0.987   4.556
 7303TIP3    H121794   7.156   0.920   4.623
 7303TIP3    H221795   7.191   1.067   4.606
 7304TIP3   OH221796   5.886   0.271   4.688
 7304TIP3    H121797   5.833   0.343   4.722
 7304TIP3    H221798   5.823   0.201   4.670
 7305TIP3   OH221799   6.004   0.528   4.894
 7305TIP3    H121800   6.028   0.441   4.924
 7305TIP3    H221801   6.027   0.529   4.801
 7306TIP3   OH221802   6.822   1.417   4.554
 7306TIP3    H121803   6.854   1.349   4.495
 7306TIP3    H221804   6.811   1.372   4.638
 7307TIP3   OH221805   6.730   0.909   4.951
 7307TIP3    H121806   6.762   0.837   4.896
 7307TIP3    H221807   6.802   0.971   4.953
 7308TIP3   OH221808   7.183   0.472   4.900
 7308TIP3    H121809   7.202   0.384   4.933
 7308TIP3    H221810   7.141   0.457   4.815
 7309TIP3   OH221811   6.048   0.284   5.010
 7309TIP3    H121812   6.072   0.249   5.096
 7309TIP3    H221813   6.100   0.232   4.948
 7310TIP3   OH221814   6.518   0.536   4.764
 7310TIP3    H121815   6.610   0.507   4.766
 7310TIP3    H221816   6.469   0.455   4.748
 7311TIP3   OH221817   7.749   0.317   5.051
 7311TIP3    H121818   7.688   0.337   4.980
 7311TIP3    H221819   7.774   0.403   5.086
 7312TIP3   OH221820   6.814   0.912   4.327
 7312TIP3    H121821   6.776   0.876   4.247
 7312TIP3    H221822   6.758   0.986   4.349
 7313TIP3   OH221823   6.506   0.917   5.115
 7313TIP3    H121824   6.527   0.975   5.188
 7313TIP3    H221825   6.583   0.919   5.059
 7314TIP3   OH221826   6.291   0.150   5.005
 7314TIP3    H121827   6.293   0.242   5.031
 7314TIP3    H221828   6.381   0.131   4.977
 7315TIP3   OH221829   5.760   0.745   4.449
 7315TIP3    H121830   5.730   0.763   4.360
 7315TIP3    H221831   5.785   0.831   4.484
 7316TIP3   OH221832   7.195   1.206   4.737
 7316TIP3    H121833   7.129   1.173   4.798
 7316TIP3    H221834   7.158   1.288   4.703
 7317TIP3   OH221835   6.921   1.259   4.348
 7317TIP3    H121836   6.975   1.181   4.335
 7317TIP3    H221837   6.975   1.332   4.317
 7318TIP3   OH221838   7.065   1.032   4.307
 7318TIP3    H121839   6.989   0.973   4.309
 7318TIP3    H221840   7.114   1.009   4.386
 7319TIP3   OH221841   7.457   1.111   5.044
 7319TIP3    H121842   7.427   1.043   4.984
 7319TIP3    H221843   7.437   1.193   5.000
 7320TIP3   OH221844   6.742   0.563   4.310
 7320TIP3    H121845   6.651   0.591   4.302
 7320TIP3    H221846   6.776   0.565   4.221
 7321TIP3   OH221847   6.698   0.346   4.025
 7321TIP3    H121848   6.770   0.398   4.060
 7321TIP3    H221849   6.700   0.265   4.077
 7322TIP3   OH221850   7.637   0.822   4.881
 7322TIP3    H121851   7.545   0.847   4.882
 7322TIP3    H221852   7.664   0.831   4.789
 7323TIP3   OH221853   7.083   0.650   4.268
 7323TIP3    H121854   7.032   0.671   4.346
 7323TIP3    H221855   7.172   0.635   4.300
 7324TIP3   OH221856   7.260   0.724   5.136
 7324TIP3    H121857   7.260   0.819   5.144
 7324TIP3    H221858   7.176   0.703   5.096
 7325TIP3   OH221859   6.280   0.643   4.668
 7325TIP3    H121860   6.241   0.578   4.610
 7325TIP3    H221861   6.358   0.600   4.703
 7326TIP3   OH221862   6.499   0.649   5.003
 7326TIP3    H121863   6.507   0.624   4.911
 7326TIP3    H221864   6.577   0.611   5.045
 7327TIP3   OH221865   6.535   1.120   5.322
 7327TIP3    H121866   6.504   1.149   5.407
 7327TIP3    H221867   6.478   1.164   5.259
 7328TIP3   OH221868   6.920   0.507   4.098
 7328TIP3    H121869   6.976   0.564   4.151
 7328TIP3    H221870   6.941   0.529   4.008
 7329TIP3   OH221871   6.297   0.761   5.437
 7329TIP3    H121872   6.308   0.848   5.476
 7329TIP3    H221873   6.221   0.724   5.482
 7330TIP3   OH221874   6.669   1.148   4.357
 7330TIP3    H121875   6.753   1.194   4.358
 7330TIP3    H221876   6.612   1.202   4.302
 7331TIP3   OH221877   6.371   1.297   5.464
 7331TIP3    H121878   6.347   1.305   5.371
 7331TIP3    H221879   6.288   1.281   5.509
 7332TIP3   OH221880   6.169   0.467   4.480
 7332TIP3    H121881   6.098   0.515   4.437
 7332TIP3    H221882   6.141   0.376   4.478
 7333TIP3   OH221883   7.260   1.077   3.706
 7333TIP3    H121884   7.253   1.170   3.684
 7333TIP3    H221885   7.352   1.056   3.687
 7334TIP3   OH221886   5.984   0.860   5.390
 7334TIP3    H121887   5.912   0.846   5.328
 7334TIP3    H221888   6.012   0.772   5.415
 7335TIP3   OH221889   5.819   1.064   5.069
 7335TIP3    H121890   5.904   1.097   5.099
 7335TIP3    H221891   5.759   1.138   5.080
 7336TIP3   OH221892   7.688   1.505   5.103
 7336TIP3    H121893   7.693   1.410   5.108
 7336TIP3    H221894   7.610   1.529   5.152
 7337TIP3   OH221895   6.756   1.256   5.219
 7337TIP3    H121896   6.764   1.347   5.248
 7337TIP3    H221897   6.681   1.222   5.267
 7338TIP3   OH221898   6.567   1.361   4.181
 7338TIP3    H121899   6.526   1.341   4.097
 7338TIP3    H221900   6.529   1.444   4.207
 7339TIP3   OH221901   5.989   1.233   4.553
 7339TIP3    H121902   6.041   1.222   4.633
 7339TIP3    H221903   5.946   1.148   4.542
 7340TIP3   OH221904   6.769   1.303   3.805
 7340TIP3    H121905   6.818   1.230   3.768
 7340TIP3    H221906   6.804   1.314   3.893
 7341TIP3   OH221907   6.821   1.341   4.074
 7341TIP3    H121908   6.736   1.342   4.119
 7341TIP3    H221909   6.882   1.308   4.140
 7342TIP3   OH221910   7.566   0.658   5.290
 7342TIP3    H121911   7.535   0.748   5.279
 7342TIP3    H221912   7.487   0.606   5.302
 7343TIP3   OH221913   6.166   1.067   5.354
 7343TIP3    H121914   6.227   1.057   5.427
 7343TIP3    H221915   6.106   0.993   5.364
 7344TIP3   OH221916   7.336   0.521   5.309
 7344TIP3    H121917   7.287   0.441   5.329
 7344TIP3    H221918   7.281   0.568   5.246
 7345TIP3   OH221919   7.003   0.551   3.848
 7345TIP3    H121920   6.944   0.545   3.772
 7345TIP3    H221921   7.079   0.599   3.816
 7346TIP3   OH221922   6.339   0.411   5.086
 7346TIP3    H121923   6.403   0.402   5.156
 7346TIP3    H221924   6.386   0.457   5.016
 7347TIP3   OH221925   6.321   0.347   4.741
 7347TIP3    H121926   6.253   0.280   4.745
 7347TIP3    H221927   6.379   0.319   4.670
 7348TIP3   OH221928   6.932   0.396   4.418
 7348TIP3    H121929   6.867   0.455   4.380
 7348TIP3    H221930   6.952   0.333   4.348
 7349TIP3   OH221931   6.940   0.686   5.567
 7349TIP3    H121932   6.995   0.610   5.588
 7349TIP3    H221933   7.002   0.755   5.545
 7350TIP3   OH221934   7.052   0.507   4.648
 7350TIP3    H121935   7.004   0.588   4.629
 7350TIP3    H221936   7.032   0.449   4.574
 7351TIP3   OH221937   6.256   0.459   5.407
 7351TIP3    H121938   6.192   0.516   5.449
 7351TIP3    H221939   6.236   0.372   5.441
 7352TIP3   OH221940   7.018   0.621   5.055
 7352TIP3    H121941   7.071   0.565   4.998
 7352TIP3    H221942   7.019   0.575   5.140
 7353TIP3   OH221943   6.126   0.156   4.748
 7353TIP3    H121944   6.050   0.212   4.734
 7353TIP3    H221945   6.091   0.067   4.747
 7354TIP3   OH221946   6.384   0.077   4.457
 7354TIP3    H121947   6.479   0.088   4.461
 7354TIP3    H221948   6.356   0.137   4.389
 7355TIP3   OH221949   6.220   0.227   4.262
 7355TIP3    H121950   6.141   0.229   4.316
 7355TIP3    H221951   6.188   0.236   4.172
 7356TIP3   OH221952   7.396   1.828   5.195
 7356TIP3    H121953   7.390   1.836   5.100
 7356TIP3    H221954   7.473   1.879   5.219
 7357TIP3   OH221955   6.324   0.988   5.584
 7357TIP3    H121956   6.409   1.000   5.627
 7357TIP3    H221957   6.260   0.992   5.655
 7358TIP3   OH221958   6.765   0.428   4.834
 7358TIP3    H121959   6.771   0.357   4.770
 7358TIP3    H221960   6.752   0.383   4.918
 7359TIP3   OH221961   6.834   0.264   5.128
 7359TIP3    H121962   6.778   0.341   5.131
 7359TIP3    H221963   6.853   0.244   5.219
 7360TIP3   OH221964   6.490   0.675   4.260
 7360TIP3    H121965   6.414   0.623   4.233
 7360TIP3    H221966   6.463   0.719   4.340
 7361TIP3   OH221967   7.382   0.925   4.854
 7361TIP3    H121968   7.417   0.983   4.786
 7361TIP3    H221969   7.294   0.903   4.823
 7362TIP3   OH221970   6.864   1.000   5.264
 7362TIP3    H121971   6.954   0.998   5.230
 7362TIP3    H221972   6.827   1.081   5.228
 7363TIP3   OH221973   6.979   0.253   4.176
 7363TIP3    H121974   7.072   0.230   4.179
 7363TIP3    H221975   6.978   0.344   4.145
 7364TIP3   OH221976   6.247   0.775   4.912
 7364TIP3    H121977   6.262   0.754   4.820
 7364TIP3    H221978   6.162   0.735   4.932
 7365TIP3   OH221979   6.658   0.828   4.110
 7365TIP3    H121980   6.611   0.911   4.101
 7365TIP3    H221981   6.598   0.770   4.157
 7366TIP3   OH221982   6.069   0.626   5.522
 7366TIP3    H121983   6.075   0.602   5.614
 7366TIP3    H221984   5.987   0.587   5.493
 7367TIP3   OH221985   6.719   0.595   5.444
 7367TIP3    H121986   6.742   0.641   5.364
 7367TIP3    H221987   6.789   0.618   5.506
 7368TIP3   OH221988   7.111   1.304   5.119
 7368TIP3    H121989   7.059   1.238   5.072
 7368TIP3    H221990   7.064   1.314   5.203
 7369TIP3   OH221991   7.306   0.366   4.161
 7369TIP3    H121992   7.283   0.299   4.096
 7369TIP3    H221993   7.335   0.441   4.109
 7370TIP3   OH221994   7.700   1.229   5.114
 7370TIP3    H121995   7.608   1.203   5.118
 7370TIP3    H221996   7.732   1.193   5.032
 7371TIP3   OH221997   7.179   1.140   3.971
 7371TIP3    H121998   7.150   1.067   4.026
 7371TIP3    H221999   7.198   1.101   3.886
 7372TIP3   OH222000   7.125   0.831   4.785
 7372TIP3    H122001   7.086   0.901   4.836
 7372TIP3    H222002   7.054   0.768   4.772
 7373TIP3   OH222003   6.260   1.036   4.573
 7373TIP3    H122004   6.263   1.107   4.509
 7373TIP3    H222005   6.229   0.961   4.523
 7374TIP3   OH222006   5.835   0.360   4.258
 7374TIP3    H122007   5.890   0.433   4.286
 7374TIP3    H222008   5.774   0.346   4.331
 7375TIP3   OH222009   6.391   0.805   4.475
 7375TIP3    H122010   6.420   0.883   4.521
 7375TIP3    H222011   6.354   0.749   4.543
 7376TIP3   OH222012   6.605   1.324   4.992
 7376TIP3    H122013   6.645   1.401   4.951
 7376TIP3    H222014   6.674   1.288   5.048
 7377TIP3   OH222015   6.221   1.252   4.406
 7377TIP3    H122016   6.134   1.263   4.443
 7377TIP3    H222017   6.262   1.339   4.414
 7378TIP3   OH222018   6.952   0.890   3.848
 7378TIP3    H122019   7.001   0.864   3.927
 7378TIP3    H222020   6.865   0.850   3.860
 7379TIP3   OH222021   7.242   1.518   5.025
 7379TIP3    H122022   7.184   1.450   5.061
 7379TIP3    H222023   7.185   1.571   4.969
 7380TIP3   OH222024   7.255   1.348   3.660
 7380TIP3    H122025   7.267   1.405   3.584
 7380TIP3    H222026   7.187   1.391   3.712
 7381TIP3   OH222027   7.126   0.813   4.045
 7381TIP3    H122028   7.104   0.770   4.127
 7381TIP3    H222029   7.221   0.810   4.041
 7382TIP3   OH222030   6.029   1.228   5.170
 7382TIP3    H122031   6.085   1.174   5.226
 7382TIP3    H222032   6.038   1.317   5.206
 7383TIP3   OH222033   6.295   0.872   3.885
 7383TIP3    H122034   6.303   0.782   3.853
 7383TIP3    H222035   6.282   0.863   3.980
 7384TIP3   OH222036   6.237   0.870   4.157
 7384TIP3    H122037   6.305   0.841   4.218
 7384TIP3    H222038   6.240   0.965   4.160
 7385TIP3   OH222039   5.961   0.585   4.352
 7385TIP3    H122040   5.894   0.635   4.399
 7385TIP3    H222041   5.984   0.642   4.277
 7386TIP3   OH222042   6.510   1.053   4.086
 7386TIP3    H122043   6.425   1.078   4.120
 7386TIP3    H222044   6.533   1.123   4.024
 7387TIP3   OH222045   6.671   0.034   4.511
 7387TIP3    H122046   6.745   0.088   4.482
 7387TIP3    H222047   6.709  -0.027   4.574
 7388TIP3   OH222048   7.029   0.514   5.300
 7388TIP3    H122049   6.975   0.539   5.375
 7388TIP3    H222050   7.040   0.419   5.310
 7389TIP3   OH222051   6.260   1.140   4.161
 7389TIP3    H122052   6.241   1.209   4.097
 7389TIP3    H222053   6.246   1.182   4.246
 7390TIP3   OH222054   7.333   0.529   4.625
 7390TIP3    H122055   7.239   0.526   4.643
 7390TIP3    H222056   7.370   0.570   4.703
 7391TIP3   OH222057   5.987   0.754   4.133
 7391TIP3    H122058   6.063   0.812   4.145
 7391TIP3    H222059   6.016   0.690   4.068
 7392TIP3   OH222060   5.818   0.072   4.278
 7392TIP3    H122061   5.886   0.098   4.340
 7392TIP3    H222062   5.804   0.150   4.224
 7393TIP3   OH222063   7.220   1.498   4.623
 7393TIP3    H122064   7.181   1.543   4.548
 7393TIP3    H222065   7.314   1.498   4.605
 7394TIP3   OH222066   5.820   1.005   4.533
 7394TIP3    H122067   5.782   1.044   4.612
 7394TIP3    H222068   5.774   1.049   4.461
 7395TIP3   OH222069   6.028   1.538   5.598
 7395TIP3    H122070   6.106   1.548   5.652
 7395TIP3    H222071   6.020   1.443   5.584
 7396TIP3   OH222072   6.483   1.466   5.648
 7396TIP3    H122073   6.574   1.441   5.657
 7396TIP3    H222074   6.449   1.410   5.578
 7397TIP3   OH222075   6.455   1.057   3.762
 7397TIP3    H122076   6.407   0.990   3.810
 7397TIP3    H222077   6.527   1.009   3.720
 7398TIP3   OH222078   7.071   1.382   5.394
 7398TIP3    H122079   7.078   1.308   5.455
 7398TIP3    H222080   7.152   1.430   5.406
 7399TIP3   OH222081   6.893   1.095   3.678
 7399TIP3    H122082   6.929   1.030   3.739
 7399TIP3    H222083   6.948   1.088   3.601
 7400TIP3   OH222084   6.131   0.952   5.785
 7400TIP3    H122085   6.165   0.862   5.783
 7400TIP3    H222086   6.044   0.946   5.746
 7401TIP3   OH222087   6.102   0.559   3.985
 7401TIP3    H122088   6.152   0.538   4.064
 7401TIP3    H222089   6.169   0.577   3.918
 7402TIP3   OH222090   6.755   1.079   5.534
 7402TIP3    H122091   6.718   1.060   5.447
 7402TIP3    H222092   6.850   1.075   5.520
 7403TIP3   OH222093   6.695   0.788   3.840
 7403TIP3    H122094   6.674   0.800   3.933
 7403TIP3    H222095   6.682   0.695   3.824
 7404TIP3   OH222096   7.218   0.997   5.159
 7404TIP3    H122097   7.277   1.070   5.142
 7404TIP3    H222098   7.147   1.008   5.097
 7405TIP3   OH222099   6.276   0.718   5.757
 7405TIP3    H122100   6.357   0.706   5.709
 7405TIP3    H222101   6.303   0.728   5.848
 7406TIP3   OH222102   6.265   0.521   4.210
 7406TIP3    H122103   6.250   0.483   4.296
 7406TIP3    H222104   6.316   0.455   4.163
 7407TIP3   OH222105   6.496   0.663   5.596
 7407TIP3    H122106   6.438   0.696   5.527
 7407TIP3    H222107   6.583   0.661   5.555
 7408TIP3   OH222108   6.416   0.359   4.055
 7408TIP3    H122109   6.371   0.341   3.973
 7408TIP3    H222110   6.509   0.348   4.034
 7409TIP3   OH222111   7.116   0.919   5.566
 7409TIP3    H122112   7.187   0.888   5.509
 7409TIP3    H222113   7.134   0.880   5.651
 7410TIP3   OH222114   7.247   0.585   3.695
 7410TIP3    H122115   7.219   0.546   3.612
 7410TIP3    H222116   7.227   0.678   3.686
 7411TIP3   OH222117   6.493   0.520   5.301
 7411TIP3    H122118   6.554   0.540   5.372
 7411TIP3    H222119   6.412   0.495   5.345
 7412TIP3   OH222120   6.813   0.729   5.220
 7412TIP3    H122121   6.883   0.717   5.156
 7412TIP3    H222122   6.811   0.823   5.237
 7413TIP3   OH222123   7.330   0.552   5.750
 7413TIP3    H122124   7.296   0.601   5.675
 7413TIP3    H222125   7.378   0.617   5.802
 7414TIP3   OH222126   7.355   0.927   5.383
 7414TIP3    H122127   7.288   0.951   5.318
 7414TIP3    H222128   7.438   0.934   5.336
 7415TIP3   OH222129   6.465   0.436   5.742
 7415TIP3    H122130   6.522   0.451   5.817
 7415TIP3    H222131   6.461   0.521   5.698
 7416TIP3   OH222132   7.090   0.449   5.585
 7416TIP3    H122133   7.086   0.419   5.676
 7416TIP3    H222134   7.129   0.375   5.538
 7417TIP3   OH222135   6.259   1.346   3.978
 7417TIP3    H122136   6.349   1.328   3.952
 7417TIP3    H222137   6.219   1.388   3.902
 7418TIP3   OH222138   5.717   0.739   4.164
 7418TIP3    H122139   5.811   0.754   4.154
 7418TIP3    H222140   5.702   0.655   4.122
 7419TIP3   OH222141   5.623   1.310   4.623
 7419TIP3    H122142   5.560   1.254   4.576
 7419TIP3    H222143   5.670   1.249   4.680
 7420TIP3   OH222144   5.773   1.140   4.784
 7420TIP3    H122145   5.762   1.077   4.856
 7420TIP3    H222146   5.834   1.206   4.819
 7421TIP3   OH222147   7.495   1.542   4.597
 7421TIP3    H122148   7.519   1.567   4.686
 7421TIP3    H222149   7.542   1.604   4.541
 7422TIP3   OH222150   7.536   1.569   4.872
 7422TIP3    H122151   7.487   1.486   4.873
 7422TIP3    H222152   7.605   1.556   4.937
 7423TIP3   OH222153   7.559   1.284   5.455
 7423TIP3    H122154   7.488   1.294   5.517
 7423TIP3    H222155   7.606   1.367   5.459
 7424TIP3   OH222156   7.405   0.786   4.042
 7424TIP3    H122157   7.452   0.864   4.012
 7424TIP3    H222158   7.462   0.748   4.109
 7425TIP3   OH222159   7.562   0.630   4.216
 7425TIP3    H122160   7.487   0.617   4.274
 7425TIP3    H222161   7.622   0.684   4.267
 7426TIP3   OH222162   7.565   1.072   4.698
 7426TIP3    H122163   7.609   1.004   4.647
 7426TIP3    H222164   7.567   1.149   4.641
 7427TIP3   OH222165   7.391   1.330   4.892
 7427TIP3    H122166   7.330   1.388   4.938
 7427TIP3    H222167   7.338   1.286   4.826
 7428TIP3   OH222168   7.419   0.544   3.911
 7428TIP3    H122169   7.362   0.548   3.835
 7428TIP3    H222170   7.407   0.629   3.955
 7429TIP3   OH222171   7.373   0.295   3.741
 7429TIP3    H122172   7.283   0.328   3.750
 7429TIP3    H222173   7.366   0.201   3.760
 7430TIP3   OH222174   7.334   0.569   4.359
 7430TIP3    H122175   7.319   0.480   4.327
 7430TIP3    H222176   7.338   0.559   4.454
 7431TIP3   OH222177   5.972   0.615   5.149
 7431TIP3    H122178   5.973   0.586   5.058
 7431TIP3    H222179   6.064   0.634   5.169
 7432TIP3   OH222180   7.583   0.938   5.224
 7432TIP3    H122181   7.661   0.900   5.185
 7432TIP3    H222182   7.548   0.997   5.157
 7433TIP3   OH222183   7.833   0.778   5.265
 7433TIP3    H122184   7.795   0.750   5.348
 7433TIP3    H222185   7.906   0.835   5.289
 7434TIP3   OH222186   7.201   0.195   4.358
 7434TIP3    H122187   7.260   0.120   4.349
 7434TIP3    H222188   7.239   0.263   4.303
 7435TIP3   OH222189   7.566   0.378   4.841
 7435TIP3    H122190   7.578   0.466   4.804
 7435TIP3    H222191   7.507   0.392   4.916
 7436TIP3   OH222192   7.671   0.591   5.042
 7436TIP3    H122193   7.639   0.618   5.128
 7436TIP3    H222194   7.634   0.654   4.981
 7437TIP3   OH222195   5.810   0.343   5.138
 7437TIP3    H122196   5.890   0.327   5.087
 7437TIP3    H222197   5.827   0.427   5.181
 7438TIP3   OH222198   7.059   1.461   4.237
 7438TIP3    H122199   7.116   1.449   4.161
 7438TIP3    H222200   7.101   1.529   4.289
 7439TIP3   OH222201   6.147   1.264   5.626
 7439TIP3    H122202   6.055   1.240   5.616
 7439TIP3    H222203   6.164   1.257   5.720
 7440TIP3   OH222204   6.393   1.303   5.169
 7440TIP3    H122205   6.335   1.374   5.141
 7440TIP3    H222206   6.466   1.305   5.108
 7441TIP3   OH222207   6.756   1.523   5.306
 7441TIP3    H122208   6.794   1.524   5.394
 7441TIP3    H222209   6.815   1.579   5.254
 7442TIP3   OH222210   6.934   1.691   5.180
 7442TIP3    H122211   6.971   1.642   5.106
 7442TIP3    H222212   7.009   1.733   5.221
 7443TIP3   OH222213   6.030   1.529   5.213
 7443TIP3    H122214   5.939   1.547   5.190
 7443TIP3    H222215   6.053   1.597   5.276
 7444TIP3   OH222216   6.263   1.524   5.064
 7444TIP3    H122217   6.179   1.526   5.110
 7444TIP3    H222218   6.241   1.549   4.974
 7445TIP3   OH222219   6.689   1.548   4.849
 7445TIP3    H122220   6.617   1.564   4.788
 7445TIP3    H222221   6.698   1.631   4.897
 7446TIP3   OH222222   6.964   1.561   4.935
 7446TIP3    H122223   6.881   1.537   4.895
 7446TIP3    H222224   7.009   1.611   4.868
 7447TIP3   OH222225   7.167   1.701   4.802
 7447TIP3    H122226   7.161   1.781   4.751
 7447TIP3    H222227   7.186   1.633   4.738
 7448TIP3   OH222228   5.963   1.307   4.909
 7448TIP3    H122229   5.979   1.286   5.001
 7448TIP3    H222230   6.039   1.272   4.863
 7449TIP3   OH222231   6.171   1.208   4.766
 7449TIP3    H122232   6.201   1.131   4.717
 7449TIP3    H222233   6.251   1.258   4.782
 7450TIP3   OH222234   6.432   1.307   4.778
 7450TIP3    H122235   6.472   1.238   4.725
 7450TIP3    H222236   6.482   1.307   4.860
 7451TIP3   OH222237   5.699   1.122   4.317
 7451TIP3    H122238   5.617   1.092   4.278
 7451TIP3    H222239   5.709   1.211   4.284
 7452TIP3   OH222240   6.516   1.276   3.911
 7452TIP3    H122241   6.599   1.305   3.873
 7452TIP3    H222242   6.485   1.207   3.851
 7453TIP3   OH222243   7.212   1.409   4.011
 7453TIP3    H122244   7.206   1.314   4.003
 7453TIP3    H222245   7.171   1.443   3.932
 7454TIP3   OH222246   5.815   1.109   3.964
 7454TIP3    H122247   5.820   1.125   4.059
 7454TIP3    H222248   5.897   1.064   3.943
 7455TIP3   OH222249   7.441   1.558   5.211
 7455TIP3    H122250   7.373   1.531   5.149
 7455TIP3    H222251   7.428   1.652   5.221
 7456TIP3   OH222252   8.709   0.925   3.955
 7456TIP3    H122253   8.690   1.017   3.941
 7456TIP3    H222254   8.641   0.878   3.906
 7457TIP3   OH222255   8.636   0.931   4.322
 7457TIP3    H122256   8.688   0.937   4.402
 7457TIP3    H222257   8.607   0.840   4.318
 7458TIP3   OH222258   7.976   0.852   4.697
 7458TIP3    H122259   8.015   0.827   4.781
 7458TIP3    H222260   8.050   0.880   4.643
 7459TIP3   OH222261   8.951   1.236   4.035
 7459TIP3    H122262   8.933   1.173   4.105
 7459TIP3    H222263   8.979   1.315   4.080
 7460TIP3   OH222264   7.986   1.227   4.393
 7460TIP3    H122265   7.965   1.134   4.393
 7460TIP3    H222266   8.081   1.230   4.380
 7461TIP3   OH222267   7.705   0.388   4.110
 7461TIP3    H122268   7.678   0.479   4.120
 7461TIP3    H222269   7.643   0.339   4.164
 7462TIP3   OH222270   7.753   0.767   4.362
 7462TIP3    H122271   7.801   0.687   4.384
 7462TIP3    H222272   7.821   0.833   4.348
 7463TIP3   OH222273   8.649   1.647   4.060
 7463TIP3    H122274   8.661   1.583   3.990
 7463TIP3    H222275   8.667   1.599   4.141
 7464TIP3   OH222276   8.496   1.166   4.362
 7464TIP3    H122277   8.529   1.082   4.330
 7464TIP3    H222278   8.574   1.219   4.378
 7465TIP3   OH222279   8.977   0.807   4.359
 7465TIP3    H122280   9.048   0.754   4.395
 7465TIP3    H222281   8.954   0.763   4.277
 7466TIP3   OH222282   7.858   0.530   4.456
 7466TIP3    H122283   7.951   0.528   4.477
 7466TIP3    H222284   7.842   0.447   4.411
 7467TIP3   OH222285   8.299   0.765   4.321
 7467TIP3    H122286   8.390   0.737   4.327
 7467TIP3    H222287   8.253   0.689   4.284
 7468TIP3   OH222288   8.619   1.158   3.813
 7468TIP3    H122289   8.581   1.126   3.731
 7468TIP3    H222290   8.560   1.227   3.842
 7469TIP3   OH222291   8.366   1.099   4.597
 7469TIP3    H122292   8.303   1.167   4.621
 7469TIP3    H222293   8.407   1.131   4.516
 7470TIP3   OH222294   8.123   0.480   4.491
 7470TIP3    H122295   8.164   0.537   4.556
 7470TIP3    H222296   8.192   0.417   4.468
 7471TIP3   OH222297   8.186   1.288   4.679
 7471TIP3    H122298   8.175   1.377   4.646
 7471TIP3    H222299   8.106   1.271   4.730
 7472TIP3   OH222300   7.561   0.993   3.938
 7472TIP3    H122301   7.530   1.012   3.850
 7472TIP3    H222302   7.583   1.078   3.975
 7473TIP3   OH222303   8.993   1.482   4.173
 7473TIP3    H122304   8.902   1.482   4.204
 7473TIP3    H222305   9.007   1.570   4.140
 7474TIP3   OH222306   8.717   1.501   3.829
 7474TIP3    H122307   8.779   1.429   3.816
 7474TIP3    H222308   8.767   1.579   3.806
 7475TIP3   OH222309   8.868   1.265   3.773
 7475TIP3    H122310   8.782   1.224   3.786
 7475TIP3    H222311   8.913   1.255   3.857
 7476TIP3   OH222312   8.533   0.810   3.782
 7476TIP3    H122313   8.449   0.852   3.762
 7476TIP3    H222314   8.576   0.803   3.696
 7477TIP3   OH222315   8.500   0.599   3.518
 7477TIP3    H122316   8.574   0.656   3.537
 7477TIP3    H222317   8.526   0.513   3.550
 7478TIP3   OH222318   8.897   0.864   3.756
 7478TIP3    H122319   8.843   0.888   3.832
 7478TIP3    H222320   8.977   0.828   3.794
 7479TIP3   OH222321   9.048   0.948   4.683
 7479TIP3    H122322   9.068   1.018   4.745
 7479TIP3    H222323   8.976   0.982   4.630
 7480TIP3   OH222324   8.097   0.872   4.141
 7480TIP3    H122325   8.062   0.810   4.077
 7480TIP3    H222326   8.166   0.823   4.186
 7481TIP3   OH222327   8.245   1.270   4.297
 7481TIP3    H122328   8.226   1.259   4.204
 7481TIP3    H222329   8.334   1.235   4.308
 7482TIP3   OH222330   8.197   0.892   4.535
 7482TIP3    H122331   8.237   0.855   4.456
 7482TIP3    H222332   8.256   0.963   4.561
 7483TIP3   OH222333   8.741   1.495   4.280
 7483TIP3    H122334   8.736   1.566   4.344
 7483TIP3    H222335   8.738   1.415   4.332
 7484TIP3   OH222336   8.385   1.382   4.847
 7484TIP3    H122337   8.324   1.443   4.890
 7484TIP3    H222338   8.329   1.330   4.789
 7485TIP3   OH222339   8.718   0.754   3.577
 7485TIP3    H122340   8.788   0.793   3.630
 7485TIP3    H222341   8.746   0.769   3.487
 7486TIP3   OH222342   8.113   0.983   4.967
 7486TIP3    H122343   8.122   1.071   5.003
 7486TIP3    H222344   8.021   0.960   4.984
 7487TIP3   OH222345   8.466   1.389   3.841
 7487TIP3    H122346   8.548   1.438   3.843
 7487TIP3    H222347   8.407   1.443   3.789
 7488TIP3   OH222348   8.182   1.546   4.932
 7488TIP3    H122349   8.156   1.556   4.840
 7488TIP3    H222350   8.100   1.528   4.978
 7489TIP3   OH222351   7.999   0.711   3.933
 7489TIP3    H122352   7.913   0.748   3.912
 7489TIP3    H222353   7.998   0.624   3.891
 7490TIP3   OH222354   7.775   1.103   4.884
 7490TIP3    H122355   7.701   1.096   4.824
 7490TIP3    H222356   7.803   1.013   4.898
 7491TIP3   OH222357   7.615   1.297   4.543
 7491TIP3    H122358   7.705   1.325   4.561
 7491TIP3    H222359   7.561   1.374   4.565
 7492TIP3   OH222360   8.579   1.516   4.708
 7492TIP3    H122361   8.570   1.607   4.738
 7492TIP3    H222362   8.513   1.468   4.758
 7493TIP3   OH222363   8.357   1.619   3.668
 7493TIP3    H122364   8.314   1.600   3.585
 7493TIP3    H222365   8.320   1.702   3.697
 7494TIP3   OH222366   7.793   1.478   4.042
 7494TIP3    H122367   7.838   1.471   4.126
 7494TIP3    H222368   7.745   1.396   4.034
 7495TIP3   OH222369   8.567   1.549   3.293
 7495TIP3    H122370   8.615   1.471   3.265
 7495TIP3    H222371   8.599   1.567   3.381
 7496TIP3   OH222372   8.610   1.599   3.563
 7496TIP3    H122373   8.524   1.601   3.606
 7496TIP3    H222374   8.669   1.560   3.629
 7497TIP3   OH222375   7.967   1.300   4.849
 7497TIP3    H122376   8.015   1.297   4.932
 7497TIP3    H222377   7.900   1.232   4.858
 7498TIP3   OH222378   8.801   0.799   3.316
 7498TIP3    H122379   8.760   0.771   3.234
 7498TIP3    H222380   8.806   0.894   3.309
 7499TIP3   OH222381   8.241   0.652   4.671
 7499TIP3    H122382   8.198   0.666   4.755
 7499TIP3    H222383   8.218   0.731   4.620
 7500TIP3   OH222384   8.149   0.583   4.189
 7500TIP3    H122385   8.112   0.505   4.230
 7500TIP3    H222386   8.174   0.555   4.101
 7501TIP3   OH222387   8.756   0.608   3.872
 7501TIP3    H122388   8.732   0.648   3.789
 7501TIP3    H222389   8.805   0.529   3.848
 7502TIP3   OH222390   8.860   0.989   4.935
 7502TIP3    H122391   8.823   0.942   5.009
 7502TIP3    H222392   8.954   0.972   4.941
 7503TIP3   OH222393   8.828   0.737   4.127
 7503TIP3    H122394   8.791   0.815   4.086
 7503TIP3    H222395   8.836   0.674   4.057
 7504TIP3   OH222396   8.132   0.712   4.913
 7504TIP3    H122397   8.115   0.797   4.953
 7504TIP3    H222398   8.061   0.656   4.945
 7505TIP3   OH222399   8.801   0.912   4.535
 7505TIP3    H122400   8.868   0.872   4.480
 7505TIP3    H222401   8.796   0.856   4.612
 7506TIP3   OH222402   7.886   0.301   4.300
 7506TIP3    H122403   7.829   0.330   4.228
 7506TIP3    H222404   7.973   0.294   4.260
 7507TIP3   OH222405   8.238   0.443   3.959
 7507TIP3    H122406   8.322   0.422   3.918
 7507TIP3    H222407   8.181   0.465   3.886
 7508TIP3   OH222408   8.070   0.502   3.753
 7508TIP3    H122409   8.011   0.436   3.715
 7508TIP3    H222410   8.125   0.530   3.680
 7509TIP3   OH222411   9.156   2.064   4.654
 7509TIP3    H122412   9.134   2.086   4.563
 7509TIP3    H222413   9.248   2.090   4.662
 7510TIP3   OH222414   8.122   1.226   5.091
 7510TIP3    H122415   8.205   1.238   5.138
 7510TIP3    H222416   8.055   1.236   5.158
 7511TIP3   OH222417   8.552   0.664   4.351
 7511TIP3    H122418   8.555   0.579   4.306
 7511TIP3    H222419   8.573   0.643   4.442
 7512TIP3   OH222420   8.599   0.574   4.604
 7512TIP3    H122421   8.531   0.515   4.637
 7512TIP3    H222422   8.675   0.555   4.658
 7513TIP3   OH222423   8.296   0.943   3.726
 7513TIP3    H122424   8.216   0.897   3.699
 7513TIP3    H222425   8.275   0.979   3.812
 7514TIP3   OH222426   8.757   1.273   4.699
 7514TIP3    H122427   8.710   1.196   4.731
 7514TIP3    H222428   8.699   1.346   4.720
 7515TIP3   OH222429   7.969   0.944   4.372
 7515TIP3    H122430   8.007   0.929   4.285
 7515TIP3    H222431   8.040   0.924   4.432
 7516TIP3   OH222432   8.467   1.098   3.588
 7516TIP3    H122433   8.420   1.181   3.582
 7516TIP3    H222434   8.407   1.039   3.632
 7517TIP3   OH222435   7.876   0.853   5.004
 7517TIP3    H122436   7.871   0.816   5.092
 7517TIP3    H222437   7.798   0.820   4.959
 7518TIP3   OH222438   8.590   1.050   5.040
 7518TIP3    H122439   8.511   0.998   5.025
 7518TIP3    H222440   8.633   1.053   4.954
 7519TIP3   OH222441   8.843   1.566   4.629
 7519TIP3    H122442   8.750   1.543   4.635
 7519TIP3    H222443   8.868   1.588   4.719
 7520TIP3   OH222444   8.913   1.388   3.512
 7520TIP3    H122445   8.905   1.347   3.598
 7520TIP3    H222446   8.902   1.316   3.450
 7521TIP3   OH222447   8.885   1.059   4.252
 7521TIP3    H122448   8.797   1.021   4.245
 7521TIP3    H222449   8.940   0.988   4.285
 7522TIP3   OH222450   8.113   1.281   4.050
 7522TIP3    H122451   8.111   1.357   3.992
 7522TIP3    H222452   8.022   1.266   4.074
 7523TIP3   OH222453   7.669   0.583   3.779
 7523TIP3    H122454   7.707   0.668   3.799
 7523TIP3    H222455   7.587   0.581   3.830
 7524TIP3   OH222456   8.212   1.042   3.959
 7524TIP3    H122457   8.193   1.132   3.987
 7524TIP3    H222458   8.173   0.987   4.027
 7525TIP3   OH222459   8.398   1.595   4.501
 7525TIP3    H122460   8.432   1.670   4.452
 7525TIP3    H222461   8.474   1.562   4.549
 7526TIP3   OH222462   8.028   1.499   3.899
 7526TIP3    H122463   7.940   1.504   3.937
 7526TIP3    H222464   8.062   1.588   3.905
 7527TIP3   OH222465   8.751   1.258   4.421
 7527TIP3    H122466   8.769   1.256   4.516
 7527TIP3    H222467   8.816   1.198   4.384
 7528TIP3   OH222468   8.759   1.085   3.329
 7528TIP3    H122469   8.796   1.082   3.417
 7528TIP3    H222470   8.665   1.076   3.342
 7529TIP3   OH222471   9.018   1.724   4.493
 7529TIP3    H122472   8.946   1.671   4.527
 7529TIP3    H222473   8.979   1.779   4.426
 7530TIP3   OH222474   8.886   1.071   3.572
 7530TIP3    H122475   8.899   0.990   3.621
 7530TIP3    H222476   8.900   1.141   3.636
 7531TIP3   OH222477   7.822   1.491   4.665
 7531TIP3    H122478   7.876   1.434   4.719
 7531TIP3    H222479   7.835   1.579   4.701
 7532TIP3   OH222480   8.089   1.118   3.368
 7532TIP3    H122481   8.102   1.027   3.340
 7532TIP3    H222482   8.076   1.112   3.462
 7533TIP3   OH222483   8.036   1.125   3.640
 7533TIP3    H122484   8.109   1.100   3.696
 7533TIP3    H222485   8.035   1.221   3.643
 7534TIP3   OH222486   7.765   0.830   3.845
 7534TIP3    H122487   7.701   0.879   3.897
 7534TIP3    H222488   7.785   0.888   3.771
 7535TIP3   OH222489   8.307   1.315   3.571
 7535TIP3    H122490   8.221   1.337   3.607
 7535TIP3    H222491   8.327   1.385   3.509
 7536TIP3   OH222492   8.511   0.368   3.928
 7536TIP3    H122493   8.535   0.453   3.964
 7536TIP3    H222494   8.543   0.305   3.993
 7537TIP3   OH222495   8.776   0.785   4.775
 7537TIP3    H122496   8.797   0.864   4.825
 7537TIP3    H222497   8.852   0.728   4.788
 7538TIP3   OH222498   8.056   1.396   3.648
 7538TIP3    H122499   8.037   1.467   3.587
 7538TIP3    H222500   8.044   1.435   3.734
 7539TIP3   OH222501   7.789   1.001   3.627
 7539TIP3    H122502   7.864   1.060   3.637
 7539TIP3    H222503   7.815   0.942   3.556
 7540TIP3   OH222504   7.660   0.315   3.762
 7540TIP3    H122505   7.678   0.408   3.755
 7540TIP3    H222506   7.566   0.308   3.745
 7541TIP3   OH222507   9.039   1.746   4.083
 7541TIP3    H122508   8.994   1.803   4.021
 7541TIP3    H222509   9.127   1.735   4.045
 7542TIP3   OH222510   7.616   1.258   4.020
 7542TIP3    H122511   7.575   1.296   4.098
 7542TIP3    H222512   7.571   1.301   3.947
 7543TIP3   OH222513   7.820   1.790   5.085
 7543TIP3    H122514   7.903   1.789   5.133
 7543TIP3    H222515   7.796   1.698   5.077
 7544TIP3   OH222516   8.286   1.704   5.131
 7544TIP3    H122517   8.378   1.679   5.139
 7544TIP3    H222518   8.254   1.652   5.057
 7545TIP3   OH222519   8.246   1.311   3.250
 7545TIP3    H122520   8.198   1.242   3.296
 7545TIP3    H222521   8.320   1.266   3.209
 7546TIP3   OH222522   8.905   1.650   4.885
 7546TIP3    H122523   8.922   1.585   4.954
 7546TIP3    H222524   8.985   1.703   4.881
 7547TIP3   OH222525   8.691   1.324   3.197
 7547TIP3    H122526   8.732   1.244   3.230
 7547TIP3    H222527   8.729   1.336   3.110
 7548TIP3   OH222528   7.919   1.211   5.279
 7548TIP3    H122529   7.939   1.118   5.284
 7548TIP3    H222530   7.836   1.216   5.232
 7549TIP3   OH222531   7.900   0.813   3.462
 7549TIP3    H122532   7.951   0.799   3.542
 7549TIP3    H222533   7.965   0.830   3.395
 7550TIP3   OH222534   8.537   1.317   5.063
 7550TIP3    H122535   8.493   1.332   4.980
 7550TIP3    H222536   8.574   1.229   5.055
 7551TIP3   OH222537   8.480   1.046   3.319
 7551TIP3    H122538   8.465   1.061   3.413
 7551TIP3    H222539   8.470   0.951   3.309
 7552TIP3   OH222540   9.042   1.311   4.654
 7552TIP3    H122541   9.071   1.362   4.578
 7552TIP3    H222542   8.948   1.328   4.660
 7553TIP3   OH222543   8.039   0.954   5.285
 7553TIP3    H122544   8.117   0.912   5.248
 7553TIP3    H222545   8.071   0.995   5.366
 7554TIP3   OH222546   8.078   0.788   3.670
 7554TIP3    H122547   8.064   0.757   3.760
 7554TIP3    H222548   8.131   0.720   3.629
 7555TIP3   OH222549   8.374   0.899   4.979
 7555TIP3    H122550   8.287   0.934   4.959
 7555TIP3    H222551   8.404   0.863   4.895
 7556TIP3   OH222552   8.224   0.593   3.542
 7556TIP3    H122553   8.200   0.570   3.452
 7556TIP3    H222554   8.319   0.600   3.540
 7557TIP3   OH222555   8.918   1.221   5.084
 7557TIP3    H122556   8.912   1.180   4.997
 7557TIP3    H222557   8.905   1.149   5.145
 7558TIP3   OH222558   8.567   0.648   4.999
 7558TIP3    H122559   8.481   0.621   5.033
 7558TIP3    H222560   8.546   0.696   4.919
 7559TIP3   OH222561   8.591   1.056   4.757
 7559TIP3    H122562   8.621   0.969   4.727
 7559TIP3    H222563   8.510   1.071   4.709
 7560TIP3   OH222564   9.223   0.899   5.228
 7560TIP3    H122565   9.151   0.876   5.169
 7560TIP3    H222566   9.192   0.978   5.273
 7561TIP3   OH222567   9.126   1.154   4.855
 7561TIP3    H122568   9.097   1.217   4.789
 7561TIP3    H222569   9.218   1.137   4.834
 7562TIP3   OH222570   8.289   0.841   5.234
 7562TIP3    H122571   8.354   0.788   5.280
 7562TIP3    H222572   8.332   0.864   5.151
 7563TIP3   OH222573   8.772   0.797   5.112
 7563TIP3    H122574   8.791   0.748   5.192
 7563TIP3    H222575   8.693   0.755   5.077
 7564TIP3   OH222576   8.055   1.604   3.466
 7564TIP3    H122577   8.144   1.584   3.438
 7564TIP3    H222578   8.014   1.647   3.391
 7565TIP3   OH222579   7.517   0.995   3.654
 7565TIP3    H122580   7.611   1.008   3.645
 7565TIP3    H222581   7.501   0.911   3.610
 7566TIP3   OH222582   7.419   1.563   4.105
 7566TIP3    H122583   7.355   1.509   4.059
 7566TIP3    H222584   7.465   1.502   4.163
 7567TIP3   OH222585   7.565   1.395   4.270
 7567TIP3    H122586   7.557   1.327   4.337
 7567TIP3    H222587   7.617   1.464   4.312
 7568TIP3   OH222588   9.109   1.465   4.433
 7568TIP3    H122589   9.095   1.557   4.453
 7568TIP3    H222590   9.084   1.457   4.340
 7569TIP3   OH222591   7.716   0.853   4.620
 7569TIP3    H122592   7.714   0.836   4.525
 7569TIP3    H222593   7.810   0.859   4.641
 7570TIP3   OH222594   7.674   0.575   4.656
 7570TIP3    H122595   7.733   0.565   4.581
 7570TIP3    H222596   7.656   0.669   4.660
 7571TIP3   OH222597   8.833   1.727   3.741
 7571TIP3    H122598   8.884   1.711   3.661
 7571TIP3    H222599   8.885   1.791   3.790
 7572TIP3   OH222600   7.964   1.509   5.100
 7572TIP3    H122601   7.869   1.499   5.095
 7572TIP3    H222602   7.984   1.513   5.193
 7573TIP3   OH222603   8.169   1.564   4.650
 7573TIP3    H122604   8.119   1.639   4.619
 7573TIP3    H222605   8.254   1.571   4.607
 7574TIP3   OH222606   8.559   1.782   4.790
 7574TIP3    H122607   8.599   1.781   4.877
 7574TIP3    H222608   8.619   1.835   4.737
 7575TIP3   OH222609   8.748   1.938   4.663
 7575TIP3    H122610   8.806   1.881   4.613
 7575TIP3    H222611   8.807   1.990   4.718
 7576TIP3   OH222612   7.823   1.792   4.702
 7576TIP3    H122613   7.732   1.809   4.681
 7576TIP3    H222614   7.846   1.860   4.765
 7577TIP3   OH222615   8.056   1.793   4.552
 7577TIP3    H122616   7.972   1.795   4.598
 7577TIP3    H222617   8.034   1.815   4.461
 7578TIP3   OH222618   8.461   1.813   4.342
 7578TIP3    H122619   8.389   1.823   4.280
 7578TIP3    H222620   8.471   1.900   4.381
 7579TIP3   OH222621   8.718   1.740   4.402
 7579TIP3    H122622   8.630   1.766   4.373
 7579TIP3    H222623   8.777   1.799   4.355
 7580TIP3   OH222624   8.920   1.887   4.289
 7580TIP3    H122625   8.914   1.977   4.256
 7580TIP3    H222626   8.960   1.838   4.217
 7581TIP3   OH222627   7.734   1.575   4.414
 7581TIP3    H122628   7.758   1.553   4.503
 7581TIP3    H222629   7.808   1.544   4.361
 7582TIP3   OH222630   7.941   1.467   4.275
 7582TIP3    H122631   7.951   1.383   4.320
 7582TIP3    H222632   8.028   1.507   4.279
 7583TIP3   OH222633   8.209   1.548   4.301
 7583TIP3    H122634   8.225   1.455   4.287
 7583TIP3    H222635   8.267   1.572   4.373
 7584TIP3   OH222636   7.496   1.377   3.804
 7584TIP3    H122637   7.414   1.347   3.766
 7584TIP3    H222638   7.505   1.467   3.772
 7585TIP3   OH222639   8.310   1.532   3.393
 7585TIP3    H122640   8.395   1.557   3.357
 7585TIP3    H222641   8.278   1.463   3.335
 7586TIP3   OH222642   8.971   1.659   3.517
 7586TIP3    H122643   8.960   1.565   3.506
 7586TIP3    H222644   8.952   1.695   3.430
 7587TIP3   OH222645   7.610   1.361   3.451
 7587TIP3    H122646   7.615   1.379   3.545
 7587TIP3    H222647   7.693   1.317   3.430
 7588TIP3   OH222648   9.153   1.796   4.723
 7588TIP3    H122649   9.120   1.754   4.644
 7588TIP3    H222650   9.164   1.887   4.699
 7589TIP3   OH222651   1.167   1.744   5.631
 7589TIP3    H122652   1.132   1.827   5.599
 7589TIP3    H222653   1.101   1.679   5.607
 7590TIP3   OH222654   1.165   1.728   6.034
 7590TIP3    H122655   1.217   1.703   6.111
 7590TIP3    H222656   1.127   1.646   6.003
 7591TIP3   OH222657   0.507   1.663   6.437
 7591TIP3    H122658   0.438   1.602   6.411
 7591TIP3    H222659   0.569   1.661   6.365
 7592TIP3   OH222660   1.434   2.027   5.724
 7592TIP3    H122661   1.420   1.959   5.790
 7592TIP3    H222662   1.451   2.106   5.775
 7593TIP3   OH222663   0.462   2.023   6.099
 7593TIP3    H122664   0.448   1.928   6.102
 7593TIP3    H222665   0.555   2.033   6.082
 7594TIP3   OH222666   1.090   2.451   5.742
 7594TIP3    H122667   1.112   2.389   5.673
 7594TIP3    H222668   1.097   2.401   5.823
 7595TIP3   OH222669   0.962   1.936   6.056
 7595TIP3    H122670   1.008   1.858   6.024
 7595TIP3    H222671   1.032   1.995   6.085
 7596TIP3   OH222672   1.998   1.247   6.061
 7596TIP3    H122673   2.006   1.332   6.104
 7596TIP3    H222674   2.019   1.264   5.969
 7597TIP3   OH222675   1.380   1.425   6.085
 7597TIP3    H122676   1.417   1.339   6.106
 7597TIP3    H222677   1.336   1.412   6.000
 7598TIP3   OH222678   1.447   1.188   5.685
 7598TIP3    H122679   1.507   1.183   5.759
 7598TIP3    H222680   1.500   1.225   5.614
 7599TIP3   OH222681   0.780   1.520   5.996
 7599TIP3    H122682   0.875   1.510   5.988
 7599TIP3    H222683   0.746   1.431   5.987
 7600TIP3   OH222684   2.032   1.464   6.235
 7600TIP3    H122685   1.967   1.530   6.210
 7600TIP3    H222686   1.992   1.418   6.309
 7601TIP3   OH222687   1.060   1.951   5.480
 7601TIP3    H122688   1.022   1.918   5.399
 7601TIP3    H222689   1.003   2.023   5.506
 7602TIP3   OH222690   0.825   1.861   6.286
 7602TIP3    H122691   0.765   1.930   6.313
 7602TIP3    H222692   0.868   1.896   6.208
 7603TIP3   OH222693   1.601   1.211   5.910
 7603TIP3    H122694   1.561   1.188   5.994
 7603TIP3    H222695   1.652   1.290   5.927
 7604TIP3   OH222696   0.651   2.060   6.376
 7604TIP3    H122697   0.633   2.147   6.342
 7604TIP3    H222698   0.574   2.037   6.427
 7605TIP3   OH222699   0.053   1.796   5.609
 7605TIP3    H122700  -0.017   1.827   5.551
 7605TIP3    H222701   0.080   1.873   5.658
 7606TIP3   OH222702   1.463   2.275   5.865
 7606TIP3    H122703   1.375   2.267   5.903
 7606TIP3    H222704   1.461   2.358   5.818
 7607TIP3   OH222705   1.781   1.146   6.225
 7607TIP3    H122706   1.692   1.163   6.192
 7607TIP3    H222707   1.838   1.170   6.152
 7608TIP3   OH222708   1.168   2.309   5.516
 7608TIP3    H122709   1.221   2.230   5.508
 7608TIP3    H222710   1.226   2.379   5.487
 7609TIP3   OH222711   1.309   2.080   5.483
 7609TIP3    H122712   1.237   2.018   5.478
 7609TIP3    H222713   1.360   2.052   5.559
 7610TIP3   OH222714   1.704   2.157   6.208
 7610TIP3    H122715   1.681   2.083   6.151
 7610TIP3    H222716   1.688   2.234   6.155
 7611TIP3   OH222717   0.993   1.581   5.487
 7611TIP3    H122718   0.907   1.618   5.471
 7611TIP3    H222719   1.034   1.577   5.400
 7612TIP3   OH222720   0.962   1.457   5.198
 7612TIP3    H122721   1.050   1.478   5.229
 7612TIP3    H222722   0.958   1.362   5.195
 7613TIP3   OH222723   1.892   1.844   6.074
 7613TIP3    H122724   1.804   1.883   6.075
 7613TIP3    H222725   1.920   1.849   5.983
 7614TIP3   OH222726   1.364   1.688   5.450
 7614TIP3    H122727   1.307   1.712   5.523
 7614TIP3    H222728   1.443   1.653   5.492
 7615TIP3   OH222729   1.576   1.695   6.358
 7615TIP3    H122730   1.568   1.773   6.412
 7615TIP3    H222731   1.494   1.689   6.310
 7616TIP3   OH222732   0.586   1.657   5.850
 7616TIP3    H122733   0.549   1.598   5.784
 7616TIP3    H222734   0.657   1.607   5.890
 7617TIP3   OH222735   0.716   2.063   5.986
 7617TIP3    H122736   0.690   2.045   5.896
 7617TIP3    H222737   0.799   2.018   5.997
 7618TIP3   OH222738   0.684   1.633   6.226
 7618TIP3    H122739   0.719   1.594   6.146
 7618TIP3    H222740   0.740   1.709   6.243
 7619TIP3   OH222741   1.222   2.270   5.992
 7619TIP3    H122742   1.212   2.348   6.046
 7619TIP3    H222743   1.208   2.197   6.052
 7620TIP3   OH222744   0.842   2.169   6.544
 7620TIP3    H122745   0.778   2.222   6.592
 7620TIP3    H222746   0.789   2.115   6.485
 7621TIP3   OH222747   1.206   1.537   5.288
 7621TIP3    H122748   1.259   1.598   5.339
 7621TIP3    H222749   1.231   1.554   5.197
 7622TIP3   OH222750   0.624   1.732   6.675
 7622TIP3    H122751   0.611   1.825   6.694
 7622TIP3    H222752   0.576   1.717   6.594
 7623TIP3   OH222753   0.920   2.188   5.524
 7623TIP3    H122754   1.002   2.237   5.530
 7623TIP3    H222755   0.862   2.246   5.474
 7624TIP3   OH222756   0.620   2.312   6.635
 7624TIP3    H122757   0.595   2.321   6.543
 7624TIP3    H222758   0.537   2.296   6.680
 7625TIP3   OH222759   1.691   0.755   5.332
 7625TIP3    H122760   1.609   0.770   5.378
 7625TIP3    H222761   1.703   0.833   5.278
 7626TIP3   OH222762   0.474   1.499   5.653
 7626TIP3    H122763   0.382   1.516   5.631
 7626TIP3    H222764   0.477   1.404   5.669
 7627TIP3   OH222765   1.515   2.120   4.889
 7627TIP3    H122766   1.508   2.212   4.865
 7627TIP3    H222767   1.603   2.095   4.860
 7628TIP3   OH222768   0.108   2.089   6.185
 7628TIP3    H122769   0.165   2.014   6.170
 7628TIP3    H222770   0.151   2.140   6.254
 7629TIP3   OH222771   1.933   2.537   6.275
 7629TIP3    H122772   1.939   2.442   6.283
 7629TIP3    H222773   1.853   2.560   6.323
 7630TIP3   OH222774   1.033   2.311   6.407
 7630TIP3    H122775   1.024   2.402   6.434
 7630TIP3    H222776   0.965   2.264   6.456
 7631TIP3   OH222777   0.815   2.406   5.355
 7631TIP3    H122778   0.768   2.386   5.273
 7631TIP3    H222779   0.778   2.490   5.383
 7632TIP3   OH222780   0.253   2.267   5.739
 7632TIP3    H122781   0.296   2.255   5.824
 7632TIP3    H222782   0.200   2.189   5.727
 7633TIP3   OH222783   1.016   2.344   4.979
 7633TIP3    H122784   1.064   2.268   4.945
 7633TIP3    H222785   1.050   2.355   5.068
 7634TIP3   OH222786   1.068   2.383   5.249
 7634TIP3    H122787   0.981   2.386   5.290
 7634TIP3    H222788   1.124   2.342   5.315
 7635TIP3   OH222789   1.836   1.650   6.563
 7635TIP3    H122790   1.753   1.640   6.516
 7635TIP3    H222791   1.856   1.562   6.596
 7636TIP3   OH222792   0.435   2.056   6.551
 7636TIP3    H122793   0.484   2.055   6.633
 7636TIP3    H222794   0.363   1.994   6.565
 7637TIP3   OH222795   1.388   0.999   6.626
 7637TIP3    H122796   1.302   1.025   6.658
 7637TIP3    H222797   1.377   0.989   6.532
 7638TIP3   OH222798   1.639   1.459   6.495
 7638TIP3    H122799   1.572   1.417   6.549
 7638TIP3    H222800   1.591   1.521   6.441
 7639TIP3   OH222801   1.271   1.575   5.030
 7639TIP3    H122802   1.223   1.554   4.950
 7639TIP3    H222803   1.357   1.603   5.001
 7640TIP3   OH222804   0.963   0.989   5.385
 7640TIP3    H122805   0.916   0.986   5.469
 7640TIP3    H222806   1.008   0.905   5.380
 7641TIP3   OH222807   0.788   1.421   6.389
 7641TIP3    H122808   0.785   1.455   6.478
 7641TIP3    H222809   0.739   1.485   6.337
 7642TIP3   OH222810   0.660   1.278   5.958
 7642TIP3    H122811   0.578   1.236   5.985
 7642TIP3    H222812   0.660   1.271   5.863
 7643TIP3   OH222813   1.125   1.374   5.611
 7643TIP3    H122814   1.075   1.447   5.574
 7643TIP3    H222815   1.185   1.349   5.541
 7644TIP3   OH222816   1.316   1.636   6.687
 7644TIP3    H122817   1.292   1.565   6.747
 7644TIP3    H222818   1.408   1.653   6.706
 7645TIP3   OH222819   1.306   1.383   5.823
 7645TIP3    H122820   1.228   1.401   5.770
 7645TIP3    H222821   1.346   1.306   5.782
 7646TIP3   OH222822   1.329   1.638   6.242
 7646TIP3    H122823   1.351   1.565   6.185
 7646TIP3    H222824   1.283   1.597   6.316
 7647TIP3   OH222825   1.010   1.191   5.959
 7647TIP3    H122826   0.939   1.175   6.022
 7647TIP3    H222827   1.079   1.131   5.987
 7648TIP3   OH222828   0.654   1.255   5.688
 7648TIP3    H122829   0.748   1.254   5.671
 7648TIP3    H222830   0.620   1.181   5.638
 7649TIP3   OH222831   1.506   1.189   6.177
 7649TIP3    H122832   1.489   1.241   6.256
 7649TIP3    H222833   1.456   1.109   6.189
 7650TIP3   OH222834   0.414   1.210   5.365
 7650TIP3    H122835   0.458   1.168   5.290
 7650TIP3    H222836   0.447   1.300   5.364
 7651TIP3   OH222837   1.643   2.871   6.368
 7651TIP3    H122838   1.642   2.886   6.273
 7651TIP3    H222839   1.722   2.917   6.398
 7652TIP3   OH222840   0.583   1.988   6.786
 7652TIP3    H122841   0.668   2.017   6.819
 7652TIP3    H222842   0.538   1.952   6.863
 7653TIP3   OH222843   1.053   1.467   6.006
 7653TIP3    H122844   1.058   1.380   5.966
 7653TIP3    H222845   1.054   1.450   6.100
 7654TIP3   OH222846   1.035   1.415   6.271
 7654TIP3    H122847   0.950   1.402   6.312
 7654TIP3    H222848   1.095   1.433   6.343
 7655TIP3   OH222849   0.755   1.715   5.427
 7655TIP3    H122850   0.673   1.674   5.401
 7655TIP3    H222851   0.735   1.757   5.511
 7656TIP3   OH222852   1.644   1.958   6.028
 7656TIP3    H122853   1.675   2.007   5.952
 7656TIP3    H222854   1.565   1.914   5.997
 7657TIP3   OH222855   1.223   1.058   5.335
 7657TIP3    H122856   1.128   1.055   5.346
 7657TIP3    H222857   1.246   1.150   5.353
 7658TIP3   OH222858   1.167   2.054   6.436
 7658TIP3    H122859   1.212   2.041   6.519
 7658TIP3    H222860   1.124   2.139   6.446
 7659TIP3   OH222861   1.303   1.308   5.406
 7659TIP3    H122862   1.398   1.314   5.417
 7659TIP3    H222863   1.280   1.385   5.354
 7660TIP3   OH222864   0.470   1.750   6.083
 7660TIP3    H122865   0.492   1.723   5.994
 7660TIP3    H222866   0.532   1.704   6.139
 7661TIP3   OH222867   0.907   1.863   5.258
 7661TIP3    H122868   0.859   1.946   5.255
 7661TIP3    H222869   0.854   1.806   5.314
 7662TIP3   OH222870   1.089   1.799   6.718
 7662TIP3    H122871   1.037   1.776   6.642
 7662TIP3    H222872   1.172   1.753   6.706
 7663TIP3   OH222873   1.305   2.335   6.326
 7663TIP3    H122874   1.211   2.319   6.329
 7663TIP3    H222875   1.326   2.368   6.413
 7664TIP3   OH222876   1.697   1.377   5.215
 7664TIP3    H122877   1.642   1.331   5.152
 7664TIP3    H222878   1.698   1.467   5.183
 7665TIP3   OH222879   1.948   2.260   6.287
 7665TIP3    H122880   1.856   2.236   6.290
 7665TIP3    H222881   1.981   2.219   6.207
 7666TIP3   OH222882   1.431   2.187   5.153
 7666TIP3    H122883   1.402   2.116   5.211
 7666TIP3    H222884   1.451   2.143   5.071
 7667TIP3   OH222885   1.417   1.824   5.923
 7667TIP3    H122886   1.326   1.803   5.945
 7667TIP3    H222887   1.452   1.743   5.887
 7668TIP3   OH222888   0.568   2.069   5.745
 7668TIP3    H122889   0.562   2.144   5.686
 7668TIP3    H222890   0.477   2.051   5.769
 7669TIP3   OH222891   0.667   1.832   5.651
 7669TIP3    H122892   0.646   1.920   5.682
 7669TIP3    H222893   0.642   1.775   5.724
 7670TIP3   OH222894   0.849   2.380   6.199
 7670TIP3    H122895   0.885   2.454   6.149
 7670TIP3    H222896   0.924   2.346   6.249
 7671TIP3   OH222897   0.483   2.288   5.589
 7671TIP3    H122898   0.398   2.291   5.633
 7671TIP3    H222899   0.517   2.377   5.595
 7672TIP3   OH222900   1.197   2.047   6.162
 7672TIP3    H122901   1.188   2.045   6.257
 7672TIP3    H222902   1.258   1.975   6.143
 7673TIP3   OH222903   1.193   1.920   5.031
 7673TIP3    H122904   1.246   1.896   5.108
 7673TIP3    H222905   1.114   1.866   5.040
 7674TIP3   OH222906   1.461   2.538   6.209
 7674TIP3    H122907   1.393   2.475   6.232
 7674TIP3    H222908   1.422   2.590   6.139
 7675TIP3   OH222909   1.508   2.392   4.839
 7675TIP3    H122910   1.529   2.452   4.768
 7675TIP3    H222911   1.437   2.435   4.887
 7676TIP3   OH222912   1.376   1.857   5.228
 7676TIP3    H122913   1.359   1.809   5.309
 7676TIP3    H222914   1.471   1.857   5.219
 7677TIP3   OH222915   0.267   2.253   6.351
 7677TIP3    H122916   0.328   2.198   6.401
 7677TIP3    H222917   0.284   2.342   6.382
 7678TIP3   OH222918   0.540   1.914   5.061
 7678TIP3    H122919   0.551   1.824   5.029
 7678TIP3    H222920   0.531   1.906   5.156
 7679TIP3   OH222921   0.493   1.913   5.334
 7679TIP3    H122922   0.552   1.885   5.404
 7679TIP3    H222923   0.494   2.009   5.338
 7680TIP3   OH222924   0.236   1.597   5.547
 7680TIP3    H122925   0.169   1.652   5.587
 7680TIP3    H222926   0.263   1.645   5.469
 7681TIP3   OH222927   1.384   1.280   6.427
 7681TIP3    H122928   1.418   1.265   6.515
 7681TIP3    H222929   1.349   1.195   6.401
 7682TIP3   OH222930   1.292   0.979   5.601
 7682TIP3    H122931   1.256   1.003   5.516
 7682TIP3    H222932   1.338   1.058   5.631
 7683TIP3   OH222933   0.763   2.093   5.255
 7683TIP3    H122934   0.679   2.116   5.294
 7683TIP3    H222935   0.785   2.167   5.199
 7684TIP3   OH222936   0.930   1.201   5.698
 7684TIP3    H122937   0.994   1.260   5.657
 7684TIP3    H222938   0.955   1.199   5.790
 7685TIP3   OH222939   1.222   1.504   6.457
 7685TIP3    H122940   1.248   1.546   6.539
 7685TIP3    H222941   1.277   1.425   6.452
 7686TIP3   OH222942   1.115   0.886   5.793
 7686TIP3    H122943   1.134   0.925   5.878
 7686TIP3    H222944   1.178   0.925   5.733
 7687TIP3   OH222945   0.517   2.185   5.338
 7687TIP3    H122946   0.494   2.256   5.278
 7687TIP3    H222947   0.504   2.223   5.425
 7688TIP3   OH222948   1.867   1.330   6.411
 7688TIP3    H122949   1.789   1.375   6.444
 7688TIP3    H222950   1.833   1.261   6.354
 7689TIP3   OH222951   1.513   1.570   5.839
 7689TIP3    H122952   1.436   1.513   5.844
 7689TIP3    H222953   1.578   1.528   5.896
 7690TIP3   OH222954   0.253   1.776   5.320
 7690TIP3    H122955   0.328   1.834   5.333
 7690TIP3    H222956   0.281   1.716   5.252
 7691TIP3   OH222957   1.483   2.542   5.779
 7691TIP3    H122958   1.441   2.594   5.711
 7691TIP3    H222959   1.576   2.554   5.765
 7692TIP3   OH222960   0.064   2.071   5.684
 7692TIP3    H122961   0.000   2.115   5.740
 7692TIP3    H222962   0.032   2.085   5.595
 7693TIP3   OH222963   0.290   2.576   6.731
 7693TIP3    H122964   0.363   2.574   6.792
 7693TIP3    H222965   0.220   2.528   6.775
 7694TIP3   OH222966   0.739   2.483   6.815
 7694TIP3    H122967   0.830   2.453   6.824
 7694TIP3    H222968   0.702   2.424   6.748
 7695TIP3   OH222969   0.704   2.097   4.938
 7695TIP3    H122970   0.654   2.032   4.987
 7695TIP3    H222971   0.776   2.048   4.899
 7696TIP3   OH222972   1.360   2.429   6.578
 7696TIP3    H122973   1.375   2.358   6.641
 7696TIP3    H222974   1.434   2.488   6.590
 7697TIP3   OH222975   1.142   2.129   4.864
 7697TIP3    H122976   1.173   2.063   4.926
 7697TIP3    H222977   1.201   2.121   4.789
 7698TIP3   OH222978   0.364   1.589   5.155
 7698TIP3    H122979   0.413   1.576   5.236
 7698TIP3    H222980   0.430   1.611   5.090
 7699TIP3   OH222981   1.007   2.068   6.744
 7699TIP3    H122982   0.960   2.084   6.662
 7699TIP3    H222983   1.046   1.982   6.733
 7700TIP3   OH222984   0.942   1.788   4.996
 7700TIP3    H122985   0.920   1.803   5.088
 7700TIP3    H222986   0.913   1.698   4.978
 7701TIP3   OH222987   1.479   2.112   6.368
 7701TIP3    H122988   1.555   2.139   6.316
 7701TIP3    H222989   1.411   2.176   6.347
 7702TIP3   OH222990   0.513   1.573   5.388
 7702TIP3    H122991   0.514   1.545   5.480
 7702TIP3    H222992   0.580   1.519   5.346
 7703TIP3   OH222993   0.824   1.551   6.633
 7703TIP3    H122994   0.751   1.605   6.665
 7703TIP3    H222995   0.879   1.613   6.584
 7704TIP3   OH222996   0.688   1.462   5.221
 7704TIP3    H122997   0.668   1.439   5.131
 7704TIP3    H222998   0.784   1.468   5.224
 7705TIP3   OH222999   1.361   1.982   6.716
 7705TIP3    H123000   1.423   1.939   6.657
 7705TIP3    H223001   1.354   1.923   6.791
 7706TIP3   OH223002   1.497   1.643   4.885
 7706TIP3    H123003   1.478   1.598   4.803
 7706TIP3    H223004   1.469   1.733   4.871
 7707TIP3   OH223005   1.006   1.377   6.751
 7707TIP3    H123006   0.986   1.306   6.691
 7707TIP3    H223007   0.943   1.446   6.729
 7708TIP3   OH223008   0.974   1.720   6.477
 7708TIP3    H123009   1.040   1.676   6.423
 7708TIP3    H223010   0.925   1.774   6.415
 7709TIP3   OH223011   1.578   1.668   6.787
 7709TIP3    H123012   1.632   1.590   6.783
 7709TIP3    H223013   1.640   1.741   6.780
 7710TIP3   OH223014   1.592   1.925   6.528
 7710TIP3    H123015   1.541   1.991   6.480
 7710TIP3    H223016   1.682   1.937   6.497
 7711TIP3   OH223017   1.264   1.419   6.843
 7711TIP3    H123018   1.280   1.399   6.935
 7711TIP3    H223019   1.171   1.401   6.830
 7712TIP3   OH223020   1.478   1.341   6.687
 7712TIP3    H123021   1.402   1.362   6.741
 7712TIP3    H223022   1.552   1.338   6.749
 7713TIP3   OH223023   1.700   1.354   6.861
 7713TIP3    H123024   1.721   1.262   6.874
 7713TIP3    H223025   1.685   1.387   6.950
 7714TIP3   OH223026   0.508   2.397   5.157
 7714TIP3    H123027   0.596   2.373   5.127
 7714TIP3    H223028   0.468   2.440   5.081
 7715TIP3   OH223029  -0.016   1.752   5.292
 7715TIP3    H123030   0.076   1.773   5.309
 7715TIP3    H223031  -0.038   1.687   5.359
 7716TIP3   OH223032   9.691   2.299   5.753
 7716TIP3    H123033   9.624   2.366   5.746
 7716TIP3    H223034   9.717   2.300   5.845
 7717TIP3   OH223035   9.768   2.259   6.009
 7717TIP3    H123036   9.777   2.178   6.059
 7717TIP3    H223037   9.843   2.312   6.036
 7718TIP3   OH223038   1.754   2.590   5.773
 7718TIP3    H123039   1.773   2.615   5.863
 7718TIP3    H223040   1.808   2.649   5.720
 7719TIP3   OH223041   1.775   2.618   6.052
 7719TIP3    H123042   1.727   2.535   6.049
 7719TIP3    H223043   1.844   2.604   6.117
 7720TIP3   OH223044   1.833   2.323   6.621
 7720TIP3    H123045   1.759   2.331   6.682
 7720TIP3    H223046   1.878   2.407   6.626
 7721TIP3   OH223047   1.653   1.843   5.228
 7721TIP3    H123048   1.712   1.913   5.200
 7721TIP3    H223049   1.696   1.804   5.304
 7722TIP3   OH223050   1.776   1.698   5.430
 7722TIP3    H123051   1.709   1.658   5.485
 7722TIP3    H223052   1.841   1.732   5.492
 7723TIP3   OH223053   1.828   2.102   5.867
 7723TIP3    H123054   1.874   2.033   5.819
 7723TIP3    H223055   1.826   2.176   5.807
 7724TIP3   OH223056   1.633   2.379   6.060
 7724TIP3    H123057   1.567   2.425   6.111
 7724TIP3    H223058   1.584   2.339   5.988
 7725TIP3   OH223059   1.687   1.615   5.080
 7725TIP3    H123060   1.620   1.616   5.011
 7725TIP3    H223061   1.669   1.694   5.132
 7726TIP3   OH223062   1.551   1.262   5.015
 7726TIP3    H123063   1.495   1.288   4.942
 7726TIP3    H223064   1.541   1.167   5.021
 7727TIP3   OH223065   1.582   1.559   5.571
 7727TIP3    H123066   1.586   1.464   5.555
 7727TIP3    H223067   1.561   1.566   5.665
 7728TIP3   OH223068   1.847   1.971   6.427
 7728TIP3    H123069   1.919   1.909   6.410
 7728TIP3    H223070   1.841   2.023   6.348
 7729TIP3   OH223071   2.038   1.767   6.420
 7729TIP3    H123072   1.962   1.727   6.464
 7729TIP3    H223073   2.113   1.717   6.451
 7730TIP3   OH223074   1.521   0.992   5.043
 7730TIP3    H123075   1.609   0.980   5.077
 7730TIP3    H223076   1.465   0.948   5.107
 7731TIP3   OH223077   1.588   1.286   5.459
 7731TIP3    H123078   1.630   1.201   5.469
 7731TIP3    H223079   1.626   1.322   5.379
 7732TIP3   OH223080   1.728   1.447   5.978
 7732TIP3    H123081   1.810   1.465   5.932
 7732TIP3    H223082   1.738   1.492   6.063
 7733TIP3   OH223083   1.795   1.612   6.196
 7733TIP3    H123084   1.721   1.636   6.252
 7733TIP3    H223085   1.826   1.695   6.160
 7734TIP3   OH223086   2.257   1.194   6.736
 7734TIP3    H123087   2.322   1.134   6.700
 7734TIP3    H223088   2.223   1.241   6.659
 7735TIP3   OH223089   1.693   1.030   5.508
 7735TIP3    H123090   1.736   1.018   5.593
 7735TIP3    H223091   1.630   0.958   5.502
 7736TIP3   OH223092   2.111   1.338   6.552
 7736TIP3    H123093   2.050   1.374   6.616
 7736TIP3    H223094   2.056   1.290   6.490
 7737TIP3   OH223095   1.764   0.958   5.161
 7737TIP3    H123096   1.821   0.901   5.109
 7737TIP3    H223097   1.812   1.041   5.165
 7738TIP3   OH223098   1.313   2.510   5.411
 7738TIP3    H123099   1.369   2.496   5.335
 7738TIP3    H223100   1.358   2.578   5.462
 7739TIP3   OH223101   0.395   2.277   6.811
 7739TIP3    H123102   0.301   2.294   6.823
 7739TIP3    H223103   0.425   2.250   6.897
 7740TIP3   OH223104   0.620   2.338   6.348
 7740TIP3    H123105   0.572   2.415   6.318
 7740TIP3    H223106   0.706   2.345   6.305
 7741TIP3   OH223107   1.019   2.577   6.483
 7741TIP3    H123108   1.056   2.569   6.571
 7741TIP3    H223109   1.081   2.631   6.435
 7742TIP3   OH223110   1.211   2.730   6.357
 7742TIP3    H123111   1.272   2.675   6.309
 7742TIP3    H223112   1.267   2.788   6.410
 7743TIP3   OH223113   2.019   1.041   6.452
 7743TIP3    H123114   1.930   1.025   6.421
 7743TIP3    H223115   2.063   0.956   6.444
 7744TIP3   OH223116   0.304   2.522   6.421
 7744TIP3    H123117   0.216   2.557   6.411
 7744TIP3    H223118   0.325   2.535   6.513
 7745TIP3   OH223119   0.519   2.574   6.244
 7745TIP3    H123120   0.435   2.567   6.290
 7745TIP3    H223121   0.494   2.595   6.153
 7746TIP3   OH223122   0.928   2.591   6.036
 7746TIP3    H123123   0.859   2.601   5.970
 7746TIP3    H223124   0.937   2.677   6.075
 7747TIP3   OH223125   1.192   2.531   6.085
 7747TIP3    H123126   1.100   2.548   6.065
 7747TIP3    H223127   1.240   2.598   6.036
 7748TIP3   OH223128   1.394   2.703   5.985
 7748TIP3    H123129   1.391   2.789   5.944
 7748TIP3    H223130   1.422   2.644   5.915
 7749TIP3   OH223131   0.199   2.379   6.103
 7749TIP3    H123132   0.202   2.344   6.192
 7749TIP3    H223133   0.269   2.333   6.056
 7750TIP3   OH223134   0.401   2.253   5.971
 7750TIP3    H123135   0.412   2.171   6.019
 7750TIP3    H223136   0.487   2.294   5.972
 7751TIP3   OH223137   0.670   2.338   5.989
 7751TIP3    H123138   0.689   2.245   5.973
 7751TIP3    H223139   0.720   2.359   6.067
 7752TIP3   OH223140   1.205   1.008   6.031
 7752TIP3    H123141   1.212   1.002   6.127
 7752TIP3    H223142   1.293   0.985   6.000
 7753TIP3   OH223143   1.725   0.900   5.969
 7753TIP3    H123144   1.762   0.950   5.897
 7753TIP3    H223145   1.632   0.921   5.969
 7754TIP3   OH223146   1.843   0.981   5.736
 7754TIP3    H123147   1.914   0.922   5.709
 7754TIP3    H223148   1.879   1.069   5.723
 7755TIP3   OH223149   1.446   0.902   5.938
 7755TIP3    H123150   1.437   0.868   5.849
 7755TIP3    H223151   1.433   0.825   5.994
 7756TIP3   OH223152   1.510   0.817   5.547
 7756TIP3    H123153   1.432   0.869   5.565
 7756TIP3    H223154   1.501   0.740   5.603
 7757TIP3   OH223155   9.735   2.122   5.438
 7757TIP3    H123156   9.655   2.086   5.399
 7757TIP3    H223157   9.728   2.217   5.424
 7758TIP3   OH223158   0.885   0.936   5.649
 7758TIP3    H123159   0.959   0.903   5.700
 7758TIP3    H223160   0.885   1.031   5.664
 7759TIP3   OH223161   0.761   2.319   5.083
 7759TIP3    H123162   0.845   2.346   5.046
 7759TIP3    H223163   0.731   2.248   5.027
 7760TIP3   OH223164   1.464   2.457   5.183
 7760TIP3    H123165   1.457   2.362   5.177
 7760TIP3    H223166   1.421   2.489   5.103
 7761TIP3   OH223167   0.069   2.160   5.140
 7761TIP3    H123168   0.055   2.139   5.232
 7761TIP3    H223169   0.149   2.113   5.116
 7762TIP3   OH223170   1.779   1.093   6.888
 7762TIP3    H123171   1.791   1.051   6.973
 7762TIP3    H223172   1.862   1.079   6.842
 7763TIP3   OH223173   1.681   2.597   6.372
 7763TIP3    H123174   1.606   2.566   6.320
 7763TIP3    H223175   1.666   2.691   6.381
 7764TIP3   OH223176   2.884   1.972   5.200
 7764TIP3    H123177   2.866   2.057   5.160
 7764TIP3    H223178   2.860   1.908   5.132
 7765TIP3   OH223179   2.942   1.987   5.464
 7765TIP3    H123180   2.921   1.899   5.497
 7765TIP3    H223181   2.924   1.982   5.370
 7766TIP3   OH223182   2.252   1.860   5.873
 7766TIP3    H123183   2.285   1.803   5.943
 7766TIP3    H223184   2.330   1.881   5.821
 7767TIP3   OH223185   3.227   2.282   5.215
 7767TIP3    H123186   3.215   2.218   5.284
 7767TIP3    H223187   3.247   2.364   5.261
 7768TIP3   OH223188   2.250   2.268   5.569
 7768TIP3    H123189   2.230   2.174   5.574
 7768TIP3    H223190   2.344   2.272   5.556
 7769TIP3   OH223191   1.931   1.476   5.353
 7769TIP3    H123192   1.890   1.559   5.376
 7769TIP3    H223193   1.861   1.425   5.312
 7770TIP3   OH223194   2.008   1.774   5.570
 7770TIP3    H123195   2.059   1.697   5.596
 7770TIP3    H223196   2.072   1.835   5.536
 7771TIP3   OH223197   2.877   2.713   5.213
 7771TIP3    H123198   2.901   2.653   5.142
 7771TIP3    H223199   2.878   2.659   5.291
 7772TIP3   OH223200   2.758   2.190   5.547
 7772TIP3    H123201   2.805   2.120   5.503
 7772TIP3    H223202   2.826   2.249   5.580
 7773TIP3   OH223203   3.796   1.511   5.557
 7773TIP3    H123204   3.815   1.594   5.600
 7773TIP3    H223205   3.826   1.523   5.466
 7774TIP3   OH223206   3.145   1.686   5.583
 7774TIP3    H123207   3.177   1.598   5.602
 7774TIP3    H223208   3.116   1.681   5.492
 7775TIP3   OH223209   2.526   1.343   5.528
 7775TIP3    H123210   2.501   1.416   5.471
 7775TIP3    H223211   2.471   1.270   5.499
 7776TIP3   OH223212   3.226   1.438   5.205
 7776TIP3    H123213   3.299   1.424   5.265
 7776TIP3    H223214   3.265   1.481   5.129
 7777TIP3   OH223215   2.154   1.557   5.664
 7777TIP3    H123216   2.236   1.534   5.707
 7777TIP3    H223217   2.154   1.506   5.583
 7778TIP3   OH223218   2.570   1.753   5.486
 7778TIP3    H123219   2.664   1.737   5.477
 7778TIP3    H223220   2.529   1.675   5.448
 7779TIP3   OH223221   3.858   1.725   5.724
 7779TIP3    H123222   3.773   1.767   5.713
 7779TIP3    H223223   3.895   1.767   5.802
 7780TIP3   OH223224   2.499   1.352   5.996
 7780TIP3    H123225   2.452   1.384   5.919
 7780TIP3    H223226   2.438   1.366   6.068
 7781TIP3   OH223227   2.807   2.178   5.036
 7781TIP3    H123228   2.847   2.183   4.949
 7781TIP3    H223229   2.764   2.263   5.047
 7782TIP3   OH223230   2.639   2.100   5.780
 7782TIP3    H123231   2.579   2.166   5.813
 7782TIP3    H223232   2.676   2.138   5.701
 7783TIP3   OH223233   3.410   1.424   5.415
 7783TIP3    H123234   3.342   1.430   5.482
 7783TIP3    H223235   3.455   1.509   5.419
 7784TIP3   OH223236   2.402   1.452   5.755
 7784TIP3    H123237   2.458   1.527   5.778
 7784TIP3    H223238   2.448   1.410   5.682
 7785TIP3   OH223239   2.459   2.304   5.862
 7785TIP3    H123240   2.441   2.388   5.820
 7785TIP3    H223241   2.381   2.286   5.913
 7786TIP3   OH223242   1.824   2.032   5.110
 7786TIP3    H123243   1.785   2.050   5.025
 7786TIP3    H223244   1.845   2.118   5.145
 7787TIP3   OH223245   3.258   2.530   5.353
 7787TIP3    H123246   3.171   2.521   5.392
 7787TIP3    H223247   3.255   2.612   5.305
 7788TIP3   OH223248   3.601   1.390   5.719
 7788TIP3    H123249   3.517   1.424   5.688
 7788TIP3    H223250   3.664   1.421   5.655
 7789TIP3   OH223251   2.843   1.042   5.727
 7789TIP3    H123252   2.834   0.950   5.748
 7789TIP3    H223253   2.766   1.084   5.766
 7790TIP3   OH223254   2.952   2.561   4.991
 7790TIP3    H123255   3.003   2.480   4.987
 7790TIP3    H223256   3.014   2.629   4.966
 7791TIP3   OH223257   3.103   2.337   4.971
 7791TIP3    H123258   3.141   2.284   4.902
 7791TIP3    H223259   3.148   2.310   5.051
 7792TIP3   OH223260   3.481   2.421   5.697
 7792TIP3    H123261   3.473   2.347   5.637
 7792TIP3    H223262   3.469   2.498   5.642
 7793TIP3   OH223263   2.795   1.835   4.972
 7793TIP3    H123264   2.715   1.882   4.952
 7793TIP3    H223265   2.841   1.828   4.888
 7794TIP3   OH223266   2.733   1.618   4.656
 7794TIP3    H123267   2.803   1.633   4.719
 7794TIP3    H223268   2.760   1.540   4.607
 7795TIP3   OH223269   3.676   2.072   5.568
 7795TIP3    H123270   3.593   2.121   5.566
 7795TIP3    H223271   3.715   2.087   5.482
 7796TIP3   OH223272   3.341   1.950   5.843
 7796TIP3    H123273   3.358   2.022   5.904
 7796TIP3    H223274   3.338   1.992   5.757
 7797TIP3   OH223275   2.368   1.887   5.329
 7797TIP3    H123276   2.330   1.827   5.265
 7797TIP3    H223277   2.442   1.838   5.366
 7798TIP3   OH223278   2.510   2.313   5.473
 7798TIP3    H123279   2.488   2.297   5.381
 7798TIP3    H223280   2.595   2.271   5.485
 7799TIP3   OH223281   2.475   1.889   5.707
 7799TIP3    H123282   2.511   1.851   5.627
 7799TIP3    H223283   2.533   1.962   5.727
 7800TIP3   OH223284   3.022   2.520   5.489
 7800TIP3    H123285   3.006   2.604   5.532
 7800TIP3    H223286   3.000   2.454   5.555
 7801TIP3   OH223287   2.637   2.424   6.035
 7801TIP3    H123288   2.572   2.481   6.076
 7801TIP3    H223289   2.587   2.368   5.977
 7802TIP3   OH223290   2.422   1.969   6.193
 7802TIP3    H123291   2.415   2.063   6.209
 7802TIP3    H223292   2.332   1.940   6.181
 7803TIP3   OH223293   2.709   2.437   5.029
 7803TIP3    H123294   2.793   2.481   5.018
 7803TIP3    H223295   2.644   2.499   4.994
 7804TIP3   OH223296   2.428   2.580   6.114
 7804TIP3    H123297   2.399   2.585   6.023
 7804TIP3    H223298   2.348   2.564   6.163
 7805TIP3   OH223299   3.475   1.000   4.811
 7805TIP3    H123300   3.407   1.029   4.872
 7805TIP3    H223301   3.489   1.074   4.752
 7806TIP3   OH223302   2.240   1.729   5.133
 7806TIP3    H123303   2.163   1.777   5.102
 7806TIP3    H223304   2.209   1.639   5.144
 7807TIP3   OH223305   3.282   2.381   4.359
 7807TIP3    H123306   3.287   2.475   4.342
 7807TIP3    H223307   3.369   2.348   4.338
 7808TIP3   OH223308   2.029   2.129   6.060
 7808TIP3    H123309   1.955   2.126   5.999
 7808TIP3    H223310   2.059   2.039   6.065
 7809TIP3   OH223311   1.866   2.338   5.718
 7809TIP3    H123312   1.955   2.365   5.740
 7809TIP3    H223313   1.811   2.413   5.743
 7810TIP3   OH223314   3.719   2.769   5.766
 7810TIP3    H123315   3.724   2.675   5.783
 7810TIP3    H223316   3.641   2.798   5.812
 7811TIP3   OH223317   2.824   2.565   5.892
 7811TIP3    H123318   2.817   2.657   5.917
 7811TIP3    H223319   2.754   2.522   5.940
 7812TIP3   OH223320   2.595   2.717   4.804
 7812TIP3    H123321   2.551   2.670   4.733
 7812TIP3    H223322   2.590   2.809   4.780
 7813TIP3   OH223323   2.044   2.520   5.219
 7813TIP3    H123324   2.087   2.512   5.304
 7813TIP3    H223325   1.993   2.439   5.210
 7814TIP3   OH223326   2.815   2.580   4.467
 7814TIP3    H123327   2.876   2.513   4.437
 7814TIP3    H223328   2.846   2.604   4.554
 7815TIP3   OH223329   2.853   2.658   4.732
 7815TIP3    H123330   2.766   2.674   4.769
 7815TIP3    H223331   2.904   2.621   4.804
 7816TIP3   OH223332   3.621   1.899   6.040
 7816TIP3    H123333   3.526   1.903   6.048
 7816TIP3    H223334   3.640   1.805   6.033
 7817TIP3   OH223335   2.238   2.310   6.029
 7817TIP3    H123336   2.284   2.302   6.113
 7817TIP3    H223337   2.163   2.252   6.037
 7818TIP3   OH223338   2.611   1.133   5.854
 7818TIP3    H123339   2.526   1.100   5.824
 7818TIP3    H223340   2.589   1.215   5.900
 7819TIP3   OH223341   3.154   1.251   6.062
 7819TIP3    H123342   3.227   1.220   6.116
 7819TIP3    H223343   3.075   1.226   6.112
 7820TIP3   OH223344   3.357   1.686   5.948
 7820TIP3    H123345   3.313   1.687   6.033
 7820TIP3    H223346   3.339   1.772   5.910
 7821TIP3   OH223347   2.762   1.165   4.806
 7821TIP3    H123348   2.727   1.176   4.894
 7821TIP3    H223349   2.726   1.081   4.777
 7822TIP3   OH223350   2.534   1.674   5.869
 7822TIP3    H123351   2.469   1.673   5.939
 7822TIP3    H223352   2.511   1.750   5.816
 7823TIP3   OH223353   2.427   1.545   5.372
 7823TIP3    H123354   2.338   1.520   5.395
 7823TIP3    H223355   2.439   1.513   5.282
 7824TIP3   OH223356   2.919   1.619   5.084
 7824TIP3    H123357   2.867   1.695   5.057
 7824TIP3    H223358   2.965   1.593   5.004
 7825TIP3   OH223359   3.004   1.809   6.182
 7825TIP3    H123360   3.028   1.835   6.271
 7825TIP3    H223361   3.073   1.749   6.155
 7826TIP3   OH223362   3.072   1.642   5.314
 7826TIP3    H123363   3.017   1.660   5.238
 7826TIP3    H223364   3.121   1.563   5.291
 7827TIP3   OH223365   2.348   1.680   6.072
 7827TIP3    H123366   2.288   1.734   6.123
 7827TIP3    H223367   2.340   1.593   6.110
 7828TIP3   OH223368   2.431   1.150   4.786
 7828TIP3    H123369   2.423   1.155   4.881
 7828TIP3    H223370   2.357   1.200   4.752
 7829TIP3   OH223371   1.971   1.202   5.653
 7829TIP3    H123372   2.050   1.233   5.698
 7829TIP3    H223373   2.003   1.175   5.567
 7830TIP3   OH223374   1.901   1.196   5.169
 7830TIP3    H123375   1.943   1.227   5.089
 7830TIP3    H223376   1.831   1.260   5.185
 7831TIP3   OH223377   3.069   1.860   5.781
 7831TIP3    H123378   3.087   1.800   5.709
 7831TIP3    H223379   3.155   1.888   5.811
 7832TIP3   OH223380   2.795   1.378   5.439
 7832TIP3    H123381   2.712   1.354   5.479
 7832TIP3    H223382   2.862   1.335   5.494
 7833TIP3   OH223383   2.189   1.419   5.430
 7833TIP3    H123384   2.101   1.426   5.395
 7833TIP3    H223385   2.215   1.329   5.414
 7834TIP3   OH223386   2.451   1.422   5.128
 7834TIP3    H123387   2.545   1.430   5.113
 7834TIP3    H223388   2.412   1.438   5.042
 7835TIP3   OH223389   3.214   1.418   5.605
 7835TIP3    H123390   3.223   1.421   5.700
 7835TIP3    H223391   3.140   1.359   5.590
 7836TIP3   OH223392   2.331   1.441   4.883
 7836TIP3    H123393   2.265   1.394   4.832
 7836TIP3    H223394   2.379   1.493   4.818
 7837TIP3   OH223395   3.437   3.123   5.853
 7837TIP3    H123396   3.436   3.139   5.759
 7837TIP3    H223397   3.515   3.170   5.884
 7838TIP3   OH223398   2.387   2.236   6.269
 7838TIP3    H123399   2.465   2.258   6.319
 7838TIP3    H223400   2.315   2.248   6.331
 7839TIP3   OH223401   2.841   1.677   5.483
 7839TIP3    H123402   2.913   1.677   5.420
 7839TIP3    H223403   2.831   1.585   5.507
 7840TIP3   OH223404   2.334   1.171   5.412
 7840TIP3    H123405   2.306   1.096   5.465
 7840TIP3    H223406   2.348   1.135   5.325
 7841TIP3   OH223407   2.804   1.612   5.871
 7841TIP3    H123408   2.713   1.637   5.858
 7841TIP3    H223409   2.853   1.669   5.813
 7842TIP3   OH223410   2.554   1.961   4.909
 7842TIP3    H123411   2.479   1.906   4.886
 7842TIP3    H223412   2.528   2.004   4.990
 7843TIP3   OH223413   3.442   2.213   5.522
 7843TIP3    H123414   3.481   2.260   5.449
 7843TIP3    H223415   3.363   2.173   5.485
 7844TIP3   OH223416   3.014   1.268   4.827
 7844TIP3    H123417   2.922   1.244   4.818
 7844TIP3    H223418   3.015   1.363   4.816
 7845TIP3   OH223419   2.951   2.315   5.959
 7845TIP3    H123420   3.042   2.340   5.975
 7845TIP3    H223421   2.908   2.397   5.934
 7846TIP3   OH223422   2.243   1.982   5.557
 7846TIP3    H123423   2.279   1.959   5.471
 7846TIP3    H223424   2.308   1.950   5.619
 7847TIP3   OH223425   2.676   2.110   4.711
 7847TIP3    H123426   2.644   2.199   4.728
 7847TIP3    H223427   2.639   2.058   4.783
 7848TIP3   OH223428   2.155   1.851   6.184
 7848TIP3    H123429   2.136   1.839   6.277
 7848TIP3    H223430   2.070   1.837   6.141
 7849TIP3   OH223431   2.882   2.076   6.160
 7849TIP3    H123432   2.832   2.141   6.110
 7849TIP3    H223433   2.967   2.118   6.173
 7850TIP3   OH223434   3.093   2.579   5.821
 7850TIP3    H123435   2.998   2.577   5.824
 7850TIP3    H223436   3.119   2.623   5.902
 7851TIP3   OH223437   3.521   1.635   4.681
 7851TIP3    H123438   3.456   1.585   4.632
 7851TIP3    H223439   3.514   1.724   4.647
 7852TIP3   OH223440   3.732   2.484   5.789
 7852TIP3    H123441   3.637   2.475   5.777
 7852TIP3    H223442   3.769   2.464   5.704
 7853TIP3   OH223443   3.232   2.433   4.631
 7853TIP3    H123444   3.209   2.355   4.681
 7853TIP3    H223445   3.239   2.403   4.540
 7854TIP3   OH223446   3.212   2.080   5.427
 7854TIP3    H123447   3.121   2.059   5.444
 7854TIP3    H223448   3.248   2.001   5.386
 7855TIP3   OH223449   2.363   2.316   5.230
 7855TIP3    H123450   2.359   2.391   5.171
 7855TIP3    H223451   2.274   2.307   5.264
 7856TIP3   OH223452   1.923   1.599   4.943
 7856TIP3    H123453   1.965   1.682   4.964
 7856TIP3    H223454   1.842   1.600   4.994
 7857TIP3   OH223455   2.436   2.070   5.127
 7857TIP3    H123456   2.424   2.159   5.161
 7857TIP3    H223457   2.414   2.013   5.200
 7858TIP3   OH223458   2.645   2.637   5.680
 7858TIP3    H123459   2.679   2.711   5.630
 7858TIP3    H223460   2.720   2.606   5.731
 7859TIP3   OH223461   2.280   2.537   5.077
 7859TIP3    H123462   2.192   2.541   5.115
 7859TIP3    H223463   2.312   2.627   5.081
 7860TIP3   OH223464   2.983   2.301   5.668
 7860TIP3    H123465   2.976   2.287   5.762
 7860TIP3    H223466   3.062   2.253   5.642
 7861TIP3   OH223467   3.247   2.804   5.693
 7861TIP3    H123468   3.172   2.745   5.702
 7861TIP3    H223469   3.224   2.862   5.621
 7862TIP3   OH223470   3.302   2.656   4.338
 7862TIP3    H123471   3.334   2.725   4.280
 7862TIP3    H223472   3.227   2.694   4.382
 7863TIP3   OH223473   2.307   1.431   6.192
 7863TIP3    H123474   2.213   1.443   6.201
 7863TIP3    H223475   2.332   1.378   6.268
 7864TIP3   OH223476   3.196   2.178   4.760
 7864TIP3    H123477   3.144   2.098   4.757
 7864TIP3    H223478   3.286   2.149   4.748
 7865TIP3   OH223479   2.075   2.530   5.840
 7865TIP3    H123480   2.132   2.470   5.888
 7865TIP3    H223481   2.086   2.614   5.883
 7866TIP3   OH223482   2.334   2.152   4.541
 7866TIP3    H123483   2.345   2.061   4.514
 7866TIP3    H223484   2.320   2.148   4.636
 7867TIP3   OH223485   2.284   2.162   4.814
 7867TIP3    H123486   2.341   2.132   4.885
 7867TIP3    H223487   2.287   2.258   4.821
 7868TIP3   OH223488   2.017   1.851   5.022
 7868TIP3    H123489   1.951   1.899   5.072
 7868TIP3    H223490   2.036   1.908   4.947
 7869TIP3   OH223491   3.231   1.439   5.871
 7869TIP3    H123492   3.269   1.516   5.913
 7869TIP3    H223493   3.201   1.384   5.943
 7870TIP3   OH223494   3.083   1.226   5.093
 7870TIP3    H123495   3.056   1.242   5.002
 7870TIP3    H223496   3.122   1.308   5.122
 7871TIP3   OH223497   2.560   2.360   4.721
 7871TIP3    H123498   2.477   2.371   4.767
 7871TIP3    H223499   2.583   2.448   4.692
 7872TIP3   OH223500   2.735   1.428   5.167
 7872TIP3    H123501   2.796   1.492   5.131
 7872TIP3    H223502   2.753   1.426   5.261
 7873TIP3   OH223503   2.882   1.148   5.271
 7873TIP3    H123504   2.867   1.236   5.307
 7873TIP3    H223505   2.954   1.159   5.208
 7874TIP3   OH223506   2.314   2.434   4.824
 7874TIP3    H123507   2.289   2.504   4.763
 7874TIP3    H223508   2.300   2.473   4.910
 7875TIP3   OH223509   2.405   1.148   5.068
 7875TIP3    H123510   2.394   1.239   5.096
 7875TIP3    H223511   2.499   1.134   5.072
 7876TIP3   OH223512   3.628   1.634   5.944
 7876TIP3    H123513   3.532   1.634   5.946
 7876TIP3    H223514   3.651   1.593   5.861
 7877TIP3   OH223515   3.296   1.828   5.332
 7877TIP3    H123516   3.221   1.768   5.327
 7877TIP3    H223517   3.364   1.777   5.378
 7878TIP3   OH223518   2.041   2.028   4.807
 7878TIP3    H123519   2.113   2.090   4.815
 7878TIP3    H223520   2.069   1.965   4.740
 7879TIP3   OH223521   1.960   1.323   4.935
 7879TIP3    H123522   1.956   1.419   4.937
 7879TIP3    H223523   1.894   1.298   4.870
 7880TIP3   OH223524   3.279   2.796   5.267
 7880TIP3    H123525   3.238   2.845   5.196
 7880TIP3    H223526   3.373   2.806   5.251
 7881TIP3   OH223527   2.354   1.042   5.805
 7881TIP3    H123528   2.326   1.012   5.719
 7881TIP3    H223529   2.342   0.966   5.862
 7882TIP3   OH223530   1.867   2.301   5.193
 7882TIP3    H123531   1.820   2.335   5.269
 7882TIP3    H223532   1.824   2.343   5.118
 7883TIP3   OH223533   2.067   2.834   6.267
 7883TIP3    H123534   2.149   2.836   6.316
 7883TIP3    H223535   2.043   2.741   6.264
 7884TIP3   OH223536   2.531   2.752   6.304
 7884TIP3    H123537   2.622   2.726   6.318
 7884TIP3    H223538   2.500   2.695   6.234
 7885TIP3   OH223539   2.539   2.302   4.438
 7885TIP3    H123540   2.460   2.257   4.467
 7885TIP3    H223541   2.589   2.316   4.519
 7886TIP3   OH223542   3.151   2.682   6.067
 7886TIP3    H123543   3.156   2.610   6.129
 7886TIP3    H223544   3.228   2.736   6.085
 7887TIP3   OH223545   2.984   2.390   4.367
 7887TIP3    H123546   2.939   2.327   4.310
 7887TIP3    H223547   3.077   2.372   4.353
 7888TIP3   OH223548   2.173   2.244   6.448
 7888TIP3    H123549   2.190   2.151   6.462
 7888TIP3    H223550   2.087   2.248   6.407
 7889TIP3   OH223551   2.165   1.839   4.654
 7889TIP3    H123552   2.216   1.818   4.733
 7889TIP3    H223553   2.230   1.855   4.587
 7890TIP3   OH223554   2.806   2.359   6.238
 7890TIP3    H123555   2.748   2.378   6.164
 7890TIP3    H223556   2.892   2.348   6.199
 7891TIP3   OH223557   2.662   2.036   4.448
 7891TIP3    H123558   2.671   2.057   4.541
 7891TIP3    H223559   2.686   1.943   4.442
 7892TIP3   OH223560   3.257   2.358   5.846
 7892TIP3    H123561   3.338   2.380   5.799
 7892TIP3    H223562   3.199   2.432   5.830
 7893TIP3   OH223563   2.281   1.991   6.466
 7893TIP3    H123564   2.356   1.953   6.418
 7893TIP3    H223565   2.314   2.004   6.555
 7894TIP3   OH223566   2.337   1.789   4.869
 7894TIP3    H123567   2.316   1.758   4.957
 7894TIP3    H223568   2.380   1.715   4.827
 7895TIP3   OH223569   2.660   1.834   6.132
 7895TIP3    H123570   2.584   1.886   6.158
 7895TIP3    H223571   2.625   1.765   6.076
 7896TIP3   OH223572   2.462   1.604   4.706
 7896TIP3    H123573   2.437   1.611   4.614
 7896TIP3    H223574   2.558   1.611   4.704
 7897TIP3   OH223575   3.124   2.204   6.213
 7897TIP3    H123576   3.201   2.192   6.157
 7897TIP3    H223577   3.147   2.160   6.295
 7898TIP3   OH223578   3.309   1.922   4.340
 7898TIP3    H123579   3.273   1.869   4.269
 7898TIP3    H223580   3.240   1.985   4.361
 7899TIP3   OH223581   2.773   1.389   6.030
 7899TIP3    H123582   2.797   1.463   5.975
 7899TIP3    H223583   2.678   1.383   6.023
 7900TIP3   OH223584   2.837   1.932   5.908
 7900TIP3    H123585   2.912   1.917   5.851
 7900TIP3    H223586   2.779   1.988   5.857
 7901TIP3   OH223587   3.393   1.928   6.303
 7901TIP3    H123588   3.455   1.860   6.330
 7901TIP3    H223589   3.447   2.007   6.295
 7902TIP3   OH223590   3.401   2.178   5.997
 7902TIP3    H123591   3.347   2.244   5.952
 7902TIP3    H223592   3.490   2.197   5.969
 7903TIP3   OH223593   2.669   1.676   6.435
 7903TIP3    H123594   2.596   1.618   6.457
 7903TIP3    H223595   2.646   1.711   6.349
 7904TIP3   OH223596   2.896   1.186   6.158
 7904TIP3    H123597   2.858   1.262   6.115
 7904TIP3    H223598   2.832   1.115   6.145
 7905TIP3   OH223599   3.242   1.637   6.194
 7905TIP3    H123600   3.202   1.554   6.221
 7905TIP3    H223601   3.326   1.638   6.239
 7906TIP3   OH223602   3.488   1.592   6.330
 7906TIP3    H123603   3.507   1.499   6.344
 7906TIP3    H223604   3.484   1.629   6.418
 7907TIP3   OH223605   2.481   1.485   6.511
 7907TIP3    H123606   2.479   1.395   6.477
 7907TIP3    H223607   2.508   1.476   6.603
 7908TIP3   OH223608   2.978   1.200   6.422
 7908TIP3    H123609   3.044   1.132   6.411
 7908TIP3    H223610   2.939   1.210   6.336
 7909TIP3   OH223611   3.056   1.371   6.628
 7909TIP3    H123612   3.030   1.313   6.556
 7909TIP3    H223613   2.994   1.443   6.625
 7910TIP3   OH223614   2.293   2.638   4.636
 7910TIP3    H123615   2.384   2.634   4.607
 7910TIP3    H223616   2.248   2.686   4.566
 7911TIP3   OH223617   1.767   2.032   4.811
 7911TIP3    H123618   1.862   2.040   4.813
 7911TIP3    H223619   1.751   1.945   4.774
 7912TIP3   OH223620   1.667   2.611   5.283
 7912TIP3    H123621   1.603   2.557   5.237
 7912TIP3    H223622   1.712   2.551   5.342
 7913TIP3   OH223623   1.813   2.444   5.448
 7913TIP3    H123624   1.803   2.373   5.513
 7913TIP3    H223625   1.866   2.510   5.492
 7914TIP3   OH223626   3.553   2.839   5.259
 7914TIP3    H123627   3.576   2.867   5.348
 7914TIP3    H223628   3.610   2.891   5.202
 7915TIP3   OH223629   3.574   2.874   5.541
 7915TIP3    H123630   3.524   2.792   5.535
 7915TIP3    H223631   3.642   2.856   5.605
 7916TIP3   OH223632   3.615   2.577   6.117
 7916TIP3    H123633   3.545   2.587   6.182
 7916TIP3    H223634   3.664   2.659   6.122
 7917TIP3   OH223635   3.455   2.091   4.720
 7917TIP3    H123636   3.513   2.161   4.689
 7917TIP3    H223637   3.503   2.051   4.792
 7918TIP3   OH223638   3.593   1.957   4.919
 7918TIP3    H123639   3.532   1.912   4.977
 7918TIP3    H223640   3.659   1.995   4.977
 7919TIP3   OH223641   3.620   2.349   5.357
 7919TIP3    H123642   3.671   2.280   5.314
 7919TIP3    H223643   3.621   2.422   5.295
 7920TIP3   OH223644   3.423   2.642   5.546
 7920TIP3    H123645   3.355   2.688   5.596
 7920TIP3    H223646   3.376   2.602   5.473
 7921TIP3   OH223647   3.483   1.875   4.551
 7921TIP3    H123648   3.417   1.883   4.482
 7921TIP3    H223649   3.465   1.948   4.609
 7922TIP3   OH223650   3.339   1.510   4.521
 7922TIP3    H123651   3.251   1.545   4.533
 7922TIP3    H223652   3.325   1.423   4.483
 7923TIP3   OH223653   3.426   1.811   5.078
 7923TIP3    H123654   3.401   1.722   5.051
 7923TIP3    H223655   3.376   1.827   5.158
 7924TIP3   OH223656   1.987   1.872   5.822
 7924TIP3    H123657   1.976   1.841   5.732
 7924TIP3    H223658   2.082   1.877   5.835
 7925TIP3   OH223659   3.660   2.233   5.916
 7925TIP3    H123660   3.724   2.164   5.899
 7925TIP3    H223661   3.691   2.307   5.863
 7926TIP3   OH223662   3.827   2.015   5.904
 7926TIP3    H123663   3.755   1.975   5.952
 7926TIP3    H223664   3.903   1.960   5.924
 7927TIP3   OH223665   3.296   1.235   4.463
 7927TIP3    H123666   3.360   1.222   4.532
 7927TIP3    H223667   3.213   1.208   4.501
 7928TIP3   OH223668   3.355   1.547   4.989
 7928TIP3    H123669   3.416   1.476   4.968
 7928TIP3    H223670   3.309   1.564   4.906
 7929TIP3   OH223671   3.512   1.687   5.457
 7929TIP3    H123672   3.589   1.707   5.404
 7929TIP3    H223673   3.531   1.727   5.542
 7930TIP3   OH223674   3.600   1.834   5.686
 7930TIP3    H123675   3.541   1.862   5.756
 7930TIP3    H223676   3.630   1.916   5.645
 7931TIP3   OH223677   2.229   1.594   6.517
 7931TIP3    H123678   2.321   1.569   6.510
 7931TIP3    H223679   2.182   1.511   6.525
 7932TIP3   OH223680   4.047   1.449   6.229
 7932TIP3    H123681   4.115   1.391   6.194
 7932TIP3    H223682   4.016   1.498   6.152
 7933TIP3   OH223683   3.492   1.293   4.986
 7933TIP3    H123684   3.536   1.274   5.068
 7933TIP3    H223685   3.423   1.226   4.980
 7934TIP3   OH223686   2.192   1.267   5.808
 7934TIP3    H123687   2.243   1.187   5.819
 7934TIP3    H223688   2.257   1.335   5.794
 7935TIP3   OH223689   1.971   1.537   5.881
 7935TIP3    H123690   2.024   1.519   5.803
 7935TIP3    H223691   1.977   1.632   5.893
 7936TIP3   OH223692   3.901   1.569   6.032
 7936TIP3    H123693   3.824   1.608   6.075
 7936TIP3    H223694   3.866   1.495   5.982
 7937TIP3   OH223695   3.523   1.197   4.623
 7937TIP3    H123696   3.572   1.137   4.567
 7937TIP3    H223697   3.577   1.275   4.629
 7938TIP3   OH223698   1.965   1.060   5.396
 7938TIP3    H123699   1.877   1.038   5.428
 7938TIP3    H223700   1.949   1.115   5.320
 7939TIP3   OH223701   3.110   2.757   4.899
 7939TIP3    H123702   3.167   2.745   4.823
 7939TIP3    H223703   3.148   2.831   4.946
 7940TIP3   OH223704   2.171   1.089   6.214
 7940TIP3    H123705   2.121   1.087   6.295
 7940TIP3    H223706   2.116   1.137   6.152
 7941TIP3   OH223707   2.210   2.547   6.283
 7941TIP3    H123708   2.116   2.535   6.272
 7941TIP3    H223709   2.224   2.540   6.378
 7942TIP3   OH223710   2.417   2.588   5.828
 7942TIP3    H123711   2.365   2.663   5.799
 7942TIP3    H223712   2.502   2.599   5.783
 7943TIP3   OH223713   2.816   2.832   5.961
 7943TIP3    H123714   2.851   2.830   6.050
 7943TIP3    H223715   2.877   2.888   5.912
 7944TIP3   OH223716   3.007   2.991   5.839
 7944TIP3    H123717   3.073   2.940   5.791
 7944TIP3    H223718   3.059   3.049   5.896
 7945TIP3   OH223719   3.810   1.321   5.928
 7945TIP3    H123720   3.728   1.318   5.880
 7945TIP3    H223721   3.845   1.232   5.923
 7946TIP3   OH223722   2.079   2.840   5.878
 7946TIP3    H123723   1.987   2.857   5.855
 7946TIP3    H223724   2.099   2.906   5.945
 7947TIP3   OH223725   2.311   2.826   5.730
 7947TIP3    H123726   2.228   2.832   5.778
 7947TIP3    H223727   2.288   2.850   5.640
 7948TIP3   OH223728   2.722   2.849   5.519
 7948TIP3    H123729   2.651   2.859   5.455
 7948TIP3    H223730   2.731   2.936   5.558
 7949TIP3   OH223731   2.986   2.783   5.566
 7949TIP3    H123732   2.894   2.803   5.547
 7949TIP3    H223733   3.035   2.850   5.519
 7950TIP3   OH223734   3.191   2.960   5.469
 7950TIP3    H123735   3.187   3.047   5.429
 7950TIP3    H223736   3.219   2.903   5.398
 7951TIP3   OH223737   1.989   2.620   5.592
 7951TIP3    H123738   2.013   2.595   5.681
 7951TIP3    H223739   2.060   2.587   5.537
 7952TIP3   OH223740   2.192   2.506   5.452
 7952TIP3    H123741   2.203   2.423   5.497
 7952TIP3    H223742   2.278   2.547   5.455
 7953TIP3   OH223743   2.460   2.589   5.475
 7953TIP3    H123744   2.479   2.497   5.461
 7953TIP3    H223745   2.513   2.613   5.551
 7954TIP3   OH223746   2.993   1.235   5.574
 7954TIP3    H123747   2.949   1.173   5.632
 7954TIP3    H223748   3.056   1.182   5.525
 7955TIP3   OH223749   3.508   1.147   5.426
 7955TIP3    H123750   3.566   1.175   5.355
 7955TIP3    H223751   3.459   1.226   5.450
 7956TIP3   OH223752   3.645   1.221   5.206
 7956TIP3    H123753   3.713   1.161   5.176
 7956TIP3    H223754   3.685   1.307   5.200
 7957TIP3   OH223755   2.268   0.947   5.561
 7957TIP3    H123756   2.179   0.914   5.575
 7957TIP3    H223757   2.322   0.868   5.554
 7958TIP3   OH223758   2.099   0.863   5.237
 7958TIP3    H123759   2.114   0.904   5.152
 7958TIP3    H223760   2.062   0.932   5.291
 7959TIP3   OH223761   2.766   0.972   5.453
 7959TIP3    H123762   2.805   1.025   5.384
 7959TIP3    H223763   2.793   1.015   5.534
 7960TIP3   OH223764   3.188   1.100   5.434
 7960TIP3    H123765   3.198   1.144   5.350
 7960TIP3    H223766   3.259   1.036   5.436
 7961TIP3   OH223767   3.306   1.079   5.010
 7961TIP3    H123768   3.219   1.116   5.028
 7961TIP3    H223769   3.330   1.033   5.090
 7962TIP3   OH223770   1.753   2.420   4.972
 7962TIP3    H123771   1.669   2.387   4.941
 7962TIP3    H223772   1.756   2.511   4.941
 7963TIP3   OH223773   2.195   0.981   4.988
 7963TIP3    H123774   2.238   0.919   4.929
 7963TIP3    H223775   2.266   1.037   5.020
 7964TIP3   OH223776   2.679   1.175   5.071
 7964TIP3    H123777   2.736   1.120   5.125
 7964TIP3    H223778   2.699   1.264   5.100
 7965TIP3   OH223779   2.551   2.581   4.551
 7965TIP3    H123780   2.639   2.608   4.524
 7965TIP3    H223781   2.525   2.515   4.487
 7966TIP3   OH223782   3.260   2.704   4.671
 7966TIP3    H123783   3.253   2.609   4.662
 7966TIP3    H223784   3.210   2.738   4.597
 7967TIP3   OH223785   2.496   1.214   6.443
 7967TIP3    H123786   2.460   1.150   6.504
 7967TIP3    H223787   2.588   1.224   6.469
 7968TIP3   OH223788   2.739   1.229   6.578
 7968TIP3    H123789   2.821   1.210   6.532
 7968TIP3    H223790   2.731   1.157   6.641
 7969TIP3   OH223791   1.865   2.416   4.629
 7969TIP3    H123792   1.862   2.411   4.724
 7969TIP3    H223793   1.943   2.366   4.605
 7970TIP3   OH223794   3.562   1.324   6.361
 7970TIP3    H123795   3.577   1.294   6.450
 7970TIP3    H223796   3.647   1.317   6.318
 7971TIP3   OH223797   3.470   2.848   5.861
 7971TIP3    H123798   3.395   2.821   5.809
 7971TIP3    H223799   3.461   2.943   5.869
 7972TIP3   OH223800   4.754   2.244   4.606
 7972TIP3    H123801   4.717   2.329   4.580
 7972TIP3    H223802   4.689   2.180   4.580
 7973TIP3   OH223803   4.748   2.246   5.038
 7973TIP3    H123804   4.800   2.206   5.108
 7973TIP3    H223805   4.696   2.174   5.003
 7974TIP3   OH223806   4.051   2.091   5.374
 7974TIP3    H123807   4.090   2.038   5.443
 7974TIP3    H223808   4.125   2.116   5.318
 7975TIP3   OH223809   5.003   2.548   4.664
 7975TIP3    H123810   5.008   2.468   4.717
 7975TIP3    H223811   5.044   2.615   4.718
 7976TIP3   OH223812   4.032   2.520   5.057
 7976TIP3    H123813   4.015   2.426   5.062
 7976TIP3    H223814   4.127   2.526   5.047
 7977TIP3   OH223815   3.730   1.721   4.844
 7977TIP3    H123816   3.692   1.804   4.871
 7977TIP3    H223817   3.661   1.677   4.795
 7978TIP3   OH223818   3.815   2.043   5.067
 7978TIP3    H123819   3.864   1.964   5.089
 7978TIP3    H223820   3.882   2.107   5.044
 7979TIP3   OH223821   4.659   2.983   4.692
 7979TIP3    H123822   4.688   2.907   4.641
 7979TIP3    H223823   4.696   2.969   4.779
 7980TIP3   OH223824   4.550   2.470   5.021
 7980TIP3    H123825   4.608   2.394   5.009
 7980TIP3    H223826   4.610   2.546   5.017
 7981TIP3   OH223827   5.597   1.772   5.046
 7981TIP3    H123828   5.610   1.857   5.088
 7981TIP3    H223829   5.624   1.786   4.955
 7982TIP3   OH223830   4.960   1.943   5.060
 7982TIP3    H123831   4.992   1.858   5.090
 7982TIP3    H223832   4.931   1.927   4.970
 7983TIP3   OH223833   4.319   1.597   5.019
 7983TIP3    H123834   4.299   1.670   4.961
 7983TIP3    H223835   4.264   1.525   4.988
 7984TIP3   OH223836   5.022   1.699   4.657
 7984TIP3    H123837   5.085   1.694   4.729
 7984TIP3    H223838   5.072   1.732   4.583
 7985TIP3   OH223839   3.946   1.813   5.152
 7985TIP3    H123840   4.028   1.793   5.196
 7985TIP3    H223841   3.949   1.763   5.071
 7986TIP3   OH223842   4.361   2.014   4.970
 7986TIP3    H123843   4.455   1.999   4.977
 7986TIP3    H223844   4.326   1.933   4.935
 7987TIP3   OH223845   5.644   2.000   5.201
 7987TIP3    H123846   5.556   2.036   5.196
 7987TIP3    H223847   5.679   2.033   5.284
 7988TIP3   OH223848   4.303   1.602   5.472
 7988TIP3    H123849   4.252   1.638   5.400
 7988TIP3    H223850   4.249   1.617   5.550
 7989TIP3   OH223851   4.617   2.449   4.486
 7989TIP3    H123852   4.592   2.427   4.396
 7989TIP3    H223853   4.574   2.532   4.504
 7990TIP3   OH223854   4.397   2.381   5.235
 7990TIP3    H123855   4.341   2.450   5.272
 7990TIP3    H223856   4.443   2.424   5.163
 7991TIP3   OH223857   5.175   1.728   4.882
 7991TIP3    H123858   5.132   1.707   4.965
 7991TIP3    H223859   5.231   1.803   4.902
 7992TIP3   OH223860   4.192   1.708   5.242
 7992TIP3    H123861   4.247   1.783   5.263
 7992TIP3    H223862   4.238   1.665   5.169
 7993TIP3   OH223863   4.239   2.581   5.343
 7993TIP3    H123864   4.225   2.671   5.313
 7993TIP3    H223865   4.161   2.562   5.396
 7994TIP3   OH223866   3.618   2.285   4.597
 7994TIP3    H123867   3.578   2.306   4.512
 7994TIP3    H223868   3.642   2.370   4.634
 7995TIP3   OH223869   5.059   2.756   4.854
 7995TIP3    H123870   4.975   2.774   4.896
 7995TIP3    H223871   5.077   2.834   4.802
 7996TIP3   OH223872   5.394   1.664   5.210
 7996TIP3    H123873   5.310   1.685   5.169
 7996TIP3    H223874   5.459   1.691   5.146
 7997TIP3   OH223875   4.641   1.295   5.207
 7997TIP3    H123876   4.635   1.203   5.232
 7997TIP3    H223877   4.563   1.335   5.244
 7998TIP3   OH223878   4.761   2.810   4.497
 7998TIP3    H123879   4.810   2.732   4.471
 7998TIP3    H223880   4.816   2.883   4.468
 7999TIP3   OH223881   4.914   2.602   4.408
 7999TIP3    H123882   4.917   2.522   4.356
 7999TIP3    H223883   4.948   2.577   4.493
 8000TIP3   OH223884   4.584   2.079   4.456
 8000TIP3    H123885   4.501   2.123   4.438
 8000TIP3    H223886   4.629   2.075   4.371
 8001TIP3   OH223887   4.547   1.887   4.134
 8001TIP3    H123888   4.611   1.935   4.186
 8001TIP3    H223889   4.598   1.820   4.088
 8002TIP3   OH223890   5.427   2.351   5.031
 8002TIP3    H123891   5.389   2.438   5.021
 8002TIP3    H223892   5.483   2.341   4.955
 8003TIP3   OH223893   4.935   2.170   4.412
 8003TIP3    H123894   4.882   2.198   4.486
 8003TIP3    H223895   5.018   2.142   4.452
 8004TIP3   OH223896   5.167   2.199   5.360
 8004TIP3    H123897   5.174   2.286   5.398
 8004TIP3    H223898   5.081   2.199   5.317
 8005TIP3   OH223899   4.163   2.146   4.815
 8005TIP3    H123900   4.125   2.086   4.750
 8005TIP3    H223901   4.235   2.097   4.854
 8006TIP3   OH223902   4.291   2.574   4.956
 8006TIP3    H123903   4.264   2.560   4.865
 8006TIP3    H223904   4.377   2.531   4.962
 8007TIP3   OH223905   4.262   2.145   5.193
 8007TIP3    H123906   4.300   2.107   5.114
 8007TIP3    H223907   4.312   2.225   5.208
 8008TIP3   OH223908   4.845   2.733   5.017
 8008TIP3    H123909   4.798   2.808   4.978
 8008TIP3    H223910   4.856   2.757   5.109
 8009TIP3   OH223911   4.440   2.682   5.508
 8009TIP3    H123912   4.379   2.737   5.558
 8009TIP3    H223913   4.384   2.629   5.451
 8010TIP3   OH223914   4.768   2.026   4.245
 8010TIP3    H123915   4.828   2.084   4.292
 8010TIP3    H223916   4.796   2.032   4.154
 8011TIP3   OH223917   4.195   2.234   5.657
 8011TIP3    H123918   4.196   2.328   5.675
 8011TIP3    H223919   4.103   2.212   5.646
 8012TIP3   OH223920   4.507   2.704   4.506
 8012TIP3    H123921   4.593   2.745   4.509
 8012TIP3    H223922   4.453   2.764   4.454
 8013TIP3   OH223923   4.223   2.833   5.598
 8013TIP3    H123924   4.200   2.843   5.506
 8013TIP3    H223925   4.140   2.821   5.643
 8014TIP3   OH223926   5.279   1.256   4.305
 8014TIP3    H123927   5.203   1.276   4.359
 8014TIP3    H223928   5.289   1.331   4.246
 8015TIP3   OH223929   4.036   1.988   4.614
 8015TIP3    H123930   3.958   2.034   4.582
 8015TIP3    H223931   4.005   1.899   4.632
 8016TIP3   OH223932   5.106   2.630   3.857
 8016TIP3    H123933   5.100   2.723   3.835
 8016TIP3    H223934   5.195   2.605   3.835
 8017TIP3   OH223935   3.821   2.399   5.547
 8017TIP3    H123936   3.754   2.377   5.483
 8017TIP3    H223937   3.858   2.314   5.573
 8018TIP3   OH223938   3.665   2.583   5.203
 8018TIP3    H123939   3.758   2.605   5.214
 8018TIP3    H223940   3.619   2.661   5.233
 8019TIP3   OH223941   5.532   3.061   5.247
 8019TIP3    H123942   5.540   2.967   5.264
 8019TIP3    H223943   5.447   3.084   5.283
 8020TIP3   OH223944   4.632   2.828   5.374
 8020TIP3    H123945   4.624   2.916   5.412
 8020TIP3    H223946   4.570   2.775   5.424
 8021TIP3   OH223947   4.408   2.918   4.329
 8021TIP3    H123948   4.364   2.897   4.247
 8021TIP3    H223949   4.369   3.001   4.357
 8022TIP3   OH223950   3.841   2.778   4.707
 8022TIP3    H123951   3.885   2.770   4.792
 8022TIP3    H223952   3.791   2.696   4.698
 8023TIP3   OH223953   4.608   2.854   3.953
 8023TIP3    H123954   4.657   2.779   3.919
 8023TIP3    H223955   4.643   2.868   4.041
 8024TIP3   OH223956   4.662   2.898   4.222
 8024TIP3    H123957   4.577   2.898   4.266
 8024TIP3    H223958   4.723   2.862   4.287
 8025TIP3   OH223959   5.413   2.144   5.516
 8025TIP3    H123960   5.326   2.159   5.480
 8025TIP3    H223961   5.427   2.050   5.509
 8026TIP3   OH223962   4.021   2.586   5.514
 8026TIP3    H123963   4.072   2.572   5.594
 8026TIP3    H223964   3.949   2.524   5.522
 8027TIP3   OH223965   4.402   1.385   5.327
 8027TIP3    H123966   4.318   1.352   5.296
 8027TIP3    H223967   4.381   1.467   5.373
 8028TIP3   OH223968   4.947   1.510   5.532
 8028TIP3    H123969   5.019   1.485   5.591
 8028TIP3    H223970   4.868   1.494   5.582
 8029TIP3   OH223971   5.165   1.934   5.445
 8029TIP3    H123972   5.127   1.928   5.532
 8029TIP3    H223973   5.152   2.025   5.419
 8030TIP3   OH223974   4.846   2.020   3.984
 8030TIP3    H123975   4.800   2.017   3.900
 8030TIP3    H223976   4.930   2.061   3.963
 8031TIP3   OH223977   4.554   1.427   4.300
 8031TIP3    H123978   4.517   1.434   4.387
 8031TIP3    H223979   4.519   1.345   4.265
 8032TIP3   OH223980   4.342   1.920   5.337
 8032TIP3    H123981   4.298   1.925   5.421
 8032TIP3    H223982   4.320   2.002   5.293
 8033TIP3   OH223983   4.224   1.799   4.859
 8033TIP3    H123984   4.136   1.774   4.885
 8033TIP3    H223985   4.233   1.767   4.769
 8034TIP3   OH223986   4.705   1.871   4.589
 8034TIP3    H123987   4.658   1.944   4.548
 8034TIP3    H223988   4.761   1.838   4.520
 8035TIP3   OH223989   4.887   2.138   5.655
 8035TIP3    H123990   4.866   2.071   5.720
 8035TIP3    H223991   4.977   2.164   5.676
 8036TIP3   OH223992   4.884   1.897   4.801
 8036TIP3    H123993   4.812   1.911   4.740
 8036TIP3    H223994   4.931   1.821   4.765
 8037TIP3   OH223995   4.184   1.928   5.562
 8037TIP3    H123996   4.221   1.984   5.630
 8037TIP3    H223997   4.165   1.845   5.607
 8038TIP3   OH223998   4.222   1.407   4.276
 8038TIP3    H123999   4.213   1.413   4.371
 8038TIP3    H224000   4.144   1.451   4.242
 8039TIP3   OH224001   3.776   1.449   5.155
 8039TIP3    H124002   3.844   1.489   5.209
 8039TIP3    H224003   3.804   1.466   5.065
 8040TIP3   OH224004   3.688   1.424   4.632
 8040TIP3    H124005   3.731   1.457   4.553
 8040TIP3    H224006   3.631   1.495   4.660
 8041TIP3   OH224007   4.911   2.143   5.236
 8041TIP3    H124008   4.939   2.074   5.175
 8041TIP3    H224009   4.870   2.096   5.308
 8042TIP3   OH224010   4.588   1.587   4.910
 8042TIP3    H124011   4.510   1.585   4.966
 8042TIP3    H224012   4.662   1.577   4.971
 8043TIP3   OH224013   3.988   1.672   4.922
 8043TIP3    H124014   3.900   1.677   4.884
 8043TIP3    H224015   4.016   1.582   4.904
 8044TIP3   OH224016   4.236   1.678   4.613
 8044TIP3    H124017   4.331   1.686   4.603
 8044TIP3    H224018   4.201   1.694   4.525
 8045TIP3   OH224019   5.031   1.681   5.118
 8045TIP3    H124020   5.014   1.696   5.211
 8045TIP3    H224021   4.963   1.618   5.092
 8046TIP3   OH224022   4.127   1.700   4.362
 8046TIP3    H124023   4.063   1.650   4.312
 8046TIP3    H224024   4.179   1.745   4.295
 8047TIP3   OH224025   5.233   3.393   5.350
 8047TIP3    H124026   5.233   3.400   5.255
 8047TIP3    H224027   5.312   3.440   5.377
 8048TIP3   OH224028   4.171   2.499   5.748
 8048TIP3    H124029   4.252   2.517   5.795
 8048TIP3    H224030   4.102   2.507   5.815
 8049TIP3   OH224031   4.633   1.969   5.021
 8049TIP3    H124032   4.702   1.920   4.975
 8049TIP3    H224033   4.630   1.929   5.108
 8050TIP3   OH224034   4.126   1.423   4.904
 8050TIP3    H124035   4.097   1.349   4.956
 8050TIP3    H224036   4.146   1.386   4.818
 8051TIP3   OH224037   4.609   1.866   5.282
 8051TIP3    H124038   4.522   1.897   5.308
 8051TIP3    H224039   4.670   1.916   5.337
 8052TIP3   OH224040   4.344   2.209   4.397
 8052TIP3    H124041   4.269   2.155   4.371
 8052TIP3    H224042   4.316   2.252   4.477
 8053TIP3   OH224043   4.808   1.528   4.309
 8053TIP3    H124044   4.715   1.507   4.302
 8053TIP3    H224045   4.810   1.623   4.317
 8054TIP3   OH224046   4.774   2.534   5.413
 8054TIP3    H124047   4.825   2.513   5.491
 8054TIP3    H224048   4.745   2.624   5.426
 8055TIP3   OH224049   4.866   1.795   4.372
 8055TIP3    H124050   4.961   1.798   4.381
 8055TIP3    H224051   4.844   1.871   4.319
 8056TIP3   OH224052   4.033   2.230   5.045
 8056TIP3    H124053   4.070   2.211   4.958
 8056TIP3    H224054   4.100   2.202   5.106
 8057TIP3   OH224055   4.496   2.372   4.240
 8057TIP3    H124056   4.447   2.455   4.237
 8057TIP3    H224057   4.441   2.314   4.292
 8058TIP3   OH224058   3.919   2.174   5.682
 8058TIP3    H124059   3.935   2.153   5.774
 8058TIP3    H224060   3.847   2.116   5.657
 8059TIP3   OH224061   4.658   2.296   5.698
 8059TIP3    H124062   4.594   2.231   5.669
 8059TIP3    H224063   4.743   2.261   5.672
 8060TIP3   OH224064   4.888   2.838   5.262
 8060TIP3    H124065   4.805   2.835   5.310
 8060TIP3    H224066   4.953   2.807   5.325
 8061TIP3   OH224067   5.278   1.887   4.187
 8061TIP3    H124068   5.220   1.842   4.125
 8061TIP3    H224069   5.286   1.976   4.152
 8062TIP3   OH224070   5.536   2.783   5.288
 8062TIP3    H124071   5.446   2.771   5.319
 8062TIP3    H224072   5.536   2.745   5.201
 8063TIP3   OH224073   5.026   2.709   4.117
 8063TIP3    H124074   4.994   2.641   4.177
 8063TIP3    H224075   5.045   2.662   4.036
 8064TIP3   OH224076   4.985   2.372   4.916
 8064TIP3    H124077   4.908   2.319   4.931
 8064TIP3    H224078   5.053   2.310   4.888
 8065TIP3   OH224079   4.154   2.571   4.713
 8065TIP3    H124080   4.154   2.647   4.655
 8065TIP3    H224081   4.062   2.557   4.734
 8066TIP3   OH224082   3.713   1.857   4.402
 8066TIP3    H124083   3.758   1.938   4.427
 8066TIP3    H224084   3.634   1.857   4.457
 8067TIP3   OH224085   4.240   2.327   4.616
 8067TIP3    H124086   4.224   2.416   4.647
 8067TIP3    H224087   4.214   2.271   4.690
 8068TIP3   OH224088   4.447   2.896   5.169
 8068TIP3    H124089   4.481   2.971   5.121
 8068TIP3    H224090   4.520   2.868   5.225
 8069TIP3   OH224091   4.075   2.795   4.563
 8069TIP3    H124092   3.988   2.802   4.602
 8069TIP3    H224093   4.111   2.884   4.569
 8070TIP3   OH224094   4.865   2.478   5.162
 8070TIP3    H124095   4.848   2.506   5.252
 8070TIP3    H224096   4.824   2.392   5.155
 8071TIP3   OH224097   4.794   2.439   4.017
 8071TIP3    H124098   4.836   2.419   4.101
 8071TIP3    H224099   4.710   2.393   4.020
 8072TIP3   OH224100   5.011   3.084   5.209
 8072TIP3    H124101   4.966   3.000   5.217
 8072TIP3    H224102   5.000   3.109   5.117
 8073TIP3   OH224103   5.097   2.902   3.814
 8073TIP3    H124104   5.111   2.960   3.739
 8073TIP3    H224105   5.028   2.944   3.864
 8074TIP3   OH224106   4.136   1.674   5.683
 8074TIP3    H124107   4.040   1.679   5.689
 8074TIP3    H224108   4.162   1.622   5.759
 8075TIP3   OH224109   4.961   2.383   4.238
 8075TIP3    H124110   4.945   2.308   4.295
 8075TIP3    H224111   5.054   2.378   4.217
 8076TIP3   OH224112   3.871   2.793   5.333
 8076TIP3    H124113   3.923   2.733   5.385
 8076TIP3    H224114   3.888   2.879   5.372
 8077TIP3   OH224115   4.138   2.402   4.027
 8077TIP3    H124116   4.148   2.311   4.000
 8077TIP3    H224117   4.123   2.398   4.122
 8078TIP3   OH224118   4.076   2.418   4.299
 8078TIP3    H124119   4.139   2.391   4.366
 8078TIP3    H224120   4.077   2.514   4.302
 8079TIP3   OH224121   3.810   2.105   4.500
 8079TIP3    H124122   3.746   2.151   4.553
 8079TIP3    H224123   3.828   2.164   4.427
 8080TIP3   OH224124   4.977   1.739   5.381
 8080TIP3    H124125   5.053   1.786   5.415
 8080TIP3    H224126   4.969   1.663   5.439
 8081TIP3   OH224127   4.870   1.481   4.575
 8081TIP3    H124128   4.848   1.499   4.483
 8081TIP3    H224129   4.914   1.561   4.605
 8082TIP3   OH224130   4.350   2.601   4.234
 8082TIP3    H124131   4.266   2.626   4.271
 8082TIP3    H224132   4.374   2.675   4.178
 8083TIP3   OH224133   4.516   1.682   4.659
 8083TIP3    H124134   4.579   1.749   4.633
 8083TIP3    H224135   4.539   1.661   4.750
 8084TIP3   OH224136   4.815   1.977   5.434
 8084TIP3    H124137   4.840   2.022   5.515
 8084TIP3    H224138   4.866   1.896   5.436
 8085TIP3   OH224139   4.680   1.376   4.746
 8085TIP3    H124140   4.657   1.454   4.797
 8085TIP3    H224141   4.751   1.406   4.689
 8086TIP3   OH224142   4.101   2.691   4.310
 8086TIP3    H124143   4.082   2.763   4.250
 8086TIP3    H224144   4.091   2.729   4.398
 8087TIP3   OH224145   4.191   1.403   4.556
 8087TIP3    H124146   4.179   1.494   4.583
 8087TIP3    H224147   4.286   1.388   4.562
 8088TIP3   OH224148   5.426   1.868   5.414
 8088TIP3    H124149   5.333   1.883   5.428
 8088TIP3    H224150   5.430   1.802   5.345
 8089TIP3   OH224151   5.100   2.098   4.818
 8089TIP3    H124152   5.025   2.039   4.824
 8089TIP3    H224153   5.169   2.054   4.869
 8090TIP3   OH224154   3.830   2.288   4.288
 8090TIP3    H124155   3.902   2.349   4.298
 8090TIP3    H224156   3.861   2.224   4.223
 8091TIP3   OH224157   3.742   1.577   4.409
 8091TIP3    H124158   3.754   1.672   4.416
 8091TIP3    H224159   3.675   1.567   4.342
 8092TIP3   OH224160   5.079   3.023   4.750
 8092TIP3    H124161   5.037   3.077   4.684
 8092TIP3    H224162   5.172   3.041   4.741
 8093TIP3   OH224163   4.139   1.300   5.291
 8093TIP3    H124164   4.109   1.268   5.206
 8093TIP3    H224165   4.129   1.224   5.349
 8094TIP3   OH224166   3.668   2.555   4.682
 8094TIP3    H124167   3.622   2.589   4.759
 8094TIP3    H224168   3.625   2.597   4.608
 8095TIP3   OH224169   3.874   3.100   5.755
 8095TIP3    H124170   3.954   3.109   5.805
 8095TIP3    H224171   3.866   3.006   5.738
 8096TIP3   OH224172   4.332   2.999   5.790
 8096TIP3    H124173   4.421   2.968   5.803
 8096TIP3    H224174   4.298   2.944   5.719
 8097TIP3   OH224175   4.291   2.602   3.914
 8097TIP3    H124176   4.244   2.533   3.960
 8097TIP3    H224177   4.365   2.558   3.873
 8098TIP3   OH224178   4.734   2.640   3.838
 8098TIP3    H124179   4.771   2.577   3.900
 8098TIP3    H224180   4.791   2.634   3.762
 8099TIP3   OH224181   3.967   2.493   5.939
 8099TIP3    H124182   3.990   2.401   5.950
 8099TIP3    H224183   3.879   2.491   5.900
 8100TIP3   OH224184   3.956   2.097   4.137
 8100TIP3    H124185   4.007   2.072   4.213
 8100TIP3    H224186   4.020   2.110   4.068
 8101TIP3   OH224187   4.586   2.577   5.719
 8101TIP3    H124188   4.548   2.598   5.634
 8101TIP3    H224189   4.634   2.495   5.705
 8102TIP3   OH224190   4.544   2.315   3.976
 8102TIP3    H124191   4.517   2.325   4.067
 8102TIP3    H224192   4.523   2.224   3.955
 8103TIP3   OH224193   4.081   2.237   5.942
 8103TIP3    H124194   4.158   2.224   5.887
 8103TIP3    H224195   4.117   2.254   6.029
 8104TIP3   OH224196   4.133   2.035   4.346
 8104TIP3    H124197   4.111   2.003   4.434
 8104TIP3    H224198   4.179   1.963   4.304
 8105TIP3   OH224199   4.437   2.105   5.603
 8105TIP3    H124200   4.359   2.158   5.619
 8105TIP3    H224201   4.473   2.140   5.521
 8106TIP3   OH224202   4.272   1.853   4.184
 8106TIP3    H124203   4.243   1.858   4.093
 8106TIP3    H224204   4.367   1.861   4.179
 8107TIP3   OH224205   4.914   2.508   5.648
 8107TIP3    H124206   4.978   2.578   5.631
 8107TIP3    H224207   4.935   2.478   5.736
 8108TIP3   OH224208   5.069   2.141   3.872
 8108TIP3    H124209   5.057   2.099   3.787
 8108TIP3    H224210   5.045   2.233   3.857
 8109TIP3   OH224211   4.553   1.884   5.716
 8109TIP3    H124212   4.559   1.813   5.652
 8109TIP3    H224213   4.516   1.957   5.667
 8110TIP3   OH224214   4.562   1.689   5.509
 8110TIP3    H124215   4.590   1.726   5.425
 8110TIP3    H224216   4.471   1.661   5.494
 8111TIP3   OH224217   4.560   2.223   5.392
 8111TIP3    H124218   4.644   2.269   5.400
 8111TIP3    H224219   4.507   2.281   5.337
 8112TIP3   OH224220   5.150   2.188   5.759
 8112TIP3    H124221   5.209   2.114   5.771
 8112TIP3    H224222   5.207   2.264   5.752
 8113TIP3   OH224223   5.216   2.448   5.465
 8113TIP3    H124224   5.167   2.531   5.462
 8113TIP3    H224225   5.304   2.472   5.436
 8114TIP3   OH224226   4.435   1.969   5.955
 8114TIP3    H124227   4.367   1.905   5.976
 8114TIP3    H224228   4.467   1.944   5.869
 8115TIP3   OH224229   4.682   1.459   5.614
 8115TIP3    H124230   4.643   1.540   5.580
 8115TIP3    H224231   4.614   1.393   5.600
 8116TIP3   OH224232   4.812   1.928   5.817
 8116TIP3    H124233   4.806   1.917   5.911
 8116TIP3    H224234   4.724   1.906   5.785
 8117TIP3   OH224235   5.054   1.878   5.683
 8117TIP3    H124236   4.976   1.882   5.739
 8117TIP3    H224237   5.126   1.862   5.743
 8118TIP3   OH224238   5.291   1.851   5.833
 8118TIP3    H124239   5.303   1.757   5.841
 8118TIP3    H224240   5.284   1.882   5.924
 8119TIP3   OH224241   4.269   1.751   6.021
 8119TIP3    H124242   4.276   1.663   5.984
 8119TIP3    H224243   4.307   1.743   6.108
 8120TIP3   OH224244   4.748   1.432   5.878
 8120TIP3    H124245   4.818   1.368   5.873
 8120TIP3    H224246   4.719   1.445   5.788
 8121TIP3   OH224247   4.843   1.647   6.023
 8121TIP3    H124248   4.812   1.575   5.968
 8121TIP3    H224249   4.770   1.710   6.023
 8122TIP3   OH224250   4.102   2.904   4.131
 8122TIP3    H124251   4.190   2.881   4.102
 8122TIP3    H224252   4.062   2.947   4.055
 8123TIP3   OH224253   3.554   2.294   4.307
 8123TIP3    H124254   3.649   2.305   4.305
 8123TIP3    H224255   3.539   2.208   4.270
 8124TIP3   OH224256   3.465   2.860   4.764
 8124TIP3    H124257   3.401   2.806   4.719
 8124TIP3    H224258   3.509   2.800   4.825
 8125TIP3   OH224259   3.609   2.695   4.935
 8125TIP3    H124260   3.600   2.626   5.000
 8125TIP3    H224261   3.661   2.762   4.980
 8126TIP3   OH224262   5.347   3.091   4.743
 8126TIP3    H124263   5.370   3.119   4.831
 8126TIP3    H224264   5.405   3.141   4.685
 8127TIP3   OH224265   5.379   3.138   5.016
 8127TIP3    H124266   5.322   3.062   5.023
 8127TIP3    H224267   5.449   3.121   5.080
 8128TIP3   OH224268   5.391   2.820   5.554
 8128TIP3    H124269   5.298   2.814   5.536
 8128TIP3    H224270   5.405   2.912   5.577
 8129TIP3   OH224271   5.237   2.354   4.206
 8129TIP3    H124272   5.295   2.422   4.174
 8129TIP3    H224273   5.286   2.313   4.278
 8130TIP3   OH224274   5.371   2.209   4.404
 8130TIP3    H124275   5.305   2.172   4.463
 8130TIP3    H224276   5.438   2.244   4.462
 8131TIP3   OH224277   5.417   2.596   4.863
 8131TIP3    H124278   5.465   2.526   4.818
 8131TIP3    H224279   5.414   2.667   4.799
 8132TIP3   OH224280   5.220   2.919   5.039
 8132TIP3    H124281   5.174   2.906   5.123
 8132TIP3    H224282   5.186   2.850   4.983
 8133TIP3   OH224283   5.277   2.127   4.052
 8133TIP3    H124284   5.207   2.125   3.987
 8133TIP3    H224285   5.260   2.206   4.103
 8134TIP3   OH224286   5.120   1.777   3.992
 8134TIP3    H124287   5.079   1.811   3.913
 8134TIP3    H224288   5.113   1.682   3.985
 8135TIP3   OH224289   5.163   2.074   4.544
 8135TIP3    H124290   5.171   1.980   4.532
 8135TIP3    H224291   5.149   2.084   4.638
 8136TIP3   OH224292   3.786   2.126   5.325
 8136TIP3    H124293   3.778   2.098   5.234
 8136TIP3    H224294   3.881   2.123   5.342
 8137TIP3   OH224295   5.479   2.502   5.391
 8137TIP3    H124296   5.528   2.420   5.379
 8137TIP3    H224297   5.525   2.566   5.336
 8138TIP3   OH224298   5.617   2.264   5.379
 8138TIP3    H124299   5.544   2.225   5.427
 8138TIP3    H224300   5.693   2.212   5.405
 8139TIP3   OH224301   5.087   1.507   3.966
 8139TIP3    H124302   5.155   1.477   4.027
 8139TIP3    H224303   5.007   1.463   3.997
 8140TIP3   OH224304   5.159   1.793   4.427
 8140TIP3    H124305   5.205   1.710   4.439
 8140TIP3    H224306   5.199   1.832   4.350
 8141TIP3   OH224307   5.313   1.963   4.949
 8141TIP3    H124308   5.395   1.976   4.901
 8141TIP3    H224309   5.327   2.005   5.034
 8142TIP3   OH224310   5.382   2.118   5.173
 8142TIP3    H124311   5.315   2.140   5.237
 8142TIP3    H224312   5.400   2.201   5.128
 8143TIP3   OH224313   4.007   1.811   5.954
 8143TIP3    H124314   4.101   1.807   5.973
 8143TIP3    H224315   3.972   1.730   5.991
 8144TIP3   OH224316   5.849   1.707   5.717
 8144TIP3    H124317   5.913   1.648   5.677
 8144TIP3    H224318   5.813   1.756   5.643
 8145TIP3   OH224319   5.274   1.544   4.480
 8145TIP3    H124320   5.320   1.529   4.563
 8145TIP3    H224321   5.212   1.472   4.473
 8146TIP3   OH224322   3.983   1.528   5.322
 8146TIP3    H124323   4.035   1.448   5.322
 8146TIP3    H224324   4.045   1.597   5.298
 8147TIP3   OH224325   3.755   1.788   5.363
 8147TIP3    H124326   3.808   1.777   5.284
 8147TIP3    H224327   3.775   1.877   5.393
 8148TIP3   OH224328   5.697   1.833   5.528
 8148TIP3    H124329   5.628   1.871   5.583
 8148TIP3    H224330   5.651   1.772   5.471
 8149TIP3   OH224331   5.316   1.453   4.117
 8149TIP3    H124332   5.365   1.394   4.060
 8149TIP3    H224333   5.371   1.532   4.121
 8150TIP3   OH224334   3.751   1.290   4.861
 8150TIP3    H124335   3.666   1.289   4.905
 8150TIP3    H224336   3.738   1.346   4.785
 8151TIP3   OH224337   4.900   3.014   4.388
 8151TIP3    H124338   4.956   3.004   4.311
 8151TIP3    H224339   4.943   3.081   4.441
 8152TIP3   OH224340   3.977   1.354   5.698
 8152TIP3    H124341   3.927   1.352   5.780
 8152TIP3    H224342   3.920   1.400   5.636
 8153TIP3   OH224343   3.992   2.820   5.763
 8153TIP3    H124344   3.900   2.792   5.758
 8153TIP3    H224345   4.016   2.808   5.855
 8154TIP3   OH224346   4.216   2.857   5.315
 8154TIP3    H124347   4.166   2.933   5.284
 8154TIP3    H224348   4.301   2.866   5.273
 8155TIP3   OH224349   4.626   3.092   5.465
 8155TIP3    H124350   4.671   3.070   5.546
 8155TIP3    H224351   4.688   3.146   5.417
 8156TIP3   OH224352   4.816   3.245   5.332
 8156TIP3    H124353   4.884   3.192   5.291
 8156TIP3    H224354   4.864   3.305   5.389
 8157TIP3   OH224355   5.608   1.576   5.416
 8157TIP3    H124356   5.521   1.569   5.376
 8157TIP3    H224357   5.643   1.488   5.412
 8158TIP3   OH224358   3.878   3.098   5.366
 8158TIP3    H124359   3.787   3.115   5.342
 8158TIP3    H224360   3.898   3.166   5.431
 8159TIP3   OH224361   4.109   3.092   5.216
 8159TIP3    H124362   4.026   3.095   5.264
 8159TIP3    H224363   4.085   3.114   5.126
 8160TIP3   OH224364   4.518   3.112   5.009
 8160TIP3    H124365   4.441   3.126   4.952
 8160TIP3    H224366   4.531   3.196   5.052
 8161TIP3   OH224367   4.764   2.999   4.953
 8161TIP3    H124368   4.681   3.039   4.976
 8161TIP3    H224369   4.827   3.072   4.954
 8162TIP3   OH224370   4.979   3.192   4.948
 8162TIP3    H124371   4.983   3.280   4.911
 8162TIP3    H224372   5.019   3.136   4.882
 8163TIP3   OH224373   3.782   2.874   5.082
 8163TIP3    H124374   3.810   2.852   5.171
 8163TIP3    H224375   3.853   2.843   5.027
 8164TIP3   OH224376   3.986   2.764   4.942
 8164TIP3    H124377   3.997   2.679   4.984
 8164TIP3    H224378   4.073   2.804   4.947
 8165TIP3   OH224379   4.255   2.850   4.969
 8165TIP3    H124380   4.271   2.757   4.953
 8165TIP3    H224381   4.312   2.873   5.042
 8166TIP3   OH224382   4.814   1.495   5.052
 8166TIP3    H124383   4.776   1.424   5.103
 8166TIP3    H224384   4.884   1.453   5.001
 8167TIP3   OH224385   5.316   1.417   4.940
 8167TIP3    H124386   5.352   1.466   4.866
 8167TIP3    H224387   5.223   1.439   4.940
 8168TIP3   OH224388   5.431   1.491   4.702
 8168TIP3    H124389   5.499   1.429   4.677
 8168TIP3    H224390   5.471   1.577   4.690
 8169TIP3   OH224391   4.053   1.197   5.049
 8169TIP3    H124392   3.963   1.163   5.055
 8169TIP3    H224393   4.108   1.119   5.041
 8170TIP3   OH224394   3.880   1.101   4.697
 8170TIP3    H124395   3.905   1.151   4.620
 8170TIP3    H224396   3.841   1.166   4.756
 8171TIP3   OH224397   4.537   1.238   4.947
 8171TIP3    H124398   4.586   1.284   4.878
 8171TIP3    H224399   4.579   1.266   5.028
 8172TIP3   OH224400   5.028   1.377   4.924
 8172TIP3    H124401   5.043   1.341   4.836
 8172TIP3    H224402   5.038   1.301   4.982
 8173TIP3   OH224403   5.090   1.333   4.489
 8173TIP3    H124404   5.010   1.379   4.514
 8173TIP3    H224405   5.080   1.245   4.527
 8174TIP3   OH224406   3.552   2.676   4.465
 8174TIP3    H124407   3.466   2.641   4.438
 8174TIP3    H224408   3.553   2.765   4.431
 8175TIP3   OH224409   3.983   1.234   4.463
 8175TIP3    H124410   4.029   1.175   4.403
 8175TIP3    H224411   4.051   1.291   4.498
 8176TIP3   OH224412   4.466   1.430   4.563
 8176TIP3    H124413   4.526   1.377   4.616
 8176TIP3    H224414   4.483   1.520   4.592
 8177TIP3   OH224415   4.355   2.824   4.060
 8177TIP3    H124416   4.438   2.851   4.021
 8177TIP3    H224417   4.323   2.753   4.003
 8178TIP3   OH224418   5.054   2.975   4.161
 8178TIP3    H124419   5.051   2.880   4.151
 8178TIP3    H224420   5.013   3.009   4.081
 8179TIP3   OH224421   4.284   1.482   5.927
 8179TIP3    H124422   4.249   1.418   5.989
 8179TIP3    H224423   4.377   1.490   5.950
 8180TIP3   OH224424   4.531   1.484   6.051
 8180TIP3    H124425   4.609   1.463   6.000
 8180TIP3    H224426   4.528   1.417   6.119
 8181TIP3   OH224427   3.658   2.660   4.111
 8181TIP3    H124428   3.658   2.668   4.206
 8181TIP3    H224429   3.740   2.616   4.090
 8182TIP3   OH224430   5.354   1.579   5.839
 8182TIP3    H124431   5.370   1.552   5.929
 8182TIP3    H224432   5.439   1.575   5.797
 8183TIP3   OH224433   5.274   3.120   5.316
 8183TIP3    H124434   5.186   3.090   5.293
 8183TIP3    H224435   5.261   3.208   5.351
 8184TIP3   OH224436   6.549   2.493   4.083
 8184TIP3    H124437   6.514   2.580   4.063
 8184TIP3    H224438   6.479   2.432   4.058
 8185TIP3   OH224439   6.545   2.489   4.512
 8185TIP3    H124440   6.600   2.471   4.589
 8185TIP3    H224441   6.502   2.406   4.494
 8186TIP3   OH224442   5.843   2.343   4.860
 8186TIP3    H124443   5.884   2.291   4.929
 8186TIP3    H224444   5.915   2.369   4.803
 8187TIP3   OH224445   6.818   2.796   4.181
 8187TIP3    H124446   6.804   2.729   4.247
 8187TIP3    H224447   6.836   2.876   4.231
 8188TIP3   OH224448   5.835   2.772   4.537
 8188TIP3    H124449   5.818   2.678   4.542
 8188TIP3    H224450   5.931   2.779   4.528
 8189TIP3   OH224451   5.518   1.979   4.323
 8189TIP3    H124452   5.480   2.064   4.346
 8189TIP3    H224453   5.446   1.931   4.282
 8190TIP3   OH224454   5.602   2.292   4.544
 8190TIP3    H124455   5.653   2.215   4.568
 8190TIP3    H224456   5.668   2.358   4.521
 8191TIP3   OH224457   6.482   3.216   4.200
 8191TIP3    H124458   6.501   3.154   4.130
 8191TIP3    H224459   6.494   3.165   4.280
 8192TIP3   OH224460   6.353   2.709   4.516
 8192TIP3    H124461   6.399   2.630   4.488
 8192TIP3    H224462   6.423   2.768   4.546
 8193TIP3   OH224463   7.399   2.033   4.522
 8193TIP3    H124464   7.413   2.118   4.563
 8193TIP3    H224465   7.430   2.044   4.432
 8194TIP3   OH224466   6.756   2.199   4.547
 8194TIP3    H124467   6.789   2.114   4.576
 8194TIP3    H224468   6.720   2.183   4.460
 8195TIP3   OH224469   6.115   1.853   4.505
 8195TIP3    H124470   6.095   1.927   4.448
 8195TIP3    H224471   6.060   1.782   4.473
 8196TIP3   OH224472   6.814   1.958   4.145
 8196TIP3    H124473   6.877   1.951   4.216
 8196TIP3    H224474   6.864   1.992   4.071
 8197TIP3   OH224475   5.741   2.069   4.634
 8197TIP3    H124476   5.824   2.050   4.678
 8197TIP3    H224477   5.744   2.019   4.553
 8198TIP3   OH224478   6.157   2.270   4.457
 8198TIP3    H124479   6.252   2.256   4.462
 8198TIP3    H224480   6.123   2.188   4.422
 8199TIP3   OH224481   7.445   2.253   4.691
 8199TIP3    H124482   7.355   2.284   4.687
 8199TIP3    H224483   7.479   2.285   4.774
 8200TIP3   OH224484   6.094   1.860   4.960
 8200TIP3    H124485   6.044   1.896   4.887
 8200TIP3    H224486   6.039   1.876   5.037
 8201TIP3   OH224487   6.411   2.702   3.970
 8201TIP3    H124488   6.387   2.683   3.879
 8201TIP3    H224489   6.370   2.787   3.988
 8202TIP3   OH224490   6.188   2.633   4.725
 8202TIP3    H124491   6.135   2.705   4.760
 8202TIP3    H224492   6.238   2.671   4.653
 8203TIP3   OH224493   6.970   1.980   4.368
 8203TIP3    H124494   6.925   1.959   4.450
 8203TIP3    H224495   7.026   2.055   4.389
 8204TIP3   OH224496   5.987   1.964   4.727
 8204TIP3    H124497   6.042   2.039   4.749
 8204TIP3    H224498   6.034   1.920   4.655
 8205TIP3   OH224499   6.032   2.836   4.834
 8205TIP3    H124500   6.018   2.926   4.804
 8205TIP3    H224501   5.954   2.816   4.885
 8206TIP3   OH224502   5.409   2.541   4.086
 8206TIP3    H124503   5.379   2.558   3.997
 8206TIP3    H224504   5.433   2.627   4.120
 8207TIP3   OH224505   6.846   3.042   4.325
 8207TIP3    H124506   6.758   3.037   4.361
 8207TIP3    H224507   6.847   3.125   4.277
 8208TIP3   OH224508   7.182   1.950   4.679
 8208TIP3    H124509   7.101   1.975   4.635
 8208TIP3    H224510   7.251   1.972   4.616
 8209TIP3   OH224511   6.443   1.571   4.689
 8209TIP3    H124512   6.437   1.479   4.713
 8209TIP3    H224513   6.366   1.611   4.730
 8210TIP3   OH224514   6.556   3.069   3.975
 8210TIP3    H124515   6.608   2.990   3.964
 8210TIP3    H224516   6.614   3.140   3.948
 8211TIP3   OH224517   6.715   2.854   3.930
 8211TIP3    H124518   6.719   2.776   3.874
 8211TIP3    H224519   6.753   2.826   4.013
 8212TIP3   OH224520   7.083   2.932   4.665
 8212TIP3    H124521   7.066   2.857   4.608
 8212TIP3    H224522   7.069   3.008   4.609
 8213TIP3   OH224523   6.373   2.331   3.937
 8213TIP3    H124524   6.292   2.377   3.918
 8213TIP3    H224525   6.421   2.331   3.854
 8214TIP3   OH224526   6.343   2.145   3.624
 8214TIP3    H124527   6.409   2.192   3.675
 8214TIP3    H224528   6.394   2.079   3.575
 8215TIP3   OH224529   7.264   2.592   4.536
 8215TIP3    H124530   7.180   2.637   4.534
 8215TIP3    H224531   7.300   2.604   4.447
 8216TIP3   OH224532   6.735   2.427   3.894
 8216TIP3    H124533   6.680   2.453   3.968
 8216TIP3    H224534   6.818   2.400   3.934
 8217TIP3   OH224535   6.963   2.451   4.847
 8217TIP3    H124536   6.960   2.535   4.892
 8217TIP3    H224537   6.882   2.448   4.797
 8218TIP3   OH224538   5.960   2.402   4.301
 8218TIP3    H124539   5.926   2.340   4.236
 8218TIP3    H224540   6.034   2.355   4.341
 8219TIP3   OH224541   6.099   2.825   4.445
 8219TIP3    H124542   6.077   2.812   4.353
 8219TIP3    H224543   6.187   2.787   4.454
 8220TIP3   OH224544   6.053   2.399   4.679
 8220TIP3    H124545   6.092   2.362   4.600
 8220TIP3    H224546   6.102   2.479   4.696
 8221TIP3   OH224547   6.603   3.042   4.451
 8221TIP3    H124548   6.594   3.120   4.504
 8221TIP3    H224549   6.591   2.969   4.512
 8222TIP3   OH224550   6.236   2.933   4.999
 8222TIP3    H124551   6.175   2.991   5.046
 8222TIP3    H224552   6.180   2.881   4.941
 8223TIP3   OH224553   6.564   2.284   3.731
 8223TIP3    H124554   6.625   2.342   3.779
 8223TIP3    H224555   6.592   2.289   3.640
 8224TIP3   OH224556   6.001   2.498   5.128
 8224TIP3    H124557   6.000   2.590   5.154
 8224TIP3    H224558   5.908   2.477   5.115
 8225TIP3   OH224559   6.303   2.960   3.987
 8225TIP3    H124560   6.390   3.000   3.990
 8225TIP3    H224561   6.250   3.022   3.935
 8226TIP3   OH224562   6.027   3.092   5.085
 8226TIP3    H124563   5.998   3.101   4.995
 8226TIP3    H224564   5.947   3.076   5.135
 8227TIP3   OH224565   7.076   1.511   3.791
 8227TIP3    H124566   7.000   1.533   3.845
 8227TIP3    H224567   7.087   1.586   3.733
 8228TIP3   OH224568   5.837   2.242   4.101
 8228TIP3    H124569   5.758   2.289   4.073
 8228TIP3    H224570   5.807   2.152   4.114
 8229TIP3   OH224571   6.902   2.887   3.344
 8229TIP3    H124572   6.897   2.980   3.321
 8229TIP3    H224573   6.991   2.862   3.320
 8230TIP3   OH224574   5.605   2.655   5.057
 8230TIP3    H124575   5.543   2.629   4.988
 8230TIP3    H224576   5.645   2.572   5.084
 8231TIP3   OH224577   5.458   2.827   4.695
 8231TIP3    H124578   5.553   2.839   4.696
 8231TIP3    H224579   5.422   2.910   4.728
 8232TIP3   OH224580   7.314   3.289   4.736
 8232TIP3    H124581   7.318   3.194   4.750
 8232TIP3    H224582   7.235   3.316   4.783
 8233TIP3   OH224583   6.422   3.082   4.862
 8233TIP3    H124584   6.412   3.172   4.892
 8233TIP3    H224585   6.356   3.033   4.911
 8234TIP3   OH224586   6.201   3.174   3.815
 8234TIP3    H124587   6.158   3.154   3.732
 8234TIP3    H224588   6.163   3.258   3.842
 8235TIP3   OH224589   5.636   3.034   4.195
 8235TIP3    H124590   5.681   3.024   4.279
 8235TIP3    H224591   5.588   2.952   4.185
 8236TIP3   OH224592   6.403   3.109   3.441
 8236TIP3    H124593   6.453   3.035   3.406
 8236TIP3    H224594   6.439   3.124   3.529
 8237TIP3   OH224595   6.456   3.153   3.710
 8237TIP3    H124596   6.370   3.155   3.753
 8237TIP3    H224597   6.514   3.114   3.776
 8238TIP3   OH224598   7.208   2.404   5.001
 8238TIP3    H124599   7.124   2.413   4.956
 8238TIP3    H224600   7.226   2.310   5.000
 8239TIP3   OH224601   5.812   2.836   5.005
 8239TIP3    H124602   5.866   2.827   5.084
 8239TIP3    H224603   5.738   2.777   5.020
 8240TIP3   OH224604   6.200   1.643   4.821
 8240TIP3    H124605   6.117   1.608   4.788
 8240TIP3    H224606   6.176   1.723   4.868
 8241TIP3   OH224607   6.725   1.769   5.014
 8241TIP3    H124608   6.793   1.748   5.078
 8241TIP3    H224609   6.643   1.753   5.059
 8242TIP3   OH224610   6.964   2.186   4.938
 8242TIP3    H124611   6.924   2.182   5.024
 8242TIP3    H224612   6.949   2.276   4.908
 8243TIP3   OH224613   6.643   2.279   3.471
 8243TIP3    H124614   6.596   2.273   3.387
 8243TIP3    H224615   6.727   2.320   3.449
 8244TIP3   OH224616   6.351   1.683   3.785
 8244TIP3    H124617   6.313   1.690   3.873
 8244TIP3    H224618   6.315   1.601   3.751
 8245TIP3   OH224619   6.139   2.176   4.821
 8245TIP3    H124620   6.096   2.182   4.907
 8245TIP3    H224621   6.116   2.257   4.777
 8246TIP3   OH224622   6.020   2.055   4.346
 8246TIP3    H124623   5.930   2.031   4.370
 8246TIP3    H224624   6.030   2.024   4.256
 8247TIP3   OH224625   6.498   2.127   4.073
 8247TIP3    H124626   6.450   2.199   4.032
 8247TIP3    H224627   6.556   2.095   4.004
 8248TIP3   OH224628   6.685   2.395   5.146
 8248TIP3    H124629   6.658   2.327   5.208
 8248TIP3    H224630   6.777   2.410   5.166
 8249TIP3   OH224631   6.666   2.143   4.295
 8249TIP3    H124632   6.598   2.163   4.231
 8249TIP3    H224633   6.714   2.070   4.257
 8250TIP3   OH224634   5.982   2.187   5.048
 8250TIP3    H124635   6.024   2.240   5.115
 8250TIP3    H224636   5.960   2.105   5.092
 8251TIP3   OH224637   6.019   1.664   3.763
 8251TIP3    H124638   6.010   1.670   3.859
 8251TIP3    H224639   5.941   1.707   3.729
 8252TIP3   OH224640   5.568   1.711   4.630
 8252TIP3    H124641   5.640   1.746   4.684
 8252TIP3    H224642   5.607   1.697   4.544
 8253TIP3   OH224643   5.465   1.688   4.130
 8253TIP3    H124644   5.512   1.723   4.054
 8253TIP3    H224645   5.402   1.755   4.153
 8254TIP3   OH224646   6.712   2.399   4.724
 8254TIP3    H124647   6.736   2.333   4.659
 8254TIP3    H224648   6.667   2.350   4.793
 8255TIP3   OH224649   6.384   1.843   4.395
 8255TIP3    H124650   6.307   1.842   4.452
 8255TIP3    H224651   6.458   1.837   4.456
 8256TIP3   OH224652   5.779   1.931   4.402
 8256TIP3    H124653   5.691   1.935   4.364
 8256TIP3    H224654   5.809   1.842   4.384
 8257TIP3   OH224655   6.031   1.935   4.099
 8257TIP3    H124656   6.126   1.943   4.090
 8257TIP3    H224657   5.997   1.951   4.011
 8258TIP3   OH224658   6.827   1.939   4.605
 8258TIP3    H124659   6.810   1.954   4.698
 8258TIP3    H224660   6.758   1.878   4.578
 8259TIP3   OH224661   5.922   1.956   3.849
 8259TIP3    H124662   5.859   1.905   3.797
 8259TIP3    H224663   5.975   2.002   3.784
 8260TIP3   OH224664   7.029   3.637   4.827
 8260TIP3    H124665   7.027   3.652   4.732
 8260TIP3    H224666   7.109   3.682   4.856
 8261TIP3   OH224667   5.973   2.756   5.235
 8261TIP3    H124668   6.055   2.774   5.282
 8261TIP3    H224669   5.904   2.767   5.301
 8262TIP3   OH224670   6.431   2.219   4.503
 8262TIP3    H124671   6.498   2.171   4.454
 8262TIP3    H224672   6.431   2.176   4.589
 8263TIP3   OH224673   5.920   1.684   4.385
 8263TIP3    H124674   5.890   1.610   4.437
 8263TIP3    H224675   5.940   1.646   4.299
 8264TIP3   OH224676   6.405   2.118   4.767
 8264TIP3    H124677   6.319   2.150   4.790
 8264TIP3    H224678   6.466   2.169   4.820
 8265TIP3   OH224679   6.136   2.467   3.879
 8265TIP3    H124680   6.061   2.413   3.854
 8265TIP3    H224681   6.110   2.510   3.960
 8266TIP3   OH224682   7.028   2.728   4.487
 8266TIP3    H124683   7.066   2.777   4.413
 8266TIP3    H224684   6.950   2.687   4.451
 8267TIP3   OH224685   6.605   1.784   3.796
 8267TIP3    H124686   6.512   1.763   3.787
 8267TIP3    H224687   6.607   1.879   3.802
 8268TIP3   OH224688   6.551   2.811   4.902
 8268TIP3    H124689   6.604   2.798   4.980
 8268TIP3    H224690   6.512   2.898   4.914
 8269TIP3   OH224691   6.662   2.052   3.858
 8269TIP3    H124692   6.757   2.056   3.867
 8269TIP3    H224693   6.640   2.128   3.804
 8270TIP3   OH224694   5.824   2.482   4.528
 8270TIP3    H124695   5.864   2.465   4.442
 8270TIP3    H224696   5.891   2.455   4.591
 8271TIP3   OH224697   6.290   2.629   3.722
 8271TIP3    H124698   6.242   2.711   3.720
 8271TIP3    H224699   6.236   2.571   3.775
 8272TIP3   OH224700   5.727   2.448   5.199
 8272TIP3    H124701   5.779   2.466   5.277
 8272TIP3    H224702   5.679   2.368   5.220
 8273TIP3   OH224703   6.458   2.555   5.183
 8273TIP3    H124704   6.390   2.498   5.146
 8273TIP3    H224705   6.540   2.514   5.157
 8274TIP3   OH224706   6.693   3.104   4.787
 8274TIP3    H124707   6.598   3.089   4.790
 8274TIP3    H224708   6.714   3.138   4.874
 8275TIP3   OH224709   7.075   2.142   3.673
 8275TIP3    H124710   7.017   2.097   3.611
 8275TIP3    H224711   7.082   2.231   3.640
 8276TIP3   OH224712   7.328   3.009   4.759
 8276TIP3    H124713   7.234   2.994   4.749
 8276TIP3    H224714   7.365   2.982   4.675
 8277TIP3   OH224715   6.818   2.957   3.604
 8277TIP3    H124716   6.791   2.883   3.660
 8277TIP3    H224717   6.841   2.917   3.520
 8278TIP3   OH224718   6.801   2.592   4.382
 8278TIP3    H124719   6.711   2.571   4.407
 8278TIP3    H224720   6.836   2.511   4.345
 8279TIP3   OH224721   5.960   2.830   4.200
 8279TIP3    H124722   5.959   2.906   4.142
 8279TIP3    H224723   5.868   2.818   4.225
 8280TIP3   OH224724   5.517   2.112   3.914
 8280TIP3    H124725   5.560   2.195   3.936
 8280TIP3    H224726   5.435   2.113   3.964
 8281TIP3   OH224727   6.031   2.583   4.099
 8281TIP3    H124728   6.022   2.672   4.132
 8281TIP3    H224729   6.009   2.528   4.174
 8282TIP3   OH224730   6.238   3.151   4.655
 8282TIP3    H124731   6.274   3.225   4.605
 8282TIP3    H224732   6.312   3.118   4.705
 8283TIP3   OH224733   5.871   3.052   4.050
 8283TIP3    H124734   5.784   3.059   4.090
 8283TIP3    H224735   5.906   3.141   4.055
 8284TIP3   OH224736   6.586   2.821   4.627
 8284TIP3    H124737   6.574   2.815   4.722
 8284TIP3    H224738   6.663   2.766   4.609
 8285TIP3   OH224739   6.589   2.695   3.505
 8285TIP3    H124740   6.631   2.678   3.590
 8285TIP3    H224741   6.506   2.649   3.510
 8286TIP3   OH224742   6.846   3.310   4.668
 8286TIP3    H124743   6.777   3.246   4.689
 8286TIP3    H224744   6.809   3.361   4.596
 8287TIP3   OH224745   6.895   3.159   3.301
 8287TIP3    H124746   6.914   3.220   3.229
 8287TIP3    H224747   6.825   3.202   3.350
 8288TIP3   OH224748   5.923   1.937   5.167
 8288TIP3    H124749   5.828   1.948   5.173
 8288TIP3    H224750   5.947   1.889   5.246
 8289TIP3   OH224751   6.760   2.647   3.727
 8289TIP3    H124752   6.742   2.571   3.782
 8289TIP3    H224753   6.853   2.641   3.707
 8290TIP3   OH224754   5.663   3.046   4.821
 8290TIP3    H124755   5.714   2.983   4.872
 8290TIP3    H224756   5.679   3.130   4.863
 8291TIP3   OH224757   5.932   2.658   3.513
 8291TIP3    H124758   5.943   2.567   3.486
 8291TIP3    H224759   5.920   2.653   3.608
 8292TIP3   OH224760   5.876   2.674   3.786
 8292TIP3    H124761   5.941   2.648   3.852
 8292TIP3    H224762   5.875   2.770   3.790
 8293TIP3   OH224763   5.609   2.364   3.996
 8293TIP3    H124764   5.544   2.412   4.047
 8293TIP3    H224765   5.630   2.421   3.922
 8294TIP3   OH224766   6.770   1.999   4.868
 8294TIP3    H124767   6.850   2.040   4.902
 8294TIP3    H224768   6.757   1.921   4.922
 8295TIP3   OH224769   6.666   1.738   4.062
 8295TIP3    H124770   6.644   1.755   3.970
 8295TIP3    H224771   6.709   1.818   4.092
 8296TIP3   OH224772   6.144   2.856   3.718
 8296TIP3    H124773   6.060   2.882   3.757
 8296TIP3    H224774   6.169   2.931   3.664
 8297TIP3   OH224775   6.310   1.938   4.145
 8297TIP3    H124776   6.373   2.006   4.118
 8297TIP3    H224777   6.335   1.917   4.235
 8298TIP3   OH224778   6.610   2.231   4.919
 8298TIP3    H124779   6.637   2.273   5.001
 8298TIP3    H224780   6.662   2.151   4.915
 8299TIP3   OH224781   6.477   1.633   4.232
 8299TIP3    H124782   6.453   1.710   4.282
 8299TIP3    H224783   6.547   1.662   4.175
 8300TIP3   OH224784   5.896   2.948   3.798
 8300TIP3    H124785   5.877   3.020   3.738
 8300TIP3    H224786   5.886   2.986   3.885
 8301TIP3   OH224787   5.988   1.660   4.044
 8301TIP3    H124788   5.977   1.751   4.070
 8301TIP3    H224789   6.082   1.645   4.049
 8302TIP3   OH224790   7.227   2.124   4.909
 8302TIP3    H124791   7.133   2.136   4.924
 8302TIP3    H224792   7.232   2.067   4.832
 8303TIP3   OH224793   6.893   2.333   4.296
 8303TIP3    H124794   6.816   2.277   4.306
 8303TIP3    H224795   6.960   2.293   4.352
 8304TIP3   OH224796   5.634   2.539   3.778
 8304TIP3    H124797   5.706   2.601   3.787
 8304TIP3    H224798   5.664   2.476   3.713
 8305TIP3   OH224799   5.540   1.834   3.912
 8305TIP3    H124800   5.551   1.929   3.919
 8305TIP3    H224801   5.498   1.821   3.827
 8306TIP3   OH224802   6.874   3.307   4.238
 8306TIP3    H124803   6.834   3.360   4.170
 8306TIP3    H224804   6.968   3.317   4.225
 8307TIP3   OH224805   5.940   1.552   4.777
 8307TIP3    H124806   5.907   1.525   4.691
 8307TIP3    H224807   5.939   1.472   4.829
 8308TIP3   OH224808   5.459   2.812   4.169
 8308TIP3    H124809   5.415   2.847   4.247
 8308TIP3    H224810   5.415   2.855   4.095
 8309TIP3   OH224811   5.655   3.355   5.245
 8309TIP3    H124812   5.739   3.352   5.290
 8309TIP3    H224813   5.626   3.264   5.241
 8310TIP3   OH224814   6.131   3.260   5.276
 8310TIP3    H124815   6.221   3.230   5.291
 8310TIP3    H224816   6.098   3.204   5.206
 8311TIP3   OH224817   6.086   2.859   3.401
 8311TIP3    H124818   6.039   2.789   3.447
 8311TIP3    H224819   6.161   2.815   3.360
 8312TIP3   OH224820   6.746   3.198   5.039
 8312TIP3    H124821   6.761   3.128   5.102
 8312TIP3    H224822   6.821   3.257   5.051
 8313TIP3   OH224823   6.530   2.896   3.325
 8313TIP3    H124824   6.566   2.833   3.388
 8313TIP3    H224825   6.588   2.890   3.249
 8314TIP3   OH224826   5.772   2.759   5.428
 8314TIP3    H124827   5.786   2.665   5.441
 8314TIP3    H224828   5.684   2.765   5.389
 8315TIP3   OH224829   5.752   2.350   3.620
 8315TIP3    H124830   5.803   2.324   3.697
 8315TIP3    H224831   5.818   2.364   3.552
 8316TIP3   OH224832   6.389   2.832   5.205
 8316TIP3    H124833   6.345   2.853   5.122
 8316TIP3    H224834   6.427   2.745   5.191
 8317TIP3   OH224835   6.337   2.571   3.459
 8317TIP3    H124836   6.311   2.581   3.551
 8317TIP3    H224837   6.317   2.479   3.439
 8318TIP3   OH224838   6.861   2.879   4.821
 8318TIP3    H124839   6.939   2.904   4.771
 8318TIP3    H224840   6.798   2.948   4.804
 8319TIP3   OH224841   5.887   2.496   5.420
 8319TIP3    H124842   5.972   2.478   5.378
 8319TIP3    H224843   5.909   2.513   5.512
 8320TIP3   OH224844   5.926   2.291   3.832
 8320TIP3    H124845   5.908   2.261   3.921
 8320TIP3    H224846   5.976   2.221   3.791
 8321TIP3   OH224847   6.236   2.362   5.084
 8321TIP3    H124848   6.158   2.416   5.096
 8321TIP3    H224849   6.276   2.395   5.003
 8322TIP3   OH224850   6.071   2.110   3.677
 8322TIP3    H124851   6.041   2.114   3.586
 8322TIP3    H224852   6.166   2.119   3.672
 8323TIP3   OH224853   6.742   2.749   5.167
 8323TIP3    H124854   6.813   2.713   5.114
 8323TIP3    H224855   6.740   2.694   5.245
 8324TIP3   OH224856   6.866   2.399   3.358
 8324TIP3    H124857   6.852   2.357   3.273
 8324TIP3    H224858   6.842   2.490   3.344
 8325TIP3   OH224859   6.346   2.139   5.200
 8325TIP3    H124860   6.351   2.069   5.136
 8325TIP3    H224861   6.311   2.214   5.150
 8326TIP3   OH224862   6.354   1.945   4.995
 8326TIP3    H124863   6.383   1.981   4.911
 8326TIP3    H224864   6.263   1.919   4.979
 8327TIP3   OH224865   6.362   2.479   4.875
 8327TIP3    H124866   6.450   2.513   4.859
 8327TIP3    H224867   6.305   2.536   4.823
 8328TIP3   OH224868   6.952   2.433   5.244
 8328TIP3    H124869   6.994   2.347   5.249
 8328TIP3    H224870   7.025   2.495   5.236
 8329TIP3   OH224871   6.983   2.699   4.984
 8329TIP3    H124872   6.931   2.761   4.934
 8329TIP3    H224873   7.073   2.712   4.953
 8330TIP3   OH224874   6.231   2.225   5.441
 8330TIP3    H124875   6.161   2.164   5.463
 8330TIP3    H224876   6.261   2.199   5.355
 8331TIP3   OH224877   6.468   1.713   5.101
 8331TIP3    H124878   6.427   1.792   5.066
 8331TIP3    H224879   6.403   1.644   5.087
 8332TIP3   OH224880   6.602   2.184   5.302
 8332TIP3    H124881   6.592   2.171   5.397
 8332TIP3    H224882   6.516   2.161   5.266
 8333TIP3   OH224883   6.852   2.144   5.178
 8333TIP3    H124884   6.772   2.140   5.232
 8333TIP3    H224885   6.921   2.115   5.237
 8334TIP3   OH224886   7.086   2.099   5.325
 8334TIP3    H124887   7.098   2.005   5.329
 8334TIP3    H224888   7.082   2.127   5.417
 8335TIP3   OH224889   6.063   2.006   5.504
 8335TIP3    H124890   6.070   1.917   5.468
 8335TIP3    H224891   6.101   2.000   5.592
 8336TIP3   OH224892   6.539   1.691   5.365
 8336TIP3    H124893   6.605   1.622   5.358
 8336TIP3    H224894   6.509   1.703   5.274
 8337TIP3   OH224895   6.638   1.902   5.512
 8337TIP3    H124896   6.608   1.831   5.456
 8337TIP3    H224897   6.565   1.965   5.511
 8338TIP3   OH224898   5.897   3.160   3.618
 8338TIP3    H124899   5.985   3.137   3.590
 8338TIP3    H224900   5.858   3.204   3.541
 8339TIP3   OH224901   5.360   2.539   3.797
 8339TIP3    H124902   5.455   2.549   3.791
 8339TIP3    H224903   5.343   2.454   3.756
 8340TIP3   OH224904   5.262   3.122   4.261
 8340TIP3    H124905   5.198   3.070   4.213
 8340TIP3    H224906   5.306   3.060   4.318
 8341TIP3   OH224907   5.402   2.949   4.426
 8341TIP3    H124908   5.392   2.880   4.492
 8341TIP3    H224909   5.457   3.015   4.470
 8342TIP3   OH224910   7.147   3.353   4.231
 8342TIP3    H124911   7.168   3.383   4.319
 8342TIP3    H224912   7.203   3.405   4.173
 8343TIP3   OH224913   7.161   3.390   4.512
 8343TIP3    H124914   7.114   3.307   4.505
 8343TIP3    H224915   7.231   3.373   4.576
 8344TIP3   OH224916   7.218   3.091   5.085
 8344TIP3    H124917   7.145   3.101   5.145
 8344TIP3    H224918   7.265   3.174   5.090
 8345TIP3   OH224919   7.035   2.611   3.693
 8345TIP3    H124920   7.093   2.679   3.661
 8345TIP3    H224921   7.083   2.570   3.766
 8346TIP3   OH224922   7.168   2.465   3.891
 8346TIP3    H124923   7.101   2.428   3.948
 8346TIP3    H224924   7.233   2.502   3.951
 8347TIP3   OH224925   7.213   2.866   4.328
 8347TIP3    H124926   7.265   2.796   4.287
 8347TIP3    H224927   7.217   2.938   4.265
 8348TIP3   OH224928   7.018   3.153   4.515
 8348TIP3    H124929   6.952   3.198   4.567
 8348TIP3    H224930   6.969   3.112   4.444
 8349TIP3   OH224931   7.072   2.383   3.539
 8349TIP3    H124932   7.002   2.382   3.474
 8349TIP3    H224933   7.055   2.462   3.591
 8350TIP3   OH224934   6.920   2.032   3.476
 8350TIP3    H124935   6.879   2.067   3.398
 8350TIP3    H224936   6.911   1.937   3.468
 8351TIP3   OH224937   6.962   2.327   4.026
 8351TIP3    H124938   6.966   2.232   4.011
 8351TIP3    H224939   6.943   2.335   4.119
 8352TIP3   OH224940   5.579   2.379   4.803
 8352TIP3    H124941   5.573   2.348   4.713
 8352TIP3    H224942   5.672   2.374   4.824
 8353TIP3   OH224943   7.243   2.741   4.892
 8353TIP3    H124944   7.309   2.674   4.876
 8353TIP3    H224945   7.262   2.809   4.827
 8354TIP3   OH224946   7.420   2.529   4.883
 8354TIP3    H124947   7.345   2.487   4.925
 8354TIP3    H224948   7.494   2.472   4.903
 8355TIP3   OH224949   6.884   1.762   3.451
 8355TIP3    H124950   6.951   1.733   3.513
 8355TIP3    H224951   6.804   1.720   3.482
 8356TIP3   OH224952   6.955   2.049   3.915
 8356TIP3    H124953   7.001   1.966   3.928
 8356TIP3    H224954   6.995   2.087   3.836
 8357TIP3   OH224955   7.108   2.211   4.441
 8357TIP3    H124956   7.188   2.228   4.391
 8357TIP3    H224957   7.123   2.253   4.525
 8358TIP3   OH224958   7.182   2.362   4.666
 8358TIP3    H124959   7.110   2.390   4.723
 8358TIP3    H224960   7.212   2.443   4.624
 8359TIP3   OH224961   5.802   2.070   5.438
 8359TIP3    H124962   5.895   2.067   5.458
 8359TIP3    H224963   5.766   1.990   5.477
 8360TIP3   OH224964   7.646   1.963   5.203
 8360TIP3    H124965   7.711   1.908   5.160
 8360TIP3    H224966   7.604   2.011   5.131
 8361TIP3   OH224967   7.072   1.801   3.968
 8361TIP3    H124968   7.117   1.785   4.051
 8361TIP3    H224969   7.010   1.728   3.961
 8362TIP3   OH224970   5.780   1.780   4.800
 8362TIP3    H124971   5.832   1.700   4.804
 8362TIP3    H224972   5.842   1.849   4.778
 8363TIP3   OH224973   5.560   2.040   4.851
 8363TIP3    H124974   5.608   2.034   4.768
 8363TIP3    H224975   5.601   2.114   4.897
 8364TIP3   OH224976   7.489   2.068   5.005
 8364TIP3    H124977   7.405   2.109   5.026
 8364TIP3    H224978   7.466   1.992   4.952
 8365TIP3   OH224979   7.113   1.710   3.605
 8365TIP3    H124980   7.160   1.651   3.545
 8365TIP3    H224981   7.168   1.788   3.608
 8366TIP3   OH224982   5.544   1.558   4.357
 8366TIP3    H124983   5.459   1.544   4.399
 8366TIP3    H224984   5.525   1.611   4.280
 8367TIP3   OH224985   6.697   3.276   3.875
 8367TIP3    H124986   6.753   3.263   3.798
 8367TIP3    H224987   6.742   3.343   3.927
 8368TIP3   OH224988   5.765   1.596   5.177
 8368TIP3    H124989   5.722   1.600   5.262
 8368TIP3    H224990   5.713   1.653   5.120
 8369TIP3   OH224991   5.811   3.065   5.258
 8369TIP3    H124992   5.716   3.058   5.246
 8369TIP3    H224993   5.824   3.055   5.353
 8370TIP3   OH224994   6.008   3.113   4.803
 8370TIP3    H124995   5.959   3.189   4.772
 8370TIP3    H224996   6.093   3.120   4.760
 8371TIP3   OH224997   6.405   3.348   4.942
 8371TIP3    H124998   6.443   3.339   5.030
 8371TIP3    H224999   6.469   3.401   4.894
 8372TIP3   OH225000   6.598   3.501   4.814
 8372TIP3    H125001   6.658   3.445   4.765
 8372TIP3    H225002   6.655   3.556   4.868
 8373TIP3   OH225003   7.406   1.811   4.909
 8373TIP3    H125004   7.316   1.789   4.884
 8373TIP3    H225005   7.454   1.728   4.902
 8374TIP3   OH225006   5.672   3.359   4.854
 8374TIP3    H125007   5.581   3.377   4.833
 8374TIP3    H225008   5.694   3.424   4.921
 8375TIP3   OH225009   5.902   3.347   4.703
 8375TIP3    H125010   5.819   3.352   4.750
 8375TIP3    H225011   5.879   3.367   4.612
 8376TIP3   OH225012   6.313   3.364   4.494
 8376TIP3    H125013   6.242   3.374   4.430
 8376TIP3    H225014   6.322   3.451   4.533
 8377TIP3   OH225015   6.576   3.300   4.546
 8377TIP3    H125016   6.485   3.319   4.523
 8377TIP3    H225017   6.627   3.364   4.497
 8378TIP3   OH225018   6.775   3.464   4.441
 8378TIP3    H125019   6.780   3.552   4.403
 8378TIP3    H225020   6.808   3.406   4.372
 8379TIP3   OH225021   5.578   3.126   4.569
 8379TIP3    H125022   5.606   3.104   4.658
 8379TIP3    H225023   5.650   3.096   4.514
 8380TIP3   OH225024   5.784   3.018   4.428
 8380TIP3    H125025   5.796   2.932   4.469
 8380TIP3    H225026   5.870   3.058   4.432
 8381TIP3   OH225027   6.052   3.102   4.452
 8381TIP3    H125028   6.072   3.010   4.436
 8381TIP3    H225029   6.107   3.126   4.527
 8382TIP3   OH225030   6.612   1.760   4.536
 8382TIP3    H125031   6.572   1.691   4.588
 8382TIP3    H225032   6.680   1.716   4.485
 8383TIP3   OH225033   7.114   1.663   4.427
 8383TIP3    H125034   7.154   1.712   4.356
 8383TIP3    H225035   7.023   1.692   4.429
 8384TIP3   OH225036   7.229   1.745   4.191
 8384TIP3    H125037   7.297   1.683   4.164
 8384TIP3    H225038   7.268   1.831   4.178
 8385TIP3   OH225039   5.842   1.463   4.533
 8385TIP3    H125040   5.753   1.430   4.544
 8385TIP3    H225041   5.896   1.385   4.525
 8386TIP3   OH225042   5.682   1.367   4.194
 8386TIP3    H125043   5.704   1.414   4.114
 8386TIP3    H225044   5.642   1.434   4.251
 8387TIP3   OH225045   6.334   1.499   4.434
 8387TIP3    H125046   6.381   1.541   4.363
 8387TIP3    H225047   6.373   1.533   4.514
 8388TIP3   OH225048   6.824   1.641   4.402
 8388TIP3    H125049   6.841   1.607   4.315
 8388TIP3    H225050   6.827   1.564   4.459
 8389TIP3   OH225051   6.887   1.590   3.975
 8389TIP3    H125052   6.807   1.637   3.999
 8389TIP3    H225053   6.875   1.503   4.012
 8390TIP3   OH225054   5.339   2.935   3.954
 8390TIP3    H125055   5.257   2.902   3.918
 8390TIP3    H225056   5.345   3.025   3.921
 8391TIP3   OH225057   5.781   1.490   3.950
 8391TIP3    H125058   5.826   1.429   3.893
 8391TIP3    H225059   5.850   1.547   3.986
 8392TIP3   OH225060   6.263   1.686   4.049
 8392TIP3    H125061   6.323   1.634   4.101
 8392TIP3    H225062   6.279   1.776   4.077
 8393TIP3   OH225063   6.150   3.081   3.546
 8393TIP3    H125064   6.233   3.108   3.508
 8393TIP3    H225065   6.119   3.010   3.489
 8394TIP3   OH225066   6.849   3.225   3.647
 8394TIP3    H125067   6.843   3.130   3.638
 8394TIP3    H225068   6.808   3.259   3.567
 8395TIP3   OH225069   6.078   1.736   5.411
 8395TIP3    H125070   6.043   1.671   5.473
 8395TIP3    H225071   6.171   1.744   5.436
 8396TIP3   OH225072   6.325   1.742   5.538
 8396TIP3    H125073   6.402   1.722   5.486
 8396TIP3    H225074   6.322   1.673   5.604
 8397TIP3   OH225075   5.463   2.928   3.603
 8397TIP3    H125076   5.466   2.935   3.698
 8397TIP3    H225077   5.542   2.879   3.580
 8398TIP3   OH225078   7.147   1.827   5.320
 8398TIP3    H125079   7.163   1.798   5.410
 8398TIP3    H225080   7.232   1.824   5.278
 8399TIP3   OH225081   7.066   3.363   4.834
 8399TIP3    H125082   6.992   3.334   4.780
 8399TIP3    H225083   7.054   3.458   4.841
 8400TIP3   OH225084   8.339   2.753   3.575
 8400TIP3    H125085   8.305   2.839   3.551
 8400TIP3    H225086   8.269   2.692   3.550
 8401TIP3   OH225087   8.332   2.743   3.994
 8401TIP3    H125088   8.385   2.726   4.072
 8401TIP3    H225089   8.288   2.660   3.976
 8402TIP3   OH225090   7.639   2.602   4.341
 8402TIP3    H125091   7.679   2.551   4.412
 8402TIP3    H225092   7.712   2.627   4.285
 8403TIP3   OH225093   8.641   3.041   3.666
 8403TIP3    H125094   8.605   2.979   3.729
 8403TIP3    H225095   8.638   3.126   3.710
 8404TIP3   OH225096   7.632   3.031   4.025
 8404TIP3    H125097   7.613   2.937   4.031
 8404TIP3    H225098   7.727   3.036   4.016
 8405TIP3   OH225099   7.315   2.236   3.810
 8405TIP3    H125100   7.277   2.321   3.834
 8405TIP3    H225101   7.243   2.188   3.769
 8406TIP3   OH225102   7.397   2.550   4.035
 8406TIP3    H125103   7.447   2.473   4.059
 8406TIP3    H225104   7.463   2.615   4.010
 8407TIP3   OH225105   8.272   3.477   3.683
 8407TIP3    H125106   8.296   3.413   3.616
 8407TIP3    H225107   8.278   3.428   3.765
 8408TIP3   OH225108   8.147   2.965   3.999
 8408TIP3    H125109   8.192   2.885   3.972
 8408TIP3    H225110   8.217   3.022   4.031
 8409TIP3   OH225111   9.094   2.255   4.016
 8409TIP3    H125112   9.154   2.314   4.063
 8409TIP3    H225113   9.096   2.285   3.926
 8410TIP3   OH225114   8.551   2.448   4.038
 8410TIP3    H125115   8.591   2.365   4.066
 8410TIP3    H225116   8.513   2.428   3.953
 8411TIP3   OH225117   7.912   2.109   3.993
 8411TIP3    H125118   7.891   2.182   3.935
 8411TIP3    H225119   7.857   2.037   3.962
 8412TIP3   OH225120   8.599   2.214   3.638
 8412TIP3    H125121   8.665   2.202   3.707
 8412TIP3    H225122   8.648   2.248   3.563
 8413TIP3   OH225123   7.536   2.327   4.124
 8413TIP3    H125124   7.619   2.309   4.167
 8413TIP3    H225125   7.538   2.276   4.043
 8414TIP3   OH225126   7.952   2.526   3.943
 8414TIP3    H125127   8.047   2.511   3.948
 8414TIP3    H225128   7.917   2.444   3.908
 8415TIP3   OH225129   9.243   2.432   4.168
 8415TIP3    H125130   9.195   2.515   4.174
 8415TIP3    H225131   9.297   2.430   4.247
 8416TIP3   OH225132   7.892   2.117   4.446
 8416TIP3    H125133   7.843   2.152   4.372
 8416TIP3    H225134   7.837   2.134   4.522
 8417TIP3   OH225135   8.217   2.962   3.448
 8417TIP3    H125136   8.187   2.941   3.359
 8417TIP3    H225137   8.174   3.045   3.468
 8418TIP3   OH225138   7.981   2.892   4.208
 8418TIP3    H125139   7.929   2.964   4.242
 8418TIP3    H225140   8.031   2.930   4.136
 8419TIP3   OH225141   8.769   2.224   3.852
 8419TIP3    H125142   8.731   2.209   3.939
 8419TIP3    H225143   8.821   2.304   3.863
 8420TIP3   OH225144   7.784   2.222   4.214
 8420TIP3    H125145   7.838   2.298   4.236
 8420TIP3    H225146   7.830   2.179   4.142
 8421TIP3   OH225147   7.830   3.097   4.316
 8421TIP3    H125148   7.817   3.186   4.286
 8421TIP3    H225149   7.752   3.077   4.368
 8422TIP3   OH225150   7.207   2.798   3.573
 8422TIP3    H125151   7.175   2.816   3.484
 8422TIP3    H225152   7.230   2.884   3.608
 8423TIP3   OH225153   8.635   3.291   3.794
 8423TIP3    H125154   8.549   3.284   3.837
 8423TIP3    H225155   8.632   3.376   3.749
 8424TIP3   OH225156   8.919   2.150   4.198
 8424TIP3    H125157   8.831   2.171   4.168
 8424TIP3    H225158   8.976   2.180   4.127
 8425TIP3   OH225159   8.230   1.808   4.179
 8425TIP3    H125160   8.225   1.716   4.204
 8425TIP3    H225161   8.152   1.848   4.217
 8426TIP3   OH225162   8.354   3.325   3.464
 8426TIP3    H125163   8.408   3.246   3.454
 8426TIP3    H225164   8.412   3.397   3.438
 8427TIP3   OH225165   8.515   3.109   3.422
 8427TIP3    H125166   8.499   3.032   3.368
 8427TIP3    H225167   8.560   3.076   3.500
 8428TIP3   OH225168   8.842   3.174   4.136
 8428TIP3    H125169   8.841   3.099   4.076
 8428TIP3    H225170   8.836   3.251   4.080
 8429TIP3   OH225171   8.168   2.589   3.424
 8429TIP3    H125172   8.086   2.634   3.406
 8429TIP3    H225173   8.214   2.587   3.340
 8430TIP3   OH225174   8.136   2.400   3.109
 8430TIP3    H125175   8.201   2.448   3.159
 8430TIP3    H225176   8.186   2.333   3.062
 8431TIP3   OH225177   9.096   2.892   3.970
 8431TIP3    H125178   9.000   2.900   3.970
 8431TIP3    H225179   9.119   2.880   3.878
 8432TIP3   OH225180   8.516   2.687   3.379
 8432TIP3    H125181   8.462   2.713   3.454
 8432TIP3    H225182   8.596   2.653   3.419
 8433TIP3   OH225183   8.726   2.710   4.346
 8433TIP3    H125184   8.721   2.795   4.389
 8433TIP3    H225185   8.646   2.705   4.293
 8434TIP3   OH225186   7.755   2.658   3.788
 8434TIP3    H125187   7.720   2.597   3.723
 8434TIP3    H225188   7.829   2.611   3.828
 8435TIP3   OH225189   7.894   3.081   3.931
 8435TIP3    H125190   7.871   3.069   3.839
 8435TIP3    H225191   7.982   3.043   3.939
 8436TIP3   OH225192   7.850   2.655   4.165
 8436TIP3    H125193   7.889   2.618   4.085
 8436TIP3    H225194   7.898   2.737   4.180
 8437TIP3   OH225195   8.405   3.285   3.937
 8437TIP3    H125196   8.387   3.366   3.984
 8437TIP3    H225197   8.389   3.216   4.002
 8438TIP3   OH225198   8.025   3.189   4.490
 8438TIP3    H125199   7.963   3.246   4.536
 8438TIP3    H225200   7.971   3.139   4.430
 8439TIP3   OH225201   8.355   2.539   3.214
 8439TIP3    H125202   8.413   2.599   3.261
 8439TIP3    H225203   8.385   2.543   3.123
 8440TIP3   OH225204   7.781   2.735   4.637
 8440TIP3    H125205   7.786   2.829   4.652
 8440TIP3    H225206   7.688   2.716   4.628
 8441TIP3   OH225207   8.102   3.215   3.472
 8441TIP3    H125208   8.188   3.257   3.477
 8441TIP3    H225209   8.047   3.277   3.424
 8442TIP3   OH225210   7.816   3.349   4.573
 8442TIP3    H125211   7.793   3.361   4.481
 8442TIP3    H225212   7.731   3.337   4.617
 8443TIP3   OH225213   8.881   1.787   3.289
 8443TIP3    H125214   8.799   1.809   3.334
 8443TIP3    H225215   8.887   1.852   3.219
 8444TIP3   OH225216   7.632   2.499   3.588
 8444TIP3    H125217   7.554   2.546   3.560
 8444TIP3    H225218   7.601   2.409   3.602
 8445TIP3   OH225219   8.692   3.143   2.836
 8445TIP3    H125220   8.687   3.235   2.808
 8445TIP3    H225221   8.786   3.124   2.836
 8446TIP3   OH225222   7.415   2.907   4.522
 8446TIP3    H125223   7.346   2.889   4.459
 8446TIP3    H225224   7.449   2.821   4.546
 8447TIP3   OH225225   7.262   3.097   4.172
 8447TIP3    H125226   7.356   3.117   4.182
 8447TIP3    H225227   7.218   3.175   4.205
 8448TIP3   OH225228   9.049   3.549   4.223
 8448TIP3    H125229   9.057   3.454   4.230
 8448TIP3    H225230   8.971   3.570   4.274
 8449TIP3   OH225231   8.211   3.338   4.352
 8449TIP3    H125232   8.203   3.428   4.381
 8449TIP3    H225233   8.144   3.291   4.402
 8450TIP3   OH225234   7.998   3.432   3.303
 8450TIP3    H125235   7.953   3.412   3.221
 8450TIP3    H225236   7.961   3.515   3.331
 8451TIP3   OH225237   7.432   3.291   3.680
 8451TIP3    H125238   7.477   3.282   3.764
 8451TIP3    H225239   7.384   3.209   3.670
 8452TIP3   OH225240   8.199   3.367   2.929
 8452TIP3    H125241   8.250   3.294   2.893
 8452TIP3    H225242   8.235   3.380   3.017
 8453TIP3   OH225243   8.252   3.408   3.199
 8453TIP3    H125244   8.166   3.411   3.241
 8453TIP3    H225245   8.310   3.371   3.266
 8454TIP3   OH225246   8.962   2.663   4.519
 8454TIP3    H125247   8.886   2.688   4.466
 8454TIP3    H225248   8.984   2.574   4.489
 8455TIP3   OH225249   7.614   3.096   4.489
 8455TIP3    H125250   7.665   3.081   4.569
 8455TIP3    H225251   7.542   3.034   4.495
 8456TIP3   OH225252   7.994   1.898   4.304
 8456TIP3    H125253   7.910   1.865   4.272
 8456TIP3    H225254   7.972   1.980   4.349
 8457TIP3   OH225255   8.533   2.026   4.507
 8457TIP3    H125256   8.604   1.997   4.564
 8457TIP3    H225257   8.453   2.006   4.557
 8458TIP3   OH225258   8.736   2.439   4.415
 8458TIP3    H125259   8.706   2.435   4.506
 8458TIP3    H225260   8.723   2.531   4.391
 8459TIP3   OH225261   8.436   2.523   2.953
 8459TIP3    H125262   8.392   2.523   2.868
 8459TIP3    H225263   8.519   2.567   2.937
 8460TIP3   OH225264   8.146   1.941   3.273
 8460TIP3    H125265   8.109   1.947   3.361
 8460TIP3    H225266   8.111   1.858   3.239
 8461TIP3   OH225267   7.934   2.434   4.311
 8461TIP3    H125268   7.890   2.441   4.396
 8461TIP3    H225269   7.912   2.515   4.266
 8462TIP3   OH225270   7.814   2.311   3.834
 8462TIP3    H125271   7.725   2.286   3.859
 8462TIP3    H225272   7.824   2.279   3.745
 8463TIP3   OH225273   8.291   2.385   3.561
 8463TIP3    H125274   8.244   2.458   3.520
 8463TIP3    H225275   8.349   2.353   3.492
 8464TIP3   OH225276   8.475   2.649   4.631
 8464TIP3    H125277   8.448   2.582   4.694
 8464TIP3    H225278   8.567   2.666   4.651
 8465TIP3   OH225279   8.450   2.394   3.789
 8465TIP3    H125280   8.384   2.417   3.724
 8465TIP3    H225281   8.499   2.322   3.750
 8466TIP3   OH225282   7.775   2.450   4.535
 8466TIP3    H125283   7.787   2.514   4.605
 8466TIP3    H225284   7.757   2.367   4.581
 8467TIP3   OH225285   7.815   1.921   3.249
 8467TIP3    H125286   7.806   1.926   3.344
 8467TIP3    H225287   7.737   1.964   3.214
 8468TIP3   OH225288   7.363   1.965   4.116
 8468TIP3    H125289   7.435   2.003   4.167
 8468TIP3    H225290   7.400   1.951   4.029
 8469TIP3   OH225291   7.263   1.944   3.616
 8469TIP3    H125292   7.309   1.980   3.540
 8469TIP3    H225293   7.199   2.011   3.639
 8470TIP3   OH225294   8.491   2.651   4.208
 8470TIP3    H125295   8.520   2.586   4.145
 8470TIP3    H225296   8.447   2.601   4.276
 8471TIP3   OH225297   8.183   2.100   3.885
 8471TIP3    H125298   8.105   2.099   3.942
 8471TIP3    H225299   8.256   2.091   3.946
 8472TIP3   OH225300   7.574   2.186   3.893
 8472TIP3    H125301   7.487   2.191   3.854
 8472TIP3    H225302   7.603   2.096   3.876
 8473TIP3   OH225303   7.827   2.190   3.588
 8473TIP3    H125304   7.922   2.199   3.578
 8473TIP3    H225305   7.792   2.207   3.500
 8474TIP3   OH225306   8.633   2.184   4.098
 8474TIP3    H125307   8.602   2.205   4.186
 8474TIP3    H225308   8.568   2.122   4.064
 8475TIP3   OH225309   7.717   2.211   3.338
 8475TIP3    H125310   7.654   2.161   3.286
 8475TIP3    H225311   7.770   2.257   3.274
 8476TIP3   OH225312   8.806   3.898   4.305
 8476TIP3    H125313   8.804   3.913   4.211
 8476TIP3    H225314   8.878   3.952   4.336
 8477TIP3   OH225315   7.765   3.005   4.722
 8477TIP3    H125316   7.846   3.025   4.769
 8477TIP3    H225317   7.696   3.015   4.788
 8478TIP3   OH225318   8.225   2.473   3.988
 8478TIP3    H125319   8.292   2.426   3.939
 8478TIP3    H225320   8.224   2.431   4.074
 8479TIP3   OH225321   7.717   1.938   3.877
 8479TIP3    H125322   7.689   1.862   3.929
 8479TIP3    H225323   7.737   1.901   3.791
 8480TIP3   OH225324   8.197   2.374   4.251
 8480TIP3    H125325   8.110   2.405   4.275
 8480TIP3    H225326   8.257   2.425   4.305
 8481TIP3   OH225327   7.931   2.723   3.367
 8481TIP3    H125328   7.856   2.670   3.343
 8481TIP3    H225329   7.905   2.766   3.449
 8482TIP3   OH225330   8.826   2.968   3.951
 8482TIP3    H125331   8.851   3.015   3.871
 8482TIP3    H225332   8.743   2.926   3.929
 8483TIP3   OH225333   8.398   2.045   3.278
 8483TIP3    H125334   8.304   2.024   3.274
 8483TIP3    H225335   8.400   2.140   3.288
 8484TIP3   OH225336   8.334   3.069   4.390
 8484TIP3    H125337   8.386   3.060   4.470
 8484TIP3    H225338   8.295   3.156   4.396
 8485TIP3   OH225339   8.454   2.311   3.345
 8485TIP3    H125340   8.549   2.316   3.355
 8485TIP3    H225341   8.431   2.387   3.291
 8486TIP3   OH225342   7.620   2.740   4.015
 8486TIP3    H125343   7.659   2.722   3.930
 8486TIP3    H225344   7.687   2.712   4.078
 8487TIP3   OH225345   8.084   2.885   3.209
 8487TIP3    H125346   8.036   2.968   3.207
 8487TIP3    H225347   8.029   2.827   3.263
 8488TIP3   OH225348   7.506   2.673   4.654
 8488TIP3    H125349   7.508   2.645   4.746
 8488TIP3    H225350   7.431   2.627   4.617
 8489TIP3   OH225351   8.246   2.808   4.673
 8489TIP3    H125352   8.177   2.749   4.645
 8489TIP3    H225353   8.327   2.766   4.643
 8490TIP3   OH225354   8.477   3.353   4.272
 8490TIP3    H125355   8.382   3.343   4.278
 8490TIP3    H225356   8.502   3.392   4.356
 8491TIP3   OH225357   8.860   2.407   3.179
 8491TIP3    H125358   8.820   2.353   3.111
 8491TIP3    H225359   8.876   2.491   3.137
 8492TIP3   OH225360   9.060   3.278   4.272
 8492TIP3    H125361   8.967   3.261   4.257
 8492TIP3    H225362   9.105   3.204   4.230
 8493TIP3   OH225363   8.603   3.211   3.094
 8493TIP3    H125364   8.580   3.137   3.151
 8493TIP3    H225365   8.627   3.170   3.011
 8494TIP3   OH225366   8.581   2.846   3.867
 8494TIP3    H125367   8.491   2.828   3.895
 8494TIP3    H225368   8.612   2.764   3.829
 8495TIP3   OH225369   7.754   3.086   3.687
 8495TIP3    H125370   7.753   3.162   3.629
 8495TIP3    H225371   7.663   3.076   3.716
 8496TIP3   OH225372   7.313   2.369   3.402
 8496TIP3    H125373   7.355   2.452   3.424
 8496TIP3    H225374   7.231   2.370   3.452
 8497TIP3   OH225375   7.829   2.840   3.588
 8497TIP3    H125376   7.817   2.929   3.620
 8497TIP3    H225377   7.805   2.785   3.663
 8498TIP3   OH225378   8.033   3.408   4.141
 8498TIP3    H125379   8.066   3.483   4.092
 8498TIP3    H225380   8.108   3.377   4.192
 8499TIP3   OH225381   7.668   3.308   3.537
 8499TIP3    H125382   7.581   3.315   3.576
 8499TIP3    H225383   7.704   3.396   3.542
 8500TIP3   OH225384   8.378   3.070   4.117
 8500TIP3    H125385   8.363   3.067   4.211
 8500TIP3    H225386   8.458   3.020   4.103
 8501TIP3   OH225387   8.379   2.951   2.983
 8501TIP3    H125388   8.419   2.936   3.069
 8501TIP3    H225389   8.296   2.905   2.987
 8502TIP3   OH225390   8.616   3.572   4.155
 8502TIP3    H125391   8.547   3.507   4.167
 8502TIP3    H225392   8.590   3.621   4.078
 8503TIP3   OH225393   8.680   3.415   2.781
 8503TIP3    H125394   8.683   3.470   2.703
 8503TIP3    H225395   8.614   3.455   2.836
 8504TIP3   OH225396   7.720   2.195   4.651
 8504TIP3    H125397   7.625   2.206   4.655
 8504TIP3    H225398   7.742   2.143   4.728
 8505TIP3   OH225399   8.535   2.903   3.209
 8505TIP3    H125400   8.519   2.828   3.266
 8505TIP3    H225401   8.628   2.896   3.186
 8506TIP3   OH225402   7.462   3.310   4.304
 8506TIP3    H125403   7.514   3.252   4.359
 8506TIP3    H225404   7.477   3.397   4.341
 8507TIP3   OH225405   7.730   2.913   2.999
 8507TIP3    H125406   7.741   2.822   2.972
 8507TIP3    H225407   7.717   2.909   3.094
 8508TIP3   OH225408   7.672   2.930   3.271
 8508TIP3    H125409   7.735   2.905   3.338
 8508TIP3    H225410   7.670   3.026   3.275
 8509TIP3   OH225411   7.405   2.621   3.482
 8509TIP3    H125412   7.340   2.669   3.534
 8509TIP3    H225413   7.425   2.678   3.409
 8510TIP3   OH225414   8.550   2.249   4.351
 8510TIP3    H125415   8.627   2.298   4.380
 8510TIP3    H225416   8.546   2.174   4.409
 8511TIP3   OH225417   8.451   1.997   3.547
 8511TIP3    H125418   8.432   2.016   3.455
 8511TIP3    H225419   8.494   2.076   3.579
 8512TIP3   OH225420   7.939   3.113   3.205
 8512TIP3    H125421   7.856   3.139   3.244
 8512TIP3    H225422   7.965   3.189   3.151
 8513TIP3   OH225423   8.107   2.194   3.634
 8513TIP3    H125424   8.168   2.262   3.607
 8513TIP3    H225425   8.132   2.173   3.724
 8514TIP3   OH225426   8.397   2.487   4.407
 8514TIP3    H125427   8.425   2.529   4.488
 8514TIP3    H225428   8.447   2.405   4.404
 8515TIP3   OH225429   8.269   1.889   3.721
 8515TIP3    H125430   8.246   1.966   3.773
 8515TIP3    H225431   8.338   1.919   3.663
 8516TIP3   OH225432   7.691   3.203   3.285
 8516TIP3    H125433   7.672   3.276   3.224
 8516TIP3    H225434   7.682   3.242   3.372
 8517TIP3   OH225435   7.784   1.916   3.529
 8517TIP3    H125436   7.772   2.007   3.556
 8517TIP3    H225437   7.878   1.901   3.535
 8518TIP3   OH225438   9.005   2.424   4.390
 8518TIP3    H125439   8.911   2.408   4.392
 8518TIP3    H225440   9.033   2.394   4.303
 8519TIP3   OH225441   8.663   2.591   3.777
 8519TIP3    H125442   8.589   2.534   3.794
 8519TIP3    H225443   8.736   2.551   3.824
 8520TIP3   OH225444   7.429   2.795   3.264
 8520TIP3    H125445   7.501   2.858   3.273
 8520TIP3    H225446   7.460   2.732   3.199
 8521TIP3   OH225447   7.335   2.091   3.397
 8521TIP3    H125448   7.347   2.185   3.405
 8521TIP3    H225449   7.284   2.080   3.317
 8522TIP3   OH225450   8.650   3.557   3.714
 8522TIP3    H125451   8.605   3.613   3.651
 8522TIP3    H225452   8.742   3.579   3.704
 8523TIP3   OH225453   7.732   1.813   4.263
 8523TIP3    H125454   7.703   1.781   4.178
 8523TIP3    H225455   7.722   1.738   4.321
 8524TIP3   OH225456   7.256   3.068   3.656
 8524TIP3    H125457   7.215   3.104   3.734
 8524TIP3    H225458   7.212   3.111   3.583
 8525TIP3   OH225459   7.467   3.609   4.725
 8525TIP3    H125460   7.548   3.617   4.775
 8525TIP3    H225461   7.459   3.515   4.707
 8526TIP3   OH225462   7.926   3.508   4.769
 8526TIP3    H125463   8.017   3.481   4.776
 8526TIP3    H225464   7.891   3.456   4.697
 8527TIP3   OH225465   7.882   3.115   2.887
 8527TIP3    H125466   7.836   3.045   2.933
 8527TIP3    H225467   7.957   3.072   2.846
 8528TIP3   OH225468   8.532   3.452   4.521
 8528TIP3    H125469   8.545   3.381   4.585
 8528TIP3    H225470   8.603   3.514   4.540
 8529TIP3   OH225471   8.326   3.156   2.809
 8529TIP3    H125472   8.361   3.092   2.871
 8529TIP3    H225473   8.384   3.149   2.733
 8530TIP3   OH225474   7.560   3.007   4.913
 8530TIP3    H125475   7.580   2.915   4.925
 8530TIP3    H225476   7.473   3.008   4.874
 8531TIP3   OH225477   7.549   2.606   3.108
 8531TIP3    H125478   7.600   2.581   3.185
 8531TIP3    H225479   7.615   2.620   3.039
 8532TIP3   OH225480   8.184   3.086   4.691
 8532TIP3    H125481   8.138   3.108   4.610
 8532TIP3    H225482   8.219   2.998   4.677
 8533TIP3   OH225483   8.130   2.827   2.947
 8533TIP3    H125484   8.105   2.838   3.038
 8533TIP3    H225485   8.109   2.736   2.927
 8534TIP3   OH225486   8.636   3.125   4.308
 8534TIP3    H125487   8.709   3.144   4.249
 8534TIP3    H225488   8.574   3.197   4.293
 8535TIP3   OH225489   7.675   2.753   4.923
 8535TIP3    H125490   7.749   2.736   4.864
 8535TIP3    H225491   7.715   2.771   5.008
 8536TIP3   OH225492   7.721   2.548   3.320
 8536TIP3    H125493   7.702   2.518   3.409
 8536TIP3    H225494   7.771   2.477   3.281
 8537TIP3   OH225495   8.041   2.633   4.581
 8537TIP3    H125496   7.955   2.673   4.592
 8537TIP3    H225497   8.071   2.662   4.495
 8538TIP3   OH225498   7.866   2.367   3.168
 8538TIP3    H125499   7.835   2.370   3.077
 8538TIP3    H225500   7.961   2.375   3.161
 8539TIP3   OH225501   8.525   3.002   4.660
 8539TIP3    H125502   8.594   2.966   4.604
 8539TIP3    H225503   8.522   2.943   4.735
 8540TIP3   OH225504   8.657   2.651   2.852
 8540TIP3    H125505   8.647   2.611   2.766
 8540TIP3    H225506   8.635   2.743   2.838
 8541TIP3   OH225507   8.142   2.400   4.686
 8541TIP3    H125508   8.146   2.331   4.620
 8541TIP3    H225509   8.109   2.476   4.639
 8542TIP3   OH225510   8.151   2.203   4.482
 8542TIP3    H125511   8.179   2.239   4.397
 8542TIP3    H225512   8.061   2.176   4.467
 8543TIP3   OH225513   8.151   2.732   4.353
 8543TIP3    H125514   8.239   2.765   4.340
 8543TIP3    H225515   8.095   2.790   4.303
 8544TIP3   OH225516   8.737   2.690   4.735
 8544TIP3    H125517   8.782   2.606   4.723
 8544TIP3    H225518   8.806   2.755   4.730
 8545TIP3   OH225519   8.751   2.954   4.482
 8545TIP3    H125520   8.700   3.016   4.429
 8545TIP3    H225521   8.840   2.963   4.449
 8546TIP3   OH225522   8.028   2.478   4.931
 8546TIP3    H125523   7.957   2.417   4.950
 8546TIP3    H225524   8.056   2.457   4.842
 8547TIP3   OH225525   8.270   1.974   4.590
 8547TIP3    H125526   8.231   2.054   4.555
 8547TIP3    H225527   8.203   1.906   4.575
 8548TIP3   OH225528   8.397   2.439   4.791
 8548TIP3    H125529   8.386   2.426   4.885
 8548TIP3    H225530   8.312   2.418   4.753
 8549TIP3   OH225531   8.649   2.404   4.667
 8549TIP3    H125532   8.570   2.400   4.721
 8549TIP3    H225533   8.719   2.373   4.725
 8550TIP3   OH225534   8.885   2.353   4.811
 8550TIP3    H125535   8.891   2.258   4.821
 8550TIP3    H225536   8.877   2.387   4.900
 8551TIP3   OH225537   7.856   2.262   4.994
 8551TIP3    H125538   7.864   2.174   4.957
 8551TIP3    H225539   7.897   2.255   5.080
 8552TIP3   OH225540   8.337   1.944   4.853
 8552TIP3    H125541   8.405   1.876   4.846
 8552TIP3    H225542   8.307   1.958   4.764
 8553TIP3   OH225543   8.434   2.158   4.998
 8553TIP3    H125544   8.404   2.086   4.942
 8553TIP3    H225545   8.362   2.221   4.998
 8554TIP3   OH225546   7.691   3.414   3.104
 8554TIP3    H125547   7.780   3.392   3.076
 8554TIP3    H225548   7.653   3.459   3.028
 8555TIP3   OH225549   7.156   2.796   3.280
 8555TIP3    H125550   7.251   2.806   3.277
 8555TIP3    H225551   7.139   2.711   3.240
 8556TIP3   OH225552   7.056   3.377   3.744
 8556TIP3    H125553   6.992   3.323   3.697
 8556TIP3    H225554   7.102   3.316   3.801
 8557TIP3   OH225555   7.203   3.208   3.908
 8557TIP3    H125556   7.195   3.139   3.974
 8557TIP3    H225557   7.255   3.276   3.950
 8558TIP3   OH225558   8.913   3.626   3.707
 8558TIP3    H125559   8.936   3.652   3.796
 8558TIP3    H225560   8.983   3.662   3.653
 8559TIP3   OH225561   8.925   3.648   3.990
 8559TIP3    H125562   8.880   3.564   3.979
 8559TIP3    H225563   8.983   3.635   4.065
 8560TIP3   OH225564   8.960   3.353   4.567
 8560TIP3    H125565   8.891   3.359   4.633
 8560TIP3    H225566   8.992   3.443   4.558
 8561TIP3   OH225567   8.806   2.865   3.174
 8561TIP3    H125568   8.867   2.934   3.150
 8561TIP3    H225569   8.843   2.827   3.255
 8562TIP3   OH225570   8.910   2.739   3.392
 8562TIP3    H125571   8.842   2.688   3.437
 8562TIP3    H225572   8.973   2.761   3.461
 8563TIP3   OH225573   8.949   3.100   3.739
 8563TIP3    H125574   8.899   3.066   3.665
 8563TIP3    H225575   8.958   3.194   3.721
 8564TIP3   OH225576   8.790   3.406   3.996
 8564TIP3    H125577   8.723   3.448   4.050
 8564TIP3    H225578   8.741   3.368   3.923
 8565TIP3   OH225579   8.866   2.640   3.026
 8565TIP3    H125580   8.792   2.632   2.967
 8565TIP3    H225581   8.848   2.718   3.078
 8566TIP3   OH225582   8.731   2.277   2.971
 8566TIP3    H125583   8.685   2.317   2.898
 8566TIP3    H225584   8.707   2.185   2.968
 8567TIP3   OH225585   8.730   2.574   3.512
 8567TIP3    H125586   8.735   2.480   3.495
 8567TIP3    H225587   8.709   2.581   3.605
 8568TIP3   OH225588   7.376   2.642   4.292
 8568TIP3    H125589   7.366   2.611   4.201
 8568TIP3    H225590   7.470   2.637   4.309
 8569TIP3   OH225591   9.012   2.974   4.400
 8569TIP3    H125592   9.076   2.905   4.418
 8569TIP3    H225593   9.040   3.012   4.317
 8570TIP3   OH225594   9.199   2.781   4.456
 8570TIP3    H125595   9.127   2.732   4.494
 8570TIP3    H225596   9.267   2.716   4.439
 8571TIP3   OH225597   8.667   2.011   2.959
 8571TIP3    H125598   8.719   1.966   3.026
 8571TIP3    H225599   8.578   1.977   2.971
 8572TIP3   OH225600   8.737   2.310   3.408
 8572TIP3    H125601   8.780   2.226   3.424
 8572TIP3    H225602   8.782   2.346   3.332
 8573TIP3   OH225603   8.893   2.471   3.885
 8573TIP3    H125604   8.979   2.499   3.853
 8573TIP3    H225605   8.886   2.511   3.972
 8574TIP3   OH225606   8.885   2.598   4.126
 8574TIP3    H125607   8.826   2.640   4.189
 8574TIP3    H225608   8.972   2.633   4.148
 8575TIP3   OH225609   7.592   2.316   4.930
 8575TIP3    H125610   7.686   2.314   4.950
 8575TIP3    H225611   7.558   2.235   4.967
 8576TIP3   OH225612   8.844   2.064   3.478
 8576TIP3    H125613   8.893   2.045   3.558
 8576TIP3    H225614   8.786   1.988   3.467
 8577TIP3   OH225615   7.574   2.041   4.284
 8577TIP3    H125616   7.626   1.961   4.287
 8577TIP3    H225617   7.637   2.109   4.262
 8578TIP3   OH225618   7.350   2.303   4.338
 8578TIP3    H125619   7.402   2.293   4.258
 8578TIP3    H225620   7.379   2.386   4.375
 8579TIP3   OH225621   9.270   2.347   4.480
 8579TIP3    H125622   9.203   2.389   4.534
 8579TIP3    H225623   9.223   2.278   4.434
 8580TIP3   OH225624   8.925   1.950   3.066
 8580TIP3    H125625   8.991   1.890   3.033
 8580TIP3    H225626   8.912   2.013   2.994
 8581TIP3   OH225627   7.341   1.816   3.845
 8581TIP3    H125628   7.256   1.802   3.886
 8581TIP3    H225629   7.322   1.868   3.767
 8582TIP3   OH225630   8.492   3.533   3.363
 8582TIP3    H125631   8.545   3.521   3.285
 8582TIP3    H225632   8.533   3.607   3.409
 8583TIP3   OH225633   7.558   1.859   4.670
 8583TIP3    H125634   7.503   1.851   4.748
 8583TIP3    H225635   7.507   1.913   4.610
 8584TIP3   OH225636   7.586   3.331   4.735
 8584TIP3    H125637   7.494   3.305   4.730
 8584TIP3    H225638   7.609   3.319   4.828
 8585TIP3   OH225639   7.806   3.373   4.291
 8585TIP3    H125640   7.756   3.449   4.260
 8585TIP3    H225641   7.890   3.381   4.247
 8586TIP3   OH225642   8.200   3.605   4.429
 8586TIP3    H125643   8.237   3.599   4.517
 8586TIP3    H225644   8.264   3.655   4.379
 8587TIP3   OH225645   8.395   3.753   4.302
 8587TIP3    H125646   8.462   3.702   4.255
 8587TIP3    H225647   8.445   3.814   4.356
 8588TIP3   OH225648   9.134   2.125   4.380
 8588TIP3    H125649   9.053   2.142   4.332
 8588TIP3    H225650   9.171   2.048   4.337
 8589TIP3   OH225651   7.467   3.606   4.342
 8589TIP3    H125652   7.377   3.624   4.318
 8589TIP3    H225653   7.490   3.675   4.404
 8590TIP3   OH225654   7.697   3.604   4.188
 8590TIP3    H125655   7.614   3.608   4.235
 8590TIP3    H225656   7.674   3.628   4.098
 8591TIP3   OH225657   8.101   3.623   3.981
 8591TIP3    H125658   8.029   3.636   3.919
 8591TIP3    H225659   8.114   3.709   4.020
 8592TIP3   OH225660   8.358   3.541   4.021
 8592TIP3    H125661   8.268   3.568   4.004
 8592TIP3    H225662   8.412   3.608   3.978
 8593TIP3   OH225663   8.556   3.710   3.924
 8593TIP3    H125664   8.559   3.800   3.892
 8593TIP3    H225665   8.587   3.657   3.850
 8594TIP3   OH225666   7.376   3.388   4.053
 8594TIP3    H125667   7.403   3.367   4.142
 8594TIP3    H225668   7.447   3.356   3.998
 8595TIP3   OH225669   7.579   3.274   3.913
 8595TIP3    H125670   7.591   3.189   3.956
 8595TIP3    H225671   7.666   3.315   3.917
 8596TIP3   OH225672   7.847   3.359   3.938
 8596TIP3    H125673   7.867   3.266   3.923
 8596TIP3    H225674   7.902   3.383   4.013
 8597TIP3   OH225675   8.413   2.004   4.021
 8597TIP3    H125676   8.371   1.935   4.073
 8597TIP3    H225677   8.481   1.959   3.972
 8598TIP3   OH225678   8.917   1.926   3.918
 8598TIP3    H125679   8.952   1.983   3.848
 8598TIP3    H225680   8.825   1.952   3.926
 8599TIP3   OH225681   9.028   2.019   3.682
 8599TIP3    H125682   9.094   1.961   3.645
 8599TIP3    H225683   9.066   2.107   3.672
 8600TIP3   OH225684   7.645   1.711   4.022
 8600TIP3    H125685   7.556   1.677   4.031
 8600TIP3    H225686   7.699   1.633   4.013
 8601TIP3   OH225687   7.476   1.623   3.681
 8601TIP3    H125688   7.499   1.670   3.601
 8601TIP3    H225689   7.437   1.690   3.738
 8602TIP3   OH225690   8.125   1.751   3.920
 8602TIP3    H125691   8.174   1.796   3.851
 8602TIP3    H225692   8.167   1.780   4.001
 8603TIP3   OH225693   8.629   1.874   3.907
 8603TIP3    H125694   8.660   1.837   3.825
 8603TIP3    H225695   8.634   1.801   3.969
 8604TIP3   OH225696   8.671   1.849   3.462
 8604TIP3    H125697   8.590   1.891   3.488
 8604TIP3    H225698   8.664   1.760   3.497
 8605TIP3   OH225699   7.136   3.191   3.442
 8605TIP3    H125700   7.054   3.158   3.407
 8605TIP3    H225701   7.143   3.280   3.408
 8606TIP3   OH225702   7.576   1.746   3.437
 8606TIP3    H125703   7.622   1.684   3.380
 8606TIP3    H225704   7.645   1.802   3.472
 8607TIP3   OH225705   8.058   1.943   3.536
 8607TIP3    H125706   8.117   1.890   3.589
 8607TIP3    H225707   8.074   2.033   3.565
 8608TIP3   OH225708   7.946   3.338   3.033
 8608TIP3    H125709   8.029   3.365   2.995
 8608TIP3    H225710   7.915   3.267   2.976
 8609TIP3   OH225711   8.635   3.479   3.132
 8609TIP3    H125712   8.627   3.383   3.124
 8609TIP3    H225713   8.593   3.512   3.053
 8610TIP3   OH225714   7.876   1.993   4.903
 8610TIP3    H125715   7.841   1.926   4.962
 8610TIP3    H225716   7.968   2.001   4.927
 8611TIP3   OH225717   8.123   1.997   5.029
 8611TIP3    H125718   8.200   1.976   4.976
 8611TIP3    H225719   8.117   1.926   5.092
 8612TIP3   OH225720   7.257   3.184   3.088
 8612TIP3    H125721   7.260   3.194   3.183
 8612TIP3    H225722   7.337   3.135   3.067
 8613TIP3   OH225723   8.936   2.080   4.823
 8613TIP3    H125724   8.960   2.050   4.910
 8613TIP3    H225725   9.015   2.071   4.770
 8614TIP3   OH225726   8.815   3.625   4.338
 8614TIP3    H125727   8.744   3.598   4.280
 8614TIP3    H225728   8.814   3.720   4.334
 8615TIP3   OH225729   9.080   2.502   3.388
 8615TIP3    H125730   9.008   2.556   3.354
 8615TIP3    H225731   9.065   2.416   3.348
 8616TIP3   OH225732   9.183   2.741   3.486
 8616TIP3    H125733   9.164   2.649   3.468
 8616TIP3    H225734   9.200   2.780   3.400
 8617TIP3   OH225735   8.991   3.050   3.099
 8617TIP3    H125736   8.982   3.052   3.004
 8617TIP3    H225737   9.015   3.139   3.123
 8618TIP3   OH225738   9.179   3.174   3.893
 8618TIP3    H125739   9.106   3.130   3.848
 8618TIP3    H225740   9.248   3.108   3.895
 8619TIP3   OH225741   8.999   3.364   3.673
 8619TIP3    H125742   9.080   3.386   3.719
 8619TIP3    H225743   8.943   3.442   3.683
 8620TIP3   OH225744   9.199   3.547   3.170
 8620TIP3    H125745   9.254   3.529   3.246
 8620TIP3    H225746   9.157   3.463   3.151
 8621TIP3   OH225747   9.274   3.364   4.054
 8621TIP3    H125748   9.313   3.315   4.127
 8621TIP3    H225749   9.228   3.297   4.003
 8622TIP3   OH225750   9.130   2.264   3.612
 8622TIP3    H125751   9.134   2.359   3.619
 8622TIP3    H225752   9.119   2.247   3.518
 8623TIP3   OH225753   9.350   2.788   4.063
 8623TIP3    H125754   9.398   2.841   4.126
 8623TIP3    H225755   9.296   2.850   4.015
 8624TIP3   OH225756   9.021   2.709   2.803
 8624TIP3    H125757   9.112   2.694   2.829
 8624TIP3    H225758   8.970   2.681   2.879
 8625TIP3   OH225759   9.197   3.497   3.824
 8625TIP3    H125760   9.211   3.441   3.901
 8625TIP3    H225761   9.286   3.522   3.797
 8626TIP3   OH225762   9.037   3.321   3.146
 8626TIP3    H125763   8.994   3.360   3.222
 8626TIP3    H225764   8.991   3.358   3.070
 8627TIP3   OH225765   9.221   3.931   4.214
 8627TIP3    H125766   9.295   3.922   4.274
 8627TIP3    H225767   9.209   3.844   4.178
 8628TIP3   OH225768   9.391   3.198   4.235
 8628TIP3    H125769   9.431   3.112   4.252
 8628TIP3    H225770   9.361   3.228   4.320
 8629TIP3   OH225771   8.958   3.060   2.825
 8629TIP3    H125772   9.020   3.113   2.775
 8629TIP3    H225773   8.938   2.985   2.769
 8630TIP3   OH225774   8.840   3.628   3.230
 8630TIP3    H125775   8.773   3.575   3.186
 8630TIP3    H225776   8.883   3.566   3.290
 8631TIP3   OH225777   8.976   3.454   3.397
 8631TIP3    H125778   8.962   3.392   3.468
 8631TIP3    H225779   9.036   3.519   3.434
 8632TIP3   OH225780   9.212   2.863   3.726
 8632TIP3    H125781   9.197   2.821   3.642
 8632TIP3    H225782   9.274   2.934   3.707
 8633TIP3   OH225783   9.376   2.585   4.404
 8633TIP3    H125784   9.468   2.599   4.428
 8633TIP3    H225785   9.354   2.499   4.439
 8634TIP3   OH225786   9.151   2.561   3.814
 8634TIP3    H125787   9.239   2.543   3.846
 8634TIP3    H225788   9.153   2.653   3.787
 8635TIP3   OH225789   9.057   2.190   3.354
 8635TIP3    H125790   8.984   2.139   3.389
 8635TIP3    H225791   9.070   2.157   3.265
 8636TIP3   OH225792   9.490   3.526   4.080
 8636TIP3    H125793   9.404   3.484   4.074
 8636TIP3    H225794   9.483   3.583   4.156
 8637TIP3   OH225795   9.206   3.810   3.744
 8637TIP3    H125796   9.130   3.868   3.747
 8637TIP3    H225797   9.223   3.789   3.836
 8638TIP3   OH225798   9.455   3.814   3.635
 8638TIP3    H125799   9.369   3.829   3.675
 8638TIP3    H225800   9.460   3.880   3.565
 8639TIP3   OH225801   9.150   3.638   3.527
 8639TIP3    H125802   9.186   3.679   3.606
 8639TIP3    H225803   9.223   3.588   3.490
 8640TIP3   OH225804   9.353   3.491   3.397
 8640TIP3    H125805   9.380   3.425   3.461
 8640TIP3    H225806   9.426   3.552   3.393
 8641TIP3   OH225807   8.924   3.430   2.918
 8641TIP3    H125808   8.837   3.408   2.884
 8641TIP3    H225809   8.936   3.522   2.894
 8642TIP3   OH225810   9.004   3.426   2.579
 8642TIP3    H125811   8.995   3.457   2.669
 8642TIP3    H225812   9.008   3.330   2.587
 8643TIP3   OH225813   0.803   3.546   5.258
 8643TIP3    H125814   0.771   3.633   5.235
 8643TIP3    H225815   0.731   3.487   5.234
 8644TIP3   OH225816   0.813   3.520   5.679
 8644TIP3    H125817   0.860   3.507   5.762
 8644TIP3    H225818   0.767   3.437   5.664
 8645TIP3   OH225819   0.193   3.420   6.095
 8645TIP3    H125820   0.204   3.355   6.164
 8645TIP3    H225821   0.259   3.487   6.116
 8646TIP3   OH225822   1.066   3.838   5.351
 8646TIP3    H125823   1.051   3.772   5.419
 8646TIP3    H225824   1.086   3.918   5.399
 8647TIP3   OH225825   0.137   3.820   5.646
 8647TIP3    H125826   0.116   3.732   5.677
 8647TIP3    H225827   0.233   3.823   5.646
 8648TIP3   OH225828   9.440   3.134   5.480
 8648TIP3    H125829   9.375   3.173   5.538
 8648TIP3    H225830   9.489   3.074   5.535
 8649TIP3   OH225831   9.674   3.313   5.717
 8649TIP3    H125832   9.741   3.244   5.716
 8649TIP3    H225833   9.686   3.359   5.634
 8650TIP3   OH225834   0.704   4.292   5.360
 8650TIP3    H125835   0.739   4.222   5.305
 8650TIP3    H225836   0.670   4.247   5.437
 8651TIP3   OH225837   0.646   3.745   5.679
 8651TIP3    H125838   0.690   3.663   5.656
 8651TIP3    H225839   0.714   3.799   5.719
 8652TIP3   OH225840   1.637   3.074   5.709
 8652TIP3    H125841   1.653   3.158   5.752
 8652TIP3    H225842   1.655   3.090   5.617
 8653TIP3   OH225843   1.017   3.241   5.728
 8653TIP3    H125844   1.046   3.154   5.756
 8653TIP3    H225845   0.980   3.227   5.641
 8654TIP3   OH225846   0.382   2.905   5.678
 8654TIP3    H125847   0.362   2.977   5.618
 8654TIP3    H225848   0.333   2.831   5.644
 8655TIP3   OH225849   1.062   3.000   5.321
 8655TIP3    H125850   1.124   2.994   5.394
 8655TIP3    H225851   1.114   3.035   5.248
 8656TIP3   OH225852   0.042   3.101   5.742
 8656TIP3    H125853   0.109   3.065   5.800
 8656TIP3    H225854   0.046   3.046   5.664
 8657TIP3   OH225855   0.444   3.318   5.593
 8657TIP3    H125856   0.536   3.298   5.611
 8657TIP3    H225857   0.407   3.235   5.563
 8658TIP3   OH225858   1.691   3.297   5.870
 8658TIP3    H125859   1.601   3.329   5.866
 8658TIP3    H225860   1.723   3.329   5.955
 8659TIP3   OH225861   0.366   2.894   6.135
 8659TIP3    H125862   0.310   2.940   6.072
 8659TIP3    H225863   0.325   2.912   6.220
 8660TIP3   OH225864   0.699   3.765   5.123
 8660TIP3    H125865   0.660   3.731   5.042
 8660TIP3    H225866   0.643   3.840   5.146
 8661TIP3   OH225867   0.479   3.653   5.882
 8661TIP3    H125868   0.430   3.722   5.927
 8661TIP3    H225869   0.524   3.699   5.810
 8662TIP3   OH225870   1.217   3.024   5.544
 8662TIP3    H125871   1.174   3.001   5.627
 8662TIP3    H225872   1.272   3.099   5.567
 8663TIP3   OH225873   0.256   3.007   5.901
 8663TIP3    H125874   0.305   3.084   5.931
 8663TIP3    H225875   0.311   2.970   5.832
 8664TIP3   OH225876   0.334   3.843   6.019
 8664TIP3    H125877   0.299   3.901   5.951
 8664TIP3    H225878   0.263   3.833   6.082
 8665TIP3   OH225879   9.474   3.501   5.267
 8665TIP3    H125880   9.415   3.519   5.194
 8665TIP3    H225881   9.523   3.583   5.278
 8666TIP3   OH225882   1.111   4.081   5.496
 8666TIP3    H125883   1.026   4.070   5.538
 8666TIP3    H225884   1.105   4.166   5.451
 8667TIP3   OH225885   1.435   2.966   5.877
 8667TIP3    H125886   1.350   2.986   5.836
 8667TIP3    H225887   1.499   2.992   5.811
 8668TIP3   OH225888   0.698   2.592   5.863
 8668TIP3    H125889   0.693   2.500   5.889
 8668TIP3    H225890   0.622   2.633   5.905
 8669TIP3   OH225891   0.815   4.110   5.179
 8669TIP3    H125892   0.862   4.029   5.160
 8669TIP3    H225893   0.871   4.180   5.146
 8670TIP3   OH225894   0.953   3.881   5.101
 8670TIP3    H125895   0.873   3.828   5.106
 8670TIP3    H225896   1.001   3.860   5.181
 8671TIP3   OH225897   1.354   3.965   5.845
 8671TIP3    H125898   1.328   3.895   5.785
 8671TIP3    H225899   1.335   4.046   5.797
 8672TIP3   OH225900   0.633   3.383   5.105
 8672TIP3    H125901   0.548   3.426   5.096
 8672TIP3    H225902   0.673   3.390   5.018
 8673TIP3   OH225903   0.601   3.179   4.804
 8673TIP3    H125904   0.668   3.228   4.853
 8673TIP3    H225905   0.650   3.108   4.761
 8674TIP3   OH225906   1.513   3.640   5.709
 8674TIP3    H125907   1.427   3.682   5.707
 8674TIP3    H225908   1.548   3.652   5.621
 8675TIP3   OH225909   0.985   3.461   5.075
 8675TIP3    H125910   0.930   3.494   5.146
 8675TIP3    H225911   1.068   3.437   5.117
 8676TIP3   OH225912   1.215   3.497   6.021
 8676TIP3    H125913   1.207   3.579   6.070
 8676TIP3    H225914   1.132   3.490   5.973
 8677TIP3   OH225915   0.227   3.446   5.480
 8677TIP3    H125916   0.190   3.384   5.418
 8677TIP3    H225917   0.306   3.403   5.514
 8678TIP3   OH225918   0.408   3.866   5.612
 8678TIP3    H125919   0.389   3.859   5.519
 8678TIP3    H225920   0.494   3.825   5.623
 8679TIP3   OH225921   0.347   3.419   5.829
 8679TIP3    H125922   0.383   3.389   5.746
 8679TIP3    H225923   0.395   3.500   5.848
 8680TIP3   OH225924   0.884   4.062   5.639
 8680TIP3    H125925   0.864   4.147   5.677
 8680TIP3    H225926   0.863   3.999   5.707
 8681TIP3   OH225927   0.531   3.962   6.169
 8681TIP3    H125928   0.478   4.021   6.222
 8681TIP3    H225929   0.468   3.916   6.114
 8682TIP3   OH225930   0.836   3.322   4.888
 8682TIP3    H125931   0.886   3.377   4.949
 8682TIP3    H225932   0.871   3.344   4.802
 8683TIP3   OH225933   0.351   3.600   6.230
 8683TIP3    H125934   0.380   3.691   6.219
 8683TIP3    H225935   0.293   3.603   6.306
 8684TIP3   OH225936   0.560   4.002   5.163
 8684TIP3    H125937   0.642   4.049   5.179
 8684TIP3    H225938   0.507   4.065   5.113
 8685TIP3   OH225939   0.357   4.145   6.275
 8685TIP3    H125940   0.341   4.166   6.183
 8685TIP3    H225941   0.270   4.121   6.309
 8686TIP3   OH225942   1.326   2.561   4.961
 8686TIP3    H125943   1.249   2.578   5.015
 8686TIP3    H225944   1.334   2.638   4.905
 8687TIP3   OH225945   0.113   3.293   5.274
 8687TIP3    H125946   0.051   3.348   5.226
 8687TIP3    H225947   0.059   3.222   5.311
 8688TIP3   OH225948   1.157   3.938   4.504
 8688TIP3    H125949   1.137   4.031   4.499
 8688TIP3    H225950   1.241   3.929   4.460
 8689TIP3   OH225951   9.696   3.723   6.255
 8689TIP3    H125952   9.622   3.733   6.194
 8689TIP3    H225953   9.669   3.652   6.313
 8690TIP3   OH225954   1.582   4.366   5.911
 8690TIP3    H125955   1.591   4.271   5.915
 8690TIP3    H225956   1.501   4.384   5.959
 8691TIP3   OH225957   0.700   4.112   6.018
 8691TIP3    H125958   0.698   4.201   6.052
 8691TIP3    H225959   0.635   4.065   6.070
 8692TIP3   OH225960   0.477   4.187   4.958
 8692TIP3    H125961   0.424   4.190   4.878
 8692TIP3    H225962   0.474   4.275   4.993
 8693TIP3   OH225963   9.800   3.992   5.408
 8693TIP3    H125964   9.839   4.068   5.451
 8693TIP3    H225965   9.751   3.948   5.477
 8694TIP3   OH225966   0.664   4.146   4.619
 8694TIP3    H125967   0.714   4.069   4.590
 8694TIP3    H225968   0.698   4.164   4.707
 8695TIP3   OH225969   0.741   4.194   4.880
 8695TIP3    H125970   0.655   4.189   4.920
 8695TIP3    H225971   0.802   4.196   4.954
 8696TIP3   OH225972   1.461   3.448   6.174
 8696TIP3    H125973   1.376   3.458   6.131
 8696TIP3    H225974   1.478   3.354   6.173
 8697TIP3   OH225975   0.105   3.890   6.174
 8697TIP3    H125976   0.154   3.914   6.252
 8697TIP3    H225977   0.036   3.831   6.206
 8698TIP3   OH225978   0.465   2.681   5.990
 8698TIP3    H125979   0.382   2.648   5.956
 8698TIP3    H225980   0.442   2.761   6.037
 8699TIP3   OH225981   0.995   2.809   6.196
 8699TIP3    H125982   1.065   2.784   6.257
 8699TIP3    H225983   0.914   2.792   6.243
 8700TIP3   OH225984   1.215   3.233   6.114
 8700TIP3    H125985   1.174   3.226   6.200
 8700TIP3    H225986   1.196   3.322   6.085
 8701TIP3   OH225987   0.920   3.394   4.624
 8701TIP3    H125988   0.858   3.362   4.558
 8701TIP3    H225989   0.899   3.487   4.633
 8702TIP3   OH225990   0.601   2.731   4.960
 8702TIP3    H125991   0.569   2.737   5.050
 8702TIP3    H225992   0.562   2.651   4.926
 8703TIP3   OH225993   0.397   3.215   6.014
 8703TIP3    H125994   0.369   3.236   6.103
 8703TIP3    H225995   0.371   3.292   5.963
 8704TIP3   OH225996   0.303   3.102   5.504
 8704TIP3    H125997   0.211   3.082   5.520
 8704TIP3    H225998   0.322   3.066   5.418
 8705TIP3   OH225999   0.756   3.183   5.251
 8705TIP3    H126000   0.708   3.255   5.208
 8705TIP3    H226001   0.812   3.148   5.181
 8706TIP3   OH226002   0.947   3.434   6.320
 8706TIP3    H126003   0.918   3.368   6.383
 8706TIP3    H226004   1.039   3.450   6.343
 8707TIP3   OH226005   0.920   3.187   5.477
 8707TIP3    H126006   0.852   3.211   5.413
 8707TIP3    H226007   0.965   3.113   5.437
 8708TIP3   OH226008   0.259   3.233   6.279
 8708TIP3    H126009   0.225   3.276   6.357
 8708TIP3    H226010   0.256   3.140   6.300
 8709TIP3   OH226011   0.263   2.723   4.935
 8709TIP3    H126012   0.254   2.727   5.030
 8709TIP3    H226013   0.193   2.780   4.902
 8710TIP3   OH226014   9.765   2.789   5.723
 8710TIP3    H126015   9.799   2.790   5.813
 8710TIP3    H226016   9.771   2.698   5.696
 8711TIP3   OH226017   9.666   2.884   5.346
 8711TIP3    H126018   9.723   2.874   5.270
 8711TIP3    H226019   9.584   2.919   5.310
 8712TIP3   OH226020   0.966   3.440   5.905
 8712TIP3    H126021   0.990   3.372   5.841
 8712TIP3    H226022   0.915   3.394   5.971
 8713TIP3   OH226023   0.646   2.889   5.573
 8713TIP3    H126024   0.566   2.892   5.627
 8713TIP3    H226025   0.717   2.877   5.636
 8714TIP3   OH226026   0.074   2.957   5.513
 8714TIP3    H126027  -0.004   2.941   5.459
 8714TIP3    H226028   0.110   2.870   5.529
 8715TIP3   OH226029   0.313   2.964   5.271
 8715TIP3    H126030   0.405   2.978   5.252
 8715TIP3    H226031   0.267   2.990   5.191
 8716TIP3   OH226032   1.076   2.976   5.782
 8716TIP3    H126033   1.060   2.992   5.875
 8716TIP3    H226034   1.008   2.914   5.757
 8717TIP3   OH226035   0.168   3.002   5.048
 8717TIP3    H126036   0.080   2.967   5.034
 8717TIP3    H226037   0.197   3.030   4.962
 8718TIP3   OH226038   1.287   4.683   6.004
 8718TIP3    H126039   1.279   4.701   5.910
 8718TIP3    H226040   1.365   4.732   6.031
 8719TIP3   OH226041   0.308   3.850   6.372
 8719TIP3    H126042   0.357   3.886   6.446
 8719TIP3    H226043   0.256   3.779   6.410
 8720TIP3   OH226044   0.700   3.255   5.676
 8720TIP3    H126045   0.767   3.201   5.633
 8720TIP3    H226046   0.692   3.217   5.764
 8721TIP3   OH226047   0.223   2.712   5.555
 8721TIP3    H126048   0.188   2.640   5.607
 8721TIP3    H226049   0.261   2.669   5.478
 8722TIP3   OH226050   0.662   3.164   5.940
 8722TIP3    H126051   0.575   3.195   5.967
 8722TIP3    H226052   0.723   3.215   5.994
 8723TIP3   OH226053   0.396   3.522   5.066
 8723TIP3    H126054   0.330   3.457   5.039
 8723TIP3    H226055   0.362   3.558   5.148
 8724TIP3   OH226056   1.276   3.773   5.663
 8724TIP3    H126057   1.309   3.826   5.590
 8724TIP3    H226058   1.197   3.732   5.630
 8725TIP3   OH226059   0.854   2.833   4.962
 8725TIP3    H126060   0.761   2.810   4.961
 8725TIP3    H226061   0.855   2.928   4.979
 8726TIP3   OH226062   0.814   3.833   6.094
 8726TIP3    H126063   0.862   3.825   6.176
 8726TIP3    H226064   0.760   3.911   6.104
 8727TIP3   OH226065   0.913   3.097   5.035
 8727TIP3    H126066   1.008   3.099   5.047
 8727TIP3    H226067   0.895   3.171   4.978
 8728TIP3   OH226068   0.110   3.546   5.710
 8728TIP3    H126069   0.139   3.511   5.625
 8728TIP3    H226070   0.170   3.507   5.774
 8729TIP3   OH226071   0.560   3.663   4.899
 8729TIP3    H126072   0.521   3.750   4.888
 8729TIP3    H226073   0.497   3.615   4.953
 8730TIP3   OH226074   9.796   3.438   6.354
 8730TIP3    H126075   9.765   3.442   6.444
 8730TIP3    H226076   9.747   3.365   6.315
 8731TIP3   OH226077   0.718   3.587   6.355
 8731TIP3    H126078   0.652   3.526   6.321
 8731TIP3    H226079   0.802   3.549   6.328
 8732TIP3   OH226080   0.968   4.139   5.958
 8732TIP3    H126081   0.874   4.121   5.959
 8732TIP3    H226082   0.986   4.177   6.044
 8733TIP3   OH226083   1.334   3.182   4.847
 8733TIP3    H126084   1.272   3.135   4.791
 8733TIP3    H226085   1.335   3.271   4.811
 8734TIP3   OH226086   1.594   4.090   5.927
 8734TIP3    H126087   1.504   4.061   5.941
 8734TIP3    H226088   1.620   4.047   5.845
 8735TIP3   OH226089   1.088   3.999   4.806
 8735TIP3    H126090   1.046   3.955   4.880
 8735TIP3    H226091   1.068   3.942   4.731
 8736TIP3   OH226092   1.054   3.636   5.557
 8736TIP3    H126093   0.966   3.614   5.588
 8736TIP3    H226094   1.087   3.554   5.519
 8737TIP3   OH226095   0.269   3.885   5.375
 8737TIP3    H126096   0.283   3.957   5.313
 8737TIP3    H226097   0.183   3.903   5.413
 8738TIP3   OH226098   9.593   3.175   5.044
 8738TIP3    H126099   9.641   3.257   5.055
 8738TIP3    H226100   9.504   3.195   5.073
 8739TIP3   OH226101   0.276   3.631   5.281
 8739TIP3    H126102   0.289   3.717   5.322
 8739TIP3    H226103   0.258   3.573   5.355
 8740TIP3   OH226104   0.519   4.205   5.831
 8740TIP3    H126105   0.554   4.282   5.786
 8740TIP3    H226106   0.593   4.169   5.878
 8741TIP3   OH226107   0.199   4.093   5.205
 8741TIP3    H126108   0.141   4.129   5.272
 8741TIP3    H226109   0.265   4.160   5.191
 8742TIP3   OH226110   0.860   3.849   5.822
 8742TIP3    H126111   0.840   3.844   5.915
 8742TIP3    H226112   0.950   3.819   5.815
 8743TIP3   OH226113   0.853   3.690   4.641
 8743TIP3    H126114   0.891   3.680   4.728
 8743TIP3    H226115   0.760   3.671   4.652
 8744TIP3   OH226116   1.097   4.370   5.852
 8744TIP3    H126117   1.029   4.304   5.862
 8744TIP3    H226118   1.071   4.419   5.774
 8745TIP3   OH226119   1.126   4.212   4.483
 8745TIP3    H126120   1.133   4.269   4.407
 8745TIP3    H226121   1.058   4.252   4.537
 8746TIP3   OH226122   0.256   2.963   6.379
 8746TIP3    H126123   0.165   2.985   6.400
 8746TIP3    H226124   0.283   2.903   6.448
 8747TIP3   OH226125   1.011   3.625   4.853
 8747TIP3    H126126   0.993   3.581   4.936
 8747TIP3    H226127   1.105   3.641   4.854
 8748TIP3   OH226128   9.682   4.112   6.051
 8748TIP3    H126129   9.608   4.053   6.040
 8748TIP3    H226130   9.729   4.079   6.127
 8749TIP3   OH226131   0.227   3.691   4.670
 8749TIP3    H126132   0.232   3.598   4.647
 8749TIP3    H226133   0.217   3.691   4.765
 8750TIP3   OH226134   0.212   3.717   4.940
 8750TIP3    H126135   0.273   3.689   5.008
 8750TIP3    H226136   0.202   3.811   4.953
 8751TIP3   OH226137   9.700   3.411   5.138
 8751TIP3    H126138   9.621   3.435   5.186
 8751TIP3    H226139   9.720   3.488   5.084
 8752TIP3   OH226140   1.030   3.036   6.045
 8752TIP3    H126141   1.106   3.082   6.080
 8752TIP3    H226142   1.019   2.960   6.102
 8753TIP3   OH226143   0.914   2.781   5.232
 8753TIP3    H126144   0.893   2.801   5.141
 8753TIP3    H226145   0.957   2.861   5.264
 8754TIP3   OH226146   0.456   3.910   4.880
 8754TIP3    H126147   0.362   3.928   4.891
 8754TIP3    H226148   0.499   3.994   4.898
 8755TIP3   OH226149   0.588   2.977   5.317
 8755TIP3    H126150   0.645   3.051   5.295
 8755TIP3    H226151   0.607   2.958   5.409
 8756TIP3   OH226152   0.866   3.268   6.099
 8756TIP3    H126153   0.893   3.313   6.179
 8756TIP3    H226154   0.918   3.187   6.098
 8757TIP3   OH226155   0.731   2.676   5.411
 8757TIP3    H126156   0.709   2.753   5.462
 8757TIP3    H226157   0.800   2.706   5.351
 8758TIP3   OH226158   0.202   3.987   4.952
 8758TIP3    H126159   0.169   4.055   4.893
 8758TIP3    H226160   0.199   4.027   5.039
 8759TIP3   OH226161   0.248   2.698   5.217
 8759TIP3    H126162   0.241   2.788   5.248
 8759TIP3    H226163   0.342   2.680   5.217
 8760TIP3   OH226164   1.475   3.167   6.083
 8760TIP3    H126165   1.382   3.183   6.098
 8760TIP3    H226166   1.477   3.102   6.013
 8761TIP3   OH226167   1.142   3.376   5.470
 8761TIP3    H126168   1.064   3.323   5.483
 8761TIP3    H226169   1.208   3.337   5.529
 8762TIP3   OH226170   9.747   3.625   4.979
 8762TIP3    H126171   9.801   3.701   5.002
 8762TIP3    H226172   9.799   3.577   4.914
 8763TIP3   OH226173   9.717   2.867   5.076
 8763TIP3    H126174   9.629   2.903   5.092
 8763TIP3    H226175   9.701   2.785   5.029
 8764TIP3   OH226176   1.125   4.348   5.413
 8764TIP3    H126177   1.082   4.394   5.341
 8764TIP3    H226178   1.218   4.364   5.400
 8765TIP3   OH226179   0.205   2.599   5.941
 8765TIP3    H126180   0.178   2.563   5.857
 8765TIP3    H226181   0.197   2.526   6.002
 8766TIP3   OH226182   9.629   3.718   5.301
 8766TIP3    H126183   9.579   3.785   5.349
 8766TIP3    H226184   9.694   3.768   5.252
 8767TIP3   OH226185   0.427   4.319   6.472
 8767TIP3    H126186   0.517   4.300   6.499
 8767TIP3    H226187   0.410   4.258   6.400
 8768TIP3   OH226188   0.349   3.913   4.572
 8768TIP3    H126189   0.304   3.839   4.614
 8768TIP3    H226190   0.429   3.875   4.536
 8769TIP3   OH226191   1.014   4.237   6.209
 8769TIP3    H126192   1.027   4.167   6.272
 8769TIP3    H226193   1.085   4.299   6.227
 8770TIP3   OH226194   0.797   3.931   4.506
 8770TIP3    H126195   0.833   3.855   4.551
 8770TIP3    H226196   0.847   3.936   4.424
 8771TIP3   OH226197   0.002   3.746   6.644
 8771TIP3    H126198   0.087   3.727   6.604
 8771TIP3    H226199  -0.035   3.815   6.589
 8772TIP3   OH226200   0.060   3.433   4.817
 8772TIP3    H126201   0.106   3.393   4.892
 8772TIP3    H226202   0.122   3.426   4.745
 8773TIP3   OH226203   0.667   3.858   6.382
 8773TIP3    H126204   0.623   3.882   6.300
 8773TIP3    H226205   0.696   3.768   6.369
 8774TIP3   OH226206   0.591   3.611   4.632
 8774TIP3    H126207   0.565   3.624   4.723
 8774TIP3    H226208   0.566   3.521   4.613
 8775TIP3   OH226209   1.120   3.908   5.984
 8775TIP3    H126210   1.200   3.938   5.941
 8775TIP3    H226211   1.059   3.982   5.975
 8776TIP3   OH226212   0.255   3.429   6.609
 8776TIP3    H126213   0.340   3.386   6.608
 8776TIP3    H226214   0.254   3.480   6.690
 8777TIP3   OH226215   0.217   3.322   5.017
 8777TIP3    H126216   0.191   3.290   5.103
 8777TIP3    H226217   0.251   3.244   4.972
 8778TIP3   OH226218   0.545   3.405   6.230
 8778TIP3    H126219   0.469   3.464   6.234
 8778TIP3    H226220   0.591   3.431   6.151
 8779TIP3   OH226221   0.323   3.130   4.849
 8779TIP3    H126222   0.295   3.137   4.758
 8779TIP3    H226223   0.418   3.141   4.846
 8780TIP3   OH226224   0.990   3.788   6.339
 8780TIP3    H126225   1.062   3.750   6.289
 8780TIP3    H226226   0.985   3.734   6.418
 8781TIP3   OH226227   1.158   3.425   4.472
 8781TIP3    H126228   1.085   3.390   4.524
 8781TIP3    H226229   1.139   3.518   4.464
 8782TIP3   OH226230   0.615   3.176   6.360
 8782TIP3    H126231   0.620   3.104   6.297
 8782TIP3    H226232   0.589   3.252   6.308
 8783TIP3   OH226233   0.624   2.982   6.159
 8783TIP3    H126234   0.649   3.023   6.076
 8783TIP3    H226235   0.533   2.955   6.146
 8784TIP3   OH226236   0.671   3.516   6.019
 8784TIP3    H126237   0.747   3.575   6.019
 8784TIP3    H226238   0.605   3.562   5.968
 8785TIP3   OH226239   1.208   3.476   6.425
 8785TIP3    H126240   1.256   3.393   6.434
 8785TIP3    H226241   1.277   3.542   6.419
 8786TIP3   OH226242   1.228   3.739   6.166
 8786TIP3    H126243   1.176   3.798   6.112
 8786TIP3    H226244   1.318   3.752   6.135
 8787TIP3   OH226245   0.484   3.274   6.583
 8787TIP3    H126246   0.437   3.197   6.616
 8787TIP3    H226247   0.524   3.244   6.501
 8788TIP3   OH226248   0.733   2.754   6.275
 8788TIP3    H126249   0.696   2.833   6.236
 8788TIP3    H226250   0.666   2.687   6.263
 8789TIP3   OH226251   0.859   3.228   6.479
 8789TIP3    H126252   0.845   3.220   6.573
 8789TIP3    H226253   0.776   3.203   6.439
 8790TIP3   OH226254   1.102   3.178   6.351
 8790TIP3    H126255   1.024   3.180   6.406
 8790TIP3    H226256   1.173   3.157   6.412
 8791TIP3   OH226257   1.340   3.151   6.499
 8791TIP3    H126258   1.352   3.056   6.506
 8791TIP3    H226259   1.333   3.181   6.589
 8792TIP3   OH226260   0.351   3.064   6.708
 8792TIP3    H126261   0.346   2.984   6.657
 8792TIP3    H226262   0.400   3.039   6.787
 8793TIP3   OH226263   0.796   2.737   6.540
 8793TIP3    H126264   0.864   2.671   6.536
 8793TIP3    H226265   0.767   2.748   6.450
 8794TIP3   OH226266   0.881   2.955   6.688
 8794TIP3    H126267   0.853   2.883   6.631
 8794TIP3    H226268   0.808   3.017   6.687
 8795TIP3   OH226269   0.127   4.185   4.790
 8795TIP3    H126270   0.200   4.211   4.733
 8795TIP3    H226271   0.049   4.216   4.744
 8796TIP3   OH226272   9.339   3.575   5.039
 8796TIP3    H126273   9.381   3.658   5.015
 8796TIP3    H226274   9.249   3.584   5.010
 8797TIP3   OH226275   1.392   4.416   5.415
 8797TIP3    H126276   1.403   4.427   5.509
 8797TIP3    H226277   1.417   4.501   5.378
 8798TIP3   OH226278   1.405   4.430   5.692
 8798TIP3    H126279   1.357   4.347   5.695
 8798TIP3    H226280   1.475   4.420   5.755
 8799TIP3   OH226281   1.470   4.132   6.253
 8799TIP3    H126282   1.396   4.140   6.313
 8799TIP3    H226283   1.516   4.216   6.259
 8800TIP3   OH226284   1.291   3.642   4.863
 8800TIP3    H126285   1.344   3.720   4.846
 8800TIP3    H226286   1.332   3.603   4.941
 8801TIP3   OH226287   1.420   3.506   5.069
 8801TIP3    H126288   1.353   3.469   5.127
 8801TIP3    H226289   1.484   3.545   5.129
 8802TIP3   OH226290   1.462   3.919   5.509
 8802TIP3    H126291   1.512   3.851   5.463
 8802TIP3    H226292   1.461   3.993   5.449
 8803TIP3   OH226293   1.265   4.189   5.705
 8803TIP3    H126294   1.195   4.231   5.753
 8803TIP3    H226295   1.222   4.149   5.629
 8804TIP3   OH226296   1.323   3.420   4.705
 8804TIP3    H126297   1.259   3.424   4.634
 8804TIP3    H226298   1.303   3.496   4.760
 8805TIP3   OH226299   1.169   3.069   4.662
 8805TIP3    H126300   1.138   3.108   4.580
 8805TIP3    H226301   1.162   2.975   4.647
 8806TIP3   OH226302   1.216   3.368   5.204
 8806TIP3    H126303   1.217   3.273   5.191
 8806TIP3    H226304   1.195   3.378   5.297
 8807TIP3   OH226305   9.606   3.459   5.945
 8807TIP3    H126306   9.623   3.417   5.860
 8807TIP3    H226307   9.687   3.506   5.965
 8808TIP3   OH226308   1.481   3.784   6.059
 8808TIP3    H126309   1.551   3.722   6.040
 8808TIP3    H226310   1.468   3.832   5.977
 8809TIP3   OH226311   1.671   3.579   6.057
 8809TIP3    H126312   1.596   3.537   6.100
 8809TIP3    H226313   1.745   3.522   6.078
 8810TIP3   OH226314   1.137   2.798   4.607
 8810TIP3    H126315   1.203   2.775   4.672
 8810TIP3    H226316   1.056   2.761   4.642
 8811TIP3   OH226317   1.204   3.091   5.089
 8811TIP3    H126318   1.248   3.007   5.103
 8811TIP3    H226319   1.248   3.129   5.013
 8812TIP3   OH226320   1.356   3.256   5.615
 8812TIP3    H126321   1.437   3.272   5.568
 8812TIP3    H226322   1.369   3.297   5.701
 8813TIP3   OH226323   1.430   3.409   5.841
 8813TIP3    H126324   1.358   3.435   5.898
 8813TIP3    H226325   1.459   3.490   5.799
 8814TIP3   OH226326   0.092   3.085   6.597
 8814TIP3    H126327   0.178   3.115   6.626
 8814TIP3    H226328   0.032   3.154   6.626
 8815TIP3   OH226329   1.891   3.012   6.380
 8815TIP3    H126330   1.955   2.951   6.342
 8815TIP3    H226331   1.855   3.059   6.305
 8816TIP3   OH226332   1.319   2.842   5.141
 8816TIP3    H126333   1.364   2.829   5.224
 8816TIP3    H226334   1.257   2.770   5.135
 8817TIP3   OH226335   0.062   2.829   5.979
 8817TIP3    H126336   0.112   2.748   5.989
 8817TIP3    H226337   0.128   2.895   5.956
 8818TIP3   OH226338   9.566   3.129   6.009
 8818TIP3    H126339   9.649   3.176   6.017
 8818TIP3    H226340   9.514   3.181   5.948
 8819TIP3   OH226341   1.743   3.125   6.181
 8819TIP3    H126342   1.664   3.164   6.220
 8819TIP3    H226343   1.710   3.054   6.127
 8820TIP3   OH226344   1.365   2.762   4.768
 8820TIP3    H126345   1.411   2.696   4.716
 8820TIP3    H226346   1.424   2.836   4.771
 8821TIP3   OH226347   9.644   2.562   5.608
 8821TIP3    H126348   9.591   2.596   5.679
 8821TIP3    H226349   9.607   2.602   5.529
 8822TIP3   OH226350   0.965   4.292   5.050
 8822TIP3    H126351   1.024   4.295   4.975
 8822TIP3    H226352   0.988   4.369   5.102
 8823TIP3   OH226353   0.054   2.637   6.432
 8823TIP3    H126354   0.044   2.692   6.510
 8823TIP3    H226355   0.017   2.689   6.361
 8824TIP3   OH226356   0.114   4.091   6.390
 8824TIP3    H126357   0.068   4.170   6.418
 8824TIP3    H226358   0.149   4.054   6.471
 8825TIP3   OH226359   0.313   4.186   6.014
 8825TIP3    H126360   0.246   4.139   5.964
 8825TIP3    H226361   0.383   4.202   5.950
 8826TIP3   OH226362   0.704   4.369   6.102
 8826TIP3    H126363   0.737   4.366   6.192
 8826TIP3    H226364   0.763   4.429   6.057
 8827TIP3   OH226365   0.881   4.543   5.985
 8827TIP3    H126366   0.952   4.495   5.943
 8827TIP3    H226367   0.924   4.604   6.044
 8828TIP3   OH226368   1.656   2.870   6.079
 8828TIP3    H126369   1.567   2.860   6.045
 8828TIP3    H226370   1.693   2.782   6.075
 8829TIP3   OH226371   0.173   4.352   5.819
 8829TIP3    H126372   0.097   4.305   5.852
 8829TIP3    H226373   0.142   4.398   5.741
 8830TIP3   OH226374   0.595   4.411   5.661
 8830TIP3    H126375   0.521   4.417   5.601
 8830TIP3    H226376   0.599   4.496   5.704
 8831TIP3   OH226377   0.850   4.328   5.706
 8831TIP3    H126378   0.758   4.352   5.690
 8831TIP3    H226379   0.900   4.397   5.663
 8832TIP3   OH226380   1.043   4.514   5.617
 8832TIP3    H126381   1.033   4.600   5.576
 8832TIP3    H226382   1.069   4.457   5.545
 8833TIP3   OH226383   9.659   4.136   5.775
 8833TIP3    H126384   9.669   4.121   5.869
 8833TIP3    H226385   9.747   4.124   5.739
 8834TIP3   OH226386   0.093   4.093   5.651
 8834TIP3    H126387   0.110   3.999   5.659
 8834TIP3    H226388   0.179   4.132   5.640
 8835TIP3   OH226389   0.363   4.141   5.617
 8835TIP3    H126390   0.380   4.048   5.607
 8835TIP3    H226391   0.411   4.166   5.696
 8836TIP3   OH226392   0.866   2.791   5.717
 8836TIP3    H126393   0.824   2.720   5.765
 8836TIP3    H226394   0.933   2.748   5.665
 8837TIP3   OH226395   1.364   2.716   5.603
 8837TIP3    H126396   1.398   2.767   5.529
 8837TIP3    H226397   1.270   2.733   5.603
 8838TIP3   OH226398   1.476   2.796   5.364
 8838TIP3    H126399   1.545   2.734   5.339
 8838TIP3    H226400   1.515   2.882   5.349
 8839TIP3   OH226401   0.114   2.498   5.698
 8839TIP3    H126402   0.024   2.470   5.680
 8839TIP3    H226403   0.164   2.417   5.704
 8840TIP3   OH226404   9.708   2.393   5.376
 8840TIP3    H126405   9.755   2.432   5.303
 8840TIP3    H226406   9.724   2.452   5.449
 8841TIP3   OH226407   0.578   2.543   5.608
 8841TIP3    H126408   0.630   2.585   5.540
 8841TIP3    H226409   0.622   2.566   5.690
 8842TIP3   OH226410   1.079   2.673   5.583
 8842TIP3    H126411   1.093   2.634   5.497
 8842TIP3    H226412   1.085   2.599   5.644
 8843TIP3   OH226413   1.135   2.632   5.148
 8843TIP3    H126414   1.055   2.678   5.174
 8843TIP3    H226415   1.126   2.544   5.187
 8844TIP3   OH226416   0.043   2.521   5.148
 8844TIP3    H126417   0.089   2.458   5.092
 8844TIP3    H226418   0.112   2.580   5.178
 8845TIP3   OH226419   0.523   2.726   5.225
 8845TIP3    H126420   0.580   2.671   5.278
 8845TIP3    H226421   0.541   2.816   5.254
 8846TIP3   OH226422   0.393   4.159   4.692
 8846TIP3    H126423   0.482   4.172   4.658
 8846TIP3    H226424   0.366   4.075   4.654
 8847TIP3   OH226425   1.115   4.273   4.816
 8847TIP3    H126426   1.108   4.178   4.810
 8847TIP3    H226427   1.056   4.306   4.748
 8848TIP3   OH226428   0.335   2.809   6.603
 8848TIP3    H126429   0.310   2.725   6.642
 8848TIP3    H226430   0.430   2.814   6.617
 8849TIP3   OH226431   0.586   2.790   6.716
 8849TIP3    H126432   0.663   2.767   6.663
 8849TIP3    H226433   0.575   2.717   6.776
 8850TIP3   OH226434   9.551   4.025   4.750
 8850TIP3    H126435   9.587   4.112   4.763
 8850TIP3    H226436   9.628   3.967   4.747
 8851TIP3   OH226437   1.399   2.879   6.504
 8851TIP3    H126438   1.415   2.849   6.594
 8851TIP3    H226439   1.485   2.873   6.461
 8852TIP3   OH226440   1.326   4.412   6.008
 8852TIP3    H126441   1.250   4.381   5.960
 8852TIP3    H226442   1.312   4.506   6.019
 8853TIP3   OH226443   2.585   3.791   4.740
 8853TIP3    H126444   2.521   3.855   4.710
 8853TIP3    H226445   2.535   3.712   4.755
 8854TIP3   OH226446   2.578   3.787   5.176
 8854TIP3    H126447   2.635   3.766   5.249
 8854TIP3    H226448   2.536   3.705   5.152
 8855TIP3   OH226449   1.887   3.653   5.518
 8855TIP3    H126450   1.923   3.600   5.590
 8855TIP3    H226451   1.963   3.679   5.467
 8856TIP3   OH226452   2.841   4.092   4.836
 8856TIP3    H126453   2.843   4.027   4.906
 8856TIP3    H226454   2.856   4.175   4.881
 8857TIP3   OH226455   1.895   4.066   5.189
 8857TIP3    H126456   1.872   3.974   5.200
 8857TIP3    H226457   1.991   4.067   5.187
 8858TIP3   OH226458   1.568   3.282   4.980
 8858TIP3    H126459   1.531   3.365   5.010
 8858TIP3    H226460   1.493   3.231   4.949
 8859TIP3   OH226461   1.650   3.597   5.208
 8859TIP3    H126462   1.698   3.518   5.235
 8859TIP3    H226463   1.718   3.661   5.188
 8860TIP3   OH226464   2.486   4.542   4.856
 8860TIP3    H126465   2.521   4.465   4.811
 8860TIP3    H226466   2.465   4.511   4.944
 8861TIP3   OH226467   2.403   4.008   5.176
 8861TIP3    H126468   2.447   3.926   5.154
 8861TIP3    H226469   2.473   4.065   5.208
 8862TIP3   OH226470   3.435   3.331   5.195
 8862TIP3    H126471   3.451   3.416   5.235
 8862TIP3    H226472   3.455   3.342   5.103
 8863TIP3   OH226473   2.812   3.503   5.219
 8863TIP3    H126474   2.846   3.416   5.238
 8863TIP3    H226475   2.767   3.494   5.134
 8864TIP3   OH226476   2.152   3.161   5.181
 8864TIP3    H126477   2.139   3.230   5.116
 8864TIP3    H226478   2.100   3.088   5.149
 8865TIP3   OH226479   2.857   3.279   4.862
 8865TIP3    H126480   2.938   3.252   4.905
 8865TIP3    H226481   2.853   3.226   4.783
 8866TIP3   OH226482   1.784   3.371   5.296
 8866TIP3    H126483   1.865   3.351   5.343
 8866TIP3    H226484   1.791   3.321   5.215
 8867TIP3   OH226485   2.204   3.568   5.112
 8867TIP3    H126486   2.298   3.552   5.121
 8867TIP3    H226487   2.170   3.486   5.076
 8868TIP3   OH226488   3.489   3.555   5.357
 8868TIP3    H126489   3.399   3.587   5.353
 8868TIP3    H226490   3.523   3.590   5.439
 8869TIP3   OH226491   2.140   3.159   5.626
 8869TIP3    H126492   2.090   3.194   5.553
 8869TIP3    H226493   2.085   3.173   5.703
 8870TIP3   OH226494   2.435   3.995   4.601
 8870TIP3    H126495   2.524   4.029   4.596
 8870TIP3    H226496   2.381   4.072   4.618
 8871TIP3   OH226497   2.235   3.936   5.385
 8871TIP3    H126498   2.181   4.006   5.420
 8871TIP3    H226499   2.283   3.976   5.313
 8872TIP3   OH226500   3.059   3.253   5.052
 8872TIP3    H126501   2.998   3.250   5.125
 8872TIP3    H226502   3.099   3.340   5.058
 8873TIP3   OH226503   2.027   3.271   5.400
 8873TIP3    H126504   2.082   3.346   5.424
 8873TIP3    H226505   2.074   3.229   5.327
 8874TIP3   OH226506   2.077   4.140   5.489
 8874TIP3    H126507   2.069   4.230   5.456
 8874TIP3    H226508   1.996   4.125   5.538
 8875TIP3   OH226509   1.447   3.858   4.758
 8875TIP3    H126510   1.369   3.894   4.716
 8875TIP3    H226511   1.489   3.933   4.800
 8876TIP3   OH226512   2.866   4.334   4.974
 8876TIP3    H126513   2.787   4.336   5.029
 8876TIP3    H226514   2.884   4.426   4.956
 8877TIP3   OH226515   3.230   3.224   5.361
 8877TIP3    H126516   3.146   3.240   5.318
 8877TIP3    H226517   3.295   3.250   5.296
 8878TIP3   OH226518   2.483   2.851   5.357
 8878TIP3    H126519   2.475   2.758   5.380
 8878TIP3    H226520   2.406   2.892   5.396
 8879TIP3   OH226521   2.591   4.354   4.676
 8879TIP3    H126522   2.630   4.269   4.657
 8879TIP3    H226523   2.652   4.418   4.638
 8880TIP3   OH226524   2.694   4.106   4.604
 8880TIP3    H126525   2.746   4.069   4.533
 8880TIP3    H226526   2.747   4.093   4.683
 8881TIP3   OH226527   3.302   3.898   5.208
 8881TIP3    H126528   3.221   3.949   5.213
 8881TIP3    H226529   3.334   3.911   5.119
 8882TIP3   OH226530   2.785   3.754   4.556
 8882TIP3    H126531   2.722   3.768   4.627
 8882TIP3    H226532   2.861   3.714   4.599
 8883TIP3   OH226533   2.988   3.755   5.489
 8883TIP3    H126534   2.979   3.849   5.506
 8883TIP3    H226535   2.908   3.731   5.442
 8884TIP3   OH226536   2.021   3.712   4.958
 8884TIP3    H126537   1.980   3.649   4.899
 8884TIP3    H226538   2.091   3.663   5.001
 8885TIP3   OH226539   2.162   4.127   5.105
 8885TIP3    H126540   2.136   4.114   5.014
 8885TIP3    H226541   2.246   4.084   5.112
 8886TIP3   OH226542   2.104   3.698   5.338
 8886TIP3    H126543   2.144   3.659   5.260
 8886TIP3    H226544   2.153   3.778   5.353
 8887TIP3   OH226545   2.648   4.333   5.145
 8887TIP3    H126546   2.595   4.392   5.198
 8887TIP3    H226547   2.644   4.249   5.191
 8888TIP3   OH226548   2.260   4.230   5.681
 8888TIP3    H126549   2.303   4.168   5.740
 8888TIP3    H226550   2.205   4.175   5.624
 8889TIP3   OH226551   2.691   3.561   4.378
 8889TIP3    H126552   2.718   3.637   4.429
 8889TIP3    H226553   2.681   3.593   4.289
 8890TIP3   OH226554   2.030   3.785   5.803
 8890TIP3    H126555   2.033   3.878   5.824
 8890TIP3    H226556   1.936   3.765   5.799
 8891TIP3   OH226557   2.335   4.255   4.642
 8891TIP3    H126558   2.420   4.293   4.665
 8891TIP3    H226559   2.289   4.325   4.597
 8892TIP3   OH226560   3.109   2.816   4.464
 8892TIP3    H126561   3.028   2.838   4.509
 8892TIP3    H226562   3.124   2.890   4.404
 8893TIP3   OH226563   1.879   3.568   4.761
 8893TIP3    H126564   1.798   3.611   4.734
 8893TIP3    H226565   1.853   3.479   4.784
 8894TIP3   OH226566   2.947   4.191   4.005
 8894TIP3    H126567   2.942   4.283   3.980
 8894TIP3    H226568   3.037   4.165   3.984
 8895TIP3   OH226569   1.666   3.954   5.700
 8895TIP3    H126570   1.593   3.937   5.640
 8895TIP3    H226571   1.697   3.867   5.727
 8896TIP3   OH226572   1.500   4.162   5.363
 8896TIP3    H126573   1.586   4.191   5.393
 8896TIP3    H226574   1.442   4.237   5.380
 8897TIP3   OH226575   2.251   4.473   4.480
 8897TIP3    H126576   2.213   4.455   4.394
 8897TIP3    H226577   2.214   4.558   4.505
 8898TIP3   OH226578   1.693   4.334   4.857
 8898TIP3    H126579   1.736   4.328   4.942
 8898TIP3    H226580   1.638   4.256   4.851
 8899TIP3   OH226581   2.449   4.411   4.107
 8899TIP3    H126582   2.500   4.337   4.072
 8899TIP3    H226583   2.487   4.426   4.194
 8900TIP3   OH226584   2.510   4.462   4.375
 8900TIP3    H126585   2.429   4.454   4.425
 8900TIP3    H226586   2.579   4.457   4.440
 8901TIP3   OH226587   3.223   3.728   5.652
 8901TIP3    H126588   3.149   3.713   5.594
 8901TIP3    H226589   3.257   3.640   5.670
 8902TIP3   OH226590   1.860   4.145   5.663
 8902TIP3    H126591   1.913   4.131   5.742
 8902TIP3    H226592   1.790   4.080   5.670
 8903TIP3   OH226593   2.247   2.940   5.486
 8903TIP3    H126594   2.163   2.907   5.453
 8903TIP3    H226595   2.223   3.021   5.532
 8904TIP3   OH226596   2.785   3.068   5.680
 8904TIP3    H126597   2.855   3.045   5.741
 8904TIP3    H226598   2.705   3.051   5.728
 8905TIP3   OH226599   3.011   3.493   5.605
 8905TIP3    H126600   2.969   3.480   5.690
 8905TIP3    H226601   2.979   3.578   5.575
 8906TIP3   OH226602   2.660   3.618   4.106
 8906TIP3    H126603   2.637   3.589   4.018
 8906TIP3    H226604   2.749   3.653   4.097
 8907TIP3   OH226605   2.290   3.009   4.498
 8907TIP3    H126606   2.377   3.005   4.539
 8907TIP3    H226607   2.279   2.924   4.456
 8908TIP3   OH226608   2.182   3.480   5.493
 8908TIP3    H126609   2.136   3.488   5.577
 8908TIP3    H226610   2.160   3.561   5.446
 8909TIP3   OH226611   2.071   3.352   4.998
 8909TIP3    H126612   1.982   3.322   5.016
 8909TIP3    H226613   2.093   3.310   4.914
 8910TIP3   OH226614   2.555   3.456   4.737
 8910TIP3    H126615   2.495   3.382   4.750
 8910TIP3    H226616   2.618   3.424   4.672
 8911TIP3   OH226617   2.739   3.683   5.806
 8911TIP3    H126618   2.713   3.616   5.869
 8911TIP3    H226619   2.830   3.703   5.829
 8912TIP3   OH226620   2.704   3.472   4.969
 8912TIP3    H126621   2.642   3.491   4.898
 8912TIP3    H226622   2.754   3.397   4.938
 8913TIP3   OH226623   2.016   3.491   5.712
 8913TIP3    H126624   2.026   3.553   5.784
 8913TIP3    H226625   1.998   3.407   5.754
 8914TIP3   OH226626   1.611   3.014   5.280
 8914TIP3    H126627   1.684   3.046   5.333
 8914TIP3    H226628   1.651   2.985   5.198
 8915TIP3   OH226629   1.532   2.994   4.781
 8915TIP3    H126630   1.601   3.037   4.731
 8915TIP3    H226631   1.468   3.063   4.799
 8916TIP3   OH226632   2.736   3.698   5.385
 8916TIP3    H126633   2.766   3.633   5.322
 8916TIP3    H226634   2.699   3.647   5.457
 8917TIP3   OH226635   2.422   3.190   5.067
 8917TIP3    H126636   2.348   3.172   5.125
 8917TIP3    H226637   2.497   3.152   5.113
 8918TIP3   OH226638   1.830   3.233   5.060
 8918TIP3    H126639   1.740   3.235   5.026
 8918TIP3    H226640   1.855   3.140   5.054
 8919TIP3   OH226641   2.132   3.225   4.760
 8919TIP3    H126642   2.228   3.221   4.761
 8919TIP3    H226643   2.111   3.265   4.676
 8920TIP3   OH226644   2.886   3.240   5.269
 8920TIP3    H126645   2.857   3.254   5.359
 8920TIP3    H226646   2.827   3.172   5.236
 8921TIP3   OH226647   1.942   3.285   4.532
 8921TIP3    H126648   1.854   3.256   4.558
 8921TIP3    H226649   1.984   3.207   4.496
 8922TIP3   OH226650   2.018   4.054   5.896
 8922TIP3    H126651   2.099   4.071   5.945
 8922TIP3    H226652   1.948   4.060   5.961
 8923TIP3   OH226653   2.475   3.521   5.167
 8923TIP3    H126654   2.530   3.467   5.110
 8923TIP3    H226655   2.472   3.473   5.250
 8924TIP3   OH226656   1.967   2.982   5.061
 8924TIP3    H126657   1.938   2.906   5.112
 8924TIP3    H226658   2.001   2.945   4.980
 8925TIP3   OH226659   2.446   3.420   5.431
 8925TIP3    H126660   2.359   3.451   5.457
 8925TIP3    H226661   2.506   3.469   5.486
 8926TIP3   OH226662   3.050   4.034   5.188
 8926TIP3    H126663   3.096   4.091   5.126
 8926TIP3    H226664   2.983   3.991   5.135
 8927TIP3   OH226665   2.628   3.149   4.394
 8927TIP3    H126666   2.600   3.091   4.464
 8927TIP3    H226667   2.674   3.220   4.438
 8928TIP3   OH226668   2.686   4.138   5.565
 8928TIP3    H126669   2.714   4.094   5.645
 8928TIP3    H226670   2.655   4.224   5.593
 8929TIP3   OH226671   2.743   3.355   4.545
 8929TIP3    H126672   2.837   3.359   4.560
 8929TIP3    H226673   2.726   3.426   4.483
 8930TIP3   OH226674   1.876   3.775   5.187
 8930TIP3    H126675   1.919   3.763   5.102
 8930TIP3    H226676   1.941   3.745   5.250
 8931TIP3   OH226677   2.228   3.876   4.431
 8931TIP3    H126678   2.214   3.967   4.407
 8931TIP3    H226679   2.303   3.878   4.490
 8932TIP3   OH226680   1.756   3.717   5.827
 8932TIP3    H126681   1.756   3.689   5.919
 8932TIP3    H226682   1.681   3.671   5.788
 8933TIP3   OH226683   2.501   3.815   5.860
 8933TIP3    H126684   2.431   3.757   5.830
 8933TIP3    H226685   2.581   3.775   5.826
 8934TIP3   OH226686   3.131   3.437   4.324
 8934TIP3    H126687   3.073   3.392   4.263
 8934TIP3    H226688   3.132   3.528   4.293
 8935TIP3   OH226689   2.858   4.246   4.264
 8935TIP3    H126690   2.835   4.165   4.308
 8935TIP3    H226691   2.886   4.219   4.176
 8936TIP3   OH226692   2.846   3.892   5.047
 8936TIP3    H126693   2.754   3.868   5.061
 8936TIP3    H226694   2.886   3.813   5.012
 8937TIP3   OH226695   2.008   4.136   4.868
 8937TIP3    H126696   2.001   4.206   4.804
 8937TIP3    H226697   1.928   4.142   4.921
 8938TIP3   OH226698   1.552   3.433   4.557
 8938TIP3    H126699   1.594   3.514   4.587
 8938TIP3    H226700   1.477   3.422   4.616
 8939TIP3   OH226701   2.037   3.891   4.746
 8939TIP3    H126702   2.043   3.977   4.789
 8939TIP3    H226703   2.037   3.829   4.819
 8940TIP3   OH226704   1.920   4.345   4.701
 8940TIP3    H126705   1.834   4.351   4.744
 8940TIP3    H226706   1.955   4.433   4.704
 8941TIP3   OH226707   2.638   4.100   5.295
 8941TIP3    H126708   2.646   4.108   5.391
 8941TIP3    H226709   2.685   4.019   5.275
 8942TIP3   OH226710   2.634   3.989   4.163
 8942TIP3    H126711   2.681   3.977   4.246
 8942TIP3    H226712   2.550   3.944   4.177
 8943TIP3   OH226713   2.937   4.462   3.963
 8943TIP3    H126714   2.947   4.516   3.884
 8943TIP3    H226715   2.870   4.506   4.014
 8944TIP3   OH226716   1.965   3.238   5.829
 8944TIP3    H126717   1.870   3.248   5.834
 8944TIP3    H226718   1.987   3.187   5.907
 8945TIP3   OH226719   2.813   3.964   4.382
 8945TIP3    H126720   2.792   3.891   4.440
 8945TIP3    H226721   2.906   3.954   4.363
 8946TIP3   OH226722   1.712   4.327   5.477
 8946TIP3    H126723   1.763   4.270   5.535
 8946TIP3    H226724   1.712   4.412   5.521
 8947TIP3   OH226725   2.015   3.945   4.175
 8947TIP3    H126726   2.009   3.857   4.138
 8947TIP3    H226727   1.935   3.955   4.226
 8948TIP3   OH226728   1.952   3.947   4.497
 8948TIP3    H126729   1.969   3.944   4.592
 8948TIP3    H226730   1.945   4.041   4.478
 8949TIP3   OH226731   1.643   3.684   4.649
 8949TIP3    H126732   1.580   3.729   4.706
 8949TIP3    H226733   1.663   3.747   4.581
 8950TIP3   OH226734   2.817   3.299   5.532
 8950TIP3    H126735   2.896   3.339   5.566
 8950TIP3    H226736   2.805   3.220   5.586
 8951TIP3   OH226737   2.193   4.136   4.370
 8951TIP3    H126738   2.110   4.166   4.408
 8951TIP3    H226739   2.234   4.216   4.336
 8952TIP3   OH226740   2.409   3.220   4.789
 8952TIP3    H126741   2.460   3.150   4.748
 8952TIP3    H226742   2.421   3.206   4.883
 8953TIP3   OH226743   2.655   3.528   5.582
 8953TIP3    H126744   2.684   3.567   5.665
 8953TIP3    H226745   2.703   3.446   5.576
 8954TIP3   OH226746   1.944   4.219   4.459
 8954TIP3    H126747   1.919   4.283   4.392
 8954TIP3    H226748   1.935   4.265   4.542
 8955TIP3   OH226749   2.053   2.962   4.689
 8955TIP3    H126750   2.065   3.049   4.727
 8955TIP3    H226751   2.138   2.940   4.650
 8956TIP3   OH226752   3.274   3.432   5.574
 8956TIP3    H126753   3.181   3.446   5.591
 8956TIP3    H226754   3.277   3.373   5.499
 8957TIP3   OH226755   2.939   3.639   4.961
 8957TIP3    H126756   2.861   3.583   4.968
 8957TIP3    H226757   3.006   3.593   5.012
 8958TIP3   OH226758   1.674   3.862   4.435
 8958TIP3    H126759   1.696   3.956   4.440
 8958TIP3    H226760   1.748   3.823   4.389
 8959TIP3   OH226761   1.673   3.180   4.573
 8959TIP3    H126762   1.627   3.263   4.568
 8959TIP3    H226763   1.625   3.122   4.513
 8960TIP3   OH226764   2.915   4.616   4.932
 8960TIP3    H126765   2.875   4.655   4.854
 8960TIP3    H226766   3.009   4.626   4.918
 8961TIP3   OH226767   1.985   2.856   5.440
 8961TIP3    H126768   1.956   2.823   5.356
 8961TIP3    H226769   1.976   2.782   5.500
 8962TIP3   OH226770   1.508   4.122   4.837
 8962TIP3    H126771   1.468   4.159   4.916
 8962TIP3    H226772   1.459   4.161   4.764
 8963TIP3   OH226773   1.697   4.635   5.892
 8963TIP3    H126774   1.775   4.631   5.947
 8963TIP3    H226775   1.664   4.546   5.890
 8964TIP3   OH226776   2.142   4.529   5.930
 8964TIP3    H126777   2.231   4.517   5.963
 8964TIP3    H226778   2.093   4.456   5.967
 8965TIP3   OH226779   2.137   4.164   4.064
 8965TIP3    H126780   2.099   4.092   4.116
 8965TIP3    H226781   2.214   4.125   4.022
 8966TIP3   OH226782   2.577   4.198   3.989
 8966TIP3    H126783   2.618   4.135   4.048
 8966TIP3    H226784   2.630   4.194   3.910
 8967TIP3   OH226785   1.816   4.052   6.088
 8967TIP3    H126786   1.832   3.958   6.098
 8967TIP3    H226787   1.731   4.058   6.046
 8968TIP3   OH226788   1.895   3.714   4.322
 8968TIP3    H126789   1.861   3.631   4.356
 8968TIP3    H226790   1.919   3.694   4.231
 8969TIP3   OH226791   2.417   4.075   5.845
 8969TIP3    H126792   2.500   4.122   5.841
 8969TIP3    H226793   2.442   3.983   5.847
 8970TIP3   OH226794   2.370   3.872   4.160
 8970TIP3    H126795   2.313   3.891   4.234
 8970TIP3    H226796   2.371   3.777   4.153
 8971TIP3   OH226797   2.961   4.053   5.449
 8971TIP3    H126798   2.993   4.055   5.359
 8971TIP3    H226799   2.884   4.109   5.448
 8972TIP3   OH226800   1.932   3.798   6.099
 8972TIP3    H126801   2.008   3.768   6.050
 8972TIP3    H226802   1.965   3.816   6.187
 8973TIP3   OH226803   2.040   3.613   4.540
 8973TIP3    H126804   1.997   3.609   4.625
 8973TIP3    H226805   2.058   3.522   4.516
 8974TIP3   OH226806   2.283   3.672   5.755
 8974TIP3    H126807   2.198   3.714   5.766
 8974TIP3    H226808   2.314   3.701   5.669
 8975TIP3   OH226809   2.792   4.049   5.813
 8975TIP3    H126810   2.878   4.030   5.777
 8975TIP3    H226811   2.787   3.997   5.894
 8976TIP3   OH226812   2.909   3.706   4.025
 8976TIP3    H126813   2.903   3.661   3.941
 8976TIP3    H226814   2.887   3.797   4.004
 8977TIP3   OH226815   2.391   3.443   5.862
 8977TIP3    H126816   2.394   3.371   5.799
 8977TIP3    H226817   2.352   3.516   5.814
 8978TIP3   OH226818   2.399   3.245   5.659
 8978TIP3    H126819   2.426   3.280   5.574
 8978TIP3    H226820   2.309   3.217   5.647
 8979TIP3   OH226821   2.397   3.763   5.526
 8979TIP3    H126822   2.486   3.772   5.491
 8979TIP3    H226823   2.346   3.828   5.478
 8980TIP3   OH226824   3.003   3.714   5.912
 8980TIP3    H126825   3.030   3.626   5.938
 8980TIP3    H226826   3.082   3.755   5.878
 8981TIP3   OH226827   3.054   3.987   5.695
 8981TIP3    H126828   3.030   4.024   5.610
 8981TIP3    H226829   3.116   3.917   5.675
 8982TIP3   OH226830   2.277   3.529   6.106
 8982TIP3    H126831   2.208   3.467   6.129
 8982TIP3    H226832   2.305   3.502   6.019
 8983TIP3   OH226833   2.522   3.014   5.763
 8983TIP3    H126834   2.480   3.093   5.729
 8983TIP3    H226835   2.456   2.945   5.750
 8984TIP3   OH226836   2.647   3.481   5.965
 8984TIP3    H126837   2.636   3.469   6.059
 8984TIP3    H226838   2.561   3.461   5.928
 8985TIP3   OH226839   2.893   3.427   5.838
 8985TIP3    H126840   2.814   3.427   5.893
 8985TIP3    H226841   2.964   3.405   5.899
 8986TIP3   OH226842   3.128   3.406   5.988
 8986TIP3    H126843   3.145   3.313   5.994
 8986TIP3    H226844   3.125   3.436   6.079
 8987TIP3   OH226845   2.111   3.307   6.169
 8987TIP3    H126846   2.116   3.219   6.133
 8987TIP3    H226847   2.149   3.300   6.257
 8988TIP3   OH226848   2.589   2.991   6.028
 8988TIP3    H126849   2.657   2.924   6.021
 8988TIP3    H226850   2.558   3.003   5.938
 8989TIP3   OH226851   2.686   3.208   6.167
 8989TIP3    H126852   2.655   3.135   6.115
 8989TIP3    H226853   2.613   3.269   6.170
 8990TIP3   OH226854   1.921   4.398   4.250
 8990TIP3    H126855   2.016   4.403   4.243
 8990TIP3    H226856   1.889   4.463   4.187
 8991TIP3   OH226857   1.401   3.837   4.402
 8991TIP3    H126858   1.494   3.854   4.420
 8991TIP3    H226859   1.381   3.759   4.454
 8992TIP3   OH226860   1.323   4.422   4.910
 8992TIP3    H126861   1.254   4.372   4.866
 8992TIP3    H226862   1.359   4.362   4.976
 8993TIP3   OH226863   1.457   4.254   5.086
 8993TIP3    H126864   1.445   4.189   5.156
 8993TIP3    H226865   1.509   4.323   5.127
 8994TIP3   OH226866   3.185   4.678   4.877
 8994TIP3    H126867   3.198   4.752   4.937
 8994TIP3    H226868   3.188   4.718   4.790
 8995TIP3   OH226869   3.084   3.913   4.354
 8995TIP3    H126870   3.146   3.980   4.325
 8995TIP3    H226871   3.128   3.871   4.428
 8996TIP3   OH226872   3.206   3.763   4.555
 8996TIP3    H126873   3.137   3.722   4.607
 8996TIP3    H226874   3.269   3.795   4.620
 8997TIP3   OH226875   3.242   4.156   5.021
 8997TIP3    H126876   3.298   4.089   4.981
 8997TIP3    H226877   3.218   4.214   4.949
 8998TIP3   OH226878   3.117   3.684   4.202
 8998TIP3    H126879   3.044   3.684   4.140
 8998TIP3    H226880   3.102   3.762   4.256
 8999TIP3   OH226881   2.979   3.319   4.128
 8999TIP3    H126882   2.924   3.350   4.055
 8999TIP3    H226883   2.973   3.224   4.123
 9000TIP3   OH226884   3.000   3.626   4.686
 9000TIP3    H126885   3.005   3.533   4.665
 9000TIP3    H226886   2.983   3.629   4.780
 9001TIP3   OH226887   1.623   3.692   5.464
 9001TIP3    H126888   1.614   3.660   5.375
 9001TIP3    H226889   1.717   3.687   5.483
 9002TIP3   OH226890   3.461   3.853   5.576
 9002TIP3    H126891   3.376   3.812   5.594
 9002TIP3    H226892   3.525   3.783   5.588
 9003TIP3   OH226893   2.940   3.045   4.100
 9003TIP3    H126894   2.998   3.023   4.173
 9003TIP3    H226895   2.854   3.015   4.129
 9004TIP3   OH226896   3.021   3.365   4.575
 9004TIP3    H126897   3.055   3.278   4.597
 9004TIP3    H226898   3.063   3.387   4.492
 9005TIP3   OH226899   3.154   3.513   5.099
 9005TIP3    H126900   3.234   3.532   5.050
 9005TIP3    H226901   3.168   3.552   5.185
 9006TIP3   OH226902   3.224   3.663   5.328
 9006TIP3    H126903   3.144   3.689   5.374
 9006TIP3    H226904   3.255   3.743   5.286
 9007TIP3   OH226905   1.848   3.371   6.109
 9007TIP3    H126906   1.941   3.366   6.128
 9007TIP3    H226907   1.812   3.290   6.144
 9008TIP3   OH226908   3.683   3.266   5.863
 9008TIP3    H126909   3.750   3.210   5.826
 9008TIP3    H226910   3.647   3.313   5.788
 9009TIP3   OH226911   3.103   3.101   4.630
 9009TIP3    H126912   3.147   3.075   4.711
 9009TIP3    H226913   3.032   3.037   4.621
 9010TIP3   OH226914   1.822   3.080   5.449
 9010TIP3    H126915   1.876   3.002   5.458
 9010TIP3    H226916   1.885   3.152   5.438
 9011TIP3   OH226917   1.602   3.338   5.516
 9011TIP3    H126918   1.651   3.331   5.434
 9011TIP3    H226919   1.633   3.420   5.555
 9012TIP3   OH226920   3.532   3.374   5.659
 9012TIP3    H126921   3.444   3.412   5.663
 9012TIP3    H226922   3.520   3.292   5.612
 9013TIP3   OH226923   3.159   3.007   4.271
 9013TIP3    H126924   3.202   2.946   4.212
 9013TIP3    H226925   3.216   3.084   4.273
 9014TIP3   OH226926   1.585   2.861   5.018
 9014TIP3    H126927   1.499   2.848   5.058
 9014TIP3    H226928   1.567   2.913   4.939
 9015TIP3   OH226929   2.731   4.546   4.541
 9015TIP3    H126930   2.792   4.542   4.467
 9015TIP3    H226931   2.768   4.612   4.599
 9016TIP3   OH226932   1.814   2.907   5.845
 9016TIP3    H126933   1.764   2.901   5.926
 9016TIP3    H226934   1.759   2.958   5.786
 9017TIP3   OH226935   1.863   4.393   5.977
 9017TIP3    H126936   1.780   4.372   5.935
 9017TIP3    H226937   1.855   4.359   6.066
 9018TIP3   OH226938   2.071   4.417   5.416
 9018TIP3    H126939   2.010   4.490   5.405
 9018TIP3    H226940   2.101   4.397   5.328
 9019TIP3   OH226941   3.455   3.124   5.562
 9019TIP3    H126942   3.368   3.115   5.524
 9019TIP3    H226943   3.492   3.035   5.558
 9020TIP3   OH226944   1.706   4.657   5.518
 9020TIP3    H126945   1.615   4.669   5.493
 9020TIP3    H226946   1.723   4.726   5.583
 9021TIP3   OH226947   1.934   4.646   5.369
 9021TIP3    H126948   1.851   4.650   5.416
 9021TIP3    H226949   1.913   4.676   5.281
 9022TIP3   OH226950   2.328   4.572   5.132
 9022TIP3    H126951   2.290   4.649   5.090
 9022TIP3    H226952   2.343   4.600   5.223
 9023TIP3   OH226953   2.822   4.815   5.111
 9023TIP3    H126954   2.824   4.895   5.057
 9023TIP3    H226955   2.851   4.746   5.051
 9024TIP3   OH226956   1.636   4.429   5.217
 9024TIP3    H126957   1.646   4.402   5.309
 9024TIP3    H226958   1.713   4.393   5.173
 9025TIP3   OH226959   1.848   4.313   5.088
 9025TIP3    H126960   1.854   4.228   5.131
 9025TIP3    H226961   1.934   4.353   5.101
 9026TIP3   OH226962   2.116   4.396   5.138
 9026TIP3    H126963   2.140   4.304   5.123
 9026TIP3    H226964   2.198   4.444   5.130
 9027TIP3   OH226965   2.627   3.054   5.201
 9027TIP3    H126966   2.592   2.982   5.253
 9027TIP3    H226967   2.702   3.017   5.155
 9028TIP3   OH226968   3.159   2.966   5.088
 9028TIP3    H126969   3.197   3.016   5.015
 9028TIP3    H226970   3.071   3.000   5.097
 9029TIP3   OH226971   3.269   3.039   4.845
 9029TIP3    H126972   3.339   2.979   4.818
 9029TIP3    H226973   3.306   3.126   4.835
 9030TIP3   OH226974   1.894   2.753   5.201
 9030TIP3    H126975   1.806   2.718   5.212
 9030TIP3    H226976   1.949   2.675   5.191
 9031TIP3   OH226977   1.713   2.667   4.854
 9031TIP3    H126978   1.743   2.718   4.778
 9031TIP3    H226979   1.677   2.731   4.914
 9032TIP3   OH226980   2.371   2.794   5.094
 9032TIP3    H126981   2.419   2.834   5.021
 9032TIP3    H226982   2.414   2.828   5.173
 9033TIP3   OH226983   2.862   2.957   5.091
 9033TIP3    H126984   2.865   2.933   4.998
 9033TIP3    H226985   2.872   2.874   5.137
 9034TIP3   OH226986   2.891   2.910   4.619
 9034TIP3    H126987   2.801   2.944   4.618
 9034TIP3    H226988   2.885   2.825   4.662
 9035TIP3   OH226989   1.381   4.224   4.611
 9035TIP3    H126990   1.291   4.204   4.586
 9035TIP3    H226991   1.394   4.315   4.582
 9036TIP3   OH226992   1.834   2.800   4.619
 9036TIP3    H126993   1.879   2.728   4.575
 9036TIP3    H226994   1.905   2.856   4.650
 9037TIP3   OH226995   2.197   4.383   4.216
 9037TIP3    H126996   2.278   4.414   4.177
 9037TIP3    H226997   2.169   4.311   4.160
 9038TIP3   OH226998   2.888   4.517   4.312
 9038TIP3    H126999   2.882   4.422   4.300
 9038TIP3    H227000   2.848   4.554   4.233
 9039TIP3   OH227001   2.125   3.036   6.084
 9039TIP3    H127002   2.089   2.970   6.143
 9039TIP3    H227003   2.217   3.043   6.110
 9040TIP3   OH227004   2.373   3.040   6.208
 9040TIP3    H127005   2.450   3.018   6.157
 9040TIP3    H227006   2.366   2.971   6.273
 9041TIP3   OH227007   1.492   4.220   4.262
 9041TIP3    H127008   1.477   4.253   4.351
 9041TIP3    H227009   1.573   4.169   4.269
 9042TIP3   OH227010   3.195   3.136   5.992
 9042TIP3    H127011   3.212   3.106   6.082
 9042TIP3    H227012   3.280   3.129   5.948
 9043TIP3   OH227013   4.396   4.065   4.230
 9043TIP3    H127014   4.368   4.153   4.206
 9043TIP3    H227015   4.323   4.008   4.204
 9044TIP3   OH227016   4.382   4.047   4.666
 9044TIP3    H127017   4.443   4.023   4.737
 9044TIP3    H227018   4.340   3.964   4.642
 9045TIP3   OH227019   3.679   3.912   5.009
 9045TIP3    H127020   3.714   3.852   5.075
 9045TIP3    H227021   3.754   3.964   4.981
 9046TIP3   OH227022   4.631   4.355   4.307
 9046TIP3    H127023   4.631   4.283   4.370
 9046TIP3    H227024   4.631   4.434   4.360
 9047TIP3   OH227025   3.706   4.347   4.717
 9047TIP3    H127026   3.688   4.253   4.717
 9047TIP3    H227027   3.797   4.354   4.688
 9048TIP3   OH227028   3.361   3.541   4.469
 9048TIP3    H127029   3.318   3.622   4.496
 9048TIP3    H227030   3.293   3.490   4.425
 9049TIP3   OH227031   3.432   3.842   4.705
 9049TIP3    H127032   3.482   3.765   4.731
 9049TIP3    H227033   3.497   3.900   4.666
 9050TIP3   OH227034   4.295   4.774   4.346
 9050TIP3    H127035   4.296   4.699   4.405
 9050TIP3    H227036   4.266   4.847   4.401
 9051TIP3   OH227037   4.195   4.272   4.665
 9051TIP3    H127038   4.237   4.189   4.641
 9051TIP3    H227039   4.263   4.321   4.711
 9052TIP3   OH227040   5.229   3.587   4.681
 9052TIP3    H127041   5.244   3.673   4.720
 9052TIP3    H227042   5.255   3.596   4.589
 9053TIP3   OH227043   4.599   3.756   4.700
 9053TIP3    H127044   4.633   3.671   4.729
 9053TIP3    H227045   4.563   3.739   4.613
 9054TIP3   OH227046   3.958   3.411   4.656
 9054TIP3    H127047   3.935   3.483   4.598
 9054TIP3    H227048   3.902   3.339   4.627
 9055TIP3   OH227049   4.654   3.515   4.295
 9055TIP3    H127050   4.717   3.510   4.368
 9055TIP3    H227051   4.706   3.548   4.221
 9056TIP3   OH227052   3.580   3.625   4.789
 9056TIP3    H127053   3.664   3.607   4.832
 9056TIP3    H227054   3.583   3.574   4.708
 9057TIP3   OH227055   4.002   3.827   4.601
 9057TIP3    H127056   4.096   3.810   4.605
 9057TIP3    H227057   3.964   3.745   4.568
 9058TIP3   OH227058   5.285   3.812   4.842
 9058TIP3    H127059   5.196   3.847   4.836
 9058TIP3    H227060   5.318   3.845   4.926
 9059TIP3   OH227061   3.937   3.419   5.111
 9059TIP3    H127062   3.887   3.454   5.038
 9059TIP3    H227063   3.882   3.435   5.188
 9060TIP3   OH227064   4.287   4.289   4.108
 9060TIP3    H127065   4.253   4.255   4.025
 9060TIP3    H227066   4.235   4.367   4.125
 9061TIP3   OH227067   4.807   3.544   4.520
 9061TIP3    H127068   4.767   3.519   4.603
 9061TIP3    H227069   4.865   3.616   4.541
 9062TIP3   OH227070   3.829   3.523   4.877
 9062TIP3    H127071   3.883   3.598   4.900
 9062TIP3    H227072   3.876   3.480   4.806
 9063TIP3   OH227073   3.256   4.099   4.236
 9063TIP3    H127074   3.222   4.116   4.148
 9063TIP3    H227075   3.278   4.186   4.270
 9064TIP3   OH227076   4.618   4.591   4.453
 9064TIP3    H127077   4.571   4.604   4.535
 9064TIP3    H227078   4.653   4.678   4.432
 9065TIP3   OH227079   5.033   3.473   4.853
 9065TIP3    H127080   4.947   3.493   4.814
 9065TIP3    H227081   5.095   3.501   4.786
 9066TIP3   OH227082   4.278   3.110   4.847
 9066TIP3    H127083   4.271   3.018   4.872
 9066TIP3    H227084   4.199   3.151   4.884
 9067TIP3   OH227085   4.429   4.613   4.162
 9067TIP3    H127086   4.390   4.531   4.193
 9067TIP3    H227087   4.395   4.680   4.220
 9068TIP3   OH227088   4.615   4.420   4.039
 9068TIP3    H127089   4.605   4.344   3.982
 9068TIP3    H227090   4.625   4.383   4.127
 9069TIP3   OH227091   4.219   3.899   4.089
 9069TIP3    H127092   4.135   3.940   4.069
 9069TIP3    H227093   4.263   3.892   4.005
 9070TIP3   OH227094   4.186   3.698   3.773
 9070TIP3    H127095   4.251   3.746   3.823
 9070TIP3    H227096   4.235   3.630   3.727
 9071TIP3   OH227097   5.095   4.158   4.686
 9071TIP3    H127098   5.014   4.208   4.694
 9071TIP3    H227099   5.124   4.173   4.596
 9072TIP3   OH227100   4.577   3.977   4.045
 9072TIP3    H127101   4.524   4.008   4.118
 9072TIP3    H227102   4.659   3.949   4.085
 9073TIP3   OH227103   4.810   4.010   4.995
 9073TIP3    H127104   4.818   4.096   5.037
 9073TIP3    H227105   4.727   4.015   4.948
 9074TIP3   OH227106   3.801   3.960   4.455
 9074TIP3    H127107   3.763   3.900   4.391
 9074TIP3    H227108   3.873   3.912   4.494
 9075TIP3   OH227109   3.955   4.403   4.603
 9075TIP3    H127110   3.931   4.383   4.513
 9075TIP3    H227111   4.036   4.355   4.618
 9076TIP3   OH227112   3.933   3.969   4.831
 9076TIP3    H127113   3.962   3.930   4.749
 9076TIP3    H227114   4.010   4.015   4.865
 9077TIP3   OH227115   4.468   4.612   4.693
 9077TIP3    H127116   4.443   4.665   4.769
 9077TIP3    H227117   4.450   4.522   4.720
 9078TIP3   OH227118   4.403   3.841   3.880
 9078TIP3    H127119   4.465   3.896   3.928
 9078TIP3    H227120   4.433   3.846   3.789
 9079TIP3   OH227121   3.829   4.022   5.282
 9079TIP3    H127122   3.844   4.112   5.310
 9079TIP3    H227123   3.735   4.009   5.293
 9080TIP3   OH227124   4.147   4.528   4.121
 9080TIP3    H127125   4.117   4.617   4.143
 9080TIP3    H227126   4.090   4.501   4.049
 9081TIP3   OH227127   4.916   3.069   3.940
 9081TIP3    H127128   4.840   3.090   3.993
 9081TIP3    H227129   4.926   3.144   3.881
 9082TIP3   OH227130   3.676   3.802   4.254
 9082TIP3    H127131   3.598   3.847   4.223
 9082TIP3    H227132   3.647   3.712   4.269
 9083TIP3   OH227133   4.743   4.453   3.459
 9083TIP3    H127134   4.739   4.549   3.453
 9083TIP3    H227135   4.837   4.433   3.449
 9084TIP3   OH227136   3.440   4.200   5.243
 9084TIP3    H127137   3.376   4.188   5.173
 9084TIP3    H227138   3.483   4.115   5.251
 9085TIP3   OH227139   3.281   4.416   4.836
 9085TIP3    H127140   3.352   4.399   4.899
 9085TIP3    H227141   3.237   4.493   4.870
 9086TIP3   OH227142   4.045   4.755   3.947
 9086TIP3    H127143   3.999   4.730   3.867
 9086TIP3    H227144   4.007   4.839   3.973
 9087TIP3   OH227145   3.479   4.590   4.347
 9087TIP3    H127146   3.520   4.581   4.433
 9087TIP3    H227147   3.429   4.510   4.335
 9088TIP3   OH227148   4.239   4.653   3.603
 9088TIP3    H127149   4.287   4.589   3.551
 9088TIP3    H227150   4.299   4.678   3.673
 9089TIP3   OH227151   4.301   4.671   3.900
 9089TIP3    H127152   4.209   4.701   3.903
 9089TIP3    H227153   4.311   4.617   3.978
 9090TIP3   OH227154   5.059   3.965   5.132
 9090TIP3    H127155   4.974   3.981   5.091
 9090TIP3    H227156   5.071   3.870   5.126
 9091TIP3   OH227157   4.040   3.200   4.971
 9091TIP3    H127158   3.956   3.165   4.939
 9091TIP3    H227159   4.016   3.281   5.016
 9092TIP3   OH227160   4.592   3.325   5.174
 9092TIP3    H127161   4.663   3.301   5.232
 9092TIP3    H227162   4.512   3.309   5.224
 9093TIP3   OH227163   4.806   3.745   5.088
 9093TIP3    H127164   4.768   3.740   5.175
 9093TIP3    H227165   4.792   3.836   5.061
 9094TIP3   OH227166   4.485   3.831   3.620
 9094TIP3    H127167   4.436   3.831   3.538
 9094TIP3    H227168   4.568   3.873   3.599
 9095TIP3   OH227169   4.192   3.242   3.937
 9095TIP3    H127170   4.154   3.249   4.025
 9095TIP3    H227171   4.156   3.160   3.902
 9096TIP3   OH227172   3.978   3.735   4.973
 9096TIP3    H127173   3.930   3.740   5.056
 9096TIP3    H227174   3.955   3.817   4.928
 9097TIP3   OH227175   3.859   3.611   4.496
 9097TIP3    H127176   3.770   3.586   4.522
 9097TIP3    H227177   3.869   3.579   4.407
 9098TIP3   OH227178   4.339   3.690   4.226
 9098TIP3    H127179   4.294   3.765   4.186
 9098TIP3    H227180   4.396   3.657   4.156
 9099TIP3   OH227181   4.530   3.939   5.289
 9099TIP3    H127182   4.509   3.871   5.353
 9099TIP3    H227183   4.620   3.963   5.309
 9100TIP3   OH227184   4.507   3.700   4.447
 9100TIP3    H127185   4.440   3.719   4.383
 9100TIP3    H227186   4.556   3.626   4.410
 9101TIP3   OH227187   3.814   3.745   5.193
 9101TIP3    H127188   3.818   3.814   5.259
 9101TIP3    H227189   3.797   3.665   5.243
 9102TIP3   OH227190   3.861   3.223   3.914
 9102TIP3    H127191   3.850   3.226   4.009
 9102TIP3    H227192   3.782   3.265   3.880
 9103TIP3   OH227193   3.408   3.261   4.780
 9103TIP3    H127194   3.481   3.298   4.829
 9103TIP3    H227195   3.444   3.241   4.694
 9104TIP3   OH227196   3.317   3.238   4.278
 9104TIP3    H127197   3.365   3.273   4.203
 9104TIP3    H227198   3.252   3.306   4.299
 9105TIP3   OH227199   4.551   3.959   4.873
 9105TIP3    H127200   4.579   3.892   4.811
 9105TIP3    H227201   4.508   3.911   4.943
 9106TIP3   OH227202   4.227   3.402   4.548
 9106TIP3    H127203   4.148   3.400   4.603
 9106TIP3    H227204   4.299   3.392   4.610
 9107TIP3   OH227205   3.619   3.487   4.555
 9107TIP3    H127206   3.532   3.493   4.517
 9107TIP3    H227207   3.646   3.397   4.540
 9108TIP3   OH227208   3.873   3.491   4.249
 9108TIP3    H127209   3.968   3.500   4.239
 9108TIP3    H227210   3.838   3.508   4.162
 9109TIP3   OH227211   4.668   3.494   4.761
 9109TIP3    H127212   4.649   3.511   4.853
 9109TIP3    H227213   4.601   3.432   4.733
 9110TIP3   OH227214   3.762   3.516   4.000
 9110TIP3    H127215   3.699   3.464   3.949
 9110TIP3    H227216   3.816   3.560   3.935
 9111TIP3   OH227217   4.939   5.194   5.019
 9111TIP3    H127218   4.943   5.104   4.985
 9111TIP3    H227219   4.930   5.183   5.114
 9112TIP3   OH227220   3.863   4.278   5.380
 9112TIP3    H127221   3.936   4.307   5.435
 9112TIP3    H227222   3.787   4.321   5.417
 9113TIP3   OH227223   4.274   3.775   4.651
 9113TIP3    H127224   4.340   3.726   4.602
 9113TIP3    H227225   4.270   3.732   4.736
 9114TIP3   OH227226   3.762   3.238   4.544
 9114TIP3    H127227   3.734   3.162   4.596
 9114TIP3    H227228   3.783   3.201   4.458
 9115TIP3   OH227229   4.242   3.675   4.912
 9115TIP3    H127230   4.155   3.703   4.940
 9115TIP3    H227231   4.302   3.724   4.969
 9116TIP3   OH227232   3.976   4.030   4.033
 9116TIP3    H127233   3.903   3.973   4.007
 9116TIP3    H227234   3.949   4.069   4.116
 9117TIP3   OH227235   4.844   4.294   4.662
 9117TIP3    H127236   4.891   4.349   4.599
 9117TIP3    H227237   4.776   4.250   4.609
 9118TIP3   OH227238   4.445   3.344   3.945
 9118TIP3    H127239   4.352   3.322   3.939
 9118TIP3    H227240   4.446   3.439   3.955
 9119TIP3   OH227241   4.472   4.401   5.075
 9119TIP3    H127242   4.509   4.347   5.145
 9119TIP3    H227243   4.460   4.488   5.114
 9120TIP3   OH227244   4.502   3.611   4.011
 9120TIP3    H127245   4.597   3.613   4.019
 9120TIP3    H227246   4.481   3.687   3.956
 9121TIP3   OH227247   3.703   4.067   4.692
 9121TIP3    H127248   3.728   4.037   4.605
 9121TIP3    H227249   3.768   4.029   4.751
 9122TIP3   OH227250   4.132   4.199   3.885
 9122TIP3    H127251   4.085   4.282   3.885
 9122TIP3    H227252   4.076   4.139   3.934
 9123TIP3   OH227253   3.555   3.958   5.329
 9123TIP3    H127254   3.548   3.943   5.424
 9123TIP3    H227255   3.477   3.918   5.292
 9124TIP3   OH227256   4.298   4.081   5.342
 9124TIP3    H127257   4.229   4.024   5.307
 9124TIP3    H227258   4.380   4.040   5.313
 9125TIP3   OH227259   4.916   3.700   3.825
 9125TIP3    H127260   4.858   3.655   3.762
 9125TIP3    H227261   4.923   3.789   3.791
 9126TIP3   OH227262   4.640   4.150   4.520
 9126TIP3    H127263   4.550   4.128   4.544
 9126TIP3    H227264   4.677   4.068   4.487
 9127TIP3   OH227265   3.801   4.389   4.360
 9127TIP3    H127266   3.794   4.464   4.301
 9127TIP3    H227267   3.710   4.369   4.384
 9128TIP3   OH227268   3.355   3.669   4.062
 9128TIP3    H127269   3.398   3.751   4.085
 9128TIP3    H227270   3.274   3.669   4.113
 9129TIP3   OH227271   3.878   4.143   4.258
 9129TIP3    H127272   3.865   4.232   4.292
 9129TIP3    H227273   3.854   4.085   4.330
 9130TIP3   OH227274   3.716   4.606   4.205
 9130TIP3    H127275   3.629   4.616   4.242
 9130TIP3    H227276   3.752   4.695   4.205
 9131TIP3   OH227277   4.424   4.357   4.807
 9131TIP3    H127278   4.435   4.371   4.901
 9131TIP3    H227279   4.477   4.279   4.788
 9132TIP3   OH227280   4.434   4.259   3.653
 9132TIP3    H127281   4.476   4.239   3.737
 9132TIP3    H227282   4.351   4.211   3.655
 9133TIP3   OH227283   4.751   4.732   3.449
 9133TIP3    H127284   4.794   4.802   3.400
 9133TIP3    H227285   4.662   4.765   3.464
 9134TIP3   OH227286   3.765   3.495   5.319
 9134TIP3    H127287   3.670   3.503   5.323
 9134TIP3    H227288   3.787   3.439   5.394
 9135TIP3   OH227289   4.597   4.194   3.875
 9135TIP3    H127290   4.583   4.118   3.931
 9135TIP3    H227291   4.689   4.188   3.849
 9136TIP3   OH227292   3.776   4.209   3.663
 9136TIP3    H127293   3.785   4.118   3.635
 9136TIP3    H227294   3.758   4.204   3.757
 9137TIP3   OH227295   3.717   4.230   3.934
 9137TIP3    H127296   3.777   4.204   4.004
 9137TIP3    H227297   3.715   4.326   3.939
 9138TIP3   OH227298   3.450   3.920   4.144
 9138TIP3    H127299   3.386   3.969   4.195
 9138TIP3    H227300   3.469   3.977   4.069
 9139TIP3   OH227301   4.610   3.558   5.023
 9139TIP3    H127302   4.688   3.604   5.053
 9139TIP3    H227303   4.604   3.480   5.079
 9140TIP3   OH227304   4.506   3.295   4.211
 9140TIP3    H127305   4.484   3.313   4.120
 9140TIP3    H227306   4.550   3.375   4.241
 9141TIP3   OH227307   3.999   4.440   3.902
 9141TIP3    H127308   3.907   4.453   3.923
 9141TIP3    H227309   4.016   4.499   3.828
 9142TIP3   OH227310   4.154   3.497   4.297
 9142TIP3    H127311   4.215   3.566   4.271
 9142TIP3    H227312   4.178   3.476   4.387
 9143TIP3   OH227313   4.445   3.789   5.065
 9143TIP3    H127314   4.473   3.832   5.146
 9143TIP3    H227315   4.496   3.708   5.062
 9144TIP3   OH227316   4.318   3.190   4.384
 9144TIP3    H127317   4.294   3.268   4.435
 9144TIP3    H227318   4.388   3.220   4.326
 9145TIP3   OH227319   3.737   4.502   3.950
 9145TIP3    H127320   3.717   4.573   3.889
 9145TIP3    H227321   3.725   4.542   4.037
 9146TIP3   OH227322   3.829   3.216   4.193
 9146TIP3    H127323   3.817   3.307   4.220
 9146TIP3    H227324   3.924   3.201   4.199
 9147TIP3   OH227325   5.070   3.684   5.060
 9147TIP3    H127326   4.976   3.696   5.077
 9147TIP3    H227327   5.074   3.621   4.989
 9148TIP3   OH227328   4.732   3.889   4.445
 9148TIP3    H127329   4.657   3.831   4.456
 9148TIP3    H227330   4.801   3.852   4.500
 9149TIP3   OH227331   3.473   4.096   3.926
 9149TIP3    H127332   3.544   4.160   3.934
 9149TIP3    H227333   3.504   4.033   3.861
 9150TIP3   OH227334   3.386   3.391   4.060
 9150TIP3    H127335   3.395   3.486   4.068
 9150TIP3    H227336   3.325   3.378   3.988
 9151TIP3   OH227337   4.716   4.847   4.376
 9151TIP3    H127338   4.672   4.891   4.303
 9151TIP3    H227339   4.809   4.867   4.364
 9152TIP3   OH227340   3.779   3.111   4.928
 9152TIP3    H127341   3.749   3.079   4.843
 9152TIP3    H227342   3.769   3.037   4.987
 9153TIP3   OH227343   3.303   4.369   4.317
 9153TIP3    H127344   3.262   4.402   4.397
 9153TIP3    H227345   3.256   4.412   4.246
 9154TIP3   OH227346   3.925   4.411   3.553
 9154TIP3    H127347   3.878   4.338   3.593
 9154TIP3    H227348   4.001   4.371   3.510
 9155TIP3   OH227349   4.369   4.454   3.466
 9155TIP3    H127350   4.412   4.395   3.528
 9155TIP3    H227351   4.429   4.457   3.391
 9156TIP3   OH227352   3.614   4.292   5.529
 9156TIP3    H127353   3.649   4.205   5.546
 9156TIP3    H227354   3.571   4.284   5.443
 9157TIP3   OH227355   3.595   3.907   3.772
 9157TIP3    H127356   3.647   3.882   3.849
 9157TIP3    H227357   3.660   3.919   3.703
 9158TIP3   OH227358   4.206   4.340   5.317
 9158TIP3    H127359   4.163   4.333   5.232
 9158TIP3    H227360   4.252   4.257   5.328
 9159TIP3   OH227361   4.186   4.130   3.622
 9159TIP3    H127362   4.158   4.141   3.713
 9159TIP3    H227363   4.164   4.040   3.600
 9160TIP3   OH227364   4.749   4.356   4.919
 9160TIP3    H127365   4.779   4.343   4.829
 9160TIP3    H227366   4.674   4.415   4.911
 9161TIP3   OH227367   3.745   4.053   5.585
 9161TIP3    H127368   3.830   4.040   5.542
 9161TIP3    H227369   3.767   4.076   5.675
 9162TIP3   OH227370   3.770   3.850   3.985
 9162TIP3    H127371   3.749   3.818   4.072
 9162TIP3    H227372   3.818   3.779   3.943
 9163TIP3   OH227373   4.091   3.939   5.214
 9163TIP3    H127374   4.002   3.967   5.237
 9163TIP3    H227375   4.106   3.977   5.127
 9164TIP3   OH227376   3.913   3.669   3.828
 9164TIP3    H127377   3.883   3.671   3.737
 9164TIP3    H227378   4.008   3.675   3.822
 9165TIP3   OH227379   4.590   4.310   5.318
 9165TIP3    H127380   4.685   4.323   5.313
 9165TIP3    H227381   4.578   4.251   5.393
 9166TIP3   OH227382   4.706   3.953   3.507
 9166TIP3    H127383   4.692   3.915   3.421
 9166TIP3    H227384   4.685   4.046   3.496
 9167TIP3   OH227385   4.186   3.711   5.342
 9167TIP3    H127386   4.190   3.637   5.282
 9167TIP3    H227387   4.154   3.784   5.288
 9168TIP3   OH227388   4.197   3.503   5.148
 9168TIP3    H127389   4.224   3.535   5.062
 9168TIP3    H227390   4.106   3.475   5.136
 9169TIP3   OH227391   4.153   4.076   4.977
 9169TIP3    H127392   4.244   4.076   4.950
 9169TIP3    H227393   4.135   4.167   5.002
 9170TIP3   OH227394   4.798   3.983   5.385
 9170TIP3    H127395   4.834   3.896   5.405
 9170TIP3    H227396   4.870   4.030   5.345
 9171TIP3   OH227397   4.880   4.249   5.130
 9171TIP3    H127398   4.831   4.297   5.063
 9171TIP3    H227399   4.971   4.275   5.117
 9172TIP3   OH227400   4.071   3.784   5.589
 9172TIP3    H127401   4.001   3.722   5.608
 9172TIP3    H227402   4.100   3.762   5.501
 9173TIP3   OH227403   4.323   3.272   5.252
 9173TIP3    H127404   4.283   3.353   5.220
 9173TIP3    H227405   4.257   3.205   5.239
 9174TIP3   OH227406   4.444   3.735   5.451
 9174TIP3    H127407   4.434   3.723   5.545
 9174TIP3    H227408   4.357   3.719   5.415
 9175TIP3   OH227409   4.697   3.692   5.329
 9175TIP3    H127410   4.617   3.688   5.382
 9175TIP3    H227411   4.767   3.668   5.388
 9176TIP3   OH227412   4.932   3.664   5.478
 9176TIP3    H127413   4.949   3.570   5.486
 9176TIP3    H227414   4.924   3.694   5.569
 9177TIP3   OH227415   3.894   3.571   5.656
 9177TIP3    H127416   3.902   3.483   5.619
 9177TIP3    H227417   3.933   3.565   5.742
 9178TIP3   OH227418   4.392   3.245   5.517
 9178TIP3    H127419   4.463   3.181   5.513
 9178TIP3    H227420   4.363   3.255   5.427
 9179TIP3   OH227421   4.480   3.461   5.663
 9179TIP3    H127422   4.452   3.388   5.609
 9179TIP3    H227423   4.406   3.522   5.662
 9180TIP3   OH227424   3.732   4.710   3.768
 9180TIP3    H127425   3.821   4.689   3.739
 9180TIP3    H227426   3.693   4.758   3.694
 9181TIP3   OH227427   3.200   4.096   3.948
 9181TIP3    H127428   3.295   4.107   3.941
 9181TIP3    H227429   3.183   4.012   3.905
 9182TIP3   OH227430   3.100   4.672   4.398
 9182TIP3    H127431   3.033   4.620   4.354
 9182TIP3    H227432   3.145   4.610   4.455
 9183TIP3   OH227433   3.245   4.503   4.564
 9183TIP3    H127434   3.240   4.445   4.640
 9183TIP3    H227435   3.299   4.577   4.594
 9184TIP3   OH227436   4.980   4.934   4.353
 9184TIP3    H127437   4.973   5.020   4.394
 9184TIP3    H227438   5.048   4.945   4.286
 9185TIP3   OH227439   4.873   4.166   3.843
 9185TIP3    H127440   4.932   4.235   3.811
 9185TIP3    H227441   4.920   4.126   3.915
 9186TIP3   OH227442   5.003   4.022   4.040
 9186TIP3    H127443   4.937   3.981   4.096
 9186TIP3    H227444   5.069   4.054   4.101
 9187TIP3   OH227445   5.032   4.419   4.494
 9187TIP3    H127446   5.089   4.351   4.457
 9187TIP3    H227447   5.029   4.486   4.426
 9188TIP3   OH227448   4.913   3.940   3.689
 9188TIP3    H127449   4.843   3.937   3.623
 9188TIP3    H227450   4.895   4.019   3.740
 9189TIP3   OH227451   4.760   3.592   3.628
 9189TIP3    H127452   4.717   3.626   3.550
 9189TIP3    H227453   4.752   3.497   3.620
 9190TIP3   OH227454   4.803   3.879   4.176
 9190TIP3    H127455   4.809   3.785   4.161
 9190TIP3    H227456   4.785   3.888   4.270
 9191TIP3   OH227457   3.412   3.945   4.960
 9191TIP3    H127458   3.402   3.911   4.871
 9191TIP3    H227459   3.506   3.942   4.976
 9192TIP3   OH227460   5.137   4.334   5.111
 9192TIP3    H127461   5.203   4.269   5.086
 9192TIP3    H227462   5.189   4.409   5.141
 9193TIP3   OH227463   5.285   4.100   5.057
 9193TIP3    H127464   5.201   4.064   5.087
 9193TIP3    H227465   5.348   4.029   5.072
 9194TIP3   OH227466   4.724   3.322   3.603
 9194TIP3    H127467   4.792   3.291   3.663
 9194TIP3    H227468   4.644   3.279   3.633
 9195TIP3   OH227469   4.796   3.605   4.065
 9195TIP3    H127470   4.843   3.522   4.079
 9195TIP3    H227471   4.837   3.642   3.987
 9196TIP3   OH227472   4.949   3.773   4.588
 9196TIP3    H127473   5.029   3.790   4.539
 9196TIP3    H227474   4.964   3.813   4.673
 9197TIP3   OH227475   5.024   3.923   4.813
 9197TIP3    H127476   4.952   3.949   4.871
 9197TIP3    H227477   5.051   4.005   4.770
 9198TIP3   OH227478   3.625   3.629   5.598
 9198TIP3    H127479   3.719   3.628   5.614
 9198TIP3    H227480   3.594   3.545   5.634
 9199TIP3   OH227481   5.479   3.540   5.352
 9199TIP3    H127482   5.543   3.478   5.317
 9199TIP3    H227483   5.440   3.580   5.275
 9200TIP3   OH227484   4.914   3.357   4.121
 9200TIP3    H127485   4.958   3.341   4.205
 9200TIP3    H227486   4.852   3.284   4.113
 9201TIP3   OH227487   3.620   3.339   4.943
 9201TIP3    H127488   3.673   3.259   4.949
 9201TIP3    H227489   3.684   3.408   4.924
 9202TIP3   OH227490   3.397   3.604   5.004
 9202TIP3    H127491   3.449   3.589   4.925
 9202TIP3    H227492   3.425   3.690   5.035
 9203TIP3   OH227493   5.329   3.631   5.140
 9203TIP3    H127494   5.240   3.667   5.135
 9203TIP3    H227495   5.321   3.544   5.100
 9204TIP3   OH227496   4.954   3.267   3.753
 9204TIP3    H127497   5.002   3.207   3.696
 9204TIP3    H227498   5.009   3.345   3.757
 9205TIP3   OH227499   3.382   3.112   4.512
 9205TIP3    H127500   3.296   3.099   4.551
 9205TIP3    H227501   3.365   3.164   4.433
 9206TIP3   OH227502   4.601   4.786   3.980
 9206TIP3    H127503   4.553   4.832   3.912
 9206TIP3    H227504   4.617   4.852   4.048
 9207TIP3   OH227505   3.615   3.169   5.331
 9207TIP3    H127506   3.562   3.159   5.411
 9207TIP3    H227507   3.559   3.218   5.271
 9208TIP3   OH227508   5.252   3.379   5.057
 9208TIP3    H127509   5.164   3.367   5.021
 9208TIP3    H227510   5.292   3.292   5.050
 9209TIP3   OH227511   3.747   4.955   4.823
 9209TIP3    H127512   3.676   5.006   4.862
 9209TIP3    H227513   3.731   4.959   4.729
 9210TIP3   OH227514   4.184   4.955   4.525
 9210TIP3    H127515   4.089   4.942   4.531
 9210TIP3    H227516   4.206   5.003   4.605
 9211TIP3   OH227517   4.691   5.047   4.570
 9211TIP3    H127518   4.663   5.127   4.527
 9211TIP3    H227519   4.686   4.980   4.502
 9212TIP3   OH227520   3.403   4.704   4.685
 9212TIP3    H127521   3.399   4.684   4.778
 9212TIP3    H227522   3.484   4.662   4.655
 9213TIP3   OH227523   3.621   4.573   4.589
 9213TIP3    H127524   3.639   4.491   4.635
 9213TIP3    H227525   3.706   4.617   4.585
 9214TIP3   OH227526   3.883   4.674   4.612
 9214TIP3    H127527   3.917   4.585   4.603
 9214TIP3    H227528   3.925   4.708   4.691
 9215TIP3   OH227529   4.454   3.311   4.689
 9215TIP3    H127530   4.417   3.237   4.738
 9215TIP3    H227531   4.522   3.272   4.634
 9216TIP3   OH227532   4.958   3.213   4.584
 9216TIP3    H127533   4.997   3.263   4.513
 9216TIP3    H227534   4.866   3.238   4.583
 9217TIP3   OH227535   5.068   3.301   4.348
 9217TIP3    H127536   5.137   3.240   4.320
 9217TIP3    H227537   5.106   3.388   4.333
 9218TIP3   OH227538   3.690   3.009   4.687
 9218TIP3    H127539   3.601   2.975   4.695
 9218TIP3    H227540   3.745   2.932   4.678
 9219TIP3   OH227541   3.499   2.915   4.336
 9219TIP3    H127542   3.529   2.965   4.260
 9219TIP3    H227543   3.467   2.982   4.397
 9220TIP3   OH227544   4.174   3.049   4.584
 9220TIP3    H127545   4.223   3.095   4.515
 9220TIP3    H227546   4.216   3.078   4.666
 9221TIP3   OH227547   4.670   3.208   4.546
 9221TIP3    H127548   4.680   3.178   4.456
 9221TIP3    H227549   4.667   3.127   4.598
 9222TIP3   OH227550   4.727   3.147   4.125
 9222TIP3    H127551   4.647   3.194   4.149
 9222TIP3    H227552   4.716   3.059   4.161
 9223TIP3   OH227553   3.177   4.493   4.107
 9223TIP3    H127554   3.095   4.462   4.068
 9223TIP3    H227555   3.187   4.582   4.074
 9224TIP3   OH227556   3.619   3.047   4.104
 9224TIP3    H127557   3.664   2.985   4.047
 9224TIP3    H227558   3.688   3.103   4.139
 9225TIP3   OH227559   4.104   3.245   4.200
 9225TIP3    H127560   4.163   3.191   4.253
 9225TIP3    H227561   4.121   3.335   4.229
 9226TIP3   OH227562   3.986   4.633   3.697
 9226TIP3    H127563   4.071   4.657   3.661
 9226TIP3    H227564   3.954   4.564   3.639
 9227TIP3   OH227565   3.919   3.301   5.568
 9227TIP3    H127566   3.886   3.235   5.629
 9227TIP3    H227567   4.012   3.309   5.590
 9228TIP3   OH227568   4.169   3.300   5.688
 9228TIP3    H127569   4.247   3.277   5.638
 9228TIP3    H227570   4.163   3.233   5.756
 9229TIP3   OH227571   3.304   4.489   3.752
 9229TIP3    H127572   3.307   4.504   3.847
 9229TIP3    H227573   3.383   4.439   3.733
 9230TIP3   OH227574   4.995   3.392   5.493
 9230TIP3    H127575   5.016   3.353   5.578
 9230TIP3    H227576   5.079   3.390   5.445
 9231TIP3   OH227577   6.183   4.308   3.722
 9231TIP3    H127578   6.145   4.394   3.705
 9231TIP3    H227579   6.115   4.246   3.694
 9232TIP3   OH227580   6.171   4.298   4.151
 9232TIP3    H127581   6.225   4.281   4.229
 9232TIP3    H227582   6.130   4.214   4.132
 9233TIP3   OH227583   5.466   4.154   4.467
 9233TIP3    H127584   5.502   4.119   4.548
 9233TIP3    H227585   5.542   4.176   4.414
 9234TIP3   OH227586   6.438   4.595   3.812
 9234TIP3    H127587   6.423   4.533   3.883
 9234TIP3    H227588   6.451   4.679   3.855
 9235TIP3   OH227589   5.502   4.600   4.211
 9235TIP3    H127590   5.480   4.508   4.195
 9235TIP3    H227591   5.591   4.609   4.178
 9236TIP3   OH227592   5.155   3.795   3.959
 9236TIP3    H127593   5.116   3.879   3.983
 9236TIP3    H227594   5.084   3.746   3.919
 9237TIP3   OH227595   5.231   4.098   4.184
 9237TIP3    H127596   5.281   4.022   4.213
 9237TIP3    H227597   5.296   4.158   4.149
 9238TIP3   OH227598   6.058   5.059   3.823
 9238TIP3    H127599   6.104   4.976   3.828
 9238TIP3    H227600   6.034   5.079   3.914
 9239TIP3   OH227601   6.001   4.532   4.170
 9239TIP3    H127602   6.037   4.448   4.143
 9239TIP3    H227603   6.078   4.583   4.196
 9240TIP3   OH227604   7.027   3.839   4.167
 9240TIP3    H127605   7.042   3.924   4.210
 9240TIP3    H227606   7.057   3.852   4.077
 9241TIP3   OH227607   6.389   4.013   4.189
 9241TIP3    H127608   6.425   3.928   4.214
 9241TIP3    H227609   6.358   4.000   4.099
 9242TIP3   OH227610   5.752   3.667   4.145
 9242TIP3    H127611   5.731   3.739   4.085
 9242TIP3    H227612   5.698   3.594   4.114
 9243TIP3   OH227613   6.450   3.773   3.782
 9243TIP3    H127614   6.513   3.768   3.853
 9243TIP3    H227615   6.500   3.806   3.707
 9244TIP3   OH227616   5.375   3.880   4.274
 9244TIP3    H127617   5.459   3.862   4.318
 9244TIP3    H227618   5.379   3.829   4.193
 9245TIP3   OH227619   5.795   4.079   4.087
 9245TIP3    H127620   5.889   4.064   4.094
 9245TIP3    H227621   5.760   3.997   4.052
 9246TIP3   OH227622   7.077   4.057   4.334
 9246TIP3    H127623   6.994   4.104   4.326
 9246TIP3    H227624   7.118   4.096   4.411
 9247TIP3   OH227625   5.733   3.672   4.597
 9247TIP3    H127626   5.684   3.702   4.521
 9247TIP3    H227627   5.678   3.691   4.672
 9248TIP3   OH227628   6.033   4.513   3.610
 9248TIP3    H127629   6.027   4.501   3.515
 9248TIP3    H227630   6.000   4.602   3.625
 9249TIP3   OH227631   5.833   4.425   4.368
 9249TIP3    H127632   5.771   4.485   4.409
 9249TIP3    H227633   5.885   4.481   4.309
 9250TIP3   OH227634   6.604   3.800   4.005
 9250TIP3    H127635   6.563   3.778   4.089
 9250TIP3    H227636   6.662   3.874   4.026
 9251TIP3   OH227637   5.623   3.775   4.366
 9251TIP3    H127638   5.678   3.849   4.391
 9251TIP3    H227639   5.670   3.734   4.293
 9252TIP3   OH227640   5.618   4.564   4.469
 9252TIP3    H127641   5.557   4.581   4.397
 9252TIP3    H227642   5.561   4.559   4.546
 9253TIP3   OH227643   5.047   4.354   3.723
 9253TIP3    H127644   5.013   4.372   3.635
 9253TIP3    H227645   5.071   4.440   3.757
 9254TIP3   OH227646   6.461   4.834   3.949
 9254TIP3    H127647   6.394   4.851   4.016
 9254TIP3    H227648   6.492   4.921   3.924
 9255TIP3   OH227649   6.829   3.720   4.332
 9255TIP3    H127650   6.745   3.746   4.294
 9255TIP3    H227651   6.894   3.751   4.268
 9256TIP3   OH227652   6.077   3.363   4.330
 9256TIP3    H127653   6.071   3.270   4.355
 9256TIP3    H227654   5.999   3.403   4.369
 9257TIP3   OH227655   6.190   4.868   3.603
 9257TIP3    H127656   6.251   4.795   3.592
 9257TIP3    H227657   6.244   4.947   3.589
 9258TIP3   OH227658   6.354   4.657   3.556
 9258TIP3    H127659   6.370   4.582   3.499
 9258TIP3    H227660   6.387   4.630   3.642
 9259TIP3   OH227661   6.011   4.144   3.573
 9259TIP3    H127662   5.932   4.193   3.551
 9259TIP3    H227663   6.061   4.141   3.491
 9260TIP3   OH227664   5.982   3.961   3.255
 9260TIP3    H127665   6.048   4.008   3.306
 9260TIP3    H227666   6.032   3.893   3.209
 9261TIP3   OH227667   6.880   4.407   4.181
 9261TIP3    H127668   6.805   4.466   4.184
 9261TIP3    H227669   6.921   4.425   4.097
 9262TIP3   OH227670   6.371   4.241   3.534
 9262TIP3    H127671   6.316   4.268   3.608
 9262TIP3    H227672   6.454   4.215   3.574
 9263TIP3   OH227673   6.597   4.260   4.486
 9263TIP3    H127674   6.601   4.347   4.527
 9263TIP3    H227675   6.515   4.261   4.437
 9264TIP3   OH227676   5.602   4.216   3.933
 9264TIP3    H127677   5.564   4.154   3.872
 9264TIP3    H227678   5.673   4.169   3.975
 9265TIP3   OH227679   5.749   4.652   4.090
 9265TIP3    H127680   5.728   4.635   3.998
 9265TIP3    H227681   5.835   4.613   4.104
 9266TIP3   OH227682   5.693   4.199   4.313
 9266TIP3    H127683   5.731   4.162   4.232
 9266TIP3    H227684   5.745   4.277   4.330
 9267TIP3   OH227685   6.283   4.873   4.155
 9267TIP3    H127686   6.291   4.924   4.235
 9267TIP3    H227687   6.264   4.784   4.184
 9268TIP3   OH227688   6.201   4.100   3.369
 9268TIP3    H127689   6.262   4.156   3.417
 9268TIP3    H227690   6.230   4.105   3.278
 9269TIP3   OH227691   5.935   4.784   3.607
 9269TIP3    H127692   6.027   4.809   3.618
 9269TIP3    H227693   5.890   4.867   3.590
 9270TIP3   OH227694   6.712   3.325   3.426
 9270TIP3    H127695   6.636   3.346   3.480
 9270TIP3    H227696   6.722   3.400   3.368
 9271TIP3   OH227697   5.475   4.055   3.739
 9271TIP3    H127698   5.395   4.099   3.711
 9271TIP3    H227699   5.449   3.963   3.750
 9272TIP3   OH227700   6.538   4.700   2.982
 9272TIP3    H127701   6.533   4.793   2.959
 9272TIP3    H227702   6.627   4.674   2.959
 9273TIP3   OH227703   5.316   4.446   4.618
 9273TIP3    H127704   5.220   4.446   4.612
 9273TIP3    H227705   5.336   4.379   4.683
 9274TIP3   OH227706   5.081   4.658   4.325
 9274TIP3    H127707   5.169   4.655   4.363
 9274TIP3    H227708   5.042   4.736   4.364
 9275TIP3   OH227709   5.828   5.003   3.467
 9275TIP3    H127710   5.754   4.985   3.409
 9275TIP3    H227711   5.816   5.093   3.496
 9276TIP3   OH227712   5.280   4.846   3.842
 9276TIP3    H127713   5.320   4.839   3.929
 9276TIP3    H227714   5.230   4.764   3.832
 9277TIP3   OH227715   5.989   4.896   3.087
 9277TIP3    H127716   6.049   4.829   3.054
 9277TIP3    H227717   6.024   4.921   3.172
 9278TIP3   OH227718   6.075   4.968   3.345
 9278TIP3    H127719   5.993   4.975   3.392
 9278TIP3    H227720   6.138   4.935   3.409
 9279TIP3   OH227721   6.834   4.222   4.660
 9279TIP3    H127722   6.757   4.228   4.604
 9279TIP3    H227723   6.859   4.130   4.659
 9280TIP3   OH227724   5.838   3.453   4.455
 9280TIP3    H127725   5.754   3.419   4.424
 9280TIP3    H227726   5.815   3.533   4.502
 9281TIP3   OH227727   6.379   3.582   4.657
 9281TIP3    H127728   6.450   3.554   4.716
 9281TIP3    H227729   6.299   3.561   4.706
 9282TIP3   OH227730   6.599   3.993   4.568
 9282TIP3    H127731   6.563   3.994   4.656
 9282TIP3    H227732   6.590   4.083   4.537
 9283TIP3   OH227733   6.278   4.092   3.108
 9283TIP3    H127734   6.234   4.088   3.023
 9283TIP3    H227735   6.362   4.134   3.089
 9284TIP3   OH227736   5.986   3.500   3.423
 9284TIP3    H127737   5.950   3.507   3.511
 9284TIP3    H227738   5.953   3.418   3.389
 9285TIP3   OH227739   5.764   3.987   4.475
 9285TIP3    H127740   5.712   3.999   4.555
 9285TIP3    H227741   5.742   4.063   4.421
 9286TIP3   OH227742   5.654   3.865   3.982
 9286TIP3    H127743   5.565   3.840   4.007
 9286TIP3    H227744   5.664   3.833   3.893
 9287TIP3   OH227745   6.135   3.942   3.712
 9287TIP3    H127746   6.088   4.014   3.670
 9287TIP3    H227747   6.194   3.910   3.644
 9288TIP3   OH227748   6.317   4.224   4.800
 9288TIP3    H127749   6.303   4.143   4.848
 9288TIP3    H227750   6.410   4.242   4.811
 9289TIP3   OH227751   6.307   3.962   3.932
 9289TIP3    H127752   6.238   3.981   3.869
 9289TIP3    H227753   6.355   3.888   3.895
 9290TIP3   OH227754   5.590   4.035   4.694
 9290TIP3    H127755   5.517   4.081   4.737
 9290TIP3    H227756   5.588   3.947   4.732
 9291TIP3   OH227757   5.656   3.479   3.401
 9291TIP3    H127758   5.646   3.483   3.496
 9291TIP3    H227759   5.577   3.521   3.367
 9292TIP3   OH227760   5.200   3.521   4.266
 9292TIP3    H127761   5.274   3.557   4.315
 9292TIP3    H227762   5.237   3.501   4.180
 9293TIP3   OH227763   5.104   3.501   3.768
 9293TIP3    H127764   5.150   3.537   3.692
 9293TIP3    H227765   5.040   3.569   3.790
 9294TIP3   OH227766   6.336   4.210   4.367
 9294TIP3    H127767   6.363   4.147   4.300
 9294TIP3    H227768   6.300   4.157   4.437
 9295TIP3   OH227769   6.022   3.657   4.035
 9295TIP3    H127770   5.945   3.655   4.091
 9295TIP3    H227771   6.096   3.645   4.095
 9296TIP3   OH227772   5.415   3.741   4.041
 9296TIP3    H127773   5.327   3.746   4.004
 9296TIP3    H227774   5.443   3.651   4.026
 9297TIP3   OH227775   5.669   3.748   3.735
 9297TIP3    H127776   5.763   3.757   3.726
 9297TIP3    H227777   5.635   3.765   3.647
 9298TIP3   OH227778   6.461   3.750   4.242
 9298TIP3    H127779   6.441   3.765   4.334
 9298TIP3    H227780   6.397   3.685   4.213
 9299TIP3   OH227781   5.558   3.773   3.486
 9299TIP3    H127782   5.496   3.722   3.434
 9299TIP3    H227783   5.613   3.818   3.421
 9300TIP3   OH227784   6.066   4.028   4.142
 9300TIP3    H127785   6.134   3.980   4.095
 9300TIP3    H227786   6.064   3.987   4.229
 9301TIP3   OH227787   5.559   3.493   4.029
 9301TIP3    H127788   5.531   3.418   4.082
 9301TIP3    H227789   5.581   3.456   3.944
 9302TIP3   OH227790   6.034   3.934   4.409
 9302TIP3    H127791   5.948   3.965   4.437
 9302TIP3    H227792   6.096   3.984   4.463
 9303TIP3   OH227793   5.781   4.287   3.509
 9303TIP3    H127794   5.707   4.231   3.487
 9303TIP3    H227795   5.756   4.330   3.591
 9304TIP3   OH227796   6.640   4.566   4.153
 9304TIP3    H127797   6.687   4.617   4.087
 9304TIP3    H227798   6.572   4.519   4.104
 9305TIP3   OH227799   6.241   3.601   3.431
 9305TIP3    H127800   6.147   3.580   3.425
 9305TIP3    H227801   6.244   3.696   3.441
 9306TIP3   OH227802   6.299   3.867   3.496
 9306TIP3    H127803   6.395   3.869   3.506
 9306TIP3    H227804   6.279   3.944   3.443
 9307TIP3   OH227805   5.482   4.325   4.160
 9307TIP3    H127806   5.516   4.296   4.075
 9307TIP3    H227807   5.537   4.281   4.224
 9308TIP3   OH227808   5.935   4.443   3.339
 9308TIP3    H127809   5.891   4.527   3.348
 9308TIP3    H227810   5.885   4.384   3.396
 9309TIP3   OH227811   5.357   4.157   4.793
 9309TIP3    H127812   5.342   4.152   4.887
 9309TIP3    H227813   5.270   4.154   4.754
 9310TIP3   OH227814   6.065   4.345   4.796
 9310TIP3    H127815   6.008   4.299   4.735
 9310TIP3    H227816   6.153   4.315   4.773
 9311TIP3   OH227817   6.711   3.957   3.312
 9311TIP3    H127818   6.653   3.913   3.250
 9311TIP3    H227819   6.719   4.046   3.277
 9312TIP3   OH227820   7.003   4.792   4.447
 9312TIP3    H127821   6.922   4.835   4.472
 9312TIP3    H227822   6.993   4.773   4.354
 9313TIP3   OH227823   6.454   4.776   3.240
 9313TIP3    H127824   6.432   4.702   3.297
 9313TIP3    H227825   6.479   4.735   3.157
 9314TIP3   OH227826   6.415   4.409   4.035
 9314TIP3    H127827   6.327   4.374   4.051
 9314TIP3    H227828   6.464   4.337   3.997
 9315TIP3   OH227829   5.602   4.645   3.845
 9315TIP3    H127830   5.599   4.722   3.789
 9315TIP3    H227831   5.511   4.627   3.868
 9316TIP3   OH227832   5.153   3.925   3.552
 9316TIP3    H127833   5.196   4.007   3.576
 9316TIP3    H227834   5.071   3.925   3.602
 9317TIP3   OH227835   5.662   4.401   3.727
 9317TIP3    H127836   5.661   4.487   3.768
 9317TIP3    H227837   5.645   4.340   3.799
 9318TIP3   OH227838   5.512   4.864   3.690
 9318TIP3    H127839   5.427   4.872   3.735
 9318TIP3    H227840   5.549   4.952   3.693
 9319TIP3   OH227841   6.273   4.604   4.232
 9319TIP3    H127842   6.337   4.604   4.304
 9319TIP3    H227843   6.313   4.549   4.165
 9320TIP3   OH227844   6.224   4.516   3.160
 9320TIP3    H127845   6.284   4.499   3.233
 9320TIP3    H227846   6.139   4.484   3.191
 9321TIP3   OH227847   6.532   4.972   2.940
 9321TIP3    H127848   6.552   5.032   2.868
 9321TIP3    H227849   6.462   5.016   2.989
 9322TIP3   OH227850   5.559   3.763   4.795
 9322TIP3    H127851   5.463   3.772   4.798
 9322TIP3    H227852   5.579   3.704   4.868
 9323TIP3   OH227853   6.405   4.456   3.363
 9323TIP3    H127854   6.387   4.380   3.419
 9323TIP3    H227855   6.498   4.450   3.344
 9324TIP3   OH227856   5.550   4.435   3.182
 9324TIP3    H127857   5.560   4.346   3.151
 9324TIP3    H227858   5.541   4.427   3.277
 9325TIP3   OH227859   5.524   4.481   3.456
 9325TIP3    H127860   5.581   4.452   3.528
 9325TIP3    H227861   5.538   4.575   3.451
 9326TIP3   OH227862   5.246   4.175   3.637
 9326TIP3    H127863   5.179   4.223   3.687
 9326TIP3    H227864   5.268   4.234   3.564
 9327TIP3   OH227865   6.403   3.809   4.505
 9327TIP3    H127866   6.484   3.851   4.532
 9327TIP3    H227867   6.397   3.731   4.561
 9328TIP3   OH227868   6.302   3.552   3.698
 9328TIP3    H127869   6.282   3.570   3.606
 9328TIP3    H227870   6.346   3.632   3.728
 9329TIP3   OH227871   5.804   4.672   3.394
 9329TIP3    H127872   5.716   4.709   3.399
 9329TIP3    H227873   5.851   4.714   3.466
 9330TIP3   OH227874   5.948   3.754   3.784
 9330TIP3    H127875   6.011   3.820   3.757
 9330TIP3    H227876   5.973   3.732   3.874
 9331TIP3   OH227877   6.248   4.036   4.561
 9331TIP3    H127878   6.279   4.066   4.646
 9331TIP3    H227879   6.296   3.954   4.546
 9332TIP3   OH227880   6.114   3.446   3.869
 9332TIP3    H127881   6.091   3.524   3.921
 9332TIP3    H227882   6.184   3.476   3.812
 9333TIP3   OH227883   5.546   4.762   3.440
 9333TIP3    H127884   5.476   4.807   3.392
 9333TIP3    H227885   5.539   4.795   3.529
 9334TIP3   OH227886   5.625   3.474   3.680
 9334TIP3    H127887   5.614   3.565   3.707
 9334TIP3    H227888   5.719   3.458   3.686
 9335TIP3   OH227889   6.871   3.957   4.561
 9335TIP3    H127890   6.775   3.951   4.564
 9335TIP3    H227891   6.894   3.928   4.472
 9336TIP3   OH227892   6.528   4.158   3.938
 9336TIP3    H127893   6.454   4.097   3.945
 9336TIP3    H227894   6.597   4.117   3.991
 9337TIP3   OH227895   5.279   4.355   3.425
 9337TIP3    H127896   5.356   4.409   3.441
 9337TIP3    H227897   5.308   4.293   3.358
 9338TIP3   OH227898   5.177   3.647   3.549
 9338TIP3    H127899   5.187   3.742   3.556
 9338TIP3    H227900   5.128   3.635   3.467
 9339TIP3   OH227901   6.547   5.099   3.906
 9339TIP3    H127902   6.497   5.154   3.846
 9339TIP3    H227903   6.638   5.124   3.891
 9340TIP3   OH227904   5.575   3.367   4.418
 9340TIP3    H127905   5.546   3.335   4.332
 9340TIP3    H227906   5.566   3.292   4.476
 9341TIP3   OH227907   5.098   4.624   3.813
 9341TIP3    H127908   5.068   4.653   3.899
 9341TIP3    H227909   5.043   4.673   3.751
 9342TIP3   OH227910   5.736   4.609   3.093
 9342TIP3    H127911   5.684   4.542   3.137
 9342TIP3    H227912   5.823   4.569   3.082
 9343TIP3   OH227913   6.154   4.709   2.967
 9343TIP3    H127914   6.196   4.651   3.031
 9343TIP3    H227915   6.214   4.710   2.893
 9344TIP3   OH227916   5.388   4.160   3.267
 9344TIP3    H127917   5.442   4.135   3.342
 9344TIP3    H227918   5.450   4.162   3.194
 9345TIP3   OH227919   5.926   4.396   3.070
 9345TIP3    H127920   5.931   4.399   3.166
 9345TIP3    H227921   5.929   4.302   3.049
 9346TIP3   OH227922   6.512   4.653   4.385
 9346TIP3    H127923   6.564   4.626   4.309
 9346TIP3    H227924   6.508   4.748   4.379
 9347TIP3   OH227925   5.570   4.108   3.472
 9347TIP3    H127926   5.551   4.076   3.560
 9347TIP3    H227927   5.619   4.037   3.431
 9348TIP3   OH227928   5.858   4.159   4.714
 9348TIP3    H127929   5.763   4.150   4.703
 9348TIP3    H227930   5.890   4.188   4.628
 9349TIP3   OH227931   5.711   3.926   3.315
 9349TIP3    H127932   5.681   3.926   3.224
 9349TIP3    H227933   5.806   3.934   3.308
 9350TIP3   OH227934   6.368   4.577   4.842
 9350TIP3    H127935   6.436   4.555   4.778
 9350TIP3    H227936   6.387   4.523   4.918
 9351TIP3   OH227937   6.501   4.215   3.000
 9351TIP3    H127938   6.489   4.174   2.914
 9351TIP3    H227939   6.474   4.306   2.986
 9352TIP3   OH227940   5.990   3.957   4.840
 9352TIP3    H127941   5.992   3.882   4.781
 9352TIP3    H227942   5.947   4.026   4.789
 9353TIP3   OH227943   5.991   3.759   4.638
 9353TIP3    H127944   6.019   3.794   4.554
 9353TIP3    H227945   5.901   3.730   4.623
 9354TIP3   OH227946   6.005   4.267   4.511
 9354TIP3    H127947   6.094   4.286   4.484
 9354TIP3    H227948   5.951   4.330   4.463
 9355TIP3   OH227949   6.587   4.256   4.884
 9355TIP3    H127950   6.627   4.169   4.881
 9355TIP3    H227951   6.660   4.316   4.870
 9356TIP3   OH227952   6.628   4.518   4.601
 9356TIP3    H127953   6.579   4.569   4.537
 9356TIP3    H227954   6.720   4.532   4.577
 9357TIP3   OH227955   5.874   4.054   5.081
 9357TIP3    H127956   5.802   3.995   5.100
 9357TIP3    H227957   5.901   4.031   4.992
 9358TIP3   OH227958   6.115   3.528   4.739
 9358TIP3    H127959   6.073   3.607   4.705
 9358TIP3    H227960   6.050   3.459   4.726
 9359TIP3   OH227961   6.239   4.009   4.946
 9359TIP3    H127962   6.234   3.980   5.037
 9359TIP3    H227963   6.156   3.981   4.907
 9360TIP3   OH227964   6.491   3.971   4.815
 9360TIP3    H127965   6.415   3.961   4.872
 9360TIP3    H227966   6.565   3.940   4.868
 9361TIP3   OH227967   6.718   3.914   4.963
 9361TIP3    H127968   6.735   3.820   4.969
 9361TIP3    H227969   6.716   3.944   5.053
 9362TIP3   OH227970   5.708   3.831   5.146
 9362TIP3    H127971   5.713   3.745   5.104
 9362TIP3    H227972   5.748   3.817   5.232
 9363TIP3   OH227973   6.180   3.505   5.005
 9363TIP3    H127974   6.248   3.438   5.000
 9363TIP3    H227975   6.150   3.516   4.914
 9364TIP3   OH227976   6.276   3.721   5.146
 9364TIP3    H127977   6.247   3.646   5.093
 9364TIP3    H227978   6.200   3.780   5.147
 9365TIP3   OH227979   5.006   4.361   3.428
 9365TIP3    H127980   5.101   4.364   3.429
 9365TIP3    H227981   4.985   4.275   3.394
 9366TIP3   OH227982   4.914   4.926   3.876
 9366TIP3    H127983   4.905   4.877   3.795
 9366TIP3    H227984   4.945   4.862   3.940
 9367TIP3   OH227985   5.050   4.759   4.058
 9367TIP3    H127986   5.044   4.701   4.134
 9367TIP3    H227987   5.098   4.835   4.090
 9368TIP3   OH227988   6.823   5.157   3.901
 9368TIP3    H127989   6.853   5.185   3.987
 9368TIP3    H227990   6.883   5.199   3.839
 9369TIP3   OH227991   6.858   4.911   4.689
 9369TIP3    H127992   6.804   4.952   4.757
 9369TIP3    H227993   6.918   4.980   4.662
 9370TIP3   OH227994   6.678   4.423   3.332
 9370TIP3    H127995   6.735   4.492   3.298
 9370TIP3    H227996   6.726   4.384   3.404
 9371TIP3   OH227997   6.809   4.281   3.531
 9371TIP3    H127998   6.742   4.245   3.589
 9371TIP3    H227999   6.875   4.318   3.591
 9372TIP3   OH228000   6.826   4.673   3.971
 9372TIP3    H128001   6.880   4.603   3.934
 9372TIP3    H228002   6.826   4.742   3.905
 9373TIP3   OH228003   6.711   4.197   3.176
 9373TIP3    H128004   6.639   4.197   3.113
 9373TIP3    H228005   6.696   4.276   3.229
 9374TIP3   OH228006   6.552   3.848   3.118
 9374TIP3    H128007   6.511   3.881   3.038
 9374TIP3    H228008   6.546   3.752   3.110
 9375TIP3   OH228009   6.598   4.145   3.667
 9375TIP3    H128010   6.606   4.051   3.655
 9375TIP3    H228011   6.581   4.157   3.760
 9376TIP3   OH228012   5.198   4.204   4.435
 9376TIP3    H128013   5.189   4.169   4.346
 9376TIP3    H228014   5.293   4.204   4.451
 9377TIP3   OH228015   6.895   4.555   4.537
 9377TIP3    H128016   6.949   4.479   4.518
 9377TIP3    H228017   6.943   4.629   4.499
 9378TIP3   OH228018   7.043   4.328   4.513
 9378TIP3    H128019   6.977   4.287   4.568
 9378TIP3    H228020   7.124   4.282   4.535
 9379TIP3   OH228021   6.520   3.577   3.088
 9379TIP3    H128022   6.588   3.547   3.148
 9379TIP3    H228023   6.440   3.534   3.119
 9380TIP3   OH228024   6.590   3.862   3.551
 9380TIP3    H128025   6.637   3.779   3.564
 9380TIP3    H228026   6.631   3.901   3.474
 9381TIP3   OH228027   6.743   4.032   4.075
 9381TIP3    H128028   6.824   4.050   4.026
 9381TIP3    H228029   6.760   4.070   4.161
 9382TIP3   OH228030   6.817   4.174   4.308
 9382TIP3    H128031   6.745   4.201   4.365
 9382TIP3    H228032   6.845   4.254   4.265
 9383TIP3   OH228033   5.441   3.877   5.084
 9383TIP3    H128034   5.535   3.873   5.103
 9383TIP3    H228035   5.407   3.794   5.116
 9384TIP3   OH228036   7.282   3.770   4.844
 9384TIP3    H128037   7.348   3.717   4.801
 9384TIP3    H228038   7.242   3.821   4.773
 9385TIP3   OH228039   6.707   3.614   3.605
 9385TIP3    H128040   6.754   3.599   3.687
 9385TIP3    H228041   6.646   3.541   3.598
 9386TIP3   OH228042   5.412   3.593   4.434
 9386TIP3    H128043   5.465   3.513   4.440
 9386TIP3    H228044   5.475   3.662   4.413
 9387TIP3   OH228045   5.191   3.865   4.488
 9387TIP3    H128046   5.245   3.851   4.410
 9387TIP3    H228047   5.213   3.953   4.517
 9388TIP3   OH228048   7.128   3.884   4.648
 9388TIP3    H128049   7.044   3.926   4.665
 9388TIP3    H228050   7.106   3.807   4.594
 9389TIP3   OH228051   6.749   3.524   3.240
 9389TIP3    H128052   6.797   3.464   3.183
 9389TIP3    H228053   6.803   3.602   3.244
 9390TIP3   OH228054   5.182   3.376   3.998
 9390TIP3    H128055   5.097   3.361   4.038
 9390TIP3    H228056   5.162   3.427   3.919
 9391TIP3   OH228057   6.318   5.093   3.515
 9391TIP3    H128058   6.375   5.082   3.439
 9391TIP3    H228059   6.371   5.142   3.578
 9392TIP3   OH228060   5.411   3.436   4.826
 9392TIP3    H128061   5.357   3.418   4.903
 9392TIP3    H228062   5.353   3.482   4.765
 9393TIP3   OH228063   7.042   3.642   4.536
 9393TIP3    H128064   6.958   3.640   4.491
 9393TIP3    H228065   7.075   3.552   4.530
 9394TIP3   OH228066   5.265   5.111   4.433
 9394TIP3    H128067   5.185   5.163   4.428
 9394TIP3    H228068   5.253   5.055   4.510
 9395TIP3   OH228069   5.516   5.196   4.338
 9395TIP3    H128070   5.426   5.179   4.367
 9395TIP3    H228071   5.508   5.216   4.245
 9396TIP3   OH228072   5.954   5.161   4.060
 9396TIP3    H128073   5.867   5.194   4.036
 9396TIP3    H228074   5.986   5.222   4.126
 9397TIP3   OH228075   5.209   4.968   4.196
 9397TIP3    H128076   5.241   5.014   4.274
 9397TIP3    H228077   5.286   4.923   4.161
 9398TIP3   OH228078   5.421   4.833   4.086
 9398TIP3    H128079   5.438   4.752   4.133
 9398TIP3    H228080   5.506   4.877   4.082
 9399TIP3   OH228081   5.691   4.929   4.090
 9399TIP3    H128082   5.714   4.836   4.085
 9399TIP3    H228083   5.766   4.970   4.132
 9400TIP3   OH228084   6.247   3.562   4.175
 9400TIP3    H128085   6.208   3.490   4.226
 9400TIP3    H228086   6.316   3.520   4.124
 9401TIP3   OH228087   6.754   3.482   4.063
 9401TIP3    H128088   6.790   3.531   3.989
 9401TIP3    H228089   6.661   3.506   4.064
 9402TIP3   OH228090   6.866   3.560   3.826
 9402TIP3    H128091   6.934   3.498   3.800
 9402TIP3    H228092   6.906   3.646   3.813
 9403TIP3   OH228093   5.487   3.267   4.175
 9403TIP3    H128094   5.399   3.233   4.186
 9403TIP3    H228095   5.542   3.189   4.166
 9404TIP3   OH228096   5.311   3.180   3.830
 9404TIP3    H128097   5.336   3.228   3.751
 9404TIP3    H228098   5.275   3.248   3.888
 9405TIP3   OH228099   5.968   3.307   4.070
 9405TIP3    H128100   6.018   3.351   4.000
 9405TIP3    H228101   6.012   3.333   4.151
 9406TIP3   OH228102   6.463   3.444   4.049
 9406TIP3    H128103   6.483   3.409   3.961
 9406TIP3    H228104   6.472   3.368   4.107
 9407TIP3   OH228105   6.523   3.402   3.612
 9407TIP3    H128106   6.443   3.449   3.638
 9407TIP3    H228107   6.513   3.315   3.650
 9408TIP3   OH228108   4.943   4.777   3.643
 9408TIP3    H128109   4.867   4.740   3.599
 9408TIP3    H228110   4.973   4.847   3.584
 9409TIP3   OH228111   5.416   3.305   3.589
 9409TIP3    H128112   5.462   3.243   3.532
 9409TIP3    H228113   5.485   3.361   3.624
 9410TIP3   OH228114   5.900   3.502   3.687
 9410TIP3    H128115   5.960   3.448   3.739
 9410TIP3    H228116   5.917   3.591   3.716
 9411TIP3   OH228117   5.711   4.911   3.060
 9411TIP3    H128118   5.700   5.005   3.053
 9411TIP3    H228119   5.805   4.899   3.077
 9412TIP3   OH228120   6.477   5.043   3.291
 9412TIP3    H128121   6.474   4.948   3.280
 9412TIP3    H228122   6.441   5.078   3.209
 9413TIP3   OH228123   5.718   3.557   5.061
 9413TIP3    H128124   5.680   3.491   5.120
 9413TIP3    H228125   5.810   3.562   5.087
 9414TIP3   OH228126   5.966   3.557   5.183
 9414TIP3    H128127   6.043   3.533   5.130
 9414TIP3    H228128   5.959   3.486   5.247
 9415TIP3   OH228129   5.050   4.762   3.255
 9415TIP3    H128130   5.019   4.827   3.319
 9415TIP3    H228131   5.074   4.686   3.307
 9416TIP3   OH228132   6.787   3.645   4.965
 9416TIP3    H128133   6.804   3.615   5.054
 9416TIP3    H228134   6.872   3.640   4.921
 9417TIP3   OH228135   7.982   4.567   3.207
 9417TIP3    H128136   7.952   4.655   3.181
 9417TIP3    H228137   7.911   4.509   3.181
 9418TIP3   OH228138   7.975   4.559   3.635
 9418TIP3    H128139   8.029   4.544   3.713
 9418TIP3    H228140   7.931   4.476   3.620
 9419TIP3   OH228141   7.270   4.417   3.978
 9419TIP3    H128142   7.310   4.362   4.045
 9419TIP3    H228143   7.344   4.448   3.925
 9420TIP3   OH228144   8.250   4.867   3.305
 9420TIP3    H128145   8.235   4.802   3.374
 9420TIP3    H228146   8.270   4.948   3.353
 9421TIP3   OH228147   7.266   4.839   3.655
 9421TIP3    H128148   7.253   4.745   3.662
 9421TIP3    H228149   7.361   4.850   3.654
 9422TIP3   OH228150   6.952   4.049   3.448
 9422TIP3    H128151   6.915   4.134   3.472
 9422TIP3    H228152   6.879   4.003   3.407
 9423TIP3   OH228153   7.033   4.368   3.680
 9423TIP3    H128154   7.083   4.290   3.703
 9423TIP3    H228155   7.099   4.433   3.657
 9424TIP3   OH228156   7.895   5.313   3.308
 9424TIP3    H128157   7.926   5.237   3.259
 9424TIP3    H228158   7.891   5.282   3.399
 9425TIP3   OH228159   7.782   4.782   3.653
 9425TIP3    H128160   7.825   4.703   3.623
 9425TIP3    H228161   7.852   4.838   3.685
 9426TIP3   OH228162   8.773   4.108   3.682
 9426TIP3    H128163   8.800   4.195   3.713
 9426TIP3    H228164   8.791   4.109   3.588
 9427TIP3   OH228165   8.187   4.263   3.674
 9427TIP3    H128166   8.223   4.179   3.702
 9427TIP3    H228167   8.155   4.248   3.586
 9428TIP3   OH228168   7.548   3.924   3.632
 9428TIP3    H128169   7.528   3.998   3.574
 9428TIP3    H228170   7.492   3.853   3.600
 9429TIP3   OH228171   8.246   4.027   3.270
 9429TIP3    H128172   8.309   4.021   3.341
 9429TIP3    H228173   8.296   4.062   3.196
 9430TIP3   OH228174   7.171   4.141   3.762
 9430TIP3    H128175   7.255   4.124   3.805
 9430TIP3    H228176   7.176   4.091   3.681
 9431TIP3   OH228177   7.591   4.344   3.581
 9431TIP3    H128178   7.685   4.329   3.588
 9431TIP3    H228179   7.556   4.261   3.548
 9432TIP3   OH228180   8.845   4.335   3.826
 9432TIP3    H128181   8.758   4.373   3.819
 9432TIP3    H228182   8.884   4.377   3.903
 9433TIP3   OH228183   7.530   3.932   4.083
 9433TIP3    H128184   7.481   3.969   4.010
 9433TIP3    H228185   7.476   3.948   4.160
 9434TIP3   OH228186   7.881   4.786   3.069
 9434TIP3    H128187   7.842   4.756   2.987
 9434TIP3    H228188   7.827   4.862   3.094
 9435TIP3   OH228189   7.600   4.724   3.860
 9435TIP3    H128190   7.551   4.797   3.898
 9435TIP3    H228191   7.653   4.763   3.791
 9436TIP3   OH228192   8.402   4.046   3.493
 9436TIP3    H128193   8.361   4.025   3.576
 9436TIP3    H228194   8.455   4.124   3.512
 9437TIP3   OH228195   7.419   4.038   3.852
 9437TIP3    H128196   7.473   4.114   3.873
 9437TIP3    H228197   7.466   3.994   3.781
 9438TIP3   OH228198   7.436   4.931   3.990
 9438TIP3    H128199   7.417   5.024   3.980
 9438TIP3    H228200   7.367   4.898   4.046
 9439TIP3   OH228201   6.844   4.612   3.210
 9439TIP3    H128202   6.814   4.630   3.121
 9439TIP3    H228203   6.868   4.698   3.245
 9440TIP3   OH228204   8.285   5.113   3.444
 9440TIP3    H128205   8.200   5.104   3.487
 9440TIP3    H228206   8.280   5.198   3.399
 9441TIP3   OH228207   8.591   3.971   3.835
 9441TIP3    H128208   8.505   3.992   3.801
 9441TIP3    H228209   8.652   4.011   3.772
 9442TIP3   OH228210   7.868   3.621   3.817
 9442TIP3    H128211   7.862   3.529   3.842
 9442TIP3    H228212   7.791   3.662   3.855
 9443TIP3   OH228213   7.992   5.141   3.108
 9443TIP3    H128214   8.046   5.063   3.096
 9443TIP3    H228215   8.048   5.214   3.080
 9444TIP3   OH228216   8.133   4.912   3.059
 9444TIP3    H128217   8.058   4.852   3.060
 9444TIP3    H228218   8.183   4.889   3.137
 9445TIP3   OH228219   8.500   5.005   3.784
 9445TIP3    H128220   8.486   4.931   3.725
 9445TIP3    H228221   8.487   5.083   3.729
 9446TIP3   OH228222   7.808   4.404   3.061
 9446TIP3    H128223   7.725   4.448   3.041
 9446TIP3    H228224   7.855   4.404   2.977
 9447TIP3   OH228225   7.775   4.215   2.748
 9447TIP3    H128226   7.841   4.263   2.798
 9447TIP3    H228227   7.825   4.147   2.702
 9448TIP3   OH228228   8.681   4.653   3.643
 9448TIP3    H128229   8.600   4.704   3.641
 9448TIP3    H228230   8.718   4.664   3.555
 9449TIP3   OH228231   8.167   4.491   3.021
 9449TIP3    H128232   8.113   4.522   3.094
 9449TIP3    H228233   8.251   4.467   3.061
 9450TIP3   OH228234   8.387   4.526   3.972
 9450TIP3    H128235   8.385   4.610   4.018
 9450TIP3    H228236   8.305   4.524   3.923
 9451TIP3   OH228237   7.394   4.474   3.425
 9451TIP3    H128238   7.361   4.412   3.360
 9451TIP3    H228239   7.468   4.428   3.466
 9452TIP3   OH228240   7.533   4.909   3.581
 9452TIP3    H128241   7.512   4.902   3.488
 9452TIP3    H228242   7.619   4.870   3.590
 9453TIP3   OH228243   7.486   4.478   3.804
 9453TIP3    H128244   7.530   4.444   3.726
 9453TIP3    H228245   7.530   4.561   3.822
 9454TIP3   OH228246   8.056   5.101   3.586
 9454TIP3    H128247   8.034   5.186   3.623
 9454TIP3    H228248   8.030   5.038   3.653
 9455TIP3   OH228249   7.648   5.036   4.132
 9455TIP3    H128250   7.605   5.120   4.142
 9455TIP3    H228251   7.587   4.983   4.081
 9456TIP3   OH228252   7.997   4.355   2.852
 9456TIP3    H128253   8.057   4.412   2.900
 9456TIP3    H228254   8.027   4.358   2.762
 9457TIP3   OH228255   7.432   4.531   4.242
 9457TIP3    H128256   7.446   4.615   4.287
 9457TIP3    H228257   7.336   4.524   4.234
 9458TIP3   OH228258   7.743   5.026   3.105
 9458TIP3    H128259   7.826   5.072   3.116
 9458TIP3    H228260   7.686   5.088   3.060
 9459TIP3   OH228261   8.502   3.580   2.911
 9459TIP3    H128262   8.426   3.602   2.965
 9459TIP3    H228263   8.515   3.657   2.855
 9460TIP3   OH228264   7.271   4.314   3.224
 9460TIP3    H128265   7.192   4.361   3.196
 9460TIP3    H228266   7.240   4.224   3.241
 9461TIP3   OH228267   8.304   4.960   2.471
 9461TIP3    H128268   8.307   5.053   2.449
 9461TIP3    H228269   8.392   4.928   2.454
 9462TIP3   OH228270   6.994   4.718   4.190
 9462TIP3    H128271   6.943   4.699   4.111
 9462TIP3    H228272   7.057   4.645   4.196
 9463TIP3   OH228273   6.885   4.900   3.808
 9463TIP3    H128274   6.980   4.905   3.813
 9463TIP3    H228275   6.854   4.982   3.847
 9464TIP3   OH228276   8.730   5.347   3.868
 9464TIP3    H128277   8.732   5.252   3.882
 9464TIP3    H228278   8.651   5.376   3.914
 9465TIP3   OH228279   7.874   5.136   4.011
 9465TIP3    H128280   7.866   5.231   4.015
 9465TIP3    H228281   7.790   5.104   4.046
 9466TIP3   OH228282   7.636   5.245   2.940
 9466TIP3    H128283   7.592   5.227   2.857
 9466TIP3    H228284   7.598   5.328   2.970
 9467TIP3   OH228285   7.068   5.104   3.317
 9467TIP3    H128286   7.112   5.096   3.401
 9467TIP3    H228287   7.022   5.021   3.305
 9468TIP3   OH228288   7.836   5.183   2.567
 9468TIP3    H128289   7.886   5.110   2.532
 9468TIP3    H228290   7.872   5.196   2.655
 9469TIP3   OH228291   7.891   5.226   2.837
 9469TIP3    H128292   7.805   5.226   2.880
 9469TIP3    H228293   7.951   5.192   2.903
 9470TIP3   OH228294   8.627   4.492   4.143
 9470TIP3    H128295   8.548   4.488   4.089
 9470TIP3    H228296   8.649   4.400   4.159
 9471TIP3   OH228297   7.632   3.712   3.943
 9471TIP3    H128298   7.547   3.680   3.911
 9471TIP3    H228299   7.611   3.794   3.987
 9472TIP3   OH228300   8.176   3.836   4.144
 9472TIP3    H128301   8.246   3.810   4.204
 9472TIP3    H228302   8.095   3.820   4.194
 9473TIP3   OH228303   8.381   4.260   4.056
 9473TIP3    H128304   8.343   4.255   4.144
 9473TIP3    H228305   8.368   4.351   4.029
 9474TIP3   OH228306   8.075   4.327   2.589
 9474TIP3    H128307   8.029   4.334   2.505
 9474TIP3    H228308   8.157   4.374   2.575
 9475TIP3   OH228309   7.783   3.756   2.910
 9475TIP3    H128310   7.747   3.763   2.999
 9475TIP3    H228311   7.749   3.673   2.876
 9476TIP3   OH228312   7.569   4.251   3.944
 9476TIP3    H128313   7.524   4.256   4.028
 9476TIP3    H228314   7.548   4.334   3.901
 9477TIP3   OH228315   7.453   4.126   3.472
 9477TIP3    H128316   7.363   4.103   3.497
 9477TIP3    H228317   7.462   4.095   3.382
 9478TIP3   OH228318   7.930   4.198   3.197
 9478TIP3    H128319   7.884   4.272   3.157
 9478TIP3    H228320   7.989   4.167   3.129
 9479TIP3   OH228321   8.117   4.467   4.269
 9479TIP3    H128322   8.089   4.401   4.333
 9479TIP3    H228323   8.209   4.483   4.289
 9480TIP3   OH228324   8.098   4.212   3.420
 9480TIP3    H128325   8.029   4.233   3.357
 9480TIP3    H228326   8.146   4.140   3.381
 9481TIP3   OH228327   7.408   4.256   4.165
 9481TIP3    H128328   7.423   4.326   4.228
 9481TIP3    H228329   7.393   4.178   4.219
 9482TIP3   OH228330   7.452   3.734   2.887
 9482TIP3    H128331   7.443   3.740   2.982
 9482TIP3    H228332   7.374   3.778   2.853
 9483TIP3   OH228333   7.002   3.782   3.755
 9483TIP3    H128334   7.072   3.819   3.808
 9483TIP3    H228335   7.042   3.770   3.668
 9484TIP3   OH228336   6.898   3.758   3.253
 9484TIP3    H128337   6.944   3.794   3.177
 9484TIP3    H228338   6.835   3.826   3.277
 9485TIP3   OH228339   8.142   4.469   3.847
 9485TIP3    H128340   8.165   4.401   3.783
 9485TIP3    H228341   8.095   4.422   3.915
 9486TIP3   OH228342   7.816   3.912   3.521
 9486TIP3    H128343   7.739   3.913   3.577
 9486TIP3    H228344   7.890   3.905   3.581
 9487TIP3   OH228345   7.212   4.001   3.530
 9487TIP3    H128346   7.125   4.005   3.491
 9487TIP3    H228347   7.242   3.912   3.514
 9488TIP3   OH228348   7.464   4.004   3.225
 9488TIP3    H128349   7.559   4.014   3.216
 9488TIP3    H228350   7.430   4.021   3.137
 9489TIP3   OH228351   8.263   4.000   3.732
 9489TIP3    H128352   8.241   4.019   3.823
 9489TIP3    H228353   8.194   3.940   3.703
 9490TIP3   OH228354   7.355   4.025   2.974
 9490TIP3    H128355   7.292   3.976   2.921
 9490TIP3    H228356   7.409   4.072   2.911
 9491TIP3   OH228357   8.468   5.709   3.955
 9491TIP3    H128358   8.465   5.720   3.860
 9491TIP3    H228359   8.548   5.755   3.982
 9492TIP3   OH228360   7.426   4.746   4.410
 9492TIP3    H128361   7.495   4.792   4.458
 9492TIP3    H228362   7.344   4.785   4.441
 9493TIP3   OH228363   7.863   4.288   3.629
 9493TIP3    H128364   7.933   4.243   3.582
 9493TIP3    H228365   7.862   4.247   3.716
 9494TIP3   OH228366   7.352   3.752   3.516
 9494TIP3    H128367   7.325   3.676   3.568
 9494TIP3    H228368   7.375   3.716   3.430
 9495TIP3   OH228369   7.836   4.190   3.894
 9495TIP3    H128370   7.749   4.225   3.915
 9495TIP3    H228371   7.896   4.244   3.945
 9496TIP3   OH228372   7.569   4.538   3.006
 9496TIP3    H128373   7.493   4.485   2.980
 9496TIP3    H228374   7.542   4.581   3.087
 9497TIP3   OH228375   8.455   4.804   3.603
 9497TIP3    H128376   8.490   4.851   3.528
 9497TIP3    H228377   8.375   4.762   3.570
 9498TIP3   OH228378   8.037   3.859   2.916
 9498TIP3    H128379   7.943   3.838   2.911
 9498TIP3    H228380   8.040   3.954   2.927
 9499TIP3   OH228381   7.977   4.875   4.040
 9499TIP3    H128382   8.030   4.869   4.119
 9499TIP3    H228383   7.941   4.964   4.041
 9500TIP3   OH228384   8.095   4.124   2.982
 9500TIP3    H128385   8.190   4.128   2.994
 9500TIP3    H228386   8.074   4.202   2.931
 9501TIP3   OH228387   7.256   4.549   3.652
 9501TIP3    H128388   7.295   4.532   3.566
 9501TIP3    H228389   7.323   4.523   3.715
 9502TIP3   OH228390   7.724   4.699   2.850
 9502TIP3    H128391   7.676   4.782   2.846
 9502TIP3    H228392   7.668   4.642   2.903
 9503TIP3   OH228393   7.160   4.500   4.305
 9503TIP3    H128394   7.198   4.494   4.392
 9503TIP3    H228395   7.087   4.438   4.306
 9504TIP3   OH228396   7.883   4.626   4.313
 9504TIP3    H128397   7.816   4.566   4.281
 9504TIP3    H228398   7.965   4.590   4.281
 9505TIP3   OH228399   8.131   5.174   3.916
 9505TIP3    H128400   8.037   5.154   3.924
 9505TIP3    H228401   8.155   5.210   4.001
 9506TIP3   OH228402   8.508   4.211   2.801
 9506TIP3    H128403   8.451   4.167   2.738
 9506TIP3    H228404   8.515   4.301   2.768
 9507TIP3   OH228405   8.742   5.067   3.886
 9507TIP3    H128406   8.648   5.057   3.872
 9507TIP3    H228407   8.781   5.044   3.801
 9508TIP3   OH228408   8.253   5.027   2.743
 9508TIP3    H128409   8.223   4.959   2.803
 9508TIP3    H228410   8.258   4.983   2.658
 9509TIP3   OH228411   8.229   4.665   3.506
 9509TIP3    H128412   8.139   4.646   3.534
 9509TIP3    H228413   8.260   4.583   3.467
 9510TIP3   OH228414   7.398   4.905   3.331
 9510TIP3    H128415   7.395   4.979   3.271
 9510TIP3    H228416   7.307   4.894   3.359
 9511TIP3   OH228417   6.949   4.184   3.036
 9511TIP3    H128418   6.992   4.266   3.058
 9511TIP3    H228419   6.868   4.185   3.087
 9512TIP3   OH228420   7.466   4.657   3.225
 9512TIP3    H128421   7.459   4.747   3.259
 9512TIP3    H228422   7.443   4.602   3.300
 9513TIP3   OH228423   7.306   5.123   3.175
 9513TIP3    H128424   7.219   5.131   3.213
 9513TIP3    H228425   7.343   5.210   3.182
 9514TIP3   OH228426   8.015   4.886   3.766
 9514TIP3    H128427   8.000   4.881   3.860
 9514TIP3    H228428   8.102   4.846   3.753
 9515TIP3   OH228429   8.012   4.764   2.621
 9515TIP3    H128430   8.063   4.735   2.696
 9515TIP3    H228431   7.928   4.719   2.631
 9516TIP3   OH228432   8.266   5.392   3.800
 9516TIP3    H128433   8.201   5.324   3.815
 9516TIP3    H228434   8.235   5.438   3.721
 9517TIP3   OH228435   8.325   5.231   2.425
 9517TIP3    H128436   8.338   5.284   2.347
 9517TIP3    H228437   8.256   5.276   2.475
 9518TIP3   OH228438   7.361   4.003   4.293
 9518TIP3    H128439   7.265   4.010   4.299
 9518TIP3    H228440   7.386   3.953   4.370
 9519TIP3   OH228441   8.187   4.671   2.810
 9519TIP3    H128442   8.173   4.620   2.889
 9519TIP3    H228443   8.282   4.682   2.804
 9520TIP3   OH228444   7.366   4.728   2.637
 9520TIP3    H128445   7.378   4.636   2.611
 9520TIP3    H228446   7.354   4.724   2.732
 9521TIP3   OH228447   7.308   4.744   2.910
 9521TIP3    H128448   7.372   4.719   2.977
 9521TIP3    H228449   7.306   4.840   2.913
 9522TIP3   OH228450   7.042   4.434   3.119
 9522TIP3    H128451   6.978   4.483   3.171
 9522TIP3    H228452   7.063   4.492   3.045
 9523TIP3   OH228453   8.199   4.063   3.990
 9523TIP3    H128454   8.275   4.113   4.022
 9523TIP3    H228455   8.194   3.988   4.049
 9524TIP3   OH228456   8.098   3.809   3.184
 9524TIP3    H128457   8.076   3.828   3.092
 9524TIP3    H228458   8.141   3.888   3.215
 9525TIP3   OH228459   7.575   4.926   2.841
 9525TIP3    H128460   7.492   4.952   2.880
 9525TIP3    H228461   7.602   5.001   2.789
 9526TIP3   OH228462   7.743   4.009   3.270
 9526TIP3    H128463   7.805   4.077   3.243
 9526TIP3    H228464   7.768   3.988   3.360
 9527TIP3   OH228465   8.040   4.305   4.045
 9527TIP3    H128466   8.066   4.350   4.125
 9527TIP3    H228467   8.091   4.224   4.046
 9528TIP3   OH228468   7.909   3.703   3.356
 9528TIP3    H128469   7.886   3.780   3.408
 9528TIP3    H228470   7.980   3.733   3.299
 9529TIP3   OH228471   7.327   5.017   2.923
 9529TIP3    H128472   7.309   5.089   2.862
 9529TIP3    H228473   7.319   5.056   3.010
 9530TIP3   OH228474   7.421   3.730   3.167
 9530TIP3    H128475   7.410   3.821   3.194
 9530TIP3    H228476   7.516   3.715   3.173
 9531TIP3   OH228477   8.646   4.214   4.037
 9531TIP3    H128478   8.551   4.219   4.049
 9531TIP3    H228479   8.657   4.180   3.948
 9532TIP3   OH228480   8.314   4.407   3.417
 9532TIP3    H128481   8.238   4.350   3.427
 9532TIP3    H228482   8.381   4.368   3.474
 9533TIP3   OH228483   7.066   4.610   2.901
 9533TIP3    H128484   7.137   4.673   2.910
 9533TIP3    H228485   7.097   4.547   2.835
 9534TIP3   OH228486   6.972   3.906   3.035
 9534TIP3    H128487   6.984   4.000   3.043
 9534TIP3    H228488   6.928   3.894   2.951
 9535TIP3   OH228489   8.300   5.382   3.365
 9535TIP3    H128490   8.260   5.433   3.296
 9535TIP3    H228491   8.394   5.393   3.352
 9536TIP3   OH228492   7.369   3.627   3.902
 9536TIP3    H128493   7.340   3.595   3.816
 9536TIP3    H228494   7.361   3.551   3.960
 9537TIP3   OH228495   6.892   4.880   3.295
 9537TIP3    H128496   6.853   4.918   3.374
 9537TIP3    H228497   6.848   4.925   3.223
 9538TIP3   OH228498   7.551   5.315   4.388
 9538TIP3    H128499   7.641   5.283   4.395
 9538TIP3    H228500   7.527   5.302   4.297
 9539TIP3   OH228501   7.519   4.930   2.525
 9539TIP3    H128502   7.474   4.860   2.571
 9539TIP3    H228503   7.595   4.887   2.484
 9540TIP3   OH228504   8.192   5.267   4.166
 9540TIP3    H128505   8.207   5.197   4.229
 9540TIP3    H228506   8.263   5.329   4.182
 9541TIP3   OH228507   7.962   4.972   2.449
 9541TIP3    H128508   7.997   4.907   2.511
 9541TIP3    H228509   8.022   4.967   2.375
 9542TIP3   OH228510   7.186   4.420   2.744
 9542TIP3    H128511   7.237   4.396   2.822
 9542TIP3    H228512   7.251   4.435   2.676
 9543TIP3   OH228513   7.780   4.909   4.340
 9543TIP3    H128514   7.740   4.942   4.260
 9543TIP3    H228515   7.821   4.827   4.315
 9544TIP3   OH228516   7.759   4.642   2.584
 9544TIP3    H128517   7.736   4.652   2.677
 9544TIP3    H228518   7.740   4.550   2.565
 9545TIP3   OH228519   8.285   4.941   3.941
 9545TIP3    H128520   8.362   4.968   3.890
 9545TIP3    H228521   8.224   5.015   3.931
 9546TIP3   OH228522   7.337   4.496   4.545
 9546TIP3    H128523   7.403   4.534   4.487
 9546TIP3    H228524   7.343   4.547   4.625
 9547TIP3   OH228525   7.358   4.363   2.956
 9547TIP3    H128526   7.341   4.333   3.046
 9547TIP3    H228527   7.409   4.292   2.917
 9548TIP3   OH228528   7.693   4.442   4.203
 9548TIP3    H128529   7.604   4.477   4.211
 9548TIP3    H228530   7.725   4.475   4.119
 9549TIP3   OH228531   7.504   4.181   2.804
 9549TIP3    H128532   7.475   4.185   2.713
 9549TIP3    H228533   7.600   4.190   2.799
 9550TIP3   OH228534   8.173   4.822   4.292
 9550TIP3    H128535   8.242   4.786   4.237
 9550TIP3    H228536   8.170   4.765   4.369
 9551TIP3   OH228537   8.293   4.464   2.484
 9551TIP3    H128538   8.279   4.425   2.398
 9551TIP3    H228539   8.269   4.556   2.473
 9552TIP3   OH228540   7.780   4.213   4.324
 9552TIP3    H128541   7.786   4.143   4.260
 9552TIP3    H228542   7.753   4.290   4.274
 9553TIP3   OH228543   7.790   4.016   4.120
 9553TIP3    H128544   7.818   4.056   4.037
 9553TIP3    H228545   7.699   3.990   4.104
 9554TIP3   OH228546   7.792   4.561   3.980
 9554TIP3    H128547   7.875   4.608   3.975
 9554TIP3    H228548   7.729   4.620   3.939
 9555TIP3   OH228549   8.385   4.501   4.366
 9555TIP3    H128550   8.431   4.418   4.376
 9555TIP3    H228551   8.455   4.565   4.350
 9556TIP3   OH228552   8.410   4.771   4.110
 9556TIP3    H128553   8.356   4.831   4.058
 9556TIP3    H228554   8.500   4.787   4.079
 9557TIP3   OH228555   7.667   4.295   4.567
 9557TIP3    H128556   7.595   4.233   4.585
 9557TIP3    H228557   7.695   4.274   4.478
 9558TIP3   OH228558   7.910   3.787   4.225
 9558TIP3    H128559   7.871   3.867   4.190
 9558TIP3    H228560   7.843   3.720   4.210
 9559TIP3   OH228561   8.035   4.258   4.429
 9559TIP3    H128562   8.025   4.245   4.523
 9559TIP3    H228563   7.949   4.236   4.393
 9560TIP3   OH228564   8.275   4.208   4.297
 9560TIP3    H128565   8.197   4.212   4.352
 9560TIP3    H228566   8.347   4.188   4.358
 9561TIP3   OH228567   8.506   4.178   4.450
 9561TIP3    H128568   8.522   4.084   4.454
 9561TIP3    H228569   8.506   4.207   4.541
 9562TIP3   OH228570   7.493   4.081   4.634
 9562TIP3    H128571   7.501   3.993   4.596
 9562TIP3    H228572   7.534   4.073   4.720
 9563TIP3   OH228573   7.973   3.761   4.490
 9563TIP3    H128574   8.043   3.695   4.483
 9563TIP3    H228575   7.944   3.775   4.400
 9564TIP3   OH228576   8.071   3.974   4.636
 9564TIP3    H128577   8.040   3.903   4.580
 9564TIP3    H228578   7.999   4.037   4.636
 9565TIP3   OH228579   7.327   5.225   2.740
 9565TIP3    H128580   7.416   5.205   2.713
 9565TIP3    H228581   7.289   5.270   2.664
 9566TIP3   OH228582   6.792   4.608   2.920
 9566TIP3    H128583   6.887   4.620   2.914
 9566TIP3    H228584   6.776   4.524   2.878
 9567TIP3   OH228585   6.694   5.189   3.380
 9567TIP3    H128586   6.626   5.137   3.337
 9567TIP3    H228587   6.739   5.127   3.437
 9568TIP3   OH228588   6.841   5.023   3.547
 9568TIP3    H128589   6.831   4.955   3.614
 9568TIP3    H228590   6.893   5.091   3.590
 9569TIP3   OH228591   8.569   5.434   3.357
 9569TIP3    H128592   8.598   5.455   3.446
 9569TIP3    H228593   8.631   5.479   3.300
 9570TIP3   OH228594   8.602   5.456   3.640
 9570TIP3    H128595   8.548   5.378   3.631
 9570TIP3    H228596   8.666   5.434   3.707
 9571TIP3   OH228597   8.646   5.159   4.204
 9571TIP3    H128598   8.574   5.165   4.266
 9571TIP3    H228599   8.684   5.247   4.202
 9572TIP3   OH228600   8.465   4.675   2.815
 9572TIP3    H128601   8.521   4.748   2.789
 9572TIP3    H228602   8.512   4.634   2.888
 9573TIP3   OH228603   8.595   4.523   3.010
 9573TIP3    H128604   8.525   4.488   3.066
 9573TIP3    H228605   8.655   4.566   3.071
 9574TIP3   OH228606   8.640   4.932   3.437
 9574TIP3    H128607   8.692   4.862   3.398
 9574TIP3    H228608   8.648   5.005   3.375
 9575TIP3   OH228609   8.442   5.231   3.641
 9575TIP3    H128610   8.373   5.273   3.692
 9575TIP3    H228611   8.397   5.191   3.567
 9576TIP3   OH228612   8.502   4.450   2.662
 9576TIP3    H128613   8.431   4.448   2.598
 9576TIP3    H228614   8.486   4.528   2.715
 9577TIP3   OH228615   8.356   4.100   2.604
 9577TIP3    H128616   8.310   4.138   2.529
 9577TIP3    H228617   8.347   4.005   2.591
 9578TIP3   OH228618   8.394   4.394   3.152
 9578TIP3    H128619   8.399   4.299   3.140
 9578TIP3    H228620   8.373   4.406   3.244
 9579TIP3   OH228621   7.003   4.459   3.938
 9579TIP3    H128622   6.996   4.429   3.847
 9579TIP3    H228623   7.097   4.456   3.957
 9580TIP3   OH228624   8.668   4.822   4.019
 9580TIP3    H128625   8.732   4.754   4.000
 9580TIP3    H228626   8.695   4.896   3.965
 9581TIP3   OH228627   8.835   4.606   4.008
 9581TIP3    H128628   8.761   4.569   4.057
 9581TIP3    H228629   8.909   4.550   4.031
 9582TIP3   OH228630   8.319   3.828   2.573
 9582TIP3    H128631   8.384   3.803   2.638
 9582TIP3    H228632   8.236   3.792   2.605
 9583TIP3   OH228633   8.385   4.118   3.040
 9583TIP3    H128634   8.432   4.035   3.051
 9583TIP3    H228635   8.426   4.158   2.963
 9584TIP3   OH228636   8.523   4.287   3.561
 9584TIP3    H128637   8.602   4.311   3.512
 9584TIP3    H228638   8.537   4.326   3.648
 9585TIP3   OH228639   8.591   4.437   3.790
 9585TIP3    H128640   8.521   4.470   3.848
 9585TIP3    H228641   8.619   4.515   3.742
 9586TIP3   OH228642   7.229   4.127   4.562
 9586TIP3    H128643   7.322   4.133   4.584
 9586TIP3    H228644   7.199   4.047   4.604
 9587TIP3   OH228645   9.023   4.074   4.332
 9587TIP3    H128646   9.097   4.024   4.301
 9587TIP3    H228647   8.986   4.115   4.253
 9588TIP3   OH228648   8.499   3.866   3.085
 9588TIP3    H128649   8.542   3.854   3.169
 9588TIP3    H228650   8.436   3.794   3.080
 9589TIP3   OH228651   7.210   3.854   3.927
 9589TIP3    H128652   7.263   3.775   3.929
 9589TIP3    H228653   7.271   3.925   3.906
 9590TIP3   OH228654   6.985   4.123   3.975
 9590TIP3    H128655   7.039   4.111   3.897
 9590TIP3    H228656   7.011   4.209   4.009
 9591TIP3   OH228657   8.899   4.152   4.107
 9591TIP3    H128658   8.810   4.188   4.109
 9591TIP3    H228659   8.891   4.068   4.063
 9592TIP3   OH228660   8.547   3.780   2.726
 9592TIP3    H128661   8.600   3.721   2.672
 9592TIP3    H228662   8.599   3.860   2.731
 9593TIP3   OH228663   6.976   3.625   3.479
 9593TIP3    H128664   6.892   3.614   3.522
 9593TIP3    H228665   6.957   3.680   3.402
 9594TIP3   OH228666   8.131   5.344   2.999
 9594TIP3    H128667   8.189   5.333   2.923
 9594TIP3    H228668   8.173   5.412   3.052
 9595TIP3   OH228669   7.206   3.677   4.305
 9595TIP3    H128670   7.155   3.673   4.386
 9595TIP3    H228671   7.151   3.727   4.245
 9596TIP3   OH228672   7.890   5.410   4.051
 9596TIP3    H128673   7.916   5.408   4.143
 9596TIP3    H228674   7.956   5.465   4.009
 9597TIP3   OH228675   8.068   5.579   3.925
 9597TIP3    H128676   8.137   5.525   3.886
 9597TIP3    H228677   8.114   5.639   3.983
 9598TIP3   OH228678   8.819   3.905   4.013
 9598TIP3    H128679   8.735   3.911   3.968
 9598TIP3    H228680   8.844   3.813   4.004
 9599TIP3   OH228681   7.767   5.472   3.587
 9599TIP3    H128682   7.676   5.463   3.559
 9599TIP3    H228683   7.763   5.534   3.661
 9600TIP3   OH228684   8.015   5.370   3.640
 9600TIP3    H128685   7.924   5.396   3.629
 9600TIP3    H228686   8.066   5.442   3.603
 9601TIP3   OH228687   8.227   5.550   3.571
 9601TIP3    H128688   8.216   5.636   3.529
 9601TIP3    H228689   8.252   5.492   3.499
 9602TIP3   OH228690   7.028   5.219   3.708
 9602TIP3    H128691   7.086   5.258   3.774
 9602TIP3    H228692   7.086   5.170   3.651
 9603TIP3   OH228693   7.208   5.085   3.554
 9603TIP3    H128694   7.223   4.998   3.591
 9603TIP3    H228695   7.293   5.129   3.560
 9604TIP3   OH228696   7.465   5.189   3.609
 9604TIP3    H128697   7.506   5.103   3.606
 9604TIP3    H228698   7.490   5.225   3.694
 9605TIP3   OH228699   8.043   3.823   3.662
 9605TIP3    H128700   8.004   3.752   3.713
 9605TIP3    H228701   8.110   3.780   3.609
 9606TIP3   OH228702   8.536   3.745   3.552
 9606TIP3    H128703   8.575   3.793   3.480
 9606TIP3    H228704   8.444   3.770   3.552
 9607TIP3   OH228705   8.651   3.812   3.312
 9607TIP3    H128706   8.723   3.754   3.288
 9607TIP3    H228707   8.682   3.900   3.289
 9608TIP3   OH228708   7.282   3.524   3.660
 9608TIP3    H128709   7.194   3.489   3.670
 9608TIP3    H228710   7.337   3.446   3.652
 9609TIP3   OH228711   7.105   3.433   3.312
 9609TIP3    H128712   7.131   3.482   3.235
 9609TIP3    H228713   7.068   3.499   3.371
 9610TIP3   OH228714   7.766   3.562   3.556
 9610TIP3    H128715   7.814   3.608   3.487
 9610TIP3    H228716   7.807   3.591   3.638
 9611TIP3   OH228717   8.251   3.701   3.529
 9611TIP3    H128718   8.273   3.667   3.443
 9611TIP3    H228719   8.261   3.627   3.588
 9612TIP3   OH228720   8.315   3.656   3.097
 9612TIP3    H128721   8.236   3.704   3.124
 9612TIP3    H228722   8.304   3.570   3.136
 9613TIP3   OH228723   6.771   5.006   3.083
 9613TIP3    H128724   6.689   4.973   3.046
 9613TIP3    H228725   6.779   5.095   3.048
 9614TIP3   OH228726   7.213   3.562   3.075
 9614TIP3    H128727   7.259   3.501   3.018
 9614TIP3    H228728   7.281   3.618   3.111
 9615TIP3   OH228729   7.697   3.757   3.174
 9615TIP3    H128730   7.757   3.705   3.227
 9615TIP3    H228731   7.712   3.847   3.202
 9616TIP3   OH228732   7.583   5.152   2.671
 9616TIP3    H128733   7.666   5.180   2.633
 9616TIP3    H228734   7.553   5.082   2.613
 9617TIP3   OH228735   8.284   5.296   2.771
 9617TIP3    H128736   8.278   5.201   2.765
 9617TIP3    H228737   8.241   5.328   2.692
 9618TIP3   OH228738   7.511   3.812   4.540
 9618TIP3    H128739   7.478   3.745   4.600
 9618TIP3    H228740   7.603   3.821   4.562
 9619TIP3   OH228741   7.758   3.815   4.663
 9619TIP3    H128742   7.835   3.794   4.611
 9619TIP3    H228743   7.754   3.746   4.730
 9620TIP3   OH228744   6.895   5.001   2.727
 9620TIP3    H128745   6.901   5.015   2.821
 9620TIP3    H228746   6.975   4.952   2.706
 9621TIP3   OH228747   8.571   3.908   4.454
 9621TIP3    H128748   8.592   3.886   4.545
 9621TIP3    H228749   8.655   3.903   4.409
 9622TIP3   OH228750   8.489   5.434   3.963
 9622TIP3    H128751   8.413   5.408   3.911
 9622TIP3    H228752   8.482   5.529   3.969
 9623TIP3   OH228753   9.068   4.701   3.496
 9623TIP3    H128754   9.092   4.621   3.543
 9623TIP3    H228755   9.085   4.771   3.559
 9624TIP3   OH228756   8.996   5.147   3.222
 9624TIP3    H128757   8.993   5.052   3.208
 9624TIP3    H228758   9.063   5.160   3.289
 9625TIP3   OH228759   8.745   4.289   2.950
 9625TIP3    H128760   8.708   4.374   2.972
 9625TIP3    H228761   8.674   4.243   2.904
 9626TIP3   OH228762   8.817   4.616   3.147
 9626TIP3    H128763   8.859   4.534   3.170
 9626TIP3    H228764   8.872   4.653   3.078
 9627TIP3   OH228765   9.675   5.318   2.798
 9627TIP3    H128766   9.740   5.386   2.818
 9627TIP3    H228767   9.625   5.309   2.879
 9628TIP3   OH228768   9.651   5.096   3.201
 9628TIP3    H128769   9.623   5.180   3.166
 9628TIP3    H228770   9.708   5.118   3.275
 9629TIP3   OH228771   9.372   4.284   3.231
 9629TIP3    H128772   9.340   4.317   3.147
 9629TIP3    H228773   9.382   4.190   3.218
 9630TIP3   OH228774   8.938   4.387   3.231
 9630TIP3    H128775   9.022   4.411   3.270
 9630TIP3    H228776   8.959   4.319   3.168
 9631TIP3   OH228777   9.422   4.571   3.046
 9631TIP3    H128778   9.509   4.540   3.070
 9631TIP3    H228779   9.370   4.491   3.036
 9632TIP3   OH228780   9.281   4.109   3.642
 9632TIP3    H128781   9.241   4.082   3.559
 9632TIP3    H228782   9.210   4.154   3.688
 9633TIP3   OH228783   9.363   4.984   3.330
 9633TIP3    H128784   9.296   5.039   3.371
 9633TIP3    H228785   9.443   5.002   3.380
 9634TIP3   OH228786   9.083   4.273   3.473
 9634TIP3    H128787   9.112   4.361   3.450
 9634TIP3    H228788   9.145   4.215   3.429
 9635TIP3   OH228789   9.182   5.167   3.433
 9635TIP3    H128790   9.189   5.262   3.423
 9635TIP3    H228791   9.109   5.154   3.494
 9636TIP3   OH228792   8.628   4.872   2.703
 9636TIP3    H128793   8.583   4.885   2.619
 9636TIP3    H228794   8.648   4.960   2.733
 9637TIP3   OH228795   8.982   4.741   2.964
 9637TIP3    H128796   8.941   4.758   2.879
 9637TIP3    H228797   9.072   4.717   2.942
 9638TIP3   OH228798   9.307   5.243   3.037
 9638TIP3    H128799   9.280   5.152   3.046
 9638TIP3    H228800   9.401   5.243   3.056
 9639TIP3   OH228801   9.269   4.721   3.228
 9639TIP3    H128802   9.331   4.683   3.166
 9639TIP3    H228803   9.317   4.794   3.268
 9640TIP3   OH228804   9.370   5.243   3.639
 9640TIP3    H128805   9.330   5.318   3.682
 9640TIP3    H228806   9.300   5.204   3.588
 9641TIP3   OH228807   9.138   4.877   3.697
 9641TIP3    H128808   9.142   4.963   3.740
 9641TIP3    H228809   9.069   4.830   3.744
 9642TIP3   OH228810   9.581   5.307   2.542
 9642TIP3    H128811   9.615   5.301   2.631
 9642TIP3    H228812   9.619   5.389   2.507
 9643TIP3   OH228813   9.211   5.453   3.710
 9643TIP3    H128814   9.184   5.462   3.619
 9643TIP3    H228815   9.130   5.439   3.759
 9644TIP3   OH228816   9.061   4.624   2.668
 9644TIP3    H128817   8.979   4.663   2.636
 9644TIP3    H228818   9.032   4.558   2.731
 9645TIP3   OH228819   8.822   4.976   3.643
 9645TIP3    H128820   8.756   4.957   3.576
 9645TIP3    H228821   8.854   4.890   3.671
 9646TIP3   OH228822   8.712   5.161   3.286
 9646TIP3    H128823   8.807   5.169   3.274
 9646TIP3    H228824   8.688   5.239   3.336
 9647TIP3   OH228825   9.570   5.331   3.480
 9647TIP3    H128826   9.599   5.420   3.501
 9647TIP3    H228827   9.501   5.313   3.545
 9648TIP3   OH228828   9.412   5.573   2.401
 9648TIP3    H128829   9.349   5.501   2.405
 9648TIP3    H228830   9.359   5.651   2.417
 9649TIP3   OH228831   8.851   5.358   2.801
 9649TIP3    H128832   8.889   5.353   2.889
 9649TIP3    H228833   8.797   5.280   2.794
 9650TIP3   OH228834   8.981   5.195   3.612
 9650TIP3    H128835   9.031   5.191   3.694
 9650TIP3    H228836   8.920   5.122   3.618
 9651TIP3   OH228837   9.476   3.954   3.396
 9651TIP3    H128838   9.471   3.921   3.307
 9651TIP3    H228839   9.399   4.011   3.405
 9652TIP3   OH228840   9.497   4.532   3.373
 9652TIP3    H128841   9.467   4.457   3.423
 9652TIP3    H228842   9.545   4.494   3.299
 9653TIP3   OH228843   9.265   4.348   2.988
 9653TIP3    H128844   9.177   4.312   2.985
 9653TIP3    H228845   9.286   4.369   2.897
 9654TIP3   OH228846   9.173   4.501   3.669
 9654TIP3    H128847   9.188   4.557   3.746
 9654TIP3    H228848   9.143   4.418   3.705
 9655TIP3   OH228849   9.260   4.017   2.340
 9655TIP3    H128850   9.183   4.028   2.396
 9655TIP3    H228851   9.225   4.022   2.251
 9656TIP3   OH228852   8.741   4.046   3.211
 9656TIP3    H128853   8.788   4.078   3.288
 9656TIP3    H228854   8.801   4.061   3.138
 9657TIP3   OH228855   8.696   4.016   2.743
 9657TIP3    H128856   8.742   4.053   2.667
 9657TIP3    H228857   8.630   4.081   2.766
 9658TIP3   OH228858   8.999   4.211   3.026
 9658TIP3    H128859   8.910   4.215   2.991
 9658TIP3    H228860   9.034   4.127   2.995
 9659TIP3   OH228861   9.156   4.245   2.701
 9659TIP3    H128862   9.230   4.305   2.705
 9659TIP3    H228863   9.126   4.248   2.611
 9660TIP3   OH228864   9.089   4.231   2.441
 9660TIP3    H128865   9.006   4.218   2.394
 9660TIP3    H228866   9.148   4.268   2.375
 9661TIP3   OH228867   9.137   5.119   3.831
 9661TIP3    H128868   9.225   5.133   3.865
 9661TIP3    H228869   9.081   5.117   3.909
 9662TIP3   OH228870   9.119   3.971   2.948
 9662TIP3    H128871   9.087   3.901   3.006
 9662TIP3    H228872   9.104   3.938   2.860
 9663TIP3   OH228873   9.375   4.844   2.527
 9663TIP3    H128874   9.436   4.770   2.520
 9663TIP3    H228875   9.363   4.856   2.621
 9664TIP3   OH228876   0.008   5.189   3.402
 9664TIP3    H128877   0.048   5.158   3.483
 9664TIP3    H228878  -0.017   5.279   3.420
 9665TIP3   OH228879   9.031   4.877   3.197
 9665TIP3    H128880   8.994   4.828   3.123
 9665TIP3    H228881   9.083   4.812   3.245
 9666TIP3   OH228882   8.906   4.744   3.775
 9666TIP3    H128883   8.911   4.711   3.865
 9666TIP3    H228884   8.833   4.695   3.736
 9667TIP3   OH228885   9.694   4.811   3.732
 9667TIP3    H128886   9.599   4.824   3.733
 9667TIP3    H228887   9.707   4.730   3.682
 9668TIP3   OH228888   9.103   5.124   2.775
 9668TIP3    H128889   9.118   5.214   2.745
 9668TIP3    H228890   9.013   5.126   2.809
 9669TIP3   OH228891   8.741   4.445   2.525
 9669TIP3    H128892   8.780   4.532   2.537
 9669TIP3    H228893   8.660   4.447   2.575
 9670TIP3   OH228894   9.307   4.929   2.779
 9670TIP3    H128895   9.243   4.998   2.797
 9670TIP3    H228896   9.272   4.852   2.825
 9671TIP3   OH228897   9.415   5.445   3.279
 9671TIP3    H128898   9.465   5.522   3.253
 9671TIP3    H228899   9.472   5.398   3.340
 9672TIP3   OH228900   9.081   5.401   2.662
 9672TIP3    H128901   8.995   5.389   2.703
 9672TIP3    H228902   9.088   5.495   2.647
 9673TIP3   OH228903   9.110   4.258   3.795
 9673TIP3    H128904   9.016   4.271   3.802
 9673TIP3    H228905   9.135   4.216   3.877
 9674TIP3   OH228906   8.870   5.392   3.435
 9674TIP3    H128907   8.908   5.329   3.496
 9674TIP3    H228908   8.883   5.477   3.477
 9675TIP3   OH228909   9.062   4.943   2.073
 9675TIP3    H128910   9.064   4.848   2.087
 9675TIP3    H228911   9.029   4.979   2.155
 9676TIP3   OH228912   9.016   5.059   2.316
 9676TIP3    H128913   9.070   5.005   2.374
 9676TIP3    H228914   9.018   5.146   2.355
 9677TIP3   OH228915   8.817   4.715   2.578
 9677TIP3    H128916   8.751   4.757   2.632
 9677TIP3    H228917   8.827   4.772   2.502
 9678TIP3   OH228918   9.376   5.207   2.241
 9678TIP3    H128919   9.345   5.251   2.320
 9678TIP3    H228920   9.471   5.200   2.254
 9679TIP3   OH228921   9.029   5.320   2.394
 9679TIP3    H128922   9.048   5.400   2.345
 9679TIP3    H228923   9.058   5.339   2.484
 9680TIP3   OH228924   9.141   3.968   2.644
 9680TIP3    H128925   9.121   4.061   2.656
 9680TIP3    H228926   9.234   3.961   2.664
 9681TIP3   OH228927   8.802   4.888   2.350
 9681TIP3    H128928   8.867   4.958   2.343
 9681TIP3    H228929   8.838   4.818   2.294
 9682TIP3   OH228930   8.773   4.169   2.530
 9682TIP3    H128931   8.779   4.263   2.541
 9682TIP3    H228932   8.729   4.157   2.446
 9683TIP3   OH228933   9.044   3.853   3.390
 9683TIP3    H128934   9.037   3.823   3.300
 9683TIP3    H228935   9.072   3.775   3.439
 9684TIP3   OH228936   8.679   5.140   2.780
 9684TIP3    H128937   8.631   5.173   2.856
 9684TIP3    H228938   8.637   5.181   2.705
 9685TIP3   OH228939   8.891   5.680   3.850
 9685TIP3    H128940   8.961   5.691   3.915
 9685TIP3    H228941   8.894   5.587   3.827
 9686TIP3   OH228942   9.305   5.661   3.873
 9686TIP3    H128943   9.397   5.684   3.858
 9686TIP3    H228944   9.290   5.583   3.819
 9687TIP3   OH228945   9.356   5.259   1.956
 9687TIP3    H128946   9.275   5.250   2.005
 9687TIP3    H228947   9.413   5.191   1.990
 9688TIP3   OH228948   8.964   5.086   4.048
 9688TIP3    H128949   8.995   4.995   4.048
 9688TIP3    H228950   8.878   5.082   4.006
 9689TIP3   OH228951   8.912   4.677   2.216
 9689TIP3    H128952   8.936   4.619   2.288
 9689TIP3    H228953   8.986   4.671   2.155
 9690TIP3   OH228954   9.590   5.163   3.780
 9690TIP3    H128955   9.521   5.182   3.716
 9690TIP3    H228956   9.671   5.168   3.729
 9691TIP3   OH228957   9.074   4.836   4.026
 9691TIP3    H128958   9.127   4.768   3.983
 9691TIP3    H228959   9.113   4.844   4.113
 9692TIP3   OH228960   9.047   4.538   2.402
 9692TIP3    H128961   9.069   4.546   2.495
 9692TIP3    H228962   9.111   4.475   2.368
 9693TIP3   OH228963   9.494   4.598   3.695
 9693TIP3    H128964   9.428   4.656   3.656
 9693TIP3    H228965   9.559   4.586   3.626
 9694TIP3   OH228966   9.256   4.378   2.272
 9694TIP3    H128967   9.241   4.389   2.178
 9694TIP3    H228968   9.349   4.358   2.278
 9695TIP3   OH228969   9.431   4.381   3.841
 9695TIP3    H128970   9.470   4.316   3.783
 9695TIP3    H228971   9.426   4.460   3.788
 9696TIP3   OH228972   9.600   4.212   3.671
 9696TIP3    H128973   9.689   4.245   3.682
 9696TIP3    H228974   9.579   4.226   3.579
 9697TIP3   OH228975   9.619   4.785   3.368
 9697TIP3    H128976   9.600   4.691   3.367
 9697TIP3    H228977   9.544   4.824   3.414
 9698TIP3   OH228978   9.473   4.505   4.085
 9698TIP3    H128979   9.395   4.462   4.119
 9698TIP3    H228980   9.477   4.479   3.993
 9699TIP3   OH228981   9.253   4.359   4.155
 9699TIP3    H128982   9.256   4.276   4.107
 9699TIP3    H228983   9.269   4.334   4.246
 9700TIP3   OH228984   9.111   5.525   2.228
 9700TIP3    H128985   9.203   5.523   2.202
 9700TIP3    H228986   9.067   5.573   2.159
 9701TIP3   OH228987   8.548   4.846   2.428
 9701TIP3    H128988   8.636   4.873   2.402
 9701TIP3    H228989   8.536   4.761   2.386
 9702TIP3   OH228990   8.484   5.449   2.872
 9702TIP3    H128991   8.421   5.394   2.826
 9702TIP3    H228992   8.529   5.388   2.931
 9703TIP3   OH228993   8.632   5.284   3.038
 9703TIP3    H128994   8.629   5.214   3.102
 9703TIP3    H228995   8.677   5.356   3.082
 9704TIP3   OH228996   8.807   4.711   3.404
 9704TIP3    H128997   8.802   4.681   3.313
 9704TIP3    H228998   8.900   4.713   3.424
 9705TIP3   OH228999   9.002   4.400   4.058
 9705TIP3    H129000   9.094   4.399   4.084
 9705TIP3    H229001   8.968   4.315   4.084
 9706TIP3   OH229002   8.891   4.083   3.435
 9706TIP3    H129003   8.945   4.004   3.431
 9706TIP3    H229004   8.954   4.153   3.451
 9707TIP3   OH229005   8.757   4.381   3.452
 9707TIP3    H129006   8.808   4.369   3.372
 9707TIP3    H229007   8.804   4.449   3.500
 9708TIP3   OH229008   8.767   3.862   2.956
 9708TIP3    H129009   8.686   3.861   3.007
 9708TIP3    H229010   8.749   3.923   2.884
 9709TIP3   OH229011   8.976   3.948   3.781
 9709TIP3    H129012   8.939   3.939   3.869
 9709TIP3    H229013   8.912   3.999   3.732
 9710TIP3   OH229014   8.993   5.414   3.869
 9710TIP3    H129015   8.903   5.381   3.871
 9710TIP3    H229016   9.022   5.412   3.960
 9711TIP3   OH229017   9.189   5.438   3.431
 9711TIP3    H129018   9.135   5.505   3.389
 9711TIP3    H229019   9.274   5.444   3.387
 9712TIP3   OH229020   9.617   5.600   3.505
 9712TIP3    H129021   9.562   5.631   3.576
 9712TIP3    H229022   9.700   5.647   3.516
 9713TIP3   OH229023   8.881   5.681   3.471
 9713TIP3    H129024   8.790   5.703   3.451
 9713TIP3    H229025   8.908   5.749   3.533
 9714TIP3   OH229026   9.082   5.645   3.290
 9714TIP3    H129027   9.008   5.661   3.349
 9714TIP3    H229028   9.059   5.689   3.209
 9715TIP3   OH229029   9.482   5.679   3.117
 9715TIP3    H129030   9.418   5.732   3.166
 9715TIP3    H229031   9.562   5.684   3.169
 9716TIP3   OH229032   0.100   5.683   3.161
 9716TIP3    H129033   0.019   5.717   3.200
 9716TIP3    H229034   0.133   5.756   3.109
 9717TIP3   OH229035   8.791   5.480   3.184
 9717TIP3    H129036   8.821   5.455   3.272
 9717TIP3    H229037   8.859   5.447   3.125
 9718TIP3   OH229038   8.983   5.354   3.039
 9718TIP3    H129039   8.997   5.279   3.097
 9718TIP3    H229040   9.066   5.402   3.041
 9719TIP3   OH229041   9.223   5.498   3.053
 9719TIP3    H129042   9.259   5.410   3.045
 9719TIP3    H229043   9.255   5.529   3.138
 9720TIP3   OH229044   9.051   3.773   3.124
 9720TIP3    H129045   8.964   3.733   3.133
 9720TIP3    H229046   9.111   3.699   3.129
 9721TIP3   OH229047   8.910   3.678   2.806
 9721TIP3    H129048   8.910   3.723   2.721
 9721TIP3    H229049   8.863   3.738   2.865
 9722TIP3   OH229050   8.568   5.261   2.560
 9722TIP3    H129051   8.487   5.230   2.521
 9722TIP3    H229052   8.574   5.353   2.533
 9723TIP3   OH229053   8.945   3.802   2.557
 9723TIP3    H129054   8.992   3.740   2.502
 9723TIP3    H229055   9.013   3.863   2.588
 9724TIP3   OH229056   9.355   5.491   2.119
 9724TIP3    H129057   9.434   5.507   2.170
 9724TIP3    H229058   9.365   5.401   2.088
 9725TIP3   OH229059   9.221   4.123   4.013
 9725TIP3    H129060   9.213   4.055   4.080
 9725TIP3    H229061   9.303   4.102   3.968
 9726TIP3   OH229062   9.475   4.131   4.173
 9726TIP3    H129063   9.569   4.144   4.183
 9726TIP3    H229064   9.463   4.036   4.178
 9727TIP3   OH229065   8.643   5.233   2.248
 9727TIP3    H129066   8.670   5.253   2.338
 9727TIP3    H229067   8.724   5.207   2.204
 9728TIP3   OH229068   0.517   5.373   4.922
 9728TIP3    H129069   0.489   5.464   4.921
 9728TIP3    H229070   0.448   5.325   4.875
 9729TIP3   OH229071   0.500   5.350   5.293
 9729TIP3    H129072   0.465   5.324   5.378
 9729TIP3    H229073   0.438   5.314   5.229
 9730TIP3   OH229074   0.706   5.662   4.979
 9730TIP3    H129075   0.707   5.590   5.042
 9730TIP3    H229076   0.729   5.739   5.030
 9731TIP3   OH229077   0.295   6.027   5.029
 9731TIP3    H129078   0.378   6.047   4.985
 9731TIP3    H229079   0.317   6.022   5.122
 9732TIP3   OH229080   0.227   5.470   5.345
 9732TIP3    H129081   0.244   5.381   5.314
 9732TIP3    H229082   0.277   5.526   5.286
 9733TIP3   OH229083   1.275   4.889   5.346
 9733TIP3    H129084   1.293   4.972   5.390
 9733TIP3    H229085   1.281   4.909   5.253
 9734TIP3   OH229086   0.640   5.048   5.383
 9734TIP3    H129087   0.684   4.963   5.390
 9734TIP3    H229088   0.618   5.056   5.290
 9735TIP3   OH229089   9.788   4.831   5.336
 9735TIP3    H129090   9.709   4.863   5.293
 9735TIP3    H229091   9.770   4.739   5.354
 9736TIP3   OH229092   0.716   4.858   4.999
 9736TIP3    H129093   0.794   4.833   5.048
 9736TIP3    H229094   0.695   4.781   4.946
 9737TIP3   OH229095   9.758   5.156   5.321
 9737TIP3    H129096   9.801   5.106   5.253
 9737TIP3    H229097   9.666   5.156   5.297
 9738TIP3   OH229098   1.336   5.109   5.508
 9738TIP3    H129099   1.248   5.144   5.499
 9738TIP3    H229100   1.367   5.143   5.591
 9739TIP3   OH229101   0.373   5.558   4.742
 9739TIP3    H129102   0.326   5.527   4.665
 9739TIP3    H229103   0.331   5.641   4.764
 9740TIP3   OH229104   0.915   4.815   5.184
 9740TIP3    H129105   0.855   4.795   5.255
 9740TIP3    H229106   0.950   4.902   5.206
 9741TIP3   OH229107   0.754   5.903   5.134
 9741TIP3    H129108   0.676   5.893   5.188
 9741TIP3    H229109   0.743   5.986   5.089
 9742TIP3   OH229110   1.070   4.778   5.509
 9742TIP3    H129111   0.984   4.796   5.471
 9742TIP3    H229112   1.132   4.806   5.442
 9743TIP3   OH229113   0.370   4.393   5.496
 9743TIP3    H129114   0.361   4.301   5.522
 9743TIP3    H229115   0.284   4.432   5.515
 9744TIP3   OH229116   0.462   5.857   4.782
 9744TIP3    H129117   0.536   5.802   4.756
 9744TIP3    H229118   0.501   5.924   4.839
 9745TIP3   OH229119   0.642   5.666   4.708
 9745TIP3    H129120   0.568   5.605   4.708
 9745TIP3    H229121   0.680   5.657   4.796
 9746TIP3   OH229122   1.017   5.771   5.476
 9746TIP3    H129123   0.990   5.705   5.413
 9746TIP3    H229124   0.998   5.855   5.432
 9747TIP3   OH229125   0.358   5.235   4.747
 9747TIP3    H129126   0.270   5.271   4.736
 9747TIP3    H229127   0.388   5.215   4.659
 9748TIP3   OH229128   0.296   4.992   4.458
 9748TIP3    H129129   0.368   5.038   4.501
 9748TIP3    H229130   0.338   4.925   4.405
 9749TIP3   OH229131   1.162   5.448   5.340
 9749TIP3    H129132   1.076   5.490   5.341
 9749TIP3    H229133   1.196   5.465   5.252
 9750TIP3   OH229134   0.667   5.293   4.707
 9750TIP3    H129135   0.620   5.325   4.783
 9750TIP3    H229136   0.747   5.253   4.742
 9751TIP3   OH229137   0.905   5.335   5.658
 9751TIP3    H129138   0.886   5.414   5.710
 9751TIP3    H229139   0.823   5.317   5.611
 9752TIP3   OH229140   0.039   5.346   5.512
 9752TIP3    H129141  -0.010   5.298   5.445
 9752TIP3    H229142   0.102   5.399   5.463
 9753TIP3   OH229143   0.542   5.870   5.302
 9753TIP3    H129144   0.455   5.908   5.307
 9753TIP3    H229145   0.540   5.797   5.364
 9754TIP3   OH229146   0.519   5.128   4.545
 9754TIP3    H129147   0.578   5.188   4.592
 9754TIP3    H229148   0.537   5.144   4.453
 9755TIP3   OH229149   0.208   5.778   4.804
 9755TIP3    H129150   0.296   5.814   4.819
 9755TIP3    H229151   0.170   5.835   4.737
 9756TIP3   OH229152   0.945   4.372   4.619
 9756TIP3    H129153   0.867   4.395   4.669
 9756TIP3    H229154   0.961   4.449   4.563
 9757TIP3   OH229155   0.802   5.743   4.167
 9757TIP3    H129156   0.790   5.835   4.142
 9757TIP3    H229157   0.888   5.720   4.133
 9758TIP3   OH229158   1.223   6.177   5.542
 9758TIP3    H129159   1.232   6.082   5.547
 9758TIP3    H229160   1.141   6.196   5.588
 9759TIP3   OH229161   0.370   5.869   5.654
 9759TIP3    H129162   0.390   5.922   5.731
 9759TIP3    H229163   0.283   5.899   5.626
 9760TIP3   OH229164   0.087   5.944   4.622
 9760TIP3    H129165   0.044   5.862   4.597
 9760TIP3    H229166   0.016   6.008   4.627
 9761TIP3   OH229167   0.342   6.023   4.300
 9761TIP3    H129168   0.383   5.944   4.265
 9761TIP3    H229169   0.413   6.087   4.303
 9762TIP3   OH229170   0.377   6.037   4.589
 9762TIP3    H129171   0.377   5.949   4.627
 9762TIP3    H229172   0.454   6.079   4.627
 9763TIP3   OH229173   1.098   5.257   5.836
 9763TIP3    H129174   1.028   5.276   5.774
 9763TIP3    H229175   1.119   5.165   5.822
 9764TIP3   OH229176   0.070   4.494   5.611
 9764TIP3    H129177  -0.001   4.447   5.568
 9764TIP3    H229178   0.103   4.553   5.544
 9765TIP3   OH229179   0.652   4.619   5.839
 9765TIP3    H129180   0.728   4.597   5.894
 9765TIP3    H229181   0.577   4.585   5.888
 9766TIP3   OH229182   0.860   5.049   5.743
 9766TIP3    H129183   0.820   5.032   5.829
 9766TIP3    H229184   0.817   5.129   5.713
 9767TIP3   OH229185   0.558   5.159   4.281
 9767TIP3    H129186   0.509   5.148   4.200
 9767TIP3    H229187   0.637   5.207   4.255
 9768TIP3   OH229188   0.291   4.519   4.594
 9768TIP3    H129189   0.272   4.512   4.687
 9768TIP3    H229190   0.253   4.440   4.555
 9769TIP3   OH229191   9.686   5.095   5.683
 9769TIP3    H129192   9.757   5.083   5.745
 9769TIP3    H229193   9.723   5.149   5.613
 9770TIP3   OH229194   9.567   4.872   5.183
 9770TIP3    H129195   9.484   4.827   5.196
 9770TIP3    H229196   9.549   4.937   5.115
 9771TIP3   OH229197   0.405   5.004   4.881
 9771TIP3    H129198   0.396   5.089   4.839
 9771TIP3    H229199   0.472   4.959   4.828
 9772TIP3   OH229200   0.651   5.254   5.970
 9772TIP3    H129201   0.618   5.183   6.025
 9772TIP3    H229202   0.744   5.260   5.991
 9773TIP3   OH229203   0.556   5.035   5.123
 9773TIP3    H129204   0.489   5.055   5.058
 9773TIP3    H229205   0.610   4.968   5.081
 9774TIP3   OH229206   9.739   4.485   4.558
 9774TIP3    H129207   9.752   4.534   4.639
 9774TIP3    H229208   9.676   4.537   4.508
 9775TIP3   OH229209   0.672   5.255   5.557
 9775TIP3    H129210   0.666   5.198   5.481
 9775TIP3    H229211   0.615   5.215   5.623
 9776TIP3   OH229212   0.284   4.742   5.180
 9776TIP3    H129213   0.305   4.825   5.224
 9776TIP3    H229214   0.359   4.685   5.200
 9777TIP3   OH229215   9.730   4.894   4.932
 9777TIP3    H129216   9.720   4.834   5.006
 9777TIP3    H229217   9.724   4.837   4.855
 9778TIP3   OH229218   0.742   4.785   5.398
 9778TIP3    H129219   0.718   4.788   5.491
 9778TIP3    H229220   0.698   4.707   5.364
 9779TIP3   OH229221   9.488   4.897   4.614
 9779TIP3    H129222   9.447   4.830   4.668
 9779TIP3    H229223   9.537   4.849   4.548
 9780TIP3   OH229224   0.952   6.498   5.647
 9780TIP3    H129225   0.946   6.517   5.553
 9780TIP3    H229226   1.031   6.545   5.675
 9781TIP3   OH229227   0.363   4.960   5.317
 9781TIP3    H129228   0.434   4.997   5.265
 9781TIP3    H229229   0.405   4.931   5.398
 9782TIP3   OH229230   9.564   4.578   5.120
 9782TIP3    H129231   9.585   4.484   5.127
 9782TIP3    H229232   9.645   4.618   5.088
 9783TIP3   OH229233   0.362   4.901   5.590
 9783TIP3    H129234   0.279   4.948   5.576
 9783TIP3    H229235   0.415   4.962   5.642
 9784TIP3   OH229236   0.100   5.323   4.747
 9784TIP3    H129237   0.094   5.234   4.782
 9784TIP3    H229238   0.031   5.371   4.792
 9785TIP3   OH229239   0.933   5.589   5.294
 9785TIP3    H129240   0.967   5.642   5.221
 9785TIP3    H229241   0.854   5.548   5.259
 9786TIP3   OH229242   0.486   4.694   4.521
 9786TIP3    H129243   0.414   4.643   4.557
 9786TIP3    H229244   0.513   4.751   4.594
 9787TIP3   OH229245   0.516   5.645   5.741
 9787TIP3    H129246   0.544   5.623   5.830
 9787TIP3    H229247   0.452   5.715   5.753
 9788TIP3   OH229248   0.579   4.899   4.691
 9788TIP3    H129249   0.674   4.899   4.706
 9788TIP3    H229250   0.564   4.974   4.633
 9789TIP3   OH229251   0.180   5.501   4.551
 9789TIP3    H129252   0.118   5.574   4.558
 9789TIP3    H229253   0.139   5.430   4.601
 9790TIP3   OH229254   0.431   5.451   6.093
 9790TIP3    H129255   0.404   5.370   6.049
 9790TIP3    H229256   0.513   5.475   6.049
 9791TIP3   OH229257   0.640   5.903   5.598
 9791TIP3    H129258   0.558   5.867   5.632
 9791TIP3    H229259   0.680   5.948   5.673
 9792TIP3   OH229260   0.979   4.995   4.475
 9792TIP3    H129261   0.924   4.950   4.410
 9792TIP3    H229262   0.977   5.087   4.448
 9793TIP3   OH229263   1.248   5.903   5.564
 9793TIP3    H129264   1.159   5.873   5.583
 9793TIP3    H229265   1.271   5.859   5.482
 9794TIP3   OH229266   0.699   5.808   4.439
 9794TIP3    H129267   0.686   5.745   4.510
 9794TIP3    H229268   0.715   5.754   4.362
 9795TIP3   OH229269   0.722   5.456   5.174
 9795TIP3    H129270   0.644   5.424   5.219
 9795TIP3    H229271   0.758   5.379   5.131
 9796TIP3   OH229272   9.692   5.431   4.888
 9796TIP3    H129273   9.733   5.417   4.973
 9796TIP3    H229274   9.616   5.372   4.887
 9797TIP3   OH229275   0.521   5.634   5.463
 9797TIP3    H129276   0.532   5.634   5.558
 9797TIP3    H229277   0.565   5.554   5.433
 9798TIP3   OH229278   0.474   5.588   4.324
 9798TIP3    H129279   0.537   5.542   4.381
 9798TIP3    H229280   0.402   5.526   4.314
 9799TIP3   OH229281   0.758   6.180   5.458
 9799TIP3    H129282   0.676   6.132   5.451
 9799TIP3    H229283   0.759   6.237   5.381
 9800TIP3   OH229284   0.793   6.013   4.102
 9800TIP3    H129285   0.816   6.073   4.031
 9800TIP3    H229286   0.716   6.053   4.142
 9801TIP3   OH229287   0.655   5.453   4.480
 9801TIP3    H129288   0.644   5.403   4.561
 9801TIP3    H229289   0.749   5.468   4.474
 9802TIP3   OH229290   9.674   5.540   4.322
 9802TIP3    H129291   9.686   5.452   4.286
 9802TIP3    H229292   9.605   5.529   4.388
 9803TIP3   OH229293   0.701   4.827   5.666
 9803TIP3    H129294   0.773   4.877   5.705
 9803TIP3    H229295   0.682   4.759   5.731
 9804TIP3   OH229296   9.776   5.700   4.556
 9804TIP3    H129297   9.696   5.655   4.583
 9804TIP3    H229298   9.775   5.697   4.461
 9805TIP3   OH229299   0.237   4.789   4.922
 9805TIP3    H129300   0.298   4.856   4.890
 9805TIP3    H229301   0.263   4.774   5.013
 9806TIP3   OH229302   0.551   5.063   5.709
 9806TIP3    H129303   0.504   5.038   5.789
 9806TIP3    H229304   0.606   4.987   5.689
 9807TIP3   OH229305   9.773   4.457   4.867
 9807TIP3    H129306   9.751   4.548   4.887
 9807TIP3    H229307   9.868   4.453   4.876
 9808TIP3   OH229308   1.121   4.987   5.718
 9808TIP3    H129309   1.028   5.006   5.730
 9808TIP3    H229310   1.125   4.928   5.643
 9809TIP3   OH229311   0.796   5.193   5.104
 9809TIP3    H129312   0.711   5.150   5.115
 9809TIP3    H229313   0.855   5.146   5.163
 9810TIP3   OH229314   0.776   6.173   5.036
 9810TIP3    H129315   0.748   6.239   4.973
 9810TIP3    H229316   0.872   6.175   5.032
 9811TIP3   OH229317   0.084   5.698   4.289
 9811TIP3    H129318   0.014   5.634   4.292
 9811TIP3    H229319   0.104   5.707   4.195
 9812TIP3   OH229320   0.745   6.034   5.809
 9812TIP3    H129321   0.722   5.992   5.892
 9812TIP3    H229322   0.796   6.111   5.835
 9813TIP3   OH229323   0.450   5.811   4.161
 9813TIP3    H129324   0.461   5.735   4.217
 9813TIP3    H229325   0.482   5.783   4.075
 9814TIP3   OH229326   0.161   5.734   6.093
 9814TIP3    H129327   0.178   5.658   6.037
 9814TIP3    H229328   0.145   5.697   6.180
 9815TIP3   OH229329   0.252   5.431   4.295
 9815TIP3    H129330   0.228   5.457   4.384
 9815TIP3    H229331   0.183   5.370   4.269
 9816TIP3   OH229332   0.794   5.676   5.605
 9816TIP3    H129333   0.871   5.713   5.561
 9816TIP3    H229334   0.726   5.743   5.595
 9817TIP3   OH229335   9.673   5.112   4.704
 9817TIP3    H129336   9.620   5.041   4.740
 9817TIP3    H229337   9.733   5.069   4.643
 9818TIP3   OH229338   0.063   5.292   5.779
 9818TIP3    H129339   0.122   5.361   5.808
 9818TIP3    H229340   0.055   5.305   5.685
 9819TIP3   OH229341   0.026   4.985   4.514
 9819TIP3    H129342   0.004   5.018   4.427
 9819TIP3    H229343   0.122   4.982   4.515
 9820TIP3   OH229344   0.664   5.564   5.998
 9820TIP3    H129345   0.733   5.556   5.933
 9820TIP3    H229346   0.699   5.522   6.076
 9821TIP3   OH229347   0.775   5.275   4.156
 9821TIP3    H129348   0.757   5.234   4.071
 9821TIP3    H229349   0.742   5.364   4.146
 9822TIP3   OH229350   0.171   4.950   6.135
 9822TIP3    H129351   0.098   4.891   6.155
 9822TIP3    H229352   0.146   4.992   6.053
 9823TIP3   OH229353   0.290   4.688   5.753
 9823TIP3    H129354   0.340   4.753   5.705
 9823TIP3    H229355   0.200   4.697   5.720
 9824TIP3   OH229356   0.318   5.405   5.709
 9824TIP3    H129357   0.341   5.348   5.636
 9824TIP3    H229358   0.309   5.492   5.669
 9825TIP3   OH229359   0.915   5.254   6.063
 9825TIP3    H129360   0.942   5.169   6.097
 9825TIP3    H229361   0.980   5.275   5.996
 9826TIP3   OH229362   0.888   5.560   5.825
 9826TIP3    H129363   0.834   5.603   5.758
 9826TIP3    H229364   0.977   5.572   5.794
 9827TIP3   OH229365   0.405   4.491   5.901
 9827TIP3    H129366   0.373   4.565   5.850
 9827TIP3    H229367   0.345   4.419   5.879
 9828TIP3   OH229368   0.525   5.048   6.103
 9828TIP3    H129369   0.504   4.996   6.180
 9828TIP3    H229370   0.469   5.012   6.034
 9829TIP3   OH229371   0.765   4.968   5.981
 9829TIP3    H129372   0.689   4.981   6.038
 9829TIP3    H229373   0.839   4.956   6.040
 9830TIP3   OH229374   0.997   4.962   6.133
 9830TIP3    H129375   1.005   4.867   6.143
 9830TIP3    H229376   0.988   4.994   6.223
 9831TIP3   OH229377   0.480   4.510   6.168
 9831TIP3    H129378   0.549   4.445   6.158
 9831TIP3    H229379   0.441   4.518   6.081
 9832TIP3   OH229380   0.573   4.754   6.266
 9832TIP3    H129381   0.566   4.660   6.247
 9832TIP3    H229382   0.511   4.769   6.337
 9833TIP3   OH229383   1.042   6.225   5.046
 9833TIP3    H129384   1.056   6.254   5.136
 9833TIP3    H229385   1.090   6.289   4.993
 9834TIP3   OH229386   1.051   6.253   5.323
 9834TIP3    H129387   1.012   6.166   5.322
 9834TIP3    H229388   1.124   6.245   5.385
 9835TIP3   OH229389   1.127   5.951   5.872
 9835TIP3    H129390   1.053   5.956   5.932
 9835TIP3    H229391   1.170   6.036   5.881
 9836TIP3   OH229392   0.932   5.465   4.501
 9836TIP3    H129393   0.990   5.538   4.476
 9836TIP3    H229394   0.973   5.428   4.579
 9837TIP3   OH229395   1.057   5.320   4.704
 9837TIP3    H129396   0.995   5.274   4.760
 9837TIP3    H229397   1.121   5.358   4.765
 9838TIP3   OH229398   1.109   5.736   5.139
 9838TIP3    H129399   1.159   5.668   5.093
 9838TIP3    H229400   1.110   5.811   5.080
 9839TIP3   OH229401   0.931   5.996   5.333
 9839TIP3    H129402   0.862   6.037   5.385
 9839TIP3    H229403   0.885   5.956   5.260
 9840TIP3   OH229404   0.963   5.239   4.351
 9840TIP3    H129405   0.896   5.245   4.282
 9840TIP3    H229406   0.948   5.316   4.405
 9841TIP3   OH229407   0.841   4.884   4.268
 9841TIP3    H129408   0.780   4.922   4.204
 9841TIP3    H229409   0.825   4.790   4.263
 9842TIP3   OH229410   0.872   5.163   4.839
 9842TIP3    H129411   0.863   5.069   4.820
 9842TIP3    H229412   0.848   5.171   4.931
 9843TIP3   OH229413   1.127   5.603   5.694
 9843TIP3    H129414   1.190   5.536   5.668
 9843TIP3    H229415   1.104   5.648   5.613
 9844TIP3   OH229416   1.301   5.385   5.693
 9844TIP3    H129417   1.230   5.347   5.745
 9844TIP3    H229418   1.378   5.331   5.715
 9845TIP3   OH229419   0.789   4.614   4.260
 9845TIP3    H129420   0.842   4.593   4.337
 9845TIP3    H229421   0.703   4.576   4.280
 9846TIP3   OH229422   0.856   4.906   4.712
 9846TIP3    H129423   0.895   4.822   4.735
 9846TIP3    H229424   0.903   4.934   4.633
 9847TIP3   OH229425   0.997   5.069   5.259
 9847TIP3    H129426   1.077   5.087   5.210
 9847TIP3    H229427   1.011   5.111   5.344
 9848TIP3   OH229428   1.084   5.222   5.477
 9848TIP3    H129429   1.019   5.253   5.540
 9848TIP3    H229430   1.112   5.301   5.430
 9849TIP3   OH229431   1.539   4.815   6.019
 9849TIP3    H129432   1.599   4.757   5.972
 9849TIP3    H229433   1.498   4.868   5.951
 9850TIP3   OH229434   0.955   4.651   4.776
 9850TIP3    H129435   1.001   4.637   4.859
 9850TIP3    H229436   0.881   4.590   4.780
 9851TIP3   OH229437   1.387   4.937   5.830
 9851TIP3    H129438   1.316   4.979   5.879
 9851TIP3    H229439   1.343   4.878   5.770
 9852TIP3   OH229440   1.006   4.563   4.427
 9852TIP3    H129441   1.055   4.504   4.370
 9852TIP3    H229442   1.059   4.643   4.431
 9853TIP3   OH229443   0.618   6.156   4.657
 9853TIP3    H129444   0.671   6.117   4.587
 9853TIP3    H229445   0.651   6.245   4.666
 9854TIP3   OH229446   0.223   6.127   5.679
 9854TIP3    H129447   0.217   6.160   5.769
 9854TIP3    H229448   0.238   6.205   5.626
 9855TIP3   OH229449   0.579   6.386   5.549
 9855TIP3    H129450   0.632   6.309   5.529
 9855TIP3    H229451   0.622   6.426   5.624
 9856TIP3   OH229452   1.288   4.687   5.714
 9856TIP3    H129453   1.201   4.685   5.677
 9856TIP3    H229454   1.319   4.597   5.711
 9857TIP3   OH229455   0.197   6.288   5.221
 9857TIP3    H129456   0.103   6.284   5.203
 9857TIP3    H229457   0.204   6.329   5.307
 9858TIP3   OH229458   0.512   6.222   5.243
 9858TIP3    H129459   0.492   6.186   5.330
 9858TIP3    H229460   0.586   6.281   5.258
 9859TIP3   OH229461   0.749   6.353   5.245
 9859TIP3    H129462   0.749   6.443   5.210
 9859TIP3    H229463   0.766   6.298   5.168
 9860TIP3   OH229464   0.478   4.601   5.330
 9860TIP3    H129465   0.476   4.520   5.382
 9860TIP3    H229466   0.515   4.574   5.246
 9861TIP3   OH229467   1.018   4.508   5.222
 9861TIP3    H129468   1.051   4.564   5.151
 9861TIP3    H229469   0.926   4.532   5.229
 9862TIP3   OH229470   1.124   4.602   4.987
 9862TIP3    H129471   1.197   4.545   4.962
 9862TIP3    H229472   1.159   4.691   4.979
 9863TIP3   OH229473   0.361   4.307   5.219
 9863TIP3    H129474   0.397   4.375   5.163
 9863TIP3    H229475   0.359   4.346   5.306
 9864TIP3   OH229476   0.747   4.528   5.231
 9864TIP3    H129477   0.692   4.523   5.153
 9864TIP3    H229478   0.731   4.447   5.278
 9865TIP3   OH229479   0.750   4.461   4.806
 9865TIP3    H129480   0.674   4.497   4.852
 9865TIP3    H229481   0.752   4.369   4.833
 9866TIP3   OH229482   9.408   4.402   4.790
 9866TIP3    H129483   9.429   4.353   4.711
 9866TIP3    H229484   9.441   4.347   4.862
 9867TIP3   OH229485   0.245   4.521   4.865
 9867TIP3    H129486   0.324   4.498   4.914
 9867TIP3    H229487   0.240   4.616   4.871
 9868TIP3   OH229488   0.047   5.963   4.340
 9868TIP3    H129489   0.060   5.873   4.309
 9868TIP3    H229490  -0.048   5.976   4.336
 9869TIP3   OH229491   0.757   6.073   4.434
 9869TIP3    H129492   0.741   5.978   4.435
 9869TIP3    H229493   0.716   6.103   4.353
 9870TIP3   OH229494   0.229   4.563   6.267
 9870TIP3    H129495   0.321   4.551   6.246
 9870TIP3    H229496   0.222   4.538   6.360
 9871TIP3   OH229497   1.048   4.692   6.148
 9871TIP3    H129498   1.061   4.660   6.237
 9871TIP3    H229499   1.134   4.684   6.107
 9872TIP3   OH229500   0.972   6.224   5.639
 9872TIP3    H129501   0.897   6.192   5.588
 9872TIP3    H229502   0.958   6.319   5.646
 9873TIP3   OH229503   2.232   5.610   4.385
 9873TIP3    H129504   2.202   5.697   4.360
 9873TIP3    H229505   2.160   5.551   4.359
 9874TIP3   OH229506   2.231   5.602   4.808
 9874TIP3    H129507   2.284   5.586   4.886
 9874TIP3    H229508   2.185   5.519   4.794
 9875TIP3   OH229509   1.529   5.468   5.150
 9875TIP3    H129510   1.566   5.415   5.221
 9875TIP3    H229511   1.604   5.492   5.096
 9876TIP3   OH229512   2.499   5.910   4.485
 9876TIP3    H129513   2.487   5.844   4.555
 9876TIP3    H229514   2.519   5.991   4.532
 9877TIP3   OH229515   1.524   5.887   4.835
 9877TIP3    H129516   1.505   5.793   4.845
 9877TIP3    H229517   1.620   5.890   4.829
 9878TIP3   OH229518   1.207   5.097   4.618
 9878TIP3    H129519   1.167   5.180   4.646
 9878TIP3    H229520   1.136   5.049   4.576
 9879TIP3   OH229521   1.286   5.408   4.845
 9879TIP3    H129522   1.336   5.331   4.873
 9879TIP3    H229523   1.352   5.473   4.822
 9880TIP3   OH229524   2.154   6.339   4.492
 9880TIP3    H129525   2.183   6.275   4.428
 9880TIP3    H229526   2.151   6.291   4.575
 9881TIP3   OH229527   2.040   5.823   4.812
 9881TIP3    H129528   2.087   5.744   4.784
 9881TIP3    H229529   2.109   5.881   4.846
 9882TIP3   OH229530   3.093   5.136   4.839
 9882TIP3    H129531   3.106   5.221   4.882
 9882TIP3    H229532   3.126   5.149   4.750
 9883TIP3   OH229533   2.437   5.308   4.851
 9883TIP3    H129534   2.471   5.222   4.877
 9883TIP3    H229535   2.404   5.295   4.762
 9884TIP3   OH229536   1.801   4.968   4.804
 9884TIP3    H129537   1.778   5.043   4.748
 9884TIP3    H229538   1.742   4.898   4.774
 9885TIP3   OH229539   2.495   5.073   4.444
 9885TIP3    H129540   2.558   5.068   4.515
 9885TIP3    H229541   2.544   5.109   4.370
 9886TIP3   OH229542   1.425   5.188   4.943
 9886TIP3    H129543   1.508   5.169   4.987
 9886TIP3    H229544   1.427   5.136   4.862
 9887TIP3   OH229545   1.844   5.385   4.753
 9887TIP3    H129546   1.938   5.369   4.760
 9887TIP3    H229547   1.808   5.304   4.719
 9888TIP3   OH229548   3.129   5.362   4.996
 9888TIP3    H129549   3.041   5.398   4.990
 9888TIP3    H229550   3.161   5.392   5.081
 9889TIP3   OH229551   1.783   4.982   5.265
 9889TIP3    H129552   1.735   5.018   5.190
 9889TIP3    H229553   1.726   4.999   5.340
 9890TIP3   OH229554   2.129   5.828   4.248
 9890TIP3    H129555   2.090   5.799   4.166
 9890TIP3    H229556   2.077   5.904   4.274
 9891TIP3   OH229557   1.869   5.752   5.020
 9891TIP3    H129558   1.816   5.824   5.054
 9891TIP3    H229559   1.919   5.790   4.948
 9892TIP3   OH229560   2.652   5.096   4.665
 9892TIP3    H129561   2.609   5.072   4.747
 9892TIP3    H229562   2.709   5.170   4.688
 9893TIP3   OH229563   1.678   5.082   5.028
 9893TIP3    H129564   1.731   5.159   5.049
 9893TIP3    H229565   1.724   5.041   4.955
 9894TIP3   OH229566   1.718   5.956   5.128
 9894TIP3    H129567   1.704   6.046   5.098
 9894TIP3    H229568   1.641   5.936   5.182
 9895TIP3   OH229569   1.099   5.660   4.387
 9895TIP3    H129570   1.052   5.683   4.306
 9895TIP3    H229571   1.123   5.744   4.426
 9896TIP3   OH229572   2.535   6.157   4.625
 9896TIP3    H129573   2.448   6.150   4.664
 9896TIP3    H229574   2.533   6.240   4.577
 9897TIP3   OH229575   2.861   5.060   4.980
 9897TIP3    H129576   2.785   5.093   4.931
 9897TIP3    H229577   2.936   5.080   4.923
 9898TIP3   OH229578   2.105   4.688   4.975
 9898TIP3    H129579   2.096   4.596   4.999
 9898TIP3    H229580   2.033   4.732   5.021
 9899TIP3   OH229581   2.245   6.187   4.279
 9899TIP3    H129582   2.298   6.108   4.267
 9899TIP3    H229583   2.302   6.259   4.251
 9900TIP3   OH229584   2.380   5.954   4.240
 9900TIP3    H129585   2.305   5.895   4.240
 9900TIP3    H229586   2.430   5.931   4.318
 9901TIP3   OH229587   2.773   6.043   4.970
 9901TIP3    H129588   2.753   5.970   4.912
 9901TIP3    H229589   2.757   6.121   4.918
 9902TIP3   OH229590   2.057   5.448   4.237
 9902TIP3    H129591   1.974   5.492   4.220
 9902TIP3    H229592   2.104   5.450   4.154
 9903TIP3   OH229593   2.025   5.257   3.929
 9903TIP3    H129594   2.091   5.307   3.977
 9903TIP3    H229595   2.075   5.190   3.882
 9904TIP3   OH229596   2.945   5.708   4.835
 9904TIP3    H129597   2.861   5.753   4.833
 9904TIP3    H229598   2.981   5.722   4.747
 9905TIP3   OH229599   2.417   5.536   4.197
 9905TIP3    H129600   2.363   5.566   4.270
 9905TIP3    H229601   2.501   5.514   4.238
 9906TIP3   OH229602   2.648   5.571   5.143
 9906TIP3    H129603   2.643   5.655   5.189
 9906TIP3    H229604   2.568   5.567   5.091
 9907TIP3   OH229605   1.643   5.517   4.601
 9907TIP3    H129606   1.607   5.456   4.537
 9907TIP3    H229607   1.717   5.470   4.640
 9908TIP3   OH229608   1.788   5.939   4.743
 9908TIP3    H129609   1.764   5.928   4.651
 9908TIP3    H229610   1.876   5.901   4.749
 9909TIP3   OH229611   1.743   5.514   4.976
 9909TIP3    H129612   1.781   5.478   4.896
 9909TIP3    H229613   1.788   5.597   4.990
 9910TIP3   OH229614   2.299   6.150   4.758
 9910TIP3    H129615   2.281   6.232   4.804
 9910TIP3    H229616   2.279   6.082   4.822
 9911TIP3   OH229617   1.916   6.046   5.301
 9911TIP3    H129618   1.856   6.105   5.346
 9911TIP3    H229619   1.860   5.997   5.240
 9912TIP3   OH229620   2.247   5.399   4.028
 9912TIP3    H129621   2.307   5.457   4.075
 9912TIP3    H229622   2.277   5.403   3.937
 9913TIP3   OH229623   1.670   5.588   5.454
 9913TIP3    H129624   1.676   5.682   5.469
 9913TIP3    H229625   1.576   5.571   5.446
 9914TIP3   OH229626   1.996   6.069   4.284
 9914TIP3    H129627   2.078   6.118   4.290
 9914TIP3    H229628   1.936   6.129   4.239
 9915TIP3   OH229629   1.713   6.209   5.387
 9915TIP3    H129630   1.683   6.222   5.297
 9915TIP3    H229631   1.633   6.191   5.436
 9916TIP3   OH229632   2.758   4.626   4.092
 9916TIP3    H129633   2.682   4.651   4.145
 9916TIP3    H229634   2.771   4.701   4.032
 9917TIP3   OH229635   1.516   5.360   4.400
 9917TIP3    H129636   1.439   5.410   4.373
 9917TIP3    H229637   1.481   5.274   4.422
 9918TIP3   OH229638   2.583   6.001   3.646
 9918TIP3    H129639   2.575   6.094   3.623
 9918TIP3    H229640   2.673   5.978   3.622
 9919TIP3   OH229641   1.310   5.763   5.336
 9919TIP3    H129642   1.238   5.751   5.275
 9919TIP3    H229643   1.338   5.675   5.358
 9920TIP3   OH229644   1.150   5.972   4.992
 9920TIP3    H129645   1.240   5.996   5.013
 9920TIP3    H229646   1.098   6.049   5.017
 9921TIP3   OH229647   2.999   6.419   5.035
 9921TIP3    H129648   3.004   6.324   5.045
 9921TIP3    H229649   2.918   6.444   5.081
 9922TIP3   OH229650   2.103   6.193   5.165
 9922TIP3    H129651   2.094   6.285   5.193
 9922TIP3    H229652   2.035   6.146   5.212
 9923TIP3   OH229653   1.886   6.290   4.117
 9923TIP3    H129654   1.843   6.273   4.034
 9923TIP3    H229655   1.849   6.373   4.147
 9924TIP3   OH229656   1.325   6.143   4.489
 9924TIP3    H129657   1.367   6.137   4.575
 9924TIP3    H229658   1.274   6.063   4.481
 9925TIP3   OH229659   2.085   6.226   3.743
 9925TIP3    H129660   2.136   6.153   3.707
 9925TIP3    H229661   2.122   6.241   3.830
 9926TIP3   OH229662   2.140   6.270   4.012
 9926TIP3    H129663   2.055   6.272   4.055
 9926TIP3    H229664   2.199   6.236   4.080
 9927TIP3   OH229665   2.887   5.522   5.310
 9927TIP3    H129666   2.808   5.538   5.257
 9927TIP3    H229667   2.907   5.429   5.295
 9928TIP3   OH229668   1.507   5.953   5.304
 9928TIP3    H129669   1.554   5.941   5.387
 9928TIP3    H229670   1.434   5.890   5.309
 9929TIP3   OH229671   1.881   4.764   5.125
 9929TIP3    H129672   1.797   4.729   5.093
 9929TIP3    H229673   1.857   4.845   5.170
 9930TIP3   OH229674   2.632   5.308   5.229
 9930TIP3    H129675   2.610   5.312   5.322
 9930TIP3    H229676   2.629   5.399   5.200
 9931TIP3   OH229677   2.324   5.367   3.763
 9931TIP3    H129678   2.280   5.376   3.678
 9931TIP3    H229679   2.406   5.414   3.752
 9932TIP3   OH229680   2.033   4.792   4.087
 9932TIP3    H129681   1.996   4.801   4.175
 9932TIP3    H229682   1.996   4.711   4.053
 9933TIP3   OH229683   1.826   5.295   5.126
 9933TIP3    H129684   1.778   5.302   5.209
 9933TIP3    H229685   1.803   5.376   5.079
 9934TIP3   OH229686   1.703   5.171   4.648
 9934TIP3    H129687   1.613   5.150   4.674
 9934TIP3    H229688   1.710   5.138   4.558
 9935TIP3   OH229689   2.181   5.244   4.374
 9935TIP3    H129690   2.134   5.317   4.334
 9935TIP3    H229691   2.240   5.213   4.305
 9936TIP3   OH229692   2.367   5.513   5.448
 9936TIP3    H129693   2.347   5.445   5.513
 9936TIP3    H229694   2.458   5.536   5.466
 9937TIP3   OH229695   2.350   5.260   4.597
 9937TIP3    H129696   2.281   5.282   4.534
 9937TIP3    H229697   2.396   5.186   4.557
 9938TIP3   OH229698   1.661   5.313   5.345
 9938TIP3    H129699   1.661   5.381   5.413
 9938TIP3    H229700   1.640   5.232   5.393
 9939TIP3   OH229701   1.701   4.777   4.064
 9939TIP3    H129702   1.691   4.787   4.159
 9939TIP3    H229703   1.623   4.821   4.028
 9940TIP3   OH229704   1.256   4.827   4.922
 9940TIP3    H129705   1.327   4.863   4.976
 9940TIP3    H229706   1.294   4.816   4.835
 9941TIP3   OH229707   1.162   4.795   4.428
 9941TIP3    H129708   1.205   4.829   4.350
 9941TIP3    H229709   1.100   4.864   4.453
 9942TIP3   OH229710   2.398   5.514   5.022
 9942TIP3    H129711   2.420   5.446   4.959
 9942TIP3    H229712   2.351   5.469   5.092
 9943TIP3   OH229713   2.065   4.953   4.692
 9943TIP3    H129714   1.986   4.956   4.746
 9943TIP3    H229715   2.137   4.951   4.754
 9944TIP3   OH229716   1.463   5.050   4.709
 9944TIP3    H129717   1.375   5.056   4.670
 9944TIP3    H229718   1.489   4.959   4.692
 9945TIP3   OH229719   1.715   5.047   4.403
 9945TIP3    H129720   1.809   5.060   4.392
 9945TIP3    H229721   1.678   5.064   4.317
 9946TIP3   OH229722   2.512   5.048   4.903
 9946TIP3    H129723   2.505   5.053   4.998
 9946TIP3    H229724   2.441   4.990   4.876
 9947TIP3   OH229725   1.604   5.064   4.154
 9947TIP3    H129726   1.540   5.018   4.100
 9947TIP3    H229727   1.658   5.113   4.092
 9948TIP3   OH229728   2.711   6.753   5.124
 9948TIP3    H129729   2.706   6.771   5.030
 9948TIP3    H229730   2.790   6.800   5.153
 9949TIP3   OH229731   1.658   5.854   5.541
 9949TIP3    H129732   1.738   5.879   5.587
 9949TIP3    H229733   1.588   5.869   5.605
 9950TIP3   OH229734   2.115   5.330   4.808
 9950TIP3    H129735   2.184   5.284   4.760
 9950TIP3    H229736   2.115   5.289   4.895
 9951TIP3   OH229737   1.604   4.800   4.689
 9951TIP3    H129738   1.579   4.723   4.741
 9951TIP3    H229739   1.617   4.766   4.600
 9952TIP3   OH229740   2.091   5.233   5.077
 9952TIP3    H129741   2.002   5.264   5.096
 9952TIP3    H229742   2.148   5.291   5.127
 9953TIP3   OH229743   1.819   5.582   4.184
 9953TIP3    H129744   1.743   5.528   4.160
 9953TIP3    H229745   1.792   5.625   4.265
 9954TIP3   OH229746   2.711   5.845   4.789
 9954TIP3    H129747   2.747   5.894   4.716
 9954TIP3    H229748   2.632   5.804   4.754
 9955TIP3   OH229749   2.285   4.902   4.093
 9955TIP3    H129750   2.192   4.880   4.087
 9955TIP3    H229751   2.287   4.997   4.102
 9956TIP3   OH229752   2.228   5.926   5.207
 9956TIP3    H129753   2.279   5.921   5.288
 9956TIP3    H229754   2.186   6.012   5.210
 9957TIP3   OH229755   2.344   5.168   4.157
 9957TIP3    H129756   2.439   5.173   4.168
 9957TIP3    H229757   2.322   5.246   4.106
 9958TIP3   OH229758   1.508   5.595   4.830
 9958TIP3    H129759   1.547   5.579   4.744
 9958TIP3    H229760   1.576   5.567   4.892
 9959TIP3   OH229761   1.972   5.744   4.028
 9959TIP3    H129762   1.925   5.828   4.025
 9959TIP3    H229763   1.917   5.688   4.082
 9960TIP3   OH229764   1.399   5.520   5.465
 9960TIP3    H129765   1.392   5.494   5.557
 9960TIP3    H229766   1.324   5.478   5.423
 9961TIP3   OH229767   2.135   5.669   5.493
 9961TIP3    H129768   2.064   5.611   5.464
 9961TIP3    H229769   2.215   5.627   5.460
 9962TIP3   OH229770   2.374   6.215   5.093
 9962TIP3    H129771   2.279   6.203   5.096
 9962TIP3    H229772   2.397   6.252   5.178
 9963TIP3   OH229773   2.757   5.256   3.975
 9963TIP3    H129774   2.699   5.211   3.914
 9963TIP3    H229775   2.764   5.345   3.941
 9964TIP3   OH229776   3.017   6.143   5.055
 9964TIP3    H129777   2.924   6.120   5.054
 9964TIP3    H229778   3.051   6.108   4.973
 9965TIP3   OH229779   2.501   6.073   3.910
 9965TIP3    H129780   2.473   6.003   3.968
 9965TIP3    H229781   2.521   6.029   3.827
 9966TIP3   OH229782   2.484   5.707   4.686
 9966TIP3    H129783   2.394   5.686   4.710
 9966TIP3    H229784   2.518   5.626   4.648
 9967TIP3   OH229785   1.639   5.945   4.503
 9967TIP3    H129786   1.635   6.019   4.442
 9967TIP3    H229787   1.554   5.946   4.547
 9968TIP3   OH229788   1.203   5.227   4.219
 9968TIP3    H129789   1.243   5.311   4.239
 9968TIP3    H229790   1.121   5.227   4.268
 9969TIP3   OH229791   1.717   5.700   4.404
 9969TIP3    H129792   1.699   5.790   4.433
 9969TIP3    H229793   1.691   5.645   4.478
 9970TIP3   OH229794   1.922   6.268   4.956
 9970TIP3    H129795   1.955   6.342   4.906
 9970TIP3    H229796   1.997   6.236   5.006
 9971TIP3   OH229797   1.559   6.163   4.346
 9971TIP3    H129798   1.472   6.169   4.385
 9971TIP3    H229799   1.594   6.252   4.353
 9972TIP3   OH229800   2.268   5.931   4.933
 9972TIP3    H129801   2.254   5.927   5.028
 9972TIP3    H229802   2.351   5.886   4.919
 9973TIP3   OH229803   2.266   5.809   3.796
 9973TIP3    H129804   2.317   5.779   3.871
 9973TIP3    H229805   2.182   5.766   3.806
 9974TIP3   OH229806   2.527   6.424   4.967
 9974TIP3    H129807   2.455   6.365   4.986
 9974TIP3    H229808   2.494   6.479   4.896
 9975TIP3   OH229809   2.572   6.273   3.597
 9975TIP3    H129810   2.582   6.329   3.520
 9975TIP3    H229811   2.505   6.317   3.649
 9976TIP3   OH229812   1.607   5.060   5.466
 9976TIP3    H129813   1.512   5.069   5.466
 9976TIP3    H229814   1.627   5.017   5.549
 9977TIP3   OH229815   2.442   5.715   3.984
 9977TIP3    H129816   2.428   5.664   4.065
 9977TIP3    H229817   2.537   5.726   3.980
 9978TIP3   OH229818   1.354   6.167   5.109
 9978TIP3    H129819   1.408   6.114   5.167
 9978TIP3    H229820   1.361   6.256   5.144
 9979TIP3   OH229821   1.622   5.760   3.802
 9979TIP3    H129822   1.628   5.667   3.777
 9979TIP3    H229823   1.605   5.758   3.896
 9980TIP3   OH229824   1.565   5.785   4.075
 9980TIP3    H129825   1.624   5.760   4.146
 9980TIP3    H229826   1.559   5.881   4.082
 9981TIP3   OH229827   1.291   5.482   4.294
 9981TIP3    H129828   1.226   5.530   4.344
 9981TIP3    H229829   1.311   5.538   4.219
 9982TIP3   OH229830   2.484   5.089   5.174
 9982TIP3    H129831   2.542   5.164   5.183
 9982TIP3    H229832   2.500   5.037   5.253
 9983TIP3   OH229833   2.348   4.855   4.359
 9983TIP3    H129834   2.325   4.874   4.268
 9983TIP3    H229835   2.390   4.935   4.390
 9984TIP3   OH229836   1.827   5.973   4.020
 9984TIP3    H129837   1.743   5.997   4.058
 9984TIP3    H229838   1.853   6.048   3.968
 9985TIP3   OH229839   1.994   5.052   4.441
 9985TIP3    H129840   2.056   5.121   4.416
 9985TIP3    H229841   2.018   5.031   4.531
 9986TIP3   OH229842   2.294   5.358   5.226
 9986TIP3    H129843   2.312   5.412   5.303
 9986TIP3    H229844   2.345   5.278   5.239
 9987TIP3   OH229845   2.160   4.746   4.528
 9987TIP3    H129846   2.136   4.822   4.581
 9987TIP3    H229847   2.230   4.778   4.472
 9988TIP3   OH229848   1.575   6.057   4.094
 9988TIP3    H129849   1.556   6.130   4.035
 9988TIP3    H229850   1.567   6.095   4.182
 9989TIP3   OH229851   1.671   4.775   4.344
 9989TIP3    H129852   1.658   4.866   4.371
 9989TIP3    H229853   1.765   4.761   4.351
 9990TIP3   OH229854   2.902   5.258   5.214
 9990TIP3    H129855   2.807   5.259   5.214
 9990TIP3    H229856   2.926   5.193   5.147
 9991TIP3   OH229857   2.576   5.447   4.599
 9991TIP3    H129858   2.499   5.391   4.609
 9991TIP3    H229859   2.642   5.407   4.656
 9992TIP3   OH229860   1.322   5.650   4.074
 9992TIP3    H129861   1.393   5.714   4.083
 9992TIP3    H229862   1.354   5.589   4.007
 9993TIP3   OH229863   1.213   4.947   4.203
 9993TIP3    H129864   1.231   5.040   4.216
 9993TIP3    H229865   1.128   4.945   4.158
 9994TIP3   OH229866   2.552   6.421   4.537
 9994TIP3    H129867   2.509   6.474   4.469
 9994TIP3    H229868   2.646   6.435   4.522
 9995TIP3   OH229869   1.628   4.668   5.074
 9995TIP3    H129870   1.598   4.639   4.988
 9995TIP3    H229871   1.618   4.591   5.130
 9996TIP3   OH229872   1.146   5.925   4.472
 9996TIP3    H129873   1.105   5.962   4.550
 9996TIP3    H229874   1.102   5.968   4.399
 9997TIP3   OH229875   1.348   6.450   5.531
 9997TIP3    H129876   1.431   6.446   5.578
 9997TIP3    H229877   1.318   6.359   5.528
 9998TIP3   OH229878   1.816   6.367   5.587
 9998TIP3    H129879   1.909   6.343   5.592
 9998TIP3    H229880   1.782   6.316   5.513
 9999TIP3   OH229881   1.767   5.974   3.703
 9999TIP3    H129882   1.723   5.900   3.745
 9999TIP3    H229883   1.843   5.935   3.660
10000TIP3   OH229884   2.431   6.312   5.344
10000TIP3    H129885   2.448   6.243   5.408
10000TIP3    H229886   2.503   6.374   5.354
10001TIP3   OH229887   2.211   6.015   3.623
10001TIP3    H129888   2.248   5.951   3.684
10001TIP3    H229889   2.269   6.011   3.546
10002TIP3   OH229890   1.458   5.864   5.735
10002TIP3    H129891   1.465   5.769   5.748
10002TIP3    H229892   1.377   5.876   5.687
10003TIP3   OH229893   1.450   5.471   3.910
10003TIP3    H129894   1.500   5.447   3.988
10003TIP3    H229895   1.516   5.475   3.840
10004TIP3   OH229896   2.071   5.946   5.505
10004TIP3    H129897   2.025   5.967   5.424
10004TIP3    H229898   2.104   5.857   5.491
10005TIP3   OH229899   2.012   5.689   3.763
10005TIP3    H129900   1.989   5.700   3.855
10005TIP3    H229901   1.995   5.596   3.745
10006TIP3   OH229902   2.542   5.990   5.116
10006TIP3    H129903   2.620   6.019   5.069
10006TIP3    H229904   2.479   6.061   5.104
10007TIP3   OH229905   1.564   5.599   5.744
10007TIP3    H129906   1.636   5.593   5.682
10007TIP3    H229907   1.606   5.626   5.826
10008TIP3   OH229908   1.609   5.408   4.132
10008TIP3    H129909   1.584   5.382   4.221
10008TIP3    H229910   1.658   5.334   4.098
10009TIP3   OH229911   1.934   5.493   5.397
10009TIP3    H129912   1.846   5.527   5.409
10009TIP3    H229913   1.961   5.524   5.311
10010TIP3   OH229914   1.756   5.221   3.989
10010TIP3    H129915   1.726   5.219   3.898
10010TIP3    H229916   1.851   5.232   3.983
10011TIP3   OH229917   2.423   5.866   5.473
10011TIP3    H129918   2.491   5.827   5.418
10011TIP3    H229919   2.418   5.810   5.550
10012TIP3   OH229920   2.542   5.508   3.667
10012TIP3    H129921   2.531   5.469   3.580
10012TIP3    H229922   2.520   5.600   3.655
10013TIP3   OH229923   2.047   5.263   5.500
10013TIP3    H129924   2.042   5.192   5.436
10013TIP3    H229925   2.008   5.338   5.455
10014TIP3   OH229926   2.046   5.057   5.305
10014TIP3    H129927   2.073   5.094   5.221
10014TIP3    H229928   1.954   5.032   5.292
10015TIP3   OH229929   2.041   5.599   5.170
10015TIP3    H129930   2.126   5.643   5.161
10015TIP3    H229931   1.981   5.652   5.118
10016TIP3   OH229932   2.634   5.574   5.538
10016TIP3    H129933   2.686   5.495   5.522
10016TIP3    H229934   2.697   5.646   5.536
10017TIP3   OH229935   2.661   5.815   5.285
10017TIP3    H129936   2.608   5.876   5.234
10017TIP3    H229937   2.751   5.829   5.254
10018TIP3   OH229938   1.913   5.349   5.742
10018TIP3    H129939   1.842   5.289   5.762
10018TIP3    H229940   1.939   5.327   5.653
10019TIP3   OH229941   2.140   4.822   5.438
10019TIP3    H129942   2.117   4.905   5.395
10019TIP3    H229943   2.070   4.762   5.413
10020TIP3   OH229944   2.299   5.297   5.610
10020TIP3    H129945   2.280   5.305   5.703
10020TIP3    H229946   2.214   5.281   5.569
10021TIP3   OH229947   2.566   5.283   5.492
10021TIP3    H129948   2.488   5.278   5.547
10021TIP3    H229949   2.637   5.251   5.548
10022TIP3   OH229950   2.795   5.208   5.647
10022TIP3    H129951   2.814   5.120   5.679
10022TIP3    H229952   2.780   5.260   5.727
10023TIP3   OH229953   1.746   5.126   5.804
10023TIP3    H129954   1.752   5.035   5.776
10023TIP3    H229955   1.778   5.126   5.894
10024TIP3   OH229956   2.265   5.031   5.810
10024TIP3    H129957   2.239   5.021   5.718
10024TIP3    H229958   2.220   5.110   5.839
10025TIP3   OH229959   1.571   6.259   3.907
10025TIP3    H129960   1.663   6.246   3.885
10025TIP3    H229961   1.535   6.309   3.834
10026TIP3   OH229962   1.049   5.658   4.076
10026TIP3    H129963   1.144   5.665   4.085
10026TIP3    H229964   1.035   5.570   4.040
10027TIP3   OH229965   0.966   6.220   4.533
10027TIP3    H129966   0.903   6.166   4.486
10027TIP3    H229967   1.005   6.162   4.598
10028TIP3   OH229968   1.095   6.064   4.721
10028TIP3    H129969   1.088   5.999   4.790
10028TIP3    H229970   1.146   6.136   4.760
10029TIP3   OH229971   2.823   6.473   4.530
10029TIP3    H129972   2.841   6.504   4.619
10029TIP3    H229973   2.876   6.530   4.474
10030TIP3   OH229974   2.836   6.508   4.811
10030TIP3    H129975   2.791   6.424   4.808
10030TIP3    H229976   2.908   6.495   4.873
10031TIP3   OH229977   2.909   6.203   5.384
10031TIP3    H129978   2.833   6.214   5.441
10031TIP3    H229979   2.953   6.288   5.386
10032TIP3   OH229980   2.723   5.721   3.990
10032TIP3    H129981   2.777   5.794   3.961
10032TIP3    H229982   2.770   5.685   4.065
10033TIP3   OH229983   2.854   5.579   4.192
10033TIP3    H129984   2.786   5.545   4.250
10033TIP3    H229985   2.918   5.618   4.251
10034TIP3   OH229986   2.897   5.984   4.631
10034TIP3    H129987   2.947   5.916   4.585
10034TIP3    H229988   2.897   6.059   4.572
10035TIP3   OH229989   2.701   6.264   4.822
10035TIP3    H129990   2.633   6.310   4.871
10035TIP3    H229991   2.654   6.224   4.749
10036TIP3   OH229992   2.756   5.495   3.839
10036TIP3    H129993   2.683   5.494   3.777
10036TIP3    H229994   2.742   5.574   3.891
10037TIP3   OH229995   2.602   5.143   3.781
10037TIP3    H129996   2.555   5.181   3.706
10037TIP3    H229997   2.596   5.048   3.767
10038TIP3   OH229998   2.647   5.444   4.330
10038TIP3    H129999   2.651   5.350   4.315
10038TIP3    H230000   2.628   5.453   4.423
10039TIP3   OH230001   1.266   5.507   5.097
10039TIP3    H130002   1.255   5.475   5.008
10039TIP3    H230003   1.360   5.503   5.113
10040TIP3   OH230004   2.918   5.853   5.189
10040TIP3    H130005   2.988   5.789   5.172
10040TIP3    H230006   2.921   5.911   5.113
10041TIP3   OH230007   3.100   5.643   5.184
10041TIP3    H130008   3.026   5.604   5.231
10041TIP3    H230009   3.174   5.586   5.204
10042TIP3   OH230010   2.570   4.870   3.747
10042TIP3    H130011   2.635   4.845   3.813
10042TIP3    H230012   2.487   4.834   3.779
10043TIP3   OH230013   2.636   5.165   4.216
10043TIP3    H130014   2.684   5.083   4.229
10043TIP3    H230015   2.676   5.204   4.139
10044TIP3   OH230016   2.793   5.323   4.745
10044TIP3    H130017   2.870   5.343   4.692
10044TIP3    H230018   2.808   5.366   4.828
10045TIP3   OH230019   2.866   5.479   4.966
10045TIP3    H130020   2.794   5.509   5.022
10045TIP3    H230021   2.898   5.558   4.923
10046TIP3   OH230022   1.482   5.182   5.744
10046TIP3    H130023   1.576   5.181   5.763
10046TIP3    H230024   1.449   5.101   5.783
10047TIP3   OH230025   2.757   4.917   4.268
10047TIP3    H130026   2.801   4.901   4.352
10047TIP3    H230027   2.693   4.846   4.261
10048TIP3   OH230028   1.470   4.897   5.081
10048TIP3    H130029   1.522   4.817   5.091
10048TIP3    H230030   1.536   4.966   5.068
10049TIP3   OH230031   1.242   5.153   5.159
10049TIP3    H130032   1.293   5.147   5.078
10049TIP3    H230033   1.254   5.243   5.189
10050TIP3   OH230034   3.184   5.178   5.308
10050TIP3    H130035   3.116   5.219   5.361
10050TIP3    H230036   3.146   5.094   5.281
10051TIP3   OH230037   2.797   4.823   3.903
10051TIP3    H130038   2.847   4.764   3.847
10051TIP3    H230039   2.849   4.903   3.907
10052TIP3   OH230040   1.228   4.654   4.653
10052TIP3    H130041   1.144   4.646   4.698
10052TIP3    H230042   1.210   4.712   4.579
10053TIP3   OH230043   2.386   6.390   4.175
10053TIP3    H130044   2.442   6.380   4.097
10053TIP3    H230045   2.425   6.463   4.223
10054TIP3   OH230046   1.439   4.705   5.472
10054TIP3    H130047   1.394   4.710   5.556
10054TIP3    H230048   1.390   4.764   5.414
10055TIP3   OH230049   1.500   6.169   5.560
10055TIP3    H130050   1.406   6.163   5.545
10055TIP3    H230051   1.510   6.166   5.655
10056TIP3   OH230052   1.693   6.232   5.104
10056TIP3    H130053   1.640   6.306   5.073
10056TIP3    H230054   1.777   6.242   5.060
10057TIP3   OH230055   2.086   6.460   5.242
10057TIP3    H130056   2.122   6.455   5.330
10057TIP3    H230057   2.147   6.515   5.194
10058TIP3   OH230058   2.277   6.618   5.120
10058TIP3    H130059   2.338   6.570   5.064
10058TIP3    H230060   2.332   6.676   5.173
10059TIP3   OH230061   3.062   4.923   5.234
10059TIP3    H130062   2.976   4.905   5.198
10059TIP3    H230063   3.077   4.854   5.299
10060TIP3   OH230064   1.350   6.456   5.155
10060TIP3    H130065   1.259   6.474   5.132
10060TIP3    H230066   1.373   6.525   5.217
10061TIP3   OH230067   1.580   6.461   5.001
10061TIP3    H130068   1.497   6.464   5.048
10061TIP3    H230069   1.559   6.489   4.912
10062TIP3   OH230070   1.995   6.480   4.794
10062TIP3    H130071   1.923   6.491   4.732
10062TIP3    H230072   2.005   6.566   4.834
10063TIP3   OH230073   2.257   6.411   4.843
10063TIP3    H130074   2.166   6.433   4.823
10063TIP3    H230075   2.309   6.476   4.796
10064TIP3   OH230076   2.459   6.579   4.743
10064TIP3    H130077   2.460   6.667   4.706
10064TIP3    H230078   2.488   6.523   4.671
10065TIP3   OH230079   1.268   6.249   4.855
10065TIP3    H130080   1.291   6.226   4.946
10065TIP3    H230081   1.341   6.214   4.803
10066TIP3   OH230082   1.472   6.128   4.721
10066TIP3    H130083   1.482   6.045   4.768
10066TIP3    H230084   1.557   6.170   4.729
10067TIP3   OH230085   1.736   6.216   4.753
10067TIP3    H130086   1.758   6.124   4.739
10067TIP3    H230087   1.789   6.242   4.828
10068TIP3   OH230088   2.294   4.876   4.834
10068TIP3    H130089   2.250   4.804   4.880
10068TIP3    H230090   2.362   4.833   4.782
10069TIP3   OH230091   2.800   4.755   4.719
10069TIP3    H130092   2.840   4.806   4.648
10069TIP3    H230093   2.713   4.793   4.730
10070TIP3   OH230094   2.913   4.855   4.491
10070TIP3    H130095   2.980   4.794   4.459
10070TIP3    H230096   2.952   4.942   4.479
10071TIP3   OH230097   1.544   4.569   4.830
10071TIP3    H130098   1.455   4.535   4.842
10071TIP3    H230099   1.599   4.491   4.823
10072TIP3   OH230100   1.372   4.472   4.490
10072TIP3    H130101   1.389   4.525   4.412
10072TIP3    H230102   1.327   4.532   4.550
10073TIP3   OH230103   2.014   4.601   4.719
10073TIP3    H130104   2.059   4.648   4.650
10073TIP3    H230105   2.041   4.645   4.800
10074TIP3   OH230106   2.508   4.762   4.699
10074TIP3    H130107   2.523   4.728   4.610
10074TIP3    H230108   2.506   4.684   4.754
10075TIP3   OH230109   2.568   4.710   4.272
10075TIP3    H130110   2.489   4.758   4.297
10075TIP3    H230111   2.553   4.622   4.307
10076TIP3   OH230112   1.031   6.041   4.251
10076TIP3    H130113   0.948   6.010   4.215
10076TIP3    H230114   1.038   6.132   4.220
10077TIP3   OH230115   1.462   4.606   4.252
10077TIP3    H130116   1.509   4.549   4.191
10077TIP3    H230117   1.530   4.664   4.286
10078TIP3   OH230118   1.947   4.798   4.351
10078TIP3    H130119   2.011   4.752   4.405
10078TIP3    H230120   1.958   4.891   4.374
10079TIP3   OH230121   1.832   6.197   3.848
10079TIP3    H130122   1.915   6.225   3.809
10079TIP3    H230123   1.802   6.126   3.791
10080TIP3   OH230124   2.535   6.342   3.945
10080TIP3    H130125   2.528   6.247   3.937
10080TIP3    H230126   2.492   6.376   3.867
10081TIP3   OH230127   1.765   4.850   5.728
10081TIP3    H130128   1.728   4.779   5.781
10081TIP3    H230129   1.855   4.859   5.760
10082TIP3   OH230130   2.001   4.871   5.878
10082TIP3    H130131   2.097   4.873   5.885
10082TIP3    H230132   1.974   4.805   5.942
10083TIP3   OH230133   1.127   6.039   3.905
10083TIP3    H130134   1.125   6.060   3.998
10083TIP3    H230135   1.211   5.994   3.892
10084TIP3   OH230136   2.746   6.480   5.132
10084TIP3    H130137   2.673   6.450   5.079
10084TIP3    H230138   2.734   6.575   5.137
10085TIP3   OH230139   4.026   5.863   3.873
10085TIP3    H130140   3.991   5.950   3.855
10085TIP3    H230141   3.956   5.803   3.846
10086TIP3   OH230142   4.025   5.860   4.298
10086TIP3    H130143   4.080   5.842   4.375
10086TIP3    H230144   3.981   5.777   4.279
10087TIP3   OH230145   3.322   5.717   4.641
10087TIP3    H130146   3.362   5.666   4.711
10087TIP3    H230147   3.395   5.743   4.585
10088TIP3   OH230148   4.298   6.166   3.967
10088TIP3    H130149   4.283   6.100   4.035
10088TIP3    H230150   4.316   6.247   4.015
10089TIP3   OH230151   3.318   6.145   4.325
10089TIP3    H130152   3.299   6.052   4.331
10089TIP3    H230153   3.413   6.150   4.314
10090TIP3   OH230154   2.996   5.348   4.114
10090TIP3    H130155   2.960   5.433   4.137
10090TIP3    H230156   2.924   5.302   4.070
10091TIP3   OH230157   3.080   5.669   4.335
10091TIP3    H130158   3.131   5.592   4.359
10091TIP3    H230159   3.146   5.735   4.312
10092TIP3   OH230160   3.957   6.589   3.983
10092TIP3    H130161   3.979   6.527   3.913
10092TIP3    H230162   3.965   6.538   4.063
10093TIP3   OH230163   3.833   6.080   4.300
10093TIP3    H130164   3.879   6.001   4.272
10093TIP3    H230165   3.902   6.139   4.331
10094TIP3   OH230166   4.869   5.408   4.312
10094TIP3    H130167   4.886   5.490   4.360
10094TIP3    H230168   4.903   5.425   4.224
10095TIP3   OH230169   4.232   5.570   4.335
10095TIP3    H130170   4.267   5.486   4.362
10095TIP3    H230171   4.199   5.555   4.246
10096TIP3   OH230172   3.589   5.225   4.294
10096TIP3    H130173   3.571   5.299   4.236
10096TIP3    H230174   3.534   5.154   4.260
10097TIP3   OH230175   4.295   5.332   3.930
10097TIP3    H130176   4.359   5.325   4.001
10097TIP3    H230177   4.346   5.364   3.856
10098TIP3   OH230178   3.218   5.444   4.425
10098TIP3    H130179   3.302   5.428   4.467
10098TIP3    H230180   3.222   5.393   4.344
10099TIP3   OH230181   3.636   5.641   4.243
10099TIP3    H130182   3.731   5.628   4.247
10099TIP3    H230183   3.602   5.560   4.207
10100TIP3   OH230184   4.921   5.624   4.481
10100TIP3    H130185   4.832   5.659   4.477
10100TIP3    H230186   4.957   5.657   4.563
10101TIP3   OH230187   3.572   5.228   4.748
10101TIP3    H130188   3.522   5.266   4.675
10101TIP3    H230189   3.520   5.250   4.826
10102TIP3   OH230190   3.885   6.072   3.763
10102TIP3    H130191   3.864   6.055   3.671
10102TIP3    H230192   3.846   6.158   3.781
10103TIP3   OH230193   3.664   6.007   4.508
10103TIP3    H130194   3.613   6.080   4.541
10103TIP3    H230195   3.714   6.044   4.435
10104TIP3   OH230196   4.448   5.353   4.155
10104TIP3    H130197   4.405   5.332   4.238
10104TIP3    H230198   4.504   5.428   4.176
10105TIP3   OH230199   3.466   5.339   4.517
10105TIP3    H130200   3.521   5.414   4.538
10105TIP3    H230201   3.509   5.297   4.442
10106TIP3   OH230202   3.514   6.213   4.617
10106TIP3    H130203   3.501   6.302   4.585
10106TIP3    H230204   3.435   6.193   4.668
10107TIP3   OH230205   2.889   5.915   3.873
10107TIP3    H130206   2.855   5.933   3.785
10107TIP3    H230207   2.911   6.001   3.908
10108TIP3   OH230208   4.326   6.413   4.111
10108TIP3    H130209   4.238   6.407   4.147
10108TIP3    H230210   4.327   6.496   4.062
10109TIP3   OH230211   4.652   5.300   4.457
10109TIP3    H130212   4.569   5.329   4.420
10109TIP3    H230213   4.718   5.335   4.398
10110TIP3   OH230214   3.910   4.922   4.476
10110TIP3    H130215   3.895   4.833   4.508
10110TIP3    H230216   3.832   4.970   4.503
10111TIP3   OH230217   4.036   6.440   3.761
10111TIP3    H130218   4.087   6.360   3.750
10111TIP3    H230219   4.095   6.511   3.735
10112TIP3   OH230220   4.192   6.224   3.716
10112TIP3    H130221   4.201   6.149   3.658
10112TIP3    H230222   4.232   6.195   3.799
10113TIP3   OH230223   4.558   6.304   4.453
10113TIP3    H130224   4.543   6.229   4.396
10113TIP3    H230225   4.544   6.380   4.397
10114TIP3   OH230226   3.851   5.701   3.725
10114TIP3    H130227   3.770   5.749   3.707
10114TIP3    H230228   3.898   5.703   3.641
10115TIP3   OH230229   3.824   5.509   3.413
10115TIP3    H130230   3.889   5.559   3.463
10115TIP3    H230231   3.875   5.442   3.368
10116TIP3   OH230232   4.742   5.965   4.326
10116TIP3    H130233   4.658   6.011   4.323
10116TIP3    H230234   4.780   5.978   4.239
10117TIP3   OH230235   4.211   5.799   3.682
10117TIP3    H130236   4.156   5.825   3.756
10117TIP3    H230237   4.294   5.772   3.721
10118TIP3   OH230238   4.439   5.821   4.639
10118TIP3    H130239   4.435   5.906   4.682
10118TIP3    H230240   4.359   5.816   4.586
10119TIP3   OH230241   3.437   5.773   4.090
10119TIP3    H130242   3.402   5.713   4.024
10119TIP3    H230243   3.511   5.727   4.128
10120TIP3   OH230244   3.579   6.195   4.230
10120TIP3    H130245   3.555   6.185   4.138
10120TIP3    H230246   3.667   6.158   4.236
10121TIP3   OH230247   3.533   5.771   4.465
10121TIP3    H130248   3.572   5.734   4.385
10121TIP3    H230249   3.581   5.853   4.479
10122TIP3   OH230250   4.085   6.412   4.239
10122TIP3    H130251   4.074   6.492   4.291
10122TIP3    H230252   4.071   6.341   4.301
10123TIP3   OH230253   3.711   6.306   4.789
10123TIP3    H130254   3.649   6.364   4.834
10123TIP3    H230255   3.656   6.256   4.728
10124TIP3   OH230256   4.042   5.655   3.518
10124TIP3    H130257   4.101   5.713   3.565
10124TIP3    H230258   4.071   5.659   3.427
10125TIP3   OH230259   3.461   5.848   4.941
10125TIP3    H130260   3.465   5.942   4.953
10125TIP3    H230261   3.367   5.829   4.932
10126TIP3   OH230262   3.782   6.332   3.777
10126TIP3    H130263   3.869   6.372   3.777
10126TIP3    H230264   3.729   6.392   3.725
10127TIP3   OH230265   3.501   6.465   4.873
10127TIP3    H130266   3.479   6.478   4.781
10127TIP3    H230267   3.417   6.451   4.917
10128TIP3   OH230268   3.313   5.616   3.888
10128TIP3    H130269   3.237   5.666   3.859
10128TIP3    H230270   3.279   5.527   3.901
10129TIP3   OH230271   4.380   6.261   3.131
10129TIP3    H130272   4.374   6.353   3.107
10129TIP3    H230273   4.469   6.236   3.108
10130TIP3   OH230274   3.098   6.022   4.825
10130TIP3    H130275   3.028   6.006   4.761
10130TIP3    H230276   3.131   5.935   4.847
10131TIP3   OH230277   2.937   6.221   4.483
10131TIP3    H130278   3.026   6.249   4.500
10131TIP3    H230279   2.883   6.297   4.505
10132TIP3   OH230280   4.790   6.660   4.525
10132TIP3    H130281   4.794   6.565   4.538
10132TIP3    H230282   4.711   6.687   4.571
10133TIP3   OH230283   3.901   6.452   4.653
10133TIP3    H130284   3.890   6.543   4.680
10133TIP3    H230285   3.832   6.404   4.701
10134TIP3   OH230286   3.680   6.547   3.603
10134TIP3    H130287   3.638   6.526   3.520
10134TIP3    H230288   3.642   6.630   3.630
10135TIP3   OH230289   3.114   6.405   3.979
10135TIP3    H130290   3.158   6.396   4.064
10135TIP3    H230291   3.064   6.324   3.969
10136TIP3   OH230292   3.881   6.484   3.230
10136TIP3    H130293   3.930   6.409   3.194
10136TIP3    H230294   3.918   6.497   3.317
10137TIP3   OH230295   3.935   6.527   3.499
10137TIP3    H130296   3.849   6.529   3.540
10137TIP3    H230297   3.992   6.488   3.565
10138TIP3   OH230298   4.677   5.782   4.798
10138TIP3    H130299   4.597   5.794   4.746
10138TIP3    H230300   4.699   5.689   4.787
10139TIP3   OH230301   3.297   6.210   4.788
10139TIP3    H130302   3.346   6.197   4.869
10139TIP3    H230303   3.224   6.148   4.794
10140TIP3   OH230304   3.673   5.029   4.571
10140TIP3    H130305   3.588   4.996   4.541
10140TIP3    H230306   3.652   5.111   4.616
10141TIP3   OH230307   4.226   5.095   4.769
10141TIP3    H130308   4.280   5.048   4.833
10141TIP3    H230309   4.139   5.098   4.809
10142TIP3   OH230310   4.423   5.549   4.719
10142TIP3    H130311   4.397   5.546   4.811
10142TIP3    H230312   4.418   5.642   4.696
10143TIP3   OH230313   4.121   5.638   3.257
10143TIP3    H130314   4.075   5.642   3.172
10143TIP3    H230315   4.204   5.682   3.241
10144TIP3   OH230316   3.825   5.058   3.572
10144TIP3    H130317   3.787   5.065   3.660
10144TIP3    H230318   3.793   4.975   3.539
10145TIP3   OH230319   3.617   5.550   4.613
10145TIP3    H130320   3.572   5.558   4.697
10145TIP3    H230321   3.595   5.631   4.566
10146TIP3   OH230322   3.496   5.428   4.134
10146TIP3    H130323   3.407   5.405   4.158
10146TIP3    H230324   3.506   5.397   4.043
10147TIP3   OH230325   3.976   5.498   3.860
10147TIP3    H130326   3.929   5.571   3.819
10147TIP3    H230327   4.035   5.467   3.792
10148TIP3   OH230328   4.174   5.762   4.926
10148TIP3    H130329   4.146   5.697   4.991
10148TIP3    H230330   4.266   5.780   4.947
10149TIP3   OH230331   4.145   5.515   4.082
10149TIP3    H130332   4.077   5.535   4.018
10149TIP3    H230333   4.194   5.443   4.042
10150TIP3   OH230334   3.459   5.567   4.836
10150TIP3    H130335   3.465   5.634   4.904
10150TIP3    H230336   3.441   5.486   4.885
10151TIP3   OH230337   3.493   5.034   3.553
10151TIP3    H130338   3.485   5.043   3.647
10151TIP3    H230339   3.416   5.079   3.517
10152TIP3   OH230340   3.045   5.079   4.422
10152TIP3    H130341   3.111   5.123   4.477
10152TIP3    H230342   3.081   5.083   4.334
10153TIP3   OH230343   2.943   5.059   3.914
10153TIP3    H130344   2.989   5.096   3.838
10153TIP3    H230345   2.880   5.127   3.939
10154TIP3   OH230346   4.190   5.770   4.512
10154TIP3    H130347   4.213   5.704   4.446
10154TIP3    H230348   4.145   5.720   4.580
10155TIP3   OH230349   3.860   5.215   4.181
10155TIP3    H130350   3.785   5.215   4.241
10155TIP3    H230351   3.936   5.207   4.239
10156TIP3   OH230352   3.257   5.301   4.194
10156TIP3    H130353   3.169   5.306   4.155
10156TIP3    H230354   3.287   5.213   4.174
10157TIP3   OH230355   3.508   5.306   3.887
10157TIP3    H130356   3.603   5.317   3.878
10157TIP3    H230357   3.474   5.323   3.799
10158TIP3   OH230358   4.306   5.311   4.393
10158TIP3    H130359   4.285   5.322   4.485
10158TIP3    H230360   4.238   5.251   4.360
10159TIP3   OH230361   3.401   5.326   3.636
10159TIP3    H130362   3.337   5.278   3.583
10159TIP3    H230363   3.454   5.373   3.573
10160TIP3   OH230364   4.507   7.009   4.612
10160TIP3    H130365   4.503   7.025   4.518
10160TIP3    H230366   4.586   7.055   4.640
10161TIP3   OH230367   3.445   6.117   5.023
10161TIP3    H130368   3.526   6.140   5.070
10161TIP3    H230369   3.376   6.130   5.088
10162TIP3   OH230370   3.910   5.590   4.288
10162TIP3    H130371   3.978   5.544   4.238
10162TIP3    H230372   3.910   5.547   4.374
10163TIP3   OH230373   3.398   5.053   4.169
10163TIP3    H130374   3.369   4.975   4.216
10163TIP3    H230375   3.418   5.023   4.080
10164TIP3   OH230376   3.882   5.491   4.553
10164TIP3    H130377   3.796   5.527   4.575
10164TIP3    H230378   3.944   5.543   4.605
10165TIP3   OH230379   3.615   5.839   3.669
10165TIP3    H130380   3.539   5.787   3.644
10165TIP3    H230381   3.588   5.882   3.750
10166TIP3   OH230382   4.507   6.100   4.275
10166TIP3    H130383   4.544   6.149   4.201
10166TIP3    H230384   4.428   6.059   4.238
10167TIP3   OH230385   4.082   5.157   3.583
10167TIP3    H130386   3.988   5.137   3.575
10167TIP3    H230387   4.085   5.252   3.594
10168TIP3   OH230388   4.025   6.185   4.688
10168TIP3    H130389   4.081   6.178   4.765
10168TIP3    H230390   3.987   6.273   4.693
10169TIP3   OH230391   4.142   5.424   3.646
10169TIP3    H130392   4.237   5.426   3.652
10169TIP3    H230393   4.120   5.501   3.593
10170TIP3   OH230394   3.302   5.853   4.317
10170TIP3    H130395   3.340   5.837   4.231
10170TIP3    H230396   3.370   5.827   4.379
10171TIP3   OH230397   3.768   6.001   3.513
10171TIP3    H130398   3.721   6.084   3.509
10171TIP3    H230399   3.713   5.944   3.566
10172TIP3   OH230400   3.187   5.783   4.954
10172TIP3    H130401   3.186   5.755   5.046
10172TIP3    H230402   3.112   5.739   4.914
10173TIP3   OH230403   3.941   5.922   4.966
10173TIP3    H130404   3.870   5.865   4.938
10173TIP3    H230405   4.020   5.880   4.932
10174TIP3   OH230406   4.171   6.475   4.578
10174TIP3    H130407   4.076   6.463   4.581
10174TIP3    H230408   4.193   6.511   4.665
10175TIP3   OH230409   4.563   5.504   3.460
10175TIP3    H130410   4.511   5.451   3.399
10175TIP3    H230411   4.562   5.592   3.422
10176TIP3   OH230412   4.804   6.379   4.547
10176TIP3    H130413   4.710   6.366   4.535
10176TIP3    H230414   4.842   6.353   4.463
10177TIP3   OH230415   4.297   6.329   3.391
10177TIP3    H130416   4.267   6.254   3.443
10177TIP3    H230417   4.320   6.291   3.306
10178TIP3   OH230418   4.279   5.964   4.170
10178TIP3    H130419   4.189   5.943   4.194
10178TIP3    H230420   4.314   5.883   4.132
10179TIP3   OH230421   3.437   6.202   3.988
10179TIP3    H130422   3.437   6.277   3.929
10179TIP3    H230423   3.346   6.195   4.017
10180TIP3   OH230424   2.995   5.487   3.701
10180TIP3    H130425   3.037   5.570   3.722
10180TIP3    H230426   2.914   5.487   3.751
10181TIP3   OH230427   3.509   5.955   3.889
10181TIP3    H130428   3.498   6.045   3.920
10181TIP3    H230429   3.485   5.901   3.964
10182TIP3   OH230430   3.718   6.523   4.442
10182TIP3    H130431   3.752   6.597   4.392
10182TIP3    H230432   3.794   6.490   4.490
10183TIP3   OH230433   3.351   6.423   3.837
10183TIP3    H130434   3.263   6.430   3.875
10183TIP3    H230435   3.387   6.512   3.842
10184TIP3   OH230436   4.063   6.191   4.413
10184TIP3    H130437   4.051   6.185   4.508
10184TIP3    H230438   4.142   6.139   4.396
10185TIP3   OH230439   4.070   6.068   3.292
10185TIP3    H130440   4.109   6.051   3.378
10185TIP3    H230441   3.986   6.022   3.295
10186TIP3   OH230442   4.324   6.683   4.455
10186TIP3    H130443   4.252   6.622   4.474
10186TIP3    H230444   4.291   6.737   4.383
10187TIP3   OH230445   4.371   6.533   3.086
10187TIP3    H130446   4.380   6.588   3.008
10187TIP3    H230447   4.303   6.575   3.138
10188TIP3   OH230448   3.415   5.313   4.962
10188TIP3    H130449   3.320   5.317   4.973
10188TIP3    H230450   3.447   5.267   5.040
10189TIP3   OH230451   4.237   6.021   3.517
10189TIP3    H130452   4.220   5.944   3.571
10189TIP3    H230453   4.330   6.013   3.494
10190TIP3   OH230454   3.144   6.423   4.602
10190TIP3    H130455   3.199   6.366   4.656
10190TIP3    H230456   3.158   6.511   4.637
10191TIP3   OH230457   3.412   6.029   3.299
10191TIP3    H130458   3.423   5.938   3.272
10191TIP3    H230459   3.399   6.025   3.394
10192TIP3   OH230460   3.354   6.046   3.572
10192TIP3    H130461   3.419   6.021   3.638
10192TIP3    H230462   3.352   6.141   3.575
10193TIP3   OH230463   3.087   5.738   3.782
10193TIP3    H130464   3.022   5.787   3.833
10193TIP3    H230465   3.107   5.796   3.708
10194TIP3   OH230466   4.239   5.355   4.658
10194TIP3    H130467   4.317   5.403   4.686
10194TIP3    H230468   4.244   5.271   4.704
10195TIP3   OH230469   4.155   5.107   3.846
10195TIP3    H130470   4.137   5.118   3.753
10195TIP3    H230471   4.196   5.189   3.873
10196TIP3   OH230472   3.622   6.229   3.506
10196TIP3    H130473   3.538   6.255   3.544
10196TIP3    H230474   3.647   6.303   3.451
10197TIP3   OH230475   3.786   5.312   3.931
10197TIP3    H130476   3.849   5.378   3.904
10197TIP3    H230477   3.811   5.291   4.021
10198TIP3   OH230478   4.088   5.600   4.705
10198TIP3    H130479   4.118   5.643   4.785
10198TIP3    H230480   4.137   5.517   4.703
10199TIP3   OH230481   3.955   5.012   4.012
10199TIP3    H130482   3.930   5.088   4.066
10199TIP3    H230483   4.028   5.043   3.958
10200TIP3   OH230484   3.373   6.319   3.585
10200TIP3    H130485   3.354   6.391   3.524
10200TIP3    H230486   3.364   6.357   3.672
10201TIP3   OH230487   3.463   5.033   3.835
10201TIP3    H130488   3.453   5.125   3.858
10201TIP3    H230489   3.558   5.018   3.838
10202TIP3   OH230490   4.693   5.518   4.699
10202TIP3    H130491   4.598   5.513   4.701
10202TIP3    H230492   4.719   5.458   4.629
10203TIP3   OH230493   4.371   5.705   4.083
10203TIP3    H130494   4.294   5.648   4.092
10203TIP3    H230495   4.437   5.665   4.139
10204TIP3   OH230496   3.111   5.911   3.563
10204TIP3    H130497   3.182   5.975   3.572
10204TIP3    H230498   3.142   5.849   3.497
10205TIP3   OH230499   3.015   5.208   3.696
10205TIP3    H130500   3.029   5.302   3.706
10205TIP3    H230501   2.966   5.200   3.614
10206TIP3   OH230502   4.351   6.679   4.025
10206TIP3    H130503   4.310   6.732   3.957
10206TIP3    H230504   4.445   6.690   4.011
10207TIP3   OH230505   3.412   4.940   4.540
10207TIP3    H130506   3.382   4.909   4.454
10207TIP3    H230507   3.403   4.864   4.597
10208TIP3   OH230508   2.936   6.184   3.955
10208TIP3    H130509   2.894   6.221   4.033
10208TIP3    H230510   2.891   6.227   3.882
10209TIP3   OH230511   3.143   6.719   5.023
10209TIP3    H130512   3.225   6.721   5.071
10209TIP3    H230513   3.125   6.626   5.010
10210TIP3   OH230514   3.608   6.622   5.073
10210TIP3    H130515   3.701   6.602   5.074
10210TIP3    H230516   3.573   6.571   5.000
10211TIP3   OH230517   3.561   6.234   3.188
10211TIP3    H130518   3.515   6.163   3.233
10211TIP3    H230519   3.637   6.191   3.147
10212TIP3   OH230520   4.226   6.567   4.832
10212TIP3    H130521   4.244   6.498   4.895
10212TIP3    H230522   4.300   6.628   4.841
10213TIP3   OH230523   4.006   6.270   3.115
10213TIP3    H130524   4.045   6.206   3.176
10213TIP3    H230525   4.062   6.265   3.037
10214TIP3   OH230526   3.242   6.125   5.216
10214TIP3    H130527   3.258   6.031   5.226
10214TIP3    H230528   3.156   6.130   5.174
10215TIP3   OH230529   3.232   5.722   3.408
10215TIP3    H130530   3.283   5.698   3.485
10215TIP3    H230531   3.297   5.737   3.339
10216TIP3   OH230532   3.865   6.197   4.990
10216TIP3    H130533   3.821   6.221   4.908
10216TIP3    H230534   3.904   6.112   4.972
10217TIP3   OH230535   3.821   5.942   3.251
10217TIP3    H130536   3.793   5.954   3.342
10217TIP3    H230537   3.800   5.851   3.231
10218TIP3   OH230538   4.337   6.250   4.610
10218TIP3    H130539   4.415   6.274   4.559
10218TIP3    H230540   4.274   6.320   4.593
10219TIP3   OH230541   3.356   5.870   5.223
10219TIP3    H130542   3.427   5.856   5.160
10219TIP3    H230543   3.400   5.890   5.306
10220TIP3   OH230544   3.404   5.664   3.620
10220TIP3    H130545   3.386   5.633   3.709
10220TIP3    H230546   3.456   5.593   3.580
10221TIP3   OH230547   3.725   5.754   4.883
10221TIP3    H130548   3.638   5.792   4.893
10221TIP3    H230549   3.753   5.782   4.795
10222TIP3   OH230550   3.551   5.482   3.468
10222TIP3    H130551   3.522   5.487   3.377
10222TIP3    H230552   3.646   5.489   3.463
10223TIP3   OH230553   4.228   6.123   4.956
10223TIP3    H130554   4.295   6.089   4.897
10223TIP3    H230555   4.229   6.063   5.031
10224TIP3   OH230556   4.342   5.769   3.154
10224TIP3    H130557   4.331   5.727   3.069
10224TIP3    H230558   4.320   5.861   3.139
10225TIP3   OH230559   3.829   5.525   4.991
10225TIP3    H130560   3.829   5.454   4.927
10225TIP3    H230561   3.795   5.600   4.943
10226TIP3   OH230562   3.829   5.329   4.785
10226TIP3    H130563   3.856   5.367   4.701
10226TIP3    H230564   3.739   5.299   4.769
10227TIP3   OH230565   3.835   5.848   4.653
10227TIP3    H130566   3.923   5.881   4.637
10227TIP3    H230567   3.778   5.906   4.602
10228TIP3   OH230568   4.444   5.799   5.026
10228TIP3    H130569   4.489   5.714   5.032
10228TIP3    H230570   4.514   5.861   5.006
10229TIP3   OH230571   4.457   6.070   4.774
10229TIP3    H130572   4.406   6.132   4.722
10229TIP3    H230573   4.547   6.083   4.744
10230TIP3   OH230574   3.724   5.620   5.236
10230TIP3    H130575   3.651   5.562   5.256
10230TIP3    H230576   3.748   5.599   5.146
10231TIP3   OH230577   3.972   5.107   4.874
10231TIP3    H130578   3.931   5.189   4.848
10231TIP3    H230579   3.906   5.040   4.856
10232TIP3   OH230580   4.089   5.558   5.089
10232TIP3    H130581   4.082   5.544   5.184
10232TIP3    H230582   4.001   5.539   5.055
10233TIP3   OH230583   4.343   5.508   4.974
10233TIP3    H130584   4.261   5.511   5.024
10233TIP3    H230585   4.411   5.495   5.040
10234TIP3   OH230586   4.580   5.502   5.136
10234TIP3    H130587   4.604   5.413   5.162
10234TIP3    H230588   4.566   5.548   5.218
10235TIP3   OH230589   3.542   5.423   5.308
10235TIP3    H130590   3.548   5.342   5.257
10235TIP3    H230591   3.579   5.401   5.393
10236TIP3   OH230592   3.988   5.049   5.143
10236TIP3    H130593   3.982   4.954   5.146
10236TIP3    H230594   3.991   5.071   5.050
10237TIP3   OH230595   4.112   5.268   5.274
10237TIP3    H130596   4.075   5.195   5.224
10237TIP3    H230597   4.042   5.333   5.278
10238TIP3   OH230598   3.373   6.529   3.404
10238TIP3    H130599   3.462   6.508   3.377
10238TIP3    H230600   3.334   6.573   3.329
10239TIP3   OH230601   2.837   5.911   3.581
10239TIP3    H130602   2.932   5.922   3.577
10239TIP3    H230603   2.821   5.825   3.541
10240TIP3   OH230604   2.742   6.493   4.042
10240TIP3    H130605   2.678   6.441   3.995
10240TIP3    H230606   2.786   6.431   4.100
10241TIP3   OH230607   2.885   6.322   4.208
10241TIP3    H130608   2.876   6.254   4.275
10241TIP3    H230609   2.937   6.390   4.250
10242TIP3   OH230610   4.623   6.726   4.017
10242TIP3    H130611   4.645   6.757   4.105
10242TIP3    H230612   4.679   6.777   3.959
10243TIP3   OH230613   4.637   6.764   4.300
10243TIP3    H130614   4.590   6.680   4.293
10243TIP3    H230615   4.707   6.747   4.362
10244TIP3   OH230616   4.698   6.465   4.876
10244TIP3    H130617   4.629   6.476   4.941
10244TIP3    H230618   4.745   6.548   4.875
10245TIP3   OH230619   4.511   5.982   3.477
10245TIP3    H130620   4.568   6.051   3.444
10245TIP3    H230621   4.558   5.945   3.552
10246TIP3   OH230622   4.640   5.846   3.681
10246TIP3    H130623   4.574   5.807   3.738
10246TIP3    H230624   4.705   5.882   3.742
10247TIP3   OH230625   4.692   6.238   4.117
10247TIP3    H130626   4.743   6.170   4.073
10247TIP3    H230627   4.694   6.312   4.055
10248TIP3   OH230628   4.495   6.524   4.303
10248TIP3    H130629   4.428   6.570   4.354
10248TIP3    H230630   4.447   6.484   4.231
10249TIP3   OH230631   4.549   5.749   3.332
10249TIP3    H130632   4.479   5.748   3.267
10249TIP3    H230633   4.534   5.828   3.383
10250TIP3   OH230634   4.408   5.369   3.273
10250TIP3    H130635   4.363   5.392   3.192
10250TIP3    H230636   4.414   5.274   3.271
10251TIP3   OH230637   4.438   5.699   3.813
10251TIP3    H130638   4.444   5.605   3.797
10251TIP3    H230639   4.419   5.706   3.906
10252TIP3   OH230640   3.058   5.756   4.592
10252TIP3    H130641   3.049   5.728   4.501
10252TIP3    H230642   3.153   5.752   4.609
10253TIP3   OH230643   4.715   6.115   4.682
10253TIP3    H130644   4.781   6.048   4.664
10253TIP3    H230645   4.734   6.184   4.618
10254TIP3   OH230646   4.889   5.903   4.670
10254TIP3    H130647   4.817   5.860   4.716
10254TIP3    H230648   4.966   5.848   4.689
10255TIP3   OH230649   4.387   5.091   3.241
10255TIP3    H130650   4.431   5.044   3.312
10255TIP3    H230651   4.294   5.077   3.258
10256TIP3   OH230652   4.438   5.419   3.700
10256TIP3    H130653   4.480   5.333   3.708
10256TIP3    H230654   4.477   5.458   3.622
10257TIP3   OH230655   4.585   5.584   4.228
10257TIP3    H130656   4.665   5.602   4.178
10257TIP3    H230657   4.601   5.626   4.313
10258TIP3   OH230658   4.659   5.735   4.453
10258TIP3    H130659   4.588   5.763   4.511
10258TIP3    H230660   4.690   5.816   4.413
10259TIP3   OH230661   3.272   5.430   5.231
10259TIP3    H130662   3.363   5.438   5.260
10259TIP3    H230663   3.244   5.345   5.266
10260TIP3   OH230664   5.166   5.362   4.936
10260TIP3    H130665   5.136   5.286   4.987
10260TIP3    H230666   5.088   5.391   4.889
10261TIP3   OH230667   4.554   5.165   3.724
10261TIP3    H130668   4.585   5.132   3.809
10261TIP3    H230669   4.520   5.088   3.679
10262TIP3   OH230670   3.253   5.161   4.592
10262TIP3    H130671   3.306   5.082   4.583
10262TIP3    H230672   3.312   5.233   4.570
10263TIP3   OH230673   3.026   5.425   4.634
10263TIP3    H130674   3.082   5.413   4.557
10263TIP3    H230675   3.049   5.511   4.667
10264TIP3   OH230676   4.962   5.452   4.786
10264TIP3    H130677   4.885   5.489   4.831
10264TIP3    H230678   4.930   5.370   4.749
10265TIP3   OH230679   3.021   4.924   4.139
10265TIP3    H130680   2.937   4.916   4.184
10265TIP3    H230681   3.002   4.980   4.063
10266TIP3   OH230682   4.180   6.646   3.664
10266TIP3    H130683   4.234   6.634   3.586
10266TIP3    H230684   4.223   6.717   3.712
10267TIP3   OH230685   3.209   4.928   4.991
10267TIP3    H130686   3.165   4.935   5.076
10267TIP3    H230687   3.173   5.000   4.939
10268TIP3   OH230688   3.276   6.439   5.035
10268TIP3    H130689   3.182   6.421   5.027
10268TIP3    H230690   3.293   6.435   5.129
10269TIP3   OH230691   3.491   6.490   4.592
10269TIP3    H130692   3.440   6.564   4.560
10269TIP3    H230693   3.575   6.498   4.547
10270TIP3   OH230694   3.883   6.719   4.730
10270TIP3    H130695   3.921   6.713   4.818
10270TIP3    H230696   3.944   6.772   4.680
10271TIP3   OH230697   4.073   6.874   4.604
10271TIP3    H130698   4.133   6.823   4.549
10271TIP3    H230699   4.130   6.930   4.656
10272TIP3   OH230700   4.897   5.191   4.690
10272TIP3    H130701   4.819   5.147   4.658
10272TIP3    H230702   4.929   5.135   4.760
10273TIP3   OH230703   3.149   6.718   4.642
10273TIP3    H130704   3.058   6.735   4.617
10273TIP3    H230705   3.170   6.787   4.705
10274TIP3   OH230706   3.379   6.720   4.490
10274TIP3    H130707   3.296   6.722   4.536
10274TIP3    H230708   3.357   6.743   4.400
10275TIP3   OH230709   3.791   6.736   4.282
10275TIP3    H130710   3.720   6.746   4.218
10275TIP3    H230711   3.801   6.823   4.320
10276TIP3   OH230712   4.054   6.671   4.334
10276TIP3    H130713   3.963   6.691   4.311
10276TIP3    H230714   4.105   6.734   4.284
10277TIP3   OH230715   4.254   6.836   4.229
10277TIP3    H130716   4.258   6.924   4.191
10277TIP3    H230717   4.285   6.779   4.158
10278TIP3   OH230718   3.057   6.503   4.350
10278TIP3    H130719   3.082   6.480   4.439
10278TIP3    H230720   3.129   6.470   4.296
10279TIP3   OH230721   3.262   6.388   4.213
10279TIP3    H130722   3.274   6.303   4.256
10279TIP3    H230723   3.348   6.429   4.217
10280TIP3   OH230724   3.530   6.473   4.240
10280TIP3    H130725   3.550   6.381   4.223
10280TIP3    H230726   3.586   6.497   4.314
10281TIP3   OH230727   4.100   5.136   4.306
10281TIP3    H130728   4.089   5.073   4.377
10281TIP3    H230729   4.164   5.095   4.248
10282TIP3   OH230730   4.591   4.987   4.174
10282TIP3    H130731   4.631   5.043   4.107
10282TIP3    H230732   4.504   5.024   4.186
10283TIP3   OH230733   4.712   5.099   3.954
10283TIP3    H130734   4.782   5.041   3.924
10283TIP3    H230735   4.748   5.187   3.946
10284TIP3   OH230736   3.325   4.822   4.308
10284TIP3    H130737   3.236   4.789   4.317
10284TIP3    H230738   3.380   4.743   4.305
10285TIP3   OH230739   3.160   4.736   3.979
10285TIP3    H130740   3.183   4.783   3.899
10285TIP3    H230741   3.119   4.801   4.035
10286TIP3   OH230742   3.822   4.858   4.212
10286TIP3    H130743   3.863   4.909   4.142
10286TIP3    H230744   3.860   4.894   4.293
10287TIP3   OH230745   4.296   4.999   4.166
10287TIP3    H130746   4.318   4.983   4.074
10287TIP3    H230747   4.299   4.912   4.207
10288TIP3   OH230748   4.373   4.941   3.898
10288TIP3    H130749   4.307   5.000   3.861
10288TIP3    H230750   4.346   4.853   3.871
10289TIP3   OH230751   2.814   6.304   3.739
10289TIP3    H130752   2.732   6.274   3.701
10289TIP3    H230753   2.824   6.394   3.708
10290TIP3   OH230754   3.258   4.862   3.738
10290TIP3    H130755   3.305   4.804   3.678
10290TIP3    H230756   3.326   4.919   3.774
10291TIP3   OH230757   3.738   5.060   3.836
10291TIP3    H130758   3.802   5.010   3.887
10291TIP3    H230759   3.752   5.151   3.862
10292TIP3   OH230760   3.628   6.454   3.335
10292TIP3    H130761   3.711   6.482   3.296
10292TIP3    H230762   3.596   6.385   3.277
10293TIP3   OH230763   4.328   6.597   3.434
10293TIP3    H130764   4.322   6.502   3.425
10293TIP3    H230765   4.286   6.632   3.355
10294TIP3   OH230766   3.535   5.173   5.191
10294TIP3    H130767   3.469   5.123   5.241
10294TIP3    H230768   3.619   5.143   5.225
10295TIP3   OH230769   3.780   5.105   5.321
10295TIP3    H130770   3.850   5.102   5.254
10295TIP3    H230771   3.796   5.028   5.375
10296TIP3   OH230772   2.935   6.292   3.391
10296TIP3    H130773   2.939   6.310   3.485
10296TIP3    H230774   3.017   6.246   3.372
10297TIP3   OH230775   4.541   6.735   4.623
10297TIP3    H130776   4.469   6.706   4.568
10297TIP3    H230777   4.531   6.830   4.628
10298TIP3   OH230778   5.824   6.119   3.357
10298TIP3    H130779   5.790   6.206   3.338
10298TIP3    H230780   5.753   6.060   3.332
10299TIP3   OH230781   5.820   6.117   3.783
10299TIP3    H130782   5.872   6.099   3.861
10299TIP3    H230783   5.775   6.035   3.765
10300TIP3   OH230784   5.119   5.972   4.129
10300TIP3    H130785   5.160   5.922   4.199
10300TIP3    H230786   5.192   5.999   4.073
10301TIP3   OH230787   6.094   6.424   3.455
10301TIP3    H130788   6.077   6.358   3.523
10301TIP3    H230789   6.111   6.505   3.504
10302TIP3   OH230790   5.112   6.403   3.813
10302TIP3    H130791   5.093   6.309   3.819
10302TIP3    H230792   5.207   6.408   3.803
10303TIP3   OH230793   4.787   5.614   3.620
10303TIP3    H130794   4.744   5.699   3.633
10303TIP3    H230795   4.725   5.564   3.566
10304TIP3   OH230796   4.871   5.926   3.824
10304TIP3    H130797   4.922   5.847   3.845
10304TIP3    H230798   4.938   5.991   3.798
10305TIP3   OH230799   5.753   6.846   3.470
10305TIP3    H130800   5.775   6.784   3.401
10305TIP3    H230801   5.762   6.795   3.551
10306TIP3   OH230802   5.629   6.338   3.788
10306TIP3    H130803   5.675   6.259   3.759
10306TIP3    H230804   5.698   6.396   3.819
10307TIP3   OH230805   6.681   5.664   3.785
10307TIP3    H130806   6.675   5.758   3.803
10307TIP3    H230807   6.725   5.658   3.700
10308TIP3   OH230808   6.030   5.825   3.822
10308TIP3    H130809   6.064   5.741   3.851
10308TIP3    H230810   5.996   5.808   3.734
10309TIP3   OH230811   5.388   5.483   3.780
10309TIP3    H130812   5.368   5.558   3.724
10309TIP3    H230813   5.333   5.413   3.745
10310TIP3   OH230814   6.088   5.587   3.419
10310TIP3    H130815   6.150   5.580   3.491
10310TIP3    H230816   6.139   5.622   3.346
10311TIP3   OH230817   5.010   5.700   3.910
10311TIP3    H130818   5.095   5.686   3.951
10311TIP3    H230819   5.015   5.651   3.828
10312TIP3   OH230820   5.432   5.898   3.730
10312TIP3    H130821   5.526   5.884   3.734
10312TIP3    H230822   5.397   5.817   3.694
10313TIP3   OH230823   6.683   5.889   3.967
10313TIP3    H130824   6.604   5.937   3.941
10313TIP3    H230825   6.657   5.844   4.048
10314TIP3   OH230826   5.364   5.495   4.235
10314TIP3    H130827   5.313   5.534   4.164
10314TIP3    H230828   5.312   5.510   4.314
10315TIP3   OH230829   5.686   6.329   3.244
10315TIP3    H130830   5.661   6.311   3.154
10315TIP3    H230831   5.647   6.414   3.264
10316TIP3   OH230832   5.461   6.264   3.995
10316TIP3    H130833   5.409   6.337   4.029
10316TIP3    H230834   5.511   6.302   3.923
10317TIP3   OH230835   6.240   5.612   3.643
10317TIP3    H130836   6.199   5.591   3.727
10317TIP3    H230837   6.298   5.686   3.662
10318TIP3   OH230838   5.259   5.600   4.000
10318TIP3    H130839   5.316   5.674   4.022
10318TIP3    H230840   5.305   5.556   3.929
10319TIP3   OH230841   5.309   6.469   4.104
10319TIP3    H130842   5.296   6.558   4.072
10319TIP3    H230843   5.232   6.450   4.156
10320TIP3   OH230844   4.684   6.168   3.358
10320TIP3    H130845   4.652   6.186   3.269
10320TIP3    H230846   4.706   6.255   3.392
10321TIP3   OH230847   6.125   6.670   3.601
10321TIP3    H130848   6.036   6.664   3.637
10321TIP3    H230849   6.126   6.752   3.552
10322TIP3   OH230850   6.460   5.603   3.944
10322TIP3    H130851   6.379   5.579   3.899
10322TIP3    H230852   6.525   5.612   3.875
10323TIP3   OH230853   5.694   5.188   3.955
10323TIP3    H130854   5.685   5.098   3.986
10323TIP3    H230855   5.620   5.235   3.995
10324TIP3   OH230856   5.832   6.697   3.249
10324TIP3    H130857   5.885   6.618   3.237
10324TIP3    H230858   5.891   6.768   3.222
10325TIP3   OH230859   5.989   6.480   3.204
10325TIP3    H130860   5.993   6.402   3.149
10325TIP3    H230861   6.028   6.453   3.287
10326TIP3   OH230862   6.369   6.556   3.945
10326TIP3    H130863   6.346   6.484   3.885
10326TIP3    H230864   6.354   6.635   3.894
10327TIP3   OH230865   5.648   5.957   3.210
10327TIP3    H130866   5.566   6.005   3.194
10327TIP3    H230867   5.695   5.961   3.127
10328TIP3   OH230868   5.617   5.771   2.899
10328TIP3    H130869   5.682   5.819   2.950
10328TIP3    H230870   5.668   5.705   2.852
10329TIP3   OH230871   6.533   6.231   3.804
10329TIP3    H130872   6.450   6.277   3.798
10329TIP3    H230873   6.572   6.240   3.716
10330TIP3   OH230874   6.009   6.051   3.168
10330TIP3    H130875   5.954   6.078   3.241
10330TIP3    H230876   6.092   6.027   3.208
10331TIP3   OH230877   6.230   6.076   4.122
10331TIP3    H130878   6.225   6.159   4.170
10331TIP3    H230879   6.148   6.072   4.073
10332TIP3   OH230880   5.231   6.029   3.576
10332TIP3    H130881   5.196   5.968   3.511
10332TIP3    H230882   5.305   5.983   3.615
10333TIP3   OH230883   5.374   6.453   3.718
10333TIP3    H130884   5.350   6.442   3.626
10333TIP3    H230885   5.462   6.416   3.725
10334TIP3   OH230886   5.330   6.027   3.952
10334TIP3    H130887   5.368   5.991   3.873
10334TIP3    H230888   5.377   6.109   3.967
10335TIP3   OH230889   5.883   6.667   3.727
10335TIP3    H130890   5.871   6.748   3.777
10335TIP3    H230891   5.867   6.597   3.790
10336TIP3   OH230892   5.507   6.563   4.275
10336TIP3    H130893   5.445   6.620   4.322
10336TIP3    H230894   5.452   6.513   4.215
10337TIP3   OH230895   5.840   5.909   3.003
10337TIP3    H130896   5.900   5.967   3.049
10337TIP3    H230897   5.869   5.913   2.911
10338TIP3   OH230898   5.261   6.107   4.421
10338TIP3    H130899   5.266   6.201   4.437
10338TIP3    H230900   5.168   6.089   4.412
10339TIP3   OH230901   5.580   6.587   3.262
10339TIP3    H130902   5.666   6.628   3.264
10339TIP3    H230903   5.526   6.648   3.212
10340TIP3   OH230904   5.294   6.721   4.360
10340TIP3    H130905   5.273   6.733   4.267
10340TIP3    H230906   5.209   6.709   4.402
10341TIP3   OH230907   6.349   5.139   3.063
10341TIP3    H130908   6.274   5.162   3.118
10341TIP3    H230909   6.361   5.214   3.005
10342TIP3   OH230910   5.106   5.869   3.376
10342TIP3    H130911   5.030   5.919   3.346
10342TIP3    H230912   5.074   5.780   3.387
10343TIP3   OH230913   6.177   6.515   2.617
10343TIP3    H130914   6.171   6.608   2.595
10343TIP3    H230915   6.268   6.491   2.595
10344TIP3   OH230916   4.894   6.280   4.310
10344TIP3    H130917   4.825   6.262   4.246
10344TIP3    H230918   4.928   6.194   4.333
10345TIP3   OH230919   4.736   6.472   3.964
10345TIP3    H130920   4.828   6.496   3.977
10345TIP3    H230921   4.687   6.549   3.992
10346TIP3   OH230922   6.592   6.931   4.010
10346TIP3    H130923   6.599   6.836   4.022
10346TIP3    H230924   6.511   6.955   4.056
10347TIP3   OH230925   5.697   6.708   4.138
10347TIP3    H130926   5.688   6.799   4.166
10347TIP3    H230927   5.629   6.661   4.187
10348TIP3   OH230928   5.476   6.803   3.090
10348TIP3    H130929   5.433   6.783   3.007
10348TIP3    H230930   5.439   6.887   3.118
10349TIP3   OH230931   4.910   6.662   3.467
10349TIP3    H130932   4.954   6.653   3.551
10349TIP3    H230933   4.861   6.581   3.456
10350TIP3   OH230934   5.678   6.740   2.715
10350TIP3    H130935   5.728   6.666   2.681
10350TIP3    H230936   5.714   6.754   2.803
10351TIP3   OH230937   5.731   6.783   2.985
10351TIP3    H130938   5.645   6.785   3.027
10351TIP3    H230939   5.789   6.747   3.052
10352TIP3   OH230940   6.483   6.031   4.252
10352TIP3    H130941   6.399   6.043   4.207
10352TIP3    H230942   6.503   5.938   4.241
10353TIP3   OH230943   5.095   6.467   4.277
10353TIP3    H130944   5.145   6.452   4.357
10353TIP3    H230945   5.021   6.406   4.283
10354TIP3   OH230946   5.467   5.286   4.082
10354TIP3    H130947   5.383   5.256   4.047
10354TIP3    H230948   5.446   5.367   4.128
10355TIP3   OH230949   6.013   5.333   4.279
10355TIP3    H130950   6.044   5.257   4.328
10355TIP3    H230951   5.923   5.347   4.310
10356TIP3   OH230952   6.241   5.807   4.222
10356TIP3    H130953   6.209   5.808   4.312
10356TIP3    H230954   6.224   5.895   4.189
10357TIP3   OH230955   5.916   5.883   2.738
10357TIP3    H130956   5.870   5.892   2.654
10357TIP3    H230957   5.999   5.929   2.725
10358TIP3   OH230958   5.619   5.322   3.076
10358TIP3    H130959   5.605   5.311   3.171
10358TIP3    H230960   5.531   5.326   3.039
10359TIP3   OH230961   5.414   5.807   4.100
10359TIP3    H130962   5.371   5.814   4.185
10359TIP3    H230963   5.393   5.889   4.055
10360TIP3   OH230964   5.291   5.684   3.621
10360TIP3    H130965   5.201   5.662   3.646
10360TIP3    H230966   5.301   5.651   3.532
10361TIP3   OH230967   5.774   5.754   3.344
10361TIP3    H130968   5.727   5.827   3.304
10361TIP3    H230969   5.833   5.723   3.276
10362TIP3   OH230970   5.955   6.017   4.412
10362TIP3    H130971   5.934   5.951   4.478
10362TIP3    H230972   6.045   6.043   4.433
10363TIP3   OH230973   5.938   5.771   3.570
10363TIP3    H130974   5.871   5.792   3.505
10363TIP3    H230975   5.988   5.699   3.531
10364TIP3   OH230976   5.255   5.820   4.325
10364TIP3    H130977   5.266   5.887   4.392
10364TIP3    H230978   5.236   5.740   4.374
10365TIP3   OH230979   5.341   5.316   3.044
10365TIP3    H130980   5.323   5.300   3.136
10365TIP3    H230981   5.259   5.348   3.008
10366TIP3   OH230982   4.841   5.336   3.913
10366TIP3    H130983   4.905   5.376   3.972
10366TIP3    H230984   4.841   5.392   3.836
10367TIP3   OH230985   4.805   5.355   3.442
10367TIP3    H130986   4.832   5.379   3.354
10367TIP3    H230987   4.718   5.394   3.451
10368TIP3   OH230988   5.982   6.025   3.998
10368TIP3    H130989   6.007   5.960   3.932
10368TIP3    H230990   5.938   5.975   4.066
10369TIP3   OH230991   5.658   5.475   3.672
10369TIP3    H130992   5.580   5.476   3.728
10369TIP3    H230993   5.731   5.471   3.733
10370TIP3   OH230994   5.050   5.561   3.678
10370TIP3    H130995   4.962   5.568   3.643
10370TIP3    H230996   5.078   5.471   3.656
10371TIP3   OH230997   5.308   5.557   3.378
10371TIP3    H130998   5.402   5.574   3.368
10371TIP3    H230999   5.272   5.578   3.292
10372TIP3   OH231000   6.102   5.566   3.883
10372TIP3    H131001   6.088   5.575   3.977
10372TIP3    H231002   6.033   5.505   3.855
10373TIP3   OH231003   5.200   5.586   3.130
10373TIP3    H131004   5.142   5.530   3.078
10373TIP3    H231005   5.252   5.634   3.065
10374TIP3   OH231006   6.303   7.266   4.099
10374TIP3    H131007   6.298   7.283   4.004
10374TIP3    H231008   6.382   7.313   4.127
10375TIP3   OH231009   5.244   6.375   4.510
10375TIP3    H131010   5.324   6.396   4.557
10375TIP3    H231011   5.175   6.386   4.576
10376TIP3   OH231012   5.705   5.846   3.775
10376TIP3    H131013   5.775   5.802   3.727
10376TIP3    H231014   5.705   5.805   3.861
10377TIP3   OH231015   5.200   5.314   3.653
10377TIP3    H131016   5.172   5.237   3.703
10377TIP3    H231017   5.207   5.283   3.563
10378TIP3   OH231018   5.679   5.747   4.039
10378TIP3    H131019   5.594   5.783   4.063
10378TIP3    H231020   5.742   5.796   4.091
10379TIP3   OH231021   5.412   6.095   3.157
10379TIP3    H131022   5.335   6.043   3.132
10379TIP3    H231023   5.385   6.139   3.238
10380TIP3   OH231024   6.298   6.364   3.760
10380TIP3    H131025   6.333   6.413   3.686
10380TIP3    H231026   6.219   6.321   3.725
10381TIP3   OH231027   5.878   5.414   3.063
10381TIP3    H131028   5.783   5.398   3.062
10381TIP3    H231029   5.885   5.509   3.073
10382TIP3   OH231030   5.824   6.439   4.179
10382TIP3    H131031   5.878   6.429   4.258
10382TIP3    H231032   5.787   6.527   4.186
10383TIP3   OH231033   5.940   5.678   3.130
10383TIP3    H131034   6.035   5.684   3.141
10383TIP3    H231035   5.917   5.756   3.078
10384TIP3   OH231036   5.098   6.111   3.804
10384TIP3    H131037   5.135   6.094   3.718
10384TIP3    H231038   5.166   6.084   3.866
10385TIP3   OH231039   5.563   6.257   2.998
10385TIP3    H131040   5.516   6.340   2.995
10385TIP3    H231041   5.509   6.200   3.052
10386TIP3   OH231042   4.987   6.048   4.441
10386TIP3    H131043   4.992   6.027   4.535
10386TIP3    H231044   4.911   5.999   4.410
10387TIP3   OH231045   5.731   6.181   4.461
10387TIP3    H131046   5.659   6.123   4.435
10387TIP3    H231047   5.810   6.138   4.429
10388TIP3   OH231048   5.969   6.728   4.065
10388TIP3    H131049   5.874   6.716   4.067
10388TIP3    H231050   5.990   6.765   4.150
10389TIP3   OH231051   6.348   5.771   2.950
10389TIP3    H131052   6.290   5.727   2.888
10389TIP3    H231053   6.356   5.860   2.916
10390TIP3   OH231054   6.614   6.653   4.035
10390TIP3    H131055   6.521   6.630   4.036
10390TIP3    H231056   6.646   6.620   3.951
10391TIP3   OH231057   6.092   6.586   2.876
10391TIP3    H131058   6.065   6.513   2.931
10391TIP3    H231059   6.116   6.546   2.793
10392TIP3   OH231060   6.073   6.222   3.658
10392TIP3    H131061   5.983   6.200   3.683
10392TIP3    H231062   6.108   6.142   3.620
10393TIP3   OH231063   5.233   6.458   3.475
10393TIP3    H131064   5.233   6.534   3.416
10393TIP3    H231065   5.141   6.449   3.502
10394TIP3   OH231066   4.787   5.733   3.191
10394TIP3    H131067   4.829   5.817   3.210
10394TIP3    H231068   4.706   5.735   3.242
10395TIP3   OH231069   5.307   6.211   3.377
10395TIP3    H131070   5.295   6.301   3.408
10395TIP3    H231071   5.281   6.157   3.452
10396TIP3   OH231072   5.514   6.779   3.929
10396TIP3    H131073   5.548   6.853   3.879
10396TIP3    H231074   5.589   6.747   3.979
10397TIP3   OH231075   5.147   6.680   3.325
10397TIP3    H131076   5.059   6.687   3.363
10397TIP3    H231077   5.183   6.768   3.330
10398TIP3   OH231078   5.859   6.447   3.903
10398TIP3    H131079   5.847   6.442   3.998
10398TIP3    H231080   5.939   6.397   3.886
10399TIP3   OH231081   5.865   6.324   2.778
10399TIP3    H131082   5.905   6.307   2.863
10399TIP3    H231083   5.781   6.280   2.782
10400TIP3   OH231084   6.121   6.938   3.941
10400TIP3    H131085   6.049   6.877   3.960
10400TIP3    H231086   6.087   6.992   3.869
10401TIP3   OH231087   6.167   6.787   2.575
10401TIP3    H131088   6.184   6.846   2.502
10401TIP3    H231089   6.098   6.830   2.625
10402TIP3   OH231090   5.202   5.564   4.451
10402TIP3    H131091   5.107   5.572   4.457
10402TIP3    H231092   5.227   5.519   4.532
10403TIP3   OH231093   6.033   6.272   3.001
10403TIP3    H131094   6.017   6.196   3.056
10403TIP3    H231095   6.126   6.268   2.981
10404TIP3   OH231096   4.940   6.683   4.091
10404TIP3    H131097   4.994   6.626   4.145
10404TIP3    H231098   4.956   6.771   4.126
10405TIP3   OH231099   5.209   6.285   2.785
10405TIP3    H131100   5.219   6.194   2.759
10405TIP3    H231101   5.195   6.281   2.880
10406TIP3   OH231102   5.149   6.302   3.058
10406TIP3    H131103   5.213   6.278   3.125
10406TIP3    H231104   5.147   6.398   3.061
10407TIP3   OH231105   4.880   5.989   3.267
10407TIP3    H131106   4.815   6.038   3.318
10407TIP3    H231107   4.900   6.046   3.193
10408TIP3   OH231108   6.055   5.605   4.156
10408TIP3    H131109   6.134   5.651   4.184
10408TIP3    H231110   6.056   5.523   4.205
10409TIP3   OH231111   5.942   5.369   3.330
10409TIP3    H131112   5.922   5.389   3.239
10409TIP3    H231113   5.987   5.448   3.362
10410TIP3   OH231114   5.418   6.485   2.993
10410TIP3    H131115   5.334   6.511   3.031
10410TIP3    H231116   5.444   6.560   2.939
10411TIP3   OH231117   5.585   5.568   3.419
10411TIP3    H131118   5.647   5.635   3.390
10411TIP3    H231119   5.610   5.550   3.509
10412TIP3   OH231120   5.889   5.851   4.190
10412TIP3    H131121   5.910   5.898   4.271
10412TIP3    H231122   5.940   5.771   4.195
10413TIP3   OH231123   5.764   5.271   3.514
10413TIP3    H131124   5.742   5.347   3.567
10413TIP3    H231125   5.834   5.301   3.456
10414TIP3   OH231126   5.169   6.575   3.072
10414TIP3    H131127   5.151   6.647   3.012
10414TIP3    H231128   5.160   6.614   3.159
10415TIP3   OH231129   5.276   5.283   3.319
10415TIP3    H131130   5.257   5.374   3.341
10415TIP3    H231131   5.370   5.274   3.335
10416TIP3   OH231132   6.506   5.764   4.159
10416TIP3    H131133   6.416   5.770   4.191
10416TIP3    H231134   6.502   5.702   4.086
10417TIP3   OH231135   6.165   5.964   3.569
10417TIP3    H131136   6.089   5.907   3.582
10417TIP3    H231137   6.234   5.923   3.622
10418TIP3   OH231138   4.906   6.166   3.051
10418TIP3    H131139   4.976   6.230   3.060
10418TIP3    H231140   4.938   6.104   2.985
10419TIP3   OH231141   4.819   5.455   3.187
10419TIP3    H131142   4.816   5.551   3.184
10419TIP3    H231143   4.751   5.427   3.125
10420TIP3   OH231144   6.147   6.934   3.511
10420TIP3    H131145   6.106   6.987   3.444
10420TIP3    H231146   6.241   6.946   3.497
10421TIP3   OH231147   5.208   5.199   4.034
10421TIP3    H131148   5.182   5.172   3.946
10421TIP3    H231149   5.194   5.122   4.089
10422TIP3   OH231150   4.733   6.440   3.441
10422TIP3    H131151   4.690   6.476   3.518
10422TIP3    H231152   4.688   6.483   3.367
10423TIP3   OH231153   4.946   6.980   4.514
10423TIP3    H131154   5.027   6.990   4.565
10423TIP3    H231155   4.940   6.887   4.494
10424TIP3   OH231156   5.404   6.880   4.556
10424TIP3    H131157   5.495   6.853   4.564
10424TIP3    H231158   5.370   6.828   4.483
10425TIP3   OH231159   5.361   6.489   2.675
10425TIP3    H131160   5.314   6.418   2.720
10425TIP3    H231161   5.436   6.446   2.634
10426TIP3   OH231162   6.021   6.827   4.316
10426TIP3    H131163   6.038   6.757   4.379
10426TIP3    H231164   6.094   6.887   4.327
10427TIP3   OH231165   5.805   6.526   2.599
10427TIP3    H131166   5.843   6.464   2.661
10427TIP3    H231167   5.861   6.522   2.523
10428TIP3   OH231168   5.036   6.380   4.699
10428TIP3    H131169   5.057   6.287   4.710
10428TIP3    H231170   4.949   6.380   4.660
10429TIP3   OH231171   5.028   5.978   2.896
10429TIP3    H131172   5.080   5.954   2.973
10429TIP3    H231173   5.093   5.992   2.827
10430TIP3   OH231174   5.662   6.459   4.478
10430TIP3    H131175   5.618   6.480   4.396
10430TIP3    H231176   5.699   6.371   4.463
10431TIP3   OH231177   5.615   6.200   2.736
10431TIP3    H131178   5.587   6.212   2.827
10431TIP3    H231179   5.591   6.109   2.716
10432TIP3   OH231180   6.139   6.505   4.095
10432TIP3    H131181   6.217   6.532   4.047
10432TIP3    H231182   6.076   6.574   4.080
10433TIP3   OH231183   5.148   6.124   4.704
10433TIP3    H131184   5.226   6.110   4.650
10433TIP3    H231185   5.184   6.140   4.792
10434TIP3   OH231186   5.201   5.921   3.109
10434TIP3    H131187   5.180   5.890   3.197
10434TIP3    H231188   5.251   5.850   3.069
10435TIP3   OH231189   5.522   6.008   4.367
10435TIP3    H131190   5.436   6.048   4.377
10435TIP3    H231191   5.552   6.038   4.281
10436TIP3   OH231192   5.347   5.739   2.957
10436TIP3    H131193   5.316   5.743   2.867
10436TIP3    H231194   5.442   5.749   2.950
10437TIP3   OH231195   6.015   6.378   4.438
10437TIP3    H131196   6.087   6.343   4.385
10437TIP3    H231197   6.015   6.325   4.517
10438TIP3   OH231198   6.135   6.022   2.640
10438TIP3    H131199   6.124   5.982   2.553
10438TIP3    H231200   6.113   6.114   2.627
10439TIP3   OH231201   5.626   5.777   4.473
10439TIP3    H131202   5.626   5.707   4.408
10439TIP3    H231203   5.592   5.854   4.426
10440TIP3   OH231204   5.624   5.582   4.270
10440TIP3    H131205   5.651   5.618   4.185
10440TIP3    H231206   5.534   5.555   4.256
10441TIP3   OH231207   5.634   6.106   4.140
10441TIP3    H131208   5.721   6.145   4.130
10441TIP3    H231209   5.576   6.163   4.088
10442TIP3   OH231210   6.219   6.070   4.500
10442TIP3    H131211   6.245   5.978   4.500
10442TIP3    H231212   6.300   6.118   4.480
10443TIP3   OH231213   6.251   6.323   4.263
10443TIP3    H131214   6.202   6.386   4.210
10443TIP3    H231215   6.342   6.332   4.232
10444TIP3   OH231216   5.519   5.868   4.717
10444TIP3    H131217   5.447   5.809   4.739
10444TIP3    H231218   5.544   5.844   4.628
10445TIP3   OH231219   5.749   5.350   4.364
10445TIP3    H131220   5.712   5.435   4.338
10445TIP3    H231221   5.674   5.290   4.362
10446TIP3   OH231222   5.885   5.806   4.574
10446TIP3    H131223   5.874   5.793   4.669
10446TIP3    H231224   5.799   5.789   4.538
10447TIP3   OH231225   6.153   5.784   4.478
10447TIP3    H131226   6.068   5.776   4.521
10447TIP3    H231227   6.213   5.738   4.536
10448TIP3   OH231228   6.372   5.695   4.636
10448TIP3    H131229   6.391   5.612   4.680
10448TIP3    H231230   6.360   5.757   4.707
10449TIP3   OH231231   5.336   5.676   4.798
10449TIP3    H131232   5.333   5.590   4.756
10449TIP3    H231233   5.373   5.659   4.884
10450TIP3   OH231234   5.867   5.309   4.612
10450TIP3    H131235   5.856   5.215   4.625
10450TIP3    H231236   5.829   5.325   4.526
10451TIP3   OH231237   5.923   5.520   4.778
10451TIP3    H131238   5.905   5.449   4.716
10451TIP3    H231239   5.848   5.578   4.771
10452TIP3   OH231240   5.170   6.785   2.891
10452TIP3    H131241   5.259   6.765   2.864
10452TIP3    H231242   5.131   6.830   2.816
10453TIP3   OH231243   4.632   6.166   3.069
10453TIP3    H131244   4.727   6.176   3.062
10453TIP3    H231245   4.612   6.084   3.024
10454TIP3   OH231246   4.536   6.749   3.530
10454TIP3    H131247   4.471   6.696   3.483
10454TIP3    H231248   4.581   6.688   3.587
10455TIP3   OH231249   4.681   6.579   3.695
10455TIP3    H131250   4.672   6.510   3.761
10455TIP3    H231251   4.733   6.647   3.737
10456TIP3   OH231252   6.419   6.982   3.503
10456TIP3    H131253   6.439   7.015   3.591
10456TIP3    H231254   6.474   7.035   3.445
10457TIP3   OH231255   6.430   7.021   3.785
10457TIP3    H131256   6.386   6.936   3.781
10457TIP3    H231257   6.502   7.007   3.847
10458TIP3   OH231258   6.498   6.720   4.355
10458TIP3    H131259   6.424   6.728   4.415
10458TIP3    H231260   6.544   6.804   4.360
10459TIP3   OH231261   6.309   6.239   2.968
10459TIP3    H131262   6.366   6.308   2.935
10459TIP3    H231263   6.358   6.200   3.040
10460TIP3   OH231264   6.444   6.094   3.165
10460TIP3    H131265   6.377   6.058   3.223
10460TIP3    H231266   6.511   6.130   3.224
10461TIP3   OH231267   6.491   6.496   3.604
10461TIP3    H131268   6.542   6.428   3.559
10461TIP3    H231269   6.493   6.571   3.543
10462TIP3   OH231270   6.295   6.776   3.797
10462TIP3    H131271   6.228   6.823   3.846
10462TIP3    H231272   6.247   6.736   3.724
10463TIP3   OH231273   6.347   6.011   2.815
10463TIP3    H131274   6.275   6.009   2.752
10463TIP3    H231275   6.331   6.091   2.866
10464TIP3   OH231276   6.190   5.661   2.756
10464TIP3    H131277   6.144   5.697   2.680
10464TIP3    H231278   6.185   5.567   2.745
10465TIP3   OH231279   6.237   5.957   3.301
10465TIP3    H131280   6.244   5.862   3.288
10465TIP3    H231281   6.217   5.967   3.394
10466TIP3   OH231282   4.855   6.012   4.082
10466TIP3    H131283   4.845   5.984   3.991
10466TIP3    H231284   4.949   6.008   4.098
10467TIP3   OH231285   6.508   6.360   4.162
10467TIP3    H131286   6.581   6.298   4.152
10467TIP3    H231287   6.510   6.411   4.081
10468TIP3   OH231288   6.712   6.164   4.178
10468TIP3    H131289   6.633   6.118   4.208
10468TIP3    H231290   6.784   6.114   4.215
10469TIP3   OH231291   6.159   5.391   2.724
10469TIP3    H131292   6.227   5.362   2.786
10469TIP3    H231293   6.079   5.348   2.755
10470TIP3   OH231294   6.231   5.676   3.191
10470TIP3    H131295   6.279   5.594   3.204
10470TIP3    H231296   6.272   5.715   3.113
10471TIP3   OH231297   6.383   5.842   3.704
10471TIP3    H131298   6.465   5.860   3.660
10471TIP3    H231299   6.391   5.885   3.789
10472TIP3   OH231300   6.433   6.005   3.924
10472TIP3    H131301   6.363   6.031   3.984
10472TIP3    H231302   6.464   6.087   3.885
10473TIP3   OH231303   5.068   5.697   4.713
10473TIP3    H131304   5.159   5.702   4.742
10473TIP3    H231305   5.037   5.614   4.748
10474TIP3   OH231306   6.934   5.622   4.479
10474TIP3    H131307   6.930   5.526   4.486
10474TIP3    H231308   6.888   5.642   4.398
10475TIP3   OH231309   6.349   5.426   3.248
10475TIP3    H131310   6.393   5.411   3.331
10475TIP3    H231311   6.287   5.353   3.240
10476TIP3   OH231312   5.048   5.423   4.079
10476TIP3    H131313   5.101   5.343   4.073
10476TIP3    H231314   5.107   5.494   4.055
10477TIP3   OH231315   4.824   5.678   4.122
10477TIP3    H131316   4.880   5.671   4.044
10477TIP3    H231317   4.846   5.763   4.159
10478TIP3   OH231318   6.785   5.731   4.273
10478TIP3    H131319   6.697   5.738   4.309
10478TIP3    H231320   6.773   5.684   4.190
10479TIP3   OH231321   6.387   5.338   2.877
10479TIP3    H131322   6.436   5.278   2.821
10479TIP3    H231323   6.441   5.417   2.881
10480TIP3   OH231324   4.821   5.132   3.597
10480TIP3    H131325   4.735   5.135   3.638
10480TIP3    H231326   4.826   5.212   3.544
10481TIP3   OH231327   5.974   6.904   3.149
10481TIP3    H131328   6.029   6.892   3.072
10481TIP3    H231329   6.016   6.974   3.199
10482TIP3   OH231330   5.006   5.202   4.436
10482TIP3    H131331   4.972   5.211   4.525
10482TIP3    H231332   4.961   5.271   4.387
10483TIP3   OH231333   5.063   6.704   4.521
10483TIP3    H131334   4.971   6.678   4.516
10483TIP3    H231335   5.087   6.692   4.613
10484TIP3   OH231336   5.285   6.746   4.078
10484TIP3    H131337   5.235   6.821   4.046
10484TIP3    H231338   5.370   6.753   4.035
10485TIP3   OH231339   5.679   6.975   4.216
10485TIP3    H131340   5.716   6.968   4.304
10485TIP3    H231341   5.741   7.029   4.167
10486TIP3   OH231342   5.870   7.130   4.091
10486TIP3    H131343   5.931   7.079   4.038
10486TIP3    H231344   5.926   7.187   4.144
10487TIP3   OH231345   4.947   6.977   4.130
10487TIP3    H131346   4.856   6.995   4.105
10487TIP3    H231347   4.969   7.046   4.192
10488TIP3   OH231348   5.176   6.976   3.976
10488TIP3    H131349   5.092   6.979   4.022
10488TIP3    H231350   5.154   6.999   3.885
10489TIP3   OH231351   5.587   6.992   3.769
10489TIP3    H131352   5.517   7.003   3.705
10489TIP3    H231353   5.598   7.079   3.807
10490TIP3   OH231354   5.850   6.926   3.820
10490TIP3    H131355   5.759   6.947   3.798
10490TIP3    H231356   5.902   6.990   3.772
10491TIP3   OH231357   6.050   7.091   3.715
10491TIP3    H131358   6.055   7.179   3.679
10491TIP3    H231359   6.081   7.034   3.645
10492TIP3   OH231360   4.853   6.759   3.839
10492TIP3    H131361   4.881   6.738   3.928
10492TIP3    H231362   4.924   6.727   3.784
10493TIP3   OH231363   5.057   6.646   3.700
10493TIP3    H131364   5.069   6.561   3.743
10493TIP3    H231365   5.144   6.687   3.704
10494TIP3   OH231366   5.325   6.730   3.727
10494TIP3    H131367   5.345   6.638   3.711
10494TIP3    H231368   5.381   6.755   3.801
10495TIP3   OH231369   5.898   5.385   3.795
10495TIP3    H131370   5.866   5.309   3.844
10495TIP3    H231371   5.967   5.349   3.739
10496TIP3   OH231372   6.411   5.268   3.715
10496TIP3    H131373   6.447   5.319   3.642
10496TIP3    H231374   6.321   5.302   3.724
10497TIP3   OH231375   6.505   5.369   3.475
10497TIP3    H131376   6.572   5.308   3.443
10497TIP3    H231377   6.543   5.456   3.460
10498TIP3   OH231378   5.136   5.084   3.796
10498TIP3    H131379   5.044   5.056   3.805
10498TIP3    H231380   5.186   5.002   3.798
10499TIP3   OH231381   4.954   4.961   3.429
10499TIP3    H131382   4.985   5.022   3.361
10499TIP3    H231383   4.901   5.015   3.487
10500TIP3   OH231384   5.612   5.117   3.696
10500TIP3    H131385   5.659   5.171   3.632
10500TIP3    H231386   5.641   5.150   3.781
10501TIP3   OH231387   6.110   5.264   3.656
10501TIP3    H131388   6.155   5.229   3.580
10501TIP3    H231389   6.095   5.189   3.713
10502TIP3   OH231390   6.159   5.214   3.246
10502TIP3    H131391   6.083   5.266   3.274
10502TIP3    H231392   6.143   5.127   3.282
10503TIP3   OH231393   4.613   6.564   3.226
10503TIP3    H131394   4.530   6.533   3.188
10503TIP3    H231395   4.621   6.654   3.195
10504TIP3   OH231396   5.065   5.118   3.229
10504TIP3    H131397   5.106   5.066   3.159
10504TIP3    H231398   5.133   5.178   3.258
10505TIP3   OH231399   5.550   5.308   3.343
10505TIP3    H131400   5.618   5.272   3.400
10505TIP3    H231401   5.552   5.402   3.359
10506TIP3   OH231402   5.425   6.710   2.821
10506TIP3    H131403   5.508   6.738   2.782
10506TIP3    H231404   5.394   6.640   2.764
10507TIP3   OH231405   6.123   6.855   2.921
10507TIP3    H131406   6.118   6.760   2.911
10507TIP3    H231407   6.082   6.889   2.842
10508TIP3   OH231408   5.298   5.424   4.695
10508TIP3    H131409   5.253   5.396   4.774
10508TIP3    H231410   5.370   5.361   4.685
10509TIP3   OH231411   4.738   6.559   2.879
10509TIP3    H131412   4.740   6.568   2.974
10509TIP3    H231413   4.817   6.510   2.858
10510TIP3   OH231414   6.340   6.993   4.107
10510TIP3    H131415   6.266   6.963   4.053
10510TIP3    H231416   6.327   7.088   4.113
10511TIP3   OH231417   7.623   6.375   2.846
10511TIP3    H131418   7.587   6.464   2.842
10511TIP3    H231419   7.551   6.319   2.817
10512TIP3   OH231420   7.626   6.377   3.272
10512TIP3    H131421   7.676   6.352   3.350
10512TIP3    H231422   7.578   6.298   3.248
10513TIP3   OH231423   6.916   6.232   3.624
10513TIP3    H131424   6.956   6.176   3.690
10513TIP3    H231425   6.988   6.254   3.564
10514TIP3   OH231426   7.926   6.672   2.950
10514TIP3    H131427   7.889   6.611   3.014
10514TIP3    H231428   7.925   6.757   2.994
10515TIP3   OH231429   6.906   6.660   3.303
10515TIP3    H131430   6.888   6.566   3.308
10515TIP3    H231431   7.000   6.666   3.291
10516TIP3   OH231432   6.588   5.863   3.086
10516TIP3    H131433   6.552   5.948   3.109
10516TIP3    H231434   6.515   5.817   3.044
10517TIP3   OH231435   6.675   6.176   3.308
10517TIP3    H131436   6.727   6.099   3.333
10517TIP3    H231437   6.740   6.242   3.284
10518TIP3   OH231438   7.540   7.111   2.949
10518TIP3    H131439   7.569   7.049   2.882
10518TIP3    H231440   7.531   7.058   3.028
10519TIP3   OH231441   7.419   6.594   3.274
10519TIP3    H131442   7.465   6.518   3.238
10519TIP3    H231443   7.490   6.650   3.307
10520TIP3   OH231444   8.436   5.921   3.308
10520TIP3    H131445   8.466   5.995   3.361
10520TIP3    H231446   8.426   5.957   3.220
10521TIP3   OH231447   7.834   6.079   3.306
10521TIP3    H131448   7.862   5.994   3.338
10521TIP3    H231449   7.793   6.062   3.221
10522TIP3   OH231450   7.184   5.739   3.266
10522TIP3    H131451   7.164   5.814   3.210
10522TIP3    H231452   7.128   5.669   3.234
10523TIP3   OH231453   7.882   5.842   2.907
10523TIP3    H131454   7.944   5.837   2.980
10523TIP3    H231455   7.934   5.875   2.834
10524TIP3   OH231456   6.817   5.954   3.402
10524TIP3    H131457   6.901   5.937   3.444
10524TIP3    H231458   6.819   5.904   3.321
10525TIP3   OH231459   7.225   6.158   3.218
10525TIP3    H131460   7.320   6.147   3.217
10525TIP3    H231461   7.192   6.075   3.183
10526TIP3   OH231462   8.510   6.136   3.465
10526TIP3    H131463   8.422   6.172   3.457
10526TIP3    H231464   8.542   6.170   3.548
10527TIP3   OH231465   7.156   5.738   3.739
10527TIP3    H131466   7.118   5.770   3.658
10527TIP3    H231467   7.092   5.760   3.806
10528TIP3   OH231468   7.481   6.601   2.780
10528TIP3    H131469   7.461   6.574   2.691
10528TIP3    H231470   7.439   6.686   2.790
10529TIP3   OH231471   7.259   6.518   3.486
10529TIP3    H131472   7.206   6.591   3.517
10529TIP3    H231473   7.308   6.554   3.412
10530TIP3   OH231474   8.035   5.868   3.132
10530TIP3    H131475   7.995   5.842   3.215
10530TIP3    H231476   8.089   5.944   3.154
10531TIP3   OH231477   7.063   5.843   3.495
10531TIP3    H131478   7.119   5.917   3.518
10531TIP3    H231479   7.109   5.800   3.423
10532TIP3   OH231480   7.105   6.724   3.590
10532TIP3    H131481   7.092   6.813   3.558
10532TIP3    H231482   7.026   6.706   3.641
10533TIP3   OH231483   6.480   6.426   2.847
10533TIP3    H131484   6.450   6.445   2.758
10533TIP3    H231485   6.503   6.512   2.883
10534TIP3   OH231486   7.925   6.925   3.081
10534TIP3    H131487   7.840   6.917   3.124
10534TIP3    H231488   7.920   7.007   3.033
10535TIP3   OH231489   8.235   5.809   3.464
10535TIP3    H131490   8.150   5.828   3.424
10535TIP3    H231491   8.299   5.837   3.399
10536TIP3   OH231492   7.507   5.437   3.461
10536TIP3    H131493   7.499   5.348   3.496
10536TIP3    H231494   7.431   5.483   3.497
10537TIP3   OH231495   7.632   6.962   2.734
10537TIP3    H131496   7.682   6.880   2.730
10537TIP3    H231497   7.695   7.030   2.712
10538TIP3   OH231498   7.798   6.750   2.713
10538TIP3    H131499   7.812   6.687   2.643
10538TIP3    H231500   7.843   6.712   2.789
10539TIP3   OH231501   8.160   6.811   3.427
10539TIP3    H131502   8.138   6.738   3.370
10539TIP3    H231503   8.142   6.889   3.374
10540TIP3   OH231504   7.442   6.222   2.696
10540TIP3    H131505   7.358   6.266   2.682
10540TIP3    H231506   7.488   6.229   2.613
10541TIP3   OH231507   7.404   6.041   2.386
10541TIP3    H131508   7.473   6.087   2.435
10541TIP3    H231509   7.452   5.977   2.333
10542TIP3   OH231510   8.338   6.477   3.279
10542TIP3    H131511   8.255   6.523   3.276
10542TIP3    H231512   8.372   6.483   3.190
10543TIP3   OH231513   7.801   6.321   2.646
10543TIP3    H131514   7.744   6.347   2.718
10543TIP3    H231515   7.879   6.286   2.689
10544TIP3   OH231516   8.035   6.338   3.604
10544TIP3    H131517   8.028   6.421   3.652
10544TIP3    H231518   7.953   6.333   3.555
10545TIP3   OH231519   7.024   6.285   3.067
10545TIP3    H131520   6.990   6.225   3.001
10545TIP3    H231521   7.098   6.240   3.106
10546TIP3   OH231522   7.166   6.710   3.206
10546TIP3    H131523   7.142   6.699   3.114
10546TIP3    H231524   7.254   6.672   3.213
10547TIP3   OH231525   7.124   6.282   3.443
10547TIP3    H131526   7.162   6.245   3.363
10547TIP3    H231527   7.174   6.363   3.457
10548TIP3   OH231528   7.695   6.920   3.224
10548TIP3    H131529   7.675   7.001   3.271
10548TIP3    H231530   7.673   6.850   3.285
10549TIP3   OH231531   7.303   6.820   3.759
10549TIP3    H131532   7.242   6.877   3.805
10549TIP3    H231533   7.249   6.769   3.699
10550TIP3   OH231534   7.637   6.166   2.487
10550TIP3    H131535   7.692   6.231   2.530
10550TIP3    H231536   7.663   6.169   2.395
10551TIP3   OH231537   7.038   6.372   3.925
10551TIP3    H131538   7.037   6.468   3.928
10551TIP3    H231539   6.948   6.348   3.902
10552TIP3   OH231540   7.373   6.861   2.764
10552TIP3    H131541   7.462   6.896   2.754
10552TIP3    H231542   7.319   6.913   2.706
10553TIP3   OH231543   7.093   6.977   3.847
10553TIP3    H131544   7.069   6.989   3.755
10553TIP3    H231545   7.010   6.963   3.891
10554TIP3   OH231546   8.145   5.396   2.553
10554TIP3    H131547   8.068   5.416   2.606
10554TIP3    H231548   8.157   5.472   2.496
10555TIP3   OH231549   6.902   6.127   2.866
10555TIP3    H131550   6.826   6.176   2.835
10555TIP3    H231551   6.869   6.038   2.881
10556TIP3   OH231552   7.948   6.751   2.089
10556TIP3    H131553   7.945   6.847   2.080
10556TIP3    H231554   8.041   6.729   2.079
10557TIP3   OH231555   6.690   6.536   3.800
10557TIP3    H131556   6.620   6.522   3.736
10557TIP3    H231557   6.718   6.447   3.825
10558TIP3   OH231558   6.534   6.728   3.450
10558TIP3    H131559   6.626   6.752   3.460
10558TIP3    H231560   6.486   6.807   3.478
10559TIP3   OH231561   8.385   7.183   3.497
10559TIP3    H131562   8.392   7.088   3.510
10559TIP3    H231563   8.306   7.208   3.544
10560TIP3   OH231564   7.494   6.966   3.625
10560TIP3    H131565   7.483   7.057   3.654
10560TIP3    H231566   7.426   6.918   3.672
10561TIP3   OH231567   7.261   7.059   2.575
10561TIP3    H131568   7.206   7.033   2.501
10561TIP3    H231569   7.227   7.144   2.601
10562TIP3   OH231570   6.705   6.919   2.954
10562TIP3    H131571   6.751   6.910   3.038
10562TIP3    H231572   6.657   6.837   2.944
10563TIP3   OH231573   7.480   6.985   2.220
10563TIP3    H131574   7.533   6.911   2.191
10563TIP3    H231575   7.514   7.006   2.307
10564TIP3   OH231576   7.523   7.051   2.488
10564TIP3    H131577   7.431   7.049   2.518
10564TIP3    H231578   7.571   7.009   2.559
10565TIP3   OH231579   8.278   6.287   3.759
10565TIP3    H131580   8.195   6.296   3.713
10565TIP3    H231581   8.295   6.193   3.760
10566TIP3   OH231582   6.886   6.727   3.760
10566TIP3    H131583   6.935   6.717   3.842
10566TIP3    H231584   6.814   6.664   3.768
10567TIP3   OH231585   7.273   5.539   3.569
10567TIP3    H131586   7.187   5.507   3.541
10567TIP3    H231587   7.254   5.599   3.642
10568TIP3   OH231588   7.815   5.646   3.808
10568TIP3    H131589   7.900   5.620   3.844
10568TIP3    H231590   7.752   5.625   3.877
10569TIP3   OH231591   8.031   6.072   3.694
10569TIP3    H131592   7.992   6.068   3.781
10569TIP3    H231593   8.015   6.161   3.663
10570TIP3   OH231594   7.712   6.135   2.224
10570TIP3    H131595   7.665   6.136   2.140
10570TIP3    H231596   7.788   6.191   2.209
10571TIP3   OH231597   7.420   5.567   2.549
10571TIP3    H131598   7.384   5.574   2.638
10571TIP3    H231599   7.385   5.485   2.516
10572TIP3   OH231600   7.211   6.056   3.584
10572TIP3    H131601   7.171   6.063   3.670
10572TIP3    H231602   7.191   6.139   3.540
10573TIP3   OH231603   7.088   5.942   3.107
10573TIP3    H131604   6.999   5.918   3.132
10573TIP3    H231605   7.098   5.910   3.018
10574TIP3   OH231606   7.564   6.016   2.832
10574TIP3    H131607   7.517   6.089   2.792
10574TIP3    H231608   7.621   5.983   2.763
10575TIP3   OH231609   7.758   6.283   3.908
10575TIP3    H131610   7.731   6.214   3.969
10575TIP3    H231611   7.851   6.296   3.928
10576TIP3   OH231612   7.734   6.030   3.055
10576TIP3    H131613   7.666   6.052   2.991
10576TIP3    H231614   7.780   5.955   3.016
10577TIP3   OH231615   7.048   6.068   3.808
10577TIP3    H131616   7.089   6.120   3.878
10577TIP3    H231617   7.021   5.987   3.852
10578TIP3   OH231618   7.087   5.547   2.525
10578TIP3    H131619   7.080   5.555   2.620
10578TIP3    H231620   7.010   5.593   2.491
10579TIP3   OH231621   6.638   5.589   3.392
10579TIP3    H131622   6.709   5.629   3.443
10579TIP3    H231623   6.675   5.579   3.304
10580TIP3   OH231624   6.535   5.573   2.889
10580TIP3    H131625   6.581   5.609   2.813
10580TIP3    H231626   6.472   5.641   2.914
10581TIP3   OH231627   7.785   6.277   3.485
10581TIP3    H131628   7.809   6.212   3.419
10581TIP3    H231629   7.742   6.227   3.554
10582TIP3   OH231630   7.455   5.726   3.159
10582TIP3    H131631   7.377   5.726   3.215
10582TIP3    H231632   7.529   5.718   3.219
10583TIP3   OH231633   6.849   5.816   3.168
10583TIP3    H131634   6.761   5.820   3.130
10583TIP3    H231635   6.879   5.727   3.150
10584TIP3   OH231636   7.102   5.817   2.862
10584TIP3    H131637   7.196   5.828   2.854
10584TIP3    H231638   7.068   5.835   2.774
10585TIP3   OH231639   7.901   5.820   3.378
10585TIP3    H131640   7.881   5.833   3.470
10585TIP3    H231641   7.834   5.757   3.348
10586TIP3   OH231642   6.993   5.837   2.611
10586TIP3    H131643   6.929   5.790   2.558
10586TIP3    H231644   7.046   5.886   2.549
10587TIP3   OH231645   8.100   7.523   3.588
10587TIP3    H131646   8.096   7.538   3.493
10587TIP3    H231647   8.179   7.570   3.616
10588TIP3   OH231648   7.030   6.643   3.996
10588TIP3    H131649   7.115   6.659   4.039
10588TIP3    H231650   6.966   6.657   4.065
10589TIP3   OH231651   7.503   6.119   3.247
10589TIP3    H131652   7.566   6.064   3.201
10589TIP3    H231653   7.500   6.083   3.336
10590TIP3   OH231654   6.988   5.568   3.149
10590TIP3    H131655   6.962   5.491   3.199
10590TIP3    H231656   7.013   5.533   3.063
10591TIP3   OH231657   7.482   6.032   3.506
10591TIP3    H131658   7.395   6.032   3.547
10591TIP3    H231659   7.542   6.059   3.575
10592TIP3   OH231660   7.197   6.350   2.642
10592TIP3    H131661   7.121   6.297   2.617
10592TIP3    H231662   7.172   6.391   2.724
10593TIP3   OH231663   8.099   6.612   3.245
10593TIP3    H131664   8.128   6.662   3.169
10593TIP3    H231665   8.018   6.569   3.216
10594TIP3   OH231666   7.673   5.672   2.553
10594TIP3    H131667   7.580   5.650   2.548
10594TIP3    H231668   7.674   5.767   2.563
10595TIP3   OH231669   7.623   6.701   3.665
10595TIP3    H131670   7.675   6.690   3.745
10595TIP3    H231671   7.585   6.788   3.673
10596TIP3   OH231672   7.729   5.938   2.618
10596TIP3    H131673   7.824   5.944   2.626
10596TIP3    H231674   7.704   6.014   2.567
10597TIP3   OH231675   6.893   6.368   3.295
10597TIP3    H131676   6.930   6.351   3.209
10597TIP3    H231677   6.962   6.342   3.356
10598TIP3   OH231678   7.387   6.519   2.535
10598TIP3    H131679   7.339   6.596   2.505
10598TIP3    H231680   7.318   6.457   2.560
10599TIP3   OH231681   6.766   6.295   3.939
10599TIP3    H131682   6.765   6.250   4.023
10599TIP3    H231683   6.694   6.256   3.890
10600TIP3   OH231684   7.532   6.443   3.947
10600TIP3    H131685   7.465   6.396   3.897
10600TIP3    H231686   7.614   6.401   3.921
10601TIP3   OH231687   7.764   6.989   3.551
10601TIP3    H131688   7.670   6.975   3.554
10601TIP3    H231689   7.786   7.024   3.637
10602TIP3   OH231690   8.153   6.032   2.440
10602TIP3    H131691   8.098   5.981   2.380
10602TIP3    H231692   8.156   6.119   2.402
10603TIP3   OH231693   8.403   6.906   3.517
10603TIP3    H131694   8.309   6.886   3.515
10603TIP3    H231695   8.436   6.874   3.433
10604TIP3   OH231696   7.898   6.819   2.364
10604TIP3    H131697   7.867   6.748   2.419
10604TIP3    H231698   7.891   6.785   2.274
10605TIP3   OH231699   7.871   6.474   3.149
10605TIP3    H131700   7.781   6.453   3.176
10605TIP3    H231701   7.902   6.394   3.107
10606TIP3   OH231702   7.031   6.714   2.962
10606TIP3    H131703   7.034   6.790   2.904
10606TIP3    H231704   6.937   6.700   2.978
10607TIP3   OH231705   6.585   5.999   2.674
10607TIP3    H131706   6.628   6.082   2.695
10607TIP3    H231707   6.504   6.001   2.725
10608TIP3   OH231708   7.103   6.464   2.868
10608TIP3    H131709   7.095   6.554   2.896
10608TIP3    H231710   7.077   6.412   2.943
10609TIP3   OH231711   7.310   7.036   3.416
10609TIP3    H131712   7.344   7.110   3.366
10609TIP3    H231713   7.385   7.003   3.465
10610TIP3   OH231714   6.943   6.936   2.813
10610TIP3    H131715   6.855   6.943   2.850
10610TIP3    H231716   6.979   7.024   2.818
10611TIP3   OH231717   7.651   6.699   3.391
10611TIP3    H131718   7.643   6.696   3.486
10611TIP3    H231719   7.719   6.635   3.370
10612TIP3   OH231720   7.917   7.195   3.428
10612TIP3    H131721   7.847   7.134   3.449
10612TIP3    H231722   7.882   7.249   3.357
10613TIP3   OH231723   7.961   7.028   2.089
10613TIP3    H131724   7.987   7.098   2.029
10613TIP3    H231725   7.886   7.064   2.135
10614TIP3   OH231726   6.950   5.821   3.923
10614TIP3    H131727   6.864   5.863   3.928
10614TIP3    H231728   6.939   5.737   3.968
10615TIP3   OH231729   7.861   6.566   2.513
10615TIP3    H131730   7.820   6.486   2.546
10615TIP3    H231731   7.947   6.538   2.482
10616TIP3   OH231732   6.737   6.940   3.577
10616TIP3    H131733   6.791   6.882   3.631
10616TIP3    H231734   6.752   7.027   3.612
10617TIP3   OH231735   7.010   6.542   2.267
10617TIP3    H131736   7.019   6.449   2.244
10617TIP3    H231737   6.997   6.542   2.361
10618TIP3   OH231738   6.951   6.557   2.539
10618TIP3    H131739   7.028   6.530   2.590
10618TIP3    H231740   6.949   6.652   2.547
10619TIP3   OH231741   6.678   6.250   2.756
10619TIP3    H131742   6.614   6.300   2.806
10619TIP3    H231743   6.701   6.308   2.683
10620TIP3   OH231744   7.839   5.870   3.645
10620TIP3    H131745   7.919   5.914   3.676
10620TIP3    H231746   7.829   5.795   3.703
10621TIP3   OH231747   7.734   5.623   2.820
10621TIP3    H131748   7.712   5.641   2.729
10621TIP3    H231749   7.777   5.703   2.851
10622TIP3   OH231750   7.217   6.729   2.482
10622TIP3    H131751   7.136   6.761   2.521
10622TIP3    H231752   7.240   6.795   2.417
10623TIP3   OH231753   7.380   5.823   2.908
10623TIP3    H131754   7.441   5.892   2.881
10623TIP3    H231755   7.406   5.803   2.998
10624TIP3   OH231756   7.686   6.112   3.682
10624TIP3    H131757   7.709   6.153   3.765
10624TIP3    H231758   7.733   6.028   3.683
10625TIP3   OH231759   7.547   5.517   2.994
10625TIP3    H131760   7.524   5.593   3.047
10625TIP3    H231761   7.617   5.548   2.936
10626TIP3   OH231762   6.972   6.829   2.563
10626TIP3    H131763   6.960   6.902   2.502
10626TIP3    H231764   6.961   6.867   2.649
10627TIP3   OH231765   7.058   5.544   2.805
10627TIP3    H131766   7.047   5.636   2.831
10627TIP3    H231767   7.153   5.529   2.811
10628TIP3   OH231768   8.292   6.004   3.671
10628TIP3    H131769   8.198   6.022   3.684
10628TIP3    H231770   8.295   5.937   3.603
10629TIP3   OH231771   7.959   6.216   3.053
10629TIP3    H131772   7.881   6.163   3.067
10629TIP3    H231773   8.025   6.177   3.111
10630TIP3   OH231774   6.706   6.425   2.539
10630TIP3    H131775   6.778   6.487   2.546
10630TIP3    H231776   6.736   6.362   2.472
10631TIP3   OH231777   6.607   5.721   2.671
10631TIP3    H131778   6.621   5.815   2.681
10631TIP3    H231779   6.562   5.712   2.586
10632TIP3   OH231780   7.937   7.192   3.000
10632TIP3    H131781   7.891   7.246   2.935
10632TIP3    H231782   8.030   7.209   2.984
10633TIP3   OH231783   7.009   5.444   3.531
10633TIP3    H131784   6.983   5.412   3.445
10633TIP3    H231785   7.003   5.367   3.588
10634TIP3   OH231786   6.529   6.695   2.931
10634TIP3    H131787   6.489   6.733   3.010
10634TIP3    H231788   6.485   6.739   2.859
10635TIP3   OH231789   6.735   7.234   3.998
10635TIP3    H131790   6.818   7.236   4.046
10635TIP3    H231791   6.718   7.140   3.984
10636TIP3   OH231792   7.201   7.136   4.044
10636TIP3    H131793   7.293   7.109   4.051
10636TIP3    H231794   7.167   7.084   3.971
10637TIP3   OH231795   7.206   6.699   2.146
10637TIP3    H131796   7.151   6.640   2.196
10637TIP3    H231797   7.282   6.646   2.122
10638TIP3   OH231798   7.818   7.083   3.803
10638TIP3    H131799   7.835   7.013   3.865
10638TIP3    H231800   7.892   7.143   3.814
10639TIP3   OH231801   7.608   6.767   2.115
10639TIP3    H131802   7.549   6.693   2.101
10639TIP3    H231803   7.655   6.776   2.032
10640TIP3   OH231804   6.839   6.634   4.200
10640TIP3    H131805   6.861   6.541   4.206
10640TIP3    H231806   6.753   6.635   4.157
10641TIP3   OH231807   6.819   6.231   2.381
10641TIP3    H131808   6.868   6.207   2.459
10641TIP3    H231809   6.886   6.247   2.314
10642TIP3   OH231810   7.456   6.717   3.965
10642TIP3    H131811   7.414   6.738   3.882
10642TIP3    H231812   7.496   6.631   3.951
10643TIP3   OH231813   7.936   6.765   3.587
10643TIP3    H131814   8.012   6.791   3.535
10643TIP3    H231815   7.871   6.833   3.569
10644TIP3   OH231816   7.001   6.396   4.208
10644TIP3    H131817   6.997   6.373   4.115
10644TIP3    H231818   7.093   6.385   4.231
10645TIP3   OH231819   6.987   6.173   2.595
10645TIP3    H131820   6.974   6.142   2.685
10645TIP3    H231821   7.041   6.105   2.554
10646TIP3   OH231822   7.287   6.259   3.861
10646TIP3    H131823   7.207   6.311   3.875
10646TIP3    H231824   7.325   6.295   3.781
10647TIP3   OH231825   7.137   5.996   2.441
10647TIP3    H131826   7.108   6.000   2.350
10647TIP3    H231827   7.231   6.011   2.436
10648TIP3   OH231828   7.815   6.634   3.932
10648TIP3    H131829   7.883   6.597   3.876
10648TIP3    H231830   7.814   6.577   4.009
10649TIP3   OH231831   7.919   6.295   2.130
10649TIP3    H131832   7.917   6.255   2.043
10649TIP3    H231833   7.879   6.381   2.117
10650TIP3   OH231834   7.411   6.049   3.981
10650TIP3    H131835   7.414   5.977   3.918
10650TIP3    H231836   7.375   6.122   3.931
10651TIP3   OH231837   7.404   5.861   3.783
10651TIP3    H131838   7.463   5.830   3.714
10651TIP3    H231839   7.323   5.811   3.770
10652TIP3   OH231840   7.422   6.376   3.658
10652TIP3    H131841   7.512   6.384   3.625
10652TIP3    H231842   7.369   6.429   3.597
10653TIP3   OH231843   8.025   6.311   4.008
10653TIP3    H131844   8.060   6.222   4.012
10653TIP3    H231845   8.102   6.366   3.994
10654TIP3   OH231846   8.051   6.581   3.750
10654TIP3    H131847   8.000   6.645   3.700
10654TIP3    H231848   8.141   6.593   3.720
10655TIP3   OH231849   7.301   6.133   4.220
10655TIP3    H131850   7.241   6.060   4.237
10655TIP3    H231851   7.332   6.118   4.131
10656TIP3   OH231852   7.679   6.071   4.063
10656TIP3    H131853   7.683   6.046   4.155
10656TIP3    H231854   7.588   6.053   4.038
10657TIP3   OH231855   7.924   6.028   3.936
10657TIP3    H131856   7.843   6.025   3.988
10657TIP3    H231857   7.992   5.999   3.996
10658TIP3   OH231858   8.157   5.995   4.088
10658TIP3    H131859   8.174   5.901   4.093
10658TIP3    H231860   8.148   6.023   4.179
10659TIP3   OH231861   7.162   5.902   4.283
10659TIP3    H131862   7.181   5.835   4.217
10659TIP3    H231863   7.202   5.869   4.364
10660TIP3   OH231864   7.660   5.556   4.025
10660TIP3    H131865   7.735   5.500   4.046
10660TIP3    H231866   7.591   5.495   3.998
10661TIP3   OH231867   7.701   5.758   4.236
10661TIP3    H131868   7.683   5.695   4.167
10661TIP3    H231869   7.626   5.817   4.236
10662TIP3   OH231870   6.990   7.038   2.383
10662TIP3    H131871   7.068   7.004   2.340
10662TIP3    H231872   6.942   7.083   2.314
10663TIP3   OH231873   6.432   6.424   2.557
10663TIP3    H131874   6.527   6.435   2.551
10663TIP3    H231875   6.416   6.339   2.516
10664TIP3   OH231876   6.332   7.005   3.016
10664TIP3    H131877   6.268   6.952   2.969
10664TIP3    H231878   6.378   6.943   3.073
10665TIP3   OH231879   6.477   6.834   3.181
10665TIP3    H131880   6.468   6.767   3.248
10665TIP3    H231881   6.529   6.903   3.223
10666TIP3   OH231882   8.206   7.250   2.993
10666TIP3    H131883   8.226   7.276   3.083
10666TIP3    H231884   8.259   7.308   2.939
10667TIP3   OH231885   8.231   7.273   3.273
10667TIP3    H131886   8.183   7.190   3.269
10667TIP3    H231887   8.300   7.257   3.338
10668TIP3   OH231888   8.289   6.978   3.841
10668TIP3    H131889   8.217   6.986   3.904
10668TIP3    H231890   8.336   7.061   3.847
10669TIP3   OH231891   8.120   6.487   2.454
10669TIP3    H131892   8.175   6.560   2.426
10669TIP3    H231893   8.160   6.457   2.536
10670TIP3   OH231894   8.212   6.366   2.689
10670TIP3    H131895   8.138   6.311   2.715
10670TIP3    H231896   8.224   6.427   2.761
10671TIP3   OH231897   8.291   6.748   3.085
10671TIP3    H131898   8.326   6.685   3.023
10671TIP3    H231899   8.287   6.830   3.036
10672TIP3   OH231900   8.088   7.033   3.279
10672TIP3    H131901   8.021   7.080   3.330
10672TIP3    H231902   8.040   6.994   3.206
10673TIP3   OH231903   8.136   6.267   2.295
10673TIP3    H131904   8.061   6.268   2.236
10673TIP3    H231905   8.126   6.345   2.349
10674TIP3   OH231906   8.004   5.909   2.247
10674TIP3    H131907   7.948   5.950   2.180
10674TIP3    H231908   7.996   5.815   2.231
10675TIP3   OH231909   8.015   6.201   2.782
10675TIP3    H131910   8.018   6.107   2.766
10675TIP3    H231911   7.996   6.209   2.875
10676TIP3   OH231912   6.654   6.270   3.564
10676TIP3    H131913   6.646   6.241   3.473
10676TIP3    H231914   6.748   6.267   3.582
10677TIP3   OH231915   8.307   6.623   3.652
10677TIP3    H131916   8.376   6.558   3.636
10677TIP3    H231917   8.311   6.681   3.576
10678TIP3   OH231918   8.489   6.415   3.641
10678TIP3    H131919   8.414   6.372   3.683
10678TIP3    H231920   8.565   6.361   3.666
10679TIP3   OH231921   7.964   5.638   2.210
10679TIP3    H131922   8.025   5.612   2.280
10679TIP3    H231923   7.879   5.604   2.239
10680TIP3   OH231924   8.026   5.933   2.676
10680TIP3    H131925   8.069   5.848   2.688
10680TIP3    H231926   8.067   5.971   2.599
10681TIP3   OH231927   8.177   6.100   3.197
10681TIP3    H131928   8.261   6.106   3.151
10681TIP3    H231929   8.192   6.142   3.281
10682TIP3   OH231930   8.253   6.252   3.421
10682TIP3    H131931   8.181   6.280   3.478
10682TIP3    H231932   8.282   6.333   3.378
10683TIP3   OH231933   6.896   5.983   4.308
10683TIP3    H131934   6.988   5.960   4.290
10683TIP3    H231935   6.848   5.901   4.296
10684TIP3   OH231936   8.714   5.850   3.965
10684TIP3    H131937   8.777   5.792   3.924
10684TIP3    H231938   8.674   5.897   3.892
10685TIP3   OH231939   8.141   5.683   2.729
10685TIP3    H131940   8.184   5.668   2.812
10685TIP3    H231941   8.078   5.612   2.721
10686TIP3   OH231942   6.850   5.667   3.558
10686TIP3    H131943   6.904   5.588   3.556
10686TIP3    H231944   6.912   5.738   3.539
10687TIP3   OH231945   6.631   5.936   3.618
10687TIP3    H131946   6.684   5.922   3.539
10687TIP3    H231947   6.651   6.026   3.644
10688TIP3   OH231948   8.559   5.957   3.767
10688TIP3    H131949   8.477   5.996   3.798
10688TIP3    H231950   8.531   5.883   3.712
10689TIP3   OH231951   8.189   5.597   2.372
10689TIP3    H131952   8.235   5.537   2.313
10689TIP3    H231953   8.243   5.676   2.372
10690TIP3   OH231954   6.612   5.437   3.114
10690TIP3    H131955   6.528   5.428   3.159
10690TIP3    H231956   6.593   5.492   3.039
10691TIP3   OH231957   7.797   7.157   2.645
10691TIP3    H131958   7.842   7.131   2.565
10691TIP3    H231959   7.833   7.244   2.665
10692TIP3   OH231960   6.799   5.593   4.028
10692TIP3    H131961   6.801   5.497   4.036
10692TIP3    H231962   6.752   5.610   3.946
10693TIP3   OH231963   6.868   6.953   4.012
10693TIP3    H131964   6.775   6.934   4.005
10693TIP3    H231965   6.886   6.953   4.106
10694TIP3   OH231966   7.081   7.002   3.565
10694TIP3    H131967   7.031   7.077   3.533
10694TIP3    H231968   7.166   7.009   3.521
10695TIP3   OH231969   7.473   7.232   3.704
10695TIP3    H131970   7.512   7.225   3.792
10695TIP3    H231971   7.535   7.286   3.655
10696TIP3   OH231972   7.664   7.387   3.577
10696TIP3    H131973   7.723   7.335   3.524
10696TIP3    H231974   7.721   7.443   3.630
10697TIP3   OH231975   8.472   5.699   3.669
10697TIP3    H131976   8.383   5.676   3.643
10697TIP3    H231977   8.521   5.616   3.663
10698TIP3   OH231978   6.743   7.233   3.617
10698TIP3    H131979   6.652   7.251   3.592
10698TIP3    H231980   6.765   7.302   3.679
10699TIP3   OH231981   6.972   7.233   3.463
10699TIP3    H131982   6.889   7.236   3.509
10699TIP3    H231983   6.950   7.256   3.372
10700TIP3   OH231984   7.384   7.248   3.255
10700TIP3    H131985   7.313   7.258   3.192
10700TIP3    H231986   7.395   7.335   3.293
10701TIP3   OH231987   7.648   7.184   3.305
10701TIP3    H131988   7.557   7.202   3.284
10701TIP3    H231989   7.698   7.248   3.254
10702TIP3   OH231990   7.852   7.357   3.204
10702TIP3    H131991   7.846   7.443   3.163
10702TIP3    H231992   7.878   7.298   3.134
10703TIP3   OH231993   6.648   7.016   3.325
10703TIP3    H131994   6.676   6.996   3.414
10703TIP3    H231995   6.720   6.984   3.270
10704TIP3   OH231996   6.853   6.903   3.188
10704TIP3    H131997   6.865   6.818   3.230
10704TIP3    H231998   6.940   6.943   3.190
10705TIP3   OH231999   7.122   6.988   3.214
10705TIP3    H132000   7.140   6.895   3.197
10705TIP3    H232001   7.177   7.011   3.288
10706TIP3   OH232002   7.684   5.642   3.298
10706TIP3    H132003   7.656   5.571   3.357
10706TIP3    H232004   7.753   5.602   3.245
10707TIP3   OH232005   8.182   5.553   3.186
10707TIP3    H132006   8.218   5.603   3.113
10707TIP3    H232007   8.089   5.573   3.186
10708TIP3   OH232008   8.297   5.635   2.952
10708TIP3    H132009   8.363   5.570   2.928
10708TIP3    H232010   8.341   5.719   2.940
10709TIP3   OH232011   6.919   5.338   3.292
10709TIP3    H132012   6.830   5.304   3.303
10709TIP3    H232013   6.973   5.259   3.284
10710TIP3   OH232014   6.740   5.245   2.947
10710TIP3    H132015   6.769   5.294   2.870
10710TIP3    H232016   6.704   5.311   3.006
10711TIP3   OH232017   7.407   5.375   3.199
10711TIP3    H132018   7.455   5.423   3.131
10711TIP3    H232019   7.445   5.405   3.281
10712TIP3   OH232020   7.899   5.535   3.157
10712TIP3    H132021   7.905   5.500   3.068
10712TIP3    H232022   7.900   5.458   3.213
10713TIP3   OH232023   7.955   5.474   2.736
10713TIP3    H132024   7.875   5.521   2.760
10713TIP3    H232025   7.944   5.387   2.774
10714TIP3   OH232026   6.407   6.818   2.719
10714TIP3    H132027   6.325   6.787   2.682
10714TIP3    H232028   6.416   6.908   2.685
10715TIP3   OH232029   6.851   5.375   2.712
10715TIP3    H132030   6.897   5.316   2.653
10715TIP3    H232031   6.919   5.432   2.748
10716TIP3   OH232032   7.334   5.571   2.813
10716TIP3    H132033   7.394   5.519   2.867
10716TIP3    H232034   7.348   5.661   2.840
10717TIP3   OH232035   7.223   6.932   2.290
10717TIP3    H132036   7.308   6.970   2.266
10717TIP3    H232037   7.212   6.858   2.231
10718TIP3   OH232038   7.930   7.089   2.410
10718TIP3    H132039   7.922   6.995   2.400
10718TIP3    H232040   7.879   7.126   2.338
10719TIP3   OH232041   6.529   6.809   2.363
10719TIP3    H132042   6.534   6.828   2.457
10719TIP3    H232043   6.610   6.763   2.343
10720TIP3   OH232044   8.229   5.729   4.094
10720TIP3    H132045   8.242   5.697   4.183
10720TIP3    H232046   8.315   5.720   4.053
10721TIP3   OH232047   8.136   7.250   3.594
10721TIP3    H132048   8.062   7.219   3.541
10721TIP3    H232049   8.122   7.344   3.602
10722TIP3   OH232050   9.422   6.624   2.319
10722TIP3    H132051   9.395   6.713   2.297
10722TIP3    H232052   9.349   6.569   2.290
10723TIP3   OH232053   9.309   6.627   2.758
10723TIP3    H132054   9.369   6.639   2.832
10723TIP3    H232055   9.286   6.534   2.761
10724TIP3   OH232056   8.714   6.936   2.794
10724TIP3    H132057   8.717   6.869   2.862
10724TIP3    H232058   8.805   6.947   2.767
10725TIP3   OH232059   8.378   6.155   2.610
10725TIP3    H132060   8.324   6.231   2.632
10725TIP3    H232061   8.320   6.099   2.558
10726TIP3   OH232062   8.519   6.379   2.793
10726TIP3    H132063   8.495   6.292   2.762
10726TIP3    H232064   8.544   6.426   2.713
10727TIP3   OH232065   9.301   7.395   2.478
10727TIP3    H132066   9.309   7.300   2.485
10727TIP3    H232067   9.262   7.422   2.561
10728TIP3   OH232068   9.196   6.872   2.764
10728TIP3    H132069   9.226   6.784   2.741
10728TIP3    H232070   9.275   6.917   2.797
10729TIP3   OH232071   9.585   6.472   2.797
10729TIP3    H132072   9.661   6.414   2.799
10729TIP3    H232073   9.547   6.458   2.710
10730TIP3   OH232074   8.949   5.985   2.761
10730TIP3    H132075   8.923   6.052   2.698
10730TIP3    H232076   8.901   5.907   2.733
10731TIP3   OH232077   9.702   6.039   2.388
10731TIP3    H132078   9.738   6.026   2.476
10731TIP3    H232079   9.698   6.134   2.378
10732TIP3   OH232080   8.992   6.370   2.732
10732TIP3    H132081   9.088   6.375   2.733
10732TIP3    H232082   8.972   6.302   2.667
10733TIP3   OH232083   8.886   6.021   3.195
10733TIP3    H132084   8.801   6.002   3.155
10733TIP3    H232085   8.866   6.043   3.286
10734TIP3   OH232086   9.300   6.846   2.214
10734TIP3    H132087   9.259   6.827   2.129
10734TIP3    H232088   9.256   6.925   2.244
10735TIP3   OH232089   9.046   6.782   2.980
10735TIP3    H132090   8.987   6.850   3.012
10735TIP3    H232091   9.089   6.820   2.903
10736TIP3   OH232092   8.901   6.167   2.957
10736TIP3    H132093   8.907   6.132   3.046
10736TIP3    H232094   8.927   6.094   2.901
10737TIP3   OH232095   8.884   6.982   3.074
10737TIP3    H132096   8.878   7.074   3.047
10737TIP3    H232097   8.810   6.970   3.133
10738TIP3   OH232098   8.281   6.683   2.343
10738TIP3    H132099   8.237   6.703   2.260
10738TIP3    H232100   8.304   6.768   2.379
10739TIP3   OH232101   9.199   5.725   2.896
10739TIP3    H132102   9.219   5.642   2.938
10739TIP3    H232103   9.136   5.767   2.955
10740TIP3   OH232104   9.444   7.199   2.241
10740TIP3    H132105   9.520   7.164   2.288
10740TIP3    H232106   9.456   7.294   2.244
10741TIP3   OH232107   9.224   6.489   2.173
10741TIP3    H132108   9.137   6.529   2.180
10741TIP3    H232109   9.251   6.508   2.083
10742TIP3   OH232110   9.231   6.283   1.916
10742TIP3    H132111   9.299   6.329   1.964
10742TIP3    H232112   9.278   6.224   1.857
10743TIP3   OH232113   8.805   6.522   2.561
10743TIP3    H132114   8.773   6.461   2.494
10743TIP3    H232115   8.872   6.472   2.608
10744TIP3   OH232116   8.961   6.983   2.687
10744TIP3    H132117   8.942   6.958   2.596
10744TIP3    H232118   9.047   6.945   2.705
10745TIP3   OH232119   9.404   7.221   2.737
10745TIP3    H132120   9.498   7.230   2.756
10745TIP3    H232121   9.384   7.131   2.763
10746TIP3   OH232122   9.092   7.075   3.238
10746TIP3    H132123   9.032   7.133   3.284
10746TIP3    H232124   9.036   7.022   3.181
10747TIP3   OH232125   9.459   6.431   1.993
10747TIP3    H132126   9.488   6.499   2.054
10747TIP3    H232127   9.485   6.464   1.906
10748TIP3   OH232128   8.845   6.623   3.379
10748TIP3    H132129   8.850   6.716   3.402
10748TIP3    H232130   8.751   6.602   3.381
10749TIP3   OH232131   9.187   7.095   2.271
10749TIP3    H132132   9.274   7.133   2.266
10749TIP3    H232133   9.130   7.162   2.233
10750TIP3   OH232134   8.887   7.233   3.333
10750TIP3    H132135   8.863   7.249   3.242
10750TIP3    H232136   8.803   7.221   3.378
10751TIP3   OH232137   8.685   6.368   2.356
10751TIP3    H132138   8.610   6.420   2.327
10751TIP3    H232139   8.657   6.277   2.345
10752TIP3   OH232140   8.483   6.790   3.283
10752TIP3    H132141   8.412   6.770   3.221
10752TIP3    H232142   8.512   6.704   3.315
10753TIP3   OH232143   8.323   6.998   2.958
10753TIP3    H132144   8.407   7.034   2.985
10753TIP3    H232145   8.260   7.069   2.972
10754TIP3   OH232146   9.296   7.207   3.109
10754TIP3    H132147   9.284   7.297   3.139
10754TIP3    H232148   9.227   7.158   3.153
10755TIP3   OH232149   9.072   7.314   2.126
10755TIP3    H132150   9.005   7.289   2.062
10755TIP3    H232151   9.054   7.407   2.144
10756TIP3   OH232152   8.494   7.176   2.445
10756TIP3    H132153   8.540   7.171   2.529
10756TIP3    H232154   8.448   7.092   2.438
10757TIP3   OH232155   9.314   7.244   1.740
10757TIP3    H132156   9.295   7.161   1.695
10757TIP3    H232157   9.325   7.219   1.832
10758TIP3   OH232158   9.300   7.214   2.006
10758TIP3    H132159   9.224   7.250   2.051
10758TIP3    H232160   9.363   7.196   2.075
10759TIP3   OH232161   8.676   6.984   3.252
10759TIP3    H132162   8.729   6.970   3.331
10759TIP3    H232163   8.605   6.920   3.259
10760TIP3   OH232164   9.008   5.804   3.077
10760TIP3    H132165   8.923   5.770   3.049
10760TIP3    H232166   8.988   5.886   3.122
10761TIP3   OH232167   9.690   5.826   3.265
10761TIP3    H132168   9.763   5.882   3.291
10761TIP3    H232169   9.619   5.851   3.323
10762TIP3   OH232170   9.246   5.806   2.027
10762TIP3    H132171   9.208   5.828   2.112
10762TIP3    H232172   9.196   5.729   1.998
10763TIP3   OH232173   8.951   6.443   3.067
10763TIP3    H132174   8.925   6.411   3.154
10763TIP3    H232175   9.031   6.494   3.083
10764TIP3   OH232176   8.857   6.182   2.594
10764TIP3    H132177   8.770   6.158   2.624
10764TIP3    H232178   8.862   6.147   2.505
10765TIP3   OH232179   9.336   6.266   2.290
10765TIP3    H132180   9.293   6.344   2.256
10765TIP3    H232181   9.408   6.249   2.230
10766TIP3   OH232182   9.496   6.576   3.392
10766TIP3    H132183   9.477   6.515   3.463
10766TIP3    H232184   9.589   6.594   3.401
10767TIP3   OH232185   9.435   6.343   2.592
10767TIP3    H132186   9.445   6.404   2.519
10767TIP3    H232187   9.443   6.256   2.553
10768TIP3   OH232188   8.856   6.328   3.299
10768TIP3    H132189   8.857   6.401   3.361
10768TIP3    H232190   8.840   6.251   3.353
10769TIP3   OH232191   8.877   5.822   1.997
10769TIP3    H132192   8.857   5.819   2.091
10769TIP3    H232193   8.800   5.863   1.958
10770TIP3   OH232194   8.443   5.846   2.866
10770TIP3    H132195   8.503   5.920   2.869
10770TIP3    H232196   8.450   5.812   2.777
10771TIP3   OH232197   8.339   5.833   2.383
10771TIP3    H132198   8.381   5.865   2.303
10771TIP3    H232199   8.276   5.900   2.406
10772TIP3   OH232200   9.467   6.623   2.994
10772TIP3    H132201   9.524   6.586   2.927
10772TIP3    H232202   9.515   6.612   3.076
10773TIP3   OH232203   9.188   6.068   2.649
10773TIP3    H132204   9.117   6.032   2.703
10773TIP3    H232205   9.267   6.024   2.681
10774TIP3   OH232206   8.630   6.058   2.688
10774TIP3    H132207   8.543   6.077   2.652
10774TIP3    H232208   8.653   5.973   2.651
10775TIP3   OH232209   8.865   6.060   2.353
10775TIP3    H132210   8.959   6.075   2.344
10775TIP3    H232211   8.828   6.084   2.269
10776TIP3   OH232212   9.505   6.085   2.892
10776TIP3    H132213   9.563   6.026   2.941
10776TIP3    H232214   9.443   6.027   2.848
10777TIP3   OH232215   8.758   6.115   2.113
10777TIP3    H132216   8.705   6.060   2.056
10777TIP3    H232217   8.828   6.148   2.057
10778TIP3   OH232218   8.832   6.889   3.478
10778TIP3    H132219   8.914   6.907   3.525
10778TIP3    H232220   8.764   6.896   3.545
10779TIP3   OH232221   9.254   6.358   2.795
10779TIP3    H132222   9.322   6.334   2.732
10779TIP3    H232223   9.269   6.298   2.869
10780TIP3   OH232224   8.773   5.810   2.638
10780TIP3    H132225   8.743   5.736   2.689
10780TIP3    H232226   8.814   5.772   2.560
10781TIP3   OH232227   9.233   6.220   3.050
10781TIP3    H132228   9.242   6.298   3.104
10781TIP3    H232229   9.314   6.170   3.067
10782TIP3   OH232230   8.981   6.621   2.141
10782TIP3    H132231   8.912   6.558   2.121
10782TIP3    H232232   8.960   6.653   2.229
10783TIP3   OH232233   9.450   5.950   1.917
10783TIP3    H132234   9.378   5.900   1.956
10783TIP3    H232235   9.465   6.021   1.980
10784TIP3   OH232236   9.460   6.956   3.155
10784TIP3    H132237   9.463   6.931   3.247
10784TIP3    H232238   9.411   7.039   3.154
10785TIP3   OH232239   9.520   6.170   2.085
10785TIP3    H132240   9.612   6.148   2.071
10785TIP3    H232241   9.509   6.255   2.042
10786TIP3   OH232242   9.152   6.765   1.985
10786TIP3    H132243   9.111   6.851   1.979
10786TIP3    H232244   9.092   6.714   2.039
10787TIP3   OH232245   8.572   6.557   3.410
10787TIP3    H132246   8.576   6.529   3.501
10787TIP3    H232247   8.499   6.507   3.372
10788TIP3   OH232248   9.269   6.717   3.447
10788TIP3    H132249   9.205   6.651   3.420
10788TIP3    H232250   9.353   6.685   3.413
10789TIP3   OH232251   9.560   7.246   3.016
10789TIP3    H132252   9.466   7.225   3.017
10789TIP3    H232253   9.580   7.267   3.108
10790TIP3   OH232254   8.812   6.957   2.453
10790TIP3    H132255   8.811   7.041   2.407
10790TIP3    H232256   8.724   6.947   2.487
10791TIP3   OH232257   8.375   6.256   2.158
10791TIP3    H132258   8.416   6.339   2.181
10791TIP3    H232259   8.292   6.256   2.207
10792TIP3   OH232260   8.898   6.709   2.378
10792TIP3    H132261   8.878   6.799   2.404
10792TIP3    H232262   8.866   6.655   2.451
10793TIP3   OH232263   9.112   7.285   2.900
10793TIP3    H132264   9.154   7.344   2.837
10793TIP3    H232265   9.184   7.245   2.948
10794TIP3   OH232266   8.743   7.194   2.332
10794TIP3    H132267   8.651   7.203   2.358
10794TIP3    H232268   8.774   7.284   2.323
10795TIP3   OH232269   9.429   6.970   2.870
10795TIP3    H132270   9.432   6.945   2.963
10795TIP3    H232271   9.522   6.981   2.846
10796TIP3   OH232272   8.793   6.083   3.441
10796TIP3    H132273   8.698   6.091   3.452
10796TIP3    H232274   8.821   6.027   3.514
10797TIP3   OH232275   8.528   7.183   3.067
10797TIP3    H132276   8.581   7.127   3.124
10797TIP3    H232277   8.540   7.271   3.102
10798TIP3   OH232278   8.769   6.787   1.789
10798TIP3    H132279   8.810   6.705   1.762
10798TIP3    H232280   8.767   6.783   1.884
10799TIP3   OH232281   8.747   6.794   2.061
10799TIP3    H132282   8.819   6.758   2.112
10799TIP3    H232283   8.749   6.888   2.078
10800TIP3   OH232284   8.470   6.503   2.247
10800TIP3    H132285   8.406   6.553   2.298
10800TIP3    H232286   8.492   6.561   2.174
10801TIP3   OH232287   9.682   6.159   3.182
10801TIP3    H132288   9.652   6.206   3.260
10801TIP3    H232289   9.604   6.114   3.149
10802TIP3   OH232290   9.405   5.959   2.249
10802TIP3    H132291   9.475   5.897   2.225
10802TIP3    H232292   9.421   6.036   2.196
10803TIP3   OH232293   9.011   6.993   1.973
10803TIP3    H132294   8.933   7.012   2.025
10803TIP3    H232295   9.027   7.073   1.923
10804TIP3   OH232296   9.136   6.101   2.380
10804TIP3    H132297   9.198   6.165   2.347
10804TIP3    H232298   9.153   6.097   2.474
10805TIP3   OH232299   9.366   6.379   3.239
10805TIP3    H132300   9.407   6.451   3.287
10805TIP3    H232301   9.424   6.364   3.164
10806TIP3   OH232302   9.306   5.818   2.477
10806TIP3    H132303   9.340   5.858   2.556
10806TIP3    H232304   9.340   5.872   2.406
10807TIP3   OH232305   8.775   7.060   2.099
10807TIP3    H132306   8.766   7.137   2.043
10807TIP3    H232307   8.765   7.095   2.188
10808TIP3   OH232308   8.842   5.792   2.276
10808TIP3    H132309   8.824   5.878   2.313
10808TIP3    H232310   8.938   5.786   2.276
10809TIP3   OH232311   8.492   6.683   2.036
10809TIP3    H132312   8.562   6.747   2.052
10809TIP3    H232313   8.527   6.624   1.970
10810TIP3   OH232314   8.398   5.977   2.161
10810TIP3    H132315   8.409   6.072   2.164
10810TIP3    H232316   8.345   5.961   2.082
10811TIP3   OH232317   8.753   5.718   3.031
10811TIP3    H132318   8.733   5.677   2.946
10811TIP3    H232319   8.749   5.646   3.094
10812TIP3   OH232320   8.329   6.948   2.428
10812TIP3    H132321   8.282   6.986   2.502
10812TIP3    H232322   8.286   6.983   2.351
10813TIP3   OH232323   8.535   7.492   3.488
10813TIP3    H132324   8.616   7.497   3.537
10813TIP3    H232325   8.521   7.399   3.473
10814TIP3   OH232326   8.996   7.396   3.527
10814TIP3    H132327   9.088   7.372   3.534
10814TIP3    H232328   8.961   7.342   3.456
10815TIP3   OH232329   8.946   6.953   1.652
10815TIP3    H132330   8.875   6.914   1.704
10815TIP3    H232331   9.017   6.890   1.658
10816TIP3   OH232332   9.623   7.307   3.276
10816TIP3    H132333   9.614   7.243   3.348
10816TIP3    H232334   9.717   7.322   3.269
10817TIP3   OH232335   8.632   6.891   3.673
10817TIP3    H132336   8.651   6.798   3.684
10817TIP3    H232337   8.545   6.893   3.634
10818TIP3   OH232338   8.627   6.496   1.890
10818TIP3    H132339   8.672   6.468   1.970
10818TIP3    H232340   8.698   6.513   1.828
10819TIP3   OH232341   9.239   6.995   3.454
10819TIP3    H132342   9.195   7.010   3.371
10819TIP3    H232343   9.274   6.906   3.447
10820TIP3   OH232344   9.108   6.732   1.715
10820TIP3    H132345   9.121   6.745   1.808
10820TIP3    H232346   9.096   6.637   1.705
10821TIP3   OH232347   8.750   6.637   3.680
10821TIP3    H132348   8.829   6.612   3.631
10821TIP3    H232349   8.782   6.655   3.768
10822TIP3   OH232350   8.792   6.428   2.102
10822TIP3    H132351   8.765   6.399   2.189
10822TIP3    H232352   8.847   6.356   2.069
10823TIP3   OH232353   9.104   6.526   3.340
10823TIP3    H132354   9.017   6.564   3.340
10823TIP3    H232355   9.139   6.542   3.252
10824TIP3   OH232356   8.959   6.245   1.976
10824TIP3    H132357   8.932   6.245   1.884
10824TIP3    H232358   9.054   6.251   1.973
10825TIP3   OH232359   9.527   6.887   3.444
10825TIP3    H132360   9.614   6.885   3.403
10825TIP3    H232361   9.534   6.827   3.518
10826TIP3   OH232362   9.177   6.286   3.471
10826TIP3    H132363   9.176   6.207   3.417
10826TIP3    H232364   9.163   6.358   3.409
10827TIP3   OH232365   9.150   6.076   3.289
10827TIP3    H132366   9.198   6.112   3.214
10827TIP3    H232367   9.063   6.057   3.255
10828TIP3   OH232368   9.191   6.580   3.084
10828TIP3    H132369   9.282   6.588   3.055
10828TIP3    H232370   9.147   6.655   3.045
10829TIP3   OH232371   9.776   6.602   3.400
10829TIP3    H132372   9.770   6.574   3.308
10829TIP3    H232373   9.833   6.537   3.441
10830TIP3   OH232374   9.076   6.376   3.711
10830TIP3    H132375   9.013   6.307   3.733
10830TIP3    H232376   9.108   6.352   3.624
10831TIP3   OH232377   9.301   5.815   3.269
10831TIP3    H132378   9.284   5.888   3.328
10831TIP3    H232379   9.236   5.749   3.294
10832TIP3   OH232380   9.429   6.375   3.558
10832TIP3    H132381   9.416   6.359   3.652
10832TIP3    H232382   9.355   6.330   3.516
10833TIP3   OH232383   9.653   6.302   3.419
10833TIP3    H132384   9.586   6.347   3.471
10833TIP3    H232385   9.642   6.209   3.441
10834TIP3   OH232386   0.279   6.136   3.699
10834TIP3    H132387   0.195   6.103   3.669
10834TIP3    H232388   0.264   6.228   3.719
10835TIP3   OH232389   8.922   6.149   3.772
10835TIP3    H132390   8.929   6.063   3.730
10835TIP3    H232391   8.965   6.139   3.856
10836TIP3   OH232392   9.339   5.835   3.584
10836TIP3    H132393   9.401   5.789   3.641
10836TIP3    H232394   9.393   5.894   3.532
10837TIP3   OH232395   9.460   6.046   3.792
10837TIP3    H132396   9.493   5.958   3.776
10837TIP3    H232397   9.423   6.073   3.708
10838TIP3   OH232398   8.800   7.293   1.965
10838TIP3    H132399   8.875   7.284   1.907
10838TIP3    H232400   8.731   7.329   1.910
10839TIP3   OH232401   8.218   6.677   2.055
10839TIP3    H132402   8.313   6.689   2.053
10839TIP3    H232403   8.205   6.586   2.029
10840TIP3   OH232404   8.125   7.258   2.501
10840TIP3    H132405   8.062   7.201   2.457
10840TIP3    H232406   8.171   7.200   2.563
10841TIP3   OH232407   8.271   7.095   2.674
10841TIP3    H132408   8.258   7.028   2.740
10841TIP3    H232409   8.323   7.162   2.717
10842TIP3   OH232410   8.461   6.511   3.028
10842TIP3    H132411   8.470   6.461   2.947
10842TIP3    H232412   8.548   6.550   3.043
10843TIP3   OH232413   8.661   6.206   3.701
10843TIP3    H132414   8.754   6.203   3.720
10843TIP3    H232415   8.626   6.124   3.736
10844TIP3   OH232416   8.665   5.982   3.020
10844TIP3    H132417   8.679   5.887   3.025
10844TIP3    H232418   8.706   6.008   2.938
10845TIP3   OH232419   8.442   6.126   3.108
10845TIP3    H132420   8.517   6.079   3.072
10845TIP3    H232421   8.471   6.217   3.116
10846TIP3   OH232422   8.409   5.718   2.619
10846TIP3    H132423   8.322   5.690   2.648
10846TIP3    H232424   8.392   5.761   2.535
10847TIP3   OH232425   8.622   5.759   3.435
10847TIP3    H132426   8.570   5.744   3.514
10847TIP3    H232427   8.563   5.805   3.376
10848TIP3   OH232428   8.660   7.213   3.498
10848TIP3    H132429   8.567   7.191   3.491
10848TIP3    H232430   8.681   7.198   3.590
10849TIP3   OH232431   8.881   7.258   3.051
10849TIP3    H132432   8.829   7.331   3.017
10849TIP3    H232433   8.967   7.267   3.010
10850TIP3   OH232434   9.268   7.473   3.193
10850TIP3    H132435   9.313   7.470   3.277
10850TIP3    H232436   9.327   7.525   3.137
10851TIP3   OH232437   9.455   7.612   3.044
10851TIP3    H132438   9.480   7.569   2.962
10851TIP3    H232439   9.538   7.647   3.078
10852TIP3   OH232440   8.532   7.484   3.105
10852TIP3    H132441   8.441   7.504   3.080
10852TIP3    H232442   8.555   7.553   3.167
10853TIP3   OH232443   8.758   7.479   2.948
10853TIP3    H132444   8.676   7.482   2.997
10853TIP3    H232445   8.735   7.507   2.860
10854TIP3   OH232446   9.181   7.481   2.709
10854TIP3    H132447   9.093   7.501   2.676
10854TIP3    H232448   9.202   7.555   2.766
10855TIP3   OH232449   9.488   7.490   2.794
10855TIP3    H132450   9.423   7.421   2.779
10855TIP3    H232451   9.489   7.540   2.713
10856TIP3   OH232452   8.443   7.275   2.815
10856TIP3    H132453   8.467   7.248   2.904
10856TIP3    H232454   8.515   7.245   2.761
10857TIP3   OH232455   8.648   7.170   2.673
10857TIP3    H132456   8.661   7.086   2.717
10857TIP3    H232457   8.734   7.212   2.676
10858TIP3   OH232458   8.915   7.252   2.705
10858TIP3    H132459   8.933   7.160   2.684
10858TIP3    H232460   8.971   7.271   2.780
10859TIP3   OH232461   9.373   5.880   2.754
10859TIP3    H132462   9.306   5.835   2.806
10859TIP3    H232463   9.452   5.827   2.766
10860TIP3   OH232464   8.705   5.593   2.791
10860TIP3    H132465   8.617   5.557   2.801
10860TIP3    H232466   8.761   5.516   2.780
10861TIP3   OH232467   8.547   5.515   2.455
10861TIP3    H132468   8.565   5.554   2.370
10861TIP3    H232469   8.510   5.586   2.508
10862TIP3   OH232470   9.116   5.672   2.636
10862TIP3    H132471   9.173   5.725   2.581
10862TIP3    H232472   9.140   5.694   2.725
10863TIP3   OH232473   8.213   7.045   2.201
10863TIP3    H132474   8.125   7.015   2.180
10863TIP3    H232475   8.209   7.140   2.190
10864TIP3   OH232476   8.636   5.621   2.199
10864TIP3    H132477   8.680   5.555   2.146
10864TIP3    H232478   8.707   5.678   2.230
10865TIP3   OH232479   9.112   5.845   2.274
10865TIP3    H132480   9.165   5.798   2.340
10865TIP3    H232481   9.124   5.938   2.296
10866TIP3   OH232482   9.042   7.244   1.849
10866TIP3    H132483   9.135   7.259   1.861
10866TIP3    H232484   9.031   7.230   1.755
10867TIP3   OH232485   8.926   5.884   3.666
10867TIP3    H132486   8.893   5.816   3.725
10867TIP3    H232487   9.019   5.892   3.690
10868TIP3   OH232488   9.171   5.892   3.790
10868TIP3    H132489   9.227   5.892   3.713
10868TIP3    H232490   9.202   5.817   3.842
10869TIP3   OH232491   8.291   7.017   1.932
10869TIP3    H132492   8.284   7.016   2.027
10869TIP3    H232493   8.380   6.987   1.913
10870TIP3   OH232494   0.328   7.485   4.618
10870TIP3    H132495   0.370   7.422   4.677
10870TIP3    H232496   0.310   7.561   4.672
10871TIP3   OH232497   0.954   6.705   4.949
10871TIP3    H132498   0.967   6.792   4.986
10871TIP3    H232499   0.996   6.709   4.863
10872TIP3   OH232500   0.315   6.935   4.930
10872TIP3    H132501   0.327   6.896   5.017
10872TIP3    H232502   0.268   6.868   4.880
10873TIP3   OH232503   0.391   6.663   4.585
10873TIP3    H132504   0.443   6.628   4.657
10873TIP3    H232505   0.455   6.682   4.516
10874TIP3   OH232506   0.977   6.917   5.136
10874TIP3    H132507   0.915   6.973   5.090
10874TIP3    H232508   0.932   6.893   5.217
10875TIP3   OH232509   0.561   6.617   4.805
10875TIP3    H132510   0.480   6.621   4.855
10875TIP3    H232511   0.607   6.698   4.826
10876TIP3   OH232512   0.778   6.617   5.144
10876TIP3    H132513   0.685   6.610   5.124
10876TIP3    H232514   0.819   6.643   5.061
10877TIP3   OH232515   0.261   7.527   4.351
10877TIP3    H132516   0.262   7.445   4.301
10877TIP3    H232517   0.303   7.506   4.434
10878TIP3   OH232518   0.597   7.641   5.126
10878TIP3    H132519   0.591   7.560   5.075
10878TIP3    H232520   0.586   7.711   5.061
10879TIP3   OH232521   0.818   7.275   4.951
10879TIP3    H132522   0.739   7.328   4.957
10879TIP3    H232523   0.847   7.287   4.860
10880TIP3   OH232524   0.237   7.101   4.349
10880TIP3    H132525   0.155   7.104   4.400
10880TIP3    H232526   0.304   7.077   4.414
10881TIP3   OH232527   0.443   7.265   5.194
10881TIP3    H132528   0.483   7.312   5.268
10881TIP3    H232529   0.464   7.173   5.211
10882TIP3   OH232530   0.188   6.927   4.142
10882TIP3    H132531   0.199   6.989   4.215
10882TIP3    H232532   0.171   6.983   4.066
10883TIP3   OH232533   0.609   6.184   4.220
10883TIP3    H132534   0.555   6.224   4.288
10883TIP3    H232535   0.630   6.256   4.161
10884TIP3   OH232536   0.418   7.570   3.773
10884TIP3    H132537   0.421   7.666   3.765
10884TIP3    H232538   0.509   7.543   3.758
10885TIP3   OH232539   0.853   7.965   5.157
10885TIP3    H132540   0.857   7.871   5.174
10885TIP3    H232541   0.768   7.992   5.193
10886TIP3   OH232542   0.719   7.106   5.409
10886TIP3    H132543   0.682   7.126   5.495
10886TIP3    H232544   0.745   7.014   5.415
10887TIP3   OH232545   0.290   6.329   5.515
10887TIP3    H132546   0.371   6.373   5.488
10887TIP3    H232547   0.225   6.399   5.518
10888TIP3   OH232548   0.432   6.792   5.407
10888TIP3    H132549   0.417   6.834   5.491
10888TIP3    H232550   0.451   6.864   5.347
10889TIP3   OH232551   0.151   7.078   3.918
10889TIP3    H132552   0.102   7.159   3.928
10889TIP3    H232553   0.238   7.105   3.887
10890TIP3   OH232554   0.145   6.774   4.787
10890TIP3    H132555   0.164   6.807   4.699
10890TIP3    H232556   0.197   6.694   4.794
10891TIP3   OH232557   0.512   6.550   5.139
10891TIP3    H132558   0.467   6.534   5.221
10891TIP3    H232559   0.476   6.485   5.078
10892TIP3   OH232560   0.595   7.438   4.941
10892TIP3    H132561   0.630   7.484   4.865
10892TIP3    H232562   0.520   7.389   4.908
10893TIP3   OH232563   0.105   6.555   4.242
10893TIP3    H132564   0.023   6.586   4.203
10893TIP3    H232565   0.173   6.597   4.190
10894TIP3   OH232566   0.337   6.706   4.197
10894TIP3    H132567   0.402   6.733   4.262
10894TIP3    H232568   0.293   6.787   4.172
10895TIP3   OH232569   0.627   6.821   4.115
10895TIP3    H132570   0.580   6.768   4.051
10895TIP3    H232571   0.617   6.911   4.084
10896TIP3   OH232572   0.856   7.687   5.199
10896TIP3    H132573   0.761   7.676   5.194
10896TIP3    H232574   0.889   7.657   5.115
10897TIP3   OH232575   0.329   7.610   4.092
10897TIP3    H132576   0.310   7.588   4.183
10897TIP3    H232577   0.366   7.530   4.055
10898TIP3   OH232578   0.393   7.298   4.811
10898TIP3    H132579   0.306   7.282   4.847
10898TIP3    H232580   0.426   7.212   4.786
10899TIP3   OH232581   0.435   7.844   3.726
10899TIP3    H132582   0.510   7.903   3.732
10899TIP3    H232583   0.370   7.892   3.674
10900TIP3   OH232584   0.295   7.314   4.179
10900TIP3    H132585   0.265   7.235   4.224
10900TIP3    H232586   0.386   7.296   4.156
10901TIP3   OH232587   0.334   6.552   5.348
10901TIP3    H132588   0.366   6.636   5.382
10901TIP3    H232589   0.242   6.550   5.373
10902TIP3   OH232590   0.266   6.452   4.438
10902TIP3    H132591   0.195   6.489   4.386
10902TIP3    H232592   0.286   6.519   4.503
10903TIP3   OH232593   0.789   6.842   5.326
10903TIP3    H132594   0.747   6.822   5.410
10903TIP3    H232595   0.778   6.761   5.275
10904TIP3   OH232596   0.492   7.038   4.753
10904TIP3    H132597   0.428   7.004   4.814
10904TIP3    H232598   0.573   6.991   4.774
10905TIP3   OH232599   0.402   7.894   4.723
10905TIP3    H132600   0.332   7.828   4.727
10905TIP3    H232601   0.397   7.928   4.633
10906TIP3   OH232602   0.396   7.127   3.801
10906TIP3    H132603   0.386   7.080   3.718
10906TIP3    H232604   0.362   7.214   3.784
10907TIP3   OH232605   0.634   7.137   5.672
10907TIP3    H132606   0.644   7.092   5.755
10907TIP3    H232607   0.600   7.223   5.695
10908TIP3   OH232608   0.547   7.429   5.397
10908TIP3    H132609   0.512   7.509   5.358
10908TIP3    H232610   0.640   7.431   5.376
10909TIP3   OH232611   0.353   6.924   5.643
10909TIP3    H132612   0.265   6.919   5.682
10909TIP3    H232613   0.403   6.857   5.688
10910TIP3   OH232614   0.523   6.693   5.726
10910TIP3    H132615   0.581   6.623   5.758
10910TIP3    H232616   0.436   6.653   5.726
10911TIP3   OH232617   0.720   8.193   4.685
10911TIP3    H132618   0.715   8.136   4.761
10911TIP3    H232619   0.757   8.139   4.616
10912TIP3   OH232620   0.711   8.062   4.931
10912TIP3    H132621   0.659   7.982   4.929
10912TIP3    H232622   0.781   8.044   4.994
10913TIP3   OH232623   0.721   7.789   5.563
10913TIP3    H132624   0.654   7.813   5.626
10913TIP3    H232625   0.776   7.867   5.554
10914TIP3   OH232626   0.565   7.290   4.130
10914TIP3    H132627   0.623   7.358   4.097
10914TIP3    H232628   0.615   7.248   4.201
10915TIP3   OH232629   0.701   7.143   4.315
10915TIP3    H132630   0.635   7.107   4.375
10915TIP3    H232631   0.768   7.178   4.372
10916TIP3   OH232632   0.752   7.556   4.752
10916TIP3    H132633   0.803   7.483   4.719
10916TIP3    H232634   0.773   7.629   4.693
10917TIP3   OH232635   0.529   7.853   4.960
10917TIP3    H132636   0.479   7.918   5.009
10917TIP3    H232637   0.493   7.856   4.872
10918TIP3   OH232638   0.591   7.060   3.983
10918TIP3    H132639   0.523   7.072   3.916
10918TIP3    H232640   0.583   7.137   4.039
10919TIP3   OH232641   0.519   6.699   3.895
10919TIP3    H132642   0.541   6.742   3.813
10919TIP3    H232643   0.517   6.605   3.874
10920TIP3   OH232644   0.514   7.017   4.473
10920TIP3    H132645   0.526   6.923   4.459
10920TIP3    H232646   0.500   7.026   4.567
10921TIP3   OH232647   0.816   7.445   5.344
10921TIP3    H132648   0.873   7.369   5.331
10921TIP3    H232649   0.848   7.510   5.282
10922TIP3   OH232650   0.957   7.211   5.319
10922TIP3    H132651   0.877   7.169   5.350
10922TIP3    H232652   1.027   7.157   5.353
10923TIP3   OH232653   0.490   6.425   3.866
10923TIP3    H132654   0.553   6.412   3.938
10923TIP3    H232655   0.410   6.381   3.896
10924TIP3   OH232656   0.553   6.742   4.373
10924TIP3    H132657   0.596   6.657   4.386
10924TIP3    H232658   0.592   6.777   4.294
10925TIP3   OH232659   0.680   6.867   4.869
10925TIP3    H132660   0.768   6.879   4.833
10925TIP3    H232661   0.681   6.915   4.951
10926TIP3   OH232662   0.728   7.050   5.073
10926TIP3    H132663   0.714   7.104   5.152
10926TIP3    H232664   0.765   7.111   5.009
10927TIP3   OH232665   1.198   6.638   5.658
10927TIP3    H132666   1.256   6.577   5.612
10927TIP3    H232667   1.163   6.695   5.589
10928TIP3   OH232668   0.637   6.483   4.419
10928TIP3    H132669   0.680   6.466   4.503
10928TIP3    H232670   0.577   6.409   4.409
10929TIP3   OH232671   1.051   6.775   5.470
10929TIP3    H132672   0.985   6.808   5.532
10929TIP3    H232673   1.006   6.705   5.423
10930TIP3   OH232674   0.691   6.383   4.048
10930TIP3    H132675   0.741   6.324   3.991
10930TIP3    H232676   0.746   6.461   4.056
10931TIP3   OH232677   0.947   6.528   5.373
10931TIP3    H132678   0.856   6.545   5.350
10931TIP3    H232679   0.961   6.437   5.350
10932TIP3   OH232680   0.106   6.432   4.950
10932TIP3    H132681   0.047   6.418   5.024
10932TIP3    H232682   0.121   6.344   4.914
10933TIP3   OH232683   0.677   6.368   4.879
10933TIP3    H132684   0.728   6.381   4.799
10933TIP3    H232685   0.614   6.440   4.879
10934TIP3   OH232686   0.789   6.399   4.635
10934TIP3    H132687   0.857   6.342   4.599
10934TIP3    H232688   0.824   6.488   4.626
10935TIP3   OH232689   0.330   6.353   4.737
10935TIP3    H132690   0.277   6.275   4.757
10935TIP3    H232691   0.378   6.370   4.818
10936TIP3   OH232692   0.459   6.264   4.432
10936TIP3    H132693   0.389   6.327   4.449
10936TIP3    H232694   0.445   6.195   4.496
10937TIP3   OH232695   0.395   7.876   4.058
10937TIP3    H132696   0.379   7.782   4.069
10937TIP3    H232697   0.308   7.914   4.047
10938TIP3   OH232698   0.707   6.479   5.768
10938TIP3    H132699   0.719   6.440   5.855
10938TIP3    H232700   0.796   6.491   5.735
10939TIP3   OH232701   0.600   8.028   5.245
10939TIP3    H132702   0.556   7.970   5.307
10939TIP3    H232703   0.580   8.116   5.276
10940TIP3   OH232704   1.873   7.427   4.021
10940TIP3    H132705   1.840   7.513   3.992
10940TIP3    H232706   1.802   7.366   3.999
10941TIP3   OH232707   1.882   7.425   4.452
10941TIP3    H132708   1.934   7.398   4.527
10941TIP3    H232709   1.829   7.348   4.431
10942TIP3   OH232710   2.137   7.727   4.125
10942TIP3    H132711   2.125   7.659   4.191
10942TIP3    H232712   2.155   7.806   4.175
10943TIP3   OH232713   1.150   7.698   4.501
10943TIP3    H132714   1.151   7.608   4.532
10943TIP3    H232715   1.241   7.717   4.479
10944TIP3   OH232716   0.856   6.913   4.248
10944TIP3    H132717   0.822   6.998   4.275
10944TIP3    H232718   0.785   6.873   4.199
10945TIP3   OH232719   0.918   7.209   4.464
10945TIP3    H132720   0.937   7.122   4.498
10945TIP3    H232721   1.004   7.250   4.453
10946TIP3   OH232722   1.800   8.148   4.142
10946TIP3    H132723   1.824   8.085   4.075
10946TIP3    H232724   1.806   8.100   4.224
10947TIP3   OH232725   1.652   7.643   4.447
10947TIP3    H132726   1.686   7.559   4.415
10947TIP3    H232727   1.730   7.693   4.470
10948TIP3   OH232728   2.713   6.957   4.469
10948TIP3    H132729   2.726   7.042   4.510
10948TIP3    H232730   2.735   6.970   4.377
10949TIP3   OH232731   2.086   7.125   4.483
10949TIP3    H132732   2.114   7.038   4.511
10949TIP3    H232733   2.047   7.112   4.397
10950TIP3   OH232734   1.446   6.787   4.445
10950TIP3    H132735   1.422   6.862   4.390
10950TIP3    H232736   1.384   6.719   4.420
10951TIP3   OH232737   2.136   6.885   4.083
10951TIP3    H132738   2.200   6.879   4.154
10951TIP3    H232739   2.186   6.921   4.010
10952TIP3   OH232740   1.012   6.973   4.561
10952TIP3    H132741   1.080   7.029   4.599
10952TIP3    H232742   1.056   6.927   4.489
10953TIP3   OH232743   1.501   7.215   4.320
10953TIP3    H132744   1.583   7.199   4.368
10953TIP3    H232745   1.457   7.130   4.318
10954TIP3   OH232746   2.762   7.180   4.633
10954TIP3    H132747   2.674   7.216   4.625
10954TIP3    H232748   2.796   7.216   4.715
10955TIP3   OH232749   1.418   6.787   4.902
10955TIP3    H132750   1.374   6.832   4.830
10955TIP3    H232751   1.362   6.803   4.978
10956TIP3   OH232752   1.770   7.643   3.881
10956TIP3    H132753   1.730   7.611   3.800
10956TIP3    H232754   1.716   7.718   3.906
10957TIP3   OH232755   1.563   7.611   4.710
10957TIP3    H132756   1.478   7.653   4.725
10957TIP3    H232757   1.580   7.624   4.617
10958TIP3   OH232758   2.295   6.905   4.305
10958TIP3    H132759   2.249   6.885   4.387
10958TIP3    H232760   2.348   6.982   4.326
10959TIP3   OH232761   1.307   6.896   4.677
10959TIP3    H132762   1.294   6.991   4.680
10959TIP3    H232763   1.367   6.882   4.604
10960TIP3   OH232764   1.343   7.764   4.773
10960TIP3    H132765   1.334   7.855   4.745
10960TIP3    H232766   1.264   7.747   4.825
10961TIP3   OH232767   0.734   7.477   4.017
10961TIP3    H132768   0.706   7.503   3.930
10961TIP3    H232769   0.760   7.559   4.059
10962TIP3   OH232770   2.166   7.975   4.264
10962TIP3    H132771   2.078   7.972   4.300
10962TIP3    H232772   2.171   8.059   4.219
10963TIP3   OH232773   2.515   6.844   4.639
10963TIP3    H132774   2.428   6.865   4.603
10963TIP3    H232775   2.576   6.872   4.571
10964TIP3   OH232776   1.758   6.481   4.633
10964TIP3    H132777   1.748   6.389   4.658
10964TIP3    H232778   1.682   6.525   4.671
10965TIP3   OH232779   1.883   8.009   3.916
10965TIP3    H132780   1.935   7.930   3.908
10965TIP3    H232781   1.941   8.080   3.888
10966TIP3   OH232782   2.016   7.777   3.882
10966TIP3    H132783   1.944   7.714   3.878
10966TIP3    H232784   2.067   7.751   3.959
10967TIP3   OH232785   2.411   7.853   4.611
10967TIP3    H132786   2.386   7.780   4.554
10967TIP3    H232787   2.396   7.931   4.557
10968TIP3   OH232788   1.701   7.260   3.877
10968TIP3    H132789   1.616   7.299   3.856
10968TIP3    H232790   1.747   7.258   3.793
10969TIP3   OH232791   1.662   7.076   3.560
10969TIP3    H132792   1.728   7.123   3.611
10969TIP3    H232793   1.712   7.009   3.513
10970TIP3   OH232794   2.581   7.522   4.473
10970TIP3    H132795   2.496   7.566   4.471
10970TIP3    H232796   2.616   7.534   4.385
10971TIP3   OH232797   2.056   7.356   3.830
10971TIP3    H132798   2.002   7.385   3.904
10971TIP3    H232799   2.139   7.331   3.870
10972TIP3   OH232800   2.287   7.379   4.781
10972TIP3    H132801   2.280   7.460   4.830
10972TIP3    H232802   2.205   7.374   4.731
10973TIP3   OH232803   1.299   7.353   4.191
10973TIP3    H132804   1.256   7.279   4.149
10973TIP3    H232805   1.368   7.314   4.244
10974TIP3   OH232806   1.401   7.755   4.390
10974TIP3    H132807   1.381   7.739   4.297
10974TIP3    H232808   1.486   7.714   4.403
10975TIP3   OH232809   1.923   7.980   4.390
10975TIP3    H132810   1.920   8.050   4.454
10975TIP3    H232811   1.911   7.900   4.441
10976TIP3   OH232812   1.553   7.861   4.936
10976TIP3    H132813   1.489   7.917   4.979
10976TIP3    H232814   1.501   7.803   4.880
10977TIP3   OH232815   1.885   7.213   3.667
10977TIP3    H132816   1.945   7.272   3.714
10977TIP3    H232817   1.913   7.218   3.576
10978TIP3   OH232818   1.311   7.416   5.097
10978TIP3    H132819   1.311   7.512   5.104
10978TIP3    H232820   1.220   7.393   5.081
10979TIP3   OH232821   1.636   7.881   3.922
10979TIP3    H132822   1.716   7.933   3.932
10979TIP3    H232823   1.577   7.936   3.871
10980TIP3   OH232824   1.347   8.024   5.022
10980TIP3    H132825   1.322   8.033   4.930
10980TIP3    H232826   1.265   8.011   5.068
10981TIP3   OH232827   2.395   6.440   3.728
10981TIP3    H132828   2.319   6.462   3.782
10981TIP3    H232829   2.406   6.515   3.670
10982TIP3   OH232830   1.154   7.166   4.030
10982TIP3    H132831   1.073   7.212   4.006
10982TIP3    H232832   1.124   7.081   4.061
10983TIP3   OH232833   2.221   7.815   3.286
10983TIP3    H132834   2.217   7.907   3.263
10983TIP3    H232835   2.310   7.788   3.263
10984TIP3   OH232836   0.939   7.581   4.965
10984TIP3    H132837   0.877   7.561   4.895
10984TIP3    H232838   0.976   7.496   4.989
10985TIP3   OH232839   0.875   7.753   4.597
10985TIP3    H132840   0.958   7.729   4.556
10985TIP3    H232841   0.898   7.821   4.660
10986TIP3   OH232842   2.644   8.235   4.676
10986TIP3    H132843   2.649   8.140   4.686
10986TIP3    H232844   2.563   8.260   4.720
10987TIP3   OH232845   1.736   8.006   4.794
10987TIP3    H132846   1.731   8.096   4.826
10987TIP3    H232847   1.670   7.959   4.844
10988TIP3   OH232848   1.523   8.078   3.752
10988TIP3    H132849   1.480   8.065   3.668
10988TIP3    H232850   1.491   8.163   3.783
10989TIP3   OH232851   0.955   7.954   4.141
10989TIP3    H132852   1.005   7.948   4.222
10989TIP3    H232853   0.909   7.871   4.134
10990TIP3   OH232854   1.730   8.031   3.386
10990TIP3    H132855   1.781   7.959   3.351
10990TIP3    H232856   1.763   8.043   3.475
10991TIP3   OH232857   1.779   8.069   3.655
10991TIP3    H132858   1.691   8.068   3.693
10991TIP3    H232859   1.834   8.031   3.723
10992TIP3   OH232860   2.527   7.337   4.942
10992TIP3    H132861   2.445   7.349   4.894
10992TIP3    H232862   2.546   7.243   4.935
10993TIP3   OH232863   1.124   7.781   4.942
10993TIP3    H132864   1.180   7.768   5.019
10993TIP3    H232865   1.059   7.711   4.948
10994TIP3   OH232866   1.523   6.574   4.757
10994TIP3    H132867   1.439   6.543   4.721
10994TIP3    H232868   1.501   6.656   4.800
10995TIP3   OH232869   2.058   6.695   4.959
10995TIP3    H132870   2.124   6.672   5.024
10995TIP3    H232871   1.975   6.682   5.004
10996TIP3   OH232872   2.286   7.114   4.877
10996TIP3    H132873   2.243   7.110   4.962
10996TIP3    H232874   2.268   7.202   4.845
10997TIP3   OH232875   1.962   7.198   3.405
10997TIP3    H132876   1.915   7.200   3.321
10997TIP3    H232877   2.044   7.243   3.388
10998TIP3   OH232878   1.669   6.610   3.723
10998TIP3    H132879   1.634   6.617   3.812
10998TIP3    H232880   1.632   6.529   3.689
10999TIP3   OH232881   1.475   7.144   4.776
10999TIP3    H132882   1.444   7.122   4.864
10999TIP3    H232883   1.399   7.183   4.733
11000TIP3   OH232884   1.350   6.983   4.281
11000TIP3    H132885   1.261   6.962   4.310
11000TIP3    H232886   1.354   6.950   4.191
11001TIP3   OH232887   1.819   7.054   4.013
11001TIP3    H132888   1.772   7.128   3.975
11001TIP3    H232889   1.876   7.023   3.943
11002TIP3   OH232890   2.006   7.327   5.088
11002TIP3    H132891   1.976   7.261   5.150
11002TIP3    H232892   2.098   7.340   5.109
11003TIP3   OH232893   1.994   7.076   4.230
11003TIP3    H132894   1.921   7.095   4.172
11003TIP3    H232895   2.038   7.001   4.190
11004TIP3   OH232896   1.363   7.085   5.020
11004TIP3    H132897   1.297   7.153   5.025
11004TIP3    H232898   1.322   7.008   5.059
11005TIP3   OH232899   1.336   6.592   3.700
11005TIP3    H132900   1.328   6.600   3.795
11005TIP3    H232901   1.260   6.638   3.665
11006TIP3   OH232902   0.896   6.635   4.562
11006TIP3    H132903   0.963   6.678   4.616
11006TIP3    H232904   0.932   6.639   4.473
11007TIP3   OH232905   0.823   6.625   4.071
11007TIP3    H132906   0.863   6.658   3.990
11007TIP3    H232907   0.758   6.691   4.094
11008TIP3   OH232908   2.039   7.324   4.659
11008TIP3    H132909   2.062   7.257   4.595
11008TIP3    H232910   1.996   7.276   4.730
11009TIP3   OH232911   1.704   6.769   4.333
11009TIP3    H132912   1.625   6.774   4.387
11009TIP3    H232913   1.776   6.765   4.397
11010TIP3   OH232914   1.113   6.858   4.336
11010TIP3    H132915   1.026   6.862   4.295
11010TIP3    H232916   1.142   6.769   4.321
11011TIP3   OH232917   1.351   6.858   4.035
11011TIP3    H132918   1.445   6.872   4.026
11011TIP3    H232919   1.315   6.878   3.948
11012TIP3   OH232920   2.149   6.862   4.540
11012TIP3    H132921   2.133   6.879   4.633
11012TIP3    H232922   2.078   6.803   4.515
11013TIP3   OH232923   1.242   6.881   3.785
11013TIP3    H132924   1.178   6.835   3.731
11013TIP3    H232925   1.296   6.929   3.721
11014TIP3   OH232926   2.352   8.568   4.763
11014TIP3    H132927   2.350   8.572   4.667
11014TIP3    H232928   2.432   8.616   4.788
11015TIP3   OH232929   1.284   7.693   5.167
11015TIP3    H132930   1.367   7.705   5.213
11015TIP3    H232931   1.218   7.698   5.236
11016TIP3   OH232932   1.753   7.161   4.450
11016TIP3    H132933   1.813   7.099   4.407
11016TIP3    H232934   1.740   7.124   4.537
11017TIP3   OH232935   1.247   6.612   4.326
11017TIP3    H132936   1.221   6.536   4.377
11017TIP3    H232937   1.271   6.577   4.240
11018TIP3   OH232938   1.724   7.062   4.711
11018TIP3    H132939   1.638   7.099   4.731
11018TIP3    H232940   1.785   7.113   4.765
11019TIP3   OH232941   1.464   7.384   3.807
11019TIP3    H132942   1.387   7.333   3.783
11019TIP3    H232943   1.434   7.440   3.879
11020TIP3   OH232944   2.347   7.659   4.427
11020TIP3    H132945   2.381   7.709   4.353
11020TIP3    H232946   2.268   7.617   4.393
11021TIP3   OH232947   1.922   6.715   3.734
11021TIP3    H132948   1.829   6.694   3.727
11021TIP3    H232949   1.925   6.810   3.742
11022TIP3   OH232950   1.893   7.767   4.811
11022TIP3    H132951   1.903   7.733   4.900
11022TIP3    H232952   1.828   7.837   4.820
11023TIP3   OH232953   1.981   6.982   3.795
11023TIP3    H132954   2.076   6.987   3.805
11023TIP3    H232955   1.959   7.059   3.744
11024TIP3   OH232956   1.618   7.555   3.661
11024TIP3    H132957   1.567   7.636   3.659
11024TIP3    H232958   1.563   7.493   3.710
11025TIP3   OH232959   1.039   7.351   5.095
11025TIP3    H132960   1.034   7.312   5.182
11025TIP3    H232961   0.972   7.305   5.045
11026TIP3   OH232962   1.779   7.492   5.130
11026TIP3    H132963   1.705   7.436   5.103
11026TIP3    H232964   1.856   7.447   5.095
11027TIP3   OH232965   2.009   8.045   4.719
11027TIP3    H132966   1.916   8.021   4.725
11027TIP3    H232967   2.033   8.068   4.809
11028TIP3   OH232968   2.393   7.068   3.612
11028TIP3    H132969   2.336   7.022   3.550
11028TIP3    H232970   2.398   7.158   3.577
11029TIP3   OH232971   2.655   7.961   4.692
11029TIP3    H132972   2.563   7.934   4.697
11029TIP3    H232973   2.687   7.923   4.610
11030TIP3   OH232974   2.134   7.879   3.550
11030TIP3    H132975   2.108   7.807   3.607
11030TIP3    H232976   2.156   7.838   3.466
11031TIP3   OH232977   2.124   7.520   4.320
11031TIP3    H132978   2.035   7.497   4.348
11031TIP3    H232979   2.158   7.440   4.281
11032TIP3   OH232980   1.278   7.763   4.140
11032TIP3    H132981   1.266   7.840   4.084
11032TIP3    H232982   1.190   7.727   4.148
11033TIP3   OH232983   0.833   7.037   3.852
11033TIP3    H132984   0.878   7.119   3.874
11033TIP3    H232985   0.751   7.041   3.901
11034TIP3   OH232986   1.348   7.538   3.997
11034TIP3    H132987   1.352   7.622   4.042
11034TIP3    H232988   1.332   7.474   4.066
11035TIP3   OH232989   1.554   8.082   4.591
11035TIP3    H132990   1.593   8.151   4.537
11035TIP3    H232991   1.627   8.047   4.641
11036TIP3   OH232992   1.180   7.974   3.985
11036TIP3    H132993   1.094   7.980   4.027
11036TIP3    H232994   1.217   8.061   3.995
11037TIP3   OH232995   1.900   7.741   4.537
11037TIP3    H132996   1.899   7.745   4.633
11037TIP3    H232997   1.945   7.659   4.518
11038TIP3   OH232998   1.901   7.622   3.434
11038TIP3    H132999   1.953   7.596   3.510
11038TIP3    H233000   1.817   7.576   3.446
11039TIP3   OH233001   2.175   8.234   4.605
11039TIP3    H133002   2.109   8.171   4.635
11039TIP3    H233003   2.131   8.286   4.538
11040TIP3   OH233004   2.227   8.086   3.244
11040TIP3    H133005   2.270   8.159   3.199
11040TIP3    H233006   2.146   8.125   3.278
11041TIP3   OH233007   1.247   6.851   5.119
11041TIP3    H133008   1.155   6.874   5.126
11041TIP3    H233009   1.264   6.795   5.195
11042TIP3   OH233010   2.081   7.544   3.625
11042TIP3    H133011   2.064   7.489   3.701
11042TIP3    H233012   2.177   7.548   3.619
11043TIP3   OH233013   0.981   7.961   4.763
11043TIP3    H133014   1.034   7.906   4.821
11043TIP3    H233015   0.992   8.049   4.797
11044TIP3   OH233016   1.254   7.585   3.459
11044TIP3    H133017   1.265   7.494   3.430
11044TIP3    H233018   1.245   7.578   3.554
11045TIP3   OH233019   1.201   7.597   3.737
11045TIP3    H133020   1.254   7.573   3.813
11045TIP3    H233021   1.202   7.692   3.736
11046TIP3   OH233022   0.924   7.290   3.930
11046TIP3    H133023   0.862   7.341   3.981
11046TIP3    H233024   0.948   7.346   3.857
11047TIP3   OH233025   2.102   6.918   4.803
11047TIP3    H133026   2.175   6.967   4.841
11047TIP3    H233027   2.088   6.845   4.863
11048TIP3   OH233028   1.986   6.666   4.000
11048TIP3    H133029   1.963   6.685   3.909
11048TIP3    H233030   2.029   6.746   4.031
11049TIP3   OH233031   1.467   7.779   3.654
11049TIP3    H133032   1.384   7.803   3.694
11049TIP3    H233033   1.490   7.854   3.599
11050TIP3   OH233034   1.630   6.865   4.082
11050TIP3    H133035   1.691   6.935   4.057
11050TIP3    H233036   1.651   6.846   4.173
11051TIP3   OH233037   1.938   7.170   4.860
11051TIP3    H133038   1.952   7.216   4.942
11051TIP3    H233039   1.979   7.085   4.872
11052TIP3   OH233040   1.796   6.561   4.171
11052TIP3    H133041   1.771   6.638   4.223
11052TIP3    H233042   1.867   6.593   4.114
11053TIP3   OH233043   1.220   7.871   3.736
11053TIP3    H133044   1.202   7.943   3.677
11053TIP3    H233045   1.206   7.907   3.824
11054TIP3   OH233046   1.310   6.586   3.980
11054TIP3    H133047   1.298   6.677   4.007
11054TIP3    H233048   1.404   6.572   3.986
11055TIP3   OH233049   2.550   7.064   4.852
11055TIP3    H133050   2.456   7.071   4.865
11055TIP3    H233051   2.560   7.012   4.772
11056TIP3   OH233052   2.215   7.263   4.232
11056TIP3    H133053   2.136   7.208   4.240
11056TIP3    H233054   2.279   7.222   4.289
11057TIP3   OH233055   0.955   7.468   3.716
11057TIP3    H133056   1.029   7.528   3.729
11057TIP3    H233057   0.985   7.407   3.649
11058TIP3   OH233058   0.866   6.760   3.839
11058TIP3    H133059   0.871   6.856   3.843
11058TIP3    H233060   0.806   6.743   3.766
11059TIP3   OH233061   2.195   8.241   4.183
11059TIP3    H133062   2.147   8.294   4.119
11059TIP3    H233063   2.287   8.262   4.168
11060TIP3   OH233064   1.265   6.485   4.704
11060TIP3    H133065   1.237   6.453   4.619
11060TIP3    H233066   1.255   6.409   4.763
11061TIP3   OH233067   0.787   7.732   4.131
11061TIP3    H133068   0.745   7.769   4.208
11061TIP3    H233069   0.741   7.772   4.057
11062TIP3   OH233070   0.982   8.280   5.178
11062TIP3    H133071   1.063   8.286   5.228
11062TIP3    H233072   0.969   8.186   5.165
11063TIP3   OH233073   1.456   8.184   5.218
11063TIP3    H133074   1.545   8.151   5.228
11063TIP3    H233075   1.420   8.133   5.145
11064TIP3   OH233076   1.407   7.783   3.340
11064TIP3    H133077   1.361   7.714   3.387
11064TIP3    H233078   1.481   7.739   3.299
11065TIP3   OH233079   2.069   8.121   4.977
11065TIP3    H133080   2.085   8.051   5.040
11065TIP3    H233081   2.143   8.181   4.988
11066TIP3   OH233082   1.853   7.825   3.259
11066TIP3    H133083   1.885   7.760   3.321
11066TIP3    H233084   1.911   7.816   3.183
11067TIP3   OH233085   1.081   7.695   5.363
11067TIP3    H133086   1.109   7.604   5.374
11067TIP3    H233087   0.998   7.690   5.317
11068TIP3   OH233088   1.074   7.281   3.556
11068TIP3    H133089   1.124   7.255   3.634
11068TIP3    H233090   1.141   7.295   3.489
11069TIP3   OH233091   1.705   7.762   5.143
11069TIP3    H133092   1.660   7.780   5.060
11069TIP3    H233093   1.740   7.673   5.132
11070TIP3   OH233094   1.644   7.500   3.394
11070TIP3    H133095   1.624   7.509   3.487
11070TIP3    H233096   1.626   7.408   3.374
11071TIP3   OH233097   2.189   7.794   4.779
11071TIP3    H133098   2.251   7.837   4.720
11071TIP3    H233099   2.105   7.835   4.758
11072TIP3   OH233100   1.197   7.448   5.368
11072TIP3    H133101   1.261   7.412   5.307
11072TIP3    H233102   1.242   7.448   5.453
11073TIP3   OH233103   1.244   7.219   3.768
11073TIP3    H133104   1.224   7.191   3.858
11073TIP3    H233105   1.294   7.146   3.731
11074TIP3   OH233106   1.575   7.321   5.048
11074TIP3    H133107   1.483   7.343   5.053
11074TIP3    H233108   1.600   7.339   4.958
11075TIP3   OH233109   1.392   7.038   3.616
11075TIP3    H133110   1.362   7.043   3.525
11075TIP3    H233111   1.487   7.049   3.611
11076TIP3   OH233112   2.070   7.679   5.124
11076TIP3    H133113   2.126   7.633   5.062
11076TIP3    H233114   2.063   7.619   5.199
11077TIP3   OH233115   2.182   7.328   3.298
11077TIP3    H133116   2.169   7.287   3.212
11077TIP3    H233117   2.158   7.420   3.284
11078TIP3   OH233118   1.675   7.078   5.133
11078TIP3    H133119   1.665   7.008   5.068
11078TIP3    H233120   1.633   7.154   5.092
11079TIP3   OH233121   1.676   6.877   4.929
11079TIP3    H133122   1.697   6.923   4.848
11079TIP3    H233123   1.584   6.852   4.919
11080TIP3   OH233124   1.702   7.406   4.821
11080TIP3    H133125   1.779   7.402   4.764
11080TIP3    H233126   1.649   7.476   4.785
11081TIP3   OH233127   2.274   7.359   5.181
11081TIP3    H133128   2.317   7.273   5.185
11081TIP3    H233129   2.345   7.420   5.162
11082TIP3   OH233130   2.309   7.613   4.935
11082TIP3    H133131   2.256   7.677   4.887
11082TIP3    H233132   2.398   7.627   4.903
11083TIP3   OH233133   1.558   7.157   5.382
11083TIP3    H133134   1.488   7.095   5.399
11083TIP3    H233135   1.579   7.145   5.289
11084TIP3   OH233136   1.792   6.647   5.037
11084TIP3    H133137   1.755   6.728   5.001
11084TIP3    H233138   1.725   6.581   5.023
11085TIP3   OH233139   1.924   7.114   5.241
11085TIP3    H133140   1.907   7.099   5.335
11085TIP3    H233141   1.840   7.096   5.199
11086TIP3   OH233142   2.168   7.068   5.114
11086TIP3    H133143   2.087   7.071   5.166
11086TIP3    H233144   2.236   7.045   5.177
11087TIP3   OH233145   2.406   7.037   5.263
11087TIP3    H133146   2.418   6.943   5.269
11087TIP3    H233147   2.401   7.066   5.355
11088TIP3   OH233148   1.396   6.934   5.442
11088TIP3    H133149   1.395   6.847   5.403
11088TIP3    H233150   1.434   6.921   5.529
11089TIP3   OH233151   1.858   6.618   5.302
11089TIP3    H133152   1.926   6.551   5.292
11089TIP3    H233153   1.827   6.634   5.213
11090TIP3   OH233154   1.958   6.831   5.448
11090TIP3    H133155   1.925   6.760   5.392
11090TIP3    H233156   1.888   6.895   5.449
11091TIP3   OH233157   1.226   8.088   3.561
11091TIP3    H133158   1.312   8.060   3.530
11091TIP3    H233159   1.179   8.114   3.482
11092TIP3   OH233160   0.680   7.477   3.724
11092TIP3    H133161   0.775   7.486   3.723
11092TIP3    H233162   0.664   7.390   3.686
11093TIP3   OH233163   0.567   8.039   4.197
11093TIP3    H133164   0.511   7.984   4.142
11093TIP3    H233165   0.608   7.979   4.259
11094TIP3   OH233166   0.721   7.876   4.371
11094TIP3    H133167   0.731   7.805   4.435
11094TIP3    H233168   0.773   7.948   4.407
11095TIP3   OH233169   2.454   8.325   4.160
11095TIP3    H133170   2.494   8.321   4.247
11095TIP3    H233171   2.529   8.332   4.100
11096TIP3   OH233172   2.503   8.296   4.439
11096TIP3    H133173   2.454   8.214   4.435
11096TIP3    H233174   2.569   8.281   4.506
11097TIP3   OH233175   2.543   8.021   5.020
11097TIP3    H133176   2.468   8.030   5.080
11097TIP3    H233177   2.588   8.105   5.026
11098TIP3   OH233178   2.360   7.536   3.628
11098TIP3    H133179   2.418   7.606   3.598
11098TIP3    H233180   2.406   7.498   3.703
11099TIP3   OH233181   2.489   7.394   3.830
11099TIP3    H133182   2.421   7.356   3.885
11099TIP3    H233183   2.553   7.430   3.891
11100TIP3   OH233184   2.535   7.795   4.267
11100TIP3    H133185   2.584   7.722   4.229
11100TIP3    H233186   2.546   7.867   4.204
11101TIP3   OH233187   2.344   8.071   4.457
11101TIP3    H133188   2.280   8.122   4.506
11101TIP3    H233189   2.294   8.033   4.385
11102TIP3   OH233190   2.389   7.308   3.477
11102TIP3    H133191   2.318   7.309   3.413
11102TIP3    H233192   2.375   7.387   3.529
11103TIP3   OH233193   2.242   6.955   3.413
11103TIP3    H133194   2.215   6.996   3.331
11103TIP3    H233195   2.231   6.861   3.398
11104TIP3   OH233196   2.283   7.256   3.963
11104TIP3    H133197   2.285   7.162   3.947
11104TIP3    H233198   2.263   7.265   4.056
11105TIP3   OH233199   0.912   7.344   4.702
11105TIP3    H133200   0.887   7.302   4.620
11105TIP3    H233201   1.003   7.317   4.717
11106TIP3   OH233202   2.557   7.668   4.826
11106TIP3    H133203   2.627   7.606   4.805
11106TIP3    H233204   2.544   7.718   4.745
11107TIP3   OH233205   2.740   7.458   4.817
11107TIP3    H133206   2.665   7.419   4.862
11107TIP3    H233207   2.814   7.402   4.840
11108TIP3   OH233208   2.208   6.681   3.383
11108TIP3    H133209   2.269   6.660   3.453
11108TIP3    H233210   2.123   6.648   3.414
11109TIP3   OH233211   2.275   6.979   3.853
11109TIP3    H133212   2.321   6.896   3.866
11109TIP3    H233213   2.314   7.017   3.775
11110TIP3   OH233214   2.428   7.140   4.377
11110TIP3    H133215   2.509   7.158   4.329
11110TIP3    H233216   2.441   7.181   4.462
11111TIP3   OH233217   2.502   7.291   4.604
11111TIP3    H133218   2.429   7.317   4.660
11111TIP3    H233219   2.530   7.372   4.561
11112TIP3   OH233220   1.142   7.036   5.424
11112TIP3    H133221   1.236   7.017   5.421
11112TIP3    H233222   1.101   6.950   5.437
11113TIP3   OH233223   2.965   6.885   5.145
11113TIP3    H133224   3.030   6.831   5.101
11113TIP3    H233225   2.925   6.938   5.076
11114TIP3   OH233226   2.392   6.729   3.905
11114TIP3    H133227   2.436   6.714   3.988
11114TIP3    H233228   2.329   6.658   3.897
11115TIP3   OH233229   1.108   6.712   4.721
11115TIP3    H133230   1.166   6.636   4.722
11115TIP3    H233231   1.166   6.786   4.705
11116TIP3   OH233232   0.930   6.988   4.821
11116TIP3    H133233   0.944   6.964   4.729
11116TIP3    H233234   0.997   7.055   4.839
11117TIP3   OH233235   2.814   7.007   4.954
11117TIP3    H133236   2.735   7.049   4.989
11117TIP3    H233237   2.781   6.939   4.896
11118TIP3   OH233238   2.433   6.639   3.543
11118TIP3    H133239   2.481   6.581   3.484
11118TIP3    H233240   2.486   6.719   3.548
11119TIP3   OH233241   0.892   6.479   4.289
11119TIP3    H133242   0.808   6.473   4.333
11119TIP3    H233243   0.878   6.539   4.216
11120TIP3   OH233244   2.023   8.215   3.810
11120TIP3    H133245   2.072   8.194   3.731
11120TIP3    H233246   2.080   8.276   3.858
11121TIP3   OH233247   1.088   6.528   5.115
11121TIP3    H133248   1.038   6.543   5.196
11121TIP3    H233249   1.046   6.583   5.050
11122TIP3   OH233250   1.124   8.002   5.185
11122TIP3    H133251   1.033   7.979   5.170
11122TIP3    H233252   1.138   7.987   5.279
11123TIP3   OH233253   1.329   8.036   4.742
11123TIP3    H133254   1.274   8.106   4.708
11123TIP3    H233255   1.413   8.047   4.697
11124TIP3   OH233256   1.733   8.267   4.882
11124TIP3    H133257   1.774   8.260   4.968
11124TIP3    H233258   1.793   8.323   4.832
11125TIP3   OH233259   1.911   8.427   4.746
11125TIP3    H133260   1.961   8.370   4.687
11125TIP3    H233261   1.978   8.474   4.795
11126TIP3   OH233262   2.721   6.765   4.835
11126TIP3    H133263   2.639   6.769   4.786
11126TIP3    H233264   2.749   6.674   4.828
11127TIP3   OH233265   0.973   8.274   4.777
11127TIP3    H133266   0.883   8.281   4.745
11127TIP3    H233267   0.983   8.347   4.837
11128TIP3   OH233268   1.208   8.253   4.636
11128TIP3    H133269   1.124   8.265   4.681
11128TIP3    H233270   1.191   8.280   4.546
11129TIP3   OH233271   1.639   8.281   4.418
11129TIP3    H133272   1.571   8.288   4.351
11129TIP3    H233273   1.641   8.367   4.460
11130TIP3   OH233274   1.905   8.250   4.488
11130TIP3    H133275   1.814   8.254   4.458
11130TIP3    H233276   1.952   8.309   4.429
11131TIP3   OH233277   2.115   8.410   4.385
11131TIP3    H133278   2.107   8.495   4.341
11131TIP3    H233279   2.142   8.350   4.316
11132TIP3   OH233280   0.900   8.050   4.509
11132TIP3    H133281   0.926   8.026   4.598
11132TIP3    H233282   0.972   8.019   4.454
11133TIP3   OH233283   1.106   7.940   4.370
11133TIP3    H133284   1.121   7.856   4.412
11133TIP3    H233285   1.191   7.983   4.370
11134TIP3   OH233286   1.371   8.030   4.389
11134TIP3    H133287   1.389   7.937   4.375
11134TIP3    H233288   1.426   8.054   4.463
11135TIP3   OH233289   1.932   6.684   4.478
11135TIP3    H133290   1.891   6.613   4.528
11135TIP3    H233291   1.999   6.641   4.426
11136TIP3   OH233292   2.431   6.599   4.365
11136TIP3    H133293   2.468   6.649   4.292
11136TIP3    H233294   2.339   6.622   4.366
11137TIP3   OH233295   2.549   6.673   4.128
11137TIP3    H133296   2.618   6.612   4.100
11137TIP3    H233297   2.587   6.760   4.115
11138TIP3   OH233298   1.184   6.380   4.463
11138TIP3    H133299   1.094   6.346   4.468
11138TIP3    H233300   1.239   6.302   4.457
11139TIP3   OH233301   1.003   6.283   4.121
11139TIP3    H133302   1.032   6.333   4.044
11139TIP3    H233303   0.971   6.348   4.182
11140TIP3   OH233304   1.657   6.416   4.371
11140TIP3    H133305   1.700   6.468   4.303
11140TIP3    H233306   1.692   6.451   4.453
11141TIP3   OH233307   2.143   6.567   4.344
11141TIP3    H133308   2.153   6.534   4.255
11141TIP3    H233309   2.150   6.490   4.399
11142TIP3   OH233310   2.206   6.519   3.912
11142TIP3    H133311   2.127   6.567   3.937
11142TIP3    H233312   2.194   6.432   3.950
11143TIP3   OH233313   0.655   7.846   3.926
11143TIP3    H133314   0.560   7.840   3.936
11143TIP3    H233315   0.668   7.919   3.865
11144TIP3   OH233316   1.105   6.416   3.890
11144TIP3    H133317   1.152   6.357   3.831
11144TIP3    H233318   1.173   6.474   3.925
11145TIP3   OH233319   1.585   6.613   3.988
11145TIP3    H133320   1.646   6.564   4.043
11145TIP3    H233321   1.597   6.704   4.014
11146TIP3   OH233322   1.473   8.005   3.481
11146TIP3    H133323   1.558   8.030   3.444
11146TIP3    H233324   1.442   7.935   3.424
11147TIP3   OH233325   2.162   8.149   3.580
11147TIP3    H133326   2.158   8.053   3.576
11147TIP3    H233327   2.122   8.179   3.498
11148TIP3   OH233328   1.397   6.659   5.353
11148TIP3    H133329   1.364   6.590   5.411
11148TIP3    H233330   1.488   6.670   5.379
11149TIP3   OH233331   1.644   6.670   5.480
11149TIP3    H133332   1.720   6.649   5.427
11149TIP3    H233333   1.637   6.598   5.543
11150TIP3   OH233334   0.775   7.845   3.537
11150TIP3    H133335   0.776   7.866   3.630
11150TIP3    H233336   0.858   7.799   3.522
11151TIP3   OH233337   2.468   6.765   5.265
11151TIP3    H133338   2.486   6.736   5.355
11151TIP3    H233339   2.553   6.759   5.221
11152TIP3   OH233340   2.392   8.295   4.769
11152TIP3    H133341   2.319   8.263   4.716
11152TIP3    H233342   2.376   8.389   4.777
11153TIP3   OH233343   3.666   7.680   3.510
11153TIP3    H133344   3.637   7.767   3.483
11153TIP3    H233345   3.595   7.621   3.482
11154TIP3   OH233346   3.662   7.675   3.936
11154TIP3    H133347   3.717   7.658   4.013
11154TIP3    H233348   3.618   7.592   3.918
11155TIP3   OH233349   2.959   7.534   4.277
11155TIP3    H133350   2.998   7.482   4.348
11155TIP3    H233351   3.032   7.558   4.221
11156TIP3   OH233352   3.930   7.987   3.613
11156TIP3    H133353   3.919   7.920   3.680
11156TIP3    H233354   3.946   8.068   3.663
11157TIP3   OH233355   2.942   7.959   3.973
11157TIP3    H133356   2.929   7.864   3.971
11157TIP3    H233357   3.037   7.970   3.966
11158TIP3   OH233358   2.633   7.165   3.749
11158TIP3    H133359   2.595   7.249   3.772
11158TIP3    H233360   2.562   7.117   3.707
11159TIP3   OH233361   2.716   7.479   3.974
11159TIP3    H133362   2.767   7.402   3.998
11159TIP3    H233363   2.782   7.544   3.947
11160TIP3   OH233364   3.605   8.400   3.632
11160TIP3    H133365   3.628   8.342   3.559
11160TIP3    H233366   3.613   8.346   3.710
11161TIP3   OH233367   3.471   7.897   3.941
11161TIP3    H133368   3.517   7.817   3.914
11161TIP3    H233369   3.540   7.956   3.969
11162TIP3   OH233370   4.508   7.213   3.955
11162TIP3    H133371   4.522   7.298   3.995
11162TIP3    H233372   4.536   7.224   3.863
11163TIP3   OH233373   3.874   7.381   3.973
11163TIP3    H133374   3.906   7.295   4.000
11163TIP3    H233375   3.838   7.367   3.885
11164TIP3   OH233376   3.232   7.038   3.929
11164TIP3    H133377   3.210   7.112   3.872
11164TIP3    H233378   3.176   6.967   3.898
11165TIP3   OH233379   3.929   7.144   3.570
11165TIP3    H133380   3.992   7.138   3.642
11165TIP3    H233381   3.979   7.178   3.496
11166TIP3   OH233382   2.855   7.256   4.063
11166TIP3    H133383   2.939   7.238   4.105
11166TIP3    H233384   2.858   7.205   3.982
11167TIP3   OH233385   3.273   7.456   3.880
11167TIP3    H133386   3.368   7.441   3.885
11167TIP3    H233387   3.238   7.373   3.845
11168TIP3   OH233388   4.558   7.434   4.121
11168TIP3    H133389   4.471   7.474   4.113
11168TIP3    H233390   4.595   7.472   4.201
11169TIP3   OH233391   3.211   7.047   4.384
11169TIP3    H133392   3.163   7.082   4.309
11169TIP3    H233393   3.155   7.065   4.460
11170TIP3   OH233394   3.567   7.897   3.370
11170TIP3    H133395   3.526   7.866   3.289
11170TIP3    H233396   3.515   7.974   3.395
11171TIP3   OH233397   3.303   7.818   4.146
11171TIP3    H133398   3.252   7.890   4.184
11171TIP3    H233399   3.353   7.858   4.076
11172TIP3   OH233400   4.084   7.167   3.794
11172TIP3    H133401   4.042   7.145   3.877
11172TIP3    H233402   4.141   7.242   3.815
11173TIP3   OH233403   3.105   7.152   4.151
11173TIP3    H133404   3.160   7.227   4.173
11173TIP3    H233405   3.151   7.109   4.079
11174TIP3   OH233406   3.153   8.019   4.263
11174TIP3    H133407   3.143   8.110   4.233
11174TIP3    H233408   3.074   8.002   4.313
11175TIP3   OH233409   2.531   7.724   3.511
11175TIP3    H133410   2.497   7.745   3.424
11175TIP3    H233411   2.554   7.808   3.549
11176TIP3   OH233412   3.954   8.233   3.756
11176TIP3    H133413   3.869   8.237   3.798
11176TIP3    H233414   3.963   8.318   3.712
11177TIP3   OH233415   4.311   7.097   4.123
11177TIP3    H133416   4.225   7.119   4.086
11177TIP3    H233417   4.373   7.126   4.056
11178TIP3   OH233418   3.555   6.737   4.119
11178TIP3    H133419   3.547   6.644   4.143
11178TIP3    H233420   3.478   6.778   4.157
11179TIP3   OH233421   3.684   8.267   3.401
11179TIP3    H133422   3.735   8.187   3.391
11179TIP3    H233423   3.743   8.337   3.374
11180TIP3   OH233424   3.815   8.033   3.366
11180TIP3    H133425   3.744   7.968   3.362
11180TIP3    H233426   3.865   8.009   3.444
11181TIP3   OH233427   4.205   8.105   4.095
11181TIP3    H133428   4.184   8.033   4.036
11181TIP3    H233429   4.188   8.184   4.044
11182TIP3   OH233430   3.491   7.520   3.362
11182TIP3    H133431   3.407   7.562   3.343
11182TIP3    H233432   3.537   7.519   3.278
11183TIP3   OH233433   3.458   7.330   3.048
11183TIP3    H133434   3.524   7.378   3.098
11183TIP3    H233435   3.507   7.262   3.002
11184TIP3   OH233436   4.378   7.777   3.962
11184TIP3    H133437   4.293   7.821   3.957
11184TIP3    H233438   4.415   7.788   3.874
11185TIP3   OH233439   3.850   7.610   3.319
11185TIP3    H133440   3.796   7.637   3.393
11185TIP3    H233441   3.934   7.586   3.359
11186TIP3   OH233442   4.078   7.636   4.271
11186TIP3    H133443   4.071   7.719   4.319
11186TIP3    H233444   3.998   7.632   4.220
11187TIP3   OH233445   3.073   7.586   3.726
11187TIP3    H133446   3.037   7.525   3.662
11187TIP3    H233447   3.146   7.539   3.766
11188TIP3   OH233448   3.210   8.010   3.880
11188TIP3    H133449   3.186   8.002   3.788
11188TIP3    H233450   3.298   7.973   3.885
11189TIP3   OH233451   3.169   7.584   4.101
11189TIP3    H133452   3.208   7.547   4.021
11189TIP3    H233453   3.218   7.665   4.116
11190TIP3   OH233454   3.714   8.254   3.893
11190TIP3    H133455   3.701   8.324   3.957
11190TIP3    H233456   3.704   8.174   3.944
11191TIP3   OH233457   3.347   8.130   4.431
11191TIP3    H133458   3.285   8.188   4.475
11191TIP3    H233459   3.292   8.077   4.372
11192TIP3   OH233460   3.680   7.470   3.152
11192TIP3    H133461   3.740   7.528   3.199
11192TIP3    H233462   3.709   7.473   3.061
11193TIP3   OH233463   3.099   7.661   4.578
11193TIP3    H133464   3.105   7.755   4.592
11193TIP3    H233465   3.005   7.644   4.568
11194TIP3   OH233466   3.437   8.138   3.408
11194TIP3    H133467   3.516   8.190   3.416
11194TIP3    H233468   3.377   8.192   3.358
11195TIP3   OH233469   3.137   8.293   4.517
11195TIP3    H133470   3.113   8.297   4.424
11195TIP3    H233471   3.056   8.271   4.562
11196TIP3   OH233472   4.191   6.698   3.215
11196TIP3    H133473   4.115   6.719   3.268
11196TIP3    H233474   4.201   6.773   3.156
11197TIP3   OH233475   2.949   7.426   3.526
11197TIP3    H133476   2.872   7.473   3.496
11197TIP3    H233477   2.919   7.336   3.539
11198TIP3   OH233478   4.017   8.075   2.766
11198TIP3    H133479   4.013   8.168   2.744
11198TIP3    H233480   4.107   8.049   2.743
11199TIP3   OH233481   2.734   7.837   4.462
11199TIP3    H133482   2.664   7.819   4.400
11199TIP3    H233483   2.767   7.750   4.486
11200TIP3   OH233484   2.634   8.007   4.104
11200TIP3    H133485   2.719   7.989   4.065
11200TIP3    H233486   2.650   8.081   4.163
11201TIP3   OH233487   4.431   8.464   4.168
11201TIP3    H133488   4.438   8.368   4.171
11201TIP3    H233489   4.366   8.486   4.235
11202TIP3   OH233490   3.552   8.265   4.308
11202TIP3    H133491   3.544   8.357   4.333
11202TIP3    H233492   3.478   8.222   4.351
11203TIP3   OH233493   3.320   8.334   3.238
11203TIP3    H133494   3.278   8.320   3.153
11203TIP3    H233495   3.289   8.420   3.266
11204TIP3   OH233496   2.751   8.208   3.623
11204TIP3    H133497   2.800   8.205   3.706
11204TIP3    H233498   2.706   8.124   3.618
11205TIP3   OH233499   3.525   8.290   2.872
11205TIP3    H133500   3.575   8.217   2.836
11205TIP3    H233501   3.560   8.302   2.960
11206TIP3   OH233502   3.577   8.330   3.141
11206TIP3    H133503   3.488   8.327   3.178
11206TIP3    H233504   3.633   8.295   3.210
11207TIP3   OH233505   4.317   7.599   4.435
11207TIP3    H133506   4.238   7.607   4.382
11207TIP3    H233507   4.339   7.505   4.432
11208TIP3   OH233508   2.933   8.025   4.431
11208TIP3    H133509   2.984   8.010   4.511
11208TIP3    H233510   2.861   7.962   4.437
11209TIP3   OH233511   3.317   6.828   4.244
11209TIP3    H133512   3.234   6.795   4.210
11209TIP3    H233513   3.293   6.910   4.288
11210TIP3   OH233514   3.855   6.954   4.444
11210TIP3    H133515   3.924   6.929   4.505
11210TIP3    H233516   3.774   6.938   4.491
11211TIP3   OH233517   4.081   7.370   4.360
11211TIP3    H133518   4.041   7.366   4.447
11211TIP3    H233519   4.065   7.459   4.330
11212TIP3   OH233520   3.757   7.444   2.889
11212TIP3    H133521   3.712   7.450   2.804
11212TIP3    H233522   3.839   7.491   2.876
11213TIP3   OH233523   3.466   6.869   3.211
11213TIP3    H133524   3.428   6.877   3.299
11213TIP3    H233525   3.431   6.788   3.176
11214TIP3   OH233526   3.255   7.364   4.249
11214TIP3    H133527   3.210   7.371   4.333
11214TIP3    H233528   3.233   7.445   4.203
11215TIP3   OH233529   3.134   7.241   3.772
11215TIP3    H133530   3.044   7.217   3.797
11215TIP3    H233531   3.143   7.209   3.682
11216TIP3   OH233532   3.613   7.315   3.498
11216TIP3    H133533   3.566   7.388   3.458
11216TIP3    H233534   3.672   7.283   3.429
11217TIP3   OH233535   3.801   7.576   4.567
11217TIP3    H133536   3.776   7.510   4.631
11217TIP3    H233537   3.893   7.595   4.587
11218TIP3   OH233538   3.782   7.330   3.720
11218TIP3    H133539   3.713   7.351   3.657
11218TIP3    H233540   3.829   7.257   3.681
11219TIP3   OH233541   3.094   7.382   4.471
11219TIP3    H133542   3.103   7.448   4.540
11219TIP3    H233543   3.075   7.300   4.518
11220TIP3   OH233544   3.134   6.850   3.189
11220TIP3    H133545   3.124   6.856   3.284
11220TIP3    H233546   3.057   6.893   3.153
11221TIP3   OH233547   2.682   6.895   4.056
11221TIP3    H133548   2.755   6.932   4.105
11221TIP3    H233549   2.716   6.883   3.968
11222TIP3   OH233550   2.583   6.872   3.558
11222TIP3    H133551   2.629   6.907   3.481
11222TIP3    H233552   2.519   6.940   3.579
11223TIP3   OH233553   3.830   7.583   4.147
11223TIP3    H133554   3.852   7.516   4.082
11223TIP3    H233555   3.783   7.535   4.215
11224TIP3   OH233556   3.501   7.028   3.822
11224TIP3    H133557   3.423   7.027   3.876
11224TIP3    H233558   3.574   7.020   3.883
11225TIP3   OH233559   2.893   7.116   3.831
11225TIP3    H133560   2.806   7.121   3.792
11225TIP3    H233561   2.922   7.027   3.813
11226TIP3   OH233562   3.148   7.120   3.526
11226TIP3    H133563   3.243   7.129   3.516
11226TIP3    H233564   3.113   7.136   3.439
11227TIP3   OH233565   3.942   7.120   4.032
11227TIP3    H133566   3.922   7.137   4.124
11227TIP3    H233567   3.874   7.058   4.005
11228TIP3   OH233568   3.038   7.141   3.277
11228TIP3    H133569   2.974   7.092   3.225
11228TIP3    H233570   3.091   7.187   3.212
11229TIP3   OH233571   4.114   8.810   4.318
11229TIP3    H133572   4.082   8.809   4.227
11229TIP3    H233573   4.200   8.851   4.312
11230TIP3   OH233574   3.086   7.931   4.662
11230TIP3    H133575   3.167   7.954   4.709
11230TIP3    H233576   3.017   7.942   4.727
11231TIP3   OH233577   3.547   7.405   3.928
11231TIP3    H133578   3.614   7.357   3.879
11231TIP3    H233579   3.546   7.362   4.014
11232TIP3   OH233580   3.036   6.868   3.813
11232TIP3    H133581   3.009   6.792   3.864
11232TIP3    H233582   3.054   6.833   3.726
11233TIP3   OH233583   3.520   7.304   4.192
11233TIP3    H133584   3.433   7.337   4.215
11233TIP3    H233585   3.580   7.357   4.244
11234TIP3   OH233586   3.251   7.652   3.308
11234TIP3    H133587   3.176   7.598   3.283
11234TIP3    H233588   3.225   7.694   3.389
11235TIP3   OH233589   4.144   7.912   3.910
11235TIP3    H133590   4.179   7.962   3.836
11235TIP3    H233591   4.065   7.871   3.875
11236TIP3   OH233592   3.719   6.973   3.218
11236TIP3    H133593   3.626   6.952   3.213
11236TIP3    H233594   3.721   7.069   3.228
11237TIP3   OH233595   3.659   8.000   4.321
11237TIP3    H133596   3.718   7.991   4.396
11237TIP3    H233597   3.626   8.089   4.327
11238TIP3   OH233598   3.777   7.240   3.283
11238TIP3    H133599   3.873   7.244   3.293
11238TIP3    H233600   3.756   7.317   3.230
11239TIP3   OH233601   2.940   7.673   3.953
11239TIP3    H133602   2.977   7.653   3.867
11239TIP3    H233603   3.006   7.644   4.015
11240TIP3   OH233604   3.409   7.811   3.152
11240TIP3    H133605   3.360   7.893   3.147
11240TIP3    H233606   3.353   7.753   3.204
11241TIP3   OH233607   2.824   7.599   4.589
11241TIP3    H133608   2.823   7.570   4.680
11241TIP3    H233609   2.749   7.555   4.549
11242TIP3   OH233610   3.571   7.731   4.613
11242TIP3    H133611   3.501   7.673   4.584
11242TIP3    H233612   3.651   7.691   4.581
11243TIP3   OH233613   3.828   8.288   4.262
11243TIP3    H133614   3.733   8.280   4.272
11243TIP3    H233615   3.851   8.365   4.315
11244TIP3   OH233616   4.189   7.327   3.099
11244TIP3    H133617   4.132   7.282   3.037
11244TIP3    H233618   4.197   7.416   3.065
11245TIP3   OH233619   4.449   8.191   4.180
11245TIP3    H133620   4.356   8.170   4.172
11245TIP3    H233621   4.489   8.162   4.098
11246TIP3   OH233622   3.928   8.135   3.029
11246TIP3    H133623   3.904   8.061   3.086
11246TIP3    H233624   3.951   8.094   2.946
11247TIP3   OH233625   3.916   7.779   3.808
11247TIP3    H133626   3.826   7.758   3.834
11247TIP3    H233627   3.949   7.698   3.769
11248TIP3   OH233628   3.076   8.013   3.633
11248TIP3    H133629   3.075   8.088   3.573
11248TIP3    H233630   2.985   8.004   3.661
11249TIP3   OH233631   2.629   7.291   3.342
11249TIP3    H133632   2.671   7.374   3.363
11249TIP3    H233633   2.547   7.293   3.392
11250TIP3   OH233634   3.152   7.769   3.530
11250TIP3    H133635   3.140   7.858   3.562
11250TIP3    H233636   3.125   7.713   3.603
11251TIP3   OH233637   3.344   8.373   4.091
11251TIP3    H133638   3.356   8.468   4.087
11251TIP3    H233639   3.428   8.340   4.123
11252TIP3   OH233640   2.982   8.226   3.474
11252TIP3    H133641   2.895   8.231   3.515
11252TIP3    H233642   3.015   8.316   3.478
11253TIP3   OH233643   3.702   8.016   4.047
11253TIP3    H133644   3.686   8.010   4.141
11253TIP3    H233645   3.785   7.969   4.034
11254TIP3   OH233646   3.701   7.878   2.919
11254TIP3    H133647   3.750   7.852   2.996
11254TIP3    H233648   3.617   7.833   2.927
11255TIP3   OH233649   3.962   8.496   4.054
11255TIP3    H133650   3.875   8.468   4.080
11255TIP3    H233651   3.947   8.570   3.995
11256TIP3   OH233652   4.021   8.348   2.726
11256TIP3    H133653   4.066   8.419   2.680
11256TIP3    H233654   3.941   8.388   2.760
11257TIP3   OH233655   3.038   7.128   4.589
11257TIP3    H133656   2.943   7.138   4.592
11257TIP3    H233657   3.059   7.077   4.666
11258TIP3   OH233658   3.875   7.799   3.115
11258TIP3    H133659   3.858   7.744   3.191
11258TIP3    H233660   3.970   7.805   3.110
11259TIP3   OH233661   2.760   8.225   4.249
11259TIP3    H133662   2.823   8.175   4.302
11259TIP3    H233663   2.771   8.315   4.278
11260TIP3   OH233664   3.051   7.843   2.934
11260TIP3    H133665   3.061   7.751   2.907
11260TIP3    H233666   3.037   7.838   3.029
11261TIP3   OH233667   2.992   7.853   3.207
11261TIP3    H133668   3.057   7.827   3.272
11261TIP3    H233669   2.991   7.949   3.212
11262TIP3   OH233670   2.724   7.545   3.417
11262TIP3    H133671   2.659   7.594   3.468
11262TIP3    H233672   2.743   7.602   3.343
11263TIP3   OH233673   3.885   7.184   4.294
11263TIP3    H133674   3.965   7.227   4.325
11263TIP3    H233675   3.877   7.107   4.350
11264TIP3   OH233676   3.780   6.924   3.485
11264TIP3    H133677   3.759   6.942   3.393
11264TIP3    H233678   3.824   7.004   3.515
11265TIP3   OH233679   3.259   8.035   3.140
11265TIP3    H133680   3.176   8.061   3.180
11265TIP3    H233681   3.284   8.109   3.085
11266TIP3   OH233682   3.428   7.124   3.571
11266TIP3    H133683   3.489   7.192   3.544
11266TIP3    H233684   3.453   7.103   3.661
11267TIP3   OH233685   3.725   7.418   4.341
11267TIP3    H133686   3.751   7.461   4.423
11267TIP3    H233687   3.776   7.337   4.340
11268TIP3   OH233688   3.592   6.818   3.657
11268TIP3    H133689   3.568   6.895   3.708
11268TIP3    H233690   3.662   6.848   3.599
11269TIP3   OH233691   3.012   8.125   3.223
11269TIP3    H133692   2.995   8.197   3.163
11269TIP3    H233693   3.000   8.162   3.310
11270TIP3   OH233694   3.104   6.845   3.469
11270TIP3    H133695   3.091   6.937   3.495
11270TIP3    H233696   3.198   6.832   3.474
11271TIP3   OH233697   4.348   7.328   4.344
11271TIP3    H133698   4.253   7.329   4.353
11271TIP3    H233699   4.364   7.284   4.260
11272TIP3   OH233700   4.007   7.520   3.720
11272TIP3    H133701   3.930   7.463   3.730
11272TIP3    H233702   4.074   7.480   3.776
11273TIP3   OH233703   2.748   7.723   3.201
11273TIP3    H133704   2.820   7.785   3.210
11273TIP3    H233705   2.777   7.660   3.135
11274TIP3   OH233706   2.655   7.012   3.336
11274TIP3    H133707   2.656   7.107   3.334
11274TIP3    H233708   2.591   6.987   3.269
11275TIP3   OH233709   3.991   8.497   3.672
11275TIP3    H133710   3.945   8.548   3.606
11275TIP3    H233711   4.083   8.519   3.660
11276TIP3   OH233712   3.056   6.742   4.200
11276TIP3    H133713   3.027   6.711   4.114
11276TIP3    H233714   3.045   6.666   4.257
11277TIP3   OH233715   2.580   7.986   3.608
11277TIP3    H133716   2.539   8.021   3.687
11277TIP3    H233717   2.536   8.030   3.535
11278TIP3   OH233718   2.772   8.525   4.665
11278TIP3    H133719   2.858   8.525   4.708
11278TIP3    H233720   2.745   8.433   4.663
11279TIP3   OH233721   3.259   8.439   4.717
11279TIP3    H133722   3.344   8.394   4.721
11279TIP3    H233723   3.214   8.397   4.643
11280TIP3   OH233724   3.206   8.040   2.818
11280TIP3    H133725   3.159   7.971   2.864
11280TIP3    H233726   3.281   7.994   2.778
11281TIP3   OH233727   3.645   8.081   2.744
11281TIP3    H133728   3.680   8.017   2.806
11281TIP3    H233729   3.703   8.076   2.668
11282TIP3   OH233730   2.881   7.938   4.852
11282TIP3    H133731   2.897   7.844   4.864
11282TIP3    H233732   2.795   7.943   4.810
11283TIP3   OH233733   2.870   7.535   3.045
11283TIP3    H133734   2.921   7.511   3.123
11283TIP3    H233735   2.936   7.550   2.978
11284TIP3   OH233736   3.493   8.004   4.630
11284TIP3    H133737   3.456   8.035   4.547
11284TIP3    H233738   3.531   7.919   4.609
11285TIP3   OH233739   3.447   7.758   2.885
11285TIP3    H133740   3.424   7.768   2.977
11285TIP3    H233741   3.427   7.667   2.865
11286TIP3   OH233742   3.978   8.055   4.250
11286TIP3    H133743   4.053   8.083   4.198
11286TIP3    H233744   3.921   8.132   4.254
11287TIP3   OH233745   2.994   7.682   4.863
11287TIP3    H133746   3.066   7.665   4.803
11287TIP3    H233747   3.036   7.701   4.947
11288TIP3   OH233748   3.041   7.477   3.259
11288TIP3    H133749   3.021   7.446   3.347
11288TIP3    H233750   3.091   7.406   3.219
11289TIP3   OH233751   3.362   7.562   4.519
11289TIP3    H133752   3.275   7.602   4.530
11289TIP3    H233753   3.391   7.592   4.433
11290TIP3   OH233754   3.187   7.296   3.106
11290TIP3    H133755   3.156   7.300   3.015
11290TIP3    H233756   3.282   7.305   3.099
11291TIP3   OH233757   3.856   7.929   4.587
11291TIP3    H133758   3.930   7.900   4.534
11291TIP3    H233759   3.858   7.873   4.665
11292TIP3   OH233760   3.976   7.581   2.789
11292TIP3    H133761   3.965   7.542   2.703
11292TIP3    H233762   3.955   7.674   2.776
11293TIP3   OH233763   3.465   7.330   4.624
11293TIP3    H133764   3.467   7.260   4.559
11293TIP3    H233765   3.430   7.406   4.577
11294TIP3   OH233766   3.471   7.133   4.420
11294TIP3    H133767   3.498   7.170   4.337
11294TIP3    H233768   3.380   7.106   4.406
11295TIP3   OH233769   3.474   7.663   4.293
11295TIP3    H133770   3.561   7.701   4.283
11295TIP3    H233771   3.417   7.719   4.241
11296TIP3   OH233772   4.070   7.614   4.664
11296TIP3    H133773   4.104   7.525   4.669
11296TIP3    H233774   4.146   7.668   4.641
11297TIP3   OH233775   4.095   7.879   4.418
11297TIP3    H133776   4.044   7.940   4.365
11297TIP3    H233777   4.185   7.891   4.389
11298TIP3   OH233778   3.351   7.410   4.869
11298TIP3    H133779   3.279   7.350   4.888
11298TIP3    H233780   3.377   7.389   4.780
11299TIP3   OH233781   3.591   6.904   4.526
11299TIP3    H133782   3.552   6.984   4.491
11299TIP3    H233783   3.525   6.836   4.511
11300TIP3   OH233784   3.721   7.367   4.728
11300TIP3    H133785   3.708   7.356   4.822
11300TIP3    H233786   3.635   7.348   4.690
11301TIP3   OH233787   3.970   7.328   4.602
11301TIP3    H133788   3.890   7.326   4.655
11301TIP3    H233789   4.039   7.301   4.663
11302TIP3   OH233790   4.201   7.288   4.753
11302TIP3    H133791   4.216   7.193   4.758
11302TIP3    H233792   4.198   7.317   4.844
11303TIP3   OH233793   3.179   7.193   4.931
11303TIP3    H133794   3.185   7.105   4.894
11303TIP3    H233795   3.218   7.185   5.018
11304TIP3   OH233796   3.656   6.874   4.790
11304TIP3    H133797   3.726   6.809   4.782
11304TIP3    H233798   3.626   6.889   4.701
11305TIP3   OH233799   3.755   7.087   4.937
11305TIP3    H133800   3.723   7.017   4.880
11305TIP3    H233801   3.683   7.151   4.937
11306TIP3   OH233802   3.016   8.334   3.043
11306TIP3    H133803   3.104   8.312   3.011
11306TIP3    H233804   2.971   8.368   2.966
11307TIP3   OH233805   2.475   7.727   3.221
11307TIP3    H133806   2.570   7.736   3.216
11307TIP3    H233807   2.457   7.642   3.179
11308TIP3   OH233808   2.370   8.291   3.692
11308TIP3    H133809   2.308   8.238   3.641
11308TIP3    H233810   2.416   8.228   3.747
11309TIP3   OH233811   2.521   8.124   3.854
11309TIP3    H133812   2.513   8.058   3.923
11309TIP3    H233813   2.574   8.194   3.893
11310TIP3   OH233814   4.249   8.585   3.655
11310TIP3    H133815   4.291   8.581   3.740
11310TIP3    H233816   4.322   8.593   3.592
11311TIP3   OH233817   4.302   8.554   3.934
11311TIP3    H133818   4.247   8.476   3.926
11311TIP3    H233819   4.365   8.533   4.003
11312TIP3   OH233820   4.316   8.293   4.527
11312TIP3    H133821   4.245   8.308   4.589
11312TIP3    H233822   4.363   8.376   4.524
11313TIP3   OH233823   4.154   7.793   3.116
11313TIP3    H133824   4.211   7.863   3.085
11313TIP3    H233825   4.201   7.755   3.191
11314TIP3   OH233826   4.287   7.651   3.316
11314TIP3    H133827   4.219   7.615   3.374
11314TIP3    H233828   4.351   7.688   3.376
11315TIP3   OH233829   4.332   8.050   3.751
11315TIP3    H133830   4.382   7.977   3.712
11315TIP3    H233831   4.345   8.122   3.689
11316TIP3   OH233832   4.142   8.325   3.945
11316TIP3    H133833   4.078   8.380   3.990
11316TIP3    H233834   4.093   8.288   3.871
11317TIP3   OH233835   4.188   7.567   2.963
11317TIP3    H133836   4.116   7.566   2.901
11317TIP3    H233837   4.174   7.646   3.016
11318TIP3   OH233838   4.034   7.215   2.904
11318TIP3    H133839   3.990   7.252   2.827
11318TIP3    H233840   4.028   7.120   2.892
11319TIP3   OH233841   4.079   7.514   3.451
11319TIP3    H133842   4.083   7.420   3.436
11319TIP3    H233843   4.059   7.523   3.545
11320TIP3   OH233844   2.694   7.570   4.230
11320TIP3    H133845   2.685   7.540   4.140
11320TIP3    H233846   2.789   7.567   4.247
11321TIP3   OH233847   4.350   7.924   4.321
11321TIP3    H133848   4.420   7.860   4.305
11321TIP3    H233849   4.348   7.977   4.241
11322TIP3   OH233850   4.532   7.716   4.309
11322TIP3    H133851   4.459   7.675   4.355
11322TIP3    H233852   4.607   7.660   4.330
11323TIP3   OH233853   4.002   6.943   2.871
11323TIP3    H133854   4.067   6.916   2.935
11323TIP3    H233855   3.919   6.906   2.902
11324TIP3   OH233856   4.070   7.236   3.340
11324TIP3    H133857   4.116   7.153   3.353
11324TIP3    H233858   4.110   7.274   3.262
11325TIP3   OH233859   4.223   7.400   3.864
11325TIP3    H133860   4.303   7.417   3.815
11325TIP3    H233861   4.238   7.440   3.950
11326TIP3   OH233862   4.298   7.548   4.094
11326TIP3    H133863   4.224   7.576   4.148
11326TIP3    H233864   4.328   7.628   4.050
11327TIP3   OH233865   2.915   7.251   4.869
11327TIP3    H133866   3.009   7.248   4.888
11327TIP3    H233867   2.881   7.171   4.908
11328TIP3   OH233868   4.759   7.143   4.629
11328TIP3    H133869   4.826   7.090   4.586
11328TIP3    H233870   4.720   7.195   4.558
11329TIP3   OH233871   4.187   6.987   3.393
11329TIP3    H133872   4.232   6.971   3.475
11329TIP3    H233873   4.125   6.914   3.385
11330TIP3   OH233874   2.895   6.969   4.220
11330TIP3    H133875   2.949   6.889   4.223
11330TIP3    H233876   2.958   7.038   4.199
11331TIP3   OH233877   2.672   7.231   4.279
11331TIP3    H133878   2.724   7.219   4.200
11331TIP3    H233879   2.693   7.319   4.309
11332TIP3   OH233880   4.607   7.260   4.433
11332TIP3    H133881   4.523   7.301   4.452
11332TIP3    H233882   4.585   7.184   4.379
11333TIP3   OH233883   4.229   6.895   3.027
11333TIP3    H133884   4.279   6.836   2.971
11333TIP3    H233885   4.282   6.975   3.032
11334TIP3   OH233886   2.661   6.744   3.785
11334TIP3    H133887   2.575   6.731   3.826
11334TIP3    H233888   2.642   6.796   3.707
11335TIP3   OH233889   3.829   8.469   3.295
11335TIP3    H133890   3.872   8.446   3.213
11335TIP3    H233891   3.881   8.542   3.329
11336TIP3   OH233892   2.887   6.788   4.604
11336TIP3    H133893   2.838   6.789   4.686
11336TIP3    H233894   2.834   6.840   4.543
11337TIP3   OH233895   2.920   8.247   4.688
11337TIP3    H133896   2.827   8.233   4.672
11337TIP3    H233897   2.931   8.233   4.782
11338TIP3   OH233898   3.125   8.290   4.236
11338TIP3    H133899   3.056   8.336   4.187
11338TIP3    H233900   3.206   8.319   4.194
11339TIP3   OH233901   3.546   8.534   4.356
11339TIP3    H133902   3.636   8.554   4.383
11339TIP3    H233903   3.532   8.588   4.278
11340TIP3   OH233904   3.773   8.746   4.181
11340TIP3    H133905   3.745   8.684   4.114
11340TIP3    H233906   3.796   8.691   4.256
11341TIP3   OH233907   4.520   7.017   4.322
11341TIP3    H133908   4.437   7.018   4.274
11341TIP3    H233909   4.550   6.927   4.316
11342TIP3   OH233910   2.755   8.519   4.271
11342TIP3    H133911   2.665   8.551   4.261
11342TIP3    H233912   2.796   8.580   4.331
11343TIP3   OH233913   2.952   8.439   4.093
11343TIP3    H133914   2.880   8.481   4.141
11343TIP3    H233915   2.963   8.494   4.016
11344TIP3   OH233916   3.675   8.526   4.003
11344TIP3    H133917   3.590   8.563   4.026
11344TIP3    H233918   3.684   8.544   3.909
11345TIP3   OH233919   3.935   8.694   3.863
11345TIP3    H133920   3.916   8.775   3.818
11345TIP3    H233921   3.947   8.629   3.793
11346TIP3   OH233922   2.692   8.304   3.991
11346TIP3    H133923   2.721   8.287   4.081
11346TIP3    H233924   2.767   8.281   3.937
11347TIP3   OH233925   2.904   8.204   3.851
11347TIP3    H133926   2.917   8.121   3.898
11347TIP3    H233927   2.988   8.249   3.859
11348TIP3   OH233928   3.172   8.291   3.883
11348TIP3    H133929   3.195   8.198   3.880
11348TIP3    H233930   3.225   8.327   3.954
11349TIP3   OH233931   3.728   6.937   3.965
11349TIP3    H133932   3.688   6.866   4.014
11349TIP3    H233933   3.796   6.895   3.912
11350TIP3   OH233934   4.230   6.856   3.854
11350TIP3    H133935   4.266   6.904   3.779
11350TIP3    H233936   4.136   6.877   3.853
11351TIP3   OH233937   4.344   6.930   3.615
11351TIP3    H133938   4.412   6.869   3.588
11351TIP3    H233939   4.383   7.016   3.603
11352TIP3   OH233940   2.967   6.640   3.959
11352TIP3    H133941   2.878   6.607   3.968
11352TIP3    H233942   3.021   6.562   3.949
11353TIP3   OH233943   2.798   6.552   3.622
11353TIP3    H133944   2.821   6.598   3.541
11353TIP3    H233945   2.758   6.619   3.677
11354TIP3   OH233946   3.451   6.676   3.858
11354TIP3    H133947   3.497   6.723   3.788
11354TIP3    H233948   3.492   6.707   3.939
11355TIP3   OH233949   3.941   6.818   3.834
11355TIP3    H133950   3.956   6.785   3.745
11355TIP3    H233951   3.949   6.741   3.890
11356TIP3   OH233952   4.002   6.776   3.400
11356TIP3    H133953   3.922   6.822   3.424
11356TIP3    H233954   3.991   6.688   3.437
11357TIP3   OH233955   2.458   8.110   3.399
11357TIP3    H133956   2.377   8.072   3.366
11357TIP3    H233957   2.466   8.193   3.353
11358TIP3   OH233958   2.901   6.670   3.378
11358TIP3    H133959   2.948   6.610   3.321
11358TIP3    H233960   2.969   6.728   3.412
11359TIP3   OH233961   3.379   6.872   3.474
11359TIP3    H133962   3.439   6.820   3.527
11359TIP3    H233963   3.394   6.962   3.502
11360TIP3   OH233964   3.269   8.259   2.967
11360TIP3    H133965   3.352   8.288   2.931
11360TIP3    H233966   3.240   8.190   2.907
11361TIP3   OH233967   3.957   8.404   3.060
11361TIP3    H133968   3.950   8.309   3.053
11361TIP3    H233969   3.917   8.437   2.980
11362TIP3   OH233970   3.194   6.923   4.841
11362TIP3    H133971   3.160   6.856   4.901
11362TIP3    H233972   3.287   6.931   4.865
11363TIP3   OH233973   3.442   6.929   4.965
11363TIP3    H133974   3.518   6.907   4.912
11363TIP3    H233975   3.435   6.858   5.029
11364TIP3   OH233976   2.572   8.106   3.024
11364TIP3    H133977   2.577   8.124   3.118
11364TIP3    H233978   2.654   8.060   3.005
11365TIP3   OH233979   4.265   7.017   4.752
11365TIP3    H133980   4.283   6.988   4.841
11365TIP3    H233981   4.350   7.012   4.707
11366TIP3   OH233982   5.463   7.937   2.994
11366TIP3    H133983   5.434   8.025   2.969
11366TIP3    H233984   5.390   7.881   2.968
11367TIP3   OH233985   5.463   7.920   3.410
11367TIP3    H133986   5.511   7.916   3.492
11367TIP3    H233987   5.419   7.835   3.403
11368TIP3   OH233988   4.756   7.791   3.768
11368TIP3    H133989   4.797   7.738   3.837
11368TIP3    H233990   4.828   7.815   3.710
11369TIP3   OH233991   5.711   8.259   3.109
11369TIP3    H133992   5.705   8.189   3.175
11369TIP3    H233993   5.706   8.340   3.159
11370TIP3   OH233994   4.729   8.203   3.464
11370TIP3    H133995   4.718   8.108   3.459
11370TIP3    H233996   4.824   8.216   3.453
11371TIP3   OH233997   4.429   7.421   3.236
11371TIP3    H133998   4.393   7.506   3.259
11371TIP3    H233999   4.357   7.374   3.194
11372TIP3   OH234000   4.513   7.736   3.461
11372TIP3    H134001   4.563   7.658   3.484
11372TIP3    H234002   4.579   7.801   3.437
11373TIP3   OH234003   5.263   8.139   3.424
11373TIP3    H134004   5.306   8.064   3.384
11373TIP3    H234005   5.333   8.188   3.467
11374TIP3   OH234006   6.305   7.469   3.442
11374TIP3    H134007   6.318   7.555   3.482
11374TIP3    H234008   6.334   7.479   3.351
11375TIP3   OH234009   5.668   7.637   3.460
11375TIP3    H134010   5.701   7.552   3.487
11375TIP3    H234011   5.631   7.622   3.373
11376TIP3   OH234012   5.026   7.295   3.418
11376TIP3    H134013   5.007   7.369   3.360
11376TIP3    H234014   4.971   7.224   3.386
11377TIP3   OH234015   5.724   7.401   3.058
11377TIP3    H134016   5.788   7.396   3.129
11377TIP3    H234017   5.774   7.436   2.984
11378TIP3   OH234018   4.651   7.512   3.550
11378TIP3    H134019   4.735   7.495   3.592
11378TIP3    H234020   4.654   7.462   3.468
11379TIP3   OH234021   5.069   7.712   3.367
11379TIP3    H134022   5.164   7.697   3.373
11379TIP3    H234023   5.034   7.630   3.332
11380TIP3   OH234024   6.353   7.690   3.608
11380TIP3    H134025   6.268   7.733   3.598
11380TIP3    H234026   6.390   7.729   3.687
11381TIP3   OH234027   5.008   7.303   3.870
11381TIP3    H134028   4.959   7.339   3.796
11381TIP3    H234029   4.952   7.321   3.946
11382TIP3   OH234030   5.366   8.158   2.858
11382TIP3    H134031   5.325   8.130   2.776
11382TIP3    H234032   5.314   8.234   2.885
11383TIP3   OH234033   5.097   8.074   3.636
11383TIP3    H134034   5.046   8.149   3.666
11383TIP3    H234035   5.148   8.109   3.562
11384TIP3   OH234036   5.881   7.422   3.282
11384TIP3    H134037   5.838   7.401   3.365
11384TIP3    H234038   5.937   7.497   3.302
11385TIP3   OH234039   4.899   7.409   3.639
11385TIP3    H134040   4.954   7.484   3.660
11385TIP3    H234041   4.945   7.366   3.566
11386TIP3   OH234042   4.944   8.280   3.741
11386TIP3    H134043   4.934   8.370   3.709
11386TIP3    H234044   4.866   8.265   3.794
11387TIP3   OH234045   4.323   7.980   2.996
11387TIP3    H134046   4.290   8.001   2.909
11387TIP3    H234047   4.345   8.065   3.034
11388TIP3   OH234048   5.699   8.511   3.248
11388TIP3    H134049   5.615   8.550   3.272
11388TIP3    H234050   5.739   8.575   3.189
11389TIP3   OH234051   6.108   7.351   3.609
11389TIP3    H134052   6.022   7.375   3.574
11389TIP3    H234053   6.171   7.381   3.543
11390TIP3   OH234054   5.351   6.993   3.606
11390TIP3    H134055   5.343   6.901   3.630
11390TIP3    H234056   5.273   7.034   3.644
11391TIP3   OH234057   5.479   8.498   2.850
11391TIP3    H134058   5.538   8.423   2.851
11391TIP3    H234059   5.537   8.574   2.851
11392TIP3   OH234060   5.627   8.268   2.844
11392TIP3    H134061   5.547   8.215   2.850
11392TIP3    H234062   5.667   8.259   2.930
11393TIP3   OH234063   5.990   8.382   3.569
11393TIP3    H134064   5.975   8.307   3.513
11393TIP3    H234065   5.966   8.458   3.516
11394TIP3   OH234066   5.286   7.777   2.848
11394TIP3    H134067   5.204   7.821   2.828
11394TIP3    H234068   5.334   7.777   2.765
11395TIP3   OH234069   5.253   7.588   2.535
11395TIP3    H134070   5.319   7.637   2.586
11395TIP3    H234071   5.303   7.520   2.490
11396TIP3   OH234072   6.176   8.034   3.444
11396TIP3    H134073   6.092   8.081   3.443
11396TIP3    H234074   6.211   8.047   3.356
11397TIP3   OH234075   5.647   7.862   2.807
11397TIP3    H134076   5.593   7.893   2.880
11397TIP3    H234077   5.731   7.839   2.847
11398TIP3   OH234078   5.875   7.894   3.758
11398TIP3    H134079   5.870   7.979   3.802
11398TIP3    H234080   5.794   7.888   3.707
11399TIP3   OH234081   4.870   7.844   3.213
11399TIP3    H134082   4.837   7.783   3.147
11399TIP3    H234083   4.945   7.798   3.252
11400TIP3   OH234084   5.000   8.242   3.365
11400TIP3    H134085   4.980   8.243   3.271
11400TIP3    H234086   5.090   8.212   3.370
11401TIP3   OH234087   4.964   7.841   3.588
11401TIP3    H134088   5.004   7.805   3.509
11401TIP3    H234089   5.012   7.922   3.604
11402TIP3   OH234090   5.140   8.377   3.914
11402TIP3    H134091   5.077   8.435   3.957
11402TIP3    H234092   5.087   8.326   3.852
11403TIP3   OH234093   5.475   7.728   2.639
11403TIP3    H134094   5.536   7.784   2.687
11403TIP3    H234095   5.506   7.730   2.548
11404TIP3   OH234096   4.896   7.918   4.065
11404TIP3    H134097   4.900   8.013   4.077
11404TIP3    H234098   4.803   7.899   4.054
11405TIP3   OH234099   5.227   8.396   2.896
11405TIP3    H134100   5.312   8.441   2.898
11405TIP3    H234101   5.168   8.458   2.852
11406TIP3   OH234102   4.930   8.540   3.994
11406TIP3    H134103   4.914   8.550   3.900
11406TIP3    H234104   4.842   8.531   4.032
11407TIP3   OH234105   5.985   6.953   2.701
11407TIP3    H134106   5.910   6.975   2.755
11407TIP3    H234107   5.997   7.028   2.643
11408TIP3   OH234108   4.748   7.685   3.012
11408TIP3    H134109   4.670   7.733   2.983
11408TIP3    H234110   4.717   7.596   3.025
11409TIP3   OH234111   5.808   8.326   2.262
11409TIP3    H134112   5.801   8.419   2.241
11409TIP3    H234113   5.897   8.302   2.236
11410TIP3   OH234114   4.535   8.090   3.943
11410TIP3    H134115   4.465   8.074   3.880
11410TIP3    H234116   4.568   8.003   3.966
11411TIP3   OH234117   4.435   8.262   3.590
11411TIP3    H134118   4.521   8.242   3.552
11411TIP3    H234119   4.451   8.338   3.646
11412TIP3   OH234120   6.219   8.720   3.656
11412TIP3    H134121   6.223   8.626   3.674
11412TIP3    H234122   6.138   8.749   3.699
11413TIP3   OH234123   5.343   8.512   3.786
11413TIP3    H134124   5.327   8.605   3.805
11413TIP3    H234125   5.269   8.467   3.826
11414TIP3   OH234126   5.103   8.602   2.728
11414TIP3    H134127   5.061   8.590   2.643
11414TIP3    H234128   5.074   8.689   2.757
11415TIP3   OH234129   4.550   8.457   3.101
11415TIP3    H134130   4.590   8.453   3.187
11415TIP3    H234131   4.501   8.375   3.092
11416TIP3   OH234132   5.311   8.548   2.358
11416TIP3    H134133   5.364   8.475   2.324
11416TIP3    H234134   5.344   8.562   2.446
11417TIP3   OH234135   5.357   8.590   2.624
11417TIP3    H134136   5.271   8.594   2.664
11417TIP3    H234137   5.413   8.551   2.691
11418TIP3   OH234138   6.115   7.856   3.921
11418TIP3    H134139   6.034   7.866   3.871
11418TIP3    H234140   6.135   7.763   3.916
11419TIP3   OH234141   4.730   8.283   3.917
11419TIP3    H134142   4.784   8.263   3.995
11419TIP3    H234143   4.660   8.218   3.920
11420TIP3   OH234144   5.112   7.084   3.730
11420TIP3    H134145   5.028   7.051   3.697
11420TIP3    H234146   5.089   7.166   3.774
11421TIP3   OH234147   5.653   7.210   3.930
11421TIP3    H134148   5.722   7.185   3.992
11421TIP3    H234149   5.571   7.194   3.978
11422TIP3   OH234150   5.876   7.626   3.844
11422TIP3    H134151   5.837   7.623   3.932
11422TIP3    H234152   5.862   7.716   3.815
11423TIP3   OH234153   5.554   7.697   2.376
11423TIP3    H134154   5.511   7.704   2.292
11423TIP3    H234155   5.637   7.745   2.365
11424TIP3   OH234156   5.261   7.127   2.697
11424TIP3    H134157   5.225   7.135   2.785
11424TIP3    H234158   5.227   7.045   2.663
11425TIP3   OH234159   5.051   7.621   3.734
11425TIP3    H134160   5.007   7.629   3.819
11425TIP3    H234161   5.029   7.702   3.688
11426TIP3   OH234162   4.930   7.496   3.259
11426TIP3    H134163   4.840   7.473   3.283
11426TIP3    H234164   4.940   7.465   3.169
11427TIP3   OH234165   5.408   7.571   2.984
11427TIP3    H134166   5.362   7.645   2.944
11427TIP3    H234167   5.468   7.540   2.915
11428TIP3   OH234168   5.598   7.837   4.055
11428TIP3    H134169   5.572   7.769   4.118
11428TIP3    H234170   5.690   7.853   4.074
11429TIP3   OH234171   5.573   7.584   3.210
11429TIP3    H134172   5.506   7.607   3.145
11429TIP3    H234173   5.622   7.512   3.169
11430TIP3   OH234174   4.892   7.636   3.959
11430TIP3    H134175   4.908   7.700   4.028
11430TIP3    H234176   4.874   7.554   4.005
11431TIP3   OH234177   4.930   7.106   2.675
11431TIP3    H134178   4.921   7.113   2.770
11431TIP3    H234179   4.852   7.151   2.641
11432TIP3   OH234180   4.478   7.152   3.544
11432TIP3    H134181   4.550   7.189   3.594
11432TIP3    H234182   4.514   7.140   3.456
11433TIP3   OH234183   4.377   7.131   3.040
11433TIP3    H134184   4.423   7.167   2.965
11433TIP3    H234185   4.314   7.198   3.064
11434TIP3   OH234186   5.626   7.839   3.637
11434TIP3    H134187   5.647   7.773   3.570
11434TIP3    H234188   5.577   7.790   3.703
11435TIP3   OH234189   5.296   7.284   3.308
11435TIP3    H134190   5.219   7.284   3.364
11435TIP3    H234191   5.370   7.276   3.369
11436TIP3   OH234192   4.690   7.372   3.317
11436TIP3    H134193   4.602   7.376   3.279
11436TIP3    H234194   4.719   7.283   3.300
11437TIP3   OH234195   4.943   7.377   3.012
11437TIP3    H134196   5.038   7.386   3.003
11437TIP3    H234197   4.909   7.394   2.924
11438TIP3   OH234198   5.738   7.375   3.519
11438TIP3    H134199   5.718   7.394   3.611
11438TIP3    H234200   5.670   7.314   3.492
11439TIP3   OH234201   4.833   7.398   2.762
11439TIP3    H134202   4.771   7.348   2.709
11439TIP3    H234203   4.887   7.445   2.698
11440TIP3   OH234204   5.942   9.077   3.738
11440TIP3    H134205   5.938   9.085   3.643
11440TIP3    H234206   6.021   9.126   3.763
11441TIP3   OH234207   4.878   8.190   4.148
11441TIP3    H134208   4.961   8.209   4.192
11441TIP3    H234209   4.811   8.198   4.216
11442TIP3   OH234210   5.342   7.654   3.415
11442TIP3    H134211   5.409   7.609   3.365
11442TIP3    H234212   5.343   7.611   3.501
11443TIP3   OH234213   4.831   7.124   3.301
11443TIP3    H134214   4.804   7.048   3.352
11443TIP3    H234215   4.852   7.088   3.214
11444TIP3   OH234216   5.316   7.556   3.681
11444TIP3    H134217   5.230   7.591   3.701
11444TIP3    H234218   5.377   7.610   3.732
11445TIP3   OH234219   5.048   7.910   2.793
11445TIP3    H134220   4.973   7.857   2.767
11445TIP3    H234221   5.021   7.953   2.874
11446TIP3   OH234222   5.941   8.172   3.397
11446TIP3    H134223   5.978   8.220   3.322
11446TIP3    H234224   5.862   8.132   3.363
11447TIP3   OH234225   5.515   7.230   2.705
11447TIP3    H134226   5.422   7.210   2.699
11447TIP3    H234227   5.518   7.325   2.714
11448TIP3   OH234228   5.466   8.253   3.837
11448TIP3    H134229   5.522   8.253   3.915
11448TIP3    H234230   5.434   8.343   3.831
11449TIP3   OH234231   5.574   7.497   2.769
11449TIP3    H134232   5.669   7.501   2.780
11449TIP3    H234233   5.552   7.574   2.717
11450TIP3   OH234234   4.733   7.919   3.440
11450TIP3    H134235   4.771   7.904   3.353
11450TIP3    H234236   4.801   7.894   3.501
11451TIP3   OH234237   5.206   8.072   2.639
11451TIP3    H134238   5.157   8.154   2.635
11451TIP3    H234239   5.151   8.014   2.693
11452TIP3   OH234240   4.620   7.856   4.079
11452TIP3    H134241   4.621   7.830   4.171
11452TIP3    H234242   4.545   7.811   4.041
11453TIP3   OH234243   5.368   7.995   4.100
11453TIP3    H134244   5.299   7.937   4.068
11453TIP3    H234245   5.449   7.955   4.067
11454TIP3   OH234246   5.607   8.541   3.702
11454TIP3    H134247   5.513   8.524   3.704
11454TIP3    H234248   5.626   8.582   3.787
11455TIP3   OH234249   5.985   7.585   2.587
11455TIP3    H134250   5.928   7.540   2.525
11455TIP3    H234251   5.994   7.674   2.552
11456TIP3   OH234252   6.235   8.439   3.672
11456TIP3    H134253   6.141   8.431   3.654
11456TIP3    H234254   6.277   8.418   3.588
11457TIP3   OH234255   5.732   8.402   2.532
11457TIP3    H134256   5.708   8.336   2.597
11457TIP3    H234257   5.748   8.352   2.452
11458TIP3   OH234258   5.713   8.038   3.295
11458TIP3    H134259   5.624   8.017   3.322
11458TIP3    H234260   5.745   7.958   3.254
11459TIP3   OH234261   4.874   8.274   3.114
11459TIP3    H134262   4.883   8.350   3.056
11459TIP3    H234263   4.781   8.273   3.138
11460TIP3   OH234264   4.427   7.556   2.824
11460TIP3    H134265   4.470   7.639   2.846
11460TIP3    H234266   4.346   7.557   2.875
11461TIP3   OH234267   4.945   8.026   3.013
11461TIP3    H134268   4.934   8.116   3.045
11461TIP3    H234269   4.921   7.972   3.088
11462TIP3   OH234270   5.145   8.600   3.557
11462TIP3    H134271   5.166   8.674   3.501
11462TIP3    H234272   5.230   8.562   3.580
11463TIP3   OH234273   4.783   8.495   2.958
11463TIP3    H134274   4.697   8.495   2.999
11463TIP3    H234275   4.813   8.586   2.965
11464TIP3   OH234276   5.486   8.218   3.563
11464TIP3    H134277   5.484   8.224   3.659
11464TIP3    H234278   5.578   8.233   3.541
11465TIP3   OH234279   5.493   8.129   2.408
11465TIP3    H134280   5.548   8.099   2.481
11465TIP3    H234281   5.409   8.087   2.422
11466TIP3   OH234282   5.732   8.770   3.581
11466TIP3    H134283   5.669   8.698   3.582
11466TIP3    H234284   5.712   8.818   3.501
11467TIP3   OH234285   5.802   8.598   2.213
11467TIP3    H134286   5.810   8.653   2.135
11467TIP3    H234287   5.734   8.640   2.266
11468TIP3   OH234288   4.836   7.382   4.077
11468TIP3    H134289   4.741   7.390   4.081
11468TIP3    H234290   4.859   7.328   4.152
11469TIP3   OH234291   5.675   8.032   2.588
11469TIP3    H134292   5.660   7.986   2.671
11469TIP3    H234293   5.769   8.047   2.585
11470TIP3   OH234294   4.561   8.489   3.732
11470TIP3    H134295   4.623   8.439   3.785
11470TIP3    H234296   4.570   8.579   3.763
11471TIP3   OH234297   4.844   8.099   2.424
11471TIP3    H134298   4.855   8.007   2.398
11471TIP3    H234299   4.831   8.095   2.519
11472TIP3   OH234300   4.787   8.115   2.698
11472TIP3    H134301   4.853   8.091   2.763
11472TIP3    H234302   4.785   8.211   2.700
11473TIP3   OH234303   4.521   7.806   2.906
11473TIP3    H134304   4.456   7.854   2.956
11473TIP3    H234305   4.542   7.864   2.832
11474TIP3   OH234306   5.681   7.440   3.781
11474TIP3    H134307   5.760   7.485   3.810
11474TIP3    H234308   5.674   7.363   3.837
11475TIP3   OH234309   5.577   7.181   2.972
11475TIP3    H134310   5.555   7.200   2.880
11475TIP3    H234311   5.620   7.261   3.003
11476TIP3   OH234312   5.054   8.296   2.630
11476TIP3    H134313   4.970   8.323   2.667
11476TIP3    H234314   5.086   8.373   2.584
11477TIP3   OH234315   5.222   7.381   3.057
11477TIP3    H134316   5.284   7.449   3.030
11477TIP3    H234317   5.248   7.360   3.147
11478TIP3   OH234318   5.519   7.673   3.831
11478TIP3    H134319   5.547   7.718   3.911
11478TIP3    H234320   5.572   7.593   3.829
11479TIP3   OH234321   5.388   7.075   3.143
11479TIP3    H134322   5.364   7.152   3.195
11479TIP3    H234323   5.459   7.105   3.086
11480TIP3   OH234324   4.805   8.388   2.707
11480TIP3    H134325   4.785   8.459   2.646
11480TIP3    H234326   4.798   8.427   2.794
11481TIP3   OH234327   4.899   7.103   2.955
11481TIP3    H134328   4.889   7.194   2.982
11481TIP3    H234329   4.994   7.088   2.961
11482TIP3   OH234330   6.145   7.587   3.831
11482TIP3    H134331   6.049   7.586   3.839
11482TIP3    H234332   6.163   7.550   3.745
11483TIP3   OH234333   5.803   7.775   3.208
11483TIP3    H134334   5.725   7.722   3.222
11483TIP3    H234335   5.870   7.736   3.265
11484TIP3   OH234336   4.545   7.982   2.688
11484TIP3    H134337   4.616   8.044   2.698
11484TIP3    H234338   4.575   7.920   2.622
11485TIP3   OH234339   4.451   7.279   2.822
11485TIP3    H134340   4.462   7.373   2.831
11485TIP3    H234341   4.404   7.268   2.740
11486TIP3   OH234342   5.812   8.722   3.120
11486TIP3    H134343   5.759   8.797   3.092
11486TIP3    H234344   5.901   8.757   3.126
11487TIP3   OH234345   4.849   6.999   3.688
11487TIP3    H134346   4.820   6.968   3.602
11487TIP3    H234347   4.840   6.923   3.745
11488TIP3   OH234348   4.371   8.242   3.090
11488TIP3    H134349   4.332   8.279   3.169
11488TIP3    H234350   4.327   8.287   3.018
11489TIP3   OH234351   4.585   8.797   4.170
11489TIP3    H134352   4.667   8.818   4.216
11489TIP3    H234353   4.595   8.705   4.145
11490TIP3   OH234354   5.046   8.692   4.190
11490TIP3    H134355   5.136   8.660   4.197
11490TIP3    H234356   5.009   8.643   4.116
11491TIP3   OH234357   4.997   8.300   2.313
11491TIP3    H134358   4.952   8.230   2.360
11491TIP3    H234359   5.073   8.258   2.274
11492TIP3   OH234360   5.657   8.640   3.956
11492TIP3    H134361   5.677   8.569   4.017
11492TIP3    H234362   5.731   8.700   3.963
11493TIP3   OH234363   5.441   8.339   2.242
11493TIP3    H134364   5.475   8.273   2.303
11493TIP3    H234365   5.501   8.335   2.168
11494TIP3   OH234366   4.675   8.194   4.341
11494TIP3    H134367   4.697   8.101   4.354
11494TIP3    H234368   4.590   8.192   4.298
11495TIP3   OH234369   4.665   7.792   2.532
11495TIP3    H134370   4.715   7.769   2.610
11495TIP3    H234371   4.730   7.806   2.464
11496TIP3   OH234372   5.296   8.272   4.116
11496TIP3    H134373   5.255   8.296   4.033
11496TIP3    H234374   5.336   8.187   4.099
11497TIP3   OH234375   5.233   8.015   2.372
11497TIP3    H134376   5.213   8.024   2.465
11497TIP3    H234377   5.214   7.922   2.354
11498TIP3   OH234378   5.776   8.321   3.733
11498TIP3    H134379   5.851   8.346   3.680
11498TIP3    H234380   5.713   8.392   3.719
11499TIP3   OH234381   4.791   7.941   4.347
11499TIP3    H134382   4.863   7.922   4.287
11499TIP3    H234383   4.833   7.956   4.431
11500TIP3   OH234384   4.837   7.736   2.744
11500TIP3    H134385   4.819   7.706   2.833
11500TIP3    H234386   4.888   7.664   2.705
11501TIP3   OH234387   5.158   7.819   4.005
11501TIP3    H134388   5.072   7.861   4.015
11501TIP3    H234389   5.190   7.851   3.920
11502TIP3   OH234390   4.982   7.553   2.592
11502TIP3    H134391   4.953   7.557   2.501
11502TIP3    H234392   5.078   7.563   2.586
11503TIP3   OH234393   5.656   8.194   4.080
11503TIP3    H134394   5.721   8.155   4.022
11503TIP3    H234395   5.653   8.136   4.156
11504TIP3   OH234396   5.771   7.838   2.275
11504TIP3    H134397   5.759   7.798   2.189
11504TIP3    H234398   5.748   7.930   2.262
11505TIP3   OH234399   5.259   7.587   4.112
11505TIP3    H134400   5.263   7.517   4.047
11505TIP3    H234401   5.227   7.663   4.064
11506TIP3   OH234402   5.267   7.388   3.909
11506TIP3    H134403   5.296   7.426   3.826
11506TIP3    H234404   5.176   7.362   3.893
11507TIP3   OH234405   5.274   7.927   3.785
11507TIP3    H134406   5.361   7.964   3.771
11507TIP3    H234407   5.215   7.981   3.732
11508TIP3   OH234408   5.866   7.875   4.152
11508TIP3    H134409   5.907   7.789   4.155
11508TIP3    H234410   5.938   7.935   4.136
11509TIP3   OH234411   5.893   8.141   3.897
11509TIP3    H134412   5.841   8.203   3.846
11509TIP3    H234413   5.983   8.154   3.866
11510TIP3   OH234414   5.145   7.667   4.356
11510TIP3    H134415   5.075   7.604   4.374
11510TIP3    H234416   5.174   7.647   4.267
11511TIP3   OH234417   5.388   7.159   4.013
11511TIP3    H134418   5.349   7.239   3.978
11511TIP3    H234419   5.322   7.091   3.998
11512TIP3   OH234420   5.517   7.626   4.213
11512TIP3    H134421   5.506   7.613   4.308
11512TIP3    H234422   5.431   7.606   4.177
11513TIP3   OH234423   5.765   7.586   4.087
11513TIP3    H134424   5.686   7.584   4.140
11513TIP3    H234425   5.835   7.560   4.148
11514TIP3   OH234426   5.997   7.546   4.239
11514TIP3    H134427   6.011   7.452   4.244
11514TIP3    H234428   5.993   7.575   4.330
11515TIP3   OH234429   4.973   7.451   4.419
11515TIP3    H134430   4.981   7.363   4.381
11515TIP3    H234431   5.013   7.443   4.505
11516TIP3   OH234432   5.453   7.132   4.277
11516TIP3    H134433   5.522   7.066   4.270
11516TIP3    H234434   5.424   7.146   4.187
11517TIP3   OH234435   5.551   7.345   4.423
11517TIP3    H134436   5.520   7.274   4.367
11517TIP3    H234437   5.479   7.409   4.423
11518TIP3   OH234438   4.799   8.594   2.523
11518TIP3    H134439   4.889   8.574   2.498
11518TIP3    H234440   4.762   8.639   2.448
11519TIP3   OH234441   4.271   7.983   2.704
11519TIP3    H134442   4.366   7.993   2.700
11519TIP3    H234443   4.254   7.897   2.664
11520TIP3   OH234444   4.171   8.542   3.166
11520TIP3    H134445   4.107   8.490   3.117
11520TIP3    H234446   4.213   8.479   3.224
11521TIP3   OH234447   4.316   8.380   3.338
11521TIP3    H134448   4.312   8.313   3.407
11521TIP3    H234449   4.363   8.452   3.379
11522TIP3   OH234450   6.071   8.806   3.145
11522TIP3    H134451   6.088   8.827   3.237
11522TIP3    H234452   6.117   8.874   3.096
11523TIP3   OH234453   6.088   8.813   3.424
11523TIP3    H134454   6.028   8.739   3.415
11523TIP3    H234455   6.150   8.786   3.492
11524TIP3   OH234456   6.135   8.535   4.001
11524TIP3    H134457   6.064   8.545   4.064
11524TIP3    H234458   6.180   8.619   4.001
11525TIP3   OH234459   5.954   8.050   2.597
11525TIP3    H134460   6.011   8.122   2.570
11525TIP3    H234461   5.998   8.012   2.674
11526TIP3   OH234462   6.077   7.905   2.801
11526TIP3    H134463   6.010   7.868   2.858
11526TIP3    H234464   6.142   7.941   2.862
11527TIP3   OH234465   6.129   8.311   3.239
11527TIP3    H134466   6.178   8.243   3.193
11527TIP3    H234467   6.129   8.386   3.180
11528TIP3   OH234468   5.903   8.602   3.428
11528TIP3    H134469   5.844   8.655   3.481
11528TIP3    H234470   5.848   8.569   3.356
11529TIP3   OH234471   5.986   7.823   2.447
11529TIP3    H134472   5.913   7.821   2.386
11529TIP3    H234473   5.973   7.902   2.499
11530TIP3   OH234474   5.830   7.473   2.392
11530TIP3    H134475   5.782   7.508   2.317
11530TIP3    H234476   5.826   7.378   2.381
11531TIP3   OH234477   5.875   7.768   2.940
11531TIP3    H134478   5.879   7.674   2.925
11531TIP3    H234479   5.855   7.778   3.033
11532TIP3   OH234480   4.492   7.823   3.719
11532TIP3    H134481   4.483   7.794   3.628
11532TIP3    H234482   4.586   7.821   3.735
11533TIP3   OH234483   6.152   8.185   3.803
11533TIP3    H134484   6.218   8.118   3.784
11533TIP3    H234485   6.173   8.257   3.744
11534TIP3   OH234486   6.329   7.972   3.793
11534TIP3    H134487   6.255   7.933   3.839
11534TIP3    H234488   6.403   7.916   3.815
11535TIP3   OH234489   5.799   7.201   2.361
11535TIP3    H134490   5.864   7.174   2.425
11535TIP3    H234491   5.717   7.163   2.392
11536TIP3   OH234492   5.865   7.491   2.828
11536TIP3    H134493   5.912   7.409   2.840
11536TIP3    H234494   5.905   7.531   2.750
11537TIP3   OH234495   6.019   7.655   3.353
11537TIP3    H134496   6.099   7.673   3.303
11537TIP3    H234497   6.034   7.697   3.437
11538TIP3   OH234498   6.095   7.807   3.580
11538TIP3    H134499   6.021   7.836   3.633
11538TIP3    H234500   6.124   7.886   3.534
11539TIP3   OH234501   4.709   7.507   4.355
11539TIP3    H134502   4.803   7.504   4.373
11539TIP3    H234503   4.675   7.426   4.394
11540TIP3   OH234504   6.555   7.400   4.117
11540TIP3    H134505   6.621   7.346   4.074
11540TIP3    H234506   6.516   7.452   4.047
11541TIP3   OH234507   5.984   7.243   2.879
11541TIP3    H134508   6.029   7.227   2.962
11541TIP3    H234509   5.921   7.171   2.873
11542TIP3   OH234510   4.689   7.226   3.712
11542TIP3    H134511   4.742   7.147   3.714
11542TIP3    H234512   4.751   7.296   3.690
11543TIP3   OH234513   4.465   7.492   3.764
11543TIP3    H134514   4.518   7.477   3.685
11543TIP3    H234515   4.488   7.580   3.791
11544TIP3   OH234516   6.404   7.518   3.923
11544TIP3    H134517   6.321   7.560   3.947
11544TIP3    H234518   6.378   7.444   3.868
11545TIP3   OH234519   6.025   7.152   2.516
11545TIP3    H134520   6.075   7.093   2.460
11545TIP3    H234521   6.078   7.231   2.520
11546TIP3   OH234522   4.455   7.003   3.269
11546TIP3    H134523   4.370   6.989   3.310
11546TIP3    H234524   4.436   7.055   3.191
11547TIP3   OH234525   5.620   8.725   2.804
11547TIP3    H134526   5.668   8.713   2.722
11547TIP3    H234527   5.675   8.783   2.856
11548TIP3   OH234528   4.686   7.050   4.093
11548TIP3    H134529   4.634   7.046   4.173
11548TIP3    H234530   4.631   7.099   4.032
11549TIP3   OH234531   4.696   8.532   4.152
11549TIP3    H134532   4.607   8.497   4.149
11549TIP3    H234533   4.730   8.504   4.237
11550TIP3   OH234534   4.925   8.556   3.716
11550TIP3    H134535   4.868   8.624   3.680
11550TIP3    H234536   5.008   8.566   3.670
11551TIP3   OH234537   5.325   8.783   3.853
11551TIP3    H134538   5.366   8.776   3.940
11551TIP3    H234539   5.388   8.832   3.801
11552TIP3   OH234540   5.519   8.930   3.722
11552TIP3    H134541   5.583   8.883   3.668
11552TIP3    H234542   5.572   8.989   3.776
11553TIP3   OH234543   6.314   7.277   3.809
11553TIP3    H134544   6.233   7.281   3.759
11553TIP3    H234545   6.343   7.186   3.802
11554TIP3   OH234546   4.557   8.779   3.760
11554TIP3    H134547   4.471   8.815   3.740
11554TIP3    H234548   4.593   8.839   3.826
11555TIP3   OH234549   4.797   8.773   3.612
11555TIP3    H134550   4.711   8.783   3.652
11555TIP3    H234551   4.785   8.802   3.521
11556TIP3   OH234552   5.200   8.809   3.383
11556TIP3    H134553   5.281   8.778   3.343
11556TIP3    H234554   5.226   8.889   3.430
11557TIP3   OH234555   5.724   8.942   3.359
11557TIP3    H134556   5.708   9.023   3.310
11557TIP3    H234557   5.661   8.880   3.322
11558TIP3   OH234558   4.481   8.568   3.479
11558TIP3    H134559   4.512   8.550   3.568
11558TIP3    H234560   4.550   8.534   3.422
11559TIP3   OH234561   4.678   8.443   3.341
11559TIP3    H134562   4.689   8.359   3.385
11559TIP3    H234563   4.763   8.485   3.348
11560TIP3   OH234564   4.935   8.512   3.391
11560TIP3    H134565   4.969   8.423   3.380
11560TIP3    H234566   5.004   8.558   3.439
11561TIP3   OH234567   5.523   7.194   3.451
11561TIP3    H134568   5.484   7.122   3.500
11561TIP3    H234569   5.592   7.152   3.398
11562TIP3   OH234570   6.026   7.111   3.339
11562TIP3    H134571   6.064   7.160   3.266
11562TIP3    H234572   5.934   7.137   3.340
11563TIP3   OH234573   6.141   7.186   3.101
11563TIP3    H134574   6.209   7.125   3.074
11563TIP3    H234575   6.180   7.273   3.089
11564TIP3   OH234576   4.762   6.896   3.447
11564TIP3    H134577   4.672   6.863   3.456
11564TIP3    H234578   4.816   6.818   3.437
11565TIP3   OH234579   4.592   6.811   3.107
11565TIP3    H134580   4.614   6.858   3.026
11565TIP3    H234581   4.552   6.877   3.163
11566TIP3   OH234582   5.246   6.933   3.345
11566TIP3    H134583   5.293   6.980   3.275
11566TIP3    H234584   5.288   6.963   3.425
11567TIP3   OH234585   5.736   7.074   3.321
11567TIP3    H134586   5.754   7.041   3.233
11567TIP3    H234587   5.744   6.998   3.377
11568TIP3   OH234588   5.798   7.032   2.886
11568TIP3    H134589   5.718   7.080   2.911
11568TIP3    H234590   5.786   6.945   2.924
11569TIP3   OH234591   4.253   8.369   2.879
11569TIP3    H134592   4.171   8.334   2.845
11569TIP3    H234593   4.262   8.455   2.838
11570TIP3   OH234594   4.691   6.936   2.863
11570TIP3    H134595   4.737   6.874   2.805
11570TIP3    H234596   4.760   6.992   2.898
11571TIP3   OH234597   5.175   7.129   2.961
11571TIP3    H134598   5.235   7.077   3.014
11571TIP3    H234599   5.190   7.219   2.989
11572TIP3   OH234600   5.056   8.525   2.457
11572TIP3    H134601   5.140   8.551   2.420
11572TIP3    H234602   5.027   8.451   2.403
11573TIP3   OH234603   5.759   8.672   2.564
11573TIP3    H134604   5.753   8.577   2.558
11573TIP3    H234605   5.716   8.704   2.484
11574TIP3   OH234606   4.992   7.181   4.328
11574TIP3    H134607   4.959   7.115   4.388
11574TIP3    H234608   5.084   7.190   4.350
11575TIP3   OH234609   5.239   7.187   4.452
11575TIP3    H134610   5.316   7.165   4.399
11575TIP3    H234611   5.235   7.118   4.518
11576TIP3   OH234612   4.368   8.364   2.514
11576TIP3    H134613   4.374   8.382   2.608
11576TIP3    H234614   4.449   8.317   2.494
11577TIP3   OH234615   6.061   7.275   4.239
11577TIP3    H134616   6.079   7.246   4.328
11577TIP3    H234617   6.146   7.270   4.195
11578TIP3   OH234618   5.966   8.802   3.741
11578TIP3    H134619   5.888   8.778   3.690
11578TIP3    H234620   5.961   8.897   3.748
11579TIP3   OH234621   7.229   8.184   2.471
11579TIP3    H134622   7.174   8.257   2.503
11579TIP3    H234623   7.167   8.122   2.434
11580TIP3   OH234624   7.257   8.185   2.904
11580TIP3    H134625   7.309   8.170   2.983
11580TIP3    H234626   7.211   8.102   2.889
11581TIP3   OH234627   6.552   8.047   3.250
11581TIP3    H134628   6.593   7.995   3.320
11581TIP3    H234629   6.625   8.071   3.193
11582TIP3   OH234630   7.517   8.495   2.575
11582TIP3    H134631   7.509   8.429   2.645
11582TIP3    H234632   7.540   8.575   2.621
11583TIP3   OH234633   6.550   8.481   2.939
11583TIP3    H134634   6.531   8.387   2.943
11583TIP3    H234635   6.646   8.485   2.935
11584TIP3   OH234636   6.224   7.673   2.728
11584TIP3    H134637   6.189   7.760   2.749
11584TIP3    H234638   6.152   7.628   2.685
11585TIP3   OH234639   6.305   7.986   2.944
11585TIP3    H134640   6.357   7.909   2.970
11585TIP3    H234641   6.369   8.045   2.904
11586TIP3   OH234642   7.186   8.930   2.589
11586TIP3    H134643   7.210   8.852   2.539
11586TIP3    H234644   7.194   8.902   2.681
11587TIP3   OH234645   7.067   8.405   2.913
11587TIP3    H134646   7.113   8.325   2.888
11587TIP3    H234647   7.135   8.462   2.949
11588TIP3   OH234648   8.098   7.726   2.927
11588TIP3    H134649   8.110   7.814   2.965
11588TIP3    H234650   8.122   7.736   2.835
11589TIP3   OH234651   7.468   7.892   2.947
11589TIP3    H134652   7.502   7.807   2.975
11589TIP3    H234653   7.426   7.875   2.863
11590TIP3   OH234654   6.822   7.553   2.904
11590TIP3    H134655   6.803   7.626   2.846
11590TIP3    H234656   6.768   7.481   2.871
11591TIP3   OH234657   7.517   7.657   2.551
11591TIP3    H134658   7.584   7.649   2.619
11591TIP3    H234659   7.565   7.688   2.474
11592TIP3   OH234660   6.446   7.765   3.038
11592TIP3    H134661   6.531   7.749   3.080
11592TIP3    H234662   6.451   7.716   2.956
11593TIP3   OH234663   6.864   7.974   2.847
11593TIP3    H134664   6.958   7.957   2.853
11593TIP3    H234665   6.827   7.894   2.811
11594TIP3   OH234666   8.145   7.950   3.095
11594TIP3    H134667   8.056   7.982   3.088
11594TIP3    H234668   8.176   7.983   3.179
11595TIP3   OH234669   6.804   7.560   3.358
11595TIP3    H134670   6.755   7.595   3.283
11595TIP3    H234671   6.747   7.578   3.433
11596TIP3   OH234672   7.038   8.380   2.364
11596TIP3    H134673   7.116   8.362   2.312
11596TIP3    H234674   7.038   8.475   2.376
11597TIP3   OH234675   6.894   8.333   3.119
11597TIP3    H134676   6.843   8.406   3.155
11597TIP3    H234677   6.945   8.372   3.048
11598TIP3   OH234678   7.682   7.677   2.768
11598TIP3    H134679   7.641   7.653   2.851
11598TIP3    H234680   7.736   7.753   2.790
11599TIP3   OH234681   6.696   7.664   3.126
11599TIP3    H134682   6.751   7.740   3.147
11599TIP3    H234683   6.740   7.622   3.053
11600TIP3   OH234684   6.745   8.539   3.228
11600TIP3    H134685   6.734   8.629   3.198
11600TIP3    H234686   6.667   8.521   3.279
11601TIP3   OH234687   6.121   8.245   2.482
11601TIP3    H134688   6.082   8.268   2.398
11601TIP3    H234689   6.145   8.329   2.521
11602TIP3   OH234690   7.558   8.744   2.710
11602TIP3    H134691   7.472   8.734   2.751
11602TIP3    H234692   7.554   8.829   2.666
11603TIP3   OH234693   7.895   7.624   3.099
11603TIP3    H134694   7.810   7.636   3.057
11603TIP3    H234695   7.958   7.648   3.031
11604TIP3   OH234696   7.148   7.250   3.094
11604TIP3    H134697   7.139   7.157   3.117
11604TIP3    H234698   7.070   7.292   3.131
11605TIP3   OH234699   7.265   8.752   2.384
11605TIP3    H134700   7.315   8.671   2.371
11605TIP3    H234701   7.326   8.821   2.361
11606TIP3   OH234702   7.410   8.528   2.324
11606TIP3    H134703   7.432   8.452   2.270
11606TIP3    H234704   7.450   8.511   2.409
11607TIP3   OH234705   7.794   8.632   3.069
11607TIP3    H134706   7.774   8.561   3.008
11607TIP3    H234707   7.762   8.711   3.026
11608TIP3   OH234708   7.057   8.017   2.332
11608TIP3    H134709   6.973   8.037   2.292
11608TIP3    H234710   7.116   8.003   2.258
11609TIP3   OH234711   7.962   8.292   2.932
11609TIP3    H134712   7.879   8.338   2.929
11609TIP3    H234713   7.998   8.301   2.843
11610TIP3   OH234714   7.453   8.142   2.321
11610TIP3    H134715   7.389   8.159   2.390
11610TIP3    H234716   7.529   8.104   2.366
11611TIP3   OH234717   7.670   8.152   3.242
11611TIP3    H134718   7.662   8.234   3.292
11611TIP3    H234719   7.589   8.147   3.191
11612TIP3   OH234720   6.690   8.134   2.691
11612TIP3    H134721   6.633   8.074   2.641
11612TIP3    H234722   6.756   8.078   2.730
11613TIP3   OH234723   6.815   8.525   2.846
11613TIP3    H134724   6.788   8.509   2.756
11613TIP3    H234725   6.901   8.485   2.854
11614TIP3   OH234726   6.765   8.096   3.074
11614TIP3    H134727   6.803   8.061   2.994
11614TIP3    H234728   6.812   8.178   3.089
11615TIP3   OH234729   7.327   8.721   2.851
11615TIP3    H134730   7.312   8.806   2.892
11615TIP3    H234731   7.306   8.657   2.920
11616TIP3   OH234732   6.944   8.637   3.399
11616TIP3    H134733   6.885   8.693   3.449
11616TIP3    H234734   6.886   8.587   3.341
11617TIP3   OH234735   7.278   7.992   2.173
11617TIP3    H134736   7.340   8.049   2.218
11617TIP3    H234737   7.299   8.002   2.080
11618TIP3   OH234738   6.692   8.175   3.552
11618TIP3    H134739   6.697   8.270   3.565
11618TIP3    H234740   6.598   8.158   3.542
11619TIP3   OH234741   7.008   8.656   2.352
11619TIP3    H134742   7.095   8.688   2.376
11619TIP3    H234743   6.958   8.735   2.333
11620TIP3   OH234744   6.723   8.790   3.480
11620TIP3    H134745   6.706   8.801   3.386
11620TIP3    H234746   6.636   8.780   3.519
11621TIP3   OH234747   7.781   7.199   2.205
11621TIP3    H134748   7.700   7.221   2.251
11621TIP3    H234749   7.805   7.279   2.159
11622TIP3   OH234750   6.519   7.971   2.550
11622TIP3    H134751   6.452   8.011   2.495
11622TIP3    H234752   6.529   7.882   2.515
11623TIP3   OH234753   7.532   8.545   1.841
11623TIP3    H134754   7.536   8.633   1.805
11623TIP3    H234755   7.623   8.516   1.843
11624TIP3   OH234756   6.330   8.350   3.433
11624TIP3    H134757   6.260   8.334   3.369
11624TIP3    H234758   6.363   8.263   3.454
11625TIP3   OH234759   6.170   8.549   3.093
11625TIP3    H134760   6.259   8.577   3.112
11625TIP3    H234761   6.116   8.626   3.115
11626TIP3   OH234762   8.023   8.992   3.118
11626TIP3    H134763   8.026   8.897   3.127
11626TIP3    H234764   7.941   9.018   3.159
11627TIP3   OH234765   7.134   8.784   3.266
11627TIP3    H134766   7.125   8.874   3.299
11627TIP3    H234767   7.067   8.735   3.313
11628TIP3   OH234768   6.898   8.879   2.234
11628TIP3    H134769   6.857   8.855   2.151
11628TIP3    H234770   6.856   8.961   2.259
11629TIP3   OH234771   6.338   8.736   2.592
11629TIP3    H134772   6.385   8.728   2.675
11629TIP3    H234773   6.290   8.654   2.584
11630TIP3   OH234774   7.108   8.830   1.866
11630TIP3    H134775   7.141   8.741   1.854
11630TIP3    H234776   7.130   8.852   1.957
11631TIP3   OH234777   7.155   8.864   2.135
11631TIP3    H134778   7.069   8.864   2.177
11631TIP3    H234779   7.212   8.822   2.199
11632TIP3   OH234780   7.914   8.107   3.396
11632TIP3    H134781   7.831   8.117   3.349
11632TIP3    H234782   7.932   8.013   3.392
11633TIP3   OH234783   6.527   8.539   3.398
11633TIP3    H134784   6.578   8.525   3.478
11633TIP3    H234785   6.455   8.477   3.405
11634TIP3   OH234786   6.908   7.341   3.217
11634TIP3    H134787   6.825   7.308   3.183
11634TIP3    H234788   6.885   7.423   3.261
11635TIP3   OH234789   7.447   7.467   3.416
11635TIP3    H134790   7.515   7.442   3.478
11635TIP3    H234791   7.365   7.451   3.463
11636TIP3   OH234792   7.674   7.888   3.339
11636TIP3    H134793   7.632   7.884   3.425
11636TIP3    H234794   7.653   7.976   3.308
11637TIP3   OH234795   7.373   8.030   1.927
11637TIP3    H134796   7.331   7.985   1.853
11637TIP3    H234797   7.452   8.069   1.889
11638TIP3   OH234798   6.994   7.401   2.158
11638TIP3    H134799   6.994   7.410   2.253
11638TIP3    H234800   6.998   7.307   2.142
11639TIP3   OH234801   6.847   7.876   3.222
11639TIP3    H134802   6.803   7.884   3.307
11639TIP3    H234803   6.825   7.957   3.176
11640TIP3   OH234804   6.729   7.754   2.743
11640TIP3    H134805   6.638   7.734   2.766
11640TIP3    H234806   6.738   7.724   2.653
11641TIP3   OH234807   7.198   7.829   2.480
11641TIP3    H134808   7.144   7.894   2.434
11641TIP3    H234809   7.256   7.795   2.412
11642TIP3   OH234810   7.394   8.088   3.540
11642TIP3    H134811   7.368   8.021   3.604
11642TIP3    H234812   7.484   8.109   3.562
11643TIP3   OH234813   7.369   7.842   2.697
11643TIP3    H134814   7.300   7.861   2.634
11643TIP3    H234815   7.418   7.769   2.658
11644TIP3   OH234816   6.687   7.894   3.445
11644TIP3    H134817   6.697   7.960   3.514
11644TIP3    H234818   6.668   7.813   3.492
11645TIP3   OH234819   6.686   7.327   2.165
11645TIP3    H134820   6.697   7.353   2.256
11645TIP3    H234821   6.620   7.388   2.131
11646TIP3   OH234822   6.276   7.409   3.033
11646TIP3    H134823   6.346   7.447   3.085
11646TIP3    H234824   6.311   7.405   2.944
11647TIP3   OH234825   6.173   7.387   2.528
11647TIP3    H134826   6.218   7.424   2.452
11647TIP3    H234827   6.110   7.455   2.553
11648TIP3   OH234828   7.424   8.097   3.118
11648TIP3    H134829   7.446   8.029   3.055
11648TIP3    H234830   7.375   8.051   3.187
11649TIP3   OH234831   7.093   7.540   2.798
11649TIP3    H134832   7.015   7.540   2.853
11649TIP3    H234833   7.166   7.533   2.860
11650TIP3   OH234834   6.487   7.628   2.805
11650TIP3    H134835   6.400   7.633   2.766
11650TIP3    H234836   6.518   7.540   2.785
11651TIP3   OH234837   6.739   7.639   2.493
11651TIP3    H134838   6.834   7.643   2.486
11651TIP3    H234839   6.708   7.656   2.404
11652TIP3   OH234840   7.542   7.632   3.009
11652TIP3    H134841   7.521   7.651   3.101
11652TIP3    H234842   7.474   7.571   2.981
11653TIP3   OH234843   6.634   7.663   2.240
11653TIP3    H134844   6.570   7.611   2.193
11653TIP3    H234845   6.668   7.725   2.175
11654TIP3   OH234846   1.189   0.104   3.215
11654TIP3    H134847   1.174   0.090   3.122
11654TIP3    H234848   1.272   0.151   3.219
11655TIP3   OH234849   6.676   8.446   3.634
11655TIP3    H134850   6.757   8.468   3.680
11655TIP3    H234851   6.607   8.457   3.700
11656TIP3   OH234852   7.138   7.919   2.900
11656TIP3    H134853   7.199   7.868   2.848
11656TIP3    H234854   7.136   7.876   2.985
11657TIP3   OH234855   6.630   7.381   2.784
11657TIP3    H134856   6.602   7.304   2.835
11657TIP3    H234857   6.650   7.347   2.697
11658TIP3   OH234858   7.112   7.817   3.164
11658TIP3    H134859   7.025   7.850   3.187
11658TIP3    H234860   7.172   7.871   3.216
11659TIP3   OH234861   7.732   8.435   2.887
11659TIP3    H134862   7.769   8.482   2.812
11659TIP3    H234863   7.653   8.392   2.852
11660TIP3   OH234864   7.336   7.475   2.189
11660TIP3    H134865   7.322   7.442   2.100
11660TIP3    H234866   7.321   7.569   2.183
11661TIP3   OH234867   7.252   8.514   3.314
11661TIP3    H134868   7.304   8.507   3.393
11661TIP3    H234869   7.221   8.605   3.313
11662TIP3   OH234870   7.370   7.752   2.274
11662TIP3    H134871   7.465   7.757   2.271
11662TIP3    H234872   7.341   7.827   2.222
11663TIP3   OH234873   6.546   8.197   2.920
11663TIP3    H134874   6.587   8.186   2.834
11663TIP3    H234875   6.609   8.160   2.982
11664TIP3   OH234876   7.027   8.326   2.060
11664TIP3    H134877   6.971   8.400   2.084
11664TIP3    H234878   6.980   8.249   2.092
11665TIP3   OH234879   6.417   8.113   3.564
11665TIP3    H134880   6.415   8.084   3.655
11665TIP3    H234881   6.341   8.069   3.524
11666TIP3   OH234882   7.164   8.240   3.586
11666TIP3    H134883   7.093   8.182   3.558
11666TIP3    H234884   7.244   8.198   3.554
11667TIP3   OH234885   7.414   8.768   3.210
11667TIP3    H134886   7.320   8.784   3.214
11667TIP3    H234887   7.453   8.837   3.264
11668TIP3   OH234888   7.793   7.838   2.090
11668TIP3    H134889   7.745   7.792   2.022
11668TIP3    H234890   7.787   7.931   2.065
11669TIP3   OH234891   8.040   8.717   3.153
11669TIP3    H134892   7.947   8.698   3.146
11669TIP3    H234893   8.078   8.680   3.073
11670TIP3   OH234894   7.462   8.669   2.079
11670TIP3    H134895   7.444   8.619   2.158
11670TIP3    H234896   7.474   8.602   2.011
11671TIP3   OH234897   7.510   8.293   2.780
11671TIP3    H134898   7.422   8.274   2.812
11671TIP3    H234899   7.543   8.209   2.748
11672TIP3   OH234900   6.649   8.543   2.612
11672TIP3    H134901   6.635   8.613   2.548
11672TIP3    H234902   6.570   8.544   2.666
11673TIP3   OH234903   6.226   7.817   2.308
11673TIP3    H134904   6.269   7.900   2.328
11673TIP3    H234905   6.146   7.818   2.360
11674TIP3   OH234906   6.762   8.324   2.499
11674TIP3    H134907   6.719   8.401   2.537
11674TIP3    H234908   6.740   8.253   2.559
11675TIP3   OH234909   6.954   8.857   3.053
11675TIP3    H134910   6.991   8.929   3.001
11675TIP3    H234911   7.028   8.826   3.105
11676TIP3   OH234912   6.568   8.748   2.441
11676TIP3    H134913   6.480   8.756   2.479
11676TIP3    H234914   6.606   8.835   2.450
11677TIP3   OH234915   7.293   8.511   3.039
11677TIP3    H134916   7.274   8.513   3.133
11677TIP3    H234917   7.382   8.477   3.033
11678TIP3   OH234918   7.280   8.365   1.944
11678TIP3    H134919   7.350   8.348   2.006
11678TIP3    H234920   7.201   8.335   1.988
11679TIP3   OH234921   7.604   8.886   1.728
11679TIP3    H134922   7.675   8.937   1.688
11679TIP3    H234923   7.557   8.949   1.782
11680TIP3   OH234924   6.631   7.640   3.563
11680TIP3    H134925   6.535   7.648   3.567
11680TIP3    H234926   6.653   7.587   3.640
11681TIP3   OH234927   7.478   8.336   2.134
11681TIP3    H134928   7.466   8.261   2.192
11681TIP3    H234929   7.572   8.339   2.118
11682TIP3   OH234930   6.381   8.742   3.209
11682TIP3    H134931   6.434   8.683   3.263
11682TIP3    H234932   6.391   8.828   3.250
11683TIP3   OH234933   6.700   8.333   1.942
11683TIP3    H134934   6.698   8.253   1.890
11683TIP3    H234935   6.719   8.303   2.031
11684TIP3   OH234936   6.318   8.074   2.380
11684TIP3    H134937   6.253   8.122   2.432
11684TIP3    H234938   6.340   8.134   2.309
11685TIP3   OH234939   7.481   7.699   3.270
11685TIP3    H134940   7.559   7.741   3.304
11685TIP3    H234941   7.470   7.621   3.325
11686TIP3   OH234942   7.360   7.442   2.459
11686TIP3    H134943   7.341   7.455   2.366
11686TIP3    H234944   7.404   7.522   2.486
11687TIP3   OH234945   6.825   8.489   2.215
11687TIP3    H134946   6.740   8.527   2.193
11687TIP3    H234947   6.877   8.562   2.245
11688TIP3   OH234948   7.017   7.633   2.547
11688TIP3    H134949   7.078   7.701   2.520
11688TIP3    H234950   7.042   7.611   2.637
11689TIP3   OH234951   7.318   7.932   3.313
11689TIP3    H134952   7.344   7.974   3.395
11689TIP3    H234953   7.369   7.851   3.312
11690TIP3   OH234954   7.180   7.330   2.631
11690TIP3    H134955   7.154   7.407   2.681
11690TIP3    H234956   7.247   7.362   2.571
11691TIP3   OH234957   6.595   8.630   2.191
11691TIP3    H134958   6.574   8.703   2.132
11691TIP3    H234959   6.578   8.665   2.279
11692TIP3   OH234960   6.695   7.363   2.444
11692TIP3    H134961   6.685   7.456   2.467
11692TIP3    H234962   6.790   7.349   2.443
11693TIP3   OH234963   7.935   7.826   3.309
11693TIP3    H134964   7.841   7.839   3.324
11693TIP3    H234965   7.939   7.765   3.235
11694TIP3   OH234966   7.594   8.030   2.704
11694TIP3    H134967   7.517   7.974   2.714
11694TIP3    H234968   7.660   7.989   2.760
11695TIP3   OH234969   6.328   8.258   2.155
11695TIP3    H134970   6.347   8.342   2.113
11695TIP3    H234971   6.392   8.198   2.118
11696TIP3   OH234972   6.241   7.537   2.309
11696TIP3    H134973   6.260   7.631   2.318
11696TIP3    H234974   6.187   7.531   2.231
11697TIP3   OH234975   7.573   9.013   2.619
11697TIP3    H134976   7.527   9.063   2.551
11697TIP3    H234977   7.666   9.028   2.602
11698TIP3   OH234978   6.645   7.256   3.174
11698TIP3    H134979   6.617   7.226   3.087
11698TIP3    H234980   6.635   7.180   3.230
11699TIP3   OH234981   6.165   8.513   2.568
11699TIP3    H134982   6.122   8.550   2.645
11699TIP3    H234983   6.120   8.554   2.494
11700TIP3   OH234984   6.379   9.059   3.634
11700TIP3    H134985   6.458   9.068   3.686
11700TIP3    H234986   6.374   8.965   3.613
11701TIP3   OH234987   6.834   8.954   3.671
11701TIP3    H134988   6.923   8.921   3.682
11701TIP3    H234989   6.797   8.901   3.600
11702TIP3   OH234990   6.801   8.564   1.828
11702TIP3    H134991   6.757   8.492   1.873
11702TIP3    H234992   6.866   8.521   1.772
11703TIP3   OH234993   7.204   8.585   1.808
11703TIP3    H134994   7.240   8.514   1.861
11703TIP3    H234995   7.281   8.621   1.762
11704TIP3   OH234996   6.469   8.449   3.824
11704TIP3    H134997   6.491   8.356   3.837
11704TIP3    H234998   6.381   8.447   3.785
11705TIP3   OH234999   6.509   8.081   2.058
11705TIP3    H135000   6.573   8.076   2.129
11705TIP3    H235001   6.563   8.082   1.978
11706TIP3   OH235002   7.087   8.511   3.603
11706TIP3    H135003   7.052   8.545   3.521
11706TIP3    H235004   7.123   8.425   3.580
11707TIP3   OH235005   6.988   8.238   1.801
11707TIP3    H135006   6.997   8.265   1.893
11707TIP3    H235007   6.975   8.143   1.806
11708TIP3   OH235008   7.573   8.547   3.216
11708TIP3    H135009   7.646   8.584   3.168
11708TIP3    H235010   7.508   8.617   3.218
11709TIP3   OH235011   6.586   8.195   3.836
11709TIP3    H135012   6.658   8.182   3.774
11709TIP3    H235013   6.629   8.214   3.919
11710TIP3   OH235014   6.953   8.074   3.492
11710TIP3    H135015   6.867   8.115   3.504
11710TIP3    H235016   6.982   8.106   3.407
11711TIP3   OH235017   7.445   8.459   3.572
11711TIP3    H135018   7.518   8.426   3.520
11711TIP3    H235019   7.442   8.403   3.649
11712TIP3   OH235020   7.589   8.143   1.792
11712TIP3    H135021   7.581   8.077   1.723
11712TIP3    H235022   7.536   8.216   1.760
11713TIP3   OH235023   7.056   7.843   3.597
11713TIP3    H135024   7.059   7.773   3.531
11713TIP3    H235025   7.022   7.918   3.550
11714TIP3   OH235026   7.063   7.646   3.392
11714TIP3    H135027   7.090   7.683   3.309
11714TIP3    H235028   6.972   7.619   3.378
11715TIP3   OH235029   7.066   8.180   3.269
11715TIP3    H135030   7.151   8.224   3.263
11715TIP3    H235031   7.007   8.235   3.216
11716TIP3   OH235032   7.660   8.130   3.641
11716TIP3    H135033   7.695   8.041   3.646
11716TIP3    H235034   7.736   8.185   3.622
11717TIP3   OH235035   7.694   8.390   3.397
11717TIP3    H135036   7.639   8.445   3.341
11717TIP3    H235037   7.783   8.405   3.366
11718TIP3   OH235038   6.942   7.922   3.842
11718TIP3    H135039   6.871   7.860   3.860
11718TIP3    H235040   6.970   7.901   3.752
11719TIP3   OH235041   7.183   7.417   3.499
11719TIP3    H135042   7.144   7.497   3.464
11719TIP3    H235043   7.118   7.349   3.484
11720TIP3   OH235044   7.312   7.880   3.701
11720TIP3    H135045   7.299   7.869   3.795
11720TIP3    H235046   7.226   7.861   3.663
11721TIP3   OH235047   7.561   7.841   3.579
11721TIP3    H135048   7.481   7.838   3.631
11721TIP3    H235049   7.630   7.812   3.639
11722TIP3   OH235050   7.798   7.803   3.724
11722TIP3    H135051   7.810   7.708   3.730
11722TIP3    H235052   7.792   7.832   3.815
11723TIP3   OH235053   6.769   7.707   3.905
11723TIP3    H135054   6.776   7.619   3.868
11723TIP3    H235055   6.809   7.699   3.992
11724TIP3   OH235056   7.247   7.388   3.764
11724TIP3    H135057   7.316   7.322   3.756
11724TIP3    H235058   7.218   7.403   3.674
11725TIP3   OH235059   7.347   7.601   3.909
11725TIP3    H135060   7.315   7.530   3.854
11725TIP3    H235061   7.275   7.665   3.910
11726TIP3   OH235062   6.581   8.847   2.025
11726TIP3    H135063   6.674   8.834   2.007
11726TIP3    H235064   6.548   8.891   1.947
11727TIP3   OH235065   6.059   8.238   2.186
11727TIP3    H135066   6.154   8.249   2.185
11727TIP3    H235067   6.045   8.149   2.155
11728TIP3   OH235068   5.969   8.822   2.656
11728TIP3    H135069   5.902   8.769   2.614
11728TIP3    H235070   6.014   8.762   2.715
11729TIP3   OH235071   6.116   8.654   2.821
11729TIP3    H135072   6.104   8.587   2.888
11729TIP3    H235073   6.168   8.722   2.864
11730TIP3   OH235074   7.841   9.097   2.593
11730TIP3    H135075   7.856   9.071   2.684
11730TIP3    H235076   7.852   9.192   2.593
11731TIP3   OH235077   7.855   9.058   2.870
11731TIP3    H135078   7.797   8.987   2.898
11731TIP3    H235079   7.943   9.028   2.895
11732TIP3   OH235080   7.846   8.821   3.451
11732TIP3    H135081   7.810   8.834   3.539
11732TIP3    H235082   7.773   8.841   3.392
11733TIP3   OH235083   7.752   8.315   2.129
11733TIP3    H135084   7.821   8.376   2.106
11733TIP3    H235085   7.789   8.263   2.200
11734TIP3   OH235086   7.869   8.147   2.306
11734TIP3    H135087   7.804   8.106   2.363
11734TIP3    H235088   7.934   8.184   2.366
11735TIP3   OH235089   7.921   8.560   2.725
11735TIP3    H135090   7.970   8.493   2.677
11735TIP3    H235091   7.927   8.638   2.669
11736TIP3   OH235092   7.683   8.847   2.937
11736TIP3    H135093   7.604   8.880   2.982
11736TIP3    H235094   7.650   8.809   2.856
11737TIP3   OH235095   7.773   8.086   1.980
11737TIP3    H135096   7.704   8.099   1.914
11737TIP3    H235097   7.765   8.162   2.037
11738TIP3   OH235098   7.691   7.728   1.865
11738TIP3    H135099   7.622   7.751   1.802
11738TIP3    H235100   7.683   7.633   1.874
11739TIP3   OH235101   7.669   8.013   2.440
11739TIP3    H135102   7.668   7.919   2.420
11739TIP3    H235103   7.649   8.017   2.534
11740TIP3   OH235104   6.288   8.079   3.200
11740TIP3    H135105   6.279   8.051   3.109
11740TIP3    H235106   6.382   8.078   3.217
11741TIP3   OH235107   7.948   8.447   3.298
11741TIP3    H135108   8.019   8.383   3.286
11741TIP3    H235109   7.942   8.492   3.214
11742TIP3   OH235110   8.133   8.235   3.294
11742TIP3    H135111   8.054   8.195   3.329
11742TIP3    H235112   8.203   8.173   3.314
11743TIP3   OH235113   7.641   7.460   1.880
11743TIP3    H135114   7.683   7.430   1.961
11743TIP3    H235115   7.548   7.443   1.893
11744TIP3   OH235116   7.667   7.748   2.326
11744TIP3    H135117   7.709   7.663   2.338
11744TIP3    H235118   7.709   7.784   2.248
11745TIP3   OH235119   7.815   7.911   2.841
11745TIP3    H135120   7.895   7.929   2.791
11745TIP3    H235121   7.830   7.951   2.926
11746TIP3   OH235122   7.887   8.063   3.067
11746TIP3    H135123   7.812   8.089   3.120
11746TIP3    H235124   7.913   8.143   3.021
11747TIP3   OH235125   6.505   7.764   3.842
11747TIP3    H135126   6.599   7.761   3.860
11747TIP3    H235127   6.471   7.683   3.881
11748TIP3   OH235128   8.352   7.659   3.603
11748TIP3    H135129   8.418   7.604   3.561
11748TIP3    H235130   8.311   7.707   3.531
11749TIP3   OH235131   7.777   7.497   2.375
11749TIP3    H135132   7.817   7.476   2.460
11749TIP3    H235133   7.711   7.429   2.363
11750TIP3   OH235134   6.485   7.482   3.203
11750TIP3    H135135   6.539   7.403   3.202
11750TIP3    H235136   6.546   7.552   3.179
11751TIP3   OH235137   6.261   7.748   3.252
11751TIP3    H135138   6.314   7.734   3.174
11751TIP3    H235139   6.277   7.840   3.275
11752TIP3   OH235140   8.198   7.772   3.406
11752TIP3    H135141   8.116   7.811   3.433
11752TIP3    H235142   8.173   7.698   3.351
11753TIP3   OH235143   7.854   7.411   2.052
11753TIP3    H135144   7.895   7.352   1.989
11753TIP3    H235145   7.904   7.493   2.045
11754TIP3   OH235146   6.251   7.253   2.753
11754TIP3    H135147   6.166   7.243   2.796
11754TIP3    H235148   6.233   7.308   2.677
11755TIP3   OH235149   7.421   8.948   2.284
11755TIP3    H135150   7.493   8.939   2.221
11755TIP3    H235151   7.442   9.027   2.333
11756TIP3   OH235152   6.482   7.305   3.580
11756TIP3    H135153   6.431   7.303   3.661
11756TIP3    H235154   6.428   7.355   3.519
11757TIP3   OH235155   6.488   8.781   3.638
11757TIP3    H135156   6.397   8.750   3.639
11757TIP3    H235157   6.518   8.768   3.728
11758TIP3   OH235158   6.724   8.814   3.199
11758TIP3    H135159   6.672   8.888   3.166
11758TIP3    H235160   6.810   8.825   3.157
11759TIP3   OH235161   7.116   9.045   3.361
11759TIP3    H135162   7.160   9.027   3.443
11759TIP3    H235163   7.178   9.099   3.311
11760TIP3   OH235164   7.316   9.189   3.236
11760TIP3    H135165   7.379   9.119   3.250
11760TIP3    H235166   7.360   9.268   3.270
11761TIP3   OH235167   8.112   7.524   3.299
11761TIP3    H135168   8.025   7.519   3.260
11761TIP3    H235169   8.146   7.435   3.294
11762TIP3   OH235170   6.377   9.051   3.248
11762TIP3    H135171   6.285   9.065   3.227
11762TIP3    H235172   6.398   9.120   3.311
11763TIP3   OH235173   6.609   9.043   3.098
11763TIP3    H135174   6.525   9.047   3.145
11763TIP3    H235175   6.587   9.065   3.008
11764TIP3   OH235176   7.031   9.066   2.885
11764TIP3    H135177   6.960   9.078   2.823
11764TIP3    H235178   7.042   9.152   2.927
11765TIP3   OH235179   7.294   8.980   2.924
11765TIP3    H135180   7.207   9.019   2.911
11765TIP3    H235181   7.355   9.053   2.911
11766TIP3   OH235182   7.486   9.167   2.837
11766TIP3    H135183   7.467   9.251   2.796
11766TIP3    H235184   7.512   9.110   2.764
11767TIP3   OH235185   6.296   8.835   2.958
11767TIP3    H135186   6.317   8.807   3.047
11767TIP3    H235187   6.368   8.800   2.904
11768TIP3   OH235188   6.497   8.717   2.818
11768TIP3    H135189   6.506   8.636   2.868
11768TIP3    H235190   6.583   8.759   2.825
11769TIP3   OH235191   6.764   8.801   2.854
11769TIP3    H135192   6.784   8.708   2.842
11769TIP3    H235193   6.821   8.827   2.927
11770TIP3   OH235194   7.322   7.454   2.943
11770TIP3    H135195   7.282   7.381   2.989
11770TIP3    H235196   7.389   7.414   2.887
11771TIP3   OH235197   7.816   7.386   2.847
11771TIP3    H135198   7.852   7.425   2.767
11771TIP3    H235199   7.721   7.390   2.835
11772TIP3   OH235200   7.932   7.432   2.599
11772TIP3    H135201   8.002   7.376   2.565
11772TIP3    H235202   7.965   7.521   2.588
11773TIP3   OH235203   6.558   7.154   2.932
11773TIP3    H135204   6.469   7.121   2.940
11773TIP3    H235205   6.612   7.075   2.923
11774TIP3   OH235206   6.382   7.060   2.590
11774TIP3    H135207   6.410   7.108   2.511
11774TIP3    H235208   6.345   7.127   2.646
11775TIP3   OH235209   7.040   7.190   2.833
11775TIP3    H135210   7.085   7.235   2.761
11775TIP3    H235211   7.085   7.221   2.912
11776TIP3   OH235212   7.536   7.342   2.805
11776TIP3    H135213   7.535   7.312   2.714
11776TIP3    H235214   7.540   7.262   2.857
11777TIP3   OH235215   7.588   7.293   2.377
11777TIP3    H135216   7.504   7.339   2.384
11777TIP3    H235217   7.572   7.208   2.418
11778TIP3   OH235218   6.048   8.626   2.344
11778TIP3    H135219   5.963   8.597   2.311
11778TIP3    H235220   6.053   8.718   2.319
11779TIP3   OH235221   6.489   7.186   2.356
11779TIP3    H135222   6.535   7.133   2.291
11779TIP3    H235223   6.556   7.246   2.389
11780TIP3   OH235224   6.970   7.386   2.437
11780TIP3    H135225   7.033   7.330   2.483
11780TIP3    H235226   6.990   7.475   2.468
11781TIP3   OH235227   6.845   8.795   1.971
11781TIP3    H135228   6.926   8.823   1.928
11781TIP3    H235229   6.823   8.713   1.927
11782TIP3   OH235230   7.598   8.903   2.055
11782TIP3    H135231   7.553   8.818   2.063
11782TIP3    H235232   7.541   8.955   1.998
11783TIP3   OH235233   6.787   7.437   3.816
11783TIP3    H135234   6.753   7.370   3.875
11783TIP3    H235235   6.879   7.446   3.840
11784TIP3   OH235236   7.034   7.442   3.939
11784TIP3    H135237   7.110   7.421   3.886
11784TIP3    H235238   7.029   7.371   4.003
11785TIP3   OH235239   6.160   8.629   2.033
11785TIP3    H135240   6.149   8.641   2.127
11785TIP3    H235241   6.235   8.570   2.024
11786TIP3   OH235242   7.856   7.530   3.725
11786TIP3    H135243   7.874   7.501   3.815
11786TIP3    H235244   7.941   7.525   3.681
11787TIP3   OH235245   7.800   9.080   3.254
11787TIP3    H135246   7.722   9.040   3.292
11787TIP3    H235247   7.775   9.171   3.239
11788TIP3   OH235248   8.355   8.317   2.740
11788TIP3    H135249   8.376   8.239   2.791
11788TIP3    H235250   8.406   8.388   2.781
11789TIP3   OH235251   8.245   8.691   2.500
11789TIP3    H135252   8.260   8.598   2.485
11789TIP3    H235253   8.321   8.734   2.461
11790TIP3   OH235254   8.026   7.935   2.214
11790TIP3    H135255   7.987   8.019   2.241
11790TIP3    H235256   7.953   7.884   2.179
11791TIP3   OH235257   8.094   8.239   2.437
11791TIP3    H135258   8.148   8.163   2.459
11791TIP3    H235259   8.156   8.305   2.406
11792TIP3   OH235260   8.606   7.804   2.394
11792TIP3    H135261   8.579   7.879   2.341
11792TIP3    H235262   8.552   7.731   2.363
11793TIP3   OH235263   8.241   8.024   2.525
11793TIP3    H135264   8.323   8.002   2.569
11793TIP3    H235265   8.243   7.972   2.444
11794TIP3   OH235266   8.679   8.214   2.318
11794TIP3    H135267   8.766   8.186   2.287
11794TIP3    H235268   8.622   8.139   2.298
11795TIP3   OH235269   8.584   7.808   2.849
11795TIP3    H135270   8.539   7.845   2.774
11795TIP3    H235271   8.526   7.825   2.923
11796TIP3   OH235272   8.482   7.912   2.615
11796TIP3    H135273   8.535   7.990   2.633
11796TIP3    H235274   8.528   7.868   2.544
11797TIP3   OH235275   7.952   8.480   2.038
11797TIP3    H135276   7.892   8.500   1.966
11797TIP3    H235277   7.966   8.564   2.081
11798TIP3   OH235278   8.925   7.505   2.588
11798TIP3    H135279   8.920   7.413   2.614
11798TIP3    H235280   8.848   7.545   2.628
11799TIP3   OH235281   8.445   8.345   2.238
11799TIP3    H135282   8.413   8.303   2.159
11799TIP3    H235283   8.533   8.307   2.251
11800TIP3   OH235284   8.613   8.361   2.541
11800TIP3    H135285   8.638   8.312   2.463
11800TIP3    H235286   8.606   8.452   2.511
11801TIP3   OH235287   8.465   8.436   2.996
11801TIP3    H135288   8.466   8.528   3.022
11801TIP3    H235289   8.375   8.407   3.013
11802TIP3   OH235290   8.362   8.202   2.014
11802TIP3    H135291   8.280   8.241   1.985
11802TIP3    H235292   8.346   8.107   2.011
11803TIP3   OH235293   8.115   8.586   2.925
11803TIP3    H135294   8.046   8.576   2.859
11803TIP3    H235295   8.141   8.497   2.947
11804TIP3   OH235296   8.001   8.782   2.578
11804TIP3    H135297   8.085   8.751   2.545
11804TIP3    H235298   8.023   8.851   2.641
11805TIP3   OH235299   8.284   8.800   2.915
11805TIP3    H135300   8.354   8.774   2.974
11805TIP3    H235301   8.228   8.723   2.908
11806TIP3   OH235302   8.692   7.595   2.708
11806TIP3    H135303   8.609   7.563   2.673
11806TIP3    H235304   8.670   7.676   2.753
11807TIP3   OH235305   9.228   7.681   2.883
11807TIP3    H135306   9.298   7.679   2.950
11807TIP3    H235307   9.147   7.680   2.934
11808TIP3   OH235308   8.986   7.634   1.796
11808TIP3    H135309   8.916   7.642   1.861
11808TIP3    H235310   8.950   7.574   1.730
11809TIP3   OH235311   8.628   8.131   2.688
11809TIP3    H135312   8.585   8.141   2.773
11809TIP3    H235313   8.618   8.216   2.645
11810TIP3   OH235314   8.514   8.011   2.243
11810TIP3    H135315   8.423   7.987   2.263
11810TIP3    H235316   8.530   7.973   2.157
11811TIP3   OH235317   8.461   8.126   2.914
11811TIP3    H135318   8.507   8.180   2.978
11811TIP3    H235319   8.442   8.045   2.961
11812TIP3   OH235320   8.459   7.618   1.734
11812TIP3    H135321   8.427   7.615   1.824
11812TIP3    H235322   8.541   7.668   1.738
11813TIP3   OH235323   8.054   7.663   2.527
11813TIP3    H135324   8.133   7.697   2.568
11813TIP3    H235325   8.082   7.637   2.439
11814TIP3   OH235326   7.996   7.649   2.038
11814TIP3    H135327   8.033   7.660   1.950
11814TIP3    H235328   7.937   7.724   2.048
11815TIP3   OH235329   8.861   7.851   2.285
11815TIP3    H135330   8.779   7.831   2.331
11815TIP3    H235331   8.928   7.805   2.335
11816TIP3   OH235332   8.280   7.881   2.296
11816TIP3    H135333   8.192   7.887   2.258
11816TIP3    H235334   8.306   7.790   2.282
11817TIP3   OH235335   8.562   7.879   2.012
11817TIP3    H135336   8.654   7.892   1.989
11817TIP3    H235337   8.515   7.900   1.931
11818TIP3   OH235338   8.419   7.934   1.791
11818TIP3    H135339   8.388   7.897   1.708
11818TIP3    H235340   8.441   8.024   1.771
11819TIP3   OH235341   8.464   8.695   3.101
11819TIP3    H135342   8.529   8.760   3.127
11819TIP3    H235343   8.436   8.656   3.184
11820TIP3   OH235344   8.416   7.636   2.278
11820TIP3    H135345   8.389   7.556   2.323
11820TIP3    H235346   8.442   7.606   2.190
11821TIP3   OH235347   8.884   8.032   2.699
11821TIP3    H135348   8.796   8.067   2.687
11821TIP3    H235349   8.941   8.095   2.654
11822TIP3   OH235350   8.315   8.426   2.462
11822TIP3    H135351   8.361   8.402   2.381
11822TIP3    H235352   8.360   8.378   2.531
11823TIP3   OH235353   8.206   8.348   3.052
11823TIP3    H135354   8.198   8.317   3.142
11823TIP3    H235355   8.131   8.309   3.007
11824TIP3   OH235356   7.978   8.103   1.802
11824TIP3    H135357   8.046   8.163   1.832
11824TIP3    H235358   7.917   8.098   1.876
11825TIP3   OH235359   8.415   7.885   3.054
11825TIP3    H135360   8.320   7.899   3.061
11825TIP3    H235361   8.436   7.827   3.127
11826TIP3   OH235362   8.116   8.958   2.767
11826TIP3    H135363   8.175   8.902   2.818
11826TIP3    H235364   8.167   9.038   2.752
11827TIP3   OH235365   8.131   8.310   1.920
11827TIP3    H135366   8.075   8.369   1.970
11827TIP3    H235367   8.158   8.361   1.844
11828TIP3   OH235368   8.842   7.888   2.013
11828TIP3    H135369   8.926   7.917   1.978
11828TIP3    H235370   8.854   7.887   2.108
11829TIP3   OH235371   9.011   7.589   2.147
11829TIP3    H135372   9.033   7.634   2.228
11829TIP3    H235373   9.066   7.631   2.081
11830TIP3   OH235374   8.506   7.608   2.012
11830TIP3    H135375   8.510   7.703   2.021
11830TIP3    H235376   8.598   7.581   1.999
11831TIP3   OH235377   7.946   7.819   1.799
11831TIP3    H135378   7.969   7.912   1.791
11831TIP3    H235379   7.853   7.819   1.823
11832TIP3   OH235380   8.435   7.509   2.658
11832TIP3    H135381   8.406   7.477   2.572
11832TIP3    H235382   8.425   7.433   2.716
11833TIP3   OH235383   7.960   8.739   2.125
11833TIP3    H135384   7.947   8.804   2.195
11833TIP3    H235385   7.922   8.780   2.047
11834TIP3   OH235386   8.142   9.240   3.146
11834TIP3    H135387   8.224   9.206   3.182
11834TIP3    H235388   8.091   9.162   3.124
11835TIP3   OH235389   8.246   8.741   3.336
11835TIP3    H135390   8.288   8.655   3.335
11835TIP3    H235391   8.167   8.730   3.283
11836TIP3   OH235392   8.404   8.515   3.309
11836TIP3    H135393   8.440   8.437   3.268
11836TIP3    H235394   8.420   8.503   3.403
11837TIP3   OH235395   8.499   8.188   1.763
11837TIP3    H135396   8.472   8.227   1.847
11837TIP3    H235397   8.559   8.253   1.725
11838TIP3   OH235398   8.700   8.305   2.939
11838TIP3    H135399   8.625   8.359   2.961
11838TIP3    H235400   8.756   8.363   2.887
11839TIP3   OH235401   8.824   8.103   3.081
11839TIP3    H135402   8.836   8.022   3.030
11839TIP3    H235403   8.787   8.165   3.019
11840TIP3   OH235404   8.840   7.878   2.917
11840TIP3    H135405   8.871   7.924   2.839
11840TIP3    H235406   8.750   7.852   2.896
11841TIP3   OH235407   8.721   8.177   3.322
11841TIP3    H135408   8.661   8.104   3.338
11841TIP3    H235409   8.755   8.160   3.234
11842TIP3   OH235410   8.974   7.652   2.993
11842TIP3    H135411   8.931   7.735   2.969
11842TIP3    H235412   8.908   7.585   2.977
11843TIP3   OH235413   9.060   8.198   3.199
11843TIP3    H135414   9.057   8.151   3.281
11843TIP3    H235415   8.987   8.164   3.148
11844TIP3   OH235416   8.562   7.961   3.400
11844TIP3    H135417   8.566   7.876   3.356
11844TIP3    H235418   8.607   7.947   3.483
11845TIP3   OH235419   9.044   7.638   3.256
11845TIP3    H135420   9.112   7.570   3.252
11845TIP3    H235421   9.015   7.648   3.166
11846TIP3   OH235422   9.131   7.855   3.404
11846TIP3    H135423   9.102   7.785   3.346
11846TIP3    H235424   9.063   7.922   3.397
11847TIP3   OH235425   7.801   8.508   1.811
11847TIP3    H135426   7.823   8.591   1.768
11847TIP3    H235427   7.851   8.443   1.763
11848TIP3   OH235428   7.782   9.079   2.150
11848TIP3    H135429   7.719   9.015   2.115
11848TIP3    H235430   7.833   9.030   2.214
11849TIP3   OH235431   7.906   8.924   2.348
11849TIP3    H135432   7.923   8.846   2.401
11849TIP3    H235433   7.896   8.995   2.412
11850TIP3   OH235434   8.085   8.328   2.692
11850TIP3    H135435   8.072   8.301   2.602
11850TIP3    H235436   8.180   8.334   2.702
11851TIP3   OH235437   8.299   8.019   3.334
11851TIP3    H135438   8.392   8.014   3.352
11851TIP3    H235439   8.263   7.938   3.369
11852TIP3   OH235440   8.275   7.734   2.682
11852TIP3    H135441   8.327   7.653   2.683
11852TIP3    H235442   8.338   7.803   2.661
11853TIP3   OH235443   8.056   8.003   2.740
11853TIP3    H135444   8.108   7.985   2.661
11853TIP3    H235445   8.074   8.095   2.760
11854TIP3   OH235446   8.044   7.525   2.276
11854TIP3    H135447   7.953   7.509   2.301
11854TIP3    H235448   8.038   7.575   2.195
11855TIP3   OH235449   8.272   7.562   3.067
11855TIP3    H135450   8.219   7.556   3.146
11855TIP3    H235451   8.219   7.612   3.006
11856TIP3   OH235452   8.290   8.991   3.223
11856TIP3    H135453   8.216   8.996   3.163
11856TIP3    H235454   8.292   8.900   3.253
11857TIP3   OH235455   9.049   7.679   2.407
11857TIP3    H135456   9.008   7.623   2.473
11857TIP3    H235457   9.136   7.699   2.443
11858TIP3   OH235458   8.347   7.407   2.417
11858TIP3    H135459   8.258   7.374   2.426
11858TIP3    H235460   8.401   7.329   2.410
11859TIP3   OH235461   8.160   7.305   2.141
11859TIP3    H135462   8.201   7.355   2.070
11859TIP3    H235463   8.119   7.372   2.196
11860TIP3   OH235464   8.827   7.453   2.325
11860TIP3    H135465   8.882   7.499   2.261
11860TIP3    H235466   8.863   7.478   2.410
11861TIP3   OH235467   9.445   7.470   2.257
11861TIP3    H135468   9.407   7.543   2.209
11861TIP3    H235469   9.390   7.461   2.335
11862TIP3   OH235470   7.842   8.854   1.905
11862TIP3    H135471   7.756   8.879   1.937
11862TIP3    H235472   7.886   8.938   1.888
11863TIP3   OH235473   8.299   7.440   1.941
11863TIP3    H135474   8.332   7.373   1.882
11863TIP3    H235475   8.377   7.483   1.975
11864TIP3   OH235476   8.781   7.620   1.988
11864TIP3    H135477   8.843   7.586   2.052
11864TIP3    H235478   8.789   7.715   1.995
11865TIP3   OH235479   8.579   7.694   3.302
11865TIP3    H135480   8.547   7.627   3.362
11865TIP3    H235481   8.672   7.702   3.324
11866TIP3   OH235482   8.827   7.697   3.427
11866TIP3    H135483   8.904   7.675   3.376
11866TIP3    H235484   8.821   7.628   3.493
11867TIP3   OH235485   9.660   7.762   3.211
11867TIP3    H135486   9.675   7.742   3.303
11867TIP3    H235487   9.588   7.825   3.212
11868TIP3   OH235488   0.551   8.541   4.614
11868TIP3    H135489   0.555   8.631   4.579
11868TIP3    H235490   0.574   8.486   4.539
11869TIP3   OH235491   0.789   8.446   5.294
11869TIP3    H135492   0.856   8.393   5.252
11869TIP3    H235493   0.747   8.493   5.222
11870TIP3   OH235494   0.639   8.567   5.095
11870TIP3    H135495   0.558   8.583   5.144
11870TIP3    H235496   0.621   8.488   5.045
11871TIP3   OH235497   0.263   8.229   3.693
11871TIP3    H135498   0.303   8.158   3.643
11871TIP3    H235499   0.336   8.289   3.710
11872TIP3   OH235500   0.591   8.316   4.971
11872TIP3    H135501   0.512   8.301   4.920
11872TIP3    H235502   0.638   8.232   4.967
11873TIP3   OH235503   0.350   8.217   4.209
11873TIP3    H135504   0.424   8.157   4.222
11873TIP3    H235505   0.389   8.305   4.214
11874TIP3   OH235506   0.529   8.610   3.960
11874TIP3    H135507   0.457   8.673   3.961
11874TIP3    H235508   0.508   8.548   4.030
11875TIP3   OH235509   2.327   8.765   4.101
11875TIP3    H135510   2.367   8.842   4.141
11875TIP3    H235511   2.374   8.754   4.018
11876TIP3   OH235512   1.663   8.868   4.135
11876TIP3    H135513   1.719   8.808   4.185
11876TIP3    H235514   1.660   8.830   4.047
11877TIP3   OH235515   1.076   8.509   4.109
11877TIP3    H135516   1.079   8.581   4.046
11877TIP3    H235517   1.027   8.440   4.065
11878TIP3   OH235518   1.775   8.691   3.700
11878TIP3    H135519   1.838   8.675   3.770
11878TIP3    H235520   1.828   8.690   3.620
11879TIP3   OH235521   0.674   8.772   4.222
11879TIP3    H135522   0.753   8.720   4.225
11879TIP3    H235523   0.625   8.739   4.147
11880TIP3   OH235524   1.144   9.077   3.952
11880TIP3    H135525   1.216   9.019   3.927
11880TIP3    H235526   1.065   9.029   3.926
11881TIP3   OH235527   2.440   8.958   4.275
11881TIP3    H135528   2.347   8.980   4.271
11881TIP3    H235529   2.475   9.013   4.345
11882TIP3   OH235530   1.038   8.558   4.531
11882TIP3    H135531   0.975   8.580   4.462
11882TIP3    H235532   0.993   8.581   4.612
11883TIP3   OH235533   1.935   8.678   3.918
11883TIP3    H135534   1.912   8.669   4.011
11883TIP3    H235535   2.021   8.720   3.919
11884TIP3   OH235536   0.912   8.637   4.299
11884TIP3    H135537   0.968   8.715   4.304
11884TIP3    H235538   0.954   8.582   4.233
11885TIP3   OH235539   2.126   8.664   4.269
11885TIP3    H135540   2.041   8.668   4.226
11885TIP3    H235541   2.188   8.691   4.202
11886TIP3   OH235542   1.397   8.282   4.267
11886TIP3    H135543   1.392   8.191   4.294
11886TIP3    H235544   1.320   8.323   4.304
11887TIP3   OH235545   1.287   8.823   3.344
11887TIP3    H135546   1.311   8.911   3.374
11887TIP3    H235547   1.359   8.798   3.286
11888TIP3   OH235548   1.970   9.217   4.316
11888TIP3    H135549   1.953   9.239   4.225
11888TIP3    H235550   1.891   9.170   4.344
11889TIP3   OH235551   2.023   8.236   3.354
11889TIP3    H135552   1.946   8.255   3.408
11889TIP3    H235553   2.036   8.316   3.302
11890TIP3   OH235554   2.205   9.092   4.555
11890TIP3    H135555   2.112   9.072   4.549
11890TIP3    H235556   2.248   9.007   4.541
11891TIP3   OH235557   1.159   8.359   4.387
11891TIP3    H135558   1.079   8.326   4.346
11891TIP3    H235559   1.133   8.440   4.429
11892TIP3   OH235560   1.687   8.492   4.592
11892TIP3    H135561   1.760   8.471   4.650
11892TIP3    H235562   1.610   8.459   4.638
11893TIP3   OH235563   1.960   8.973   4.532
11893TIP3    H135564   1.916   8.925   4.602
11893TIP3    H235565   1.889   8.999   4.473
11894TIP3   OH235566   1.301   8.393   3.370
11894TIP3    H135567   1.262   8.392   3.457
11894TIP3    H235568   1.272   8.311   3.330
11895TIP3   OH235569   1.033   8.881   4.343
11895TIP3    H135570   0.994   8.880   4.430
11895TIP3    H235571   0.968   8.926   4.288
11896TIP3   OH235572   1.056   8.692   3.907
11896TIP3    H135573   0.966   8.701   3.941
11896TIP3    H235574   1.045   8.687   3.812
11897TIP3   OH235575   1.483   8.755   3.578
11897TIP3    H135576   1.425   8.828   3.558
11897TIP3    H235577   1.542   8.749   3.503
11898TIP3   OH235578   1.690   9.141   4.755
11898TIP3    H135579   1.641   9.096   4.823
11898TIP3    H235580   1.780   9.109   4.765
11899TIP3   OH235581   1.607   8.800   3.883
11899TIP3    H135582   1.533   8.828   3.829
11899TIP3    H235583   1.661   8.747   3.824
11900TIP3   OH235584   0.959   8.890   4.616
11900TIP3    H135585   0.893   8.939   4.665
11900TIP3    H235586   0.963   8.805   4.660
11901TIP3   OH235587   0.949   8.342   3.309
11901TIP3    H135588   0.924   8.405   3.377
11901TIP3    H235589   0.908   8.376   3.230
11902TIP3   OH235590   0.540   8.423   4.161
11902TIP3    H135591   0.576   8.447   4.246
11902TIP3    H235592   0.605   8.364   4.123
11903TIP3   OH235593   0.465   8.426   3.750
11903TIP3    H135594   0.454   8.462   3.662
11903TIP3    H235595   0.494   8.501   3.802
11904TIP3   OH235596   1.758   9.058   4.368
11904TIP3    H135597   1.751   9.057   4.272
11904TIP3    H235598   1.667   9.065   4.398
11905TIP3   OH235599   1.331   8.525   3.974
11905TIP3    H135600   1.255   8.491   4.022
11905TIP3    H235601   1.358   8.602   4.024
11906TIP3   OH235602   0.801   8.619   4.016
11906TIP3    H135603   0.716   8.623   3.972
11906TIP3    H235604   0.836   8.532   3.992
11907TIP3   OH235605   1.076   8.708   3.624
11907TIP3    H135606   1.152   8.653   3.640
11907TIP3    H235607   1.021   8.657   3.564
11908TIP3   OH235608   1.851   8.658   4.198
11908TIP3    H135609   1.836   8.674   4.291
11908TIP3    H235610   1.781   8.597   4.173
11909TIP3   OH235611   0.880   8.571   3.476
11909TIP3    H135612   0.793   8.604   3.494
11909TIP3    H235613   0.896   8.593   3.384
11910TIP3   OH235614   1.395   8.754   4.106
11910TIP3    H135615   1.490   8.761   4.108
11910TIP3    H235616   1.367   8.784   4.192
11911TIP3   OH235617   0.899   8.374   3.944
11911TIP3    H135618   0.858   8.297   3.985
11911TIP3    H235619   0.897   8.355   3.851
11912TIP3   OH235620   1.349   8.803   4.419
11912TIP3    H135621   1.292   8.860   4.472
11912TIP3    H235622   1.437   8.821   4.451
11913TIP3   OH235623   1.554   8.497   3.386
11913TIP3    H135624   1.463   8.468   3.378
11913TIP3    H235625   1.556   8.581   3.341
11914TIP3   OH235626   1.668   8.771   3.369
11914TIP3    H135627   1.753   8.739   3.400
11914TIP3    H235628   1.688   8.821   3.290
11915TIP3   OH235629   4.705   0.026   4.811
11915TIP3    H135630   4.655   0.028   4.730
11915TIP3    H235631   4.797   0.022   4.783
11916TIP3   OH235632   2.140   8.877   3.295
11916TIP3    H135633   2.061   8.847   3.251
11916TIP3    H235634   2.116   8.961   3.335
11917TIP3   OH235635   0.946   8.651   4.770
11917TIP3    H135636   0.862   8.607   4.781
11917TIP3    H235637   1.001   8.616   4.840
11918TIP3   OH235638   1.775   8.711   4.459
11918TIP3    H135639   1.823   8.743   4.535
11918TIP3    H235640   1.734   8.630   4.488
11919TIP3   OH235641   1.626   8.462   3.646
11919TIP3    H135642   1.596   8.477   3.556
11919TIP3    H235643   1.667   8.545   3.672
11920TIP3   OH235644   1.308   8.587   3.703
11920TIP3    H135645   1.380   8.639   3.668
11920TIP3    H235646   1.323   8.585   3.798
11921TIP3   OH235647   1.573   8.889   4.546
11921TIP3    H135648   1.583   8.885   4.641
11921TIP3    H235649   1.647   8.839   4.512
11922TIP3   OH235650   1.448   8.335   3.814
11922TIP3    H135651   1.415   8.408   3.867
11922TIP3    H235652   1.513   8.375   3.757
11923TIP3   OH235653   0.915   8.363   3.659
11923TIP3    H135654   0.894   8.443   3.612
11923TIP3    H235655   1.009   8.351   3.647
11924TIP3   OH235656   2.189   8.815   4.497
11924TIP3    H135657   2.104   8.857   4.509
11924TIP3    H235658   2.176   8.756   4.422
11925TIP3   OH235659   1.890   9.000   3.848
11925TIP3    H135660   1.824   8.943   3.808
11925TIP3    H235661   1.936   8.944   3.910
11926TIP3   OH235662   0.417   8.522   3.494
11926TIP3    H135663   0.364   8.597   3.466
11926TIP3    H235664   0.388   8.450   3.438
11927TIP3   OH235665   0.893   8.278   4.347
11927TIP3    H135666   0.863   8.245   4.263
11927TIP3    H235667   0.889   8.203   4.406
11928TIP3   OH235668   0.993   9.212   5.011
11928TIP3    H135669   1.002   9.119   4.990
11928TIP3    H235670   0.906   9.219   5.050
11929TIP3   OH235671   1.226   8.965   4.614
11929TIP3    H135672   1.135   8.937   4.623
11929TIP3    H235673   1.228   9.055   4.648
11930TIP3   OH235674   1.017   8.874   3.311
11930TIP3    H135675   1.009   8.871   3.216
11930TIP3    H235676   1.110   8.857   3.329
11931TIP3   OH235677   1.320   8.786   4.809
11931TIP3    H135678   1.308   8.708   4.754
11931TIP3    H235679   1.292   8.859   4.754
11932TIP3   OH235680   1.293   8.608   4.601
11932TIP3    H135681   1.319   8.662   4.526
11932TIP3    H235682   1.202   8.584   4.582
11933TIP3   OH235683   1.938   9.081   4.846
11933TIP3    H135684   1.967   8.991   4.862
11933TIP3    H235685   2.018   9.132   4.840
11934TIP3   OH235686   1.065   8.958   4.971
11934TIP3    H135687   1.054   8.869   5.004
11934TIP3    H235688   1.160   8.968   4.959
11935TIP3   OH235689   1.442   8.399   4.679
11935TIP3    H135690   1.394   8.476   4.650
11935TIP3    H235691   1.381   8.326   4.667
11936TIP3   OH235692   1.589   8.844   4.821
11936TIP3    H135693   1.592   8.899   4.899
11936TIP3    H235694   1.502   8.805   4.822
11937TIP3   OH235695   1.840   8.807   4.712
11937TIP3    H135696   1.756   8.806   4.757
11937TIP3    H235697   1.905   8.793   4.780
11938TIP3   OH235698   2.046   8.828   4.905
11938TIP3    H135699   2.066   8.735   4.904
11938TIP3    H235700   2.040   8.850   4.998
11939TIP3   OH235701   1.020   8.715   5.089
11939TIP3    H135702   1.022   8.627   5.052
11939TIP3    H235703   1.061   8.706   5.175
11940TIP3   OH235704   1.507   8.412   4.944
11940TIP3    H135705   1.578   8.348   4.941
11940TIP3    H235706   1.473   8.415   4.854
11941TIP3   OH235707   1.615   8.621   5.086
11941TIP3    H135708   1.589   8.546   5.032
11941TIP3    H235709   1.539   8.679   5.086
11942TIP3   OH235710   1.933   8.787   3.148
11942TIP3    H135711   1.952   8.788   3.054
11942TIP3    H235712   1.902   8.698   3.164
11943TIP3   OH235713   1.858   9.182   3.618
11943TIP3    H135714   1.859   9.090   3.645
11943TIP3    H235715   1.852   9.231   3.700
11944TIP3   OH235716   5.520   0.053   4.367
11944TIP3    H135717   5.537  -0.027   4.417
11944TIP3    H235718   5.601   0.070   4.320
11945TIP3   OH235719   1.829   8.530   3.111
11945TIP3    H135720   1.911   8.487   3.135
11945TIP3    H235721   1.763   8.461   3.115
11946TIP3   OH235722   1.914   8.700   3.465
11946TIP3    H135723   1.977   8.629   3.475
11946TIP3    H235724   1.962   8.779   3.490
11947TIP3   OH235725   2.061   8.907   4.040
11947TIP3    H135726   2.131   8.884   3.978
11947TIP3    H235727   2.107   8.922   4.123
11948TIP3   OH235728   2.182   9.037   4.248
11948TIP3    H135729   2.108   9.077   4.293
11948TIP3    H235730   2.199   9.095   4.174
11949TIP3   OH235731   0.767   8.815   5.031
11949TIP3    H135732   0.857   8.783   5.031
11949TIP3    H235733   0.713   8.736   5.042
11950TIP3   OH235734   2.598   8.710   4.772
11950TIP3    H135735   2.662   8.648   4.738
11950TIP3    H235736   2.561   8.751   4.693
11951TIP3   OH235737   2.064   8.484   3.546
11951TIP3    H135738   2.097   8.480   3.636
11951TIP3    H235739   1.992   8.421   3.545
11952TIP3   OH235740   0.700   8.473   4.381
11952TIP3    H135741   0.757   8.396   4.388
11952TIP3    H235742   0.760   8.544   4.358
11953TIP3   OH235743   0.564   8.776   4.471
11953TIP3    H135744   0.609   8.775   4.387
11953TIP3    H235745   0.554   8.869   4.492
11954TIP3   OH235746   2.457   8.802   4.554
11954TIP3    H135747   2.361   8.803   4.551
11954TIP3    H235748   2.483   8.745   4.482
11955TIP3   OH235749   2.078   8.445   3.185
11955TIP3    H135750   2.119   8.384   3.123
11955TIP3    H235751   2.145   8.513   3.199
11956TIP3   OH235752   0.537   8.229   3.926
11956TIP3    H135753   0.465   8.222   3.988
11956TIP3    H235754   0.511   8.300   3.867
11957TIP3   OH235755   0.737   8.485   4.802
11957TIP3    H135756   0.697   8.419   4.859
11957TIP3    H235757   0.671   8.502   4.736
11958TIP3   OH235758   2.356   8.522   4.485
11958TIP3    H135759   2.268   8.494   4.463
11958TIP3    H235760   2.410   8.444   4.474
11959TIP3   OH235761   1.630   8.510   4.127
11959TIP3    H135762   1.552   8.457   4.147
11959TIP3    H235763   1.677   8.460   4.061
11960TIP3   OH235764   2.069   8.418   4.020
11960TIP3    H135765   2.109   8.462   3.944
11960TIP3    H235766   1.975   8.422   4.003
11961TIP3   OH235767   2.200   8.483   3.787
11961TIP3    H135768   2.264   8.415   3.764
11961TIP3    H235769   2.242   8.565   3.760
11962TIP3   OH235770   0.795   8.175   4.110
11962TIP3    H135771   0.707   8.139   4.117
11962TIP3    H235772   0.853   8.099   4.107
11963TIP3   OH235773   0.634   8.048   3.741
11963TIP3    H135774   0.655   8.099   3.662
11963TIP3    H235775   0.604   8.113   3.804
11964TIP3   OH235776   1.287   8.220   4.016
11964TIP3    H135777   1.343   8.253   3.945
11964TIP3    H235778   1.330   8.248   4.096
11965TIP3   OH235779   1.797   8.359   3.967
11965TIP3    H135780   1.822   8.317   3.885
11965TIP3    H235781   1.794   8.288   4.031
11966TIP3   OH235782   1.844   8.315   3.551
11966TIP3    H135783   1.767   8.365   3.578
11966TIP3    H235784   1.832   8.229   3.591
11967TIP3   OH235785   0.732   8.203   3.521
11967TIP3    H135786   0.785   8.153   3.459
11967TIP3    H235787   0.796   8.253   3.572
11968TIP3   OH235788   1.184   8.360   3.617
11968TIP3    H135789   1.219   8.274   3.639
11968TIP3    H235790   1.239   8.422   3.665
11969TIP3   OH235791   1.045   8.464   4.980
11969TIP3    H135792   1.007   8.401   5.041
11969TIP3    H235793   1.138   8.468   5.005
11970TIP3   OH235794   1.288   8.471   5.109
11970TIP3    H135795   1.368   8.449   5.060
11970TIP3    H235796   1.281   8.401   5.175
11971TIP3   OH235797   2.110   8.562   4.896
11971TIP3    H135798   2.127   8.533   4.986
11971TIP3    H235799   2.195   8.559   4.853
11972TIP3   OH235800   2.356   8.945   3.478
11972TIP3    H135801   2.359   9.008   3.405
11972TIP3    H235802   2.286   8.884   3.454
11973TIP3   OH235803   4.135   9.039   3.594
11973TIP3    H135804   4.131   9.131   3.571
11973TIP3    H235805   4.177   8.997   3.519
11974TIP3   OH235806   3.505   9.127   3.594
11974TIP3    H135807   3.557   9.055   3.629
11974TIP3    H235808   3.473   9.094   3.510
11975TIP3   OH235809   2.882   8.757   3.606
11975TIP3    H135810   2.886   8.833   3.549
11975TIP3    H235811   2.830   8.693   3.557
11976TIP3   OH235812   3.568   8.937   3.182
11976TIP3    H135813   3.634   8.925   3.250
11976TIP3    H235814   3.619   8.952   3.102
11977TIP3   OH235815   2.463   9.013   3.725
11977TIP3    H135816   2.545   8.964   3.717
11977TIP3    H235817   2.416   8.994   3.643
11978TIP3   OH235818   6.215   0.087   3.460
11978TIP3    H135819   6.285   0.027   3.432
11978TIP3    H235820   6.135   0.048   3.424
11979TIP3   OH235821   7.462   0.034   3.802
11979TIP3    H135822   7.468   0.022   3.707
11979TIP3    H235823   7.395  -0.029   3.830
11980TIP3   OH235824   2.866   8.822   4.028
11980TIP3    H135825   2.810   8.849   3.955
11980TIP3    H235826   2.817   8.848   4.106
11981TIP3   OH235827   3.708   8.910   3.412
11981TIP3    H135828   3.677   8.864   3.490
11981TIP3    H235829   3.760   8.982   3.446
11982TIP3   OH235830   2.722   8.894   3.804
11982TIP3    H135831   2.763   8.980   3.800
11982TIP3    H235832   2.761   8.846   3.731
11983TIP3   OH235833   3.912   8.948   3.750
11983TIP3    H135834   3.826   8.942   3.709
11983TIP3    H235835   3.971   8.971   3.678
11984TIP3   OH235836   3.188   8.567   3.722
11984TIP3    H135837   3.211   8.482   3.761
11984TIP3    H235838   3.115   8.599   3.775
11985TIP3   OH235839   3.082   9.139   2.851
11985TIP3    H135840   3.097   9.227   2.886
11985TIP3    H235841   3.145   9.132   2.780
11986TIP3   OH235842   7.093   0.303   3.745
11986TIP3    H135843   7.064   0.388   3.779
11986TIP3    H235844   7.015   0.267   3.702
11987TIP3   OH235845   3.821   8.504   2.837
11987TIP3    H135846   3.745   8.523   2.891
11987TIP3    H235847   3.833   8.582   2.783
11988TIP3   OH235848   7.217   0.164   4.004
11988TIP3    H135849   7.133   0.162   3.958
11988TIP3    H235850   7.250   0.074   3.997
11989TIP3   OH235851   2.961   8.615   3.878
11989TIP3    H135852   2.887   8.601   3.819
11989TIP3    H235853   2.935   8.691   3.931
11990TIP3   OH235854   3.790   9.152   4.089
11990TIP3    H135855   3.734   9.127   4.163
11990TIP3    H235856   3.737   9.214   4.039
11991TIP3   OH235857   3.132   8.608   2.863
11991TIP3    H135858   3.078   8.626   2.940
11991TIP3    H235859   3.085   8.541   2.815
11992TIP3   OH235860   2.832   9.140   3.830
11992TIP3    H135861   2.813   9.151   3.923
11992TIP3    H235862   2.820   9.227   3.792
11993TIP3   OH235863   2.863   8.953   3.414
11993TIP3    H135864   2.774   8.957   3.449
11993TIP3    H235865   2.850   8.947   3.319
11994TIP3   OH235866   3.263   9.030   3.093
11994TIP3    H135867   3.305   9.115   3.107
11994TIP3    H235868   3.303   8.997   3.012
11995TIP3   OH235869   6.729   0.141   4.205
11995TIP3    H135870   6.715   0.049   4.227
11995TIP3    H235871   6.822   0.155   4.221
11996TIP3   OH235872   3.393   9.047   3.361
11996TIP3    H135873   3.314   9.054   3.307
11996TIP3    H235874   3.458   9.008   3.302
11997TIP3   OH235875   2.737   9.172   4.103
11997TIP3    H135876   2.664   9.208   4.152
11997TIP3    H235877   2.751   9.085   4.141
11998TIP3   OH235878   2.728   8.599   2.786
11998TIP3    H135879   2.721   8.669   2.851
11998TIP3    H235880   2.712   8.642   2.702
11999TIP3   OH235881   2.350   8.677   3.662
11999TIP3    H135882   2.435   8.692   3.704
11999TIP3    H235883   2.369   8.624   3.585
12000TIP3   OH235884   2.264   8.648   3.219
12000TIP3    H135885   2.282   8.667   3.128
12000TIP3    H235886   2.227   8.729   3.254
12001TIP3   OH235887   6.720   0.060   3.802
12001TIP3    H135888   6.719  -0.012   3.739
12001TIP3    H235889   6.663   0.031   3.873
12002TIP3   OH235890   3.125   8.779   3.452
12002TIP3    H135891   3.055   8.741   3.506
12002TIP3    H235892   3.159   8.851   3.505
12003TIP3   OH235893   2.619   8.875   3.526
12003TIP3    H135894   2.533   8.896   3.488
12003TIP3    H235895   2.642   8.790   3.489
12004TIP3   OH235896   2.844   8.945   3.137
12004TIP3    H135897   2.932   8.909   3.139
12004TIP3    H235898   2.806   8.912   3.055
12005TIP3   OH235899   3.623   8.902   3.705
12005TIP3    H135900   3.613   8.911   3.800
12005TIP3    H235901   3.551   8.845   3.678
12006TIP3   OH235902   2.678   8.830   2.949
12006TIP3    H135903   2.591   8.867   2.965
12006TIP3    H235904   2.699   8.857   2.859
12007TIP3   OH235905   3.221   8.989   3.598
12007TIP3    H135906   3.302   8.937   3.597
12007TIP3    H235907   3.199   8.997   3.690
12008TIP3   OH235908   2.700   8.633   3.431
12008TIP3    H135909   2.663   8.554   3.471
12008TIP3    H235910   2.702   8.614   3.337
12009TIP3   OH235911   3.165   9.022   3.863
12009TIP3    H135912   3.112   8.972   3.925
12009TIP3    H235913   3.244   9.045   3.912
12010TIP3   OH235914   3.337   8.783   2.866
12010TIP3    H135915   3.265   8.721   2.867
12010TIP3    H235916   3.325   8.834   2.786
12011TIP3   OH235917   3.450   9.112   2.880
12011TIP3    H135918   3.521   9.047   2.873
12011TIP3    H235919   3.406   9.108   2.796
12012TIP3   OH235920   6.521   0.287   4.309
12012TIP3    H135921   6.462   0.303   4.236
12012TIP3    H235922   6.596   0.241   4.270
12013TIP3   OH235923   3.864   9.121   2.727
12013TIP3    H135924   3.790   9.109   2.667
12013TIP3    H235925   3.854   9.211   2.758
12014TIP3   OH235926   2.712   8.902   4.241
12014TIP3    H135927   2.616   8.904   4.243
12014TIP3    H235928   2.735   8.838   4.308
12015TIP3   OH235929   3.570   8.920   3.979
12015TIP3    H135930   3.650   8.910   4.031
12015TIP3    H235931   3.514   8.847   4.007
12016TIP3   OH235932   3.417   8.720   3.119
12016TIP3    H135933   3.387   8.744   3.031
12016TIP3    H235934   3.463   8.798   3.150
12017TIP3   OH235935   3.091   8.846   3.189
12017TIP3    H135936   3.158   8.908   3.159
12017TIP3    H235937   3.107   8.838   3.283
12018TIP3   OH235938   3.376   9.114   4.013
12018TIP3    H135939   3.368   9.115   4.108
12018TIP3    H235940   3.445   9.051   3.995
12019TIP3   OH235941   3.244   8.593   3.291
12019TIP3    H135942   3.213   8.665   3.345
12019TIP3    H235943   3.304   8.633   3.229
12020TIP3   OH235944   2.713   8.623   3.139
12020TIP3    H135945   2.696   8.703   3.090
12020TIP3    H235946   2.807   8.607   3.128
12021TIP3   OH235947   4.017   9.110   3.952
12021TIP3    H135948   3.941   9.115   4.010
12021TIP3    H235949   3.992   9.046   3.886
12022TIP3   OH235950   6.932   0.004   3.312
12022TIP3    H135951   6.903   0.074   3.371
12022TIP3    H235952   6.987  -0.052   3.367
12023TIP3   OH235953   2.255   8.732   2.963
12023TIP3    H135954   2.172   8.773   2.938
12023TIP3    H235955   2.273   8.669   2.893
12024TIP3   OH235956   2.676   8.538   3.836
12024TIP3    H135957   2.655   8.503   3.750
12024TIP3    H235958   2.679   8.461   3.893
12025TIP3   OH235959   6.024   0.221   4.455
12025TIP3    H135960   6.059   0.134   4.472
12025TIP3    H235961   5.974   0.242   4.534
12026TIP3   OH235962   6.296  -0.027   4.126
12026TIP3    H135963   6.206   0.002   4.139
12026TIP3    H235964   6.338   0.047   4.082
12027TIP3   OH235965   2.811   9.130   2.802
12027TIP3    H135966   2.809   9.126   2.706
12027TIP3    H235967   2.904   9.141   2.823
12028TIP3   OH235968   3.111   9.031   4.308
12028TIP3    H135969   3.116   8.957   4.247
12028TIP3    H235970   3.076   9.103   4.255
12029TIP3   OH235971   3.136   8.857   4.098
12029TIP3    H135972   3.200   8.789   4.082
12029TIP3    H235973   3.052   8.818   4.074
12030TIP3   OH235974   6.940   0.083   4.435
12030TIP3    H135975   6.947  -0.009   4.412
12030TIP3    H235976   7.026   0.120   4.414
12031TIP3   OH235977   2.860   9.212   4.460
12031TIP3    H135978   2.856   9.120   4.486
12031TIP3    H235979   2.954   9.231   4.452
12032TIP3   OH235980   3.369   9.124   4.291
12032TIP3    H135981   3.373   9.171   4.373
12032TIP3    H235982   3.284   9.080   4.292
12033TIP3   OH235983   3.640   9.066   4.303
12033TIP3    H135984   3.544   9.069   4.303
12033TIP3    H235985   3.661   8.973   4.311
12034TIP3   OH235986   2.797   8.966   4.568
12034TIP3    H135987   2.807   8.881   4.527
12034TIP3    H235988   2.848   8.960   4.649
12035TIP3   OH235989   3.307   8.679   4.396
12035TIP3    H135990   3.370   8.608   4.410
12035TIP3    H235991   3.310   8.695   4.302
12036TIP3   OH235992   3.420   8.889   4.530
12036TIP3    H135993   3.392   8.818   4.472
12036TIP3    H235994   3.342   8.943   4.541
12037TIP3   OH235995   3.669   9.080   2.538
12037TIP3    H135996   3.704   9.099   2.451
12037TIP3    H235997   3.650   8.986   2.536
12038TIP3   OH235998   6.949   0.192   3.110
12038TIP3    H135999   6.956   0.118   3.171
12038TIP3    H236000   6.908   0.262   3.161
12039TIP3   OH236001   7.512   0.237   3.982
12039TIP3    H136002   7.459   0.303   3.938
12039TIP3    H236003   7.493   0.156   3.934
12040TIP3   OH236004   3.636   8.806   2.534
12040TIP3    H136005   3.712   8.772   2.582
12040TIP3    H236006   3.564   8.747   2.558
12041TIP3   OH236007   3.685   8.971   2.935
12041TIP3    H136008   3.742   8.894   2.935
12041TIP3    H236009   3.743   9.045   2.951
12042TIP3   OH236010   3.842   9.128   3.500
12042TIP3    H136011   3.917   9.118   3.441
12042TIP3    H236012   3.875   9.182   3.572
12043TIP3   OH236013   7.178   0.043   3.717
12043TIP3    H136014   7.114   0.001   3.775
12043TIP3    H236015   7.154   0.136   3.718
12044TIP3   OH236016   2.542   9.063   4.513
12044TIP3    H136017   2.635   9.046   4.499
12044TIP3    H236018   2.506   8.980   4.544
12045TIP3   OH236019   4.361   8.935   4.261
12045TIP3    H136020   4.436   8.880   4.237
12045TIP3    H236021   4.339   8.983   4.182
12046TIP3   OH236022   3.845   8.759   3.024
12046TIP3    H136023   3.887   8.754   3.110
12046TIP3    H236024   3.777   8.692   3.026
12047TIP3   OH236025   2.510   8.745   3.895
12047TIP3    H136026   2.562   8.665   3.890
12047TIP3    H236027   2.571   8.815   3.872
12048TIP3   OH236028   2.335   9.074   3.964
12048TIP3    H136029   2.404   9.043   3.905
12048TIP3    H236030   2.264   9.101   3.906
12049TIP3   OH236031   4.281   9.070   4.038
12049TIP3    H136032   4.192   9.100   4.019
12049TIP3    H236033   4.293   8.994   3.981
12050TIP3   OH236034   3.867   8.713   2.662
12050TIP3    H136035   3.904   8.650   2.600
12050TIP3    H236036   3.929   8.786   2.660
12051TIP3   OH236037   2.324   8.507   3.439
12051TIP3    H136038   2.236   8.485   3.471
12051TIP3    H236039   2.309   8.563   3.363
12052TIP3   OH236040   2.506   8.638   4.282
12052TIP3    H136041   2.447   8.591   4.340
12052TIP3    H236042   2.451   8.668   4.210
12053TIP3   OH236043   4.169   8.792   3.976
12053TIP3    H136044   4.080   8.767   3.949
12053TIP3    H236045   4.220   8.711   3.970
12054TIP3   OH236046   3.396   8.766   3.619
12054TIP3    H136047   3.334   8.702   3.655
12054TIP3    H236048   3.448   8.715   3.557
12055TIP3   OH236049   3.871   8.677   3.506
12055TIP3    H136050   3.908   8.721   3.430
12055TIP3    H236051   3.777   8.674   3.490
12056TIP3   OH236052   3.996   8.731   3.261
12056TIP3    H136053   4.059   8.664   3.234
12056TIP3    H236054   4.039   8.814   3.239
12057TIP3   OH236055   2.596   8.431   3.593
12057TIP3    H136056   2.507   8.397   3.602
12057TIP3    H236057   2.651   8.353   3.591
12058TIP3   OH236058   2.415   8.327   3.232
12058TIP3    H136059   2.446   8.376   3.156
12058TIP3    H236060   2.396   8.395   3.298
12059TIP3   OH236061   3.071   8.481   3.484
12059TIP3    H136062   3.128   8.513   3.414
12059TIP3    H236063   3.111   8.514   3.565
12060TIP3   OH236064   3.592   8.626   3.475
12060TIP3    H136065   3.596   8.589   3.387
12060TIP3    H236066   3.594   8.550   3.533
12061TIP3   OH236067   3.639   8.575   3.033
12061TIP3    H136068   3.559   8.624   3.057
12061TIP3    H236069   3.627   8.489   3.074
12062TIP3   OH236070   2.528   8.463   3.007
12062TIP3    H136071   2.580   8.414   2.943
12062TIP3    H236072   2.592   8.516   3.054
12063TIP3   OH236073   2.983   8.616   3.099
12063TIP3    H136074   3.026   8.537   3.133
12063TIP3    H236075   3.030   8.689   3.139
12064TIP3   OH236076   2.825   8.711   4.465
12064TIP3    H136077   2.794   8.647   4.528
12064TIP3    H236078   2.918   8.722   4.486
12065TIP3   OH236079   3.072   8.733   4.585
12065TIP3    H136080   3.150   8.715   4.534
12065TIP3    H236081   3.071   8.664   4.652
12066TIP3   OH236082   4.113   9.166   2.996
12066TIP3    H136083   4.107   9.233   2.928
12066TIP3    H236084   4.025   9.129   3.001
12067TIP3   OH236085   9.209   0.036   3.073
12067TIP3    H136086   9.237   0.116   3.117
12067TIP3    H236087   9.249   0.041   2.987
12068TIP3   OH236088   8.646   0.217   3.094
12068TIP3    H136089   8.664   0.129   3.125
12068TIP3    H236090   8.596   0.205   3.013
12069TIP3   OH236091   4.706   9.057   3.076
12069TIP3    H136092   4.682   9.120   3.008
12069TIP3    H236093   4.664   8.975   3.048
12070TIP3   OH236094   5.370   9.186   2.683
12070TIP3    H136095   5.434   9.179   2.754
12070TIP3    H236096   5.420   9.220   2.609
12071TIP3   OH236097   7.537   0.040   3.212
12071TIP3    H136098   7.606  -0.019   3.180
12071TIP3    H236099   7.465   0.028   3.151
12072TIP3   OH236100   8.014   0.348   2.941
12072TIP3    H136101   8.063   0.269   2.919
12072TIP3    H236102   7.960   0.366   2.864
12073TIP3   OH236103   9.291   0.248   3.241
12073TIP3    H136104   9.202   0.280   3.228
12073TIP3    H236105   9.318   0.287   3.324
12074TIP3   OH236106   4.633   9.094   3.539
12074TIP3    H136107   4.580   9.118   3.462
12074TIP3    H236108   4.579   9.119   3.614
12075TIP3   OH236109   5.527   9.219   2.901
12075TIP3    H136110   5.494   9.197   2.987
12075TIP3    H236111   5.592   9.288   2.917
12076TIP3   OH236112   4.532   9.150   3.292
12076TIP3    H136113   4.559   9.241   3.280
12076TIP3    H236114   4.571   9.104   3.218
12077TIP3   OH236115   5.722   9.201   3.238
12077TIP3    H136116   5.638   9.195   3.193
12077TIP3    H236117   5.786   9.214   3.168
12078TIP3   OH236118   4.983   8.855   3.208
12078TIP3    H136119   5.047   8.823   3.272
12078TIP3    H236120   4.904   8.871   3.260
12079TIP3   OH236121   8.159   0.112   2.215
12079TIP3    H136122   8.197   0.200   2.223
12079TIP3    H236123   8.217   0.067   2.154
12080TIP3   OH236124   8.916   0.541   3.344
12080TIP3    H136125   8.898   0.635   3.343
12080TIP3    H236126   8.830   0.501   3.327
12081TIP3   OH236127   5.621   8.762   2.338
12081TIP3    H136128   5.544   8.779   2.392
12081TIP3    H236129   5.629   8.839   2.282
12082TIP3   OH236130   9.024   0.406   3.559
12082TIP3    H136131   8.984   0.452   3.486
12082TIP3    H236132   9.040   0.317   3.526
12083TIP3   OH236133   4.741   8.890   3.369
12083TIP3    H136134   4.658   8.859   3.333
12083TIP3    H236135   4.719   8.973   3.412
12084TIP3   OH236136   5.286   9.014   3.571
12084TIP3    H136137   5.362   8.981   3.619
12084TIP3    H236138   5.211   8.979   3.617
12085TIP3   OH236139   8.761   0.190   3.460
12085TIP3    H136140   8.736   0.184   3.552
12085TIP3    H236141   8.725   0.274   3.431
12086TIP3   OH236142   4.900   8.929   2.326
12086TIP3    H136143   4.870   8.929   2.416
12086TIP3    H236144   4.866   8.847   2.289
12087TIP3   OH236145   7.869   0.174   3.286
12087TIP3    H136146   7.814   0.183   3.364
12087TIP3    H236147   7.890   0.264   3.261
12088TIP3   OH236148   4.653   9.219   2.865
12088TIP3    H136149   4.585   9.286   2.873
12088TIP3    H236150   4.636   9.179   2.779
12089TIP3   OH236151   8.337   0.127   2.602
12089TIP3    H136152   8.314   0.220   2.604
12089TIP3    H236153   8.391   0.118   2.524
12090TIP3   OH236154   8.588   0.384   3.664
12090TIP3    H136155   8.560   0.407   3.753
12090TIP3    H236156   8.649   0.311   3.677
12091TIP3   OH236157   8.501   0.130   2.837
12091TIP3    H136158   8.433   0.153   2.774
12091TIP3    H236159   8.547   0.056   2.798
12092TIP3   OH236160   7.727   0.183   3.523
12092TIP3    H136161   7.713   0.217   3.611
12092TIP3    H236162   7.655   0.122   3.508
12093TIP3   OH236163   4.567   8.919   2.306
12093TIP3    H136164   4.553   8.913   2.401
12093TIP3    H236165   4.489   8.965   2.274
12094TIP3   OH236166   4.153   8.915   3.124
12094TIP3    H136167   4.174   9.001   3.089
12094TIP3    H236168   4.153   8.857   3.048
12095TIP3   OH236169   4.042   8.929   2.666
12095TIP3    H136170   4.088   8.970   2.592
12095TIP3    H236171   3.980   8.996   2.696
12096TIP3   OH236172   8.430   0.264   3.309
12096TIP3    H136173   8.445   0.195   3.244
12096TIP3    H236174   8.490   0.334   3.284
12097TIP3   OH236175   4.963   9.096   2.942
12097TIP3    H136176   4.890   9.073   2.998
12097TIP3    H236177   5.041   9.071   2.992
12098TIP3   OH236178   4.397   9.116   3.026
12098TIP3    H136179   4.332   9.133   2.958
12098TIP3    H236180   4.445   9.039   2.994
12099TIP3   OH236181   4.597   9.153   2.604
12099TIP3    H136182   4.689   9.170   2.582
12099TIP3    H236183   4.548   9.180   2.526
12100TIP3   OH236184   5.404   9.180   3.147
12100TIP3    H136185   5.375   9.192   3.237
12100TIP3    H236186   5.343   9.115   3.111
12101TIP3   OH236187   4.432   9.209   2.396
12101TIP3    H136188   4.387   9.159   2.328
12101TIP3    H236189   4.488   9.270   2.347
12102TIP3   OH236190   8.384   0.092   3.094
12102TIP3    H136191   8.409   0.062   3.006
12102TIP3    H236192   8.288   0.093   3.092
12103TIP3   OH236193   4.525   8.885   2.943
12103TIP3    H136194   4.475   8.818   2.989
12103TIP3    H236195   4.556   8.842   2.863
12104TIP3   OH236196   8.277   0.006   3.369
12104TIP3    H136197   8.245   0.055   3.293
12104TIP3    H236198   8.371  -0.005   3.354
12105TIP3   OH236199   5.141   9.058   2.343
12105TIP3    H136200   5.051   9.030   2.331
12105TIP3    H236201   5.137   9.153   2.337
12106TIP3   OH236202   8.505   0.095   2.377
12106TIP3    H136203   8.590   0.068   2.412
12106TIP3    H236204   8.526   0.126   2.288
12107TIP3   OH236205   8.406   0.435   4.196
12107TIP3    H136206   8.342   0.403   4.133
12107TIP3    H236207   8.457   0.500   4.147
12108TIP3   OH236208   8.906   0.163   2.247
12108TIP3    H136209   8.843   0.134   2.181
12108TIP3    H236210   8.916   0.257   2.231
12109TIP3   OH236211   4.494   9.149   3.776
12109TIP3    H136212   4.400   9.130   3.775
12109TIP3    H236213   4.533   9.079   3.827
12110TIP3   OH236214   5.300   9.229   3.397
12110TIP3    H136215   5.371   9.285   3.428
12110TIP3    H236216   5.298   9.157   3.459
12111TIP3   OH236217   5.208   8.982   2.598
12111TIP3    H136218   5.183   9.008   2.509
12111TIP3    H236219   5.258   9.056   2.632
12112TIP3   OH236220   4.891   9.158   2.659
12112TIP3    H136221   4.949   9.230   2.633
12112TIP3    H236222   4.910   9.145   2.752
12113TIP3   OH236223   8.374   0.229   3.586
12113TIP3    H136224   8.450   0.283   3.607
12113TIP3    H236225   8.394   0.192   3.500
12114TIP3   OH236226   5.032   8.871   2.777
12114TIP3    H136227   5.020   8.947   2.833
12114TIP3    H236228   5.099   8.899   2.714
12115TIP3   OH236229   4.547   8.881   2.581
12115TIP3    H136230   4.543   8.973   2.607
12115TIP3    H236231   4.640   8.859   2.584
12116TIP3   OH236232   9.032   0.144   3.450
12116TIP3    H136233   8.938   0.158   3.460
12116TIP3    H236234   9.040   0.082   3.377
12117TIP3   OH236235   8.733   0.302   2.802
12117TIP3    H136236   8.659   0.242   2.810
12117TIP3    H236237   8.799   0.267   2.862
12118TIP3   OH236238   4.093   9.109   2.460
12118TIP3    H136239   4.153   9.152   2.399
12118TIP3    H236240   4.009   9.108   2.413
12119TIP3   OH236241   4.479   8.799   3.317
12119TIP3    H136242   4.451   8.767   3.231
12119TIP3    H236243   4.471   8.723   3.375
12120TIP3   OH236244   7.926   0.239   3.843
12120TIP3    H136245   8.011   0.195   3.854
12120TIP3    H236246   7.922   0.260   3.749
12121TIP3   OH236247   7.882   0.127   2.267
12121TIP3    H136248   7.850   0.100   2.180
12121TIP3    H236249   7.977   0.119   2.260
12122TIP3   OH236250   8.185   0.127   3.753
12122TIP3    H136251   8.164   0.045   3.710
12122TIP3    H236252   8.244   0.172   3.692
12123TIP3   OH236253   4.892   9.150   3.592
12123TIP3    H136254   4.930   9.180   3.510
12123TIP3    H236255   4.801   9.129   3.569
12124TIP3   OH236256   8.894   0.385   3.807
12124TIP3    H136257   8.909   0.294   3.831
12124TIP3    H236258   8.948   0.399   3.730
12125TIP3   OH236259   5.032   8.929   3.663
12125TIP3    H136260   4.988   9.009   3.636
12125TIP3    H236261   4.970   8.859   3.641
12126TIP3   OH236262   8.441   0.096   3.862
12126TIP3    H136263   8.458   0.190   3.866
12126TIP3    H236264   8.353   0.088   3.827
12127TIP3   OH236265   8.693   0.138   3.720
12127TIP3    H136266   8.621   0.088   3.759
12127TIP3    H236267   8.768   0.118   3.776
12128TIP3   OH236268   8.915   0.109   3.887
12128TIP3    H136269   8.931   0.014   3.884
12128TIP3    H236270   8.907   0.129   3.980
12129TIP3   OH236271   5.095   8.926   3.927
12129TIP3    H136272   5.166   8.861   3.923
12129TIP3    H236273   5.064   8.933   3.836
12130TIP3   OH236274   5.187   9.148   4.060
12130TIP3    H136275   5.164   9.063   4.023
12130TIP3    H236276   5.181   9.209   3.986
12131TIP3   OH236277   8.725   0.085   2.065
12131TIP3    H136278   8.749   0.120   1.979
12131TIP3    H236279   8.707  -0.008   2.049
12132TIP3   OH236280   8.874   0.285   2.559
12132TIP3    H136281   8.832   0.202   2.537
12132TIP3    H236282   8.829   0.313   2.640
12133TIP3   OH236283   9.252   0.563   3.580
12133TIP3    H136284   9.172   0.513   3.562
12133TIP3    H236285   9.321   0.512   3.537
12134TIP3   OH236286   5.422   9.056   2.026
12134TIP3    H136287   5.496   9.016   2.071
12134TIP3    H236288   5.348   9.000   2.049
12135TIP3   OH236289   8.774   0.036   2.455
12135TIP3    H136290   8.819  -0.047   2.469
12135TIP3    H236291   8.820   0.076   2.382
12136TIP3   OH236292   8.941   0.206   2.963
12136TIP3    H136293   9.018   0.242   2.920
12136TIP3    H236294   8.952   0.230   3.055
12137TIP3   OH236295   9.047   0.357   3.179
12137TIP3    H136296   9.005   0.425   3.233
12137TIP3    H236297   9.072   0.403   3.099
12138TIP3   OH236298   7.745   0.071   3.999
12138TIP3    H136299   7.782   0.026   3.923
12138TIP3    H236300   7.691   0.005   4.042
12139TIP3   OH236301   6.185   9.224   3.740
12139TIP3    H136302   6.252   9.167   3.702
12139TIP3    H236303   6.145   9.267   3.664
12140TIP3   OH236304   5.625   9.035   2.516
12140TIP3    H136305   5.668   9.024   2.601
12140TIP3    H236306   5.561   8.964   2.512
12141TIP3   OH236307   4.307   9.011   3.378
12141TIP3    H136308   4.340   8.925   3.352
12141TIP3    H236309   4.376   9.072   3.349
12142TIP3   OH236310   7.480   0.055   3.502
12142TIP3    H136311   7.492   0.016   3.415
12142TIP3    H236312   7.445   0.142   3.484
12143TIP3   OH236313   9.293   0.079   3.534
12143TIP3    H136314   9.206   0.119   3.527
12143TIP3    H236315   9.284  -0.006   3.490
12144TIP3   OH236316   5.654   8.967   2.156
12144TIP3    H136317   5.702   8.905   2.100
12144TIP3    H236318   5.711   9.044   2.160
12145TIP3   OH236319   4.092   8.781   2.889
12145TIP3    H136320   4.004   8.768   2.923
12145TIP3    H236321   4.081   8.840   2.815
12146TIP3   OH236322   4.309   8.917   3.772
12146TIP3    H136323   4.253   8.862   3.827
12146TIP3    H236324   4.250   8.951   3.705
12147TIP3   OH236325   5.961   9.055   3.454
12147TIP3    H136326   5.874   9.030   3.424
12147TIP3    H236327   6.012   8.974   3.450
12148TIP3   OH236328   5.190   8.996   3.061
12148TIP3    H136329   5.140   8.941   3.122
12148TIP3    H236330   5.262   8.940   3.032
12149TIP3   OH236331   5.683   8.937   2.996
12149TIP3    H136332   5.705   8.981   2.914
12149TIP3    H236333   5.587   8.934   2.997
12150TIP3   OH236334   5.777   9.001   2.744
12150TIP3    H136335   5.847   8.941   2.719
12150TIP3    H236336   5.814   9.088   2.730
12151TIP3   OH236337   4.397   8.684   3.079
12151TIP3    H136338   4.308   8.651   3.093
12151TIP3    H236339   4.451   8.605   3.074
12152TIP3   OH236340   4.211   8.591   2.720
12152TIP3    H136341   4.245   8.641   2.645
12152TIP3    H236342   4.177   8.657   2.780
12153TIP3   OH236343   4.864   8.756   2.974
12153TIP3    H136344   4.924   8.787   2.907
12153TIP3    H236345   4.903   8.786   3.057
12154TIP3   OH236346   5.413   8.846   2.998
12154TIP3    H136347   5.446   8.782   2.934
12154TIP3    H236348   5.434   8.807   3.083
12155TIP3   OH236349   5.430   8.835   2.521
12155TIP3    H136350   5.352   8.883   2.546
12155TIP3    H236351   5.420   8.749   2.564
12156TIP3   OH236352   4.332   8.725   2.500
12156TIP3    H136353   4.377   8.666   2.440
12156TIP3    H236354   4.402   8.780   2.537
12157TIP3   OH236355   4.820   8.907   2.589
12157TIP3    H136356   4.877   8.854   2.645
12157TIP3    H236357   4.843   8.997   2.611
12158TIP3   OH236358   4.615   8.971   3.955
12158TIP3    H136359   4.589   8.916   4.029
12158TIP3    H236360   4.703   9.001   3.977
12159TIP3   OH236361   4.869   9.010   4.069
12159TIP3    H136362   4.944   8.975   4.021
12159TIP3    H236363   4.860   8.952   4.145
12160TIP3   OH236364   5.702   9.080   3.877
12160TIP3    H136365   5.720   9.049   3.965
12160TIP3    H236366   5.785   9.074   3.831
12161TIP3   OH236367   9.116   0.230   2.426
12161TIP3    H136368   9.057   0.267   2.491
12161TIP3    H236369   9.058   0.190   2.360
12162TIP3   OH236370   0.568   0.480   2.571
12162TIP3    H136371   0.592   0.393   2.603
12162TIP3    H236372   0.533   0.464   2.484
12163TIP3   OH236373   9.713   0.121   2.532
12163TIP3    H136374   9.692   0.199   2.481
12163TIP3    H236375   9.654   0.053   2.498
12164TIP3   OH236376   0.638   0.222   2.204
12164TIP3    H136377   0.692   0.216   2.283
12164TIP3    H236378   0.699   0.204   2.133
12165TIP3   OH236379   9.357   0.319   2.708
12165TIP3    H136380   9.450   0.307   2.726
12165TIP3    H236381   9.346   0.293   2.617
12166TIP3   OH236382   9.766   0.482   2.573
12166TIP3    H136383   9.856   0.459   2.549
12166TIP3    H236384   9.712   0.449   2.502
12167TIP3   OH236385   9.716   0.124   2.993
12167TIP3    H136386   9.666   0.162   2.921
12167TIP3    H236387   9.661   0.138   3.070
12168TIP3   OH236388   0.791   0.234   2.429
12168TIP3    H136389   0.740   0.217   2.508
12168TIP3    H236390   0.826   0.322   2.442
12169TIP3   OH236391   9.617   0.237   2.763
12169TIP3    H136392   9.679   0.309   2.774
12169TIP3    H236393   9.651   0.187   2.688
12170TIP3   OH236394   0.914   0.176   2.729
12170TIP3    H136395   0.823   0.197   2.712
12170TIP3    H236396   0.962   0.255   2.705
12171TIP3   OH236397   6.784   9.060   2.732
12171TIP3    H136398   6.779   8.969   2.762
12171TIP3    H236399   6.707   9.101   2.771
12172TIP3   OH236400   0.181   0.470   1.750
12172TIP3    H136401   0.165   0.445   1.841
12172TIP3    H236402   0.168   0.389   1.700
12173TIP3   OH236403   7.464   9.067   1.886
12173TIP3    H136404   7.379   9.079   1.928
12173TIP3    H236405   7.461   9.122   1.808
12174TIP3   OH236406   6.546   9.147   2.851
12174TIP3    H136407   6.462   9.116   2.817
12174TIP3    H236408   6.525   9.228   2.896
12175TIP3   OH236409   0.565   0.034   3.060
12175TIP3    H136410   0.636   0.005   3.118
12175TIP3    H236411   0.485   0.011   3.107
12176TIP3   OH236412   0.799   0.486   2.960
12176TIP3    H136413   0.752   0.475   3.043
12176TIP3    H236414   0.741   0.540   2.907
12177TIP3   OH236415   6.722   9.160   1.859
12177TIP3    H136416   6.680   9.164   1.945
12177TIP3    H236417   6.678   9.088   1.814
12178TIP3   OH236418   9.758   0.479   2.848
12178TIP3    H136419   9.675   0.493   2.893
12178TIP3    H236420   9.742   0.506   2.758
12179TIP3   OH236421   9.622   0.335   2.386
12179TIP3    H136422   9.532   0.314   2.410
12179TIP3    H236423   9.633   0.298   2.299
12180TIP3   OH236424   0.309   0.421   2.096
12180TIP3    H136425   0.287   0.514   2.088
12180TIP3    H236426   0.369   0.404   2.023
12181TIP3   OH236427   0.481   0.648   3.178
12181TIP3    H136428   0.474   0.579   3.244
12181TIP3    H236429   0.569   0.684   3.190
12182TIP3   OH236430   0.456   0.389   2.335
12182TIP3    H136431   0.394   0.408   2.265
12182TIP3    H236432   0.521   0.331   2.295
12183TIP3   OH236433   9.595   0.455   3.102
12183TIP3    H136434   9.510   0.488   3.131
12183TIP3    H236435   9.598   0.365   3.135
12184TIP3   OH236436   6.347   9.175   1.827
12184TIP3    H136437   6.346   9.172   1.923
12184TIP3    H236438   6.261   9.210   1.803
12185TIP3   OH236439   5.909   9.223   2.667
12185TIP3    H136440   5.980   9.258   2.721
12185TIP3    H236441   5.949   9.210   2.581
12186TIP3   OH236442   5.808   9.197   2.170
12186TIP3    H136443   5.846   9.235   2.091
12186TIP3    H236444   5.749   9.265   2.203
12187TIP3   OH236445   0.605   0.614   2.811
12187TIP3    H136446   0.598   0.585   2.720
12187TIP3    H236447   0.518   0.598   2.848
12188TIP3   OH236448   0.172   0.125   2.423
12188TIP3    H136449   0.091   0.107   2.470
12188TIP3    H236450   0.208   0.202   2.467
12189TIP3   OH236451   9.388   0.208   2.453
12189TIP3    H136452   9.294   0.212   2.431
12189TIP3    H236453   9.414   0.119   2.430
12190TIP3   OH236454   9.644   0.197   2.149
12190TIP3    H136455   9.733   0.218   2.122
12190TIP3    H236456   9.588   0.226   2.077
12191TIP3   OH236457   0.641   0.226   2.664
12191TIP3    H136458   0.619   0.248   2.755
12191TIP3    H236459   0.576   0.161   2.639
12192TIP3   OH236460   9.472   0.247   1.936
12192TIP3    H136461   9.440   0.185   1.871
12192TIP3    H236462   9.541   0.295   1.891
12193TIP3   OH236463   0.229   0.374   2.533
12193TIP3    H136464   0.316   0.397   2.500
12193TIP3    H236465   0.240   0.368   2.628
12194TIP3   OH236466   6.252   9.194   2.416
12194TIP3    H136467   6.228   9.118   2.469
12194TIP3    H236468   6.270   9.159   2.329
12195TIP3   OH236469   0.207   0.366   2.812
12195TIP3    H136470   0.124   0.411   2.825
12195TIP3    H236471   0.271   0.420   2.860
12196TIP3   OH236472   0.407   0.083   1.876
12196TIP3    H136473   0.322   0.038   1.869
12196TIP3    H236474   0.384   0.176   1.870
12197TIP3   OH236475   0.460   0.398   1.866
12197TIP3    H136476   0.548   0.366   1.844
12197TIP3    H236477   0.449   0.476   1.811
12198TIP3   OH236478   0.231   0.724   3.281
12198TIP3    H136479   0.161   0.688   3.225
12198TIP3    H236480   0.311   0.710   3.230
12199TIP3   OH236481   9.561   0.192   3.210
12199TIP3    H136482   9.466   0.198   3.216
12199TIP3    H236483   9.587   0.140   3.286
12200TIP3   OH236484   0.583   0.277   2.928
12200TIP3    H136485   0.655   0.318   2.977
12200TIP3    H236486   0.570   0.192   2.972
12201TIP3   OH236487   0.482   0.009   2.128
12201TIP3    H136488   0.454   0.037   2.041
12201TIP3    H236489   0.527   0.085   2.165
12202TIP3   OH236490   0.130   0.216   2.161
12202TIP3    H136491   0.191   0.286   2.140
12202TIP3    H236492   0.146   0.197   2.254
12203TIP3   OH236493   0.398   0.492   2.961
12203TIP3    H136494   0.424   0.545   3.036
12203TIP3    H236495   0.459   0.419   2.961
12204TIP3   OH236496   6.816   9.148   2.292
12204TIP3    H136497   6.790   9.225   2.342
12204TIP3    H236498   6.891   9.177   2.240
12205TIP3   OH236499   6.333   9.165   2.108
12205TIP3    H136500   6.330   9.257   2.132
12205TIP3    H236501   6.426   9.142   2.113
12206TIP3   OH236502   1.052   0.398   2.895
12206TIP3    H136503   0.968   0.438   2.918
12206TIP3    H236504   1.039   0.304   2.912
12207TIP3   OH236505   9.142   0.123   1.961
12207TIP3    H136506   9.224   0.171   1.965
12207TIP3    H236507   9.103   0.149   1.878
12208TIP3   OH236508   6.281   9.072   2.809
12208TIP3    H136509   6.251   9.040   2.723
12208TIP3    H236510   6.276   8.995   2.866
12209TIP3   OH236511   9.590   0.647   3.482
12209TIP3    H136512   9.676   0.614   3.453
12209TIP3    H236513   9.578   0.728   3.433
12210TIP3   OH236514   0.044   0.584   3.110
12210TIP3    H136515  -0.044   0.548   3.119
12210TIP3    H236516   0.058   0.589   3.015
12211TIP3   OH236517   9.712   0.326   1.817
12211TIP3    H136518   9.663   0.283   1.747
12211TIP3    H236519   9.798   0.284   1.815
12212TIP3   OH236520   0.176   0.388   3.249
12212TIP3    H136521   0.182   0.313   3.190
12212TIP3    H236522   0.142   0.459   3.195
12213TIP3   OH236523   0.174   0.201   3.039
12213TIP3    H136524   0.200   0.243   2.957
12213TIP3    H236525   0.083   0.174   3.026
12214TIP3   OH236526   0.782   0.666   3.311
12214TIP3    H136527   0.798   0.572   3.323
12214TIP3    H236528   0.859   0.698   3.265
12215TIP3   OH236529   0.029   0.493   3.463
12215TIP3    H136530  -0.032   0.424   3.487
12215TIP3    H236531   0.074   0.461   3.386
12216TIP3   OH236532   6.832   9.213   3.134
12216TIP3    H136533   6.793   9.293   3.101
12216TIP3    H236534   6.765   9.146   3.120
12217TIP3   OH236535   0.437   0.434   3.341
12217TIP3    H136536   0.438   0.432   3.437
12217TIP3    H236537   0.347   0.411   3.317
12218TIP3   OH236538   0.668   0.399   3.186
12218TIP3    H136539   0.587   0.398   3.238
12218TIP3    H236540   0.737   0.381   3.250
12219TIP3   OH236541   0.876   0.397   3.373
12219TIP3    H136542   0.901   0.305   3.369
12219TIP3    H236543   0.869   0.416   3.467
12220TIP3   OH236544   9.669   0.281   3.546
12220TIP3    H136545   9.673   0.194   3.507
12220TIP3    H236546   9.709   0.271   3.632
12221TIP3   OH236547   6.884   9.197   3.402
12221TIP3    H136548   6.955   9.133   3.404
12221TIP3    H236549   6.861   9.204   3.310
12222TIP3   OH236550   0.437   0.170   3.553
12222TIP3    H136551   0.409   0.099   3.495
12222TIP3    H236552   0.365   0.233   3.550
12223TIP3   OH236553   0.780   0.049   1.664
12223TIP3    H136554   0.871   0.024   1.653
12223TIP3    H236555   0.734  -0.033   1.679
12224TIP3   OH236556   9.400   0.337   3.480
12224TIP3    H136557   9.493   0.345   3.503
12224TIP3    H236558   9.372   0.255   3.520
12225TIP3   OH236559   1.442   0.211   3.190
12225TIP3    H136560   1.505   0.142   3.166
12225TIP3    H236561   1.444   0.271   3.116
12226TIP3   OH236562   0.832   0.102   2.052
12226TIP3    H136563   0.913   0.080   2.098
12226TIP3    H236564   0.791   0.017   2.035
12227TIP3   OH236565   9.382   0.050   2.849
12227TIP3    H136566   9.441  -0.026   2.844
12227TIP3    H236567   9.435   0.124   2.820
12228TIP3   OH236568   9.158   0.373   2.895
12228TIP3    H136569   9.224   0.330   2.840
12228TIP3    H236570   9.152   0.462   2.859
12229TIP3   OH236571   5.890   9.062   2.395
12229TIP3    H136572   5.806   9.045   2.438
12229TIP3    H236573   5.868   9.116   2.319
12230TIP3   OH236574   6.111   9.109   3.218
12230TIP3    H136575   6.056   9.095   3.295
12230TIP3    H236576   6.055   9.158   3.157
12231TIP3   OH236577   1.178   0.043   2.951
12231TIP3    H136578   1.093   0.011   2.921
12231TIP3    H236579   1.241  -0.024   2.923
12232TIP3   OH236580   0.456   0.039   2.593
12232TIP3    H136581   0.388  -0.025   2.616
12232TIP3    H236582   0.510  -0.008   2.529
12233TIP3   OH236583   7.462   9.179   2.425
12233TIP3    H136584   7.501   9.237   2.359
12233TIP3    H236585   7.376   9.216   2.442
12234TIP3   OH236586   1.064   0.041   2.198
12234TIP3    H136587   1.126  -0.029   2.179
12234TIP3    H236588   1.117   0.121   2.193
12235TIP3   OH236589   6.191   8.970   2.568
12235TIP3    H136590   6.102   8.936   2.580
12235TIP3    H236591   6.245   8.892   2.561
12236TIP3   OH236592   6.024   8.875   2.235
12236TIP3    H136593   6.046   8.925   2.156
12236TIP3    H236594   5.984   8.938   2.294
12237TIP3   OH236595   6.673   8.998   2.479
12237TIP3    H136596   6.719   9.050   2.413
12237TIP3    H236597   6.711   9.025   2.562
12238TIP3   OH236598   7.170   9.149   2.430
12238TIP3    H136599   7.171   9.109   2.342
12238TIP3    H236600   7.179   9.075   2.490
12239TIP3   OH236601   7.229   9.101   2.026
12239TIP3    H136602   7.150   9.149   2.051
12239TIP3    H236603   7.218   9.015   2.066
12240TIP3   OH236604   6.122   9.010   2.004
12240TIP3    H136605   6.169   8.947   1.950
12240TIP3    H236606   6.190   9.062   2.046
12241TIP3   OH236607   6.609   9.191   2.106
12241TIP3    H136608   6.668   9.150   2.170
12241TIP3    H236609   6.622   9.285   2.119
12242TIP3   OH236610   6.421   9.258   3.445
12242TIP3    H136611   6.388   9.192   3.506
12242TIP3    H236612   6.514   9.266   3.466
12243TIP3   OH236613   6.668   9.257   3.571
12243TIP3    H136614   6.745   9.233   3.518
12243TIP3    H236615   6.663   9.189   3.638
12244TIP3   OH236616   0.957   0.136   3.362
12244TIP3    H136617   0.972   0.088   3.443
12244TIP3    H236618   1.036   0.121   3.311
12245TIP3   OH236619   2.257   0.606   7.780
12245TIP3    H136620   2.298   0.533   7.825
12245TIP3    H236621   2.267   0.680   7.840
12246TIP3   OH236622   1.780   1.046   7.739
12246TIP3    H136623   1.830   0.978   7.694
12246TIP3    H236624   1.815   1.047   7.828
12247TIP3   OH236625   2.278   0.835   7.935
12247TIP3    H136626   2.201   0.871   7.978
12247TIP3    H236627   2.301   0.899   7.868
12248TIP3   OH236628   1.976   0.896   7.616
12248TIP3    H136629   2.026   0.817   7.599
12248TIP3    H236630   2.039   0.967   7.607
12249TIP3   OH236631   2.142   0.688   7.544
12249TIP3    H136632   2.149   0.606   7.494
12249TIP3    H236633   2.181   0.668   7.629
12250TIP3   OH236634   5.658   5.515   0.421
12250TIP3    H136635   5.644   5.427   0.386
12250TIP3    H236636   5.737   5.546   0.375
12251TIP3   OH236637   5.980   4.983   0.075
12251TIP3    H136638   5.904   5.021   0.119
12251TIP3    H236639   6.005   5.047   0.009
12252TIP3   OH236640   2.310   0.756   6.982
12252TIP3    H136641   2.312   0.851   6.986
12252TIP3    H236642   2.402   0.729   6.981
12253TIP3   OH236643   6.044   5.748   0.470
12253TIP3    H136644   5.969   5.690   0.484
12253TIP3    H236645   6.005   5.834   0.456
12254TIP3   OH236646   1.618   1.075   7.442
12254TIP3    H136647   1.564   1.068   7.363
12254TIP3    H236648   1.579   1.146   7.492
12255TIP3   OH236649   1.806   0.951   7.123
12255TIP3    H136650   1.865   0.883   7.090
12255TIP3    H236651   1.838   0.970   7.211
12256TIP3   OH236652   1.872   1.010   7.383
12256TIP3    H136653   1.783   1.027   7.413
12256TIP3    H236654   1.915   0.968   7.458
12257TIP3   OH236655   5.770   6.129   0.666
12257TIP3    H136656   5.742   6.176   0.587
12257TIP3    H236657   5.776   6.196   0.733
12258TIP3   OH236658   5.749   5.134   0.091
12258TIP3    H136659   5.785   5.210   0.044
12258TIP3    H236660   5.706   5.172   0.168
12259TIP3   OH236661   5.943   5.501   0.571
12259TIP3    H136662   5.867   5.513   0.629
12259TIP3    H236663   5.909   5.450   0.497
12260TIP3   OH236664   2.226   0.824   7.278
12260TIP3    H136665   2.202   0.779   7.359
12260TIP3    H236666   2.254   0.755   7.219
12261TIP3   OH236667   2.017   0.564   7.196
12261TIP3    H136668   2.081   0.533   7.260
12261TIP3    H236669   1.932   0.547   7.236
12262TIP3   OH236670   5.555   5.786   0.235
12262TIP3    H136671   5.509   5.748   0.310
12262TIP3    H236672   5.493   5.847   0.196
12263TIP3   OH236673   2.318   1.029   6.985
12263TIP3    H136674   2.361   1.100   6.937
12263TIP3    H236675   2.242   1.070   7.026
12264TIP3   OH236676   2.189   0.464   7.387
12264TIP3    H136677   2.172   0.382   7.433
12264TIP3    H236678   2.284   0.468   7.379
12265TIP3   OH236679   2.324   1.077   7.812
12265TIP3    H136680   2.265   1.134   7.762
12265TIP3    H236681   2.405   1.128   7.819
12266TIP3   OH236682   1.972   0.760   7.004
12266TIP3    H136683   1.990   0.696   7.073
12266TIP3    H236684   2.057   0.799   6.985
12267TIP3   OH236685   2.345   0.294   6.995
12267TIP3    H136686   2.308   0.235   6.928
12267TIP3    H236687   2.287   0.370   6.993
12268TIP3   OH236688   2.551   1.227   7.849
12268TIP3    H136689   2.540   1.260   7.938
12268TIP3    H236690   2.598   1.297   7.803
12269TIP3   OH236691   5.828   5.888   0.121
12269TIP3    H136692   5.770   5.812   0.126
12269TIP3    H236693   5.915   5.852   0.134
12270TIP3   OH236694   2.462   0.453   7.384
12270TIP3    H136695   2.522   0.521   7.352
12270TIP3    H236696   2.502   0.423   7.466
12271TIP3   OH236697   2.572   0.344   7.616
12271TIP3    H136698   2.527   0.342   7.701
12271TIP3    H236699   2.659   0.378   7.637
12272TIP3   OH236700   2.588   0.729   7.958
12272TIP3    H136701   2.657   0.673   7.924
12272TIP3    H236702   2.595   0.810   7.908
12273TIP3   OH236703   5.713   5.624   0.087
12273TIP3    H136704   5.641   5.668   0.133
12273TIP3    H236705   5.669   5.567   0.024
12274TIP3   OH236706   2.501   0.235   7.214
12274TIP3    H136707   2.439   0.248   7.142
12274TIP3    H236708   2.482   0.307   7.274
12275TIP3   OH236709   5.833   5.211   0.595
12275TIP3    H136710   5.875   5.158   0.663
12275TIP3    H236711   5.802   5.289   0.640
12276TIP3   OH236712   6.091   5.044   0.577
12276TIP3    H136713   6.037   5.037   0.656
12276TIP3    H236714   6.180   5.029   0.608
12277TIP3   OH236715   2.135   1.102   7.548
12277TIP3    H136716   2.189   1.108   7.469
12277TIP3    H236717   2.154   1.184   7.595
12278TIP3   OH236718   5.327   5.923   0.519
12278TIP3    H136719   5.377   5.841   0.516
12278TIP3    H236720   5.279   5.919   0.602
12279TIP3   OH236721   5.082   5.894   0.139
12279TIP3    H136722   5.017   5.826   0.159
12279TIP3    H236723   5.030   5.973   0.126
12280TIP3   OH236724   5.222   5.716   0.310
12280TIP3    H136725   5.150   5.730   0.372
12280TIP3    H236726   5.188   5.746   0.226
12281TIP3   OH236727   2.262   1.342   7.988
12281TIP3    H136728   2.247   1.435   7.972
12281TIP3    H236729   2.250   1.301   7.902
12282TIP3   OH236730   1.537   1.003   7.183
12282TIP3    H136731   1.628   0.993   7.157
12282TIP3    H236732   1.503   0.914   7.190
12283TIP3   OH236733   2.276   1.091   7.308
12283TIP3    H136734   2.262   0.997   7.299
12283TIP3    H236735   2.228   1.129   7.234
12284TIP3   OH236736   5.757   5.753   0.545
12284TIP3    H136737   5.699   5.682   0.517
12284TIP3    H236738   5.724   5.830   0.500
12285TIP3   OH236739   3.767   0.621   7.249
12285TIP3    H136740   3.734   0.707   7.222
12285TIP3    H236741   3.697   0.560   7.225
12286TIP3   OH236742   3.754   0.609   7.648
12286TIP3    H136743   3.798   0.590   7.731
12286TIP3    H236744   3.709   0.527   7.626
12287TIP3   OH236745   3.048   0.580   7.959
12287TIP3    H136746   3.053   0.499   8.009
12287TIP3    H236747   3.128   0.581   7.907
12288TIP3   OH236748   4.031   0.913   7.341
12288TIP3    H136749   4.017   0.850   7.412
12288TIP3    H236750   4.058   0.994   7.386
12289TIP3   OH236751   3.052   0.884   7.706
12289TIP3    H136752   3.026   0.792   7.698
12289TIP3    H236753   3.147   0.883   7.694
12290TIP3   OH236754   2.704   0.118   7.499
12290TIP3    H136755   2.665   0.193   7.545
12290TIP3    H236756   2.638   0.093   7.434
12291TIP3   OH236757   2.832   0.415   7.668
12291TIP3    H136758   2.886   0.341   7.696
12291TIP3    H236759   2.896   0.482   7.642
12292TIP3   OH236760   3.582   0.832   7.652
12292TIP3    H136761   3.627   0.752   7.625
12292TIP3    H236762   3.651   0.888   7.686
12293TIP3   OH236763   3.973   0.316   7.734
12293TIP3    H136764   4.053   0.268   7.755
12293TIP3    H236765   3.953   0.291   7.643
12294TIP3   OH236766   2.981   0.201   7.762
12294TIP3    H136767   3.063   0.172   7.802
12294TIP3    H236768   2.973   0.149   7.683
12295TIP3   OH236769   3.380   0.385   7.600
12295TIP3    H136770   3.473   0.366   7.608
12295TIP3    H236771   3.340   0.301   7.579
12296TIP3   OH236772   4.604   0.376   7.958
12296TIP3    H136773   4.531   0.392   7.899
12296TIP3    H236774   4.656   0.456   7.953
12297TIP3   OH236775   3.667   0.839   7.108
12297TIP3    H136776   3.624   0.814   7.026
12297TIP3    H236777   3.616   0.915   7.139
12298TIP3   OH236778   3.437   0.739   7.866
12298TIP3    H136779   3.374   0.804   7.897
12298TIP3    H236780   3.480   0.781   7.791
12299TIP3   OH236781   3.198   0.085   7.878
12299TIP3    H136782   3.251   0.152   7.921
12299TIP3    H236783   3.261   0.016   7.855
12300TIP3   OH236784   3.258   0.930   7.944
12300TIP3    H136785   3.231   0.998   7.883
12300TIP3    H236786   3.189   0.928   8.010
12301TIP3   OH236787   2.623   0.646   7.257
12301TIP3    H136788   2.595   0.667   7.168
12301TIP3    H236789   2.647   0.731   7.295
12302TIP3   OH236790   4.084   1.159   7.474
12302TIP3    H136791   4.003   1.151   7.524
12302TIP3    H236792   4.079   1.245   7.432
12303TIP3   OH236793   3.778   1.161   7.124
12303TIP3    H136794   3.839   1.087   7.116
12303TIP3    H236795   3.832   1.238   7.109
12304TIP3   OH236796   3.932   0.937   7.085
12304TIP3    H136797   3.853   0.885   7.093
12304TIP3    H236798   3.978   0.924   7.168
12305TIP3   OH236799   4.301   1.048   7.836
12305TIP3    H136800   4.282   0.974   7.778
12305TIP3    H236801   4.286   1.125   7.781
12306TIP3   OH236802   3.598   0.450   7.109
12306TIP3    H136803   3.515   0.492   7.086
12306TIP3    H236804   3.644   0.441   7.026
12307TIP3   OH236805   3.552   0.267   6.794
12307TIP3    H136806   3.620   0.309   6.847
12307TIP3    H236807   3.598   0.196   6.749
12308TIP3   OH236808   4.447   0.672   7.659
12308TIP3    H136809   4.371   0.729   7.667
12308TIP3    H236810   4.503   0.716   7.595
12309TIP3   OH236811   3.948   0.543   7.059
12309TIP3    H136812   3.893   0.574   7.131
12309TIP3    H236813   4.032   0.522   7.100
12310TIP3   OH236814   4.143   0.550   7.951
12310TIP3    H136815   4.172   0.628   8.000
12310TIP3    H236816   4.052   0.569   7.928
12311TIP3   OH236817   3.196   0.525   7.440
12311TIP3    H136818   3.157   0.458   7.383
12311TIP3    H236819   3.264   0.478   7.489
12312TIP3   OH236820   3.313   0.908   7.618
12312TIP3    H136821   3.295   0.928   7.526
12312TIP3    H236822   3.407   0.887   7.619
12313TIP3   OH236823   3.263   0.539   7.796
12313TIP3    H136824   3.307   0.486   7.730
12313TIP3    H236825   3.329   0.603   7.823
12314TIP3   OH236826   3.868   1.157   7.631
12314TIP3    H136827   3.819   1.234   7.661
12314TIP3    H236828   3.837   1.086   7.687
12315TIP3   OH236829   6.680   5.707   0.101
12315TIP3    H136830   6.612   5.774   0.109
12315TIP3    H236831   6.639   5.638   0.048
12316TIP3   OH236832   3.781   0.399   6.895
12316TIP3    H136833   3.840   0.456   6.944
12316TIP3    H236834   3.813   0.403   6.805
12317TIP3   OH236835   6.564   5.190   0.112
12317TIP3    H136836   6.595   5.277   0.138
12317TIP3    H236837   6.469   5.197   0.112
12318TIP3   OH236838   3.506   1.153   7.134
12318TIP3    H136839   3.600   1.151   7.152
12318TIP3    H236840   3.470   1.209   7.202
12319TIP3   OH236841   6.478   5.888   0.149
12319TIP3    H136842   6.459   5.880   0.055
12319TIP3    H236843   6.393   5.882   0.192
12320TIP3   OH236844   3.061   0.360   7.259
12320TIP3    H136845   2.972   0.388   7.238
12320TIP3    H236846   3.052   0.267   7.281
12321TIP3   OH236847   4.106   1.008   6.519
12321TIP3    H136848   4.102   1.102   6.500
12321TIP3    H236849   4.197   0.984   6.498
12322TIP3   OH236850   6.092   5.459   0.098
12322TIP3    H136851   6.024   5.474   0.031
12322TIP3    H236852   6.092   5.364   0.110
12323TIP3   OH236853   2.674   0.972   7.849
12323TIP3    H136854   2.764   1.003   7.854
12323TIP3    H236855   2.621   1.051   7.861
12324TIP3   OH236856   4.530   1.419   7.887
12324TIP3    H136857   4.535   1.325   7.899
12324TIP3    H236858   4.453   1.446   7.937
12325TIP3   OH236859   6.927   5.800   0.032
12325TIP3    H136860   6.921   5.895   0.032
12325TIP3    H236861   6.838   5.770   0.049
12326TIP3   OH236862   3.333   1.364   6.870
12326TIP3    H136863   3.421   1.330   6.886
12326TIP3    H236864   3.322   1.435   6.934
12327TIP3   OH236865   2.847   1.139   7.343
12327TIP3    H136866   2.895   1.131   7.425
12327TIP3    H236867   2.802   1.055   7.333
12328TIP3   OH236868   3.597   1.226   6.620
12328TIP3    H136869   3.656   1.156   6.592
12328TIP3    H236870   3.618   1.238   6.713
12329TIP3   OH236871   3.621   1.267   6.904
12329TIP3    H136872   3.568   1.222   6.970
12329TIP3    H236873   3.711   1.259   6.935
12330TIP3   OH236874   7.728   5.100   0.168
12330TIP3    H136875   7.652   5.135   0.121
12330TIP3    H236876   7.769   5.041   0.105
12331TIP3   OH236877   6.335   5.584   0.135
12331TIP3    H136878   6.330   5.597   0.230
12331TIP3    H236879   6.249   5.551   0.110
12332TIP3   OH236880   7.351   4.932   0.079
12332TIP3    H136881   7.395   4.955   0.160
12332TIP3    H236882   7.378   4.999   0.016
12333TIP3   OH236883   3.867   0.371   6.630
12333TIP3    H136884   3.817   0.383   6.550
12333TIP3    H236885   3.946   0.424   6.618
12334TIP3   OH236886   3.325   0.293   8.000
12334TIP3    H136887   3.247   0.340   8.028
12334TIP3    H236888   3.379   0.360   7.957
12335TIP3   OH236889   3.232   0.168   7.519
12335TIP3    H136890   3.146   0.134   7.543
12335TIP3    H236891   3.244   0.139   7.428
12336TIP3   OH236892   3.721   0.250   7.259
12336TIP3    H136893   3.673   0.323   7.219
12336TIP3    H236894   3.777   0.218   7.188
12337TIP3   OH236895   7.254   5.243   0.219
12337TIP3    H136896   7.184   5.195   0.264
12337TIP3    H236897   7.329   5.183   0.221
12338TIP3   OH236898   3.898   0.258   7.473
12338TIP3    H136899   3.829   0.279   7.410
12338TIP3    H236900   3.936   0.176   7.441
12339TIP3   OH236901   6.345   4.980   0.105
12339TIP3    H136902   6.330   4.996   0.198
12339TIP3    H236903   6.304   4.894   0.089
12340TIP3   OH236904   3.867   0.515   7.882
12340TIP3    H136905   3.906   0.447   7.828
12340TIP3    H236906   3.847   0.471   7.965
12341TIP3   OH236907   2.970   0.054   7.534
12341TIP3    H136908   2.878   0.073   7.517
12341TIP3    H236909   2.984  -0.031   7.492
12342TIP3   OH236910   3.240   0.077   7.262
12342TIP3    H136911   3.335   0.067   7.253
12342TIP3    H236912   3.206   0.062   7.173
12343TIP3   OH236913   3.141   0.060   7.003
12343TIP3    H136914   3.063   0.040   6.952
12343TIP3    H236915   3.192   0.119   6.948
12344TIP3   OH236916   4.252   1.761   7.977
12344TIP3    H136917   4.251   1.777   7.883
12344TIP3    H236918   4.329   1.808   8.008
12345TIP3   OH236919   6.445   5.538   0.426
12345TIP3    H136920   6.520   5.557   0.482
12345TIP3    H236921   6.369   5.551   0.483
12346TIP3   OH236922   3.652   0.342   7.656
12346TIP3    H136923   3.731   0.296   7.627
12346TIP3    H236924   3.642   0.314   7.747
12347TIP3   OH236925   3.622   0.264   7.919
12347TIP3    H136926   3.558   0.217   7.973
12347TIP3    H236927   3.693   0.286   7.980
12348TIP3   OH236928   3.365   0.588   7.043
12348TIP3    H136929   3.290   0.535   7.015
12348TIP3    H236930   3.334   0.636   7.119
12349TIP3   OH236931   4.235   0.851   7.652
12349TIP3    H136932   4.271   0.901   7.578
12349TIP3    H236933   4.155   0.812   7.618
12350TIP3   OH236934   7.061   5.554   0.046
12350TIP3    H136935   7.022   5.491   0.106
12350TIP3    H236936   7.013   5.635   0.061
12351TIP3   OH236937   3.887   0.184   7.054
12351TIP3    H136938   3.983   0.188   7.063
12351TIP3    H236939   3.867   0.250   6.987
12352TIP3   OH236940   3.034   0.603   7.649
12352TIP3    H136941   3.081   0.592   7.566
12352TIP3    H236942   3.099   0.581   7.716
12353TIP3   OH236943   3.508   0.762   6.882
12353TIP3    H136944   3.462   0.845   6.893
12353TIP3    H236945   3.458   0.700   6.935
12354TIP3   OH236946   6.279   5.026   0.362
12354TIP3    H136947   6.311   5.055   0.448
12354TIP3    H236948   6.194   4.986   0.381
12355TIP3   OH236949   6.934   5.356   0.207
12355TIP3    H136950   6.907   5.298   0.135
12355TIP3    H236951   7.003   5.308   0.252
12356TIP3   OH236952   3.923   1.211   7.942
12356TIP3    H136953   3.831   1.192   7.960
12356TIP3    H236954   3.955   1.252   8.022
12357TIP3   OH236955   4.293   0.247   6.860
12357TIP3    H136956   4.341   0.180   6.812
12357TIP3    H236957   4.286   0.320   6.798
12358TIP3   OH236958   4.548   1.145   7.915
12358TIP3    H136959   4.458   1.115   7.924
12358TIP3    H236960   4.573   1.120   7.826
12359TIP3   OH236961   4.020   1.076   6.789
12359TIP3    H136962   4.004   1.009   6.856
12359TIP3    H236963   4.042   1.026   6.711
12360TIP3   OH236964   4.005   0.719   7.550
12360TIP3    H136965   3.914   0.695   7.566
12360TIP3    H236966   4.044   0.638   7.515
12361TIP3   OH236967   3.172   0.957   7.369
12361TIP3    H136968   3.170   1.033   7.310
12361TIP3    H236969   3.107   0.978   7.436
12362TIP3   OH236970   2.726   0.215   7.062
12362TIP3    H136971   2.772   0.297   7.083
12362TIP3    H236972   2.649   0.217   7.118
12363TIP3   OH236973   3.233   0.719   7.244
12363TIP3    H136974   3.220   0.803   7.288
12363TIP3    H236975   3.223   0.654   7.314
12364TIP3   OH236976   3.457   1.269   7.816
12364TIP3    H136977   3.459   1.362   7.793
12364TIP3    H236978   3.548   1.248   7.837
12365TIP3   OH236979   3.080   1.169   7.197
12365TIP3    H136980   2.997   1.171   7.245
12365TIP3    H236981   3.114   1.258   7.203
12366TIP3   OH236982   3.813   0.925   7.776
12366TIP3    H136983   3.810   0.926   7.871
12366TIP3    H236984   3.887   0.869   7.755
12367TIP3   OH236985   3.790   0.812   6.675
12367TIP3    H136986   3.854   0.780   6.737
12367TIP3    H236987   3.706   0.785   6.711
12368TIP3   OH236988   4.050   1.433   7.829
12368TIP3    H136989   3.989   1.362   7.845
12368TIP3    H236990   4.017   1.477   7.751
12369TIP3   OH236991   4.114   1.282   6.479
12369TIP3    H136992   4.156   1.353   6.429
12369TIP3    H236993   4.036   1.323   6.516
12370TIP3   OH236994   3.980   0.707   6.838
12370TIP3    H136995   3.964   0.661   6.920
12370TIP3    H236996   4.075   0.719   6.836
12371TIP3   OH236997   2.898   1.128   7.909
12371TIP3    H136998   2.994   1.122   7.914
12371TIP3    H236999   2.871   1.145   8.000
12372TIP3   OH237000   3.140   0.773   6.709
12372TIP3    H137001   3.152   0.685   6.673
12372TIP3    H237002   3.135   0.760   6.803
12373TIP3   OH237003   3.103   0.780   6.987
12373TIP3    H137004   3.146   0.751   7.067
12373TIP3    H237005   3.118   0.874   6.984
12374TIP3   OH237006   2.819   0.466   7.157
12374TIP3    H137007   2.757   0.512   7.213
12374TIP3    H237008   2.843   0.529   7.090
12375TIP3   OH237009   3.384   0.997   6.941
12375TIP3    H137010   3.292   1.023   6.935
12375TIP3    H237011   3.420   1.050   7.012
12376TIP3   OH237012   3.516   0.064   7.289
12376TIP3    H137013   3.585   0.127   7.270
12376TIP3    H237014   3.533   0.035   7.378
12377TIP3   OH237015   7.081   4.975   0.098
12377TIP3    H137016   7.066   5.002   0.188
12377TIP3    H237017   7.169   4.937   0.099
12378TIP3   OH237018   3.114   1.058   6.952
12378TIP3    H137019   3.028   1.071   6.913
12378TIP3    H237020   3.108   1.099   7.039
12379TIP3   OH237021   4.097   0.465   7.466
12379TIP3    H137022   4.024   0.403   7.475
12379TIP3    H237023   4.168   0.427   7.518
12380TIP3   OH237024   2.850   0.663   6.954
12380TIP3    H137025   2.926   0.717   6.973
12380TIP3    H237026   2.880   0.601   6.887
12381TIP3   OH237027   9.309   9.176   7.054
12381TIP3    H137028   9.307   9.272   7.053
12381TIP3    H237029   9.249   9.152   7.124
12382TIP3   OH237030   4.090   1.428   7.401
12382TIP3    H137031   4.048   1.475   7.329
12382TIP3    H237032   4.184   1.441   7.387
12383TIP3   OH237033   2.666   0.914   7.333
12383TIP3    H137034   2.637   0.960   7.412
12383TIP3    H237035   2.628   0.964   7.261
12384TIP3   OH237036   6.172   6.090   0.330
12384TIP3    H137037   6.228   6.013   0.328
12384TIP3    H237038   6.084   6.055   0.344
12385TIP3   OH237039   6.696   6.038   0.238
12385TIP3    H137040   6.747   5.967   0.278
12385TIP3    H237041   6.619   5.994   0.201
12386TIP3   OH237042   3.298   0.948   6.569
12386TIP3    H137043   3.246   0.889   6.624
12386TIP3    H237044   3.377   0.898   6.549
12387TIP3   OH237045   7.287   5.944   0.170
12387TIP3    H137046   7.312   5.873   0.229
12387TIP3    H237047   7.355   6.010   0.182
12388TIP3   OH237048   3.743   1.023   6.503
12388TIP3    H137049   3.774   0.958   6.565
12388TIP3    H237050   3.803   1.017   6.429
12389TIP3   OH237051   6.233   5.322   0.576
12389TIP3    H137052   6.168   5.252   0.568
12389TIP3    H237053   6.198   5.394   0.524
12390TIP3   OH237054   2.967   0.476   6.793
12390TIP3    H137055   3.020   0.449   6.868
12390TIP3    H237056   3.031   0.490   6.723
12391TIP3   OH237057   6.839   5.595   0.287
12391TIP3    H137058   6.781   5.617   0.214
12391TIP3    H237059   6.879   5.512   0.261
12392TIP3   OH237060   3.494   0.706   6.612
12392TIP3    H137061   3.493   0.716   6.707
12392TIP3    H237062   3.496   0.611   6.598
12393TIP3   OH237063   4.100   0.995   8.012
12393TIP3    H137064   4.172   1.024   7.955
12393TIP3    H237065   4.024   1.045   7.981
12394TIP3   OH237066   6.361   5.027   0.629
12394TIP3    H137067   6.439   4.987   0.593
12394TIP3    H237068   6.389   5.063   0.713
12395TIP3   OH237069   3.145   0.421   7.000
12395TIP3    H137070   3.127   0.394   7.090
12395TIP3    H237071   3.193   0.346   6.962
12396TIP3   OH237072   6.778   5.046   0.198
12396TIP3    H137073   6.695   5.089   0.177
12396TIP3    H237074   6.838   5.073   0.128
12397TIP3   OH237075   3.281   0.236   6.848
12397TIP3    H137076   3.251   0.242   6.757
12397TIP3    H237077   3.377   0.243   6.842
12398TIP3   OH237078   7.319   5.510   0.255
12398TIP3    H137079   7.320   5.548   0.167
12398TIP3    H237080   7.301   5.417   0.241
12399TIP3   OH237081   4.071   0.523   6.524
12399TIP3    H137082   4.053   0.484   6.438
12399TIP3    H237083   4.047   0.615   6.513
12400TIP3   OH237084   6.862   4.861   0.385
12400TIP3    H137085   6.890   4.804   0.313
12400TIP3    H237086   6.820   4.935   0.342
12401TIP3   OH237087   3.615   0.581   7.995
12401TIP3    H137088   3.686   0.568   7.932
12401TIP3    H237089   3.549   0.631   7.947
12402TIP3   OH237090   7.456   5.053   0.301
12402TIP3    H137091   7.418   5.033   0.387
12402TIP3    H237092   7.527   5.114   0.319
12403TIP3   OH237093   7.518   5.384   0.074
12403TIP3    H137094   7.467   5.463   0.055
12403TIP3    H237095   7.609   5.410   0.059
12404TIP3   OH237096   6.593   4.904   0.559
12404TIP3    H137097   6.566   4.827   0.608
12404TIP3    H237098   6.599   4.874   0.468
12405TIP3   OH237099   7.066   4.929   0.555
12405TIP3    H137100   7.038   4.921   0.646
12405TIP3    H237101   6.994   4.892   0.504
12406TIP3   OH237102   2.574   0.663   6.967
12406TIP3    H137103   2.669   0.676   6.966
12406TIP3    H237104   2.561   0.577   6.928
12407TIP3   OH237105   2.480   1.236   7.414
12407TIP3    H137106   2.414   1.184   7.368
12407TIP3    H237107   2.524   1.174   7.473
12408TIP3   OH237108   2.626   1.064   7.573
12408TIP3    H137109   2.619   1.002   7.646
12408TIP3    H237110   2.680   1.135   7.607
12409TIP3   OH237111   4.361   1.474   7.393
12409TIP3    H137112   4.378   1.498   7.484
12409TIP3    H237113   4.415   1.533   7.342
12410TIP3   OH237114   4.370   1.509   7.671
12410TIP3    H137115   4.323   1.425   7.671
12410TIP3    H237116   4.442   1.495   7.733
12411TIP3   OH237117   7.681   5.848   0.212
12411TIP3    H137118   7.638   5.869   0.295
12411TIP3    H237119   7.732   5.927   0.191
12412TIP3   OH237120   4.258   0.717   6.850
12412TIP3    H137121   4.310   0.793   6.822
12412TIP3    H237122   4.299   0.688   6.931
12413TIP3   OH237123   4.376   0.602   7.071
12413TIP3    H137124   4.308   0.567   7.129
12413TIP3    H237125   4.444   0.634   7.130
12414TIP3   OH237126   4.401   0.985   7.476
12414TIP3    H137127   4.462   0.918   7.444
12414TIP3    H237128   4.407   1.056   7.413
12415TIP3   OH237129   4.233   1.268   7.684
12415TIP3    H137130   4.160   1.308   7.731
12415TIP3    H237131   4.192   1.226   7.608
12416TIP3   OH237132   4.267   0.479   6.711
12416TIP3    H137133   4.200   0.490   6.644
12416TIP3    H237134   4.261   0.559   6.764
12417TIP3   OH237135   4.128   0.183   6.579
12417TIP3    H137136   4.096   0.215   6.663
12417TIP3    H237137   4.057   0.129   6.545
12418TIP3   OH237138   4.172   0.461   7.199
12418TIP3    H137139   4.170   0.366   7.181
12418TIP3    H237140   4.151   0.468   7.292
12419TIP3   OH237141   2.786   0.555   7.896
12419TIP3    H137142   2.791   0.513   7.810
12419TIP3    H237143   2.876   0.581   7.915
12420TIP3   OH237144   7.780   5.448   0.027
12420TIP3    H137145   7.837   5.371   0.036
12420TIP3    H237146   7.806   5.487  -0.057
12421TIP3   OH237147   7.981   5.251   0.025
12421TIP3    H137148   7.967   5.210   0.111
12421TIP3    H237149   8.064   5.297   0.034
12422TIP3   OH237150   4.165   0.196   7.096
12422TIP3    H137151   4.217   0.124   7.132
12422TIP3    H237152   4.207   0.216   7.012
12423TIP3   OH237153   4.301   0.344   7.604
12423TIP3    H137154   4.381   0.355   7.554
12423TIP3    H237155   4.325   0.370   7.693
12424TIP3   OH237156   4.381   0.476   7.836
12424TIP3    H137157   4.296   0.503   7.872
12424TIP3    H237158   4.406   0.547   7.778
12425TIP3   OH237159   2.892   0.164   8.019
12425TIP3    H137160   2.913   0.172   7.926
12425TIP3    H237161   2.833   0.238   8.036
12426TIP3   OH237162   3.885   1.391   7.020
12426TIP3    H137163   3.951   1.380   6.952
12426TIP3    H237164   3.926   1.451   7.083
12427TIP3   OH237165   6.275   5.833   0.346
12427TIP3    H137166   6.210   5.796   0.406
12427TIP3    H237167   6.358   5.825   0.393
12428TIP3   OH237168   3.200   1.201   7.882
12428TIP3    H137169   3.161   1.283   7.852
12428TIP3    H237170   3.292   1.208   7.858
12429TIP3   OH237171   6.920   6.070   0.024
12429TIP3    H137172   6.953   6.095   0.110
12429TIP3    H237173   6.973   6.120  -0.038
12430TIP3   OH237174   3.848   1.622   7.934
12430TIP3    H137175   3.923   1.570   7.905
12430TIP3    H237176   3.882   1.676   8.005
12431TIP3   OH237177   2.883   1.467   7.963
12431TIP3    H137178   2.797   1.479   7.923
12431TIP3    H237179   2.891   1.540   8.024
12432TIP3   OH237180   3.123   1.456   7.838
12432TIP3    H137181   3.041   1.459   7.887
12432TIP3    H237182   3.100   1.487   7.750
12433TIP3   OH237183   3.756   1.410   7.677
12433TIP3    H137184   3.687   1.418   7.613
12433TIP3    H237185   3.816   1.482   7.658
12434TIP3   OH237186   3.979   1.576   7.605
12434TIP3    H137187   3.983   1.666   7.572
12434TIP3    H237188   4.014   1.523   7.533
12435TIP3   OH237189   2.801   1.255   7.685
12435TIP3    H137190   2.822   1.234   7.776
12435TIP3    H237191   2.874   1.220   7.635
12436TIP3   OH237192   3.003   1.112   7.565
12436TIP3    H137193   3.012   1.039   7.626
12436TIP3    H237194   3.088   1.156   7.567
12437TIP3   OH237195   3.255   1.216   7.554
12437TIP3    H137196   3.323   1.182   7.612
12437TIP3    H237197   3.302   1.274   7.493
12438TIP3   OH237198   2.568   1.045   7.111
12438TIP3    H137199   2.480   1.013   7.089
12438TIP3    H237200   2.569   1.136   7.081
12439TIP3   OH237201   3.325   1.213   6.614
12439TIP3    H137202   3.420   1.224   6.610
12439TIP3    H237203   3.311   1.120   6.599
12440TIP3   OH237204   4.061   1.345   6.811
12440TIP3    H137205   4.054   1.249   6.806
12440TIP3    H237206   4.021   1.376   6.730
12441TIP3   OH237207   2.678   1.039   6.776
12441TIP3    H137208   2.669   1.034   6.871
12441TIP3    H237209   2.759   0.991   6.757
12442TIP3   OH237210   4.280   1.487   7.986
12442TIP3    H137211   4.204   1.456   7.935
12442TIP3    H237212   4.269   1.582   7.989
12443TIP3   OH237213   5.549   0.885   6.766
12443TIP3    H137214   5.531   0.975   6.738
12443TIP3    H237215   5.482   0.833   6.720
12444TIP3   OH237216   5.561   0.870   7.159
12444TIP3    H137217   5.600   0.864   7.246
12444TIP3    H237218   5.518   0.786   7.145
12445TIP3   OH237219   4.858   0.792   7.506
12445TIP3    H137220   4.909   0.712   7.514
12445TIP3    H237221   4.890   0.848   7.577
12446TIP3   OH237222   5.822   1.170   6.843
12446TIP3    H137223   5.806   1.111   6.917
12446TIP3    H237224   5.845   1.253   6.884
12447TIP3   OH237225   4.842   1.154   7.201
12447TIP3    H137226   4.819   1.063   7.216
12447TIP3    H237227   4.938   1.155   7.195
12448TIP3   OH237228   4.505   0.371   6.992
12448TIP3    H137229   4.469   0.456   7.019
12448TIP3    H237230   4.429   0.322   6.959
12449TIP3   OH237231   4.613   0.665   7.205
12449TIP3    H137232   4.665   0.588   7.230
12449TIP3    H237233   4.678   0.732   7.185
12450TIP3   OH237234   5.486   1.598   6.852
12450TIP3    H137235   5.514   1.533   6.787
12450TIP3    H237236   5.488   1.550   6.935
12451TIP3   OH237237   5.363   1.088   7.165
12451TIP3    H137238   5.408   1.009   7.135
12451TIP3    H237239   5.433   1.144   7.199
12452TIP3   OH237240   5.786   0.566   7.275
12452TIP3    H137241   5.831   0.490   7.312
12452TIP3    H237242   5.730   0.530   7.207
12453TIP3   OH237243   4.751   0.441   7.298
12453TIP3    H137244   4.833   0.425   7.344
12453TIP3    H237245   4.744   0.370   7.235
12454TIP3   OH237246   5.188   0.695   7.086
12454TIP3    H137247   5.277   0.674   7.115
12454TIP3    H237248   5.172   0.635   7.013
12455TIP3   OH237249   6.308   0.549   7.458
12455TIP3    H137250   6.278   0.626   7.410
12455TIP3    H237251   6.398   0.570   7.484
12456TIP3   OH237252   5.464   1.096   6.608
12456TIP3    H137253   5.424   1.063   6.528
12456TIP3    H237254   5.410   1.171   6.633
12457TIP3   OH237255   5.201   1.005   7.376
12457TIP3    H137256   5.146   1.074   7.412
12457TIP3    H237257   5.245   1.046   7.301
12458TIP3   OH237258   4.995   0.375   7.402
12458TIP3    H137259   5.053   0.428   7.456
12458TIP3    H237260   5.054   0.328   7.343
12459TIP3   OH237261   5.049   1.210   7.481
12459TIP3    H137262   5.025   1.299   7.455
12459TIP3    H237263   4.979   1.182   7.539
12460TIP3   OH237264   4.414   0.925   6.745
12460TIP3    H137265   4.383   0.947   6.658
12460TIP3    H237266   4.440   1.009   6.783
12461TIP3   OH237267   5.862   1.416   6.977
12461TIP3    H137268   5.775   1.409   7.015
12461TIP3    H237269   5.862   1.499   6.930
12462TIP3   OH237270   5.574   1.446   6.636
12462TIP3    H137271   5.628   1.368   6.624
12462TIP3    H237272   5.628   1.518   6.606
12463TIP3   OH237273   5.715   1.216   6.593
12463TIP3    H137274   5.638   1.160   6.593
12463TIP3    H237275   5.762   1.193   6.673
12464TIP3   OH237276   6.096   1.310   7.331
12464TIP3    H137277   6.077   1.237   7.273
12464TIP3    H237278   6.079   1.388   7.278
12465TIP3   OH237279   5.383   0.748   6.585
12465TIP3    H137280   5.294   0.782   6.575
12465TIP3    H237281   5.422   0.758   6.498
12466TIP3   OH237282   5.355   0.531   6.312
12466TIP3    H137283   5.425   0.592   6.336
12466TIP3    H237284   5.360   0.461   6.378
12467TIP3   OH237285   6.278   0.993   7.204
12467TIP3    H137286   6.189   1.029   7.198
12467TIP3    H237287   6.308   0.990   7.113
12468TIP3   OH237288   5.733   0.826   6.556
12468TIP3    H137289   5.687   0.849   6.637
12468TIP3    H237290   5.817   0.791   6.586
12469TIP3   OH237291   5.955   0.853   7.462
12469TIP3    H137292   5.963   0.927   7.522
12469TIP3    H237293   5.862   0.845   7.444
12470TIP3   OH237294   4.962   0.814   6.994
12470TIP3    H137295   4.917   0.731   6.975
12470TIP3    H237296   5.049   0.788   7.025
12471TIP3   OH237297   5.108   1.201   7.100
12471TIP3    H137298   5.084   1.187   7.008
12471TIP3    H237299   5.196   1.164   7.108
12472TIP3   OH237300   5.116   0.746   7.347
12472TIP3    H137301   5.132   0.732   7.254
12472TIP3    H237302   5.138   0.837   7.363
12473TIP3   OH237303   5.624   1.406   7.106
12473TIP3    H137304   5.607   1.487   7.153
12473TIP3    H237305   5.606   1.337   7.170
12474TIP3   OH237306   5.241   1.310   7.653
12474TIP3    H137307   5.179   1.367   7.699
12474TIP3    H237308   5.186   1.257   7.595
12475TIP3   OH237309   5.566   0.703   6.377
12475TIP3    H137310   5.626   0.755   6.430
12475TIP3    H237311   5.589   0.724   6.287
12476TIP3   OH237312   5.323   1.331   6.640
12476TIP3    H137313   5.405   1.381   6.646
12476TIP3    H237314   5.264   1.389   6.592
12477TIP3   OH237315   5.034   1.474   7.734
12477TIP3    H137316   5.010   1.483   7.642
12477TIP3    H237317   4.952   1.458   7.780
12478TIP3   OH237318   4.841   0.616   6.711
12478TIP3    H137319   4.758   0.663   6.704
12478TIP3    H237320   4.844   0.585   6.802
12479TIP3   OH237321   5.914   1.265   6.001
12479TIP3    H137322   5.908   1.359   5.981
12479TIP3    H237323   6.004   1.242   5.978
12480TIP3   OH237324   4.596   1.046   7.665
12480TIP3    H137325   4.524   1.032   7.604
12480TIP3    H237326   4.616   0.959   7.699
12481TIP3   OH237327   4.470   1.217   7.330
12481TIP3    H137328   4.563   1.230   7.346
12481TIP3    H237329   4.429   1.295   7.365
12482TIP3   OH237330   6.333   1.672   7.396
12482TIP3    H137331   6.337   1.577   7.412
12482TIP3    H237332   6.252   1.699   7.439
12483TIP3   OH237333   5.430   1.451   7.516
12483TIP3    H137334   5.425   1.543   7.543
12483TIP3    H237335   5.362   1.407   7.566
12484TIP3   OH237336   5.215   1.551   6.471
12484TIP3    H137337   5.171   1.534   6.388
12484TIP3    H237338   5.179   1.635   6.501
12485TIP3   OH237339   4.647   1.410   6.848
12485TIP3    H137340   4.694   1.403   6.931
12485TIP3    H237341   4.600   1.327   6.839
12486TIP3   OH237342   5.415   1.493   6.095
12486TIP3    H137343   5.465   1.419   6.059
12486TIP3    H237344   5.450   1.504   6.183
12487TIP3   OH237345   5.468   1.529   6.365
12487TIP3    H137346   5.384   1.530   6.409
12487TIP3    H237347   5.530   1.498   6.431
12488TIP3   OH237348   6.232   0.792   7.682
12488TIP3    H137349   6.147   0.833   7.664
12488TIP3    H237350   6.258   0.753   7.599
12489TIP3   OH237351   4.852   1.151   7.658
12489TIP3    H137352   4.898   1.085   7.708
12489TIP3    H237353   4.760   1.122   7.657
12490TIP3   OH237354   5.909   0.587   7.582
12490TIP3    H137355   5.972   0.517   7.564
12490TIP3    H237356   5.946   0.664   7.541
12491TIP3   OH237357   5.633   0.736   6.119
12491TIP3    H137358   5.574   0.733   6.044
12491TIP3    H237359   5.706   0.791   6.090
12492TIP3   OH237360   5.186   0.548   7.521
12492TIP3    H137361   5.126   0.561   7.595
12492TIP3    H237362   5.164   0.618   7.460
12493TIP3   OH237363   4.888   0.544   6.978
12493TIP3    H137364   4.864   0.478   7.043
12493TIP3    H237365   4.977   0.521   6.952
12494TIP3   OH237366   5.568   0.581   6.695
12494TIP3    H137367   5.505   0.633   6.646
12494TIP3    H237368   5.592   0.510   6.636
12495TIP3   OH237369   5.709   0.815   7.791
12495TIP3    H137370   5.675   0.757   7.859
12495TIP3    H237371   5.804   0.816   7.805
12496TIP3   OH237372   5.655   0.683   6.929
12496TIP3    H137373   5.622   0.773   6.918
12496TIP3    H237374   5.642   0.642   6.844
12497TIP3   OH237375   4.985   0.594   7.698
12497TIP3    H137376   4.987   0.683   7.734
12497TIP3    H237377   4.926   0.546   7.756
12498TIP3   OH237378   5.694   0.795   7.391
12498TIP3    H137379   5.721   0.711   7.355
12498TIP3    H237380   5.636   0.772   7.464
12499TIP3   OH237381   4.737   0.260   7.082
12499TIP3    H137382   4.658   0.301   7.050
12499TIP3    H237383   4.713   0.168   7.096
12500TIP3   OH237384   5.068   0.253   6.743
12500TIP3    H137385   5.160   0.257   6.766
12500TIP3    H237386   5.055   0.325   6.681
12501TIP3   OH237387   4.830   0.391   6.533
12501TIP3    H137388   4.773   0.351   6.599
12501TIP3    H237389   4.843   0.481   6.563
12502TIP3   OH237390   6.039   2.013   7.476
12502TIP3    H137391   6.034   2.035   7.383
12502TIP3    H237392   6.116   2.062   7.508
12503TIP3   OH237393   5.435   0.614   7.171
12503TIP3    H137394   5.457   0.525   7.143
12503TIP3    H237395   5.432   0.609   7.266
12504TIP3   OH237396   5.444   0.514   7.428
12504TIP3    H137397   5.358   0.521   7.470
12504TIP3    H237398   5.506   0.546   7.495
12505TIP3   OH237399   5.137   0.862   6.537
12505TIP3    H137400   5.060   0.815   6.506
12505TIP3    H237401   5.111   0.896   6.623
12506TIP3   OH237402   6.036   1.114   7.151
12506TIP3    H137403   6.072   1.167   7.080
12506TIP3    H237404   5.953   1.081   7.117
12507TIP3   OH237405   5.540   1.173   7.556
12507TIP3    H137406   5.591   1.177   7.636
12507TIP3    H237407   5.496   1.258   7.551
12508TIP3   OH237408   5.642   0.450   6.452
12508TIP3    H137409   5.731   0.444   6.488
12508TIP3    H237410   5.633   0.542   6.428
12509TIP3   OH237411   4.816   0.868   7.224
12509TIP3    H137412   4.877   0.854   7.152
12509TIP3    H237413   4.864   0.840   7.302
12510TIP3   OH237414   5.305   1.018   6.392
12510TIP3    H137415   5.260   1.102   6.387
12510TIP3    H237416   5.245   0.961   6.440
12511TIP3   OH237417   4.677   0.827   7.805
12511TIP3    H137418   4.770   0.851   7.800
12511TIP3    H237419   4.677   0.738   7.840
12512TIP3   OH237420   5.470   0.952   7.851
12512TIP3    H137421   5.398   0.898   7.818
12512TIP3    H237422   5.548   0.915   7.810
12513TIP3   OH237423   5.702   1.465   7.444
12513TIP3    H137424   5.606   1.457   7.447
12513TIP3    H237425   5.725   1.508   7.526
12514TIP3   OH237426   6.152   0.488   6.452
12514TIP3    H137427   6.175   0.419   6.390
12514TIP3    H237428   6.095   0.547   6.402
12515TIP3   OH237429   6.344   1.387   7.416
12515TIP3    H137430   6.249   1.377   7.409
12515TIP3    H237431   6.377   1.360   7.330
12516TIP3   OH237432   5.828   1.331   6.266
12516TIP3    H137433   5.802   1.261   6.325
12516TIP3    H237434   5.849   1.287   6.183
12517TIP3   OH237435   5.800   0.990   7.062
12517TIP3    H137436   5.711   0.964   7.084
12517TIP3    H237437   5.848   0.907   7.056
12518TIP3   OH237438   4.966   1.209   6.856
12518TIP3    H137439   4.961   1.284   6.797
12518TIP3    H237440   4.879   1.202   6.895
12519TIP3   OH237441   4.481   0.536   6.543
12519TIP3    H137442   4.537   0.601   6.584
12519TIP3    H237443   4.418   0.512   6.612
12520TIP3   OH237444   5.042   0.960   6.769
12520TIP3    H137445   5.029   1.051   6.794
12520TIP3    H237446   5.010   0.909   6.843
12521TIP3   OH237447   5.246   1.525   7.311
12521TIP3    H137448   5.281   1.600   7.262
12521TIP3    H237449   5.320   1.493   7.362
12522TIP3   OH237450   4.881   1.429   6.704
12522TIP3    H137451   4.795   1.436   6.744
12522TIP3    H237452   4.918   1.518   6.710
12523TIP3   OH237453   5.598   1.187   7.283
12523TIP3    H137454   5.582   1.179   7.377
12523TIP3    H237455   5.686   1.150   7.270
12524TIP3   OH237456   5.594   1.071   6.140
12524TIP3    H137457   5.645   1.042   6.216
12524TIP3    H237458   5.507   1.034   6.154
12525TIP3   OH237459   5.851   1.681   7.323
12525TIP3    H137460   5.780   1.620   7.340
12525TIP3    H237461   5.820   1.735   7.250
12526TIP3   OH237462   5.909   1.536   5.960
12526TIP3    H137463   5.939   1.601   5.896
12526TIP3    H237464   5.835   1.578   6.003
12527TIP3   OH237465   5.770   0.985   6.331
12527TIP3    H137466   5.754   0.941   6.414
12527TIP3    H237467   5.865   0.993   6.326
12528TIP3   OH237468   4.670   1.437   7.462
12528TIP3    H137469   4.724   1.379   7.516
12528TIP3    H237470   4.684   1.524   7.500
12529TIP3   OH237471   4.937   1.065   6.180
12529TIP3    H137472   4.949   0.976   6.149
12529TIP3    H237473   4.926   1.056   6.275
12530TIP3   OH237474   4.884   1.055   6.452
12530TIP3    H137475   4.948   1.028   6.517
12530TIP3    H237476   4.884   1.151   6.456
12531TIP3   OH237477   4.613   0.757   6.650
12531TIP3    H137478   4.549   0.804   6.704
12531TIP3    H237479   4.631   0.816   6.578
12532TIP3   OH237480   5.156   1.242   6.373
12532TIP3    H137481   5.071   1.265   6.410
12532TIP3    H237482   5.179   1.317   6.318
12533TIP3   OH237483   5.338   0.253   6.801
12533TIP3    H137484   5.371   0.334   6.839
12533TIP3    H237485   5.385   0.184   6.850
12534TIP3   OH237486   5.632   0.618   7.605
12534TIP3    H137487   5.634   0.686   7.672
12534TIP3    H237488   5.722   0.587   7.599
12535TIP3   OH237489   4.906   1.326   6.453
12535TIP3    H137490   4.887   1.397   6.392
12535TIP3    H237491   4.896   1.366   6.539
12536TIP3   OH237492   5.929   0.672   6.926
12536TIP3    H137493   5.837   0.685   6.945
12536TIP3    H237494   5.975   0.708   7.002
12537TIP3   OH237495   4.636   0.933   6.433
12537TIP3    H137496   4.711   0.990   6.447
12537TIP3    H237497   4.663   0.872   6.364
12538TIP3   OH237498   4.506   0.221   6.565
12538TIP3    H137499   4.535   0.299   6.612
12538TIP3    H237500   4.483   0.159   6.634
12539TIP3   OH237501   5.881   1.677   6.884
12539TIP3    H137502   5.839   1.731   6.817
12539TIP3    H237503   5.974   1.695   6.875
12540TIP3   OH237504   4.474   1.187   6.830
12540TIP3    H137505   4.435   1.226   6.909
12540TIP3    H237506   4.430   1.232   6.758
12541TIP3   OH237507   4.685   1.724   7.893
12541TIP3    H137508   4.764   1.730   7.946
12541TIP3    H237509   4.673   1.630   7.878
12542TIP3   OH237510   5.142   1.632   7.933
12542TIP3    H137511   5.232   1.600   7.944
12542TIP3    H237512   5.108   1.580   7.860
12543TIP3   OH237513   5.107   1.240   6.054
12543TIP3    H137514   5.055   1.178   6.105
12543TIP3    H237515   5.179   1.188   6.018
12544TIP3   OH237516   5.759   1.576   7.687
12544TIP3    H137517   5.775   1.506   7.751
12544TIP3    H237518   5.832   1.637   7.700
12545TIP3   OH237519   5.540   1.282   5.974
12545TIP3    H137520   5.573   1.217   6.036
12545TIP3    H237521   5.598   1.274   5.898
12546TIP3   OH237522   8.040   5.739   0.071
12546TIP3    H137523   8.099   5.689   0.015
12546TIP3    H237524   7.959   5.745   0.021
12547TIP3   OH237525   4.748   0.749   6.264
12547TIP3    H137526   4.799   0.727   6.343
12547TIP3    H237527   4.814   0.776   6.200
12548TIP3   OH237528   5.390   1.218   7.866
12548TIP3    H137529   5.341   1.235   7.786
12548TIP3    H237530   5.423   1.129   7.856
12549TIP3   OH237531   5.330   0.978   6.123
12549TIP3    H137532   5.311   0.990   6.216
12549TIP3    H237533   5.319   0.884   6.108
12550TIP3   OH237534   5.867   1.241   7.474
12550TIP3    H137535   5.946   1.273   7.430
12550TIP3    H237536   5.803   1.312   7.463
12551TIP3   OH237537   8.214   5.387   0.071
12551TIP3    H137538   8.234   5.432  -0.011
12551TIP3    H237539   8.225   5.454   0.139
12552TIP3   OH237540   4.923   0.704   6.469
12552TIP3    H137541   4.906   0.675   6.559
12552TIP3    H237542   4.977   0.634   6.432
12553TIP3   OH237543   5.274   0.791   7.743
12553TIP3    H137544   5.187   0.828   7.752
12553TIP3    H237545   5.302   0.817   7.655
12554TIP3   OH237546   5.078   0.526   6.332
12554TIP3    H137547   5.038   0.519   6.245
12554TIP3    H237548   5.172   0.530   6.314
12555TIP3   OH237549   5.752   1.123   7.845
12555TIP3    H137550   5.776   1.055   7.782
12555TIP3    H237551   5.745   1.076   7.929
12556TIP3   OH237552   5.874   0.809   5.996
12556TIP3    H137553   5.855   0.757   5.918
12556TIP3    H237554   5.849   0.898   5.972
12557TIP3   OH237555   5.359   0.566   7.870
12557TIP3    H137556   5.355   0.497   7.804
12557TIP3    H237557   5.327   0.644   7.825
12558TIP3   OH237558   5.411   0.899   7.521
12558TIP3    H137559   5.465   0.978   7.530
12558TIP3    H237560   5.337   0.927   7.467
12559TIP3   OH237561   5.969   0.826   7.893
12559TIP3    H137562   6.023   0.747   7.895
12559TIP3    H237563   6.032   0.898   7.899
12560TIP3   OH237564   6.002   1.065   7.634
12560TIP3    H137565   5.943   1.129   7.594
12560TIP3    H237566   6.088   1.088   7.599
12561TIP3   OH237567   8.513   5.253   0.117
12561TIP3    H137568   8.420   5.265   0.097
12561TIP3    H237569   8.550   5.220   0.036
12562TIP3   OH237570   5.598   0.656   7.979
12562TIP3    H137571   5.566   0.704   8.056
12562TIP3    H237572   5.521   0.608   7.947
12563TIP3   OH237573   4.904   1.531   6.268
12563TIP3    H137574   4.995   1.513   6.242
12563TIP3    H237575   4.866   1.576   6.192
12564TIP3   OH237576   4.363   0.928   6.457
12564TIP3    H137577   4.458   0.941   6.451
12564TIP3    H237578   4.348   0.844   6.415
12565TIP3   OH237579   4.269   1.496   6.910
12565TIP3    H137580   4.204   1.442   6.865
12565TIP3    H237581   4.314   1.435   6.969
12566TIP3   OH237582   4.417   1.327   7.073
12566TIP3    H137583   4.409   1.260   7.141
12566TIP3    H237584   4.469   1.397   7.113
12567TIP3   OH237585   6.149   1.741   6.889
12567TIP3    H137586   6.165   1.761   6.981
12567TIP3    H237587   6.190   1.813   6.842
12568TIP3   OH237588   6.166   1.765   7.167
12568TIP3    H137589   6.122   1.680   7.168
12568TIP3    H237590   6.238   1.755   7.230
12569TIP3   OH237591   6.236   1.465   7.740
12569TIP3    H137592   6.161   1.475   7.798
12569TIP3    H237593   6.277   1.551   7.738
12570TIP3   OH237594   6.049   0.995   6.334
12570TIP3    H137595   6.108   1.066   6.309
12570TIP3    H237596   6.091   0.954   6.409
12571TIP3   OH237597   6.169   0.861   6.545
12571TIP3    H137598   6.095   0.825   6.594
12571TIP3    H237599   6.210   0.922   6.606
12572TIP3   OH237600   6.207   1.265   6.992
12572TIP3    H137601   6.256   1.196   6.947
12572TIP3    H237602   6.210   1.339   6.933
12573TIP3   OH237603   6.027   1.524   7.176
12573TIP3    H137604   5.959   1.571   7.224
12573TIP3    H237605   5.981   1.484   7.102
12574TIP3   OH237606   6.097   0.803   6.145
12574TIP3    H137607   6.022   0.810   6.086
12574TIP3    H237608   6.082   0.871   6.211
12575TIP3   OH237609   6.022   0.417   6.040
12575TIP3    H137610   5.940   0.464   6.025
12575TIP3    H237611   6.021   0.394   6.133
12576TIP3   OH237612   5.965   0.706   6.659
12576TIP3    H137613   5.948   0.616   6.630
12576TIP3    H237614   5.965   0.700   6.755
12577TIP3   OH237615   4.589   0.783   7.452
12577TIP3    H137616   4.586   0.744   7.365
12577TIP3    H237617   4.682   0.795   7.470
12578TIP3   OH237618   6.252   1.115   7.532
12578TIP3    H137619   6.321   1.052   7.511
12578TIP3    H237620   6.260   1.182   7.465
12579TIP3   OH237621   6.478   0.946   7.580
12579TIP3    H137622   6.435   0.921   7.662
12579TIP3    H237623   6.550   1.003   7.607
12580TIP3   OH237624   5.889   0.434   6.567
12580TIP3    H137625   5.921   0.351   6.602
12580TIP3    H237626   5.947   0.453   6.493
12581TIP3   OH237627   6.197   0.591   7.122
12581TIP3    H137628   6.208   0.637   7.039
12581TIP3    H237629   6.143   0.649   7.175
12582TIP3   OH237630   6.219   0.797   7.390
12582TIP3    H137631   6.128   0.822   7.406
12582TIP3    H237632   6.247   0.856   7.320
12583TIP3   OH237633   4.540   0.430   7.494
12583TIP3    H137634   4.613   0.436   7.432
12583TIP3    H237635   4.539   0.515   7.538
12584TIP3   OH237636   5.707   1.649   6.523
12584TIP3    H137637   5.766   1.640   6.448
12584TIP3    H237638   5.746   1.718   6.576
12585TIP3   OH237639   4.805   1.447   7.890
12585TIP3    H137640   4.712   1.425   7.883
12585TIP3    H237641   4.829   1.419   7.979
12586TIP3   OH237642   5.013   1.486   7.454
12586TIP3    H137643   4.965   1.563   7.423
12586TIP3    H237644   5.099   1.493   7.412
12587TIP3   OH237645   5.420   1.718   7.594
12587TIP3    H137646   5.456   1.712   7.683
12587TIP3    H237647   5.482   1.773   7.547
12588TIP3   OH237648   5.612   1.876   7.471
12588TIP3    H137649   5.677   1.824   7.424
12588TIP3    H237650   5.663   1.935   7.526
12589TIP3   OH237651   4.683   1.726   7.506
12589TIP3    H137652   4.592   1.745   7.482
12589TIP3    H237653   4.705   1.793   7.572
12590TIP3   OH237654   4.912   1.722   7.354
12590TIP3    H137655   4.830   1.727   7.402
12590TIP3    H237656   4.889   1.746   7.264
12591TIP3   OH237657   5.322   1.737   7.149
12591TIP3    H137658   5.251   1.750   7.087
12591TIP3    H237659   5.335   1.823   7.189
12592TIP3   OH237660   5.583   1.662   7.196
12592TIP3    H137661   5.492   1.688   7.178
12592TIP3    H237662   5.636   1.728   7.151
12593TIP3   OH237663   5.783   1.826   7.094
12593TIP3    H137664   5.792   1.915   7.061
12593TIP3    H237665   5.814   1.771   7.022
12594TIP3   OH237666   4.591   1.508   7.209
12594TIP3    H137667   4.613   1.486   7.300
12594TIP3    H237668   4.664   1.474   7.158
12595TIP3   OH237669   4.798   1.392   7.076
12595TIP3    H137670   4.807   1.309   7.124
12595TIP3    H237671   4.884   1.433   7.083
12596TIP3   OH237672   5.063   1.478   7.106
12596TIP3    H137673   5.082   1.385   7.092
12596TIP3    H237674   5.117   1.502   7.181
12597TIP3   OH237675   4.357   1.307   6.614
12597TIP3    H137676   4.274   1.270   6.585
12597TIP3    H237677   4.358   1.395   6.577
12598TIP3   OH237678   5.162   1.463   6.199
12598TIP3    H137679   5.245   1.493   6.162
12598TIP3    H237680   5.134   1.393   6.141
12599TIP3   OH237681   5.862   1.601   6.298
12599TIP3    H137682   5.855   1.505   6.291
12599TIP3    H237683   5.819   1.634   6.219
12600TIP3   OH237684   4.468   1.306   6.263
12600TIP3    H137685   4.472   1.312   6.359
12600TIP3    H237686   4.547   1.259   6.238
12601TIP3   OH237687   6.078   1.740   7.482
12601TIP3    H137688   6.002   1.710   7.432
12601TIP3    H237689   6.067   1.835   7.489
12602TIP3   OH237690   7.352   1.151   6.259
12602TIP3    H137691   7.325   1.235   6.220
12602TIP3    H237692   7.288   1.088   6.227
12603TIP3   OH237693   7.322   1.122   6.634
12603TIP3    H137694   7.382   1.100   6.705
12603TIP3    H237695   7.272   1.041   6.619
12604TIP3   OH237696   6.637   1.060   6.993
12604TIP3    H137697   6.679   1.003   7.058
12604TIP3    H237698   6.709   1.088   6.936
12605TIP3   OH237699   7.629   1.409   6.340
12605TIP3    H137700   7.593   1.363   6.416
12605TIP3    H237701   7.640   1.499   6.368
12606TIP3   OH237702   6.637   1.424   6.684
12606TIP3    H137703   6.611   1.332   6.687
12606TIP3    H237704   6.732   1.422   6.674
12607TIP3   OH237705   6.340   0.648   6.576
12607TIP3    H137706   6.287   0.726   6.561
12607TIP3    H237707   6.289   0.577   6.537
12608TIP3   OH237708   6.374   0.998   6.681
12608TIP3    H137709   6.424   0.921   6.708
12608TIP3    H237710   6.440   1.062   6.655
12609TIP3   OH237711   7.274   1.860   6.330
12609TIP3    H137712   7.307   1.794   6.269
12609TIP3    H237713   7.261   1.813   6.412
12610TIP3   OH237714   7.152   1.347   6.644
12610TIP3    H137715   7.194   1.264   6.623
12610TIP3    H237716   7.224   1.405   6.669
12611TIP3   OH237717   7.659   0.854   6.657
12611TIP3    H137718   7.681   0.763   6.675
12611TIP3    H237719   7.588   0.849   6.593
12612TIP3   OH237720   6.499   0.775   6.776
12612TIP3    H137721   6.592   0.754   6.782
12612TIP3    H237722   6.468   0.724   6.700
12613TIP3   OH237723   6.930   0.940   6.600
12613TIP3    H137724   7.023   0.924   6.611
12613TIP3    H237725   6.893   0.853   6.582
12614TIP3   OH237726   8.197   0.765   6.864
12614TIP3    H137727   8.194   0.850   6.821
12614TIP3    H237728   8.290   0.749   6.879
12615TIP3   OH237729   7.258   1.347   6.085
12615TIP3    H137730   7.220   1.317   6.002
12615TIP3    H237731   7.205   1.422   6.110
12616TIP3   OH237732   7.014   1.298   6.880
12616TIP3    H137733   6.948   1.364   6.902
12616TIP3    H237734   7.052   1.329   6.798
12617TIP3   OH237735   6.753   0.689   6.790
12617TIP3    H137736   6.827   0.719   6.843
12617TIP3    H237737   6.754   0.594   6.798
12618TIP3   OH237738   6.830   1.477   6.968
12618TIP3    H137739   6.818   1.568   6.940
12618TIP3    H237740   6.753   1.459   7.022
12619TIP3   OH237741   6.228   1.178   6.222
12619TIP3    H137742   6.192   1.199   6.135
12619TIP3    H237743   6.249   1.263   6.260
12620TIP3   OH237744   7.666   1.669   6.440
12620TIP3    H137745   7.584   1.666   6.488
12620TIP3    H237746   7.662   1.750   6.390
12621TIP3   OH237747   7.373   1.703   6.123
12621TIP3    H137748   7.426   1.624   6.113
12621TIP3    H237749   7.429   1.774   6.093
12622TIP3   OH237750   7.510   1.470   6.092
12622TIP3    H137751   7.435   1.411   6.084
12622TIP3    H237752   7.560   1.436   6.166
12623TIP3   OH237753   7.931   1.565   6.800
12623TIP3    H137754   7.877   1.493   6.767
12623TIP3    H237755   7.899   1.580   6.889
12624TIP3   OH237756   7.176   1.000   6.085
12624TIP3    H137757   7.091   1.039   6.066
12624TIP3    H237758   7.228   1.014   6.005
12625TIP3   OH237759   7.156   0.813   5.816
12625TIP3    H137760   7.225   0.875   5.839
12625TIP3    H237761   7.165   0.742   5.879
12626TIP3   OH237762   8.074   1.267   6.662
12626TIP3    H137763   7.981   1.291   6.660
12626TIP3    H237764   8.109   1.303   6.580
12627TIP3   OH237765   7.540   1.093   6.055
12627TIP3    H137766   7.492   1.108   6.137
12627TIP3    H237767   7.623   1.054   6.083
12628TIP3   OH237768   7.722   1.211   6.908
12628TIP3    H137769   7.699   1.303   6.917
12628TIP3    H237770   7.642   1.169   6.876
12629TIP3   OH237771   6.763   1.090   6.445
12629TIP3    H137772   6.709   1.026   6.400
12629TIP3    H237773   6.827   1.038   6.493
12630TIP3   OH237774   6.899   1.455   6.587
12630TIP3    H137775   6.874   1.447   6.495
12630TIP3    H237776   6.987   1.417   6.590
12631TIP3   OH237777   6.841   1.096   6.809
12631TIP3    H137778   6.879   1.054   6.731
12631TIP3    H237779   6.905   1.163   6.833
12632TIP3   OH237780   7.442   1.672   6.587
12632TIP3    H137781   7.417   1.752   6.633
12632TIP3    H237782   7.414   1.601   6.645
12633TIP3   OH237783   7.040   1.566   7.128
12633TIP3    H137784   6.982   1.626   7.176
12633TIP3    H237785   6.981   1.516   7.072
12634TIP3   OH237786   7.365   0.980   5.879
12634TIP3    H137787   7.427   1.027   5.936
12634TIP3    H237788   7.393   1.003   5.791
12635TIP3   OH237789   6.774   1.146   7.301
12635TIP3    H137790   6.781   1.237   7.328
12635TIP3    H237791   6.680   1.126   7.307
12636TIP3   OH237792   7.124   1.585   6.126
12636TIP3    H137793   7.205   1.635   6.131
12636TIP3    H237794   7.063   1.643   6.080
12637TIP3   OH237795   6.833   1.721   7.221
12637TIP3    H137796   6.804   1.737   7.131
12637TIP3    H237797   6.752   1.707   7.270
12638TIP3   OH237798   6.607   0.911   6.317
12638TIP3    H137799   6.553   0.952   6.250
12638TIP3    H237800   6.570   0.823   6.327
12639TIP3   OH237801   7.700   1.517   5.490
12639TIP3    H137802   7.692   1.609   5.464
12639TIP3    H237803   7.790   1.494   5.468
12640TIP3   OH237804   6.420   1.289   7.174
12640TIP3    H137805   6.345   1.284   7.115
12640TIP3    H237806   6.457   1.201   7.174
12641TIP3   OH237807   6.263   1.492   6.838
12641TIP3    H137808   6.352   1.519   6.859
12641TIP3    H237809   6.210   1.569   6.858
12642TIP3   OH237810   7.240   1.702   6.996
12642TIP3    H137811   7.233   1.793   7.024
12642TIP3    H237812   7.170   1.657   7.043
12643TIP3   OH237813   7.017   1.809   5.961
12643TIP3    H137814   6.975   1.790   5.877
12643TIP3    H237815   6.977   1.891   5.991
12644TIP3   OH237816   6.443   1.666   6.330
12644TIP3    H137817   6.487   1.662   6.415
12644TIP3    H237818   6.394   1.584   6.324
12645TIP3   OH237819   7.212   1.744   5.578
12645TIP3    H137820   7.251   1.664   5.543
12645TIP3    H237821   7.251   1.754   5.665
12646TIP3   OH237822   7.269   1.783   5.851
12646TIP3    H137823   7.183   1.787   5.894
12646TIP3    H237824   7.328   1.749   5.918
12647TIP3   OH237825   8.060   1.060   7.038
12647TIP3    H137826   8.000   1.127   7.071
12647TIP3    H237827   8.016   0.977   7.056
12648TIP3   OH237828   6.615   1.484   7.141
12648TIP3    H137829   6.655   1.490   7.228
12648TIP3    H237830   6.546   1.418   7.151
12649TIP3   OH237831   7.778   1.074   7.146
12649TIP3    H137832   7.755   0.982   7.135
12649TIP3    H237833   7.764   1.113   7.060
12650TIP3   OH237834   7.453   1.006   5.626
12650TIP3    H137835   7.402   0.999   5.545
12650TIP3    H237836   7.537   1.044   5.598
12651TIP3   OH237837   6.911   0.865   6.942
12651TIP3    H137838   6.863   0.861   7.025
12651TIP3    H237839   6.867   0.933   6.892
12652TIP3   OH237840   6.837   0.696   6.498
12652TIP3    H137841   6.757   0.682   6.549
12652TIP3    H237842   6.831   0.632   6.427
12653TIP3   OH237843   7.375   0.850   6.198
12653TIP3    H137844   7.297   0.885   6.156
12653TIP3    H237845   7.374   0.757   6.176
12654TIP3   OH237846   7.525   1.174   7.238
12654TIP3    H137847   7.487   1.112   7.301
12654TIP3    H237848   7.617   1.147   7.233
12655TIP3   OH237849   7.488   0.959   6.422
12655TIP3    H137850   7.445   1.042   6.407
12655TIP3    H237851   7.453   0.900   6.355
12656TIP3   OH237852   6.771   0.898   7.172
12656TIP3    H137853   6.772   0.971   7.235
12656TIP3    H237854   6.720   0.830   7.215
12657TIP3   OH237855   7.517   1.044   6.811
12657TIP3    H137856   7.570   0.973   6.773
12657TIP3    H237857   7.491   1.011   6.897
12658TIP3   OH237858   6.604   0.562   6.566
12658TIP3    H137859   6.511   0.579   6.578
12658TIP3    H237860   6.627   0.502   6.638
12659TIP3   OH237861   6.836   0.511   6.301
12659TIP3    H137862   6.880   0.533   6.219
12659TIP3    H237863   6.753   0.473   6.274
12660TIP3   OH237864   6.649   0.723   6.086
12660TIP3    H137865   6.590   0.709   6.159
12660TIP3    H237866   6.734   0.691   6.116
12661TIP3   OH237867   7.834   2.273   6.961
12661TIP3    H137868   7.823   2.305   6.871
12661TIP3    H237869   7.915   2.314   6.991
12662TIP3   OH237870   6.783   1.402   7.400
12662TIP3    H137871   6.860   1.432   7.448
12662TIP3    H237872   6.711   1.411   7.462
12663TIP3   OH237873   7.190   0.867   6.644
12663TIP3    H137874   7.199   0.795   6.581
12663TIP3    H237875   7.177   0.824   6.728
12664TIP3   OH237876   7.214   0.747   6.890
12664TIP3    H137877   7.131   0.701   6.904
12664TIP3    H237878   7.273   0.712   6.957
12665TIP3   OH237879   6.937   1.113   6.012
12665TIP3    H137880   6.857   1.067   5.987
12665TIP3    H237881   6.914   1.161   6.092
12666TIP3   OH237882   7.821   1.394   6.615
12666TIP3    H137883   7.823   1.427   6.526
12666TIP3    H237884   7.740   1.342   6.619
12667TIP3   OH237885   7.391   1.450   7.017
12667TIP3    H137886   7.336   1.378   7.046
12667TIP3    H237887   7.340   1.529   7.036
12668TIP3   OH237888   7.454   0.719   5.921
12668TIP3    H137889   7.526   0.715   5.984
12668TIP3    H237890   7.435   0.813   5.913
12669TIP3   OH237891   6.607   1.147   6.664
12669TIP3    H137892   6.649   1.137   6.579
12669TIP3    H237893   6.674   1.124   6.728
12670TIP3   OH237894   7.106   1.265   5.854
12670TIP3    H137895   7.063   1.350   5.850
12670TIP3    H237896   7.047   1.210   5.906
12671TIP3   OH237897   6.521   1.041   7.320
12671TIP3    H137898   6.517   0.999   7.406
12671TIP3    H237899   6.440   1.013   7.277
12672TIP3   OH237900   7.227   1.229   7.346
12672TIP3    H137901   7.152   1.171   7.330
12672TIP3    H237902   7.271   1.234   7.261
12673TIP3   OH237903   7.516   1.729   6.915
12673TIP3    H137904   7.421   1.717   6.916
12673TIP3    H237905   7.538   1.762   7.002
12674TIP3   OH237906   7.930   0.724   5.953
12674TIP3    H137907   7.945   0.639   5.912
12674TIP3    H237908   7.932   0.787   5.881
12675TIP3   OH237909   7.627   1.587   5.754
12675TIP3    H137910   7.602   1.513   5.810
12675TIP3    H237911   7.647   1.546   5.669
12676TIP3   OH237912   7.572   1.256   6.584
12676TIP3    H137913   7.485   1.218   6.575
12676TIP3    H237914   7.629   1.181   6.601
12677TIP3   OH237915   6.763   1.474   6.344
12677TIP3    H137916   6.755   1.550   6.286
12677TIP3    H237917   6.674   1.460   6.377
12678TIP3   OH237918   6.333   0.767   6.018
12678TIP3    H137919   6.389   0.839   6.049
12678TIP3    H237920   6.250   0.781   6.062
12679TIP3   OH237921   6.852   1.240   6.233
12679TIP3    H137922   6.838   1.330   6.262
12679TIP3    H237923   6.824   1.187   6.307
12680TIP3   OH237924   7.050   1.781   6.795
12680TIP3    H137925   7.081   1.857   6.747
12680TIP3    H237926   7.125   1.751   6.845
12681TIP3   OH237927   6.678   1.687   6.189
12681TIP3    H137928   6.590   1.694   6.226
12681TIP3    H237929   6.714   1.776   6.196
12682TIP3   OH237930   7.394   1.447   6.739
12682TIP3    H137931   7.398   1.445   6.835
12682TIP3    H237932   7.462   1.386   6.711
12683TIP3   OH237933   7.369   1.327   5.651
12683TIP3    H137934   7.434   1.305   5.718
12683TIP3    H237935   7.285   1.305   5.691
12684TIP3   OH237936   7.669   1.920   6.785
12684TIP3    H137937   7.601   1.862   6.818
12684TIP3    H237938   7.624   1.979   6.724
12685TIP3   OH237939   7.695   1.789   5.436
12685TIP3    H137940   7.705   1.844   5.358
12685TIP3    H237941   7.628   1.833   5.488
12686TIP3   OH237942   7.560   1.258   5.832
12686TIP3    H137943   7.548   1.213   5.916
12686TIP3    H237944   7.654   1.266   5.822
12687TIP3   OH237945   6.470   1.680   6.953
12687TIP3    H137946   6.523   1.625   7.011
12687TIP3    H237947   6.482   1.769   6.987
12688TIP3   OH237948   6.727   1.326   5.665
12688TIP3    H137949   6.735   1.240   5.625
12688TIP3    H237950   6.718   1.308   5.759
12689TIP3   OH237951   6.682   1.312   5.941
12689TIP3    H137952   6.738   1.287   6.015
12689TIP3    H237953   6.685   1.408   5.941
12690TIP3   OH237954   6.430   1.009   6.127
12690TIP3    H137955   6.361   1.054   6.176
12690TIP3    H237956   6.446   1.066   6.052
12691TIP3   OH237957   6.965   1.496   5.854
12691TIP3    H137958   6.880   1.516   5.894
12691TIP3    H237959   6.984   1.571   5.798
12692TIP3   OH237960   7.128   0.511   6.249
12692TIP3    H137961   7.098   0.589   6.296
12692TIP3    H237962   7.180   0.464   6.314
12693TIP3   OH237963   7.451   0.973   7.064
12693TIP3    H137964   7.449   1.057   7.111
12693TIP3    H237965   7.500   0.915   7.121
12694TIP3   OH237966   6.716   1.582   5.940
12694TIP3    H137967   6.693   1.651   5.878
12694TIP3    H237968   6.702   1.621   6.026
12695TIP3   OH237969   7.760   0.980   6.403
12695TIP3    H137970   7.666   0.978   6.418
12695TIP3    H237971   7.796   1.022   6.481
12696TIP3   OH237972   6.441   1.182   5.909
12696TIP3    H137973   6.513   1.242   5.926
12696TIP3    H237974   6.470   1.131   5.833
12697TIP3   OH237975   6.341   0.505   6.104
12697TIP3    H137976   6.333   0.591   6.062
12697TIP3    H237977   6.282   0.449   6.054
12698TIP3   OH237978   7.684   1.937   6.368
12698TIP3    H137979   7.635   1.990   6.305
12698TIP3    H237980   7.775   1.964   6.357
12699TIP3   OH237981   6.270   1.442   6.315
12699TIP3    H137982   6.231   1.479   6.394
12699TIP3    H237983   6.225   1.485   6.242
12700TIP3   OH237984   6.477   1.990   7.397
12700TIP3    H137985   6.558   1.992   7.448
12700TIP3    H237986   6.453   1.897   7.393
12701TIP3   OH237987   6.940   1.899   7.401
12701TIP3    H137988   7.030   1.870   7.415
12701TIP3    H237989   6.907   1.841   7.332
12702TIP3   OH237990   6.885   1.516   5.546
12702TIP3    H137991   6.836   1.450   5.594
12702TIP3    H237992   6.951   1.466   5.497
12703TIP3   OH237993   7.575   1.821   7.164
12703TIP3    H137994   7.583   1.761   7.238
12703TIP3    H237995   7.642   1.888   7.179
12704TIP3   OH237996   7.310   1.516   5.459
12704TIP3    H137997   7.346   1.453   5.522
12704TIP3    H237998   7.372   1.515   5.386
12705TIP3   OH237999   6.570   1.376   7.576
12705TIP3    H138000   6.591   1.283   7.586
12705TIP3    H238001   6.485   1.376   7.532
12706TIP3   OH238002   6.565   1.020   5.724
12706TIP3    H138003   6.614   0.994   5.802
12706TIP3    H238004   6.631   1.035   5.658
12707TIP3   OH238005   7.186   1.501   7.351
12707TIP3    H138006   7.140   1.513   7.268
12707TIP3    H238007   7.212   1.409   7.351
12708TIP3   OH238008   7.069   1.189   5.586
12708TIP3    H138009   7.077   1.206   5.680
12708TIP3    H238010   7.087   1.095   5.577
12709TIP3   OH238011   7.650   1.481   6.946
12709TIP3    H138012   7.635   1.569   6.913
12709TIP3    H238013   7.567   1.456   6.986
12710TIP3   OH238014   6.687   1.119   7.611
12710TIP3    H138015   6.764   1.081   7.568
12710TIP3    H238016   6.718   1.145   7.697
12711TIP3   OH238017   6.719   0.952   5.945
12711TIP3    H138018   6.673   0.897   6.009
12711TIP3    H238019   6.777   0.891   5.899
12712TIP3   OH238020   7.028   1.059   7.259
12712TIP3    H138021   6.941   1.098   7.266
12712TIP3    H238022   7.046   1.059   7.165
12713TIP3   OH238023   6.885   0.775   5.823
12713TIP3    H138024   6.868   0.736   5.737
12713TIP3    H238025   6.975   0.806   5.819
12714TIP3   OH238026   7.546   1.403   7.389
12714TIP3    H138027   7.536   1.344   7.315
12714TIP3    H238028   7.541   1.347   7.466
12715TIP3   OH238029   7.679   1.045   5.462
12715TIP3    H138030   7.657   1.002   5.380
12715TIP3    H238031   7.647   1.135   5.451
12716TIP3   OH238032   7.219   0.824   7.232
12716TIP3    H138033   7.151   0.784   7.286
12716TIP3    H238034   7.171   0.885   7.175
12717TIP3   OH238035   7.218   1.244   7.059
12717TIP3    H138036   7.215   1.149   7.044
12717TIP3    H238037   7.146   1.279   7.006
12718TIP3   OH238038   7.856   1.083   7.574
12718TIP3    H138039   7.794   1.053   7.508
12718TIP3    H238040   7.836   1.176   7.586
12719TIP3   OH238041   7.826   1.411   7.152
12719TIP3    H138042   7.753   1.437   7.096
12719TIP3    H238043   7.896   1.390   7.091
12720TIP3   OH238044   6.930   0.928   7.644
12720TIP3    H138045   6.865   0.909   7.711
12720TIP3    H238046   7.010   0.946   7.692
12721TIP3   OH238047   7.395   0.976   7.375
12721TIP3    H138048   7.354   0.986   7.461
12721TIP3    H238049   7.336   0.918   7.327
12722TIP3   OH238050   6.701   1.791   5.759
12722TIP3    H138051   6.793   1.778   5.734
12722TIP3    H238052   6.661   1.831   5.683
12723TIP3   OH238053   6.168   1.181   5.932
12723TIP3    H138054   6.263   1.192   5.927
12723TIP3    H238055   6.152   1.095   5.893
12724TIP3   OH238056   6.071   1.749   6.395
12724TIP3    H138057   6.006   1.696   6.349
12724TIP3    H238058   6.115   1.688   6.454
12725TIP3   OH238059   6.217   1.581   6.562
12725TIP3    H138060   6.208   1.517   6.632
12725TIP3    H238061   6.267   1.653   6.602
12726TIP3   OH238062   7.947   2.021   6.367
12726TIP3    H138063   7.961   2.069   6.448
12726TIP3    H238064   7.987   2.076   6.299
12727TIP3   OH238065   7.935   2.057   6.658
12727TIP3    H138066   7.905   1.971   6.628
12727TIP3    H238067   7.951   2.045   6.752
12728TIP3   OH238068   8.001   1.742   7.189
12728TIP3    H138069   7.934   1.746   7.258
12728TIP3    H238070   8.055   1.820   7.204
12729TIP3   OH238071   7.833   1.268   5.821
12729TIP3    H138072   7.892   1.338   5.792
12729TIP3    H238073   7.875   1.233   5.899
12730TIP3   OH238074   7.955   1.151   6.035
12730TIP3    H138075   7.894   1.098   6.086
12730TIP3    H238076   8.018   1.184   6.100
12731TIP3   OH238077   8.032   1.573   6.483
12731TIP3    H138078   8.074   1.492   6.454
12731TIP3    H238079   8.035   1.630   6.406
12732TIP3   OH238080   7.840   1.789   6.619
12732TIP3    H138081   7.782   1.829   6.683
12732TIP3    H238082   7.783   1.762   6.548
12733TIP3   OH238083   7.890   1.073   5.633
12733TIP3    H138084   7.815   1.068   5.574
12733TIP3    H238085   7.866   1.140   5.697
12734TIP3   OH238086   7.758   0.684   5.528
12734TIP3    H138087   7.670   0.718   5.509
12734TIP3    H238088   7.755   0.660   5.621
12735TIP3   OH238089   7.773   0.957   6.137
12735TIP3    H138090   7.746   0.867   6.123
12735TIP3    H238091   7.778   0.967   6.232
12736TIP3   OH238092   6.374   1.045   6.947
12736TIP3    H138093   6.367   1.040   6.852
12736TIP3    H238094   6.468   1.051   6.964
12737TIP3   OH238095   8.044   1.382   6.989
12737TIP3    H138096   8.125   1.333   7.001
12737TIP3    H238097   8.055   1.428   6.906
12738TIP3   OH238098   8.281   1.262   7.046
12738TIP3    H138099   8.254   1.174   7.073
12738TIP3    H238100   8.369   1.272   7.082
12739TIP3   OH238101   7.679   0.690   6.066
12739TIP3    H138102   7.700   0.603   6.098
12739TIP3    H238103   7.747   0.709   6.001
12740TIP3   OH238104   8.015   0.828   6.589
12740TIP3    H138105   8.012   0.905   6.533
12740TIP3    H238106   8.024   0.863   6.677
12741TIP3   OH238107   8.108   1.014   6.774
12741TIP3    H138108   8.074   1.034   6.861
12741TIP3    H238109   8.102   1.097   6.727
12742TIP3   OH238110   6.212   0.815   6.950
12742TIP3    H138111   6.242   0.744   6.892
12742TIP3    H238112   6.276   0.885   6.938
12743TIP3   OH238113   7.516   1.902   6.016
12743TIP3    H138114   7.569   1.893   5.937
12743TIP3    H238115   7.551   1.980   6.060
12744TIP3   OH238116   6.610   1.689   7.386
12744TIP3    H138117   6.515   1.679   7.384
12744TIP3    H238118   6.631   1.704   7.478
12745TIP3   OH238119   6.817   1.750   6.940
12745TIP3    H138120   6.766   1.825   6.909
12745TIP3    H238121   6.903   1.760   6.898
12746TIP3   OH238122   7.217   1.968   7.071
12746TIP3    H138123   7.254   1.963   7.159
12746TIP3    H238124   7.273   2.028   7.024
12747TIP3   OH238125   7.398   2.140   6.956
12747TIP3    H138126   7.460   2.099   6.896
12747TIP3    H238127   7.452   2.195   7.012
12748TIP3   OH238128   6.476   1.972   6.996
12748TIP3    H138129   6.386   1.990   6.969
12748TIP3    H238130   6.496   2.040   7.061
12749TIP3   OH238131   6.704   1.978   6.839
12749TIP3    H138132   6.621   1.980   6.888
12749TIP3    H238133   6.680   2.005   6.751
12750TIP3   OH238134   7.120   1.994   6.632
12750TIP3    H138135   7.045   2.005   6.573
12750TIP3    H238136   7.130   2.079   6.675
12751TIP3   OH238137   7.381   1.924   6.680
12751TIP3    H138138   7.290   1.947   6.663
12751TIP3    H238139   7.433   1.990   6.635
12752TIP3   OH238140   7.580   2.089   6.577
12752TIP3    H138141   7.586   2.179   6.546
12752TIP3    H238142   7.610   2.036   6.503
12753TIP3   OH238143   6.385   1.766   6.699
12753TIP3    H138144   6.405   1.742   6.789
12753TIP3    H238145   6.460   1.735   6.649
12754TIP3   OH238146   6.593   1.660   6.560
12754TIP3    H138147   6.601   1.577   6.609
12754TIP3    H238148   6.680   1.700   6.566
12755TIP3   OH238149   6.862   1.734   6.592
12755TIP3    H138150   6.877   1.640   6.580
12755TIP3    H238151   6.917   1.757   6.667
12756TIP3   OH238152   6.150   1.561   6.100
12756TIP3    H138153   6.066   1.529   6.068
12756TIP3    H238154   6.157   1.650   6.065
12757TIP3   OH238155   6.962   1.730   5.692
12757TIP3    H138156   7.044   1.757   5.651
12757TIP3    H238157   6.925   1.664   5.633
12758TIP3   OH238158   7.659   1.857   5.783
12758TIP3    H138159   7.652   1.761   5.777
12758TIP3    H238160   7.614   1.889   5.705
12759TIP3   OH238161   6.252   1.565   5.752
12759TIP3    H138162   6.254   1.583   5.845
12759TIP3    H238163   6.335   1.522   5.733
12760TIP3   OH238164   7.887   2.004   6.934
12760TIP3    H138165   7.805   1.970   6.898
12760TIP3    H238166   7.867   2.094   6.958
12761TIP3   OH238167   9.161   1.364   5.737
12761TIP3    H138168   9.137   1.456   5.722
12761TIP3    H238169   9.095   1.314   5.689
12762TIP3   OH238170   9.089   1.375   6.120
12762TIP3    H138171   9.162   1.372   6.181
12762TIP3    H238172   9.056   1.285   6.117
12763TIP3   OH238173   8.419   1.331   6.483
12763TIP3    H138174   8.455   1.275   6.552
12763TIP3    H238175   8.494   1.355   6.429
12764TIP3   OH238176   9.400   1.673   5.815
12764TIP3    H138177   9.381   1.611   5.885
12764TIP3    H238178   9.428   1.753   5.862
12765TIP3   OH238179   8.432   1.678   6.184
12765TIP3    H138180   8.409   1.585   6.177
12765TIP3    H238181   8.526   1.680   6.168
12766TIP3   OH238182   8.121   0.939   5.972
12766TIP3    H138183   8.084   1.027   5.970
12766TIP3    H238184   8.052   0.885   6.012
12767TIP3   OH238185   8.191   1.223   6.174
12767TIP3    H138186   8.244   1.147   6.198
12767TIP3    H238187   8.255   1.288   6.144
12768TIP3   OH238188   9.096   2.086   5.835
12768TIP3    H138189   9.115   2.024   5.764
12768TIP3    H238190   9.113   2.037   5.915
12769TIP3   OH238191   8.939   1.609   6.143
12769TIP3    H138192   8.974   1.522   6.120
12769TIP3    H238193   9.017   1.662   6.159
12770TIP3   OH238194   9.475   1.162   6.133
12770TIP3    H138195   9.473   1.070   6.157
12770TIP3    H238196   9.418   1.169   6.057
12771TIP3   OH238197   8.314   1.003   6.289
12771TIP3    H138198   8.405   0.975   6.275
12771TIP3    H238199   8.261   0.929   6.259
12772TIP3   OH238200   8.748   1.237   6.101
12772TIP3    H138201   8.837   1.203   6.109
12772TIP3    H238202   8.694   1.160   6.082
12773TIP3   OH238203   9.052   1.596   5.601
12773TIP3    H138204   9.017   1.567   5.517
12773TIP3    H238205   8.997   1.670   5.625
12774TIP3   OH238206   8.813   1.556   6.384
12774TIP3    H138207   8.749   1.624   6.405
12774TIP3    H238208   8.852   1.585   6.301
12775TIP3   OH238209   8.570   0.909   6.283
12775TIP3    H138210   8.606   0.980   6.336
12775TIP3    H238211   8.634   0.897   6.213
12776TIP3   OH238212   8.626   1.734   6.470
12776TIP3    H138213   8.608   1.823   6.439
12776TIP3    H238214   8.548   1.711   6.521
12777TIP3   OH238215   8.011   1.449   5.711
12777TIP3    H138216   7.979   1.464   5.622
12777TIP3    H238217   8.034   1.536   5.744
12778TIP3   OH238218   9.433   1.911   5.958
12778TIP3    H138219   9.342   1.913   5.987
12778TIP3    H238220   9.448   1.998   5.920
12779TIP3   OH238221   9.171   1.952   5.598
12779TIP3    H138222   9.227   1.875   5.588
12779TIP3    H238223   9.228   2.026   5.577
12780TIP3   OH238224   9.300   1.705   5.566
12780TIP3    H138225   9.215   1.665   5.583
12780TIP3    H238226   9.349   1.693   5.647
12781TIP3   OH238227   8.998   1.231   5.556
12781TIP3    H138228   8.910   1.269   5.548
12781TIP3    H238229   9.033   1.232   5.467
12782TIP3   OH238230   8.936   1.019   5.287
12782TIP3    H138231   9.007   1.080   5.307
12782TIP3    H238232   8.957   0.940   5.336
12783TIP3   OH238233   9.328   1.292   5.520
12783TIP3    H138234   9.283   1.317   5.600
12783TIP3    H238235   9.410   1.253   5.550
12784TIP3   OH238236   9.502   1.339   6.530
12784TIP3    H138237   9.559   1.414   6.549
12784TIP3    H238238   9.460   1.362   6.447
12785TIP3   OH238239   8.552   1.336   5.917
12785TIP3    H138240   8.517   1.268   5.859
12785TIP3    H238241   8.625   1.294   5.963
12786TIP3   OH238242   8.689   1.714   6.079
12786TIP3    H138243   8.669   1.703   5.986
12786TIP3    H238244   8.777   1.678   6.089
12787TIP3   OH238245   8.633   1.365   6.307
12787TIP3    H138246   8.677   1.330   6.230
12787TIP3    H238247   8.694   1.429   6.343
12788TIP3   OH238248   9.178   1.934   6.055
12788TIP3    H138249   9.173   2.005   6.119
12788TIP3    H238250   9.175   1.854   6.108
12789TIP3   OH238251   8.830   1.822   6.635
12789TIP3    H138252   8.772   1.883   6.680
12789TIP3    H238253   8.773   1.772   6.577
12790TIP3   OH238254   9.167   1.160   5.337
12790TIP3    H138255   9.229   1.199   5.398
12790TIP3    H238256   9.189   1.199   5.252
12791TIP3   OH238257   8.566   1.448   6.751
12791TIP3    H138258   8.570   1.526   6.806
12791TIP3    H238259   8.477   1.415   6.764
12792TIP3   OH238260   8.917   1.838   5.618
12792TIP3    H138261   8.998   1.888   5.619
12792TIP3    H238262   8.855   1.894   5.571
12793TIP3   OH238263   8.623   1.991   6.709
12793TIP3    H138264   8.605   2.006   6.616
12793TIP3    H238265   8.536   1.985   6.749
12794TIP3   OH238266   8.433   1.165   5.732
12794TIP3    H138267   8.361   1.218   5.699
12794TIP3    H238268   8.393   1.080   5.752
12795TIP3   OH238269   8.062   1.776   6.310
12795TIP3    H138270   8.154   1.801   6.320
12795TIP3    H238271   8.013   1.856   6.329
12796TIP3   OH238272   9.020   1.961   6.492
12796TIP3    H138273   9.012   2.052   6.520
12796TIP3    H238274   8.956   1.914   6.544
12797TIP3   OH238275   8.798   2.062   5.448
12797TIP3    H138276   8.754   2.043   5.365
12797TIP3    H238277   8.761   2.145   5.477
12798TIP3   OH238278   8.240   1.926   5.820
12798TIP3    H138279   8.286   1.916   5.903
12798TIP3    H238280   8.190   1.845   5.809
12799TIP3   OH238281   9.015   1.990   5.075
12799TIP3    H138282   9.067   1.914   5.047
12799TIP3    H238283   9.042   2.005   5.166
12800TIP3   OH238284   9.051   2.030   5.348
12800TIP3    H138285   8.963   2.036   5.387
12800TIP3    H238286   9.105   1.994   5.419
12801TIP3   OH238287   8.418   1.689   6.650
12801TIP3    H138288   8.468   1.699   6.731
12801TIP3    H238289   8.405   1.595   6.641
12802TIP3   OH238290   9.234   1.257   5.091
12802TIP3    H138291   9.171   1.234   5.023
12802TIP3    H238292   9.243   1.352   5.085
12803TIP3   OH238293   8.671   1.119   6.422
12803TIP3    H138294   8.622   1.120   6.504
12803TIP3    H238295   8.649   1.202   6.380
12804TIP3   OH238296   8.574   1.049   6.021
12804TIP3    H138297   8.505   0.982   6.020
12804TIP3    H238298   8.616   1.042   5.935
12805TIP3   OH238299   9.190   1.048   5.675
12805TIP3    H138300   9.135   1.095   5.612
12805TIP3    H238301   9.229   0.977   5.625
12806TIP3   OH238302   9.295   1.353   6.749
12806TIP3    H138303   9.322   1.288   6.813
12806TIP3    H238304   9.376   1.391   6.717
12807TIP3   OH238305   9.272   1.181   5.929
12807TIP3    H138306   9.240   1.255   5.878
12807TIP3    H238307   9.295   1.115   5.864
12808TIP3   OH238308   8.537   1.152   6.657
12808TIP3    H138309   8.607   1.189   6.710
12808TIP3    H238310   8.498   1.084   6.712
12809TIP3   OH238311   9.315   1.340   6.278
12809TIP3    H138312   9.373   1.270   6.249
12809TIP3    H238313   9.274   1.306   6.358
12810TIP3   OH238314   8.383   0.849   6.026
12810TIP3    H138315   8.312   0.908   6.002
12810TIP3    H238316   8.343   0.762   6.025
12811TIP3   OH238317   8.631   0.778   5.718
12811TIP3    H138318   8.725   0.798   5.714
12811TIP3    H238319   8.591   0.839   5.656
12812TIP3   OH238320   8.469   0.925   5.531
12812TIP3    H138321   8.400   0.941   5.595
12812TIP3    H238322   8.454   0.990   5.463
12813TIP3   OH238323   9.606   2.506   6.433
12813TIP3    H138324   9.583   2.523   6.342
12813TIP3    H238325   9.697   2.538   6.441
12814TIP3   OH238326   8.554   1.683   6.896
12814TIP3    H138327   8.640   1.688   6.937
12814TIP3    H238328   8.494   1.663   6.969
12815TIP3   OH238329   8.991   1.104   6.147
12815TIP3    H138330   8.941   1.027   6.120
12815TIP3    H238331   9.011   1.089   6.239
12816TIP3   OH238332   9.030   1.012   6.400
12816TIP3    H138333   8.954   0.959   6.421
12816TIP3    H238334   9.095   0.988   6.467
12817TIP3   OH238335   8.755   1.359   5.510
12817TIP3    H138336   8.673   1.318   5.482
12817TIP3    H238337   8.730   1.409   5.589
12818TIP3   OH238338   9.188   1.719   6.481
12818TIP3    H138339   9.141   1.646   6.520
12818TIP3    H238340   9.135   1.796   6.500
12819TIP3   OH238341   8.407   1.399   6.143
12819TIP3    H138342   8.447   1.384   6.058
12819TIP3    H238343   8.477   1.381   6.206
12820TIP3   OH238344   8.908   1.535   5.370
12820TIP3    H138345   8.857   1.616   5.366
12820TIP3    H238346   8.851   1.472   5.414
12821TIP3   OH238347   8.304   1.372   6.796
12821TIP3    H138348   8.307   1.332   6.882
12821TIP3    H238349   8.238   1.323   6.748
12822TIP3   OH238350   9.062   1.469   6.825
12822TIP3    H138351   9.026   1.482   6.737
12822TIP3    H238352   9.151   1.437   6.810
12823TIP3   OH238353   9.289   2.008   6.417
12823TIP3    H138354   9.195   1.990   6.418
12823TIP3    H238355   9.310   2.033   6.507
12824TIP3   OH238356   9.393   1.814   5.218
12824TIP3    H138357   9.399   1.737   5.275
12824TIP3    H238358   9.326   1.791   5.154
12825TIP3   OH238359   9.328   1.509   6.029
12825TIP3    H138360   9.241   1.470   6.022
12825TIP3    H238361   9.376   1.449   6.086
12826TIP3   OH238362   8.562   1.729   5.830
12826TIP3    H138363   8.556   1.806   5.773
12826TIP3    H238364   8.471   1.705   5.847
12827TIP3   OH238365   8.136   1.053   5.517
12827TIP3    H138366   8.181   1.132   5.546
12827TIP3    H238367   8.053   1.052   5.565
12828TIP3   OH238368   8.653   1.496   5.717
12828TIP3    H138369   8.643   1.586   5.750
12828TIP3    H238370   8.621   1.441   5.789
12829TIP3   OH238371   8.837   2.038   6.285
12829TIP3    H138372   8.871   2.113   6.236
12829TIP3    H238373   8.913   2.004   6.333
12830TIP3   OH238374   8.473   1.943   5.677
12830TIP3    H138375   8.386   1.950   5.714
12830TIP3    H238376   8.509   2.031   5.682
12831TIP3   OH238377   9.192   1.704   6.205
12831TIP3    H138378   9.206   1.705   6.300
12831TIP3    H238379   9.263   1.650   6.171
12832TIP3   OH238380   9.209   1.533   5.111
12832TIP3    H138381   9.244   1.532   5.200
12832TIP3    H238382   9.114   1.521   5.122
12833TIP3   OH238383   9.472   2.160   6.284
12833TIP3    H138384   9.401   2.106   6.319
12833TIP3    H238385   9.431   2.212   6.215
12834TIP3   OH238386   9.324   1.526   5.358
12834TIP3    H138387   9.334   1.442   5.402
12834TIP3    H238388   9.323   1.590   5.429
12835TIP3   OH238389   8.264   1.959   6.429
12835TIP3    H138390   8.334   1.911   6.473
12835TIP3    H238391   8.270   2.048   6.463
12836TIP3   OH238392   8.536   1.575   5.152
12836TIP3    H138393   8.545   1.485   5.120
12836TIP3    H238394   8.526   1.566   5.247
12837TIP3   OH238395   8.480   1.569   5.425
12837TIP3    H138396   8.540   1.544   5.495
12837TIP3    H238397   8.480   1.665   5.426
12838TIP3   OH238398   8.221   1.294   5.621
12838TIP3    H138399   8.151   1.336   5.671
12838TIP3    H238400   8.235   1.352   5.546
12839TIP3   OH238401   8.751   1.754   5.349
12839TIP3    H138402   8.665   1.778   5.384
12839TIP3    H238403   8.772   1.825   5.287
12840TIP3   OH238404   8.915   0.782   5.770
12840TIP3    H138405   8.940   0.867   5.805
12840TIP3    H238406   8.966   0.719   5.822
12841TIP3   OH238407   9.202   1.244   6.511
12841TIP3    H138408   9.239   1.278   6.593
12841TIP3    H238409   9.253   1.165   6.492
12842TIP3   OH238410   8.501   1.840   5.425
12842TIP3    H138411   8.481   1.911   5.364
12842TIP3    H238412   8.490   1.879   5.512
12843TIP3   OH238413   8.228   1.456   5.395
12843TIP3    H138414   8.303   1.515   5.406
12843TIP3    H238415   8.259   1.390   5.333
12844TIP3   OH238416   8.166   0.767   5.500
12844TIP3    H138417   8.185   0.859   5.478
12844TIP3    H238418   8.112   0.772   5.579
12845TIP3   OH238419   9.466   2.168   5.864
12845TIP3    H138420   9.420   2.228   5.806
12845TIP3    H238421   9.558   2.173   5.836
12846TIP3   OH238422   8.063   1.711   5.791
12846TIP3    H138423   8.020   1.748   5.868
12846TIP3    H238424   8.018   1.751   5.717
12847TIP3   OH238425   8.288   2.238   6.865
12847TIP3    H138426   8.363   2.256   6.922
12847TIP3    H238427   8.295   2.144   6.847
12848TIP3   OH238428   8.731   2.143   6.913
12848TIP3    H138429   8.824   2.119   6.920
12848TIP3    H238430   8.700   2.094   6.837
12849TIP3   OH238431   8.693   1.760   5.025
12849TIP3    H138432   8.646   1.692   5.073
12849TIP3    H238433   8.766   1.714   4.983
12850TIP3   OH238434   9.346   2.096   6.672
12850TIP3    H138435   9.355   2.023   6.733
12850TIP3    H238436   9.426   2.148   6.685
12851TIP3   OH238437   9.162   1.775   4.992
12851TIP3    H138438   9.185   1.685   5.017
12851TIP3    H238439   9.178   1.778   4.898
12852TIP3   OH238440   8.380   1.608   7.095
12852TIP3    H138441   8.430   1.527   7.086
12852TIP3    H238442   8.296   1.580   7.130
12853TIP3   OH238443   8.351   1.259   5.253
12853TIP3    H138444   8.404   1.239   5.331
12853TIP3    H238445   8.416   1.281   5.186
12854TIP3   OH238446   8.987   1.740   6.847
12854TIP3    H138447   8.946   1.753   6.761
12854TIP3    H238448   9.037   1.659   6.837
12855TIP3   OH238449   8.937   1.490   5.102
12855TIP3    H138450   8.917   1.507   5.194
12855TIP3    H238451   8.922   1.396   5.091
12856TIP3   OH238452   9.475   1.742   6.430
12856TIP3    H138453   9.500   1.798   6.357
12856TIP3    H238454   9.383   1.763   6.446
12857TIP3   OH238455   8.546   1.391   7.082
12857TIP3    H138456   8.630   1.360   7.048
12857TIP3    H238457   8.563   1.408   7.175
12858TIP3   OH238458   8.525   1.207   5.465
12858TIP3    H138459   8.519   1.183   5.557
12858TIP3    H238460   8.584   1.142   5.426
12859TIP3   OH238461   8.772   1.274   6.750
12859TIP3    H138462   8.715   1.351   6.751
12859TIP3    H238463   8.820   1.281   6.667
12860TIP3   OH238464   8.662   1.029   5.305
12860TIP3    H138465   8.624   1.030   5.217
12860TIP3    H238466   8.757   1.027   5.290
12861TIP3   OH238467   9.347   1.640   6.876
12861TIP3    H138468   9.441   1.637   6.860
12861TIP3    H238469   9.332   1.570   6.940
12862TIP3   OH238470   9.041   1.124   6.761
12862TIP3    H138471   8.949   1.101   6.775
12862TIP3    H238472   9.039   1.210   6.721
12863TIP3   OH238473   9.022   1.503   6.555
12863TIP3    H138474   9.053   1.417   6.527
12863TIP3    H238475   8.944   1.519   6.502
12864TIP3   OH238476   9.640   1.580   6.566
12864TIP3    H138477   9.574   1.637   6.526
12864TIP3    H238478   9.721   1.600   6.519
12865TIP3   OH238479   8.806   1.290   7.092
12865TIP3    H138480   8.798   1.199   7.117
12865TIP3    H238481   8.896   1.298   7.059
12866TIP3   OH238482   9.338   1.172   6.965
12866TIP3    H138483   9.269   1.117   7.002
12866TIP3    H238484   9.376   1.119   6.894
12867TIP3   OH238485   8.501   2.049   5.245
12867TIP3    H138486   8.590   2.029   5.216
12867TIP3    H238487   8.459   2.090   5.169
12868TIP3   OH238488   7.958   1.439   5.430
12868TIP3    H138489   8.052   1.455   5.419
12868TIP3    H238490   7.943   1.354   5.388
12869TIP3   OH238491   7.864   2.014   5.872
12869TIP3    H138492   7.799   1.960   5.827
12869TIP3    H238493   7.909   1.952   5.930
12870TIP3   OH238494   8.008   1.847   6.037
12870TIP3    H138495   8.000   1.783   6.107
12870TIP3    H238496   8.063   1.917   6.074
12871TIP3   OH238497   9.548   1.897   6.215
12871TIP3    H138498   9.546   1.991   6.235
12871TIP3    H238499   9.523   1.892   6.122
12872TIP3   OH238500   8.160   1.343   6.417
12872TIP3    H138501   8.155   1.311   6.327
12872TIP3    H238502   8.254   1.346   6.436
12873TIP3   OH238503   8.079   1.052   6.441
12873TIP3    H138504   8.161   1.071   6.395
12873TIP3    H238505   8.058   1.133   6.488
12874TIP3   OH238506   9.305   2.166   5.498
12874TIP3    H138507   9.354   2.123   5.428
12874TIP3    H238508   9.341   2.255   5.501
12875TIP3   OH238509   8.391   1.971   6.871
12875TIP3    H138510   8.368   1.878   6.873
12875TIP3    H238511   8.425   1.989   6.959
12876TIP3   OH238512   8.604   2.007   6.431
12876TIP3    H138513   8.558   2.084   6.397
12876TIP3    H238514   8.690   2.010   6.388
12877TIP3   OH238515   9.003   2.228   6.570
12877TIP3    H138516   9.042   2.226   6.658
12877TIP3    H238517   9.065   2.279   6.517
12878TIP3   OH238518   9.194   2.381   6.443
12878TIP3    H138519   9.254   2.324   6.394
12878TIP3    H238520   9.252   2.435   6.497
12879TIP3   OH238521   8.268   2.238   6.479
12879TIP3    H138522   8.177   2.257   6.458
12879TIP3    H238523   8.293   2.305   6.542
12880TIP3   OH238524   8.499   2.238   6.328
12880TIP3    H138525   8.415   2.244   6.373
12880TIP3    H238526   8.479   2.262   6.237
12881TIP3   OH238527   8.902   2.255   6.124
12881TIP3    H138528   8.832   2.269   6.060
12881TIP3    H238529   8.916   2.341   6.163
12882TIP3   OH238530   9.153   2.170   6.190
12882TIP3    H138531   9.069   2.202   6.158
12882TIP3    H238532   9.218   2.226   6.148
12883TIP3   OH238533   9.361   2.309   6.079
12883TIP3    H138534   9.349   2.398   6.046
12883TIP3    H238535   9.398   2.261   6.004
12884TIP3   OH238536   8.179   2.030   6.175
12884TIP3    H138537   8.202   2.014   6.267
12884TIP3    H238538   8.253   1.995   6.126
12885TIP3   OH238539   8.388   1.911   6.052
12885TIP3    H138540   8.398   1.829   6.100
12885TIP3    H238541   8.475   1.951   6.054
12886TIP3   OH238542   8.655   1.994   6.078
12886TIP3    H138543   8.672   1.901   6.063
12886TIP3    H238544   8.711   2.017   6.152
12887TIP3   OH238545   7.940   1.821   5.572
12887TIP3    H138546   7.857   1.790   5.535
12887TIP3    H238547   7.948   1.912   5.542
12888TIP3   OH238548   8.756   1.977   5.173
12888TIP3    H138549   8.841   2.002   5.137
12888TIP3    H238550   8.724   1.909   5.114
12889TIP3   OH238551   9.459   2.074   5.289
12889TIP3    H138552   9.445   1.982   5.267
12889TIP3    H238553   9.423   2.122   5.214
12890TIP3   OH238554   8.054   1.806   5.229
12890TIP3    H138555   8.058   1.823   5.323
12890TIP3    H238556   8.137   1.763   5.209
12891TIP3   OH238557   9.627   2.236   6.500
12891TIP3    H138558   9.586   2.194   6.424
12891TIP3    H238559   9.627   2.330   6.478
12892TIP3   OH238560   1.606   2.171   7.404
12892TIP3    H138561   1.576   2.258   7.378
12892TIP3    H238562   1.536   2.112   7.374
12893TIP3   OH238563   1.588   2.171   7.780
12893TIP3    H138564   1.641   2.137   7.851
12893TIP3    H238565   1.548   2.094   7.740
12894TIP3   OH238566   4.249   6.794   0.086
12894TIP3    H138567   4.305   6.728   0.044
12894TIP3    H238568   4.296   6.876   0.075
12895TIP3   OH238569   1.870   2.481   7.497
12895TIP3    H138570   1.866   2.415   7.566
12895TIP3    H238571   1.893   2.562   7.541
12896TIP3   OH238572   0.898   2.451   7.844
12896TIP3    H138573   0.873   2.360   7.832
12896TIP3    H238574   0.986   2.458   7.807
12897TIP3   OH238575   1.540   2.888   7.509
12897TIP3    H138576   1.559   2.826   7.438
12897TIP3    H238577   1.560   2.839   7.589
12898TIP3   OH238578   1.413   2.388   7.807
12898TIP3    H138579   1.463   2.310   7.783
12898TIP3    H238580   1.479   2.457   7.814
12899TIP3   OH238581   2.438   1.707   7.801
12899TIP3    H138582   2.447   1.792   7.845
12899TIP3    H238583   2.481   1.720   7.716
12900TIP3   OH238584   1.833   1.862   7.847
12900TIP3    H138585   1.867   1.779   7.879
12900TIP3    H238586   1.794   1.841   7.762
12901TIP3   OH238587   1.874   1.634   7.451
12901TIP3    H138588   1.937   1.620   7.522
12901TIP3    H238589   1.926   1.670   7.379
12902TIP3   OH238590   1.253   1.939   7.689
12902TIP3    H138591   1.345   1.918   7.704
12902TIP3    H238592   1.211   1.854   7.677
12903TIP3   OH238593   2.469   1.958   7.913
12903TIP3    H138594   2.377   1.979   7.929
12903TIP3    H238595   2.509   1.958   8.000
12904TIP3   OH238596   1.503   2.390   7.266
12904TIP3    H138597   1.465   2.359   7.184
12904TIP3    H238598   1.449   2.464   7.292
12905TIP3   OH238599   1.219   2.326   7.996
12905TIP3    H138600   1.165   2.405   8.003
12905TIP3    H238601   1.288   2.349   7.933
12906TIP3   OH238602   2.032   1.623   7.669
12906TIP3    H138603   1.995   1.607   7.756
12906TIP3    H238604   2.088   1.701   7.681
12907TIP3   OH238605   4.294   7.126   0.076
12907TIP3    H138606   4.300   7.222   0.078
12907TIP3    H238607   4.230   7.108   0.007
12908TIP3   OH238608   0.487   2.239   7.389
12908TIP3    H138609   0.429   2.272   7.320
12908TIP3    H238610   0.508   2.316   7.442
12909TIP3   OH238611   1.903   2.736   7.620
12909TIP3    H138612   1.811   2.738   7.643
12909TIP3    H238613   1.919   2.821   7.578
12910TIP3   OH238614   2.212   1.602   7.923
12910TIP3    H138615   2.148   1.672   7.914
12910TIP3    H238616   2.290   1.635   7.879
12911TIP3   OH238617   1.614   2.745   7.284
12911TIP3    H138618   1.668   2.667   7.275
12911TIP3    H238619   1.672   2.817   7.260
12912TIP3   OH238620   1.754   2.515   7.249
12912TIP3    H138621   1.679   2.455   7.253
12912TIP3    H238622   1.804   2.496   7.329
12913TIP3   OH238623   2.146   2.609   7.975
12913TIP3    H138624   2.140   2.542   7.908
12913TIP3    H238625   2.126   2.691   7.929
12914TIP3   OH238626   1.434   2.013   7.251
12914TIP3    H138627   1.350   2.053   7.232
12914TIP3    H238628   1.480   2.012   7.167
12915TIP3   OH238629   1.402   1.815   6.945
12915TIP3    H138630   1.467   1.866   6.994
12915TIP3    H238631   1.454   1.748   6.900
12916TIP3   OH238632   2.324   2.273   7.834
12916TIP3    H138633   2.244   2.326   7.831
12916TIP3    H238634   2.362   2.282   7.747
12917TIP3   OH238635   1.791   2.099   7.214
12917TIP3    H138636   1.738   2.128   7.288
12917TIP3    H238637   1.876   2.077   7.253
12918TIP3   OH238638   5.239   6.772   0.020
12918TIP3    H138639   5.257   6.866   0.032
12918TIP3    H238640   5.145   6.767   0.003
12919TIP3   OH238641   1.037   2.090   7.599
12919TIP3    H138642   0.993   2.032   7.536
12919TIP3    H238643   1.115   2.040   7.625
12920TIP3   OH238644   1.150   2.487   7.739
12920TIP3    H138645   1.127   2.480   7.646
12920TIP3    H238646   1.241   2.457   7.744
12921TIP3   OH238647   1.146   2.063   7.906
12921TIP3    H138648   1.187   2.026   7.828
12921TIP3    H238649   1.198   2.141   7.925
12922TIP3   OH238650   1.643   2.735   7.717
12922TIP3    H138651   1.645   2.810   7.778
12922TIP3    H238652   1.639   2.658   7.774
12923TIP3   OH238653   4.579   7.150   0.280
12923TIP3    H138654   4.496   7.197   0.291
12923TIP3    H238655   4.565   7.096   0.202
12924TIP3   OH238656   1.623   1.960   7.045
12924TIP3    H138657   1.682   2.018   7.092
12924TIP3    H238658   1.654   1.964   6.954
12925TIP3   OH238659   4.298   6.714   0.407
12925TIP3    H138660   4.305   6.809   0.396
12925TIP3    H238661   4.217   6.690   0.362
12926TIP3   OH238662   1.364   2.628   7.303
12926TIP3    H138663   1.447   2.676   7.306
12926TIP3    H238664   1.305   2.686   7.255
12927TIP3   OH238665   4.350   7.292   0.324
12927TIP3    H138666   4.315   7.351   0.258
12927TIP3    H238667   4.296   7.307   0.401
12928TIP3   OH238668   2.123   1.188   7.097
12928TIP3    H138669   2.052   1.211   7.157
12928TIP3    H238670   2.131   1.264   7.040
12929TIP3   OH238671   0.904   1.933   7.414
12929TIP3    H138672   0.824   1.976   7.386
12929TIP3    H238673   0.877   1.844   7.438
12930TIP3   OH238674   1.956   2.565   6.661
12930TIP3    H138675   1.949   2.658   6.642
12930TIP3    H238676   2.045   2.542   6.634
12931TIP3   OH238677   0.486   2.462   7.927
12931TIP3    H138678   0.568   2.415   7.912
12931TIP3    H238679   0.511   2.535   7.984
12932TIP3   OH238680   5.659   7.629   0.001
12932TIP3    H138681   5.665   7.534   0.009
12932TIP3    H238682   5.579   7.652   0.049
12933TIP3   OH238683   4.826   7.309   0.177
12933TIP3    H138684   4.866   7.395   0.180
12933TIP3    H238685   4.732   7.326   0.170
12934TIP3   OH238686   1.257   2.848   7.133
12934TIP3    H138687   1.210   2.830   7.051
12934TIP3    H238688   1.223   2.932   7.162
12935TIP3   OH238689   0.700   2.688   7.501
12935TIP3    H138690   0.734   2.687   7.590
12935TIP3    H238691   0.641   2.613   7.497
12936TIP3   OH238692   1.459   2.786   6.757
12936TIP3    H138693   1.509   2.712   6.723
12936TIP3    H238694   1.493   2.799   6.846
12937TIP3   OH238695   1.510   2.827   7.027
12937TIP3    H138696   1.423   2.830   7.068
12937TIP3    H238697   1.567   2.788   7.094
12938TIP3   OH238698   5.534   6.729   0.186
12938TIP3    H138699   5.492   6.814   0.170
12938TIP3    H238700   5.516   6.679   0.106
12939TIP3   OH238701   4.040   7.145   0.258
12939TIP3    H138702   4.134   7.153   0.276
12939TIP3    H238703   3.999   7.140   0.344
12940TIP3   OH238704   4.894   5.966   0.375
12940TIP3    H138705   4.968   5.916   0.408
12940TIP3    H238706   4.900   6.051   0.419
12941TIP3   OH238707   5.271   6.545   0.178
12941TIP3    H138708   5.279   6.590   0.262
12941TIP3    H238709   5.260   6.616   0.114
12942TIP3   OH238710   1.705   1.928   6.783
12942TIP3    H138711   1.655   1.936   6.702
12942TIP3    H238712   1.785   1.977   6.767
12943TIP3   OH238713   1.378   1.348   7.090
12943TIP3    H138714   1.350   1.365   7.180
12943TIP3    H238715   1.407   1.257   7.092
12944TIP3   OH238716   4.513   6.388   0.031
12944TIP3    H138717   4.480   6.446   0.099
12944TIP3    H238718   4.468   6.416  -0.049
12945TIP3   OH238719   1.102   1.712   7.665
12945TIP3    H138720   1.082   1.626   7.702
12945TIP3    H238721   1.091   1.700   7.570
12946TIP3   OH238722   1.559   1.810   7.384
12946TIP3    H138723   1.510   1.882   7.344
12946TIP3    H238724   1.613   1.776   7.313
12947TIP3   OH238725   5.048   6.740   0.459
12947TIP3    H138726   5.049   6.654   0.499
12947TIP3    H238727   5.140   6.765   0.453
12948TIP3   OH238728   1.729   1.818   7.597
12948TIP3    H138729   1.663   1.837   7.531
12948TIP3    H238730   1.779   1.744   7.561
12949TIP3   OH238731   4.978   6.671  -0.009
12949TIP3    H138732   5.022   6.605  -0.064
12949TIP3    H238733   4.975   6.631   0.078
12950TIP3   OH238734   1.429   1.562   7.725
12950TIP3    H138735   1.376   1.567   7.804
12950TIP3    H238736   1.518   1.547   7.757
12951TIP3   OH238737   1.105   1.664   7.393
12951TIP3    H138738   1.199   1.655   7.411
12951TIP3    H238739   1.098   1.652   7.298
12952TIP3   OH238740   1.895   1.605   7.911
12952TIP3    H138741   1.891   1.588   8.005
12952TIP3    H238742   1.815   1.568   7.876
12953TIP3   OH238743   5.369   7.950   0.123
12953TIP3    H138744   5.366   7.966   0.029
12953TIP3    H238745   5.447   7.996   0.153
12954TIP3   OH238746   4.155   7.015   0.687
12954TIP3    H138747   4.237   7.051   0.653
12954TIP3    H238748   4.182   6.936   0.735
12955TIP3   OH238749   1.514   1.892   7.767
12955TIP3    H138750   1.584   1.853   7.714
12955TIP3    H238751   1.518   1.845   7.850
12956TIP3   OH238752   4.784   6.375   0.006
12956TIP3    H138753   4.690   6.374   0.019
12956TIP3    H238754   4.821   6.374   0.094
12957TIP3   OH238755   1.197   2.141   7.190
12957TIP3    H138756   1.122   2.087   7.166
12957TIP3    H238757   1.169   2.188   7.268
12958TIP3   OH238758   2.093   2.415   7.789
12958TIP3    H138759   2.127   2.461   7.712
12958TIP3    H238760   2.013   2.372   7.757
12959TIP3   OH238761   1.637   1.470   7.105
12959TIP3    H138762   1.542   1.458   7.100
12959TIP3    H238763   1.649   1.564   7.118
12960TIP3   OH238764   4.821   7.043   0.122
12960TIP3    H138765   4.888   7.002   0.176
12960TIP3    H238766   4.813   7.132   0.156
12961TIP3   OH238767   1.720   1.728   7.169
12961TIP3    H138768   1.815   1.733   7.181
12961TIP3    H238769   1.699   1.807   7.119
12962TIP3   OH238770   0.880   2.183   7.808
12962TIP3    H138771   0.929   2.150   7.733
12962TIP3    H238772   0.927   2.148   7.884
12963TIP3   OH238773   1.352   2.308   7.043
12963TIP3    H138774   1.303   2.390   7.040
12963TIP3    H238775   1.296   2.248   7.092
12964TIP3   OH238776   4.796   6.853   0.452
12964TIP3    H138777   4.771   6.768   0.490
12964TIP3    H238778   4.891   6.849   0.443
12965TIP3   OH238779   1.819   2.752   7.973
12965TIP3    H138780   1.754   2.684   7.957
12965TIP3    H238781   1.802   2.781   8.063
12966TIP3   OH238782   2.139   1.818   6.993
12966TIP3    H138783   2.084   1.771   6.930
12966TIP3    H238784   2.141   1.908   6.961
12967TIP3   OH238785   5.662   7.356   0.034
12967TIP3    H138786   5.573   7.327   0.056
12967TIP3    H238787   5.679   7.317  -0.051
12968TIP3   OH238788   1.872   2.635   6.929
12968TIP3    H138789   1.845   2.567   6.991
12968TIP3    H238790   1.891   2.588   6.848
12969TIP3   OH238791   1.861   2.276   7.693
12969TIP3    H138792   1.767   2.260   7.704
12969TIP3    H238793   1.896   2.194   7.659
12970TIP3   OH238794   1.005   2.510   7.505
12970TIP3    H138795   1.005   2.589   7.450
12970TIP3    H238796   0.912   2.493   7.521
12971TIP3   OH238797   1.097   2.274   7.401
12971TIP3    H138798   1.079   2.362   7.434
12971TIP3    H238799   1.079   2.216   7.475
12972TIP3   OH238800   1.285   2.833   7.884
12972TIP3    H138801   1.337   2.910   7.858
12972TIP3    H238802   1.309   2.819   7.976
12973TIP3   OH238803   0.929   2.732   7.358
12973TIP3    H138804   0.844   2.732   7.401
12973TIP3    H238805   0.960   2.822   7.365
12974TIP3   OH238806   1.664   2.520   7.895
12974TIP3    H138807   1.616   2.486   7.970
12974TIP3    H238808   1.749   2.477   7.899
12975TIP3   OH238809   1.642   2.368   6.810
12975TIP3    H138810   1.692   2.337   6.885
12975TIP3    H238811   1.558   2.323   6.818
12976TIP3   OH238812   1.880   3.035   7.985
12976TIP3    H138813   1.831   2.955   7.965
12976TIP3    H238814   1.884   3.082   7.902
12977TIP3   OH238815   1.954   2.838   6.621
12977TIP3    H138816   1.985   2.907   6.563
12977TIP3    H238817   1.881   2.878   6.668
12978TIP3   OH238818   1.817   2.274   6.999
12978TIP3    H138819   1.801   2.225   7.079
12978TIP3    H238820   1.912   2.285   6.997
12979TIP3   OH238821   3.868   7.278   0.086
12979TIP3    H138822   3.926   7.224   0.141
12979TIP3    H238823   3.817   7.329   0.149
12980TIP3   OH238824   0.988   2.336   6.831
12980TIP3    H138825   1.001   2.245   6.803
12980TIP3    H238826   0.977   2.330   6.926
12981TIP3   OH238827   0.937   2.352   7.105
12981TIP3    H138828   0.998   2.327   7.175
12981TIP3    H238829   0.937   2.447   7.107
12982TIP3   OH238830   0.683   2.060   7.317
12982TIP3    H138831   0.615   2.110   7.362
12982TIP3    H238832   0.700   2.110   7.237
12983TIP3   OH238833   5.040   6.299   0.192
12983TIP3    H138834   5.132   6.320   0.179
12983TIP3    H238835   5.037   6.250   0.274
12984TIP3   OH238836   1.729   1.418   7.366
12984TIP3    H138837   1.696   1.435   7.278
12984TIP3    H238838   1.769   1.501   7.393
12985TIP3   OH238839   1.204   2.534   7.035
12985TIP3    H138840   1.119   2.558   7.072
12985TIP3    H238841   1.228   2.609   6.980
12986TIP3   OH238842   1.367   1.632   7.468
12986TIP3    H138843   1.434   1.695   7.444
12986TIP3    H238844   1.385   1.612   7.560
12987TIP3   OH238845   4.966   6.556   0.239
12987TIP3    H138846   4.991   6.561   0.331
12987TIP3    H238847   4.995   6.470   0.210
12988TIP3   OH238848   1.536   1.322   7.541
12988TIP3    H138849   1.527   1.383   7.614
12988TIP3    H238850   1.607   1.358   7.488
12989TIP3   OH238851   0.954   2.624   7.110
12989TIP3    H138852   0.934   2.695   7.049
12989TIP3    H238853   0.945   2.664   7.196
12990TIP3   OH238854   5.578   6.433   0.135
12990TIP3    H138855   5.548   6.471   0.217
12990TIP3    H238856   5.572   6.338   0.149
12991TIP3   OH238857   1.944   2.017   7.607
12991TIP3    H138858   1.866   1.962   7.615
12991TIP3    H238859   2.011   1.969   7.656
12992TIP3   OH238860   0.692   2.225   7.088
12992TIP3    H138861   0.763   2.288   7.100
12992TIP3    H238862   0.726   2.162   7.024
12993TIP3   OH238863   1.969   3.006   7.544
12993TIP3    H138864   1.915   3.051   7.479
12993TIP3    H238865   2.058   3.035   7.525
12994TIP3   OH238866   0.498   2.501   7.481
12994TIP3    H138867   0.454   2.543   7.555
12994TIP3    H238868   0.451   2.534   7.404
12995TIP3   OH238869   3.998   7.542   0.561
12995TIP3    H138870   4.067   7.561   0.625
12995TIP3    H238871   3.917   7.548   0.612
12996TIP3   OH238872   4.534   7.592   0.378
12996TIP3    H138873   4.575   7.518   0.422
12996TIP3    H238874   4.440   7.575   0.386
12997TIP3   OH238875   1.145   2.533   6.719
12997TIP3    H138876   1.097   2.464   6.764
12997TIP3    H238877   1.219   2.489   6.678
12998TIP3   OH238878   5.045   7.485   0.213
12998TIP3    H138879   5.108   7.461   0.282
12998TIP3    H238880   5.048   7.580   0.210
12999TIP3   OH238881   1.587   2.575   6.640
12999TIP3    H138882   1.620   2.510   6.702
12999TIP3    H238883   1.647   2.568   6.565
13000TIP3   OH238884   0.817   2.036   6.938
13000TIP3    H138885   0.866   2.008   7.015
13000TIP3    H238886   0.884   2.047   6.870
13001TIP3   OH238887   4.781   7.136   0.454
13001TIP3    H138888   4.712   7.143   0.388
13001TIP3    H238889   4.810   7.045   0.449
13002TIP3   OH238890   1.389   2.249   6.778
13002TIP3    H138891   1.366   2.260   6.870
13002TIP3    H238892   1.371   2.156   6.760
13003TIP3   OH238893   5.175   7.082   0.037
13003TIP3    H138894   5.225   7.157   0.006
13003TIP3    H238895   5.136   7.112   0.120
13004TIP3   OH238896   0.986   1.968   7.148
13004TIP3    H138897   0.970   1.944   7.239
13004TIP3    H238898   1.034   1.894   7.111
13005TIP3   OH238899   4.548   6.632   0.482
13005TIP3    H138900   4.466   6.662   0.442
13005TIP3    H238901   4.603   6.607   0.408
13006TIP3   OH238902   1.130   1.783   7.006
13006TIP3    H138903   1.097   1.781   6.916
13006TIP3    H238904   1.225   1.790   6.995
13007TIP3   OH238905   5.072   7.095   0.520
13007TIP3    H138906   5.086   7.103   0.426
13007TIP3    H238907   5.109   7.009   0.543
13008TIP3   OH238908   1.917   2.071   6.675
13008TIP3    H138909   1.903   2.032   6.589
13008TIP3    H238910   1.895   2.163   6.664
13009TIP3   OH238911   4.611   6.397   0.612
13009TIP3    H138912   4.585   6.339   0.540
13009TIP3    H238913   4.614   6.484   0.573
13010TIP3   OH238914   4.736   6.782   0.083
13010TIP3    H138915   4.789   6.735   0.018
13010TIP3    H238916   4.752   6.874   0.066
13011TIP3   OH238917   5.309   6.648   0.430
13011TIP3    H138918   5.293   6.559   0.461
13011TIP3    H238919   5.343   6.695   0.507
13012TIP3   OH238920   5.416   6.973   0.136
13012TIP3    H138921   5.354   7.032   0.092
13012TIP3    H238922   5.497   7.024   0.142
13013TIP3   OH238923   4.876   6.374   0.733
13013TIP3    H138924   4.882   6.418   0.818
13013TIP3    H238925   4.794   6.405   0.696
13014TIP3   OH238926   5.057   6.461   0.488
13014TIP3    H138927   5.015   6.437   0.570
13014TIP3    H238928   5.143   6.420   0.492
13015TIP3   OH238929   5.435   6.357   0.737
13015TIP3    H138930   5.481   6.274   0.752
13015TIP3    H238931   5.467   6.415   0.806
13016TIP3   OH238932   0.949   2.835   6.930
13016TIP3    H138933   1.038   2.813   6.902
13016TIP3    H238934   0.911   2.881   6.855
13017TIP3   OH238935   0.422   2.188   7.084
13017TIP3    H138936   0.513   2.216   7.088
13017TIP3    H238937   0.417   2.116   7.148
13018TIP3   OH238938   0.287   2.797   7.520
13018TIP3    H138939   0.195   2.772   7.518
13018TIP3    H238940   0.325   2.744   7.590
13019TIP3   OH238941   0.419   2.640   7.711
13019TIP3    H138942   0.414   2.571   7.778
13019TIP3    H238943   0.472   2.708   7.751
13020TIP3   OH238944   2.238   3.135   7.527
13020TIP3    H138945   2.244   3.099   7.616
13020TIP3    H238946   2.326   3.123   7.491
13021TIP3   OH238947   2.211   3.057   7.792
13021TIP3    H138948   2.159   2.978   7.803
13021TIP3    H238949   2.294   3.038   7.836
13022TIP3   OH238950   5.522   7.398   0.323
13022TIP3    H138951   5.546   7.396   0.415
13022TIP3    H238952   5.565   7.476   0.288
13023TIP3   OH238953   2.097   2.280   7.009
13023TIP3    H138954   2.152   2.353   6.980
13023TIP3    H238955   2.145   2.242   7.083
13024TIP3   OH238956   2.234   2.136   7.205
13024TIP3    H138957   2.166   2.104   7.265
13024TIP3    H238958   2.299   2.176   7.262
13025TIP3   OH238959   2.268   2.547   7.620
13025TIP3    H138960   2.324   2.476   7.590
13025TIP3    H238961   2.286   2.619   7.559
13026TIP3   OH238962   2.054   2.827   7.835
13026TIP3    H138963   1.976   2.822   7.892
13026TIP3    H238964   2.024   2.792   7.751
13027TIP3   OH238965   2.124   2.055   6.856
13027TIP3    H138966   2.052   2.055   6.793
13027TIP3    H238967   2.110   2.133   6.909
13028TIP3   OH238968   1.994   1.705   6.795
13028TIP3    H138969   1.947   1.744   6.722
13028TIP3    H238970   1.986   1.611   6.782
13029TIP3   OH238971   2.023   2.007   7.341
13029TIP3    H138972   2.029   1.912   7.330
13029TIP3    H238973   2.002   2.019   7.434
13030TIP3   OH238974   5.657   7.096   0.162
13030TIP3    H138975   5.708   7.015   0.159
13030TIP3    H238976   5.681   7.142   0.081
13031TIP3   OH238977   5.785   6.859   0.167
13031TIP3    H138978   5.721   6.812   0.220
13031TIP3    H238979   5.863   6.804   0.168
13032TIP3   OH238980   1.943   1.436   6.750
13032TIP3    H138981   2.006   1.411   6.817
13032TIP3    H238982   1.859   1.402   6.782
13033TIP3   OH238983   2.014   1.724   7.227
13033TIP3    H138984   2.060   1.641   7.239
13033TIP3    H238985   2.056   1.765   7.152
13034TIP3   OH238986   2.156   1.866   7.721
13034TIP3    H138987   2.235   1.887   7.672
13034TIP3    H238988   2.165   1.917   7.802
13035TIP3   OH238989   2.204   2.046   7.923
13035TIP3    H138990   2.117   2.078   7.949
13035TIP3    H238991   2.248   2.124   7.887
13036TIP3   OH238992   6.048   6.196   0.569
13036TIP3    H138993   6.125   6.155   0.528
13036TIP3    H238994   6.083   6.275   0.610
13037TIP3   OH238995   2.128   1.474   7.281
13037TIP3    H138996   2.177   1.462   7.362
13037TIP3    H238997   2.065   1.402   7.279
13038TIP3   OH238998   5.840   6.488   0.159
13038TIP3    H138999   5.747   6.466   0.153
13038TIP3    H239000   5.874   6.428   0.227
13039TIP3   OH239001   2.164   1.387   6.909
13039TIP3    H139002   2.213   1.325   6.856
13039TIP3    H239003   2.221   1.463   6.917
13040TIP3   OH239004   1.756   2.952   7.190
13040TIP3    H139005   1.815   2.942   7.115
13040TIP3    H239006   1.799   3.018   7.245
13041TIP3   OH239007   4.176   7.312   0.533
13041TIP3    H139008   4.108   7.380   0.526
13041TIP3    H239009   4.146   7.257   0.606
13042TIP3   OH239010   4.295   7.399   0.072
13042TIP3    H139011   4.255   7.479   0.036
13042TIP3    H239012   4.389   7.415   0.066
13043TIP3   OH239013   4.760   7.598   0.170
13043TIP3    H139014   4.784   7.587   0.262
13043TIP3    H239015   4.823   7.661   0.136
13044TIP3   OH239016   4.943   7.796   0.116
13044TIP3    H139017   4.998   7.752   0.051
13044TIP3    H239018   5.004   7.851   0.166
13045TIP3   OH239019   5.831   6.155   0.144
13045TIP3    H139020   5.739   6.172   0.160
13045TIP3    H239021   5.838   6.059   0.142
13046TIP3   OH239022   3.953   7.677   0.050
13046TIP3    H139023   3.867   7.683   0.009
13046TIP3    H239024   3.938   7.700   0.142
13047TIP3   OH239025   0.945   3.018   7.972
13047TIP3    H139026   0.858   3.032   8.009
13047TIP3    H239027   0.936   3.044   7.880
13048TIP3   OH239028   1.387   3.067   7.776
13048TIP3    H139029   1.307   3.070   7.723
13048TIP3    H239030   1.387   3.149   7.825
13049TIP3   OH239031   1.644   2.989   7.828
13049TIP3    H139032   1.554   3.013   7.806
13049TIP3    H239033   1.697   3.055   7.784
13050TIP3   OH239034   1.863   3.166   7.744
13050TIP3    H139035   1.851   3.250   7.699
13050TIP3    H239036   1.900   3.108   7.677
13051TIP3   OH239037   0.599   2.803   7.847
13051TIP3    H139038   0.596   2.771   7.937
13051TIP3    H239039   0.683   2.771   7.813
13052TIP3   OH239040   0.826   2.694   7.744
13052TIP3    H139041   0.845   2.612   7.788
13052TIP3    H239042   0.911   2.737   7.735
13053TIP3   OH239043   1.089   2.774   7.713
13053TIP3    H139044   1.110   2.683   7.693
13053TIP3    H239045   1.152   2.799   7.780
13054TIP3   OH239046   1.675   1.473   7.800
13054TIP3    H139047   1.659   1.445   7.890
13054TIP3    H239048   1.733   1.405   7.764
13055TIP3   OH239049   2.183   1.315   7.717
13055TIP3    H139050   2.228   1.367   7.650
13055TIP3    H239051   2.104   1.367   7.738
13056TIP3   OH239052   2.295   1.422   7.495
13056TIP3    H139053   2.364   1.362   7.468
13056TIP3    H239054   2.333   1.509   7.483
13057TIP3   OH239055   1.855   1.302   7.683
13057TIP3    H139056   1.876   1.319   7.591
13057TIP3    H239057   1.819   1.213   7.683
13058TIP3   OH239058   1.945   1.261   7.294
13058TIP3    H139059   1.864   1.307   7.315
13058TIP3    H239060   1.932   1.173   7.329
13059TIP3   OH239061   0.367   2.584   7.246
13059TIP3    H139062   0.287   2.554   7.203
13059TIP3    H239063   0.376   2.676   7.218
13060TIP3   OH239064   1.340   1.383   7.356
13060TIP3    H139065   1.393   1.336   7.420
13060TIP3    H239066   1.336   1.472   7.389
13061TIP3   OH239067   1.204   2.758   6.861
13061TIP3    H139068   1.287   2.785   6.823
13061TIP3    H239069   1.174   2.686   6.806
13062TIP3   OH239070   1.913   2.904   6.964
13062TIP3    H139071   1.905   2.809   6.958
13062TIP3    H239072   1.870   2.937   6.886
13063TIP3   OH239073   0.510   2.598   6.906
13063TIP3    H139074   0.507   2.601   7.002
13063TIP3    H239075   0.590   2.550   6.887
13064TIP3   OH239076   5.510   6.083   0.726
13064TIP3    H139077   5.490   5.990   0.740
13064TIP3    H239078   5.605   6.088   0.723
13065TIP3   OH239079   5.402   7.678   0.099
13065TIP3    H139080   5.322   7.647   0.058
13065TIP3    H239081   5.390   7.773   0.108
13066TIP3   OH239082   3.404   2.425   6.875
13066TIP3    H139083   3.369   2.511   6.849
13066TIP3    H239084   3.328   2.369   6.882
13067TIP3   OH239085   3.397   2.417   7.311
13067TIP3    H139086   3.450   2.404   7.390
13067TIP3    H239087   3.353   2.333   7.298
13068TIP3   OH239088   2.695   2.269   7.657
13068TIP3    H139089   2.724   2.216   7.731
13068TIP3    H239090   2.770   2.324   7.635
13069TIP3   OH239091   3.664   2.729   6.987
13069TIP3    H139092   3.656   2.662   7.054
13069TIP3    H239093   3.686   2.809   7.035
13070TIP3   OH239094   2.658   2.679   7.371
13070TIP3    H139095   2.654   2.584   7.361
13070TIP3    H239096   2.752   2.699   7.372
13071TIP3   OH239097   2.377   1.906   7.124
13071TIP3    H139098   2.344   1.991   7.152
13071TIP3    H239099   2.301   1.862   7.086
13072TIP3   OH239100   2.458   2.228   7.343
13072TIP3    H139101   2.505   2.151   7.373
13072TIP3    H239102   2.527   2.293   7.326
13073TIP3   OH239103   3.326   3.156   7.004
13073TIP3    H139104   3.354   3.090   6.941
13073TIP3    H239105   3.325   3.111   7.088
13074TIP3   OH239106   3.209   2.642   7.321
13074TIP3    H139107   3.254   2.561   7.295
13074TIP3    H239108   3.279   2.699   7.353
13075TIP3   OH239109   4.241   1.962   7.337
13075TIP3    H139110   4.257   2.046   7.381
13075TIP3    H239111   4.264   1.979   7.245
13076TIP3   OH239112   3.613   2.131   7.350
13076TIP3    H139113   3.643   2.046   7.383
13076TIP3    H239114   3.574   2.111   7.265
13077TIP3   OH239115   2.972   1.804   7.317
13077TIP3    H139116   2.947   1.874   7.256
13077TIP3    H239117   2.915   1.731   7.293
13078TIP3   OH239118   3.669   1.888   6.948
13078TIP3    H139119   3.729   1.881   7.022
13078TIP3    H239120   3.723   1.924   6.877
13079TIP3   OH239121   2.591   2.007   7.435
13079TIP3    H139122   2.674   1.996   7.481
13079TIP3    H239123   2.598   1.952   7.358
13080TIP3   OH239124   3.018   2.211   7.245
13080TIP3    H139125   3.111   2.191   7.258
13080TIP3    H239126   2.979   2.128   7.218
13081TIP3   OH239127   4.296   2.186   7.496
13081TIP3    H139128   4.205   2.216   7.494
13081TIP3    H239129   4.332   2.221   7.577
13082TIP3   OH239130   2.953   1.802   7.756
13082TIP3    H139131   2.904   1.844   7.686
13082TIP3    H239132   2.895   1.808   7.833
13083TIP3   OH239133   3.294   2.642   6.743
13083TIP3    H139134   3.254   2.616   6.660
13083TIP3    H239135   3.244   2.719   6.770
13084TIP3   OH239136   3.045   2.571   7.531
13084TIP3    H139137   2.988   2.642   7.561
13084TIP3    H239138   3.095   2.608   7.459
13085TIP3   OH239139   3.820   1.913   7.173
13085TIP3    H139140   3.777   1.891   7.255
13085TIP3    H239141   3.876   1.988   7.193
13086TIP3   OH239142   2.836   1.912   7.532
13086TIP3    H139143   2.888   1.988   7.558
13086TIP3    H239144   2.888   1.870   7.464
13087TIP3   OH239145   2.882   2.775   7.620
13087TIP3    H139146   2.865   2.864   7.588
13087TIP3    H239147   2.807   2.755   7.675
13088TIP3   OH239148   2.262   2.474   6.890
13088TIP3    H139149   2.224   2.498   6.806
13088TIP3    H239150   2.285   2.557   6.931
13089TIP3   OH239151   3.700   2.977   7.124
13089TIP3    H139152   3.614   2.968   7.165
13089TIP3    H239153   3.697   3.063   7.081
13090TIP3   OH239154   4.045   1.846   7.506
13090TIP3    H139155   3.958   1.870   7.472
13090TIP3    H239156   4.106   1.876   7.439
13091TIP3   OH239157   3.413   3.005   6.785
13091TIP3    H139158   3.465   2.926   6.775
13091TIP3    H239159   3.470   3.077   6.756
13092TIP3   OH239160   3.546   2.771   6.741
13092TIP3    H139161   3.472   2.711   6.743
13092TIP3    H239162   3.596   2.750   6.820
13093TIP3   OH239163   3.935   2.868   7.466
13093TIP3    H139164   3.918   2.791   7.412
13093TIP3    H239165   3.921   2.942   7.408
13094TIP3   OH239166   3.218   2.249   6.738
13094TIP3    H139167   3.141   2.303   6.723
13094TIP3    H239168   3.274   2.265   6.661
13095TIP3   OH239169   3.190   2.058   6.435
13095TIP3    H139170   3.244   2.107   6.497
13095TIP3    H239171   3.251   1.997   6.394
13096TIP3   OH239172   4.118   2.523   7.337
13096TIP3    H139173   4.034   2.568   7.338
13096TIP3    H239174   4.152   2.536   7.249
13097TIP3   OH239175   3.591   2.346   6.695
13097TIP3    H139176   3.535   2.377   6.766
13097TIP3    H239177   3.674   2.325   6.737
13098TIP3   OH239178   3.816   2.392   7.643
13098TIP3    H139179   3.813   2.475   7.692
13098TIP3    H239180   3.733   2.389   7.596
13099TIP3   OH239181   2.824   2.345   7.094
13099TIP3    H139182   2.789   2.279   7.035
13099TIP3    H239183   2.897   2.301   7.138
13100TIP3   OH239184   2.935   2.746   7.265
13100TIP3    H139185   2.916   2.739   7.172
13100TIP3    H239186   3.026   2.717   7.273
13101TIP3   OH239187   2.918   2.335   7.474
13101TIP3    H139188   2.961   2.301   7.395
13101TIP3    H239189   2.965   2.417   7.493
13102TIP3   OH239190   3.464   2.965   7.259
13102TIP3    H139191   3.452   3.046   7.308
13102TIP3    H239192   3.449   2.896   7.323
13103TIP3   OH239193   3.081   2.868   7.792
13103TIP3    H139194   3.020   2.928   7.833
13103TIP3    H239195   3.026   2.816   7.732
13104TIP3   OH239196   3.412   2.218   6.531
13104TIP3    H139197   3.475   2.273   6.577
13104TIP3    H239198   3.440   2.222   6.439
13105TIP3   OH239199   2.849   2.433   7.881
13105TIP3    H139200   2.855   2.522   7.917
13105TIP3    H239201   2.756   2.410   7.890
13106TIP3   OH239202   3.165   2.884   6.777
13106TIP3    H139203   3.246   2.933   6.792
13106TIP3    H239204   3.104   2.948   6.741
13107TIP3   OH239205   2.875   3.036   7.859
13107TIP3    H139206   2.839   3.044   7.771
13107TIP3    H239207   2.799   3.017   7.914
13108TIP3   OH239208   3.917   1.440   6.592
13108TIP3    H139209   3.842   1.461   6.648
13108TIP3    H239210   3.928   1.517   6.537
13109TIP3   OH239211   2.688   2.181   6.901
13109TIP3    H139212   2.607   2.226   6.877
13109TIP3    H239213   2.658   2.101   6.945
13110TIP3   OH239214   3.752   2.814   6.150
13110TIP3    H139215   3.745   2.908   6.131
13110TIP3    H239216   3.841   2.790   6.125
13111TIP3   OH239217   2.463   2.588   7.822
13111TIP3    H139218   2.399   2.571   7.752
13111TIP3    H239219   2.504   2.503   7.837
13112TIP3   OH239220   2.384   2.748   7.460
13112TIP3    H139221   2.472   2.723   7.429
13112TIP3    H239222   2.401   2.812   7.528
13113TIP3   OH239223   4.168   3.219   7.540
13113TIP3    H139224   4.172   3.125   7.556
13113TIP3    H239225   4.089   3.248   7.586
13114TIP3   OH239226   3.265   3.019   7.656
13114TIP3    H139227   3.257   3.108   7.692
13114TIP3    H239228   3.202   2.967   7.706
13115TIP3   OH239229   3.055   3.110   6.622
13115TIP3    H139230   3.008   3.094   6.540
13115TIP3    H239231   3.018   3.192   6.654
13116TIP3   OH239232   2.484   2.967   6.987
13116TIP3    H139233   2.533   2.948   7.067
13116TIP3    H239234   2.435   2.886   6.969
13117TIP3   OH239235   3.258   3.042   6.245
13117TIP3    H139236   3.307   2.966   6.212
13117TIP3    H239237   3.292   3.055   6.333
13118TIP3   OH239238   3.308   3.082   6.516
13118TIP3    H139239   3.223   3.087   6.558
13118TIP3    H239240   3.367   3.049   6.584
13119TIP3   OH239241   4.063   2.336   7.801
13119TIP3    H139242   3.976   2.346   7.762
13119TIP3    H239243   4.079   2.242   7.801
13120TIP3   OH239244   2.669   2.770   7.793
13120TIP3    H139245   2.726   2.756   7.868
13120TIP3    H239246   2.598   2.706   7.804
13121TIP3   OH239247   3.023   1.576   7.619
13121TIP3    H139248   2.938   1.550   7.583
13121TIP3    H239249   3.006   1.658   7.665
13122TIP3   OH239250   3.620   1.713   7.793
13122TIP3    H139251   3.690   1.678   7.848
13122TIP3    H239252   3.542   1.664   7.818
13123TIP3   OH239253   3.824   2.130   7.726
13123TIP3    H139254   3.781   2.121   7.811
13123TIP3    H239255   3.805   2.219   7.699
13124TIP3   OH239256   3.488   2.189   6.264
13124TIP3    H139257   3.452   2.188   6.176
13124TIP3    H239258   3.571   2.237   6.256
13125TIP3   OH239259   3.193   1.681   6.640
13125TIP3    H139260   3.179   1.721   6.726
13125TIP3    H239261   3.107   1.649   6.615
13126TIP3   OH239262   2.987   2.119   7.632
13126TIP3    H139263   2.941   2.125   7.716
13126TIP3    H239264   2.962   2.199   7.586
13127TIP3   OH239265   2.868   1.997   7.151
13127TIP3    H139266   2.781   1.966   7.176
13127TIP3    H239267   2.882   1.960   7.064
13128TIP3   OH239268   3.353   2.052   6.873
13128TIP3    H139269   3.302   2.123   6.834
13128TIP3    H239270   3.416   2.027   6.805
13129TIP3   OH239271   3.546   2.338   7.935
13129TIP3    H139272   3.518   2.269   7.995
13129TIP3    H239273   3.634   2.361   7.965
13130TIP3   OH239274   3.519   2.071   7.100
13130TIP3    H139275   3.448   2.087   7.037
13130TIP3    H239276   3.569   1.999   7.063
13131TIP3   OH239277   2.819   2.106   7.856
13131TIP3    H139278   2.832   2.159   7.935
13131TIP3    H239279   2.799   2.019   7.888
13132TIP3   OH239280   2.889   1.589   6.596
13132TIP3    H139281   2.873   1.672   6.641
13132TIP3    H239282   2.825   1.587   6.524
13133TIP3   OH239283   2.423   1.647   7.422
13133TIP3    H139284   2.486   1.691   7.480
13133TIP3    H239285   2.467   1.643   7.337
13134TIP3   OH239286   2.322   1.617   6.926
13134TIP3    H139287   2.368   1.653   6.850
13134TIP3    H239288   2.263   1.688   6.953
13135TIP3   OH239289   3.565   2.334   7.524
13135TIP3    H139290   3.589   2.266   7.461
13135TIP3    H239291   3.519   2.287   7.594
13136TIP3   OH239292   3.234   1.786   7.190
13136TIP3    H139293   3.160   1.788   7.251
13136TIP3    H239294   3.311   1.773   7.246
13137TIP3   OH239295   2.637   1.857   7.209
13137TIP3    H139296   2.549   1.859   7.170
13137TIP3    H239297   2.668   1.768   7.192
13138TIP3   OH239298   2.902   1.867   6.916
13138TIP3    H139299   2.997   1.856   6.905
13138TIP3    H239300   2.867   1.859   6.827
13139TIP3   OH239301   3.678   1.865   7.407
13139TIP3    H139302   3.659   1.885   7.498
13139TIP3    H239303   3.609   1.805   7.380
13140TIP3   OH239304   2.806   1.844   6.657
13140TIP3    H139305   2.719   1.824   6.623
13140TIP3    H239306   2.844   1.904   6.593
13141TIP3   OH239307   3.851   3.559   7.622
13141TIP3    H139308   3.852   3.569   7.527
13141TIP3    H239309   3.935   3.597   7.651
13142TIP3   OH239310   6.109   7.312  -0.001
13142TIP3    H139311   6.190   7.332   0.046
13142TIP3    H239312   6.040   7.318   0.065
13143TIP3   OH239313   3.285   2.149   7.307
13143TIP3    H139314   3.350   2.094   7.264
13143TIP3    H239315   3.278   2.113   7.396
13144TIP3   OH239316   2.793   1.612   7.211
13144TIP3    H139317   2.753   1.535   7.253
13144TIP3    H239318   2.863   1.575   7.158
13145TIP3   OH239319   3.252   2.060   7.570
13145TIP3    H139320   3.165   2.091   7.597
13145TIP3    H239321   3.313   2.110   7.624
13146TIP3   OH239322   2.994   2.406   6.688
13146TIP3    H139323   2.919   2.351   6.664
13146TIP3    H239324   2.962   2.458   6.763
13147TIP3   OH239325   3.882   2.660   7.292
13147TIP3    H139326   3.919   2.708   7.218
13147TIP3    H239327   3.803   2.619   7.257
13148TIP3   OH239328   3.453   1.737   6.562
13148TIP3    H139329   3.361   1.722   6.585
13148TIP3    H239330   3.470   1.827   6.588
13149TIP3   OH239331   3.406   2.743   7.712
13149TIP3    H139332   3.460   2.721   7.788
13149TIP3    H239333   3.369   2.829   7.733
13150TIP3   OH239334   3.524   1.987   6.657
13150TIP3    H139335   3.618   1.993   6.675
13150TIP3    H239336   3.504   2.069   6.612
13151TIP3   OH239337   2.682   2.398   7.331
13151TIP3    H139338   2.725   2.391   7.245
13151TIP3    H239339   2.749   2.371   7.394
13152TIP3   OH239340   3.142   2.561   6.514
13152TIP3    H139341   3.096   2.644   6.513
13152TIP3    H239342   3.091   2.506   6.574
13153TIP3   OH239343   2.576   2.360   7.924
13153TIP3    H139344   2.596   2.338   8.015
13153TIP3    H239345   2.502   2.304   7.902
13154TIP3   OH239346   3.307   2.487   7.958
13154TIP3    H139347   3.242   2.424   7.929
13154TIP3    H239348   3.391   2.447   7.934
13155TIP3   OH239349   3.537   3.030   7.581
13155TIP3    H139350   3.443   3.017   7.586
13155TIP3    H239351   3.560   3.072   7.664
13156TIP3   OH239352   3.928   2.072   6.479
13156TIP3    H139353   3.869   2.027   6.419
13156TIP3    H239354   3.935   2.161   6.444
13157TIP3   OH239355   4.180   2.937   7.564
13157TIP3    H139356   4.085   2.926   7.554
13157TIP3    H239357   4.216   2.912   7.479
13158TIP3   OH239358   3.667   2.892   6.415
13158TIP3    H139359   3.647   2.824   6.480
13158TIP3    H239360   3.691   2.843   6.336
13159TIP3   OH239361   3.654   2.525   7.186
13159TIP3    H139362   3.565   2.504   7.216
13159TIP3    H239363   3.687   2.443   7.151
13160TIP3   OH239364   2.803   2.783   7.015
13160TIP3    H139365   2.798   2.849   6.946
13160TIP3    H239366   2.741   2.814   7.082
13161TIP3   OH239367   2.364   2.038   6.724
13161TIP3    H139368   2.407   2.121   6.745
13161TIP3    H239369   2.282   2.040   6.774
13162TIP3   OH239370   2.860   2.539   6.891
13162TIP3    H139371   2.849   2.625   6.931
13162TIP3    H239372   2.848   2.477   6.963
13163TIP3   OH239373   3.063   3.099   7.468
13163TIP3    H139374   3.106   3.170   7.420
13163TIP3    H239375   3.132   3.061   7.521
13164TIP3   OH239376   2.718   2.990   6.842
13164TIP3    H139377   2.633   2.992   6.885
13164TIP3    H239378   2.753   3.079   6.853
13165TIP3   OH239379   3.441   2.747   7.438
13165TIP3    H139380   3.424   2.746   7.532
13165TIP3    H239381   3.526   2.703   7.429
13166TIP3   OH239382   3.431   2.622   6.319
13166TIP3    H139383   3.498   2.594   6.381
13166TIP3    H239384   3.348   2.605   6.363
13167TIP3   OH239385   3.697   3.234   7.469
13167TIP3    H139386   3.627   3.171   7.489
13167TIP3    H239387   3.659   3.291   7.401
13168TIP3   OH239388   3.749   3.089   6.110
13168TIP3    H139389   3.782   3.155   6.049
13168TIP3    H239390   3.675   3.132   6.153
13169TIP3   OH239391   2.779   1.839   7.964
13169TIP3    H139392   2.690   1.839   7.999
13169TIP3    H239393   2.832   1.799   8.032
13170TIP3   OH239394   3.623   2.528   6.486
13170TIP3    H139395   3.607   2.475   6.564
13170TIP3    H239396   3.718   2.539   6.483
13171TIP3   OH239397   2.475   2.926   7.650
13171TIP3    H139398   2.552   2.893   7.698
13171TIP3    H239399   2.511   2.992   7.591
13172TIP3   OH239400   2.781   2.619   6.337
13172TIP3    H139401   2.792   2.528   6.311
13172TIP3    H239402   2.772   2.616   6.432
13173TIP3   OH239403   2.727   2.608   6.613
13173TIP3    H139404   2.771   2.585   6.695
13173TIP3    H239405   2.727   2.704   6.613
13174TIP3   OH239406   2.455   2.294   6.799
13174TIP3    H139407   2.392   2.341   6.852
13174TIP3    H239408   2.474   2.353   6.726
13175TIP3   OH239409   3.624   1.948   7.661
13175TIP3    H139410   3.702   1.992   7.695
13175TIP3    H239411   3.617   1.868   7.713
13176TIP3   OH239412   3.515   1.684   6.843
13176TIP3    H139413   3.500   1.711   6.752
13176TIP3    H239414   3.562   1.757   6.883
13177TIP3   OH239415   2.999   2.790   6.511
13177TIP3    H139416   2.916   2.810   6.553
13177TIP3    H239417   3.025   2.872   6.468
13178TIP3   OH239418   3.177   1.843   6.912
13178TIP3    H139419   3.236   1.917   6.899
13178TIP3    H239420   3.189   1.819   7.004
13179TIP3   OH239421   3.460   2.170   7.720
13179TIP3    H139422   3.491   2.213   7.800
13179TIP3    H239423   3.511   2.089   7.715
13180TIP3   OH239424   3.320   1.588   7.018
13180TIP3    H139425   3.298   1.658   7.080
13180TIP3    H239426   3.390   1.625   6.965
13181TIP3   OH239427   2.751   2.880   6.596
13181TIP3    H139428   2.729   2.950   6.534
13181TIP3    H239429   2.739   2.919   6.682
13182TIP3   OH239430   4.081   2.053   7.707
13182TIP3    H139431   3.988   2.073   7.719
13182TIP3    H239432   4.082   1.986   7.639
13183TIP3   OH239433   3.744   2.265   7.100
13183TIP3    H139434   3.666   2.211   7.115
13183TIP3    H239435   3.811   2.228   7.157
13184TIP3   OH239436   2.485   2.471   6.584
13184TIP3    H139437   2.555   2.535   6.600
13184TIP3    H239438   2.520   2.412   6.519
13185TIP3   OH239439   2.395   1.760   6.701
13185TIP3    H139440   2.391   1.855   6.712
13185TIP3    H239441   2.321   1.739   6.644
13186TIP3   OH239442   3.725   3.245   7.044
13186TIP3    H139443   3.685   3.297   6.974
13186TIP3    H239444   3.819   3.254   7.031
13187TIP3   OH239445   2.764   1.500   7.561
13187TIP3    H139446   2.743   1.461   7.476
13187TIP3    H239447   2.769   1.425   7.621
13188TIP3   OH239448   2.306   2.740   6.975
13188TIP3    H139449   2.274   2.782   7.055
13188TIP3    H239450   2.262   2.787   6.905
13189TIP3   OH239451   5.780   7.900   0.005
13189TIP3    H139452   5.861   7.891   0.054
13189TIP3    H239453   5.749   7.810  -0.007
13190TIP3   OH239454   6.251   7.802   0.065
13190TIP3    H139455   6.340   7.769   0.076
13190TIP3    H239456   6.218   7.756  -0.012
13191TIP3   OH239457   2.938   2.804   6.200
13191TIP3    H139458   2.892   2.741   6.256
13191TIP3    H239459   3.011   2.755   6.164
13192TIP3   OH239460   3.596   3.147   7.820
13192TIP3    H139461   3.595   3.069   7.876
13192TIP3    H239462   3.676   3.194   7.846
13193TIP3   OH239463   3.380   2.822   6.133
13193TIP3    H139464   3.417   2.761   6.196
13193TIP3    H239465   3.440   2.818   6.058
13194TIP3   OH239466   5.895   7.318   0.180
13194TIP3    H139467   5.918   7.225   0.173
13194TIP3    H239468   5.811   7.326   0.135
13195TIP3   OH239469   2.618   2.287   6.429
13195TIP3    H139470   2.668   2.262   6.507
13195TIP3    H239471   2.685   2.310   6.365
13196TIP3   OH239472   3.247   2.764   7.985
13196TIP3    H139473   3.198   2.785   7.905
13196TIP3    H239474   3.280   2.675   7.970
13197TIP3   OH239475   3.129   2.483   6.250
13197TIP3    H139476   3.131   2.507   6.343
13197TIP3    H239477   3.129   2.387   6.250
13198TIP3   OH239478   3.711   2.807   7.616
13198TIP3    H139479   3.788   2.838   7.569
13198TIP3    H239480   3.645   2.876   7.603
13199TIP3   OH239481   5.996   7.068   0.157
13199TIP3    H139482   6.081   7.023   0.158
13199TIP3    H239483   5.954   7.040   0.238
13200TIP3   OH239484   2.788   2.220   6.642
13200TIP3    H139485   2.761   2.204   6.732
13200TIP3    H239486   2.832   2.140   6.615
13201TIP3   OH239487   3.091   2.297   7.880
13201TIP3    H139488   3.007   2.343   7.884
13201TIP3    H239489   3.130   2.325   7.797
13202TIP3   OH239490   2.915   2.021   6.475
13202TIP3    H139491   2.884   2.057   6.391
13202TIP3    H239492   3.010   2.034   6.473
13203TIP3   OH239493   3.589   2.675   7.944
13203TIP3    H139494   3.668   2.647   7.897
13203TIP3    H239495   3.589   2.623   8.024
13204TIP3   OH239496   3.708   2.327   6.170
13204TIP3    H139497   3.701   2.289   6.083
13204TIP3    H239498   3.683   2.419   6.159
13205TIP3   OH239499   3.206   2.060   7.965
13205TIP3    H139500   3.214   1.988   7.903
13205TIP3    H239501   3.165   2.131   7.915
13206TIP3   OH239502   3.222   1.857   7.773
13206TIP3    H139503   3.243   1.901   7.691
13206TIP3    H239504   3.129   1.834   7.765
13207TIP3   OH239505   3.216   2.404   7.665
13207TIP3    H139506   3.303   2.443   7.659
13207TIP3    H239507   3.158   2.465   7.621
13208TIP3   OH239508   7.094   6.992   0.048
13208TIP3    H139509   7.154   6.918   0.046
13208TIP3    H239510   7.151   7.069   0.049
13209TIP3   OH239511   3.836   2.636   7.786
13209TIP3    H139512   3.784   2.696   7.734
13209TIP3    H239513   3.926   2.649   7.756
13210TIP3   OH239514   6.407   6.803   0.204
13210TIP3    H139515   6.317   6.833   0.219
13210TIP3    H239516   6.413   6.790   0.110
13211TIP3   OH239517   3.354   1.615   7.840
13211TIP3    H139518   3.317   1.698   7.811
13211TIP3    H239519   3.280   1.554   7.838
13212TIP3   OH239520   6.720   6.743   0.074
13212TIP3    H139521   6.709   6.726   0.167
13212TIP3    H239522   6.637   6.715   0.035
13213TIP3   OH239523   3.699   2.073   7.955
13213TIP3    H139524   3.622   2.077   8.011
13213TIP3    H239525   3.771   2.051   8.014
13214TIP3   OH239526   7.217   6.651   0.075
13214TIP3    H139527   7.227   6.557   0.090
13214TIP3    H239528   7.209   6.689   0.163
13215TIP3   OH239529   6.239   6.565   0.178
13215TIP3    H139530   6.246   6.469   0.176
13215TIP3    H239531   6.329   6.596   0.173
13216TIP3   OH239532   6.698   6.274   0.096
13216TIP3    H139533   6.725   6.187   0.126
13216TIP3    H239534   6.678   6.261   0.003
13217TIP3   OH239535   6.792   6.468   0.256
13217TIP3    H139536   6.766   6.406   0.188
13217TIP3    H239537   6.716   6.524   0.269
13218TIP3   OH239538   2.744   3.089   6.413
13218TIP3    H139539   2.836   3.072   6.390
13218TIP3    H239540   2.708   3.134   6.337
13219TIP3   OH239541   2.210   2.480   6.586
13219TIP3    H139542   2.305   2.487   6.591
13219TIP3    H239543   2.194   2.393   6.551
13220TIP3   OH239544   2.117   3.056   7.072
13220TIP3    H139545   2.055   3.000   7.026
13220TIP3    H239546   2.164   2.997   7.131
13221TIP3   OH239547   2.280   2.893   7.231
13221TIP3    H139548   2.283   2.828   7.301
13221TIP3    H239549   2.344   2.959   7.257
13222TIP3   OH239550   3.999   3.287   7.037
13222TIP3    H139551   4.018   3.312   7.127
13222TIP3    H239552   4.056   3.342   6.983
13223TIP3   OH239553   4.020   3.320   7.316
13223TIP3    H139554   3.970   3.239   7.311
13223TIP3    H239555   4.087   3.304   7.382
13224TIP3   OH239556   4.054   3.029   7.902
13224TIP3    H139557   3.982   3.036   7.965
13224TIP3    H239558   4.102   3.111   7.911
13225TIP3   OH239559   3.900   2.537   6.493
13225TIP3    H139560   3.956   2.609   6.464
13225TIP3    H239561   3.945   2.500   6.569
13226TIP3   OH239562   4.025   2.396   6.697
13226TIP3    H139563   3.958   2.361   6.756
13226TIP3    H239564   4.091   2.434   6.755
13227TIP3   OH239565   4.063   2.798   7.130
13227TIP3    H139566   4.117   2.729   7.091
13227TIP3    H239567   4.067   2.870   7.068
13228TIP3   OH239568   3.872   3.087   7.314
13228TIP3    H139569   3.805   3.129   7.368
13228TIP3    H239570   3.822   3.045   7.243
13229TIP3   OH239571   3.923   2.310   6.341
13229TIP3    H139572   3.848   2.311   6.282
13229TIP3    H239573   3.913   2.389   6.394
13230TIP3   OH239574   3.766   1.958   6.289
13230TIP3    H139575   3.729   1.992   6.207
13230TIP3    H239576   3.768   1.863   6.277
13231TIP3   OH239577   3.818   2.259   6.833
13231TIP3    H139578   3.826   2.164   6.822
13231TIP3    H239579   3.797   2.270   6.926
13232TIP3   OH239580   2.439   2.335   7.594
13232TIP3    H139581   2.428   2.297   7.507
13232TIP3    H239582   2.530   2.318   7.617
13233TIP3   OH239583   4.096   2.676   7.693
13233TIP3    H139584   4.162   2.608   7.679
13233TIP3    H239585   4.121   2.746   7.632
13234TIP3   OH239586   4.274   2.464   7.683
13234TIP3    H139587   4.199   2.420   7.725
13234TIP3    H239588   4.349   2.409   7.705
13235TIP3   OH239589   3.744   1.686   6.243
13235TIP3    H139590   3.807   1.660   6.310
13235TIP3    H239591   3.661   1.645   6.271
13236TIP3   OH239592   3.808   1.979   6.718
13236TIP3    H139593   3.853   1.895   6.730
13236TIP3    H239594   3.852   2.018   6.643
13237TIP3   OH239595   3.958   2.145   7.242
13237TIP3    H139596   4.040   2.162   7.195
13237TIP3    H239597   3.972   2.185   7.328
13238TIP3   OH239598   4.033   2.294   7.469
13238TIP3    H139599   3.962   2.323   7.527
13238TIP3    H239600   4.064   2.375   7.428
13239TIP3   OH239601   6.004   6.701   0.163
13239TIP3    H139602   6.093   6.665   0.168
13239TIP3    H239603   5.946   6.625   0.169
13240TIP3   OH239604   4.500   1.902   7.991
13240TIP3    H139605   4.564   1.839   7.960
13240TIP3    H239606   4.467   1.945   7.912
13241TIP3   OH239607   3.919   1.728   6.768
13241TIP3    H139608   3.966   1.716   6.850
13241TIP3    H239609   3.856   1.656   6.766
13242TIP3   OH239610   2.623   1.731   7.593
13242TIP3    H139611   2.673   1.650   7.593
13242TIP3    H239612   2.689   1.800   7.580
13243TIP3   OH239613   2.396   1.974   7.637
13243TIP3    H139614   2.459   1.987   7.566
13243TIP3    H239615   2.447   1.989   7.717
13244TIP3   OH239616   4.352   2.015   7.795
13244TIP3    H139617   4.279   2.055   7.842
13244TIP3    H239618   4.311   1.947   7.741
13245TIP3   OH239619   3.961   1.640   6.408
13245TIP3    H139620   4.011   1.579   6.353
13245TIP3    H239621   4.018   1.717   6.414
13246TIP3   OH239622   2.386   1.467   7.145
13246TIP3    H139623   2.305   1.467   7.195
13246TIP3    H239624   2.371   1.530   7.074
13247TIP3   OH239625   3.551   3.208   6.675
13247TIP3    H139626   3.609   3.199   6.600
13247TIP3    H239627   3.592   3.276   6.729
13248TIP3   OH239628   2.624   1.514   7.878
13248TIP3    H139629   2.604   1.527   7.970
13248TIP3    H239630   2.565   1.573   7.831
13249TIP3   OH239631   5.933   7.619   0.031
13249TIP3    H139632   5.840   7.617   0.010
13249TIP3    H239633   5.936   7.622   0.126
13250TIP3   OH239634   2.811   3.042   7.583
13250TIP3    H139635   2.737   3.074   7.531
13250TIP3    H239636   2.888   3.077   7.538
13251TIP3   OH239637   3.253   3.283   7.746
13251TIP3    H139638   3.290   3.273   7.834
13251TIP3    H239639   3.318   3.333   7.698
13252TIP3   OH239640   3.449   3.430   7.619
13252TIP3    H139641   3.515   3.370   7.583
13252TIP3    H239642   3.499   3.490   7.674
13253TIP3   OH239643   4.257   1.763   7.693
13253TIP3    H139644   4.172   1.764   7.649
13253TIP3    H239645   4.286   1.672   7.688
13254TIP3   OH239646   3.168   3.297   7.302
13254TIP3    H139647   3.100   3.306   7.235
13254TIP3    H239648   3.178   3.384   7.339
13255TIP3   OH239649   3.432   3.228   7.340
13255TIP3    H139650   3.339   3.248   7.327
13255TIP3    H239651   3.478   3.301   7.297
13256TIP3   OH239652   3.635   3.407   7.249
13256TIP3    H139653   3.631   3.493   7.207
13256TIP3    H239654   3.664   3.348   7.179
13257TIP3   OH239655   2.630   2.899   7.208
13257TIP3    H139656   2.630   2.824   7.267
13257TIP3    H239657   2.619   2.975   7.266
13258TIP3   OH239658   2.937   3.046   7.226
13258TIP3    H139659   2.909   2.955   7.223
13258TIP3    H239660   2.978   3.055   7.312
13259TIP3   OH239661   3.478   1.691   7.306
13259TIP3    H139662   3.445   1.614   7.350
13259TIP3    H239663   3.547   1.658   7.248
13260TIP3   OH239664   3.958   1.579   7.214
13260TIP3    H139665   3.991   1.639   7.147
13260TIP3    H239666   3.865   1.599   7.222
13261TIP3   OH239667   4.077   1.682   6.987
13261TIP3    H139668   4.146   1.618   6.967
13261TIP3    H239669   4.119   1.767   6.976
13262TIP3   OH239670   2.702   1.375   7.323
13262TIP3    H139671   2.614   1.342   7.339
13262TIP3    H239672   2.757   1.297   7.320
13263TIP3   OH239673   2.497   1.276   6.975
13263TIP3    H139674   2.527   1.329   6.901
13263TIP3    H239675   2.466   1.340   7.039
13264TIP3   OH239676   3.176   1.424   7.197
13264TIP3    H139677   3.216   1.484   7.133
13264TIP3    H239678   3.245   1.410   7.262
13265TIP3   OH239679   3.677   1.525   7.196
13265TIP3    H139680   3.713   1.462   7.133
13265TIP3    H239681   3.616   1.473   7.249
13266TIP3   OH239682   3.728   1.518   6.780
13266TIP3    H139683   3.650   1.570   6.799
13266TIP3    H239684   3.723   1.443   6.839
13267TIP3   OH239685   2.197   2.865   6.756
13267TIP3    H139686   2.113   2.830   6.726
13267TIP3    H239687   2.199   2.955   6.724
13268TIP3   OH239688   2.612   1.414   6.748
13268TIP3    H139689   2.661   1.351   6.694
13268TIP3    H239690   2.677   1.479   6.773
13269TIP3   OH239691   3.003   3.023   6.349
13269TIP3    H139692   3.088   3.049   6.313
13269TIP3    H239693   2.972   2.954   6.291
13270TIP3   OH239694   3.703   3.161   6.447
13270TIP3    H139695   3.695   3.066   6.441
13270TIP3    H239696   3.661   3.194   6.368
13271TIP3   OH239697   6.220   6.288   0.143
13271TIP3    H139698   6.183   6.238   0.216
13271TIP3    H239699   6.314   6.272   0.148
13272TIP3   OH239700   6.476   6.243   0.255
13272TIP3    H139701   6.550   6.264   0.198
13272TIP3    H239702   6.513   6.183   0.320
13273TIP3   OH239703   2.302   2.854   6.410
13273TIP3    H139704   2.304   2.861   6.506
13273TIP3    H239705   2.384   2.810   6.388
13274TIP3   OH239706   7.279   6.386   0.112
13274TIP3    H139707   7.309   6.370   0.202
13274TIP3    H239708   7.358   6.383   0.059
13275TIP3   OH239709   3.918   3.290   7.633
13275TIP3    H139710   3.843   3.256   7.583
13275TIP3    H239711   3.898   3.383   7.645
13276TIP3   OH239712   5.200   2.677   6.371
13276TIP3    H139713   5.165   2.765   6.364
13276TIP3    H239714   5.128   2.619   6.345
13277TIP3   OH239715   5.182   2.675   6.801
13277TIP3    H139716   5.238   2.660   6.877
13277TIP3    H239717   5.141   2.590   6.784
13278TIP3   OH239718   4.491   2.533   7.145
13278TIP3    H139719   4.530   2.483   7.216
13278TIP3    H239720   4.565   2.559   7.090
13279TIP3   OH239721   5.462   2.990   6.479
13279TIP3    H139722   5.452   2.920   6.543
13279TIP3    H239723   5.488   3.066   6.531
13280TIP3   OH239724   4.486   2.958   6.823
13280TIP3    H139725   4.467   2.865   6.832
13280TIP3    H239726   4.581   2.963   6.818
13281TIP3   OH239727   4.169   2.168   6.612
13281TIP3    H139728   4.133   2.252   6.639
13281TIP3    H239729   4.094   2.121   6.574
13282TIP3   OH239730   4.252   2.484   6.837
13282TIP3    H139731   4.302   2.407   6.865
13282TIP3    H239732   4.319   2.550   6.817
13283TIP3   OH239733   5.135   3.402   6.498
13283TIP3    H139734   5.149   3.339   6.427
13283TIP3    H239735   5.151   3.352   6.578
13284TIP3   OH239736   5.004   2.899   6.807
13284TIP3    H139737   5.048   2.818   6.782
13284TIP3    H239738   5.074   2.958   6.833
13285TIP3   OH239739   6.040   2.213   6.827
13285TIP3    H139740   6.052   2.296   6.874
13285TIP3    H239741   6.066   2.232   6.737
13286TIP3   OH239742   5.402   2.388   6.837
13286TIP3    H139743   5.436   2.304   6.867
13286TIP3    H239744   5.363   2.368   6.751
13287TIP3   OH239745   4.763   2.042   6.799
13287TIP3    H139746   4.743   2.115   6.741
13287TIP3    H239747   4.706   1.971   6.769
13288TIP3   OH239748   5.463   2.147   6.439
13288TIP3    H139749   5.526   2.146   6.512
13288TIP3    H239750   5.512   2.182   6.365
13289TIP3   OH239751   4.388   2.260   6.930
13289TIP3    H139752   4.472   2.243   6.974
13289TIP3    H239753   4.393   2.209   6.849
13290TIP3   OH239754   4.806   2.458   6.747
13290TIP3    H139755   4.900   2.443   6.754
13290TIP3    H239756   4.771   2.375   6.712
13291TIP3   OH239757   6.095   2.431   6.994
13291TIP3    H139758   6.047   2.500   6.948
13291TIP3    H239759   6.140   2.476   7.066
13292TIP3   OH239760   4.745   2.048   7.251
13292TIP3    H139761   4.696   2.085   7.177
13292TIP3    H239762   4.690   2.064   7.327
13293TIP3   OH239763   5.051   2.894   6.290
13293TIP3    H139764   5.035   2.872   6.198
13293TIP3    H239765   5.010   2.979   6.303
13294TIP3   OH239766   4.836   2.823   7.014
13294TIP3    H139767   4.784   2.896   7.048
13294TIP3    H239768   4.888   2.862   6.943
13295TIP3   OH239769   5.620   2.182   6.662
13295TIP3    H139770   5.577   2.160   6.744
13295TIP3    H239771   5.678   2.256   6.684
13296TIP3   OH239772   4.636   2.156   7.020
13296TIP3    H139773   4.691   2.231   7.043
13296TIP3    H239774   4.684   2.113   6.949
13297TIP3   OH239775   4.682   3.028   7.121
13297TIP3    H139776   4.670   3.118   7.092
13297TIP3    H239777   4.604   3.008   7.173
13298TIP3   OH239778   4.064   2.733   6.376
13298TIP3    H139779   4.031   2.755   6.289
13298TIP3    H239780   4.088   2.817   6.415
13299TIP3   OH239781   5.491   3.243   6.617
13299TIP3    H139782   5.401   3.235   6.648
13299TIP3    H239783   5.492   3.327   6.570
13300TIP3   OH239784   5.846   2.077   6.985
13300TIP3    H139785   5.762   2.117   6.962
13300TIP3    H239786   5.908   2.115   6.923
13301TIP3   OH239787   5.086   1.738   6.985
13301TIP3    H139788   5.079   1.647   7.011
13301TIP3    H239789   5.009   1.780   7.023
13302TIP3   OH239790   5.195   3.264   6.261
13302TIP3    H139791   5.249   3.185   6.257
13302TIP3    H239792   5.253   3.334   6.234
13303TIP3   OH239793   5.365   3.058   6.231
13303TIP3    H139794   5.387   2.989   6.168
13303TIP3    H239795   5.399   3.027   6.315
13304TIP3   OH239796   5.730   3.122   6.958
13304TIP3    H139797   5.706   3.047   6.904
13304TIP3    H239798   5.720   3.198   6.901
13305TIP3   OH239799   5.019   2.521   6.222
13305TIP3    H139800   4.937   2.568   6.206
13305TIP3    H239801   5.069   2.531   6.141
13306TIP3   OH239802   4.982   2.351   5.911
13306TIP3    H139803   5.050   2.394   5.962
13306TIP3    H239804   5.028   2.283   5.862
13307TIP3   OH239805   5.384   2.621   6.175
13307TIP3    H139806   5.327   2.646   6.248
13307TIP3    H239807   5.466   2.593   6.217
13308TIP3   OH239808   5.595   2.641   7.145
13308TIP3    H139809   5.593   2.725   7.190
13308TIP3    H239810   5.516   2.641   7.090
13309TIP3   OH239811   4.609   2.590   6.593
13309TIP3    H139812   4.575   2.528   6.529
13309TIP3    H239813   4.683   2.544   6.633
13310TIP3   OH239814   4.751   3.013   6.735
13310TIP3    H139815   4.730   3.000   6.642
13310TIP3    H239816   4.838   2.976   6.745
13311TIP3   OH239817   4.703   2.588   6.969
13311TIP3    H139818   4.743   2.551   6.890
13311TIP3    H239819   4.752   2.669   6.985
13312TIP3   OH239820   5.242   3.239   6.735
13312TIP3    H139821   5.241   3.315   6.793
13312TIP3    H239822   5.235   3.163   6.793
13313TIP3   OH239823   4.881   3.124   7.291
13313TIP3    H139824   4.820   3.179   7.339
13313TIP3    H239825   4.826   3.072   7.232
13314TIP3   OH239826   5.218   2.470   6.013
13314TIP3    H139827   5.275   2.532   6.058
13314TIP3    H239828   5.243   2.475   5.921
13315TIP3   OH239829   4.635   2.668   7.437
13315TIP3    H139830   4.639   2.762   7.453
13315TIP3    H239831   4.541   2.650   7.429
13316TIP3   OH239832   4.942   3.155   6.281
13316TIP3    H139833   5.031   3.192   6.282
13316TIP3    H239834   4.891   3.216   6.228
13317TIP3   OH239835   4.668   3.278   7.380
13317TIP3    H139836   4.643   3.290   7.288
13317TIP3    H239837   4.585   3.266   7.426
13318TIP3   OH239838   5.721   1.699   6.079
13318TIP3    H139839   5.645   1.720   6.134
13318TIP3    H239840   5.732   1.775   6.022
13319TIP3   OH239841   4.483   2.429   6.395
13319TIP3    H139842   4.404   2.476   6.366
13319TIP3    H239843   4.451   2.341   6.417
13320TIP3   OH239844   5.533   3.073   5.626
13320TIP3    H139845   5.534   3.166   5.605
13320TIP3    H239846   5.621   3.043   5.604
13321TIP3   OH239847   4.266   2.840   7.325
13321TIP3    H139848   4.196   2.821   7.263
13321TIP3    H239849   4.300   2.754   7.350
13322TIP3   OH239850   4.113   3.031   6.976
13322TIP3    H139851   4.205   3.050   6.992
13322TIP3    H239852   4.066   3.107   7.010
13323TIP3   OH239853   5.965   3.466   7.016
13323TIP3    H139854   5.970   3.371   7.022
13323TIP3    H239855   5.888   3.490   7.068
13324TIP3   OH239856   5.070   3.269   7.154
13324TIP3    H139857   5.060   3.359   7.183
13324TIP3    H239858   5.004   3.220   7.203
13325TIP3   OH239859   4.839   3.365   6.104
13325TIP3    H139860   4.777   3.346   6.033
13325TIP3    H239861   4.810   3.450   6.138
13326TIP3   OH239862   4.286   3.222   6.487
13326TIP3    H139863   4.332   3.214   6.571
13326TIP3    H239864   4.238   3.139   6.478
13327TIP3   OH239865   5.067   3.272   5.735
13327TIP3    H139866   5.123   3.196   5.721
13327TIP3    H239867   5.086   3.300   5.824
13328TIP3   OH239868   5.093   3.337   6.001
13328TIP3    H139869   5.006   3.343   6.039
13328TIP3    H239870   5.147   3.297   6.069
13329TIP3   OH239871   5.827   2.593   7.302
13329TIP3    H139872   5.753   2.604   7.242
13329TIP3    H239873   5.851   2.501   7.294
13330TIP3   OH239874   4.463   3.029   7.291
13330TIP3    H139875   4.515   3.016   7.371
13330TIP3    H239876   4.392   2.966   7.299
13331TIP3   OH239877   4.848   1.830   7.109
13331TIP3    H139878   4.764   1.798   7.076
13331TIP3    H239879   4.827   1.912   7.154
13332TIP3   OH239880   5.393   1.952   7.310
13332TIP3    H139881   5.462   1.930   7.372
13332TIP3    H239882   5.312   1.938   7.359
13333TIP3   OH239883   5.614   2.368   7.207
13333TIP3    H139884   5.581   2.364   7.296
13333TIP3    H239885   5.600   2.459   7.180
13334TIP3   OH239886   5.280   2.436   5.740
13334TIP3    H139887   5.238   2.443   5.654
13334TIP3    H239888   5.360   2.487   5.731
13335TIP3   OH239889   4.997   1.873   6.077
13335TIP3    H139890   4.962   1.880   6.166
13335TIP3    H239891   4.963   1.790   6.044
13336TIP3   OH239892   4.787   2.367   7.116
13336TIP3    H139893   4.743   2.374   7.201
13336TIP3    H239894   4.767   2.449   7.072
13337TIP3   OH239895   4.668   2.242   6.638
13337TIP3    H139896   4.578   2.219   6.663
13337TIP3    H239897   4.676   2.210   6.548
13338TIP3   OH239898   5.141   2.316   6.361
13338TIP3    H139899   5.095   2.390   6.320
13338TIP3    H239900   5.201   2.285   6.293
13339TIP3   OH239901   5.334   2.583   7.434
13339TIP3    H139902   5.310   2.515   7.497
13339TIP3    H239903   5.426   2.600   7.451
13340TIP3   OH239904   5.304   2.326   6.590
13340TIP3    H139905   5.239   2.349   6.523
13340TIP3    H239906   5.355   2.256   6.550
13341TIP3   OH239907   4.626   2.381   7.339
13341TIP3    H139908   4.640   2.445   7.409
13341TIP3    H239909   4.608   2.299   7.384
13342TIP3   OH239910   4.664   1.849   6.054
13342TIP3    H139911   4.656   1.855   6.149
13342TIP3    H239912   4.587   1.897   6.021
13343TIP3   OH239913   4.222   1.898   6.915
13343TIP3    H139914   4.287   1.935   6.973
13343TIP3    H239915   4.269   1.883   6.833
13344TIP3   OH239916   4.114   1.873   6.421
13344TIP3    H139917   4.160   1.910   6.346
13344TIP3    H239918   4.053   1.942   6.447
13345TIP3   OH239919   5.348   2.588   7.012
13345TIP3    H139920   5.376   2.523   6.948
13345TIP3    H239921   5.309   2.537   7.083
13346TIP3   OH239922   5.030   2.029   6.687
13346TIP3    H139923   4.953   2.030   6.743
13346TIP3    H239924   5.104   2.022   6.747
13347TIP3   OH239925   4.428   2.119   6.697
13347TIP3    H139926   4.340   2.123   6.659
13347TIP3    H239927   4.457   2.029   6.682
13348TIP3   OH239928   4.678   2.118   6.392
13348TIP3    H139929   4.773   2.129   6.383
13348TIP3    H239930   4.644   2.136   6.304
13349TIP3   OH239931   5.471   2.124   6.893
13349TIP3    H139932   5.453   2.140   6.986
13349TIP3    H239933   5.403   2.063   6.865
13350TIP3   OH239934   4.570   2.141   6.140
13350TIP3    H139935   4.507   2.093   6.086
13350TIP3    H239936   4.623   2.189   6.077
13351TIP3   OH239937   5.681   3.823   7.120
13351TIP3    H139938   5.681   3.835   7.025
13351TIP3    H239939   5.760   3.868   7.150
13352TIP3   OH239940   4.618   2.938   7.524
13352TIP3    H139941   4.699   2.957   7.571
13352TIP3    H239942   4.549   2.947   7.589
13353TIP3   OH239943   5.077   2.403   6.794
13353TIP3    H139944   5.145   2.357   6.744
13353TIP3    H239945   5.078   2.362   6.880
13354TIP3   OH239946   4.566   1.870   6.685
13354TIP3    H139947   4.540   1.794   6.736
13354TIP3    H239948   4.592   1.834   6.600
13355TIP3   OH239949   5.053   2.307   7.060
13355TIP3    H139950   4.967   2.341   7.083
13355TIP3    H239951   5.115   2.358   7.112
13356TIP3   OH239952   4.778   2.655   6.167
13356TIP3    H139953   4.703   2.601   6.144
13356TIP3    H239954   4.753   2.698   6.249
13357TIP3   OH239955   5.652   2.925   6.789
13357TIP3    H139956   5.707   2.954   6.717
13357TIP3    H239957   5.583   2.872   6.748
13358TIP3   OH239958   5.250   1.977   6.078
13358TIP3    H139959   5.157   1.956   6.075
13358TIP3    H239960   5.253   2.072   6.091
13359TIP3   OH239961   5.200   3.000   7.183
13359TIP3    H139962   5.256   2.987   7.260
13359TIP3    H239963   5.161   3.086   7.197
13360TIP3   OH239964   5.310   2.241   6.149
13360TIP3    H139965   5.405   2.246   6.161
13360TIP3    H239966   5.288   2.319   6.098
13361TIP3   OH239967   4.472   2.667   6.820
13361TIP3    H139968   4.512   2.651   6.735
13361TIP3    H239969   4.539   2.641   6.883
13362TIP3   OH239970   4.954   2.825   6.039
13362TIP3    H139971   4.901   2.903   6.021
13362TIP3    H239972   4.891   2.762   6.074
13363TIP3   OH239973   4.359   2.607   7.455
13363TIP3    H139974   4.362   2.580   7.547
13363TIP3    H239975   4.284   2.560   7.419
13364TIP3   OH239976   5.104   2.741   7.477
13364TIP3    H139977   5.035   2.680   7.450
13364TIP3    H239978   5.185   2.699   7.447
13365TIP3   OH239979   5.340   3.296   7.078
13365TIP3    H139980   5.246   3.279   7.081
13365TIP3    H239981   5.362   3.327   7.166
13366TIP3   OH239982   5.724   2.327   5.963
13366TIP3    H139983   5.670   2.281   5.900
13366TIP3    H239984   5.727   2.418   5.931
13367TIP3   OH239985   5.989   3.185   7.026
13367TIP3    H139986   5.895   3.169   7.034
13367TIP3    H239987   6.020   3.118   6.966
13368TIP3   OH239988   5.459   3.135   5.893
13368TIP3    H139989   5.442   3.060   5.950
13368TIP3    H239990   5.479   3.097   5.807
13369TIP3   OH239991   5.440   2.778   6.670
13369TIP3    H139992   5.350   2.754   6.691
13369TIP3    H239993   5.477   2.698   6.633
13370TIP3   OH239994   4.609   3.019   6.491
13370TIP3    H139995   4.607   3.094   6.431
13370TIP3    H239996   4.520   3.014   6.526
13371TIP3   OH239997   4.159   2.300   6.199
13371TIP3    H139998   4.204   2.381   6.223
13371TIP3    H239999   4.079   2.300   6.252
13372TIP3   OH240000   4.672   2.770   6.388
13372TIP3    H140001   4.665   2.860   6.421
13372TIP3    H240002   4.653   2.715   6.464
13373TIP3   OH240003   4.887   3.340   6.946
13373TIP3    H140004   4.925   3.413   6.896
13373TIP3    H240005   4.961   3.305   6.997
13374TIP3   OH240006   4.518   3.241   6.338
13374TIP3    H140007   4.432   3.246   6.380
13374TIP3    H240008   4.553   3.330   6.346
13375TIP3   OH240009   5.240   3.013   6.908
13375TIP3    H140010   5.227   3.005   7.003
13375TIP3    H240011   5.319   2.962   6.890
13376TIP3   OH240012   5.499   3.495   6.961
13376TIP3    H140013   5.432   3.431   6.985
13376TIP3    H240014   5.458   3.547   6.892
13377TIP3   OH240015   5.548   3.351   5.591
13377TIP3    H140016   5.587   3.421   5.538
13377TIP3    H240017   5.475   3.392   5.636
13378TIP3   OH240018   4.572   2.127   7.455
13378TIP3    H140019   4.477   2.137   7.460
13378TIP3    H240020   4.595   2.079   7.535
13379TIP3   OH240021   5.440   2.868   6.040
13379TIP3    H140022   5.404   2.788   6.078
13379TIP3    H240023   5.529   2.844   6.013
13380TIP3   OH240024   4.316   3.231   7.110
13380TIP3    H140025   4.366   3.170   7.163
13380TIP3    H240026   4.329   3.316   7.152
13381TIP3   OH240027   4.575   2.846   5.805
13381TIP3    H140028   4.586   2.755   5.779
13381TIP3    H240029   4.566   2.844   5.900
13382TIP3   OH240030   4.525   2.862   6.079
13382TIP3    H140031   4.591   2.834   6.142
13382TIP3    H240032   4.525   2.957   6.084
13383TIP3   OH240033   4.255   2.549   6.286
13383TIP3    H140034   4.193   2.600   6.338
13383TIP3    H240035   4.279   2.607   6.213
13384TIP3   OH240036   5.416   2.181   7.156
13384TIP3    H140037   5.495   2.227   7.183
13384TIP3    H240038   5.411   2.105   7.215
13385TIP3   OH240039   5.314   1.929   6.347
13385TIP3    H140040   5.293   1.949   6.256
13385TIP3    H240041   5.357   2.008   6.380
13386TIP3   OH240042   4.790   3.041   6.001
13386TIP3    H140043   4.708   3.066   6.044
13386TIP3    H240044   4.815   3.118   5.950
13387TIP3   OH240045   4.956   2.126   6.436
13387TIP3    H140046   5.018   2.195   6.409
13387TIP3    H240047   4.982   2.106   6.526
13388TIP3   OH240048   5.259   2.419   7.211
13388TIP3    H140049   5.286   2.464   7.291
13388TIP3    H240050   5.310   2.338   7.210
13389TIP3   OH240051   5.127   1.822   6.522
13389TIP3    H140052   5.103   1.899   6.574
13389TIP3    H240053   5.197   1.853   6.465
13390TIP3   OH240054   4.545   3.136   6.087
13390TIP3    H140055   4.530   3.210   6.028
13390TIP3    H240056   4.534   3.173   6.175
13391TIP3   OH240057   4.637   1.845   6.333
13391TIP3    H140058   4.625   1.936   6.361
13391TIP3    H240059   4.731   1.830   6.340
13392TIP3   OH240060   5.889   2.342   7.198
13392TIP3    H140061   5.794   2.330   7.188
13392TIP3    H240062   5.920   2.360   7.110
13393TIP3   OH240063   5.543   2.522   6.587
13393TIP3    H140064   5.470   2.465   6.610
13393TIP3    H240065   5.615   2.491   6.642
13394TIP3   OH240066   4.282   2.727   6.069
13394TIP3    H140067   4.355   2.789   6.080
13394TIP3    H240068   4.313   2.664   6.004
13395TIP3   OH240069   4.185   2.022   6.202
13395TIP3    H140070   4.199   2.116   6.210
13395TIP3    H240071   4.136   2.012   6.120
13396TIP3   OH240072   5.518   3.510   6.529
13396TIP3    H140073   5.477   3.559   6.458
13396TIP3    H240074   5.612   3.524   6.518
13397TIP3   OH240075   4.587   1.747   7.065
13397TIP3    H140076   4.556   1.714   6.980
13397TIP3    H240077   4.579   1.671   7.123
13398TIP3   OH240078   4.110   3.000   6.464
13398TIP3    H140079   4.070   3.037   6.543
13398TIP3    H240080   4.066   3.044   6.391
13399TIP3   OH240081   4.320   3.543   7.531
13399TIP3    H140082   4.400   3.553   7.584
13399TIP3    H240083   4.311   3.448   7.520
13400TIP3   OH240084   4.779   3.442   7.572
13400TIP3    H140085   4.869   3.413   7.582
13400TIP3    H240086   4.743   3.388   7.502
13401TIP3   OH240087   4.763   3.010   5.687
13401TIP3    H140088   4.698   2.959   5.735
13401TIP3    H240089   4.843   2.958   5.691
13402TIP3   OH240090   5.396   3.386   7.330
13402TIP3    H140091   5.412   3.314   7.392
13402TIP3    H240092   5.472   3.444   7.342
13403TIP3   OH240093   4.414   2.937   7.714
13403TIP3    H140094   4.434   2.844   7.727
13403TIP3    H240095   4.325   2.937   7.677
13404TIP3   OH240096   4.398   2.536   5.912
13404TIP3    H140097   4.448   2.510   5.990
13404TIP3    H240098   4.464   2.551   5.845
13405TIP3   OH240099   5.036   3.018   7.495
13405TIP3    H140100   4.993   3.039   7.412
13405TIP3    H240101   5.074   2.931   7.480
13406TIP3   OH240102   5.513   3.073   7.122
13406TIP3    H140103   5.590   3.095   7.069
13406TIP3    H240104   5.449   3.141   7.100
13407TIP3   OH240105   4.530   2.683   7.723
13407TIP3    H140106   4.604   2.664   7.666
13407TIP3    H240107   4.570   2.703   7.808
13408TIP3   OH240108   4.567   2.478   6.126
13408TIP3    H140109   4.552   2.449   6.216
13408TIP3    H240110   4.619   2.408   6.087
13409TIP3   OH240111   4.895   2.564   7.385
13409TIP3    H140112   4.810   2.605   7.395
13409TIP3    H240113   4.925   2.592   7.298
13410TIP3   OH240114   4.715   2.301   5.970
13410TIP3    H140115   4.685   2.304   5.879
13410TIP3    H240116   4.809   2.317   5.965
13411TIP3   OH240117   5.395   2.936   7.458
13411TIP3    H140118   5.468   2.905   7.404
13411TIP3    H240119   5.395   2.879   7.534
13412TIP3   OH240120   5.495   2.588   5.653
13412TIP3    H140121   5.494   2.548   5.565
13412TIP3    H240122   5.463   2.677   5.639
13413TIP3   OH240123   4.998   2.331   7.491
13413TIP3    H140124   5.002   2.262   7.426
13413TIP3    H240125   4.965   2.408   7.444
13414TIP3   OH240126   5.005   2.133   7.287
13414TIP3    H140127   5.033   2.172   7.203
13414TIP3    H240128   4.914   2.107   7.273
13415TIP3   OH240129   5.005   2.658   7.155
13415TIP3    H140130   5.095   2.688   7.140
13415TIP3    H240131   4.951   2.719   7.106
13416TIP3   OH240132   5.605   2.614   7.526
13416TIP3    H140133   5.638   2.525   7.536
13416TIP3    H240134   5.679   2.663   7.489
13417TIP3   OH240135   5.633   2.887   7.280
13417TIP3    H140136   5.585   2.954   7.230
13417TIP3    H240137   5.723   2.892   7.246
13418TIP3   OH240138   4.882   2.413   7.733
13418TIP3    H140139   4.810   2.353   7.754
13418TIP3    H240140   4.909   2.387   7.645
13419TIP3   OH240141   5.127   1.903   7.391
13419TIP3    H140142   5.087   1.984   7.357
13419TIP3    H240143   5.060   1.836   7.377
13420TIP3   OH240144   5.258   2.369   7.589
13420TIP3    H140145   5.252   2.358   7.684
13420TIP3    H240146   5.170   2.349   7.557
13421TIP3   OH240147   5.505   2.327   7.453
13421TIP3    H140148   5.426   2.327   7.507
13421TIP3    H240149   5.575   2.304   7.513
13422TIP3   OH240150   5.732   2.295   7.612
13422TIP3    H140151   5.749   2.201   7.619
13422TIP3    H240152   5.729   2.326   7.702
13423TIP3   OH240153   4.714   2.192   7.796
13423TIP3    H140154   4.720   2.103   7.761
13423TIP3    H240155   4.754   2.185   7.883
13424TIP3   OH240156   5.192   1.875   7.656
13424TIP3    H140157   5.260   1.808   7.649
13424TIP3    H240158   5.162   1.888   7.566
13425TIP3   OH240159   5.289   2.093   7.794
13425TIP3    H140160   5.257   2.020   7.741
13425TIP3    H240161   5.216   2.155   7.797
13426TIP3   OH240162   4.562   3.348   5.907
13426TIP3    H140163   4.643   3.316   5.868
13426TIP3    H240164   4.517   3.393   5.835
13427TIP3   OH240165   4.007   2.731   6.077
13427TIP3    H140166   4.103   2.740   6.078
13427TIP3    H240167   3.992   2.644   6.041
13428TIP3   OH240168   3.910   3.310   6.549
13428TIP3    H140169   3.846   3.257   6.503
13428TIP3    H240170   3.954   3.249   6.608
13429TIP3   OH240171   4.056   3.141   6.714
13429TIP3    H140172   4.048   3.072   6.780
13429TIP3    H240173   4.109   3.209   6.756
13430TIP3   OH240174   5.782   3.579   6.517
13430TIP3    H140175   5.814   3.588   6.607
13430TIP3    H240176   5.858   3.601   6.463
13431TIP3   OH240177   5.821   3.574   6.798
13431TIP3    H140178   5.769   3.495   6.790
13431TIP3    H240179   5.887   3.553   6.865
13432TIP3   OH240180   5.865   3.282   7.366
13432TIP3    H140181   5.795   3.287   7.430
13432TIP3    H240182   5.912   3.366   7.375
13433TIP3   OH240183   5.700   2.793   5.978
13433TIP3    H140184   5.759   2.864   5.951
13433TIP3    H240185   5.745   2.752   6.052
13434TIP3   OH240186   5.819   2.645   6.179
13434TIP3    H140187   5.750   2.613   6.238
13434TIP3    H240188   5.884   2.684   6.237
13435TIP3   OH240189   5.829   3.032   6.602
13435TIP3    H140190   5.899   2.973   6.576
13435TIP3    H240191   5.838   3.108   6.544
13436TIP3   OH240192   5.671   3.343   6.803
13436TIP3    H140193   5.605   3.385   6.858
13436TIP3    H240194   5.620   3.300   6.734
13437TIP3   OH240195   5.710   2.566   5.824
13437TIP3    H140196   5.634   2.569   5.766
13437TIP3    H240197   5.701   2.645   5.878
13438TIP3   OH240198   5.579   2.210   5.760
13438TIP3    H140199   5.523   2.245   5.691
13438TIP3    H240200   5.573   2.115   5.751
13439TIP3   OH240201   5.605   2.516   6.316
13439TIP3    H140202   5.612   2.421   6.305
13439TIP3    H240203   5.587   2.529   6.409
13440TIP3   OH240204   4.228   2.578   7.093
13440TIP3    H140205   4.220   2.545   7.004
13440TIP3    H240206   4.322   2.572   7.112
13441TIP3   OH240207   5.896   2.899   7.174
13441TIP3    H140208   5.966   2.840   7.203
13441TIP3    H240209   5.910   2.907   7.080
13442TIP3   OH240210   6.069   2.716   7.284
13442TIP3    H140211   5.987   2.667   7.288
13442TIP3    H240212   6.133   2.654   7.249
13443TIP3   OH240213   5.539   1.936   5.732
13443TIP3    H140214   5.599   1.915   5.803
13443TIP3    H240215   5.454   1.905   5.764
13444TIP3   OH240216   5.601   2.235   6.205
13444TIP3    H140217   5.647   2.152   6.218
13444TIP3    H240218   5.643   2.274   6.129
13445TIP3   OH240219   5.764   2.417   6.733
13445TIP3    H140220   5.847   2.431   6.686
13445TIP3    H240221   5.774   2.467   6.814
13446TIP3   OH240222   5.852   2.591   6.937
13446TIP3    H140223   5.784   2.647   6.976
13446TIP3    H240224   5.918   2.652   6.906
13447TIP3   OH240225   4.455   2.260   7.729
13447TIP3    H140226   4.548   2.257   7.751
13447TIP3    H240227   4.419   2.178   7.762
13448TIP3   OH240228   6.281   2.159   7.496
13448TIP3    H140229   6.353   2.103   7.467
13448TIP3    H240230   6.250   2.202   7.416
13449TIP3   OH240231   5.721   1.987   6.256
13449TIP3    H140232   5.768   1.973   6.338
13449TIP3    H240233   5.658   1.915   6.252
13450TIP3   OH240234   4.426   1.972   7.087
13450TIP3    H140235   4.480   1.893   7.092
13450TIP3    H240236   4.489   2.043   7.069
13451TIP3   OH240237   4.204   2.229   7.144
13451TIP3    H140238   4.257   2.226   7.064
13451TIP3    H240239   4.236   2.307   7.191
13452TIP3   OH240240   6.142   2.265   7.288
13452TIP3    H140241   6.060   2.309   7.309
13452TIP3    H240242   6.117   2.189   7.236
13453TIP3   OH240243   5.760   1.899   5.894
13453TIP3    H140244   5.810   1.839   5.838
13453TIP3    H240245   5.816   1.976   5.901
13454TIP3   OH240246   4.189   1.726   6.639
13454TIP3    H140247   4.106   1.721   6.687
13454TIP3    H240248   4.171   1.787   6.568
13455TIP3   OH240249   5.338   3.470   6.159
13455TIP3    H140250   5.399   3.449   6.088
13455TIP3    H240251   5.387   3.528   6.216
13456TIP3   OH240252   4.421   1.795   7.466
13456TIP3    H140253   4.373   1.790   7.548
13456TIP3    H240254   4.366   1.847   7.408
13457TIP3   OH240255   4.441   3.260   7.545
13457TIP3    H140256   4.349   3.237   7.537
13457TIP3    H240257   4.460   3.247   7.638
13458TIP3   OH240258   4.659   3.304   7.096
13458TIP3    H140259   4.609   3.379   7.065
13458TIP3    H240260   4.744   3.312   7.053
13459TIP3   OH240261   5.053   3.535   7.233
13459TIP3    H140262   5.091   3.526   7.320
13459TIP3    H240263   5.116   3.590   7.185
13460TIP3   OH240264   5.245   3.691   7.106
13460TIP3    H140265   5.304   3.633   7.058
13460TIP3    H240266   5.303   3.746   7.159
13461TIP3   OH240267   6.052   2.024   7.182
13461TIP3    H140268   5.971   2.032   7.132
13461TIP3    H240269   6.073   1.931   7.178
13462TIP3   OH240270   4.319   3.545   7.141
13462TIP3    H140271   4.227   3.561   7.119
13462TIP3    H240272   4.340   3.610   7.207
13463TIP3   OH240273   4.550   3.536   6.993
13463TIP3    H140274   4.468   3.540   7.041
13463TIP3    H240275   4.527   3.558   6.903
13464TIP3   OH240276   4.963   3.553   6.785
13464TIP3    H140277   4.891   3.563   6.724
13464TIP3    H240278   4.972   3.639   6.827
13465TIP3   OH240279   5.230   3.498   6.837
13465TIP3    H140280   5.138   3.513   6.814
13465TIP3    H240281   5.278   3.565   6.788
13466TIP3   OH240282   5.435   3.668   6.738
13466TIP3    H140283   5.431   3.755   6.697
13466TIP3    H240284   5.463   3.609   6.669
13467TIP3   OH240285   4.233   3.319   6.858
13467TIP3    H140286   4.257   3.295   6.948
13467TIP3    H240287   4.304   3.285   6.804
13468TIP3   OH240288   4.436   3.204   6.718
13468TIP3    H140289   4.446   3.119   6.759
13468TIP3    H240290   4.522   3.244   6.724
13469TIP3   OH240291   4.702   3.290   6.744
13469TIP3    H140292   4.723   3.198   6.727
13469TIP3    H240293   4.757   3.314   6.819
13470TIP3   OH240294   5.255   1.939   6.828
13470TIP3    H140295   5.218   1.869   6.880
13470TIP3    H240296   5.325   1.898   6.777
13471TIP3   OH240297   5.764   1.852   6.708
13471TIP3    H140298   5.803   1.903   6.638
13471TIP3    H240299   5.676   1.888   6.718
13472TIP3   OH240300   5.881   1.934   6.475
13472TIP3    H140301   5.950   1.872   6.449
13472TIP3    H240302   5.921   2.020   6.463
13473TIP3   OH240303   4.495   1.641   6.826
13473TIP3    H140304   4.407   1.606   6.838
13473TIP3    H240305   4.550   1.563   6.820
13474TIP3   OH240306   4.298   1.534   6.465
13474TIP3    H140307   4.335   1.585   6.393
13474TIP3    H240308   4.268   1.599   6.528
13475TIP3   OH240309   4.982   1.682   6.723
13475TIP3    H140310   5.031   1.729   6.656
13475TIP3    H240311   5.023   1.710   6.806
13476TIP3   OH240312   5.469   1.822   6.698
13476TIP3    H140313   5.492   1.788   6.612
13476TIP3    H240314   5.478   1.747   6.757
13477TIP3   OH240315   5.534   1.778   6.265
13477TIP3    H140316   5.454   1.826   6.289
13477TIP3    H240317   5.522   1.691   6.304
13478TIP3   OH240318   3.991   3.121   6.248
13478TIP3    H140319   3.907   3.085   6.218
13478TIP3    H240320   3.994   3.209   6.211
13479TIP3   OH240321   4.427   1.674   6.243
13479TIP3    H140322   4.475   1.615   6.185
13479TIP3    H240323   4.495   1.731   6.280
13480TIP3   OH240324   4.912   1.873   6.342
13480TIP3    H140325   4.973   1.823   6.395
13480TIP3    H240326   4.926   1.964   6.369
13481TIP3   OH240327   4.800   3.252   5.814
13481TIP3    H140328   4.887   3.278   5.785
13481TIP3    H240329   4.779   3.174   5.762
13482TIP3   OH240330   5.499   3.407   5.937
13482TIP3    H140331   5.491   3.312   5.931
13482TIP3    H240332   5.458   3.440   5.857
13483TIP3   OH240333   4.734   1.923   7.708
13483TIP3    H140334   4.700   1.857   7.769
13483TIP3    H240335   4.826   1.932   7.732
13484TIP3   OH240336   4.980   1.927   7.836
13484TIP3    H140337   5.056   1.904   7.783
13484TIP3    H240338   4.975   1.859   7.902
13485TIP3   OH240339   4.110   3.118   5.894
13485TIP3    H140340   4.112   3.123   5.990
13485TIP3    H240341   4.189   3.069   5.871
13486TIP3   OH240342   5.799   2.024   7.619
13486TIP3    H140343   5.816   1.996   7.709
13486TIP3    H240344   5.883   2.019   7.575
13487TIP3   OH240345   5.721   3.548   7.122
13487TIP3    H140346   5.646   3.518   7.071
13487TIP3    H240347   5.708   3.642   7.133
13488TIP3   OH240348   6.997   2.941   5.859
13488TIP3    H140349   6.964   3.028   5.833
13488TIP3    H240350   6.925   2.882   5.837
13489TIP3   OH240351   6.996   2.934   6.287
13489TIP3    H140352   7.048   2.915   6.366
13489TIP3    H240353   6.949   2.853   6.269
13490TIP3   OH240354   6.275   2.855   6.597
13490TIP3    H140355   6.215   2.818   6.662
13490TIP3    H240356   6.357   2.867   6.645
13491TIP3   OH240357   7.261   3.241   5.964
13491TIP3    H140358   7.249   3.174   6.031
13491TIP3    H240359   7.281   3.321   6.013
13492TIP3   OH240360   6.273   3.223   6.322
13492TIP3    H140361   6.254   3.129   6.329
13492TIP3    H240362   6.368   3.227   6.318
13493TIP3   OH240363   5.967   2.418   6.102
13493TIP3    H140364   5.933   2.503   6.130
13493TIP3    H240365   5.892   2.374   6.062
13494TIP3   OH240366   6.034   2.738   6.322
13494TIP3    H140367   6.084   2.671   6.369
13494TIP3    H240368   6.091   2.815   6.323
13495TIP3   OH240369   6.923   3.665   5.980
13495TIP3    H140370   6.946   3.603   5.911
13495TIP3    H240371   6.932   3.616   6.061
13496TIP3   OH240372   6.797   3.159   6.287
13496TIP3    H140373   6.841   3.078   6.259
13496TIP3    H240374   6.869   3.214   6.320
13497TIP3   OH240375   7.836   2.473   6.307
13497TIP3    H140376   7.850   2.558   6.350
13497TIP3    H240377   7.858   2.489   6.216
13498TIP3   OH240378   7.208   2.640   6.324
13498TIP3    H140379   7.238   2.554   6.353
13498TIP3    H240380   7.172   2.625   6.237
13499TIP3   OH240381   6.563   2.300   6.288
13499TIP3    H140382   6.541   2.374   6.232
13499TIP3    H240383   6.504   2.230   6.259
13500TIP3   OH240384   7.261   2.400   5.922
13500TIP3    H140385   7.325   2.394   5.993
13500TIP3    H240386   7.310   2.436   5.848
13501TIP3   OH240387   6.183   2.525   6.429
13501TIP3    H140388   6.267   2.510   6.472
13501TIP3    H240389   6.188   2.475   6.348
13502TIP3   OH240390   6.618   2.718   6.201
13502TIP3    H140391   6.711   2.699   6.216
13502TIP3    H240392   6.580   2.634   6.176
13503TIP3   OH240393   7.887   2.694   6.474
13503TIP3    H140394   7.801   2.734   6.465
13503TIP3    H240395   7.924   2.732   6.553
13504TIP3   OH240396   6.538   2.298   6.744
13504TIP3    H140397   6.488   2.341   6.675
13504TIP3    H240398   6.485   2.308   6.822
13505TIP3   OH240399   6.891   3.159   5.722
13505TIP3    H140400   6.851   3.127   5.642
13505TIP3    H240401   6.838   3.234   5.747
13506TIP3   OH240402   6.639   3.080   6.501
13506TIP3    H140403   6.582   3.149   6.535
13506TIP3    H240404   6.685   3.121   6.427
13507TIP3   OH240405   7.422   2.421   6.142
13507TIP3    H140406   7.375   2.399   6.223
13507TIP3    H240407   7.474   2.498   6.164
13508TIP3   OH240408   6.431   2.411   6.512
13508TIP3    H140409   6.485   2.484   6.541
13508TIP3    H240410   6.481   2.371   6.440
13509TIP3   OH240411   6.480   3.283   6.606
13509TIP3    H140412   6.462   3.373   6.579
13509TIP3    H240413   6.403   3.258   6.657
13510TIP3   OH240414   5.863   2.990   5.861
13510TIP3    H140415   5.822   3.014   5.778
13510TIP3    H240416   5.887   3.074   5.901
13511TIP3   OH240417   7.292   3.490   6.102
13511TIP3    H140418   7.204   3.483   6.139
13511TIP3    H240419   7.292   3.574   6.056
13512TIP3   OH240420   7.635   2.354   6.473
13512TIP3    H140421   7.548   2.376   6.440
13512TIP3    H240422   7.695   2.384   6.404
13513TIP3   OH240423   6.883   1.997   6.474
13513TIP3    H140424   6.873   1.905   6.499
13513TIP3    H240425   6.806   2.040   6.511
13514TIP3   OH240426   7.003   3.523   5.755
13514TIP3    H140427   7.056   3.443   5.746
13514TIP3    H240428   7.061   3.593   5.727
13515TIP3   OH240429   7.140   3.291   5.720
13515TIP3    H140430   7.067   3.229   5.718
13515TIP3    H240431   7.191   3.266   5.797
13516TIP3   OH240432   7.528   3.378   6.442
13516TIP3    H140433   7.510   3.303   6.387
13516TIP3    H240434   7.514   3.454   6.385
13517TIP3   OH240435   6.820   2.777   5.717
13517TIP3    H140436   6.736   2.820   5.699
13517TIP3    H240437   6.865   2.777   5.632
13518TIP3   OH240438   6.786   2.590   5.400
13518TIP3    H140439   6.852   2.637   5.451
13518TIP3    H240440   6.835   2.522   5.355
13519TIP3   OH240441   7.708   3.034   6.312
13519TIP3    H140442   7.624   3.080   6.313
13519TIP3    H240443   7.743   3.048   6.224
13520TIP3   OH240444   7.181   2.868   5.671
13520TIP3    H140445   7.127   2.897   5.744
13520TIP3    H240446   7.265   2.844   5.711
13521TIP3   OH240447   7.410   2.895   6.624
13521TIP3    H140448   7.405   2.979   6.668
13521TIP3    H240449   7.328   2.890   6.573
13522TIP3   OH240450   6.402   2.855   6.095
13522TIP3    H140451   6.364   2.794   6.032
13522TIP3    H240452   6.479   2.810   6.128
13523TIP3   OH240453   6.542   3.276   6.222
13523TIP3    H140454   6.517   3.257   6.131
13523TIP3    H240455   6.628   3.236   6.232
13524TIP3   OH240456   6.564   2.818   6.457
13524TIP3    H140457   6.582   2.798   6.365
13524TIP3    H240458   6.587   2.910   6.467
13525TIP3   OH240459   7.051   3.486   6.229
13525TIP3    H140460   7.042   3.565   6.282
13525TIP3    H240461   7.038   3.414   6.290
13526TIP3   OH240462   6.678   3.379   6.776
13526TIP3    H140463   6.615   3.434   6.823
13526TIP3    H240464   6.623   3.326   6.718
13527TIP3   OH240465   7.009   2.728   5.507
13527TIP3    H140466   7.069   2.786   5.554
13527TIP3    H240467   7.038   2.731   5.416
13528TIP3   OH240468   6.411   2.926   6.869
13528TIP3    H140469   6.403   3.007   6.919
13528TIP3    H240470   6.327   2.881   6.882
13529TIP3   OH240471   6.756   3.400   5.758
13529TIP3    H140472   6.838   3.448   5.767
13529TIP3    H240473   6.697   3.459   5.712
13530TIP3   OH240474   6.466   3.537   6.860
13530TIP3    H140475   6.442   3.548   6.768
13530TIP3    H240476   6.382   3.525   6.905
13531TIP3   OH240477   7.519   1.955   5.566
13531TIP3    H140478   7.442   1.977   5.620
13531TIP3    H240479   7.529   2.031   5.508
13532TIP3   OH240480   6.278   2.694   5.884
13532TIP3    H140481   6.199   2.739   5.853
13532TIP3    H240482   6.247   2.610   5.916
13533TIP3   OH240483   7.346   3.330   5.126
13533TIP3    H140484   7.340   3.423   5.104
13533TIP3    H240485   7.435   3.306   5.101
13534TIP3   OH240486   5.934   3.264   6.447
13534TIP3    H140487   6.025   3.244   6.425
13534TIP3    H240488   5.939   3.334   6.513
13535TIP3   OH240489   7.762   3.736   6.515
13535TIP3    H140490   7.766   3.642   6.530
13535TIP3    H240491   7.683   3.764   6.562
13536TIP3   OH240492   6.865   3.527   6.640
13536TIP3    H140493   6.856   3.617   6.670
13536TIP3    H240494   6.798   3.478   6.689
13537TIP3   OH240495   6.646   3.619   5.593
13537TIP3    H140496   6.601   3.599   5.511
13537TIP3    H240497   6.608   3.702   5.621
13538TIP3   OH240498   6.082   3.480   5.975
13538TIP3    H140499   6.127   3.473   6.059
13538TIP3    H240500   6.033   3.398   5.966
13539TIP3   OH240501   6.846   3.555   5.220
13539TIP3    H140502   6.897   3.481   5.184
13539TIP3    H240503   6.882   3.568   5.307
13540TIP3   OH240504   6.900   3.598   5.489
13540TIP3    H140505   6.815   3.600   5.531
13540TIP3    H240506   6.958   3.559   5.555
13541TIP3   OH240507   7.654   2.855   6.784
13541TIP3    H140508   7.569   2.869   6.743
13541TIP3    H240509   7.671   2.762   6.773
13542TIP3   OH240510   6.259   3.269   6.775
13542TIP3    H140511   6.312   3.262   6.854
13542TIP3    H240512   6.203   3.191   6.776
13543TIP3   OH240513   6.644   2.089   6.594
13543TIP3    H140514   6.561   2.057   6.561
13543TIP3    H240515   6.622   2.169   6.641
13544TIP3   OH240516   7.179   2.210   6.796
13544TIP3    H140517   7.245   2.191   6.863
13544TIP3    H240518   7.095   2.198   6.842
13545TIP3   OH240519   7.409   2.629   6.716
13545TIP3    H140520   7.366   2.623   6.802
13545TIP3    H240521   7.392   2.718   6.687
13546TIP3   OH240522   7.088   2.704   5.244
13546TIP3    H140523   7.043   2.708   5.160
13546TIP3    H240524   7.170   2.751   5.230
13547TIP3   OH240525   6.795   2.126   5.563
13547TIP3    H140526   6.759   2.134   5.651
13547TIP3    H240527   6.759   2.044   5.530
13548TIP3   OH240528   6.589   2.608   6.625
13548TIP3    H140529   6.531   2.616   6.701
13548TIP3    H240530   6.574   2.687   6.574
13549TIP3   OH240531   6.467   2.497   6.124
13549TIP3    H140532   6.378   2.478   6.154
13549TIP3    H240533   6.470   2.461   6.035
13550TIP3   OH240534   6.942   2.572   5.852
13550TIP3    H140535   6.895   2.645   5.813
13550TIP3    H240536   7.000   2.540   5.783
13551TIP3   OH240537   7.127   2.843   6.926
13551TIP3    H140538   7.099   2.776   6.988
13551TIP3    H240539   7.219   2.859   6.947
13552TIP3   OH240540   7.116   2.588   6.072
13552TIP3    H140541   7.044   2.608   6.012
13552TIP3    H240542   7.162   2.514   6.031
13553TIP3   OH240543   6.403   2.597   6.825
13553TIP3    H140544   6.320   2.644   6.836
13553TIP3    H240545   6.395   2.521   6.882
13554TIP3   OH240546   6.461   2.108   5.540
13554TIP3    H140547   6.453   2.112   5.635
13554TIP3    H240548   6.383   2.153   5.507
13555TIP3   OH240549   6.015   2.157   6.409
13555TIP3    H140550   6.080   2.195   6.469
13555TIP3    H240551   6.054   2.168   6.322
13556TIP3   OH240552   5.914   2.131   5.908
13556TIP3    H140553   5.959   2.167   5.832
13556TIP3    H240554   5.852   2.200   5.933
13557TIP3   OH240555   7.161   2.842   6.499
13557TIP3    H140556   7.183   2.774   6.436
13557TIP3    H240557   7.115   2.795   6.569
13558TIP3   OH240558   6.827   2.287   6.175
13558TIP3    H140559   6.748   2.289   6.230
13558TIP3    H240560   6.899   2.281   6.237
13559TIP3   OH240561   6.226   2.380   6.195
13559TIP3    H140562   6.139   2.383   6.155
13559TIP3    H240563   6.256   2.291   6.179
13560TIP3   OH240564   6.474   2.373   5.878
13560TIP3    H140565   6.568   2.385   5.869
13560TIP3    H240566   6.439   2.392   5.791
13561TIP3   OH240567   7.275   2.375   6.375
13561TIP3    H140568   7.262   2.391   6.469
13561TIP3    H240569   7.203   2.317   6.350
13562TIP3   OH240570   6.366   2.398   5.627
13562TIP3    H140571   6.302   2.349   5.574
13562TIP3    H240572   6.419   2.445   5.563
13563TIP3   OH240573   7.476   4.084   6.607
13563TIP3    H140574   7.476   4.097   6.512
13563TIP3    H240575   7.555   4.129   6.638
13564TIP3   OH240576   6.408   3.193   7.004
13564TIP3    H140577   6.492   3.202   7.048
13564TIP3    H240578   6.343   3.197   7.074
13565TIP3   OH240579   6.882   2.664   6.282
13565TIP3    H140580   6.951   2.611   6.242
13565TIP3    H240581   6.873   2.629   6.371
13566TIP3   OH240582   6.363   2.131   6.173
13566TIP3    H140583   6.336   2.054   6.224
13566TIP3    H240584   6.383   2.096   6.087
13567TIP3   OH240585   6.852   2.573   6.547
13567TIP3    H140586   6.765   2.598   6.575
13567TIP3    H240587   6.911   2.625   6.601
13568TIP3   OH240588   6.580   2.911   5.663
13568TIP3    H140589   6.505   2.856   5.638
13568TIP3    H240590   6.553   2.952   5.746
13569TIP3   OH240591   7.473   3.172   6.266
13569TIP3    H140592   7.509   3.221   6.192
13569TIP3    H240593   7.394   3.131   6.232
13570TIP3   OH240594   7.049   2.229   5.571
13570TIP3    H140595   6.956   2.207   5.565
13570TIP3    H240596   7.051   2.324   5.580
13571TIP3   OH240597   6.996   3.260   6.677
13571TIP3    H140598   7.043   3.246   6.759
13571TIP3    H240599   6.952   3.343   6.689
13572TIP3   OH240600   7.106   2.497   5.635
13572TIP3    H140601   7.201   2.501   5.646
13572TIP3    H240602   7.083   2.574   5.584
13573TIP3   OH240603   6.245   2.944   6.334
13573TIP3    H140604   6.307   2.905   6.273
13573TIP3    H240605   6.270   2.907   6.419
13574TIP3   OH240606   6.733   3.071   5.505
13574TIP3    H140607   6.686   3.154   5.501
13574TIP3    H240608   6.678   3.014   5.559
13575TIP3   OH240609   6.892   2.999   6.969
13575TIP3    H140610   6.819   2.944   6.941
13575TIP3    H240611   6.970   2.955   6.936
13576TIP3   OH240612   7.136   3.549   6.564
13576TIP3    H140613   7.042   3.533   6.568
13576TIP3    H240614   7.159   3.582   6.650
13577TIP3   OH240615   7.520   2.585   5.451
13577TIP3    H140616   7.463   2.540   5.389
13577TIP3    H240617   7.526   2.674   5.417
13578TIP3   OH240618   7.773   3.454   6.536
13578TIP3    H140619   7.679   3.442   6.527
13578TIP3    H240620   7.809   3.427   6.452
13579TIP3   OH240621   7.260   3.401   5.389
13579TIP3    H140622   7.234   3.330   5.447
13579TIP3    H240623   7.282   3.357   5.306
13580TIP3   OH240624   7.246   3.036   6.162
13580TIP3    H140625   7.157   3.014   6.189
13580TIP3    H240626   7.280   2.956   6.123
13581TIP3   OH240627   6.399   3.274   5.978
13581TIP3    H140628   6.392   3.350   5.920
13581TIP3    H240629   6.309   3.260   6.009
13582TIP3   OH240630   5.945   2.557   5.681
13582TIP3    H140631   5.992   2.637   5.707
13582TIP3    H240632   5.866   2.558   5.735
13583TIP3   OH240633   6.479   3.026   5.886
13583TIP3    H140634   6.465   3.116   5.915
13583TIP3    H240635   6.454   2.972   5.961
13584TIP3   OH240636   6.681   3.598   6.434
13584TIP3    H140637   6.718   3.670   6.385
13584TIP3    H240638   6.754   3.563   6.486
13585TIP3   OH240639   6.313   3.498   5.826
13585TIP3    H140640   6.227   3.502   5.868
13585TIP3    H240641   6.348   3.587   5.833
13586TIP3   OH240642   7.031   3.264   6.402
13586TIP3    H140643   7.019   3.261   6.497
13586TIP3    H240644   7.105   3.205   6.386
13587TIP3   OH240645   7.027   3.138   5.273
13587TIP3    H140646   7.079   3.110   5.348
13587TIP3    H240647   6.944   3.092   5.282
13588TIP3   OH240648   7.291   3.753   6.446
13588TIP3    H140649   7.224   3.689   6.469
13588TIP3    H240650   7.252   3.805   6.377
13589TIP3   OH240651   7.337   3.603   5.079
13589TIP3    H140652   7.350   3.659   5.003
13589TIP3    H240653   7.268   3.645   5.130
13590TIP3   OH240654   6.369   2.348   6.959
13590TIP3    H140655   6.275   2.360   6.968
13590TIP3    H240656   6.395   2.304   7.041
13591TIP3   OH240657   7.206   3.053   5.463
13591TIP3    H140658   7.190   2.998   5.540
13591TIP3    H240659   7.301   3.060   5.458
13592TIP3   OH240660   6.099   3.479   6.603
13592TIP3    H140661   6.153   3.416   6.650
13592TIP3    H240662   6.114   3.562   6.649
13593TIP3   OH240663   6.376   3.103   5.292
13593TIP3    H140664   6.388   3.012   5.265
13593TIP3    H240665   6.364   3.098   5.387
13594TIP3   OH240666   6.319   3.120   5.565
13594TIP3    H140667   6.381   3.093   5.633
13594TIP3    H240668   6.320   3.216   5.569
13595TIP3   OH240669   6.049   2.804   5.767
13595TIP3    H140670   5.987   2.854   5.821
13595TIP3    H240671   6.070   2.862   5.694
13596TIP3   OH240672   7.232   2.428   6.637
13596TIP3    H140673   7.301   2.481   6.678
13596TIP3    H240674   7.216   2.357   6.699
13597TIP3   OH240675   7.111   2.182   5.838
13597TIP3    H140676   7.088   2.200   5.747
13597TIP3    H240677   7.154   2.262   5.868
13598TIP3   OH240678   6.589   3.300   5.495
13598TIP3    H140679   6.505   3.326   5.533
13598TIP3    H240680   6.615   3.375   5.441
13599TIP3   OH240681   6.755   2.382   5.923
13599TIP3    H140682   6.816   2.450   5.898
13599TIP3    H240683   6.777   2.362   6.014
13600TIP3   OH240684   7.059   2.685   6.702
13600TIP3    H140685   7.075   2.735   6.781
13600TIP3    H240686   7.104   2.601   6.717
13601TIP3   OH240687   6.922   2.079   6.012
13601TIP3    H140688   6.897   2.156   6.062
13601TIP3    H240689   6.991   2.110   5.954
13602TIP3   OH240690   6.342   3.394   5.574
13602TIP3    H140691   6.322   3.467   5.515
13602TIP3    H240692   6.331   3.431   5.662
13603TIP3   OH240693   6.433   2.100   5.818
13603TIP3    H140694   6.421   2.191   5.847
13603TIP3    H240695   6.527   2.085   5.825
13604TIP3   OH240696   7.676   2.591   6.689
13604TIP3    H140697   7.581   2.589   6.704
13604TIP3    H240698   7.687   2.557   6.601
13605TIP3   OH240699   7.338   2.778   6.072
13605TIP3    H140700   7.260   2.723   6.082
13605TIP3    H240701   7.403   2.738   6.130
13606TIP3   OH240702   6.076   2.986   5.554
13606TIP3    H140703   6.149   3.047   5.565
13606TIP3    H240704   6.107   2.923   5.489
13607TIP3   OH240705   5.976   2.279   5.684
13607TIP3    H140706   5.989   2.373   5.691
13607TIP3    H240707   5.904   2.269   5.622
13608TIP3   OH240708   7.318   3.757   6.019
13608TIP3    H140709   7.278   3.810   5.950
13608TIP3    H240710   7.412   3.766   6.005
13609TIP3   OH240711   6.384   2.003   6.550
13609TIP3    H140712   6.353   1.972   6.465
13609TIP3    H240713   6.373   1.928   6.608
13610TIP3   OH240714   5.908   3.260   5.949
13610TIP3    H140715   5.859   3.293   6.025
13610TIP3    H240716   5.865   3.300   5.874
13611TIP3   OH240717   6.116   3.795   7.019
13611TIP3    H140718   6.197   3.804   7.069
13611TIP3    H240719   6.108   3.701   7.003
13612TIP3   OH240720   6.576   3.699   7.055
13612TIP3    H140721   6.666   3.669   7.066
13612TIP3    H240722   6.541   3.646   6.983
13613TIP3   OH240723   6.530   3.303   5.179
13613TIP3    H140724   6.484   3.233   5.225
13613TIP3    H240725   6.605   3.259   5.139
13614TIP3   OH240726   7.193   3.643   6.815
13614TIP3    H140727   7.207   3.572   6.878
13614TIP3    H240728   7.267   3.702   6.828
13615TIP3   OH240729   6.973   3.344   5.100
13615TIP3    H140730   7.007   3.280   5.163
13615TIP3    H240731   7.032   3.337   5.025
13616TIP3   OH240732   6.205   3.213   7.200
13616TIP3    H140733   6.233   3.122   7.215
13616TIP3    H240734   6.120   3.204   7.156
13617TIP3   OH240735   6.201   2.796   5.400
13617TIP3    H140736   6.250   2.771   5.478
13617TIP3    H240737   6.267   2.810   5.333
13618TIP3   OH240738   6.832   3.276   6.981
13618TIP3    H140739   6.786   3.295   6.899
13618TIP3    H240740   6.864   3.186   6.970
13619TIP3   OH240741   6.773   3.016   5.239
13619TIP3    H140742   6.750   3.025   5.332
13619TIP3    H240743   6.754   2.925   5.219
13620TIP3   OH240744   7.307   3.323   6.600
13620TIP3    H140745   7.384   3.351   6.550
13620TIP3    H240746   7.241   3.390   6.583
13621TIP3   OH240747   6.331   2.970   7.210
13621TIP3    H140748   6.370   2.892   7.171
13621TIP3    H240749   6.368   2.974   7.298
13622TIP3   OH240750   6.369   2.736   5.615
13622TIP3    H140751   6.349   2.708   5.704
13622TIP3    H240752   6.418   2.663   5.577
13623TIP3   OH240753   6.682   2.831   6.871
13623TIP3    H140754   6.589   2.855   6.868
13623TIP3    H240755   6.716   2.858   6.785
13624TIP3   OH240756   6.514   2.555   5.456
13624TIP3    H140757   6.485   2.559   5.365
13624TIP3    H240758   6.609   2.564   5.451
13625TIP3   OH240759   7.185   3.195   6.948
13625TIP3    H140760   7.252   3.153   6.894
13625TIP3    H240761   7.180   3.140   7.026
13626TIP3   OH240762   7.306   2.841   5.140
13626TIP3    H140763   7.294   2.801   5.054
13626TIP3    H240764   7.283   2.933   5.128
13627TIP3   OH240765   6.789   2.598   6.971
13627TIP3    H140766   6.786   2.528   6.906
13627TIP3    H240767   6.749   2.673   6.927
13628TIP3   OH240768   6.797   2.391   6.771
13628TIP3    H140769   6.821   2.433   6.688
13628TIP3    H240770   6.705   2.367   6.761
13629TIP3   OH240771   6.813   2.928   6.652
13629TIP3    H140772   6.898   2.970   6.635
13629TIP3    H240773   6.751   2.979   6.599
13630TIP3   OH240774   7.396   2.881   7.023
13630TIP3    H140775   7.447   2.800   7.030
13630TIP3    H240776   7.462   2.950   7.019
13631TIP3   OH240777   7.429   3.141   6.760
13631TIP3    H140778   7.375   3.204   6.712
13631TIP3    H240779   7.518   3.157   6.729
13632TIP3   OH240780   6.679   2.668   7.224
13632TIP3    H140781   6.606   2.609   7.242
13632TIP3    H240782   6.701   2.652   7.132
13633TIP3   OH240783   6.915   2.161   6.875
13633TIP3    H140784   6.876   2.242   6.843
13633TIP3    H240785   6.848   2.094   6.863
13634TIP3   OH240786   7.043   2.630   7.077
13634TIP3    H140787   7.030   2.615   7.171
13634TIP3    H240788   6.957   2.614   7.038
13635TIP3   OH240789   7.288   2.580   6.952
13635TIP3    H140790   7.209   2.584   7.005
13635TIP3    H240791   7.358   2.561   7.015
13636TIP3   OH240792   7.530   2.553   7.101
13636TIP3    H140793   7.541   2.458   7.107
13636TIP3    H240794   7.524   2.583   7.191
13637TIP3   OH240795   6.507   2.449   7.284
13637TIP3    H140796   6.515   2.361   7.249
13637TIP3    H240797   6.543   2.443   7.373
13638TIP3   OH240798   6.991   2.133   7.139
13638TIP3    H140799   7.056   2.063   7.129
13638TIP3    H240800   6.958   2.146   7.050
13639TIP3   OH240801   7.093   2.351   7.275
13639TIP3    H140802   7.060   2.277   7.225
13639TIP3    H240803   7.018   2.411   7.280
13640TIP3   OH240804   6.341   3.609   5.395
13640TIP3    H140805   6.429   3.583   5.368
13640TIP3    H240806   6.303   3.651   5.317
13641TIP3   OH240807   5.801   2.997   5.563
13641TIP3    H140808   5.896   3.005   5.567
13641TIP3    H240809   5.786   2.909   5.529
13642TIP3   OH240810   5.697   3.573   6.039
13642TIP3    H140811   5.634   3.517   5.994
13642TIP3    H240812   5.742   3.515   6.100
13643TIP3   OH240813   5.845   3.406   6.205
13643TIP3    H140814   5.834   3.334   6.266
13643TIP3    H240815   5.898   3.470   6.251
13644TIP3   OH240816   7.591   3.799   6.009
13644TIP3    H140817   7.613   3.826   6.098
13644TIP3    H240818   7.649   3.850   5.953
13645TIP3   OH240819   7.613   3.832   6.290
13645TIP3    H140820   7.564   3.751   6.284
13645TIP3    H240821   7.681   3.814   6.355
13646TIP3   OH240822   7.665   3.535   6.861
13646TIP3    H140823   7.591   3.544   6.921
13646TIP3    H240824   7.711   3.619   6.866
13647TIP3   OH240825   7.486   3.051   5.467
13647TIP3    H140826   7.542   3.123   5.438
13647TIP3    H240827   7.532   3.013   5.542
13648TIP3   OH240828   7.615   2.908   5.669
13648TIP3    H140829   7.548   2.872   5.726
13648TIP3    H240830   7.680   2.946   5.729
13649TIP3   OH240831   7.657   3.310   6.106
13649TIP3    H140832   7.709   3.241   6.064
13649TIP3    H240833   7.660   3.383   6.043
13650TIP3   OH240834   7.464   3.599   6.292
13650TIP3    H140835   7.398   3.643   6.345
13650TIP3    H240836   7.414   3.558   6.221
13651TIP3   OH240837   7.518   2.824   5.315
13651TIP3    H140838   7.445   2.824   5.253
13651TIP3    H240839   7.504   2.903   5.367
13652TIP3   OH240840   7.368   2.472   5.253
13652TIP3    H140841   7.323   2.509   5.177
13652TIP3    H240842   7.359   2.378   5.243
13653TIP3   OH240843   7.409   2.772   5.804
13653TIP3    H140844   7.412   2.677   5.789
13653TIP3    H240845   7.389   2.781   5.897
13654TIP3   OH240846   7.688   3.188   6.668
13654TIP3    H140847   7.754   3.122   6.651
13654TIP3    H240848   7.707   3.259   6.606
13655TIP3   OH240849   7.864   2.975   6.656
13655TIP3    H140850   7.791   2.936   6.703
13655TIP3    H240851   7.939   2.921   6.678
13656TIP3   OH240852   7.329   2.202   5.225
13656TIP3    H140853   7.395   2.174   5.289
13656TIP3    H240854   7.248   2.162   5.256
13657TIP3   OH240855   7.399   2.494   5.692
13657TIP3    H140856   7.446   2.411   5.704
13657TIP3    H240857   7.439   2.532   5.614
13658TIP3   OH240858   7.552   2.656   6.217
13658TIP3    H140859   7.634   2.674   6.169
13658TIP3    H240860   7.565   2.697   6.302
13659TIP3   OH240861   7.627   2.805   6.446
13659TIP3    H140862   7.555   2.832   6.503
13659TIP3    H240863   7.655   2.886   6.403
13660TIP3   OH240864   6.245   2.512   7.220
13660TIP3    H140865   6.339   2.511   7.236
13660TIP3    H240866   6.213   2.428   7.254
13661TIP3   OH240867   8.094   2.392   6.983
13661TIP3    H140868   8.161   2.340   6.938
13661TIP3    H240869   8.057   2.448   6.915
13662TIP3   OH240870   7.517   2.244   5.744
13662TIP3    H140871   7.561   2.229   5.828
13662TIP3    H240872   7.454   2.173   5.737
13663TIP3   OH240873   6.221   2.228   6.580
13663TIP3    H140874   6.278   2.151   6.580
13663TIP3    H240875   6.280   2.301   6.562
13664TIP3   OH240876   6.019   2.504   6.660
13664TIP3    H140877   6.068   2.510   6.578
13664TIP3    H240878   6.049   2.580   6.711
13665TIP3   OH240879   7.941   2.537   6.808
13665TIP3    H140880   7.874   2.578   6.863
13665TIP3    H240881   7.892   2.482   6.747
13666TIP3   OH240882   7.558   2.154   5.381
13666TIP3    H140883   7.607   2.096   5.323
13666TIP3    H240884   7.611   2.234   5.385
13667TIP3   OH240885   5.984   1.979   6.123
13667TIP3    H140886   5.902   1.977   6.172
13667TIP3    H240887   5.968   2.042   6.053
13668TIP3   OH240888   7.144   3.727   5.651
13668TIP3    H140889   7.199   3.712   5.574
13668TIP3    H240890   7.191   3.794   5.701
13669TIP3   OH240891   6.213   2.033   6.948
13669TIP3    H140892   6.168   2.038   7.032
13669TIP3    H240893   6.163   2.091   6.891
13670TIP3   OH240894   6.235   3.517   7.018
13670TIP3    H140895   6.144   3.489   7.012
13670TIP3    H240896   6.263   3.489   7.105
13671TIP3   OH240897   6.450   3.560   6.580
13671TIP3    H140898   6.401   3.636   6.549
13671TIP3    H240899   6.535   3.567   6.537
13672TIP3   OH240900   6.850   3.793   6.720
13672TIP3    H140901   6.887   3.783   6.808
13672TIP3    H240902   6.913   3.847   6.673
13673TIP3   OH240903   7.043   3.946   6.594
13673TIP3    H140904   7.104   3.889   6.547
13673TIP3    H240905   7.098   4.003   6.647
13674TIP3   OH240906   7.831   2.312   6.673
13674TIP3    H140907   7.753   2.323   6.618
13674TIP3    H240908   7.854   2.220   6.664
13675TIP3   OH240909   6.114   3.813   6.625
13675TIP3    H140910   6.022   3.831   6.607
13675TIP3    H240911   6.138   3.874   6.695
13676TIP3   OH240912   6.346   3.794   6.479
13676TIP3    H140913   6.263   3.800   6.527
13676TIP3    H240914   6.323   3.815   6.388
13677TIP3   OH240915   6.758   3.809   6.271
13677TIP3    H140916   6.686   3.819   6.210
13677TIP3    H240917   6.767   3.895   6.313
13678TIP3   OH240918   7.024   3.748   6.318
13678TIP3    H140919   6.932   3.766   6.298
13678TIP3    H240920   7.072   3.817   6.271
13679TIP3   OH240921   7.228   3.922   6.222
13679TIP3    H140922   7.225   4.007   6.179
13679TIP3    H240923   7.258   3.862   6.153
13680TIP3   OH240924   6.025   3.575   6.353
13680TIP3    H140925   6.050   3.547   6.441
13680TIP3    H240926   6.096   3.543   6.297
13681TIP3   OH240927   6.229   3.466   6.208
13681TIP3    H140928   6.239   3.381   6.250
13681TIP3    H240929   6.316   3.506   6.212
13682TIP3   OH240930   6.497   3.551   6.230
13682TIP3    H140931   6.515   3.458   6.214
13682TIP3    H240932   6.551   3.573   6.305
13683TIP3   OH240933   7.055   2.199   6.316
13683TIP3    H140934   7.017   2.129   6.369
13683TIP3    H240935   7.123   2.157   6.264
13684TIP3   OH240936   7.555   2.116   6.206
13684TIP3    H140937   7.591   2.166   6.133
13684TIP3    H240938   7.461   2.137   6.206
13685TIP3   OH240939   7.672   2.188   5.968
13685TIP3    H140940   7.740   2.129   5.937
13685TIP3    H240941   7.709   2.275   5.957
13686TIP3   OH240942   6.294   1.899   6.310
13686TIP3    H140943   6.205   1.866   6.321
13686TIP3    H240944   6.348   1.820   6.302
13687TIP3   OH240945   6.112   1.794   5.957
13687TIP3    H140946   6.140   1.846   5.881
13687TIP3    H240947   6.074   1.857   6.017
13688TIP3   OH240948   6.781   1.938   6.212
13688TIP3    H140949   6.826   1.987   6.144
13688TIP3    H240950   6.818   1.970   6.294
13689TIP3   OH240951   7.269   2.087   6.181
13689TIP3    H140952   7.273   2.054   6.091
13689TIP3    H240953   7.274   2.009   6.236
13690TIP3   OH240954   7.332   2.034   5.753
13690TIP3    H140955   7.252   2.081   5.777
13690TIP3    H240956   7.319   1.946   5.789
13691TIP3   OH240957   5.792   3.374   5.727
13691TIP3    H140958   5.709   3.336   5.698
13691TIP3    H240959   5.792   3.463   5.692
13692TIP3   OH240960   6.222   1.933   5.727
13692TIP3    H140961   6.269   1.872   5.669
13692TIP3    H240962   6.291   1.989   5.763
13693TIP3   OH240963   6.709   2.130   5.827
13693TIP3    H140964   6.768   2.078   5.882
13693TIP3    H240965   6.723   2.220   5.856
13694TIP3   OH240966   6.592   3.526   5.323
13694TIP3    H140967   6.676   3.552   5.285
13694TIP3    H240968   6.562   3.455   5.267
13695TIP3   OH240969   7.294   3.670   5.425
13695TIP3    H140970   7.288   3.575   5.417
13695TIP3    H240971   7.253   3.703   5.345
13696TIP3   OH240972   6.523   2.176   7.196
13696TIP3    H140973   6.489   2.116   7.262
13696TIP3    H240974   6.616   2.185   7.218
13697TIP3   OH240975   6.772   2.178   7.322
13697TIP3    H140976   6.851   2.159   7.272
13697TIP3    H240977   6.770   2.110   7.390
13698TIP3   OH240978   5.900   3.365   5.378
13698TIP3    H140979   5.900   3.365   5.474
13698TIP3    H240980   5.980   3.319   5.354
13699TIP3   OH240981   7.592   2.279   7.103
13699TIP3    H140982   7.608   2.251   7.193
13699TIP3    H240983   7.678   2.275   7.061
13700TIP3   OH240984   7.513   3.810   6.609
13700TIP3    H140985   7.438   3.780   6.558
13700TIP3    H240986   7.499   3.904   6.620
13701TIP3   OH240987   8.770   3.201   5.367
13701TIP3    H140988   8.748   3.289   5.335
13701TIP3    H240989   8.698   3.146   5.337
13702TIP3   OH240990   8.775   3.188   5.768
13702TIP3    H140991   8.826   3.173   5.847
13702TIP3    H240992   8.730   3.104   5.752
13703TIP3   OH240993   8.084   3.047   6.116
13703TIP3    H140994   8.123   2.997   6.188
13703TIP3    H240995   8.157   3.073   6.061
13704TIP3   OH240996   9.054   3.493   5.429
13704TIP3    H140997   9.030   3.428   5.495
13704TIP3    H240998   9.070   3.573   5.479
13705TIP3   OH240999   8.077   3.474   5.800
13705TIP3    H141000   8.058   3.380   5.808
13705TIP3    H241001   8.172   3.479   5.793
13706TIP3   OH241002   7.759   2.679   5.588
13706TIP3    H141003   7.722   2.764   5.612
13706TIP3    H241004   7.687   2.632   5.547
13707TIP3   OH241005   7.843   2.996   5.812
13707TIP3    H141006   7.893   2.919   5.837
13707TIP3    H241007   7.909   3.061   5.790
13708TIP3   OH241008   8.716   3.925   5.463
13708TIP3    H141009   8.742   3.860   5.397
13708TIP3    H241010   8.726   3.880   5.547
13709TIP3   OH241011   8.593   3.410   5.777
13709TIP3    H141012   8.638   3.330   5.749
13709TIP3    H241013   8.663   3.466   5.811
13710TIP3   OH241014   9.487   2.687   5.794
13710TIP3    H141015   9.530   2.745   5.856
13710TIP3    H241016   9.426   2.744   5.747
13711TIP3   OH241017   8.993   2.894   5.816
13711TIP3    H141018   9.030   2.810   5.844
13711TIP3    H241019   8.955   2.875   5.730
13712TIP3   OH241020   8.357   2.554   5.771
13712TIP3    H141021   8.336   2.628   5.714
13712TIP3    H241022   8.301   2.482   5.739
13713TIP3   OH241023   9.030   2.652   5.420
13713TIP3    H141024   9.095   2.634   5.488
13713TIP3    H241025   9.080   2.688   5.347
13714TIP3   OH241026   7.980   2.772   5.904
13714TIP3    H141027   8.064   2.756   5.946
13714TIP3    H241028   7.983   2.721   5.823
13715TIP3   OH241029   8.397   2.971   5.719
13715TIP3    H141030   8.491   2.956   5.725
13715TIP3    H241031   8.362   2.888   5.685
13716TIP3   OH241032   9.587   2.860   5.978
13716TIP3    H141033   9.572   2.954   5.985
13716TIP3    H241034   9.682   2.849   5.989
13717TIP3   OH241035   8.335   2.562   6.224
13717TIP3    H141036   8.286   2.598   6.150
13717TIP3    H241037   8.280   2.581   6.300
13718TIP3   OH241038   8.690   3.417   5.209
13718TIP3    H141039   8.652   3.385   5.127
13718TIP3    H241040   8.634   3.491   5.234
13719TIP3   OH241041   8.426   3.337   5.985
13719TIP3    H141042   8.374   3.409   6.020
13719TIP3    H241043   8.476   3.375   5.913
13720TIP3   OH241044   9.202   2.642   5.629
13720TIP3    H141045   9.162   2.625   5.714
13720TIP3    H241046   9.246   2.727   5.640
13721TIP3   OH241047   8.229   2.668   5.991
13721TIP3    H141048   8.283   2.744   6.014
13721TIP3    H241049   8.275   2.625   5.920
13722TIP3   OH241050   8.274   3.540   6.094
13722TIP3    H141051   8.261   3.631   6.065
13722TIP3    H241052   8.196   3.521   6.147
13723TIP3   OH241053   7.654   3.244   5.350
13723TIP3    H141054   7.619   3.263   5.263
13723TIP3    H241055   7.676   3.330   5.386
13724TIP3   OH241056   9.075   3.737   5.576
13724TIP3    H141057   8.992   3.725   5.622
13724TIP3    H241058   9.065   3.820   5.530
13725TIP3   OH241059   9.339   2.568   5.991
13725TIP3    H141060   9.249   2.593   5.969
13725TIP3    H241061   9.391   2.597   5.916
13726TIP3   OH241062   8.676   2.254   5.955
13726TIP3    H141063   8.670   2.162   5.981
13726TIP3    H241064   8.598   2.295   5.995
13727TIP3   OH241065   8.799   3.770   5.247
13727TIP3    H141066   8.852   3.692   5.231
13727TIP3    H241067   8.856   3.843   5.221
13728TIP3   OH241068   8.943   3.546   5.179
13728TIP3    H141069   8.869   3.486   5.177
13728TIP3    H241070   8.991   3.522   5.258
13729TIP3   OH241071   9.279   3.632   5.917
13729TIP3    H141072   9.273   3.560   5.853
13729TIP3    H241073   9.277   3.711   5.864
13730TIP3   OH241074   8.606   3.038   5.207
13730TIP3    H141075   8.523   3.082   5.188
13730TIP3    H241076   8.649   3.031   5.121
13731TIP3   OH241077   8.566   2.837   4.890
13731TIP3    H141078   8.632   2.885   4.940
13731TIP3    H241079   8.615   2.769   4.845
13732TIP3   OH241080   9.424   3.238   5.793
13732TIP3    H141081   9.361   3.310   5.781
13732TIP3    H241082   9.506   3.272   5.757
13733TIP3   OH241083   8.935   3.099   5.177
13733TIP3    H141084   8.889   3.135   5.253
13733TIP3    H241085   9.023   3.080   5.209
13734TIP3   OH241086   9.160   3.154   6.129
13734TIP3    H141087   9.161   3.238   6.174
13734TIP3    H241088   9.079   3.154   6.078
13735TIP3   OH241089   8.199   3.102   5.567
13735TIP3    H141090   8.164   3.042   5.502
13735TIP3    H241091   8.273   3.055   5.607
13736TIP3   OH241092   8.340   3.526   5.709
13736TIP3    H141093   8.318   3.513   5.616
13736TIP3    H241094   8.428   3.488   5.717
13737TIP3   OH241095   8.295   3.101   5.941
13737TIP3    H141096   8.335   3.064   5.862
13737TIP3    H241097   8.343   3.182   5.956
13738TIP3   OH241098   8.845   3.725   5.719
13738TIP3    H141099   8.828   3.808   5.764
13738TIP3    H241100   8.829   3.658   5.785
13739TIP3   OH241101   8.471   3.633   6.268
13739TIP3    H141102   8.409   3.690   6.315
13739TIP3    H241103   8.416   3.583   6.208
13740TIP3   OH241104   8.786   2.969   4.993
13740TIP3    H141105   8.843   3.025   5.045
13740TIP3    H241106   8.821   2.976   4.904
13741TIP3   OH241107   8.226   3.177   6.414
13741TIP3    H141108   8.232   3.271   6.430
13741TIP3    H241109   8.132   3.160   6.405
13742TIP3   OH241110   8.549   3.653   5.249
13742TIP3    H141111   8.630   3.703   5.259
13742TIP3    H241112   8.490   3.713   5.203
13743TIP3   OH241113   8.261   3.791   6.353
13743TIP3    H141114   8.235   3.803   6.261
13743TIP3    H241115   8.178   3.779   6.399
13744TIP3   OH241116   9.323   2.209   5.087
13744TIP3    H141117   9.236   2.223   5.125
13744TIP3    H241118   9.321   2.255   5.003
13745TIP3   OH241119   8.075   2.943   5.367
13745TIP3    H141120   7.997   2.992   5.338
13745TIP3    H241121   8.042   2.854   5.383
13746TIP3   OH241122   9.045   3.608   4.609
13746TIP3    H141123   9.060   3.699   4.584
13746TIP3    H241124   9.130   3.577   4.639
13747TIP3   OH241125   7.859   3.352   6.299
13747TIP3    H141126   7.789   3.334   6.237
13747TIP3    H241127   7.893   3.266   6.323
13748TIP3   OH241128   7.704   3.543   5.951
13748TIP3    H141129   7.796   3.565   5.965
13748TIP3    H241130   7.657   3.620   5.983
13749TIP3   OH241131   9.470   3.962   5.995
13749TIP3    H141132   9.481   3.869   6.011
13749TIP3    H241133   9.392   3.986   6.044
13750TIP3   OH241134   8.654   3.783   6.129
13750TIP3    H141135   8.646   3.874   6.159
13750TIP3    H241136   8.588   3.735   6.179
13751TIP3   OH241137   8.438   3.875   5.084
13751TIP3    H141138   8.394   3.854   5.002
13751TIP3    H241139   8.401   3.959   5.111
13752TIP3   OH241140   7.876   3.736   5.458
13752TIP3    H141141   7.921   3.726   5.542
13752TIP3    H241142   7.828   3.654   5.448
13753TIP3   OH241143   8.632   3.835   4.715
13753TIP3    H141144   8.675   3.757   4.680
13753TIP3    H241145   8.669   3.846   4.803
13754TIP3   OH241146   8.693   3.854   4.986
13754TIP3    H141147   8.606   3.855   5.025
13754TIP3    H241148   8.750   3.820   5.055
13755TIP3   OH241149   9.391   3.106   6.296
13755TIP3    H141150   9.324   3.125   6.231
13755TIP3    H241151   9.414   3.015   6.281
13756TIP3   OH241152   8.058   3.540   6.267
13756TIP3    H141153   8.109   3.527   6.347
13756TIP3    H241154   7.986   3.478   6.273
13757TIP3   OH241155   8.441   2.346   6.082
13757TIP3    H141156   8.358   2.315   6.045
13757TIP3    H241157   8.418   2.427   6.127
13758TIP3   OH241158   8.979   2.467   6.286
13758TIP3    H141159   9.051   2.440   6.344
13758TIP3    H241160   8.900   2.450   6.337
13759TIP3   OH241161   9.168   2.884   6.196
13759TIP3    H141162   9.142   2.877   6.288
13759TIP3    H241163   9.157   2.976   6.174
13760TIP3   OH241164   8.875   2.944   4.731
13760TIP3    H141165   8.821   2.953   4.653
13760TIP3    H241166   8.948   3.004   4.717
13761TIP3   OH241167   8.592   2.381   5.051
13761TIP3    H141168   8.553   2.389   5.138
13761TIP3    H241169   8.555   2.299   5.016
13762TIP3   OH241170   8.378   2.879   6.089
13762TIP3    H141171   8.334   2.887   6.173
13762TIP3    H241172   8.358   2.961   6.043
13763TIP3   OH241173   8.259   2.755   5.612
13763TIP3    H141174   8.169   2.732   5.638
13763TIP3    H241175   8.267   2.723   5.523
13764TIP3   OH241176   8.728   2.834   5.343
13764TIP3    H141177   8.683   2.908   5.303
13764TIP3    H241178   8.784   2.800   5.274
13765TIP3   OH241179   8.918   3.092   6.405
13765TIP3    H141180   8.893   3.027   6.471
13765TIP3    H241181   9.010   3.113   6.426
13766TIP3   OH241182   8.892   2.844   5.566
13766TIP3    H141183   8.824   2.866   5.503
13766TIP3    H241184   8.937   2.769   5.527
13767TIP3   OH241185   8.219   2.897   6.312
13767TIP3    H141186   8.230   2.964   6.380
13767TIP3    H241187   8.201   2.817   6.359
13768TIP3   OH241188   8.259   2.364   5.029
13768TIP3    H141189   8.249   2.371   5.124
13768TIP3    H241190   8.180   2.407   4.994
13769TIP3   OH241191   7.806   2.410   5.896
13769TIP3    H141192   7.878   2.449   5.946
13769TIP3    H241193   7.840   2.399   5.808
13770TIP3   OH241194   7.708   2.389   5.393
13770TIP3    H141195   7.753   2.424   5.316
13770TIP3    H241196   7.644   2.456   5.416
13771TIP3   OH241197   8.929   3.098   5.985
13771TIP3    H141198   8.961   3.032   5.923
13771TIP3    H241199   8.886   3.047   6.054
13772TIP3   OH241200   8.626   2.543   5.664
13772TIP3    H141201   8.548   2.543   5.719
13772TIP3    H241202   8.699   2.533   5.724
13773TIP3   OH241203   8.019   2.631   5.672
13773TIP3    H141204   7.931   2.636   5.633
13773TIP3    H241205   8.048   2.542   5.653
13774TIP3   OH241206   8.270   2.633   5.366
13774TIP3    H141207   8.365   2.643   5.356
13774TIP3    H241208   8.235   2.650   5.279
13775TIP3   OH241209   9.063   2.625   5.875
13775TIP3    H141210   9.034   2.648   5.963
13775TIP3    H241211   8.996   2.565   5.842
13776TIP3   OH241212   8.157   2.652   5.118
13776TIP3    H141213   8.095   2.602   5.066
13776TIP3    H241214   8.208   2.701   5.053
13777TIP3   OH241215   9.260   4.345   6.084
13777TIP3    H141216   9.256   4.363   5.990
13777TIP3    H241217   9.335   4.395   6.114
13778TIP3   OH241218   8.211   3.446   6.500
13778TIP3    H141219   8.292   3.468   6.547
13778TIP3    H241220   8.142   3.458   6.565
13779TIP3   OH241221   8.668   2.918   5.767
13779TIP3    H141222   8.737   2.872   5.719
13779TIP3    H241223   8.667   2.877   5.853
13780TIP3   OH241224   8.162   2.385   5.649
13780TIP3    H141225   8.134   2.309   5.700
13780TIP3    H241226   8.181   2.351   5.562
13781TIP3   OH241227   8.641   2.818   6.030
13781TIP3    H141228   8.554   2.850   6.053
13781TIP3    H241229   8.701   2.869   6.083
13782TIP3   OH241230   8.370   3.170   5.147
13782TIP3    H141231   8.295   3.116   5.122
13782TIP3    H241232   8.344   3.212   5.229
13783TIP3   OH241233   9.244   3.432   5.729
13783TIP3    H141234   9.285   3.473   5.653
13783TIP3    H241235   9.162   3.396   5.696
13784TIP3   OH241236   8.842   2.486   5.051
13784TIP3    H141237   8.750   2.461   5.047
13784TIP3    H241238   8.842   2.580   5.064
13785TIP3   OH241239   8.778   3.509   6.175
13785TIP3    H141240   8.833   3.497   6.253
13785TIP3    H241241   8.742   3.597   6.184
13786TIP3   OH241242   8.888   2.748   5.130
13786TIP3    H141243   8.983   2.757   5.143
13786TIP3    H241244   8.864   2.823   5.075
13787TIP3   OH241245   8.064   3.183   5.794
13787TIP3    H141246   8.103   3.166   5.708
13787TIP3    H241247   8.132   3.156   5.856
13788TIP3   OH241248   8.528   3.330   4.992
13788TIP3    H141249   8.482   3.413   4.989
13788TIP3    H241250   8.472   3.273   5.045
13789TIP3   OH241251   7.950   3.117   6.428
13789TIP3    H141252   7.951   3.090   6.520
13789TIP3    H241253   7.874   3.071   6.391
13790TIP3   OH241254   8.691   3.253   6.452
13790TIP3    H141255   8.622   3.193   6.424
13790TIP3    H241256   8.773   3.212   6.421
13791TIP3   OH241257   8.920   3.799   6.049
13791TIP3    H141258   8.825   3.789   6.057
13791TIP3    H241259   8.947   3.837   6.132
13792TIP3   OH241260   9.277   2.821   4.955
13792TIP3    H141261   9.215   2.775   4.899
13792TIP3    H241262   9.280   2.910   4.920
13793TIP3   OH241263   9.505   3.696   6.057
13793TIP3    H141264   9.412   3.680   6.043
13793TIP3    H241265   9.549   3.633   5.999
13794TIP3   OH241266   9.075   3.636   4.928
13794TIP3    H141267   9.026   3.599   5.002
13794TIP3    H241268   9.038   3.593   4.851
13795TIP3   OH241269   9.017   3.296   5.634
13795TIP3    H141270   8.928   3.278   5.665
13795TIP3    H241271   9.048   3.212   5.602
13796TIP3   OH241272   8.197   3.531   5.466
13796TIP3    H141273   8.194   3.606   5.407
13796TIP3    H241274   8.108   3.523   5.499
13797TIP3   OH241275   7.758   2.814   5.179
13797TIP3    H141276   7.800   2.898   5.201
13797TIP3    H241277   7.676   2.814   5.229
13798TIP3   OH241278   8.277   3.285   5.371
13798TIP3    H141279   8.261   3.375   5.401
13798TIP3    H241280   8.251   3.230   5.445
13799TIP3   OH241281   8.476   3.852   5.919
13799TIP3    H141282   8.510   3.927   5.871
13799TIP3    H241283   8.551   3.821   5.971
13800TIP3   OH241284   8.112   3.752   5.315
13800TIP3    H141285   8.025   3.759   5.353
13800TIP3    H241286   8.148   3.840   5.320
13801TIP3   OH241287   8.822   3.512   5.901
13801TIP3    H141288   8.805   3.509   5.995
13801TIP3    H241289   8.909   3.473   5.892
13802TIP3   OH241290   8.787   3.397   4.770
13802TIP3    H141291   8.825   3.367   4.852
13802TIP3    H241292   8.701   3.354   4.766
13803TIP3   OH241293   9.055   4.025   5.932
13803TIP3    H141294   8.988   3.957   5.940
13803TIP3    H241295   9.030   4.074   5.853
13804TIP3   OH241296   9.094   3.870   4.555
13804TIP3    H141297   9.149   3.941   4.522
13804TIP3    H241298   9.017   3.914   4.592
13805TIP3   OH241299   8.164   2.644   6.429
13805TIP3    H141300   8.069   2.652   6.434
13805TIP3    H241301   8.188   2.602   6.512
13806TIP3   OH241302   8.909   3.297   4.988
13806TIP3    H141303   8.897   3.233   5.058
13806TIP3    H241304   9.000   3.327   4.998
13807TIP3   OH241305   7.908   3.750   6.082
13807TIP3    H141306   7.959   3.690   6.136
13807TIP3    H241307   7.922   3.836   6.122
13808TIP3   OH241308   8.174   3.358   4.776
13808TIP3    H141309   8.186   3.266   4.749
13808TIP3    H241310   8.160   3.353   4.871
13809TIP3   OH241311   8.116   3.375   5.048
13809TIP3    H141312   8.181   3.350   5.114
13809TIP3    H241313   8.113   3.470   5.052
13810TIP3   OH241314   7.850   3.066   5.260
13810TIP3    H141315   7.785   3.115   5.311
13810TIP3    H241316   7.870   3.123   5.185
13811TIP3   OH241317   8.990   2.690   6.128
13811TIP3    H141318   9.065   2.743   6.157
13811TIP3    H241319   8.989   2.616   6.188
13812TIP3   OH241320   8.888   2.437   5.320
13812TIP3    H141321   8.870   2.458   5.229
13812TIP3    H241322   8.929   2.516   5.355
13813TIP3   OH241323   8.383   3.558   4.985
13813TIP3    H141324   8.299   3.583   5.023
13813TIP3    H241325   8.407   3.632   4.929
13814TIP3   OH241326   8.550   2.637   5.413
13814TIP3    H141327   8.609   2.708   5.387
13814TIP3    H241328   8.574   2.616   5.503
13815TIP3   OH241329   8.839   2.932   6.185
13815TIP3    H141330   8.866   2.978   6.265
13815TIP3    H241331   8.890   2.851   6.186
13816TIP3   OH241332   8.710   2.332   5.500
13816TIP3    H141333   8.688   2.409   5.552
13816TIP3    H241334   8.777   2.362   5.439
13817TIP3   OH241335   8.134   3.647   5.063
13817TIP3    H141336   8.113   3.719   5.003
13817TIP3    H241337   8.125   3.686   5.150
13818TIP3   OH241338   8.227   2.360   5.309
13818TIP3    H141339   8.215   2.451   5.335
13818TIP3    H241340   8.321   2.345   5.314
13819TIP3   OH241341   9.438   2.850   6.210
13819TIP3    H141342   9.344   2.838   6.196
13819TIP3    H241343   9.476   2.843   6.123
13820TIP3   OH241344   9.110   3.034   5.557
13820TIP3    H141345   9.028   2.987   5.568
13820TIP3    H241346   9.172   2.988   5.613
13821TIP3   OH241347   7.873   3.240   5.041
13821TIP3    H141348   7.944   3.303   5.050
13821TIP3    H241349   7.904   3.178   4.975
13822TIP3   OH241350   7.780   2.536   5.173
13822TIP3    H141351   7.792   2.630   5.183
13822TIP3    H241352   7.724   2.527   5.095
13823TIP3   OH241353   9.069   3.999   5.485
13823TIP3    H141354   9.024   4.054   5.420
13823TIP3    H241355   9.161   4.024   5.478
13824TIP3   OH241356   8.181   2.265   6.029
13824TIP3    H141357   8.152   2.235   5.943
13824TIP3    H241358   8.171   2.188   6.086
13825TIP3   OH241359   7.700   3.514   5.433
13825TIP3    H141360   7.658   3.550   5.511
13825TIP3    H241361   7.655   3.557   5.360
13826TIP3   OH241362   7.907   4.053   6.505
13826TIP3    H141363   7.989   4.058   6.554
13826TIP3    H241364   7.891   3.959   6.496
13827TIP3   OH241365   8.370   3.955   6.545
13827TIP3    H141366   8.461   3.927   6.555
13827TIP3    H241367   8.336   3.901   6.474
13828TIP3   OH241368   8.324   3.562   4.667
13828TIP3    H141369   8.278   3.492   4.712
13828TIP3    H241370   8.397   3.519   4.623
13829TIP3   OH241371   8.977   3.894   6.299
13829TIP3    H141372   8.989   3.823   6.363
13829TIP3    H241373   9.047   3.956   6.318
13830TIP3   OH241374   8.739   3.612   4.607
13830TIP3    H141375   8.778   3.549   4.667
13830TIP3    H241376   8.799   3.612   4.532
13831TIP3   OH241377   8.005   3.450   6.689
13831TIP3    H141378   8.024   3.357   6.704
13831TIP3    H241379   7.917   3.451   6.651
13832TIP3   OH241380   7.993   3.051   4.885
13832TIP3    H141381   8.043   3.027   4.963
13832TIP3    H241382   8.060   3.065   4.817
13833TIP3   OH241383   8.629   3.531   6.470
13833TIP3    H141384   8.584   3.552   6.388
13833TIP3    H241385   8.665   3.444   6.455
13834TIP3   OH241386   8.546   3.270   4.724
13834TIP3    H141387   8.526   3.279   4.817
13834TIP3    H241388   8.529   3.177   4.705
13835TIP3   OH241389   9.077   3.569   6.086
13835TIP3    H141390   9.151   3.592   6.029
13835TIP3    H241391   9.015   3.641   6.074
13836TIP3   OH241392   8.119   3.193   6.702
13836TIP3    H141393   8.195   3.179   6.645
13836TIP3    H241394   8.158   3.214   6.788
13837TIP3   OH241395   8.162   2.994   5.100
13837TIP3    H141396   8.143   2.963   5.188
13837TIP3    H241397   8.210   2.922   5.058
13838TIP3   OH241398   8.488   3.077   6.357
13838TIP3    H141399   8.401   3.118   6.368
13838TIP3    H241400   8.517   3.107   6.271
13839TIP3   OH241401   8.299   2.810   4.945
13839TIP3    H141402   8.269   2.813   4.854
13839TIP3    H241403   8.394   2.817   4.939
13840TIP3   OH241404   8.966   3.445   6.431
13840TIP3    H141405   9.041   3.417   6.378
13840TIP3    H241406   8.968   3.389   6.508
13841TIP3   OH241407   9.069   3.116   4.624
13841TIP3    H141408   9.047   3.070   4.543
13841TIP3    H241409   9.030   3.203   4.614
13842TIP3   OH241410   8.586   2.844   6.464
13842TIP3    H141411   8.591   2.775   6.398
13842TIP3    H241412   8.554   2.920   6.416
13843TIP3   OH241413   8.596   2.646   6.259
13843TIP3    H141414   8.623   2.684   6.175
13843TIP3    H241415   8.504   2.621   6.245
13844TIP3   OH241416   8.597   3.177   6.129
13844TIP3    H141417   8.684   3.214   6.121
13844TIP3    H241418   8.540   3.236   6.079
13845TIP3   OH241419   9.184   3.121   6.505
13845TIP3    H141420   9.204   3.028   6.509
13845TIP3    H241421   9.264   3.162   6.471
13846TIP3   OH241422   9.196   3.399   6.260
13846TIP3    H141423   9.148   3.461   6.205
13846TIP3    H241424   9.286   3.403   6.228
13847TIP3   OH241425   8.473   2.925   6.707
13847TIP3    H141426   8.401   2.865   6.727
13847TIP3    H241427   8.500   2.902   6.619
13848TIP3   OH241428   8.714   2.417   6.366
13848TIP3    H141429   8.676   2.498   6.331
13848TIP3    H241430   8.647   2.351   6.351
13849TIP3   OH241431   8.840   2.886   6.571
13849TIP3    H141432   8.829   2.874   6.665
13849TIP3    H241433   8.754   2.865   6.534
13850TIP3   OH241434   9.088   2.843   6.448
13850TIP3    H141435   9.009   2.842   6.503
13850TIP3    H241436   9.157   2.810   6.505
13851TIP3   OH241437   9.316   2.791   6.593
13851TIP3    H141438   9.330   2.697   6.603
13851TIP3    H241439   9.315   2.825   6.683
13852TIP3   OH241440   8.304   2.706   6.768
13852TIP3    H141441   8.312   2.617   6.733
13852TIP3    H241442   8.342   2.701   6.856
13853TIP3   OH241443   8.781   2.387   6.629
13853TIP3    H141444   8.850   2.322   6.622
13853TIP3    H241445   8.752   2.402   6.539
13854TIP3   OH241446   8.877   2.602   6.774
13854TIP3    H141447   8.846   2.531   6.718
13854TIP3    H241448   8.804   2.664   6.775
13855TIP3   OH241449   8.128   3.858   4.883
13855TIP3    H141450   8.218   3.837   4.857
13855TIP3    H241451   8.091   3.903   4.807
13856TIP3   OH241452   7.599   3.241   5.058
13856TIP3    H141453   7.694   3.251   5.054
13856TIP3    H241454   7.583   3.156   5.018
13857TIP3   OH241455   7.501   3.822   5.521
13857TIP3    H141456   7.437   3.768   5.475
13857TIP3    H241457   7.546   3.762   5.579
13858TIP3   OH241458   7.647   3.654   5.686
13858TIP3    H141459   7.639   3.584   5.751
13858TIP3    H241460   7.700   3.721   5.729
13859TIP3   OH241461   9.329   4.076   5.482
13859TIP3    H141462   9.347   4.108   5.571
13859TIP3    H241463   9.396   4.117   5.428
13860TIP3   OH241464   9.376   4.117   5.752
13860TIP3    H141465   9.350   4.030   5.781
13860TIP3    H241466   9.468   4.124   5.777
13861TIP3   OH241467   9.401   3.800   6.341
13861TIP3    H141468   9.335   3.805   6.411
13861TIP3    H241469   9.433   3.889   6.332
13862TIP3   OH241470   9.169   3.336   5.044
13862TIP3    H141471   9.239   3.325   4.979
13862TIP3    H241472   9.215   3.350   5.127
13863TIP3   OH241473   9.365   3.188   5.208
13863TIP3    H141474   9.282   3.143   5.224
13863TIP3    H241475   9.393   3.217   5.295
13864TIP3   OH241476   9.402   3.543   5.535
13864TIP3    H141477   9.424   3.507   5.449
13864TIP3    H241478   9.387   3.636   5.518
13865TIP3   OH241479   9.237   3.863   5.773
13865TIP3    H141480   9.171   3.910   5.825
13865TIP3    H241481   9.187   3.822   5.702
13866TIP3   OH241482   9.249   3.051   4.819
13866TIP3    H141483   9.175   3.077   4.764
13866TIP3    H241484   9.289   3.134   4.845
13867TIP3   OH241485   9.120   2.709   4.765
13867TIP3    H141486   9.054   2.741   4.703
13867TIP3    H241487   9.129   2.616   4.744
13868TIP3   OH241488   9.170   3.012   5.289
13868TIP3    H141489   9.179   2.917   5.277
13868TIP3    H241490   9.157   3.023   5.383
13869TIP3   OH241491   7.820   3.085   6.069
13869TIP3    H141492   7.810   3.056   5.979
13869TIP3    H241493   7.914   3.082   6.086
13870TIP3   OH241494   9.460   3.408   6.175
13870TIP3    H141495   9.520   3.339   6.205
13870TIP3    H241496   9.492   3.433   6.089
13871TIP3   OH241497   9.635   3.224   6.292
13871TIP3    H141498   9.553   3.175   6.285
13871TIP3    H241499   9.703   3.160   6.269
13872TIP3   OH241500   9.132   2.439   4.713
13872TIP3    H141501   9.189   2.393   4.774
13872TIP3    H241502   9.044   2.408   4.734
13873TIP3   OH241503   9.172   2.739   5.196
13873TIP3    H141504   9.211   2.653   5.209
13873TIP3    H241505   9.211   2.771   5.115
13874TIP3   OH241506   9.320   2.884   5.686
13874TIP3    H141507   9.405   2.921   5.664
13874TIP3    H241508   9.297   2.926   5.770
13875TIP3   OH241509   9.287   3.031   5.907
13875TIP3    H141510   9.246   3.066   5.987
13875TIP3    H241511   9.336   3.105   5.872
13876TIP3   OH241512   8.043   2.770   6.703
13876TIP3    H141513   8.136   2.768   6.724
13876TIP3    H241514   8.007   2.693   6.748
13877TIP3   OH241515   9.267   2.483   5.239
13877TIP3    H141516   9.315   2.453   5.316
13877TIP3    H241517   9.203   2.415   5.222
13878TIP3   OH241518   8.018   2.486   6.060
13878TIP3    H141519   8.073   2.408   6.059
13878TIP3    H241520   8.079   2.558   6.040
13879TIP3   OH241521   7.797   2.745   6.120
13879TIP3    H141522   7.849   2.736   6.041
13879TIP3    H241523   7.818   2.833   6.153
13880TIP3   OH241524   9.703   2.777   6.256
13880TIP3    H141525   9.624   2.823   6.285
13880TIP3    H241526   9.670   2.703   6.204
13881TIP3   OH241527   9.383   2.372   4.861
13881TIP3    H141528   9.469   2.347   4.895
13881TIP3    H241529   9.391   2.466   4.844
13882TIP3   OH241530   7.785   2.262   5.622
13882TIP3    H141531   7.700   2.248   5.663
13882TIP3    H241532   7.766   2.314   5.544
13883TIP3   OH241533   8.937   3.973   5.143
13883TIP3    H141534   8.986   3.967   5.061
13883TIP3    H241535   8.973   4.051   5.186
13884TIP3   OH241536   8.004   2.302   6.444
13884TIP3    H141537   7.962   2.317   6.529
13884TIP3    H241538   7.954   2.356   6.383
13885TIP3   OH241539   8.036   3.769   6.519
13885TIP3    H141540   7.943   3.748   6.511
13885TIP3    H241541   8.054   3.760   6.613
13886TIP3   OH241542   8.249   3.817   6.069
13886TIP3    H141543   8.199   3.892   6.038
13886TIP3    H241544   8.334   3.824   6.025
13887TIP3   OH241545   8.646   4.050   6.206
13887TIP3    H141546   8.683   4.043   6.294
13887TIP3    H241547   8.711   4.101   6.156
13888TIP3   OH241548   8.843   4.198   6.077
13888TIP3    H141549   8.910   4.145   6.033
13888TIP3    H241550   8.893   4.258   6.132
13889TIP3   OH241551   9.575   2.546   6.157
13889TIP3    H141552   9.492   2.566   6.115
13889TIP3    H241553   9.601   2.462   6.121
13890TIP3   OH241554   7.911   4.054   6.118
13890TIP3    H141555   7.819   4.072   6.096
13890TIP3    H241556   7.933   4.120   6.183
13891TIP3   OH241557   8.141   4.049   5.967
13891TIP3    H141558   8.058   4.053   6.014
13891TIP3    H241559   8.119   4.071   5.876
13892TIP3   OH241560   8.545   4.068   5.760
13892TIP3    H141561   8.473   4.080   5.697
13892TIP3    H241562   8.558   4.154   5.798
13893TIP3   OH241563   8.802   3.985   5.795
13893TIP3    H141564   8.711   4.011   5.781
13893TIP3    H241565   8.854   4.054   5.753
13894TIP3   OH241566   8.995   4.159   5.697
13894TIP3    H141567   9.008   4.248   5.665
13894TIP3    H241568   9.019   4.103   5.623
13895TIP3   OH241569   7.822   3.832   5.831
13895TIP3    H141570   7.849   3.810   5.921
13895TIP3    H241571   7.893   3.800   5.776
13896TIP3   OH241572   8.024   3.718   5.691
13896TIP3    H141573   8.036   3.633   5.733
13896TIP3    H241574   8.111   3.759   5.695
13897TIP3   OH241575   8.291   3.803   5.716
13897TIP3    H141576   8.312   3.710   5.701
13897TIP3    H241577   8.346   3.827   5.791
13898TIP3   OH241578   8.857   2.443   5.798
13898TIP3    H141579   8.814   2.375   5.849
13898TIP3    H241580   8.929   2.397   5.754
13899TIP3   OH241581   9.368   2.380   5.724
13899TIP3    H141582   9.391   2.411   5.636
13899TIP3    H241583   9.273   2.387   5.728
13900TIP3   OH241584   9.434   2.410   5.451
13900TIP3    H141585   9.518   2.371   5.425
13900TIP3    H241586   9.448   2.505   5.445
13901TIP3   OH241587   8.091   2.158   5.792
13901TIP3    H141588   8.001   2.126   5.800
13901TIP3    H241589   8.145   2.080   5.785
13902TIP3   OH241590   7.922   2.070   5.460
13902TIP3    H141591   7.943   2.117   5.379
13902TIP3    H241592   7.882   2.136   5.516
13903TIP3   OH241593   8.570   2.195   5.699
13903TIP3    H141594   8.617   2.241   5.630
13903TIP3    H241595   8.612   2.225   5.780
13904TIP3   OH241596   9.086   2.319   5.695
13904TIP3    H141597   9.110   2.284   5.609
13904TIP3    H241598   9.088   2.243   5.753
13905TIP3   OH241599   9.094   2.274   5.231
13905TIP3    H141600   9.015   2.320   5.258
13905TIP3    H241601   9.087   2.188   5.274
13906TIP3   OH241602   7.579   3.637   5.218
13906TIP3    H141603   7.497   3.604   5.182
13906TIP3    H241604   7.586   3.727   5.185
13907TIP3   OH241605   8.020   2.191   5.215
13907TIP3    H141606   8.066   2.130   5.157
13907TIP3    H241607   8.089   2.247   5.250
13908TIP3   OH241608   8.501   2.387   5.313
13908TIP3    H141609   8.559   2.333   5.367
13908TIP3    H241610   8.518   2.477   5.342
13909TIP3   OH241611   8.383   3.784   4.815
13909TIP3    H141612   8.463   3.818   4.776
13909TIP3    H241613   8.355   3.714   4.756
13910TIP3   OH241614   9.063   3.921   4.902
13910TIP3    H141615   9.071   3.825   4.896
13910TIP3    H241616   9.021   3.946   4.820
13911TIP3   OH241617   8.324   2.436   6.677
13911TIP3    H141618   8.292   2.371   6.739
13911TIP3    H241619   8.416   2.448   6.699
13912TIP3   OH241620   8.569   2.444   6.802
13912TIP3    H141621   8.646   2.422   6.749
13912TIP3    H241622   8.567   2.378   6.871
13913TIP3   OH241623   7.702   3.629   4.866
13913TIP3    H141624   7.704   3.640   4.962
13913TIP3    H241625   7.782   3.581   4.845
13914TIP3   OH241626   9.383   2.522   6.600
13914TIP3    H141627   9.408   2.493   6.687
13914TIP3    H241628   9.463   2.514   6.548
13915TIP3   OH241629   9.252   4.070   6.118
13915TIP3    H141630   9.181   4.049   6.057
13915TIP3    H241631   9.261   4.165   6.111
13916TIP3   OH241632   9.458   2.925   5.162
13916TIP3    H141633   9.418   3.012   5.171
13916TIP3    H241634   9.402   2.880   5.100
13917TIP3   OH241635   9.664   3.184   5.329
13917TIP3    H141636   9.586   3.159   5.379
13917TIP3    H241637   9.643   3.163   5.239
13918TIP3   OH241638   9.534   3.524   4.846
13918TIP3    H141639   9.464   3.518   4.911
13918TIP3    H241640   9.605   3.570   4.891
13919TIP3   OH241641   9.633   3.636   5.685
13919TIP3    H141642   9.566   3.587   5.638
13919TIP3    H241643   9.712   3.584   5.675
13920TIP3   OH241644   9.412   3.814   5.473
13920TIP3    H141645   9.487   3.833   5.529
13920TIP3    H241646   9.357   3.892   5.480
13921TIP3   OH241647   9.643   3.989   5.047
13921TIP3    H141648   9.728   3.948   5.064
13921TIP3    H241649   9.593   3.922   5.000
13922TIP3   OH241650   9.731   3.813   5.867
13922TIP3    H141651   9.772   3.753   5.929
13922TIP3    H241652   9.678   3.756   5.811
13923TIP3   OH241653   9.518   2.662   5.385
13923TIP3    H141654   9.566   2.745   5.390
13923TIP3    H241655   9.502   2.648   5.292
13924TIP3   OH241656   0.020   3.228   5.998
13924TIP3    H141657   0.077   3.300   6.024
13924TIP3    H241658   0.026   3.226   5.902
13925TIP3   OH241659   9.535   3.167   4.642
13925TIP3    H141660   9.571   3.114   4.713
13925TIP3    H241661   9.463   3.115   4.607
13926TIP3   OH241662   9.629   3.914   5.604
13926TIP3    H141663   9.668   3.839   5.650
13926TIP3    H241664   9.625   3.983   5.670
13927TIP3   OH241665   9.450   3.809   4.964
13927TIP3    H141666   9.405   3.856   5.033
13927TIP3    H241667   9.406   3.836   4.883
13928TIP3   OH241668   9.687   4.377   5.994
13928TIP3    H141669   9.768   4.387   6.043
13928TIP3    H241670   9.664   4.284   6.005
13929TIP3   OH241671   0.015   3.611   6.032
13929TIP3    H141672   0.082   3.545   6.047
13929TIP3    H241673  -0.011   3.641   6.119
13930TIP3   OH241674   9.276   3.473   4.661
13930TIP3    H141675   9.346   3.533   4.637
13930TIP3    H241676   9.270   3.412   4.586
13931TIP3   OH241677   9.258   4.077   5.009
13931TIP3    H141678   9.196   4.030   4.954
13931TIP3    H241679   9.277   4.017   5.081
13932TIP3   OH241680   9.350   3.908   5.202
13932TIP3    H141681   9.332   3.843   5.269
13932TIP3    H241682   9.410   3.970   5.244
13933TIP3   OH241683   9.699   3.424   5.473
13933TIP3    H141684   9.689   3.349   5.414
13933TIP3    H241685   9.701   3.500   5.414
13934TIP3   OH241686   0.017   3.034   6.217
13934TIP3    H141687   0.026   3.065   6.127
13934TIP3    H241688  -0.008   2.942   6.208
13935TIP3   OH241689   9.577   2.979   5.661
13935TIP3    H141690   9.639   2.906   5.666
13935TIP3    H241691   9.617   3.048   5.714
13936TIP3   OH241692   9.493   2.585   5.121
13936TIP3    H141693   9.411   2.540   5.141
13936TIP3    H241694   9.557   2.515   5.111
13937TIP3   OH241695   0.129   3.999   5.923
13937TIP3    H141696   0.065   3.948   5.873
13937TIP3    H241697   0.109   3.980   6.014
13938TIP3   OH241698   9.674   4.308   5.548
13938TIP3    H141699   9.586   4.342   5.530
13938TIP3    H241700   9.664   4.253   5.626
13939TIP3   OH241701   0.101   4.257   5.404
13939TIP3    H141702   0.023   4.276   5.456
13939TIP3    H241703   0.105   4.329   5.340
13940TIP3   OH241704   9.556   4.073   5.296
13940TIP3    H141705   9.633   4.058   5.351
13940TIP3    H241706   9.587   4.055   5.207
13941TIP3   OH241707   0.048   3.836   5.167
13941TIP3    H141708   0.110   3.771   5.201
13941TIP3    H241709   0.078   3.919   5.204
13942TIP3   OH241710   9.327   3.867   4.726
13942TIP3    H141711   9.249   3.889   4.674
13942TIP3    H241712   9.383   3.943   4.718
13943TIP3   OH241713   9.447   3.898   4.359
13943TIP3    H141714   9.485   3.967   4.413
13943TIP3    H241715   9.521   3.843   4.334
13944TIP3   OH241716   1.250   3.985   7.037
13944TIP3    H141717   1.221   4.073   7.012
13944TIP3    H241718   1.176   3.928   7.017
13945TIP3   OH241719   1.256   3.966   7.454
13945TIP3    H141720   1.301   3.953   7.538
13945TIP3    H241721   1.209   3.884   7.439
13946TIP3   OH241722   0.568   3.882   7.841
13946TIP3    H141723   0.597   3.804   7.889
13946TIP3    H241724   0.628   3.888   7.767
13947TIP3   OH241725   1.525   4.273   7.127
13947TIP3    H141726   1.503   4.211   7.197
13947TIP3    H241727   1.542   4.355   7.173
13948TIP3   OH241728   0.590   4.250   7.498
13948TIP3    H141729   0.571   4.156   7.489
13948TIP3    H241730   0.682   4.257   7.472
13949TIP3   OH241731   0.043   3.523   7.265
13949TIP3    H141732   0.047   3.590   7.333
13949TIP3    H241733   0.016   3.444   7.312
13950TIP3   OH241734   0.318   3.795   7.553
13950TIP3    H141735   0.375   3.721   7.576
13950TIP3    H241736   0.338   3.813   7.461
13951TIP3   OH241737   1.106   4.693   7.095
13951TIP3    H141738   1.150   4.623   7.047
13951TIP3    H241739   1.023   4.655   7.123
13952TIP3   OH241740   1.086   4.188   7.478
13952TIP3    H141741   1.129   4.107   7.449
13952TIP3    H241742   1.156   4.239   7.517
13953TIP3   OH241743   2.029   3.560   7.440
13953TIP3    H141744   2.073   3.615   7.505
13953TIP3    H241745   2.100   3.527   7.385
13954TIP3   OH241746   1.457   3.687   7.505
13954TIP3    H141747   1.490   3.601   7.533
13954TIP3    H241748   1.417   3.671   7.420
13955TIP3   OH241749   0.834   3.345   7.453
13955TIP3    H141750   0.809   3.417   7.396
13955TIP3    H241751   0.780   3.271   7.424
13956TIP3   OH241752   1.501   3.444   7.094
13956TIP3    H141753   1.563   3.437   7.166
13956TIP3    H241754   1.554   3.477   7.021
13957TIP3   OH241755   0.441   3.563   7.631
13957TIP3    H141756   0.529   3.526   7.637
13957TIP3    H241757   0.401   3.517   7.557
13958TIP3   OH241758   0.869   3.762   7.418
13958TIP3    H141759   0.964   3.751   7.421
13958TIP3    H241760   0.837   3.682   7.378
13959TIP3   OH241761   2.119   3.751   7.614
13959TIP3    H141762   2.034   3.788   7.638
13959TIP3    H241763   2.176   3.773   7.688
13960TIP3   OH241764   0.808   3.341   7.896
13960TIP3    H141765   0.749   3.374   7.828
13960TIP3    H241766   0.759   3.353   7.978
13961TIP3   OH241767   1.159   4.207   6.896
13961TIP3    H141768   1.120   4.176   6.814
13961TIP3    H241769   1.104   4.281   6.922
13962TIP3   OH241770   0.893   4.119   7.670
13962TIP3    H141771   0.839   4.190   7.704
13962TIP3    H241772   0.943   4.158   7.598
13963TIP3   OH241773   1.656   3.464   7.316
13963TIP3    H141774   1.612   3.438   7.396
13963TIP3    H241775   1.706   3.542   7.340
13964TIP3   OH241776   0.692   3.449   7.672
13964TIP3    H141777   0.748   3.523   7.696
13964TIP3    H241778   0.737   3.408   7.598
13965TIP3   OH241779   0.739   4.317   7.784
13965TIP3    H141780   0.731   4.410   7.761
13965TIP3    H241781   0.663   4.299   7.839
13966TIP3   OH241782   0.145   3.959   7.063
13966TIP3    H141783   0.079   3.971   6.994
13966TIP3    H241784   0.192   4.042   7.066
13967TIP3   OH241785   1.572   4.523   7.258
13967TIP3    H141786   1.493   4.507   7.311
13967TIP3    H241787   1.556   4.607   7.215
13968TIP3   OH241788   1.867   3.424   7.633
13968TIP3    H141789   1.778   3.446   7.603
13968TIP3    H241790   1.924   3.456   7.563
13969TIP3   OH241791   1.142   3.046   7.626
13969TIP3    H141792   1.130   2.953   7.645
13969TIP3    H241793   1.064   3.088   7.661
13970TIP3   OH241794   1.260   4.547   6.910
13970TIP3    H141795   1.316   4.469   6.903
13970TIP3    H241796   1.319   4.621   6.896
13971TIP3   OH241797   1.414   4.320   6.878
13971TIP3    H141798   1.336   4.264   6.881
13971TIP3    H241799   1.462   4.300   6.958
13972TIP3   OH241800   1.776   4.430   7.612
13972TIP3    H141801   1.755   4.357   7.554
13972TIP3    H241802   1.758   4.508   7.560
13973TIP3   OH241803   1.071   3.826   6.890
13973TIP3    H141804   0.990   3.873   6.872
13973TIP3    H241805   1.117   3.822   6.806
13974TIP3   OH241806   1.033   3.631   6.575
13974TIP3    H141807   1.097   3.679   6.628
13974TIP3    H241808   1.084   3.562   6.533
13975TIP3   OH241809   1.944   4.087   7.492
13975TIP3    H141810   1.862   4.137   7.491
13975TIP3    H241811   1.973   4.088   7.401
13976TIP3   OH241812   1.427   3.910   6.845
13976TIP3    H141813   1.373   3.940   6.918
13976TIP3    H241814   1.507   3.878   6.887
13977TIP3   OH241815   1.646   3.951   7.792
13977TIP3    H141816   1.646   4.031   7.844
13977TIP3    H241817   1.559   3.948   7.752
13978TIP3   OH241818   0.665   3.882   7.266
13978TIP3    H141819   0.636   3.821   7.198
13978TIP3    H241820   0.739   3.836   7.308
13979TIP3   OH241821   0.841   4.292   7.403
13979TIP3    H141822   0.842   4.329   7.315
13979TIP3    H241823   0.931   4.262   7.418
13980TIP3   OH241824   0.758   3.884   7.636
13980TIP3    H141825   0.796   3.846   7.557
13980TIP3    H241826   0.806   3.966   7.650
13981TIP3   OH241827   1.366   4.496   7.427
13981TIP3    H141828   1.330   4.580   7.454
13981TIP3    H241829   1.330   4.433   7.490
13982TIP3   OH241830   0.935   4.416   7.952
13982TIP3    H141831   0.876   4.478   7.995
13982TIP3    H241832   0.880   4.369   7.889
13983TIP3   OH241833   1.255   3.772   6.680
13983TIP3    H141834   1.315   3.830   6.727
13983TIP3    H241835   1.287   3.774   6.590
13984TIP3   OH241836   3.989   8.628   0.048
13984TIP3    H141837   3.968   8.712   0.089
13984TIP3    H241838   3.917   8.612  -0.013
13985TIP3   OH241839   4.011   9.206   0.053
13985TIP3    H141840   3.990   9.218  -0.040
13985TIP3    H241841   3.926   9.199   0.096
13986TIP3   OH241842   1.769   3.000   6.745
13986TIP3    H141843   1.693   3.019   6.799
13986TIP3    H241844   1.777   3.077   6.688
13987TIP3   OH241845   0.558   3.739   7.050
13987TIP3    H141846   0.493   3.789   7.001
13987TIP3    H241847   0.507   3.670   7.093
13988TIP3   OH241848   1.594   4.372   6.297
13988TIP3    H141849   1.587   4.465   6.278
13988TIP3    H241850   1.685   4.350   6.276
13989TIP3   OH241851   3.591   8.797   0.077
13989TIP3    H141852   3.526   8.796   0.007
13989TIP3    H241853   3.608   8.705   0.095
13990TIP3   OH241854   2.006   4.831   7.678
13990TIP3    H141855   2.068   4.770   7.717
13990TIP3    H241856   1.927   4.823   7.732
13991TIP3   OH241857   1.144   4.559   7.849
13991TIP3    H141858   1.129   4.650   7.875
13991TIP3    H241859   1.069   4.511   7.886
13992TIP3   OH241860   0.888   4.676   6.705
13992TIP3    H141861   0.822   4.659   6.638
13992TIP3    H241862   0.868   4.763   6.738
13993TIP3   OH241863   0.468   4.443   7.213
13993TIP3    H141864   0.510   4.487   7.286
13993TIP3    H241865   0.393   4.398   7.252
13994TIP3   OH241866   1.094   4.593   6.400
13994TIP3    H141867   1.147   4.521   6.367
13994TIP3    H241868   1.125   4.605   6.490
13995TIP3   OH241869   1.151   4.633   6.669
13995TIP3    H141870   1.059   4.649   6.693
13995TIP3    H241871   1.190   4.596   6.749
13996TIP3   OH241872   1.896   3.903   7.964
13996TIP3    H141873   1.808   3.893   7.927
13996TIP3    H241874   1.917   3.817   8.001
13997TIP3   OH241875   3.811   8.928  -0.023
13997TIP3    H141876   3.865   8.918   0.055
13997TIP3    H241877   3.728   8.886  -0.000
13998TIP3   OH241878   0.904   3.139   7.731
13998TIP3    H141879   0.819   3.103   7.706
13998TIP3    H241880   0.883   3.216   7.784
13999TIP3   OH241881   1.449   3.267   7.965
13999TIP3    H141882   1.518   3.236   8.024
13999TIP3    H241883   1.368   3.236   8.005
14000TIP3   OH241884   1.670   3.690   7.868
14000TIP3    H141885   1.617   3.684   7.947
14000TIP3    H241886   1.650   3.777   7.833
14001TIP3   OH241887   1.342   3.741   6.421
14001TIP3    H141888   1.292   3.748   6.339
14001TIP3    H241889   1.422   3.790   6.404
14002TIP3   OH241890   1.045   3.173   6.739
14002TIP3    H141891   1.012   3.180   6.828
14002TIP3    H241892   1.005   3.093   6.704
14003TIP3   OH241893   0.841   3.661   7.779
14003TIP3    H141894   0.794   3.669   7.862
14003TIP3    H241895   0.817   3.741   7.731
14004TIP3   OH241896   0.745   3.556   7.294
14004TIP3    H141897   0.662   3.522   7.329
14004TIP3    H241898   0.750   3.520   7.205
14005TIP3   OH241899   1.197   3.624   7.029
14005TIP3    H141900   1.148   3.696   6.988
14005TIP3    H241901   1.253   3.591   6.958
14006TIP3   OH241902   4.671   8.555   0.054
14006TIP3    H141903   4.627   8.487   0.106
14006TIP3    H241904   4.762   8.553   0.083
14007TIP3   OH241905   1.360   3.630   7.254
14007TIP3    H141906   1.293   3.654   7.190
14007TIP3    H241907   1.406   3.556   7.215
14008TIP3   OH241908   3.943   8.304  -0.002
14008TIP3    H141909   3.936   8.353   0.080
14008TIP3    H241910   3.932   8.212   0.025
14009TIP3   OH241911   0.706   3.165   6.713
14009TIP3    H141912   0.699   3.172   6.809
14009TIP3    H241913   0.636   3.221   6.680
14010TIP3   OH241914   0.250   3.214   7.550
14010TIP3    H141915   0.310   3.239   7.621
14010TIP3    H241916   0.301   3.153   7.496
14011TIP3   OH241917   0.293   3.354   7.141
14011TIP3    H141918   0.367   3.330   7.086
14011TIP3    H241919   0.219   3.359   7.081
14012TIP3   OH241920   1.397   3.886   7.682
14012TIP3    H141921   1.425   3.818   7.621
14012TIP3    H241922   1.353   3.838   7.752
14013TIP3   OH241923   1.092   3.332   7.345
14013TIP3    H141924   1.013   3.334   7.399
14013TIP3    H241925   1.164   3.322   7.409
14014TIP3   OH241926   0.542   3.403   7.378
14014TIP3    H141927   0.447   3.413   7.381
14014TIP3    H241928   0.556   3.309   7.363
14015TIP3   OH241929   0.745   3.414   7.061
14015TIP3    H141930   0.839   3.426   7.047
14015TIP3    H241931   0.705   3.437   6.978
14016TIP3   OH241932   1.521   3.419   7.552
14016TIP3    H141933   1.507   3.438   7.644
14016TIP3    H241934   1.452   3.357   7.529
14017TIP3   OH241935   0.615   3.446   6.829
14017TIP3    H141936   0.526   3.412   6.815
14017TIP3    H241937   0.643   3.475   6.742
14018TIP3   OH241938   1.733   5.131   7.780
14018TIP3    H141939   1.730   5.142   7.685
14018TIP3    H241940   1.818   5.168   7.805
14019TIP3   OH241941   3.947   8.880   0.215
14019TIP3    H141942   4.034   8.898   0.250
14019TIP3    H241943   3.893   8.953   0.246
14020TIP3   OH241944   1.139   3.705   7.448
14020TIP3    H141945   1.203   3.652   7.400
14020TIP3    H241946   1.135   3.665   7.534
14021TIP3   OH241947   0.662   3.151   7.346
14021TIP3    H141948   0.628   3.078   7.397
14021TIP3    H241949   0.697   3.110   7.266
14022TIP3   OH241950   1.103   3.608   7.706
14022TIP3    H141951   1.017   3.639   7.733
14022TIP3    H241952   1.164   3.655   7.763
14023TIP3   OH241953   0.841   3.975   6.834
14023TIP3    H141954   0.775   3.909   6.812
14023TIP3    H241955   0.820   4.001   6.924
14024TIP3   OH241956   1.712   4.224   7.436
14024TIP3    H141957   1.747   4.260   7.355
14024TIP3    H241958   1.633   4.177   7.410
14025TIP3   OH241959   1.296   3.279   6.741
14025TIP3    H141960   1.203   3.256   6.738
14025TIP3    H241961   1.297   3.373   6.756
14026TIP3   OH241962   1.251   4.293   7.878
14026TIP3    H141963   1.304   4.276   7.956
14026TIP3    H241964   1.222   4.383   7.889
14027TIP3   OH241965   1.354   3.543   6.810
14027TIP3    H141966   1.449   3.546   6.820
14027TIP3    H241967   1.333   3.621   6.759
14028TIP3   OH241968   0.538   3.985   7.486
14028TIP3    H141969   0.565   3.950   7.401
14028TIP3    H241970   0.596   3.942   7.549
14029TIP3   OH241971   1.006   4.121   6.674
14029TIP3    H141972   0.967   4.209   6.670
14029TIP3    H241973   0.944   4.070   6.727
14030TIP3   OH241974   3.654   8.534   0.117
14030TIP3    H141975   3.725   8.493   0.166
14030TIP3    H241976   3.619   8.464   0.062
14031TIP3   OH241977   4.424   8.670   0.113
14031TIP3    H141978   4.363   8.604   0.081
14031TIP3    H241979   4.509   8.644   0.077
14032TIP3   OH241980   1.398   4.585   7.744
14032TIP3    H141981   1.306   4.564   7.760
14032TIP3    H241982   1.425   4.635   7.821
14033TIP3   OH241983   1.774   3.630   6.630
14033TIP3    H141984   1.720   3.583   6.567
14033TIP3    H241985   1.779   3.719   6.596
14034TIP3   OH241986   2.026   4.461   7.722
14034TIP3    H141987   1.932   4.473   7.709
14034TIP3    H241988   2.061   4.447   7.634
14035TIP3   OH241989   1.523   4.445   6.575
14035TIP3    H141990   1.489   4.386   6.643
14035TIP3    H241991   1.529   4.391   6.497
14036TIP3   OH241992   1.496   4.077   7.333
14036TIP3    H141993   1.409   4.057   7.367
14036TIP3    H241994   1.527   3.994   7.297
14037TIP3   OH241995   0.703   4.314   7.134
14037TIP3    H141996   0.752   4.395   7.126
14037TIP3    H241997   0.622   4.338   7.179
14038TIP3   OH241998   0.233   3.610   6.821
14038TIP3    H141999   0.280   3.693   6.828
14038TIP3    H242000   0.146   3.629   6.856
14039TIP3   OH242001   0.766   4.056   7.077
14039TIP3    H142002   0.750   4.146   7.104
14039TIP3    H242003   0.732   4.003   7.150
14040TIP3   OH242004   0.984   4.637   7.635
14040TIP3    H142005   1.020   4.714   7.591
14040TIP3    H242006   1.057   4.604   7.688
14041TIP3   OH242007   1.305   4.290   7.611
14041TIP3    H142008   1.277   4.288   7.702
14041TIP3    H242009   1.399   4.271   7.614
14042TIP3   OH242010   1.281   4.179   6.442
14042TIP3    H142011   1.331   4.147   6.517
14042TIP3    H242012   1.197   4.133   6.449
14043TIP3   OH242013   1.530   4.819   7.627
14043TIP3    H142014   1.460   4.754   7.625
14043TIP3    H242015   1.513   4.876   7.552
14044TIP3   OH242016   1.588   4.644   6.245
14044TIP3    H142017   1.589   4.700   6.167
14044TIP3    H242018   1.522   4.683   6.302
14045TIP3   OH242019   3.915   8.052   0.103
14045TIP3    H142020   3.820   8.039   0.105
14045TIP3    H242021   3.939   8.066   0.194
14046TIP3   OH242022   1.454   4.081   6.629
14046TIP3    H142023   1.438   4.032   6.710
14046TIP3    H242024   1.549   4.095   6.628
14047TIP3   OH242025   0.456   4.508   7.808
14047TIP3    H142026   0.423   4.439   7.750
14047TIP3    H242027   0.493   4.461   7.882
14048TIP3   OH242028   0.666   4.128   6.463
14048TIP3    H142029   0.670   4.036   6.437
14048TIP3    H242030   0.654   4.125   6.558
14049TIP3   OH242031   0.650   4.168   6.734
14049TIP3    H142032   0.725   4.137   6.786
14049TIP3    H242033   0.660   4.263   6.733
14050TIP3   OH242034   0.343   3.847   6.911
14050TIP3    H142035   0.272   3.875   6.969
14050TIP3    H242036   0.364   3.925   6.860
14051TIP3   OH242037   1.477   3.489   7.809
14051TIP3    H142038   1.552   3.538   7.844
14051TIP3    H242039   1.466   3.415   7.869
14052TIP3   OH242040   1.358   3.224   7.007
14052TIP3    H142041   1.336   3.244   6.916
14052TIP3    H242042   1.399   3.305   7.039
14053TIP3   OH242043   0.905   4.373   6.684
14053TIP3    H142044   0.813   4.398   6.695
14053TIP3    H242045   0.951   4.457   6.676
14054TIP3   OH242046   1.022   3.423   7.094
14054TIP3    H142047   1.080   3.496   7.071
14054TIP3    H242048   1.044   3.403   7.185
14055TIP3   OH242049   1.304   3.703   7.871
14055TIP3    H142050   1.329   3.735   7.957
14055TIP3    H242051   1.358   3.626   7.857
14056TIP3   OH242052   1.176   3.119   7.184
14056TIP3    H142053   1.155   3.196   7.237
14056TIP3    H242054   1.245   3.149   7.125
14057TIP3   OH242055   0.643   4.441   6.724
14057TIP3    H142056   0.624   4.523   6.678
14057TIP3    H242057   0.584   4.442   6.800
14058TIP3   OH242058   0.692   3.146   6.995
14058TIP3    H142059   0.681   3.235   7.029
14058TIP3    H242060   0.787   3.131   6.997
14059TIP3   OH242061   1.925   3.599   7.851
14059TIP3    H142062   1.837   3.632   7.865
14059TIP3    H242063   1.917   3.541   7.776
14060TIP3   OH242064   1.588   3.815   7.247
14060TIP3    H142065   1.508   3.764   7.263
14060TIP3    H242066   1.652   3.778   7.307
14061TIP3   OH242067   0.402   4.061   6.753
14061TIP3    H142068   0.477   4.119   6.761
14061TIP3    H242069   0.429   3.996   6.687
14062TIP3   OH242070   0.362   3.315   6.864
14062TIP3    H142071   0.277   3.356   6.879
14062TIP3    H242072   0.342   3.229   6.827
14063TIP3   OH242073   1.568   4.798   7.194
14063TIP3    H142074   1.522   4.849   7.128
14063TIP3    H242075   1.660   4.815   7.178
14064TIP3   OH242076   0.644   3.046   7.718
14064TIP3    H142077   0.621   3.012   7.631
14064TIP3    H242078   0.626   2.973   7.777
14065TIP3   OH242079   0.277   4.195   7.068
14065TIP3    H142080   0.213   4.249   7.115
14065TIP3    H242081   0.329   4.257   7.017
14066TIP3   OH242082   7.353   0.171   0.223
14066TIP3    H142083   7.448   0.163   0.238
14066TIP3    H242084   7.332   0.099   0.165
14067TIP3   OH242085   0.799   4.337   6.353
14067TIP3    H142086   0.752   4.265   6.396
14067TIP3    H242087   0.877   4.296   6.316
14068TIP3   OH242088   7.979   0.092  -0.021
14068TIP3    H142089   7.986   0.016   0.037
14068TIP3    H242090   8.057   0.145   0.000
14069TIP3   OH242091   1.233   4.391   6.278
14069TIP3    H142092   1.265   4.325   6.339
14069TIP3    H242093   1.292   4.385   6.203
14070TIP3   OH242094   3.666   8.911   0.320
14070TIP3    H142095   3.718   8.834   0.345
14070TIP3    H242096   3.629   8.889   0.234
14071TIP3   OH242097   0.497   3.864   6.593
14071TIP3    H142098   0.545   3.828   6.667
14071TIP3    H242099   0.558   3.858   6.519
14072TIP3   OH242100   4.353   8.935   0.148
14072TIP3    H142101   4.309   8.958   0.066
14072TIP3    H242102   4.389   8.847   0.132
14073TIP3   OH242103   1.032   4.054   6.409
14073TIP3    H142104   1.010   4.066   6.501
14073TIP3    H242105   1.006   3.964   6.390
14074TIP3   OH242106   1.555   4.356   7.756
14074TIP3    H142107   1.635   4.387   7.714
14074TIP3    H242108   1.495   4.431   7.753
14075TIP3   OH242109   3.867   8.438   0.264
14075TIP3    H142110   3.961   8.448   0.244
14075TIP3    H242111   3.865   8.396   0.350
14076TIP3   OH242112   0.663   3.771   6.794
14076TIP3    H142113   0.639   3.741   6.881
14076TIP3    H242114   0.696   3.693   6.750
14077TIP3   OH242115   0.960   3.870   8.013
14077TIP3    H142116   0.878   3.920   8.015
14077TIP3    H242117   1.001   3.896   7.931
14078TIP3   OH242118   0.762   3.575   6.626
14078TIP3    H142119   0.734   3.581   6.535
14078TIP3    H242120   0.856   3.588   6.624
14079TIP3   OH242121   4.695   8.864   0.094
14079TIP3    H142122   4.762   8.823   0.039
14079TIP3    H242123   4.696   8.812   0.174
14080TIP3   OH242124   1.556   3.881   6.308
14080TIP3    H142125   1.541   3.842   6.222
14080TIP3    H242126   1.533   3.973   6.297
14081TIP3   OH242127   4.301   8.227   0.094
14081TIP3    H142128   4.318   8.154   0.035
14081TIP3    H242129   4.271   8.298   0.037
14082TIP3   OH242130   1.070   3.410   7.903
14082TIP3    H142131   1.089   3.458   7.822
14082TIP3    H242132   0.977   3.389   7.897
14083TIP3   OH242133   1.086   3.970   7.797
14083TIP3    H142134   1.169   4.016   7.790
14083TIP3    H242135   1.023   4.025   7.750
14084TIP3   OH242136   4.920   8.551   0.167
14084TIP3    H142137   4.957   8.469   0.200
14084TIP3    H242138   4.990   8.615   0.178
14085TIP3   OH242139   1.676   4.191   7.935
14085TIP3    H142140   1.626   4.250   7.879
14085TIP3    H242141   1.766   4.200   7.905
14086TIP3   OH242142   4.135   8.396   0.253
14086TIP3    H142143   4.156   8.305   0.236
14086TIP3    H242144   4.183   8.445   0.186
14087TIP3   OH242145   1.178   3.172   7.989
14087TIP3    H142146   1.144   3.256   7.957
14087TIP3    H242147   1.104   3.112   7.985
14088TIP3   OH242148   4.520   8.370   0.178
14088TIP3    H142149   4.520   8.344   0.270
14088TIP3    H242150   4.447   8.320   0.140
14089TIP3   OH242151   4.787   8.235   0.076
14089TIP3    H142152   4.720   8.189   0.126
14089TIP3    H242153   4.869   8.208   0.116
14090TIP3   OH242154   5.037   8.175   0.173
14090TIP3    H142155   5.063   8.089   0.207
14090TIP3    H242156   5.043   8.234   0.248
14091TIP3   OH242157   3.988   8.157   0.361
14091TIP3    H142158   4.000   8.069   0.396
14091TIP3    H242159   3.964   8.210   0.436
14092TIP3   OH242160   4.531   7.827   0.238
14092TIP3    H142161   4.547   7.742   0.279
14092TIP3    H242162   4.498   7.806   0.151
14093TIP3   OH242163   4.625   8.087   0.247
14093TIP3    H142164   4.603   7.994   0.246
14093TIP3    H242165   4.551   8.129   0.292
14094TIP3   OH242166   0.604   4.672   6.586
14094TIP3    H142167   0.663   4.657   6.513
14094TIP3    H242168   0.518   4.681   6.546
14095TIP3   OH242169   9.795   4.022   6.839
14095TIP3    H142170   9.833   4.101   6.801
14095TIP3    H242171   9.703   4.025   6.812
14096TIP3   OH242172   1.834   4.861   7.178
14096TIP3    H142173   1.853   4.881   7.270
14096TIP3    H242174   1.896   4.915   7.128
14097TIP3   OH242175   1.854   4.881   7.454
14097TIP3    H142176   1.804   4.800   7.455
14097TIP3    H242177   1.921   4.869   7.521
14098TIP3   OH242178   5.165   9.197   0.030
14098TIP3    H142179   5.091   9.210   0.089
14098TIP3    H242180   5.212   9.281   0.031
14099TIP3   OH242181   1.734   4.093   6.641
14099TIP3    H142182   1.790   4.167   6.615
14099TIP3    H242183   1.774   4.060   6.722
14100TIP3   OH242184   1.837   3.963   6.869
14100TIP3    H142185   1.767   3.906   6.900
14100TIP3    H242186   1.853   4.024   6.941
14101TIP3   OH242187   1.893   4.365   7.271
14101TIP3    H142188   1.943   4.384   7.192
14101TIP3    H242189   1.835   4.441   7.282
14102TIP3   OH242190   1.702   4.651   7.468
14102TIP3    H142191   1.635   4.691   7.523
14102TIP3    H242192   1.654   4.612   7.395
14103TIP3   OH242193   1.763   3.867   6.490
14103TIP3    H142194   1.692   3.865   6.426
14103TIP3    H242195   1.748   3.947   6.541
14104TIP3   OH242196   1.629   3.515   6.428
14104TIP3    H142197   1.578   3.554   6.357
14104TIP3    H242198   1.619   3.421   6.415
14105TIP3   OH242199   1.646   3.799   6.977
14105TIP3    H142200   1.649   3.705   6.961
14105TIP3    H242201   1.628   3.808   7.070
14106TIP3   OH242202   0.295   3.891   7.807
14106TIP3    H142203   0.292   3.871   7.713
14106TIP3    H242204   0.388   3.899   7.826
14107TIP3   OH242205   1.937   4.226   7.848
14107TIP3    H142206   1.994   4.154   7.822
14107TIP3    H242207   1.968   4.301   7.797
14108TIP3   OH242208   2.096   4.004   7.809
14108TIP3    H142209   2.025   3.966   7.860
14108TIP3    H242210   2.173   3.951   7.832
14109TIP3   OH242211   1.583   3.243   6.394
14109TIP3    H142212   1.647   3.220   6.462
14109TIP3    H242213   1.500   3.209   6.425
14110TIP3   OH242214   1.647   3.533   6.866
14110TIP3    H142215   1.692   3.449   6.880
14110TIP3    H242216   1.691   3.570   6.789
14111TIP3   OH242217   1.789   3.690   7.407
14111TIP3    H142218   1.874   3.646   7.403
14111TIP3    H242219   1.797   3.749   7.482
14112TIP3   OH242220   1.852   3.860   7.618
14112TIP3    H142221   1.784   3.890   7.679
14112TIP3    H242222   1.890   3.941   7.584
14113TIP3   OH242223   3.708   8.184   0.424
14113TIP3    H142224   3.766   8.190   0.348
14113TIP3    H242225   3.762   8.148   0.494
14114TIP3   OH242226   5.617   8.092   0.116
14114TIP3    H142227   5.678   8.027   0.080
14114TIP3    H242228   5.577   8.132   0.039
14115TIP3   OH242229   1.763   3.286   6.920
14115TIP3    H142230   1.809   3.272   7.004
14115TIP3    H242231   1.701   3.213   6.915
14116TIP3   OH242232   0.469   3.260   7.718
14116TIP3    H142233   0.527   3.184   7.727
14116TIP3    H242234   0.528   3.335   7.716
14117TIP3   OH242235   0.272   3.606   7.853
14117TIP3    H142236   0.326   3.577   7.780
14117TIP3    H242237   0.263   3.701   7.840
14118TIP3   OH242238   2.185   3.564   7.922
14118TIP3    H142239   2.096   3.599   7.919
14118TIP3    H242240   2.179   3.480   7.878
14119TIP3   OH242241   1.805   3.202   6.559
14119TIP3    H142242   1.852   3.140   6.502
14119TIP3    H242243   1.862   3.278   6.564
14120TIP3   OH242244   0.329   3.017   7.364
14120TIP3    H142245   0.291   2.947   7.417
14120TIP3    H242246   0.255   3.053   7.315
14121TIP3   OH242247   1.419   4.753   6.836
14121TIP3    H142248   1.470   4.749   6.755
14121TIP3    H242249   1.453   4.830   6.882
14122TIP3   OH242250   3.687   7.769   0.132
14122TIP3    H142251   3.697   7.809   0.218
14122TIP3    H242252   3.670   7.842   0.073
14123TIP3   OH242253   3.789   9.202   0.215
14123TIP3    H142254   3.694   9.193   0.209
14123TIP3    H242255   3.802   9.273   0.277
14124TIP3   OH242256   0.749   4.593   7.778
14124TIP3    H142257   0.683   4.649   7.739
14124TIP3    H242258   0.829   4.612   7.729
14125TIP3   OH242259   1.114   4.833   7.892
14125TIP3    H142260   1.147   4.832   7.982
14125TIP3    H242261   1.180   4.882   7.843
14126TIP3   OH242262   1.314   4.982   7.773
14126TIP3    H142263   1.380   4.926   7.733
14126TIP3    H242264   1.363   5.044   7.826
14127TIP3   OH242265   2.111   3.309   7.838
14127TIP3    H142266   2.020   3.294   7.812
14127TIP3    H242267   2.153   3.224   7.827
14128TIP3   OH242268   0.581   4.764   7.646
14128TIP3    H142269   0.493   4.732   7.628
14128TIP3    H242270   0.629   4.752   7.564
14129TIP3   OH242271   1.046   4.857   7.481
14129TIP3    H142272   0.981   4.866   7.412
14129TIP3    H242273   1.060   4.946   7.513
14130TIP3   OH242274   1.300   4.761   7.474
14130TIP3    H142275   1.207   4.784   7.474
14130TIP3    H242276   1.340   4.827   7.416
14131TIP3   OH242277   1.501   4.974   7.397
14131TIP3    H142278   1.483   5.056   7.352
14131TIP3    H242279   1.526   4.913   7.327
14132TIP3   OH242280   0.300   4.586   7.541
14132TIP3    H142281   0.277   4.560   7.631
14132TIP3    H242282   0.391   4.558   7.531
14133TIP3   OH242283   0.545   4.513   7.466
14133TIP3    H142284   0.565   4.420   7.482
14133TIP3    H242285   0.630   4.557   7.471
14134TIP3   OH242286   0.774   4.648   7.468
14134TIP3    H142287   0.799   4.629   7.378
14134TIP3    H242288   0.854   4.633   7.519
14135TIP3   OH242289   1.312   3.238   7.490
14135TIP3    H142290   1.265   3.168   7.536
14135TIP3    H242291   1.380   3.193   7.441
14136TIP3   OH242292   1.810   3.156   7.378
14136TIP3    H142293   1.843   3.209   7.305
14136TIP3    H242294   1.717   3.176   7.382
14137TIP3   OH242295   1.922   3.241   7.142
14137TIP3    H142296   1.992   3.178   7.122
14137TIP3    H242297   1.962   3.327   7.126
14138TIP3   OH242298   0.574   2.930   7.482
14138TIP3    H142299   0.481   2.918   7.463
14138TIP3    H242300   0.611   2.842   7.480
14139TIP3   OH242301   0.365   2.844   7.143
14139TIP3    H142302   0.402   2.882   7.063
14139TIP3    H242303   0.379   2.912   7.210
14140TIP3   OH242304   1.019   2.988   7.375
14140TIP3    H142305   1.070   3.030   7.306
14140TIP3    H242306   1.060   3.016   7.457
14141TIP3   OH242307   1.524   3.115   7.362
14141TIP3    H142308   1.541   3.077   7.276
14141TIP3    H242309   1.530   3.041   7.423
14142TIP3   OH242310   1.579   3.075   6.929
14142TIP3    H142311   1.499   3.122   6.953
14142TIP3    H242312   1.568   2.988   6.967
14143TIP3   OH242313   0.496   2.966   6.919
14143TIP3    H142314   0.543   2.906   6.861
14143TIP3    H242315   0.564   3.025   6.952
14144TIP3   OH242316   0.966   3.172   7.002
14144TIP3    H142317   1.025   3.119   7.057
14144TIP3    H242318   0.982   3.262   7.030
14145TIP3   OH242319   0.817   4.595   6.436
14145TIP3    H142320   0.910   4.611   6.420
14145TIP3    H242321   0.803   4.504   6.410
14146TIP3   OH242322   1.559   4.715   6.596
14146TIP3    H142323   1.549   4.620   6.593
14146TIP3    H242324   1.510   4.746   6.520
14147TIP3   OH242325   4.030   7.900   0.425
14147TIP3    H142326   3.980   7.831   0.381
14147TIP3    H242327   4.120   7.885   0.397
14148TIP3   OH242328   4.288   7.841   0.373
14148TIP3    H142329   4.368   7.856   0.323
14148TIP3    H242330   4.319   7.824   0.462
14149TIP3   OH242331   0.204   4.465   6.516
14149TIP3    H142332   0.219   4.500   6.604
14149TIP3    H242333   0.278   4.407   6.500
14150TIP3   OH242334   5.130   7.935   0.262
14150TIP3    H142335   5.148   7.920   0.354
14150TIP3    H242336   5.216   7.934   0.220
14151TIP3   OH242337   1.754   4.854   7.789
14151TIP3    H142338   1.678   4.826   7.738
14151TIP3    H242339   1.745   4.949   7.795
14152TIP3   OH242340   3.040   4.245   6.523
14152TIP3    H142341   3.009   4.331   6.496
14152TIP3    H242342   2.969   4.185   6.500
14153TIP3   OH242343   3.037   4.235   6.952
14153TIP3    H142344   3.091   4.217   7.029
14153TIP3    H242345   2.992   4.153   6.934
14154TIP3   OH242346   3.301   4.551   6.623
14154TIP3    H142347   3.289   4.482   6.688
14154TIP3    H242348   3.326   4.628   6.674
14155TIP3   OH242349   2.361   4.546   6.999
14155TIP3    H142350   2.371   4.523   7.091
14155TIP3    H242351   2.450   4.547   6.964
14156TIP3   OH242352   2.015   3.754   6.794
14156TIP3    H142353   1.963   3.832   6.815
14156TIP3    H242354   1.954   3.695   6.751
14157TIP3   OH242355   2.964   4.972   6.635
14157TIP3    H142356   2.993   4.904   6.574
14157TIP3    H242357   2.965   4.929   6.720
14158TIP3   OH242358   2.847   4.457   6.957
14158TIP3    H142359   2.891   4.376   6.934
14158TIP3    H242360   2.916   4.515   6.988
14159TIP3   OH242361   3.876   3.766   6.964
14159TIP3    H142362   3.890   3.850   7.008
14159TIP3    H242363   3.907   3.780   6.875
14160TIP3   OH242364   3.251   3.942   6.987
14160TIP3    H142365   3.282   3.856   7.018
14160TIP3    H242366   3.214   3.924   6.901
14161TIP3   OH242367   2.613   3.610   6.952
14161TIP3    H142368   2.588   3.679   6.891
14161TIP3    H242369   2.553   3.538   6.933
14162TIP3   OH242370   3.301   3.701   6.584
14162TIP3    H142371   3.363   3.694   6.657
14162TIP3    H242372   3.353   3.736   6.512
14163TIP3   OH242373   2.657   4.021   6.877
14163TIP3    H142374   2.751   4.006   6.891
14163TIP3    H242375   2.623   3.936   6.851
14164TIP3   OH242376   3.914   3.979   7.140
14164TIP3    H142377   3.832   4.025   7.123
14164TIP3    H242378   3.905   3.949   7.231
14165TIP3   OH242379   2.574   3.563   7.385
14165TIP3    H142380   2.511   3.501   7.349
14165TIP3    H242381   2.535   3.592   7.468
14166TIP3   OH242382   2.938   4.462   6.380
14166TIP3    H142383   2.897   4.433   6.299
14166TIP3    H242384   2.886   4.538   6.407
14167TIP3   OH242385   2.679   4.381   7.169
14167TIP3    H142386   2.624   4.450   7.207
14167TIP3    H242387   2.727   4.425   7.099
14168TIP3   OH242388   3.458   3.724   6.806
14168TIP3    H142389   3.416   3.702   6.889
14168TIP3    H242390   3.514   3.799   6.827
14169TIP3   OH242391   2.462   3.751   7.141
14169TIP3    H142392   2.518   3.796   7.203
14169TIP3    H242393   2.521   3.694   7.092
14170TIP3   OH242394   2.504   4.575   7.270
14170TIP3    H142395   2.499   4.664   7.235
14170TIP3    H242396   2.430   4.568   7.330
14171TIP3   OH242397   1.902   4.290   6.529
14171TIP3    H142398   1.861   4.308   6.445
14171TIP3    H242399   1.923   4.376   6.565
14172TIP3   OH242400   3.348   4.802   6.764
14172TIP3    H142401   3.260   4.794   6.801
14172TIP3    H242402   3.348   4.887   6.720
14173TIP3   OH242403   3.673   3.669   7.138
14173TIP3    H142404   3.589   3.690   7.099
14173TIP3    H242405   3.738   3.691   7.071
14174TIP3   OH242406   2.942   3.301   7.124
14174TIP3    H142407   2.944   3.207   7.142
14174TIP3    H242408   2.876   3.336   7.184
14175TIP3   OH242409   3.054   4.823   6.416
14175TIP3    H142410   3.104   4.742   6.406
14175TIP3    H242411   3.114   4.892   6.390
14176TIP3   OH242412   3.192   4.592   6.371
14176TIP3    H142413   3.121   4.528   6.369
14176TIP3    H242414   3.241   4.572   6.451
14177TIP3   OH242415   3.581   4.667   7.106
14177TIP3    H142416   3.556   4.599   7.043
14177TIP3    H242417   3.572   4.749   7.058
14178TIP3   OH242418   2.868   4.081   6.373
14178TIP3    H142419   2.786   4.128   6.354
14178TIP3    H242420   2.915   4.081   6.290
14179TIP3   OH242421   2.842   3.899   6.050
14179TIP3    H142422   2.907   3.947   6.100
14179TIP3    H242423   2.890   3.826   6.011
14180TIP3   OH242424   3.744   4.332   6.968
14180TIP3    H142425   3.660   4.379   6.963
14180TIP3    H242426   3.784   4.346   6.882
14181TIP3   OH242427   3.228   4.163   6.343
14181TIP3    H142428   3.174   4.194   6.416
14181TIP3    H242429   3.311   4.139   6.383
14182TIP3   OH242430   3.456   4.202   7.280
14182TIP3    H142431   3.450   4.283   7.330
14182TIP3    H242432   3.373   4.197   7.233
14183TIP3   OH242433   2.433   4.133   6.751
14183TIP3    H142434   2.411   4.073   6.680
14183TIP3    H242435   2.516   4.099   6.786
14184TIP3   OH242436   2.606   4.578   6.870
14184TIP3    H142437   2.587   4.554   6.779
14184TIP3    H242438   2.690   4.537   6.889
14185TIP3   OH242439   2.566   4.134   7.118
14185TIP3    H142440   2.611   4.110   7.037
14185TIP3    H242441   2.601   4.220   7.140
14186TIP3   OH242442   3.108   4.784   6.892
14186TIP3    H142443   3.093   4.865   6.941
14186TIP3    H242444   3.092   4.714   6.955
14187TIP3   OH242445   2.688   4.691   7.459
14187TIP3    H142446   2.631   4.739   7.519
14187TIP3    H242447   2.628   4.642   7.402
14188TIP3   OH242448   3.060   4.041   6.163
14188TIP3    H142449   3.119   4.088   6.222
14188TIP3    H242450   3.081   4.076   6.077
14189TIP3   OH242451   2.490   4.238   7.567
14189TIP3    H142452   2.492   4.329   7.597
14189TIP3    H242453   2.397   4.217   7.562
14190TIP3   OH242454   2.804   4.703   6.414
14190TIP3    H142455   2.885   4.752   6.426
14190TIP3    H242456   2.744   4.765   6.372
14191TIP3   OH242457   3.562   3.257   6.226
14191TIP3    H142458   3.487   3.276   6.282
14191TIP3    H242459   3.569   3.334   6.168
14192TIP3   OH242460   2.326   3.984   6.531
14192TIP3    H142461   2.247   4.034   6.510
14192TIP3    H242462   2.296   3.893   6.535
14193TIP3   OH242463   2.111   4.387   7.471
14193TIP3    H142464   2.040   4.361   7.413
14193TIP3    H242465   2.142   4.305   7.509
14194TIP3   OH242466   1.951   4.612   7.131
14194TIP3    H142467   2.034   4.641   7.170
14194TIP3    H242468   1.890   4.684   7.149
14195TIP3   OH242469   3.818   5.074   7.184
14195TIP3    H142470   3.827   4.979   7.183
14195TIP3    H242471   3.736   5.090   7.230
14196TIP3   OH242472   2.894   4.808   7.310
14196TIP3    H142473   2.898   4.901   7.334
14196TIP3    H242474   2.821   4.774   7.362
14197TIP3   OH242475   2.687   4.920   6.249
14197TIP3    H142476   2.642   4.904   6.166
14197TIP3    H242477   2.650   5.002   6.280
14198TIP3   OH242478   2.129   4.778   6.632
14198TIP3    H142479   2.173   4.771   6.716
14198TIP3    H242480   2.078   4.697   6.625
14199TIP3   OH242481   2.892   4.859   5.891
14199TIP3    H142482   2.942   4.787   5.852
14199TIP3    H242483   2.933   4.872   5.977
14200TIP3   OH242484   2.948   4.910   6.160
14200TIP3    H142485   2.859   4.907   6.196
14200TIP3    H242486   3.003   4.871   6.229
14201TIP3   OH242487   3.713   4.178   7.438
14201TIP3    H142488   3.636   4.174   7.381
14201TIP3    H242489   3.733   4.087   7.457
14202TIP3   OH242490   2.283   4.603   7.432
14202TIP3    H142491   2.315   4.634   7.517
14202TIP3    H242492   2.227   4.529   7.453
14203TIP3   OH242493   2.760   3.358   7.329
14203TIP3    H142494   2.706   3.282   7.347
14203TIP3    H242495   2.702   3.433   7.342
14204TIP3   OH242496   3.235   3.517   7.459
14204TIP3    H142497   3.303   3.488   7.519
14204TIP3    H242498   3.153   3.503   7.506
14205TIP3   OH242499   3.463   3.941   7.382
14205TIP3    H142500   3.416   3.933   7.465
14205TIP3    H242501   3.443   4.030   7.351
14206TIP3   OH242502   3.112   4.141   5.914
14206TIP3    H142503   3.089   4.094   5.834
14206TIP3    H242504   3.110   4.234   5.889
14207TIP3   OH242505   2.840   3.433   6.230
14207TIP3    H142506   2.806   3.438   6.319
14207TIP3    H242507   2.804   3.351   6.195
14208TIP3   OH242508   2.628   3.921   7.286
14208TIP3    H142509   2.575   3.919   7.366
14208TIP3    H242510   2.606   4.004   7.245
14209TIP3   OH242511   2.506   3.802   6.787
14209TIP3    H142512   2.414   3.795   6.813
14209TIP3    H242513   2.510   3.764   6.699
14210TIP3   OH242514   2.985   3.874   6.513
14210TIP3    H142515   2.939   3.948   6.473
14210TIP3    H242516   3.044   3.843   6.445
14211TIP3   OH242517   3.171   4.141   7.592
14211TIP3    H142518   3.140   4.073   7.651
14211TIP3    H242519   3.264   4.153   7.615
14212TIP3   OH242520   3.157   3.889   6.735
14212TIP3    H142521   3.087   3.908   6.674
14212TIP3    H242522   3.204   3.815   6.697
14213TIP3   OH242523   2.453   3.887   7.497
14213TIP3    H142524   2.436   3.955   7.563
14213TIP3    H242525   2.443   3.804   7.544
14214TIP3   OH242526   2.508   3.411   6.201
14214TIP3    H142527   2.499   3.412   6.297
14214TIP3    H242528   2.428   3.454   6.170
14215TIP3   OH242529   2.059   3.458   7.054
14215TIP3    H142530   2.133   3.496   7.101
14215TIP3    H242531   2.097   3.421   6.975
14216TIP3   OH242532   1.962   3.433   6.574
14216TIP3    H142533   2.005   3.467   6.495
14216TIP3    H242534   1.900   3.501   6.599
14217TIP3   OH242535   3.205   4.144   7.162
14217TIP3    H142536   3.228   4.077   7.098
14217TIP3    H242537   3.162   4.097   7.233
14218TIP3   OH242538   2.875   3.595   6.840
14218TIP3    H142539   2.797   3.595   6.896
14218TIP3    H242540   2.948   3.582   6.901
14219TIP3   OH242541   2.260   3.720   6.917
14219TIP3    H142542   2.176   3.727   6.872
14219TIP3    H242543   2.289   3.630   6.901
14220TIP3   OH242544   2.516   3.676   6.544
14220TIP3    H142545   2.611   3.686   6.537
14220TIP3    H242546   2.483   3.694   6.456
14221TIP3   OH242547   3.319   3.678   7.045
14221TIP3    H142548   3.304   3.695   7.138
14221TIP3    H242549   3.250   3.616   7.021
14222TIP3   OH242550   2.408   3.705   6.293
14222TIP3    H142551   2.348   3.654   6.240
14222TIP3    H242552   2.466   3.748   6.230
14223TIP3   OH242553   3.521   5.388   7.266
14223TIP3    H142554   3.522   5.400   7.171
14223TIP3    H242555   3.601   5.432   7.297
14224TIP3   OH242556   2.473   4.483   7.693
14224TIP3    H142557   2.554   4.502   7.740
14224TIP3    H242558   2.404   4.521   7.747
14225TIP3   OH242559   2.924   3.968   6.944
14225TIP3    H142560   2.990   3.913   6.902
14225TIP3    H242561   2.917   3.933   7.033
14226TIP3   OH242562   2.396   3.450   6.868
14226TIP3    H142563   2.377   3.372   6.920
14226TIP3    H242564   2.415   3.417   6.780
14227TIP3   OH242565   2.893   3.880   7.208
14227TIP3    H142566   2.807   3.908   7.238
14227TIP3    H242567   2.955   3.928   7.263
14228TIP3   OH242568   2.633   4.227   6.317
14228TIP3    H142569   2.562   4.167   6.293
14228TIP3    H242570   2.607   4.262   6.402
14229TIP3   OH242571   3.513   4.477   6.919
14229TIP3    H142572   3.549   4.526   6.845
14229TIP3    H242573   3.434   4.435   6.885
14230TIP3   OH242574   3.092   3.538   6.229
14230TIP3    H142575   2.999   3.516   6.229
14230TIP3    H242576   3.094   3.633   6.244
14231TIP3   OH242577   3.036   4.565   7.340
14231TIP3    H142578   3.072   4.553   7.428
14231TIP3    H242579   2.984   4.645   7.346
14232TIP3   OH242580   3.150   3.804   6.296
14232TIP3    H142581   3.245   3.805   6.310
14232TIP3    H242582   3.134   3.881   6.241
14233TIP3   OH242583   2.344   4.016   7.008
14233TIP3    H142584   2.340   4.065   6.926
14233TIP3    H242585   2.410   4.062   7.060
14234TIP3   OH242586   2.788   4.378   6.146
14234TIP3    H142587   2.740   4.461   6.144
14234TIP3    H242588   2.737   4.322   6.203
14235TIP3   OH242589   2.220   4.180   7.626
14235TIP3    H142590   2.260   4.198   7.711
14235TIP3    H242591   2.157   4.110   7.645
14236TIP3   OH242592   2.942   4.305   7.623
14236TIP3    H142593   2.871   4.244   7.602
14236TIP3    H242594   3.022   4.259   7.597
14237TIP3   OH242595   3.175   4.845   7.231
14237TIP3    H142596   3.082   4.826   7.236
14237TIP3    H242597   3.197   4.881   7.317
14238TIP3   OH242598   3.569   3.888   6.121
14238TIP3    H142599   3.511   3.846   6.057
14238TIP3    H242600   3.577   3.978   6.091
14239TIP3   OH242601   3.821   4.805   7.183
14239TIP3    H142602   3.735   4.765   7.193
14239TIP3    H242603   3.863   4.755   7.113
14240TIP3   OH242604   3.274   4.696   6.071
14240TIP3    H142605   3.267   4.643   6.150
14240TIP3    H242606   3.231   4.645   6.003
14241TIP3   OH242607   3.286   4.340   6.819
14241TIP3    H142608   3.198   4.319   6.848
14241TIP3    H242609   3.321   4.258   6.783
14242TIP3   OH242610   2.444   4.571   6.631
14242TIP3    H142611   2.435   4.645   6.572
14242TIP3    H242612   2.368   4.575   6.688
14243TIP3   OH242613   2.005   3.858   6.358
14243TIP3    H142614   2.045   3.942   6.380
14243TIP3    H242615   1.922   3.858   6.407
14244TIP3   OH242616   2.520   4.318   6.549
14244TIP3    H142617   2.502   4.408   6.574
14244TIP3    H242618   2.490   4.265   6.623
14245TIP3   OH242619   2.737   4.897   7.084
14245TIP3    H142620   2.779   4.973   7.042
14245TIP3    H242621   2.802   4.866   7.147
14246TIP3   OH242622   2.357   4.795   6.478
14246TIP3    H142623   2.272   4.799   6.522
14246TIP3    H242624   2.395   4.883   6.491
14247TIP3   OH242625   3.079   4.565   7.069
14247TIP3    H142626   3.064   4.564   7.163
14247TIP3    H242627   3.153   4.506   7.056
14248TIP3   OH242628   3.027   4.433   5.998
14248TIP3    H142629   3.103   4.406   6.049
14248TIP3    H242630   2.952   4.410   6.052
14249TIP3   OH242631   3.336   5.047   7.115
14249TIP3    H142632   3.268   4.984   7.138
14249TIP3    H242633   3.297   5.100   7.045
14250TIP3   OH242634   2.443   3.627   7.623
14250TIP3    H142635   2.366   3.571   7.620
14250TIP3    H242636   2.492   3.597   7.700
14251TIP3   OH242637   3.247   4.355   6.141
14251TIP3    H142638   3.237   4.295   6.215
14251TIP3    H242639   3.342   4.366   6.132
14252TIP3   OH242640   2.151   4.781   7.255
14252TIP3    H142641   2.201   4.722   7.312
14252TIP3    H242642   2.165   4.868   7.293
14253TIP3   OH242643   2.417   4.415   5.941
14253TIP3    H142644   2.489   4.355   5.922
14253TIP3    H242645   2.405   4.409   6.036
14254TIP3   OH242646   2.370   4.416   6.216
14254TIP3    H142647   2.434   4.383   6.279
14254TIP3    H242648   2.373   4.511   6.227
14255TIP3   OH242649   2.096   4.112   6.436
14255TIP3    H142650   2.033   4.160   6.488
14255TIP3    H242651   2.117   4.170   6.363
14256TIP3   OH242652   3.274   3.744   7.308
14256TIP3    H142653   3.349   3.789   7.345
14256TIP3    H242654   3.261   3.668   7.364
14257TIP3   OH242655   3.155   3.483   6.497
14257TIP3    H142656   3.134   3.503   6.405
14257TIP3    H242657   3.198   3.562   6.529
14258TIP3   OH242658   2.636   4.601   6.142
14258TIP3    H142659   2.554   4.626   6.184
14258TIP3    H242660   2.662   4.679   6.092
14259TIP3   OH242661   2.796   3.687   6.590
14259TIP3    H142662   2.859   3.754   6.563
14259TIP3    H242663   2.821   3.665   6.680
14260TIP3   OH242664   3.108   3.981   7.360
14260TIP3    H142665   3.127   4.022   7.445
14260TIP3    H242666   3.156   3.898   7.362
14261TIP3   OH242667   2.969   3.383   6.677
14261TIP3    H142668   2.948   3.460   6.730
14261TIP3    H242669   3.039   3.412   6.618
14262TIP3   OH242670   2.388   4.688   6.228
14262TIP3    H142671   2.360   4.755   6.165
14262TIP3    H242672   2.375   4.729   6.314
14263TIP3   OH242673   2.481   3.403   6.477
14263TIP3    H142674   2.468   3.492   6.510
14263TIP3    H242675   2.574   3.386   6.489
14264TIP3   OH242676   3.722   3.873   7.337
14264TIP3    H142677   3.631   3.895   7.359
14264TIP3    H242678   3.715   3.800   7.276
14265TIP3   OH242679   3.379   4.081   6.737
14265TIP3    H142680   3.303   4.025   6.749
14265TIP3    H242681   3.447   4.041   6.792
14266TIP3   OH242682   2.126   4.287   6.216
14266TIP3    H142683   2.201   4.344   6.229
14266TIP3    H242684   2.157   4.221   6.154
14267TIP3   OH242685   2.021   3.579   6.349
14267TIP3    H142686   2.035   3.674   6.357
14267TIP3    H242687   1.950   3.571   6.285
14268TIP3   OH242688   3.379   5.078   6.682
14268TIP3    H142689   3.327   5.123   6.615
14268TIP3    H242690   3.468   5.110   6.670
14269TIP3   OH242691   2.413   3.344   7.244
14269TIP3    H142692   2.397   3.298   7.162
14269TIP3    H242693   2.450   3.278   7.302
14270TIP3   OH242694   1.944   4.562   6.602
14270TIP3    H142695   1.901   4.600   6.678
14270TIP3    H242696   1.901   4.604   6.527
14271TIP3   OH242697   2.156   5.061   7.647
14271TIP3    H142698   2.242   5.023   7.661
14271TIP3    H242699   2.096   4.986   7.651
14272TIP3   OH242700   2.670   5.047   7.612
14272TIP3    H142701   2.738   4.992   7.649
14272TIP3    H242702   2.588   5.001   7.631
14273TIP3   OH242703   2.601   4.610   5.810
14273TIP3    H142704   2.571   4.530   5.854
14273TIP3    H242705   2.651   4.578   5.735
14274TIP3   OH242706   3.242   4.942   7.478
14274TIP3    H142707   3.253   4.872   7.542
14274TIP3    H242708   3.317   5.001   7.492
14275TIP3   OH242709   3.029   4.628   5.805
14275TIP3    H142710   3.028   4.561   5.873
14275TIP3    H242711   3.029   4.579   5.723
14276TIP3   OH242712   2.251   4.495   7.877
14276TIP3    H142713   2.282   4.405   7.878
14276TIP3    H242714   2.166   4.491   7.833
14277TIP3   OH242715   2.248   4.098   6.062
14277TIP3    H142716   2.304   4.077   6.137
14277TIP3    H242717   2.307   4.095   5.986
14278TIP3   OH242718   2.881   4.583   7.633
14278TIP3    H142719   2.818   4.599   7.563
14278TIP3    H242720   2.908   4.492   7.622
14279TIP3   OH242721   2.658   4.278   5.903
14279TIP3    H142722   2.709   4.319   5.973
14279TIP3    H242723   2.714   4.207   5.871
14280TIP3   OH242724   3.354   4.621   7.265
14280TIP3    H142725   3.426   4.652   7.210
14280TIP3    H242726   3.285   4.685   7.253
14281TIP3   OH242727   2.373   4.237   7.855
14281TIP3    H142728   2.453   4.243   7.803
14281TIP3    H242729   2.400   4.256   7.945
14282TIP3   OH242730   2.428   4.044   6.272
14282TIP3    H142731   2.404   4.016   6.360
14282TIP3    H242732   2.476   3.969   6.236
14283TIP3   OH242733   2.742   4.125   7.535
14283TIP3    H142734   2.654   4.162   7.543
14283TIP3    H242735   2.769   4.148   7.446
14284TIP3   OH242736   2.571   3.854   6.125
14284TIP3    H142737   2.540   3.840   6.035
14284TIP3    H242738   2.665   3.866   6.116
14285TIP3   OH242739   3.237   4.495   7.618
14285TIP3    H142740   3.302   4.453   7.561
14285TIP3    H242741   3.233   4.439   7.695
14286TIP3   OH242742   2.834   3.887   7.633
14286TIP3    H142743   2.828   3.818   7.567
14286TIP3    H242744   2.801   3.965   7.589
14287TIP3   OH242745   2.825   3.695   7.424
14287TIP3    H142746   2.854   3.735   7.342
14287TIP3    H242747   2.738   3.661   7.405
14288TIP3   OH242748   2.849   4.208   7.298
14288TIP3    H142749   2.937   4.245   7.290
14288TIP3    H242750   2.792   4.270   7.254
14289TIP3   OH242751   3.439   4.155   7.696
14289TIP3    H142752   3.466   4.065   7.713
14289TIP3    H242753   3.519   4.198   7.665
14290TIP3   OH242754   3.482   4.443   7.427
14290TIP3    H142755   3.426   4.505   7.380
14290TIP3    H242756   3.568   4.452   7.386
14291TIP3   OH242757   2.723   3.973   7.877
14291TIP3    H142758   2.651   3.916   7.902
14291TIP3    H242759   2.746   3.947   7.788
14292TIP3   OH242760   2.961   3.470   7.521
14292TIP3    H142761   2.922   3.554   7.499
14292TIP3    H242762   2.909   3.406   7.474
14293TIP3   OH242763   3.087   3.926   7.738
14293TIP3    H142764   3.075   3.913   7.832
14293TIP3    H242765   3.002   3.905   7.700
14294TIP3   OH242766   3.330   3.880   7.608
14294TIP3    H142767   3.251   3.879   7.662
14294TIP3    H242768   3.400   3.851   7.668
14295TIP3   OH242769   3.573   3.859   7.752
14295TIP3    H142770   3.586   3.764   7.760
14295TIP3    H242771   3.570   3.890   7.843
14296TIP3   OH242772   2.546   3.769   7.955
14296TIP3    H142773   2.551   3.682   7.915
14296TIP3    H242774   2.587   3.759   8.041
14297TIP3   OH242775   3.026   3.440   7.792
14297TIP3    H142776   3.094   3.373   7.787
14297TIP3    H242777   2.994   3.449   7.703
14298TIP3   OH242778   3.128   3.651   7.941
14298TIP3    H142779   3.097   3.579   7.886
14298TIP3    H242780   3.055   3.712   7.944
14299TIP3   OH242781   2.360   4.867   6.014
14299TIP3    H142782   2.454   4.860   5.998
14299TIP3    H242783   2.328   4.930   5.949
14300TIP3   OH242784   1.852   4.283   6.235
14300TIP3    H142785   1.947   4.291   6.236
14300TIP3    H242786   1.835   4.196   6.199
14301TIP3   OH242787   1.757   4.871   6.698
14301TIP3    H142788   1.692   4.818   6.653
14301TIP3    H242789   1.801   4.811   6.758
14302TIP3   OH242790   1.906   4.704   6.860
14302TIP3    H142791   1.898   4.635   6.927
14302TIP3    H242792   1.958   4.772   6.902
14303TIP3   OH242793   3.635   5.202   6.678
14303TIP3    H142794   3.662   5.168   6.763
14303TIP3    H242795   3.706   5.175   6.618
14304TIP3   OH242796   3.668   5.127   6.945
14304TIP3    H142797   3.622   5.043   6.948
14304TIP3    H242798   3.735   5.119   7.013
14305TIP3   OH242799   3.736   4.801   7.555
14305TIP3    H142800   3.656   4.819   7.604
14305TIP3    H242801   3.776   4.887   7.541
14306TIP3   OH242802   3.527   4.350   6.135
14306TIP3    H142803   3.582   4.421   6.104
14306TIP3    H242804   3.575   4.313   6.210
14307TIP3   OH242805   3.661   4.208   6.334
14307TIP3    H142806   3.594   4.170   6.393
14307TIP3    H242807   3.726   4.246   6.393
14308TIP3   OH242808   3.705   4.616   6.765
14308TIP3    H142809   3.758   4.543   6.732
14308TIP3    H242810   3.723   4.688   6.705
14309TIP3   OH242811   3.516   4.895   6.967
14309TIP3    H142812   3.450   4.941   7.018
14309TIP3    H242813   3.468   4.858   6.893
14310TIP3   OH242814   3.554   4.126   5.981
14310TIP3    H142815   3.471   4.120   5.933
14310TIP3    H242816   3.546   4.206   6.033
14311TIP3   OH242817   3.418   3.798   5.912
14311TIP3    H142818   3.421   3.827   5.821
14311TIP3    H242819   3.397   3.705   5.907
14312TIP3   OH242820   3.457   4.069   6.471
14312TIP3    H142821   3.461   3.974   6.459
14312TIP3    H242822   3.436   4.080   6.564
14313TIP3   OH242823   3.715   4.495   7.276
14313TIP3    H142824   3.791   4.468   7.224
14313TIP3    H242825   3.668   4.556   7.219
14314TIP3   OH242826   3.956   4.312   7.391
14314TIP3    H142827   3.869   4.271   7.396
14314TIP3    H242828   4.017   4.238   7.394
14315TIP3   OH242829   3.362   3.531   5.893
14315TIP3    H142830   3.434   3.497   5.946
14315TIP3    H242831   3.286   3.480   5.920
14316TIP3   OH242832   3.442   3.791   6.356
14316TIP3    H142833   3.487   3.708   6.368
14316TIP3    H242834   3.485   3.831   6.281
14317TIP3   OH242835   3.596   3.957   6.873
14317TIP3    H142836   3.677   3.975   6.826
14317TIP3    H242837   3.609   3.996   6.960
14318TIP3   OH242838   3.663   4.106   7.101
14318TIP3    H142839   3.591   4.133   7.158
14318TIP3    H242840   3.690   4.186   7.056
14319TIP3   OH242841   2.287   3.814   7.861
14319TIP3    H142842   2.379   3.814   7.889
14319TIP3    H242843   2.253   3.729   7.890
14320TIP3   OH242844   4.097   3.668   7.639
14320TIP3    H142845   4.178   3.627   7.610
14320TIP3    H242846   4.094   3.752   7.593
14321TIP3   OH242847   3.559   3.543   6.406
14321TIP3    H142848   3.605   3.530   6.489
14321TIP3    H242849   3.497   3.470   6.401
14322TIP3   OH242850   2.256   3.562   7.229
14322TIP3    H142851   2.298   3.476   7.243
14322TIP3    H242852   2.329   3.623   7.221
14323TIP3   OH242853   2.188   3.834   7.230
14323TIP3    H142854   2.155   3.746   7.250
14323TIP3    H242855   2.194   3.878   7.315
14324TIP3   OH242856   3.987   3.833   7.428
14324TIP3    H142857   3.901   3.866   7.456
14324TIP3    H242858   3.969   3.744   7.397
14325TIP3   OH242859   3.593   3.459   6.037
14325TIP3    H142860   3.641   3.397   5.983
14325TIP3    H242861   3.652   3.534   6.045
14326TIP3   OH242862   2.034   3.300   6.801
14326TIP3    H142863   1.948   3.286   6.841
14326TIP3    H242864   2.015   3.353   6.724
14327TIP3   OH242865   3.205   5.019   6.312
14327TIP3    H142866   3.260   5.004   6.235
14327TIP3    H242867   3.253   5.086   6.362
14328TIP3   OH242868   2.253   3.419   7.615
14328TIP3    H142869   2.200   3.393   7.690
14328TIP3    H242870   2.260   3.339   7.562
14329TIP3   OH242871   2.494   4.832   7.189
14329TIP3    H142872   2.447   4.915   7.185
14329TIP3    H242873   2.583   4.853   7.161
14330TIP3   OH242874   2.918   5.072   7.364
14330TIP3    H142875   2.937   5.078   7.458
14330TIP3    H242876   2.972   5.141   7.324
14331TIP3   OH242877   3.097   5.253   7.254
14331TIP3    H142878   3.161   5.193   7.219
14331TIP3    H242879   3.147   5.313   7.310
14332TIP3   OH242880   3.897   3.569   7.341
14332TIP3    H142881   3.810   3.554   7.304
14332TIP3    H242882   3.939   3.483   7.339
14333TIP3   OH242883   2.155   5.078   7.290
14333TIP3    H142884   2.068   5.113   7.274
14333TIP3    H242885   2.182   5.119   7.372
14334TIP3   OH242886   2.390   5.086   7.142
14334TIP3    H142887   2.308   5.084   7.191
14334TIP3    H242888   2.365   5.114   7.054
14335TIP3   OH242889   2.811   5.117   6.926
14335TIP3    H142890   2.732   5.127   6.873
14335TIP3    H242891   2.818   5.200   6.974
14336TIP3   OH242892   3.073   5.047   6.972
14336TIP3    H142893   2.982   5.069   6.955
14336TIP3    H242894   3.123   5.120   6.936
14337TIP3   OH242895   3.281   5.224   6.894
14337TIP3    H142896   3.267   5.309   6.852
14337TIP3    H242897   3.313   5.168   6.824
14338TIP3   OH242898   2.080   4.880   7.004
14338TIP3    H142899   2.100   4.852   7.094
14338TIP3    H242900   2.153   4.847   6.952
14339TIP3   OH242901   2.284   4.767   6.861
14339TIP3    H142902   2.297   4.688   6.913
14339TIP3    H242903   2.368   4.812   6.864
14340TIP3   OH242904   2.553   4.854   6.876
14340TIP3    H142905   2.572   4.761   6.860
14340TIP3    H242906   2.605   4.876   6.954
14341TIP3   OH242907   3.099   3.497   6.978
14341TIP3    H142908   3.056   3.428   7.028
14341TIP3    H242909   3.167   3.452   6.928
14342TIP3   OH242910   3.605   3.414   6.863
14342TIP3    H142911   3.640   3.465   6.790
14342TIP3    H242912   3.512   3.438   6.867
14343TIP3   OH242913   3.718   3.495   6.626
14343TIP3    H142914   3.787   3.433   6.603
14343TIP3    H242915   3.758   3.581   6.612
14344TIP3   OH242916   2.343   3.210   7.002
14344TIP3    H142917   2.257   3.172   7.014
14344TIP3    H242918   2.401   3.135   6.989
14345TIP3   OH242919   2.145   3.104   6.625
14345TIP3    H142920   2.178   3.154   6.551
14345TIP3    H242921   2.116   3.169   6.688
14346TIP3   OH242922   2.817   3.244   6.872
14346TIP3    H142923   2.870   3.291   6.807
14346TIP3    H242924   2.856   3.268   6.956
14347TIP3   OH242925   3.315   3.380   6.849
14347TIP3    H142926   3.332   3.341   6.763
14347TIP3    H242927   3.321   3.306   6.910
14348TIP3   OH242928   3.374   3.331   6.414
14348TIP3    H142929   3.295   3.378   6.441
14348TIP3    H242930   3.365   3.245   6.454
14349TIP3   OH242931   1.835   4.677   6.370
14349TIP3    H142932   1.748   4.649   6.342
14349TIP3    H242933   1.837   4.771   6.354
14350TIP3   OH242934   2.268   3.235   6.394
14350TIP3    H142935   2.313   3.171   6.339
14350TIP3    H242936   2.338   3.290   6.429
14351TIP3   OH242937   2.756   3.433   6.494
14351TIP3    H142938   2.815   3.381   6.550
14351TIP3    H242939   2.769   3.523   6.523
14352TIP3   OH242940   2.632   4.829   5.969
14352TIP3    H142941   2.719   4.859   5.943
14352TIP3    H242942   2.615   4.754   5.912
14353TIP3   OH242943   3.351   4.959   6.078
14353TIP3    H142944   3.328   4.866   6.076
14353TIP3    H242945   3.302   4.997   6.004
14354TIP3   OH242946   2.570   3.514   7.855
14354TIP3    H142947   2.535   3.430   7.885
14354TIP3    H242948   2.662   3.512   7.882
14355TIP3   OH242949   2.818   3.490   7.980
14355TIP3    H142950   2.892   3.466   7.924
14355TIP3    H242951   2.807   3.415   8.039
14356TIP3   OH242952   1.915   4.689   6.064
14356TIP3    H142953   1.898   4.699   6.157
14356TIP3    H242954   1.975   4.614   6.058
14357TIP3   OH242955   3.624   3.586   7.772
14357TIP3    H142956   3.644   3.555   7.860
14357TIP3    H242957   3.705   3.575   7.723
14358TIP3   OH242958   3.559   5.114   7.274
14358TIP3    H142959   3.484   5.081   7.225
14358TIP3    H242960   3.544   5.208   7.282
14359TIP3   OH242961   4.841   4.500   5.994
14359TIP3    H142962   4.803   4.586   5.971
14359TIP3    H242963   4.770   4.438   5.977
14360TIP3   OH242964   4.836   4.488   6.437
14360TIP3    H142965   4.888   4.473   6.515
14360TIP3    H242966   4.790   4.406   6.422
14361TIP3   OH242967   4.124   4.344   6.787
14361TIP3    H142968   4.163   4.292   6.857
14361TIP3    H242969   4.198   4.373   6.733
14362TIP3   OH242970   5.101   4.794   6.115
14362TIP3    H142971   5.091   4.729   6.184
14362TIP3    H242972   5.122   4.875   6.161
14363TIP3   OH242973   4.098   4.773   6.473
14363TIP3    H142974   4.088   4.678   6.470
14363TIP3    H242975   4.193   4.787   6.473
14364TIP3   OH242976   3.808   3.980   6.253
14364TIP3    H142977   3.771   4.065   6.278
14364TIP3    H242978   3.734   3.931   6.218
14365TIP3   OH242979   3.888   4.296   6.475
14365TIP3    H142980   3.939   4.219   6.501
14365TIP3    H242981   3.955   4.361   6.451
14366TIP3   OH242982   4.764   5.224   6.127
14366TIP3    H142983   4.789   5.157   6.063
14366TIP3    H242984   4.778   5.181   6.212
14367TIP3   OH242985   4.639   4.709   6.446
14367TIP3    H142986   4.686   4.631   6.417
14367TIP3    H242987   4.706   4.768   6.479
14368TIP3   OH242988   5.664   4.037   6.460
14368TIP3    H142989   5.686   4.117   6.508
14368TIP3    H242990   5.676   4.060   6.368
14369TIP3   OH242991   5.048   4.200   6.472
14369TIP3    H142992   5.077   4.114   6.502
14369TIP3    H242993   5.007   4.183   6.387
14370TIP3   OH242994   4.402   3.856   6.436
14370TIP3    H142995   4.380   3.929   6.378
14370TIP3    H242996   4.346   3.784   6.406
14371TIP3   OH242997   5.092   3.958   6.073
14371TIP3    H142998   5.155   3.953   6.145
14371TIP3    H242999   5.144   3.988   5.998
14372TIP3   OH243000   4.026   4.073   6.565
14372TIP3    H143001   4.109   4.054   6.610
14372TIP3    H243002   4.030   4.021   6.484
14373TIP3   OH243003   4.442   4.273   6.384
14373TIP3    H143004   4.536   4.259   6.390
14373TIP3    H243005   4.407   4.191   6.350
14374TIP3   OH243006   5.729   4.255   6.620
14374TIP3    H143007   5.639   4.288   6.620
14374TIP3    H243008   5.766   4.285   6.703
14375TIP3   OH243009   4.377   3.863   6.894
14375TIP3    H143010   4.326   3.897   6.821
14375TIP3    H243011   4.321   3.876   6.970
14376TIP3   OH243012   4.726   4.714   5.857
14376TIP3    H143013   4.694   4.684   5.772
14376TIP3    H243014   4.671   4.790   5.878
14377TIP3   OH243015   4.482   4.626   6.660
14377TIP3    H143016   4.424   4.696   6.689
14377TIP3    H243017   4.531   4.664   6.588
14378TIP3   OH243018   5.251   3.986   6.294
14378TIP3    H143019   5.209   3.962   6.376
14378TIP3    H243020   5.307   4.061   6.316
14379TIP3   OH243021   4.272   3.965   6.657
14379TIP3    H143022   4.327   4.040   6.680
14379TIP3    H243023   4.319   3.921   6.586
14380TIP3   OH243024   4.316   4.826   6.751
14380TIP3    H143025   4.308   4.919   6.728
14380TIP3    H243026   4.238   4.808   6.805
14381TIP3   OH243027   3.695   4.538   6.017
14381TIP3    H143028   3.664   4.542   5.926
14381TIP3    H243029   3.717   4.629   6.038
14382TIP3   OH243030   5.134   5.043   6.250
14382TIP3    H143031   5.047   5.036   6.289
14382TIP3    H243032   5.133   5.127   6.204
14383TIP3   OH243033   5.465   3.928   6.627
14383TIP3    H143034   5.381   3.949   6.586
14383TIP3    H243035   5.531   3.954   6.563
14384TIP3   OH243036   4.723   3.551   6.623
14384TIP3    H143037   4.718   3.460   6.649
14384TIP3    H243038   4.646   3.592   6.662
14385TIP3   OH243039   4.845   5.068   5.909
14385TIP3    H143040   4.898   4.989   5.899
14385TIP3    H243041   4.903   5.139   5.882
14386TIP3   OH243042   4.981   4.835   5.871
14386TIP3    H143043   4.906   4.775   5.870
14386TIP3    H243044   5.028   4.813   5.952
14387TIP3   OH243045   5.371   4.935   6.593
14387TIP3    H143046   5.354   4.860   6.537
14387TIP3    H243047   5.354   5.011   6.538
14388TIP3   OH243048   4.660   4.337   5.857
14388TIP3    H143049   4.581   4.387   5.836
14388TIP3    H243050   4.709   4.333   5.774
14389TIP3   OH243051   4.635   4.144   5.545
14389TIP3    H143052   4.701   4.192   5.595
14389TIP3    H243053   4.685   4.078   5.496
14390TIP3   OH243054   5.556   4.592   6.451
14390TIP3    H143055   5.473   4.639   6.453
14390TIP3    H243056   5.587   4.603   6.361
14391TIP3   OH243057   5.036   4.428   5.818
14391TIP3    H143058   4.977   4.457   5.887
14391TIP3    H243059   5.114   4.396   5.863
14392TIP3   OH243060   5.251   4.455   6.775
14392TIP3    H143061   5.247   4.538   6.821
14392TIP3    H243062   5.169   4.451   6.724
14393TIP3   OH243063   4.250   4.408   6.226
14393TIP3    H143064   4.215   4.348   6.161
14393TIP3    H243065   4.320   4.359   6.268
14394TIP3   OH243066   4.372   4.823   6.376
14394TIP3    H143067   4.350   4.809   6.284
14394TIP3    H243068   4.459   4.786   6.386
14395TIP3   OH243069   4.335   4.400   6.606
14395TIP3    H143070   4.375   4.364   6.526
14395TIP3    H243071   4.387   4.478   6.625
14396TIP3   OH243072   4.894   5.034   6.378
14396TIP3    H143073   4.879   5.116   6.424
14396TIP3    H243074   4.878   4.966   6.443
14397TIP3   OH243075   4.529   4.911   6.917
14397TIP3    H143076   4.468   4.966   6.965
14397TIP3    H243077   4.473   4.860   6.858
14398TIP3   OH243078   4.854   4.291   5.654
14398TIP3    H143079   4.916   4.345   5.703
14398TIP3    H243080   4.869   4.314   5.562
14399TIP3   OH243081   4.258   4.522   7.069
14399TIP3    H143082   4.257   4.611   7.102
14399TIP3    H243083   4.167   4.494   7.070
14400TIP3   OH243084   4.593   4.965   5.869
14400TIP3    H143085   4.679   4.997   5.896
14400TIP3    H243086   4.540   5.044   5.856
14401TIP3   OH243087   4.315   5.049   7.004
14401TIP3    H143088   4.279   5.086   6.923
14401TIP3    H243089   4.249   5.067   7.070
14402TIP3   OH243090   5.365   3.517   5.715
14402TIP3    H143091   5.288   3.535   5.769
14402TIP3    H243092   5.375   3.596   5.661
14403TIP3   OH243093   4.129   4.249   6.023
14403TIP3    H143094   4.049   4.295   5.997
14403TIP3    H243095   4.101   4.159   6.039
14404TIP3   OH243096   3.900   4.647   6.972
14404TIP3    H143097   3.831   4.628   6.909
14404TIP3    H243098   3.926   4.562   7.007
14405TIP3   OH243099   3.822   4.825   6.599
14405TIP3    H143100   3.905   4.800   6.557
14405TIP3    H243101   3.846   4.894   6.660
14406TIP3   OH243102   5.600   5.292   6.665
14406TIP3    H143103   5.605   5.198   6.680
14406TIP3    H243104   5.520   5.320   6.710
14407TIP3   OH243105   4.705   5.075   6.783
14407TIP3    H143106   4.699   5.165   6.817
14407TIP3    H243107   4.640   5.026   6.834
14408TIP3   OH243108   4.482   5.189   5.746
14408TIP3    H143109   4.443   5.171   5.661
14408TIP3    H243110   4.446   5.274   5.772
14409TIP3   OH243111   3.923   5.045   6.122
14409TIP3    H143112   3.967   5.035   6.206
14409TIP3    H243113   3.874   4.963   6.110
14410TIP3   OH243114   4.674   5.126   5.374
14410TIP3    H143115   4.723   5.056   5.331
14410TIP3    H243116   4.716   5.137   5.459
14411TIP3   OH243117   4.740   5.165   5.643
14411TIP3    H143118   4.654   5.166   5.686
14411TIP3    H243119   4.800   5.134   5.711
14412TIP3   OH243120   5.495   4.406   6.930
14412TIP3    H143121   5.411   4.415   6.885
14412TIP3    H243122   5.513   4.312   6.931
14413TIP3   OH243123   4.088   4.840   6.916
14413TIP3    H143124   4.143   4.839   6.995
14413TIP3    H243125   4.022   4.772   6.933
14414TIP3   OH243126   4.484   3.646   6.748
14414TIP3    H143127   4.401   3.611   6.717
14414TIP3    H243128   4.461   3.726   6.795
14415TIP3   OH243129   5.027   3.771   6.947
14415TIP3    H143130   5.097   3.746   7.007
14415TIP3    H243131   4.946   3.754   6.996
14416TIP3   OH243132   5.247   4.189   6.864
14416TIP3    H143133   5.208   4.183   6.951
14416TIP3    H243134   5.233   4.280   6.838
14417TIP3   OH243135   4.891   4.350   5.389
14417TIP3    H143136   4.901   4.314   5.301
14417TIP3    H243137   4.937   4.434   5.386
14418TIP3   OH243138   4.633   3.687   5.715
14418TIP3    H143139   4.598   3.694   5.804
14418TIP3    H243140   4.598   3.604   5.682
14419TIP3   OH243141   4.424   4.178   6.747
14419TIP3    H143142   4.378   4.182   6.832
14419TIP3    H243143   4.398   4.258   6.703
14420TIP3   OH243144   4.305   4.057   6.275
14420TIP3    H143145   4.216   4.032   6.301
14420TIP3    H243146   4.314   4.024   6.186
14421TIP3   OH243147   4.777   4.134   6.002
14421TIP3    H143148   4.729   4.206   5.960
14421TIP3    H243149   4.834   4.100   5.933
14422TIP3   OH243150   4.978   4.393   7.073
14422TIP3    H143151   4.949   4.326   7.135
14422TIP3    H243152   5.070   4.408   7.095
14423TIP3   OH243153   4.945   4.144   6.224
14423TIP3    H143154   4.876   4.164   6.160
14423TIP3    H243155   4.992   4.070   6.187
14424TIP3   OH243156   4.257   4.180   6.969
14424TIP3    H143157   4.318   4.232   7.021
14424TIP3    H243158   4.238   4.104   7.023
14425TIP3   OH243159   4.299   3.664   5.688
14425TIP3    H143160   4.292   3.669   5.783
14425TIP3    H243161   4.221   3.710   5.655
14426TIP3   OH243162   3.856   3.714   6.549
14426TIP3    H143163   3.925   3.749   6.606
14426TIP3    H243164   3.900   3.694   6.467
14427TIP3   OH243165   3.752   3.688   6.056
14427TIP3    H143166   3.798   3.725   5.980
14427TIP3    H243167   3.692   3.757   6.084
14428TIP3   OH243168   5.001   4.399   6.650
14428TIP3    H143169   5.025   4.333   6.585
14428TIP3    H243170   4.957   4.350   6.719
14429TIP3   OH243171   4.672   3.846   6.327
14429TIP3    H143172   4.594   3.845   6.383
14429TIP3    H243173   4.745   3.834   6.387
14430TIP3   OH243174   4.068   3.931   6.334
14430TIP3    H143175   3.980   3.935   6.297
14430TIP3    H243176   4.096   3.841   6.319
14431TIP3   OH243177   4.316   3.934   6.030
14431TIP3    H143178   4.411   3.943   6.021
14431TIP3    H243179   4.282   3.950   5.942
14432TIP3   OH243180   5.109   3.936   6.531
14432TIP3    H143181   5.093   3.952   6.624
14432TIP3    H243182   5.043   3.871   6.505
14433TIP3   OH243183   4.206   3.955   5.779
14433TIP3    H143184   4.143   3.908   5.725
14433TIP3    H243185   4.262   4.001   5.717
14434TIP3   OH243186   5.316   5.638   6.753
14434TIP3    H143187   5.310   5.654   6.659
14434TIP3    H243188   5.395   5.684   6.780
14435TIP3   OH243189   4.240   4.787   7.173
14435TIP3    H143190   4.319   4.785   7.227
14435TIP3    H243191   4.201   4.873   7.191
14436TIP3   OH243192   4.716   4.222   6.431
14436TIP3    H143193   4.780   4.172   6.382
14436TIP3    H243194   4.714   4.180   6.517
14437TIP3   OH243195   4.207   3.681   6.323
14437TIP3    H143196   4.180   3.606   6.376
14437TIP3    H243197   4.232   3.643   6.239
14438TIP3   OH243198   4.690   4.123   6.693
14438TIP3    H143199   4.603   4.152   6.719
14438TIP3    H243200   4.750   4.171   6.750
14439TIP3   OH243201   4.435   4.493   5.792
14439TIP3    H143202   4.363   4.433   5.774
14439TIP3    H243203   4.414   4.530   5.878
14440TIP3   OH243204   5.318   4.729   6.415
14440TIP3    H143205   5.354   4.778   6.341
14440TIP3    H243206   5.239   4.688   6.381
14441TIP3   OH243207   4.885   3.790   5.721
14441TIP3    H143208   4.793   3.766   5.716
14441TIP3    H243209   4.885   3.885   5.732
14442TIP3   OH243210   4.837   4.807   6.836
14442TIP3    H143211   4.887   4.798   6.917
14442TIP3    H243212   4.785   4.887   6.848
14443TIP3   OH243213   4.937   4.057   5.785
14443TIP3    H143214   5.032   4.056   5.794
14443TIP3    H243215   4.918   4.133   5.730
14444TIP3   OH243216   4.109   4.487   6.452
14444TIP3    H143217   4.150   4.470   6.368
14444TIP3    H243218   4.174   4.459   6.517
14445TIP3   OH243219   4.583   4.640   5.609
14445TIP3    H143220   4.534   4.722   5.611
14445TIP3    H243221   4.531   4.580   5.664
14446TIP3   OH243222   3.969   4.417   7.116
14446TIP3    H143223   3.991   4.373   7.198
14446TIP3    H243224   3.912   4.355   7.070
14447TIP3   OH243225   4.752   4.552   7.103
14447TIP3    H143226   4.698   4.527   7.028
14447TIP3    H243227   4.835   4.507   7.090
14448TIP3   OH243228   4.978   5.102   6.718
14448TIP3    H143229   4.884   5.086   6.721
14448TIP3    H243230   4.999   5.136   6.805
14449TIP3   OH243231   5.616   5.012   6.688
14449TIP3    H143232   5.521   4.998   6.678
14449TIP3    H243233   5.652   4.985   6.603
14450TIP3   OH243234   5.125   4.936   5.482
14450TIP3    H143235   5.047   4.893   5.517
14450TIP3    H243236   5.142   4.890   5.399
14451TIP3   OH243237   5.089   4.591   6.312
14451TIP3    H143238   5.001   4.570   6.342
14451TIP3    H243239   5.120   4.511   6.271
14452TIP3   OH243240   4.242   4.826   6.123
14452TIP3    H143241   4.237   4.904   6.068
14452TIP3    H243242   4.151   4.804   6.142
14453TIP3   OH243243   3.798   4.116   5.848
14453TIP3    H143244   3.840   4.199   5.871
14453TIP3    H243245   3.715   4.118   5.895
14454TIP3   OH243246   4.349   4.587   6.033
14454TIP3    H143247   4.322   4.674   6.060
14454TIP3    H243248   4.317   4.529   6.102
14455TIP3   OH243249   4.518   5.157   6.585
14455TIP3    H143250   4.554   5.236   6.544
14455TIP3    H243251   4.590   5.122   6.637
14456TIP3   OH243252   4.157   5.052   5.973
14456TIP3    H143253   4.070   5.058   6.014
14456TIP3    H243254   4.194   5.140   5.981
14457TIP3   OH243255   4.871   4.819   6.561
14457TIP3    H143256   4.856   4.816   6.656
14457TIP3    H243257   4.955   4.774   6.549
14458TIP3   OH243258   4.811   4.706   5.455
14458TIP3    H143259   4.884   4.662   5.499
14458TIP3    H243260   4.734   4.681   5.506
14459TIP3   OH243261   5.124   5.312   6.599
14459TIP3    H143262   5.058   5.246   6.620
14459TIP3    H243263   5.088   5.361   6.526
14460TIP3   OH243264   5.197   5.227   5.224
14460TIP3    H143265   5.255   5.303   5.223
14460TIP3    H243266   5.118   5.257   5.270
14461TIP3   OH243267   4.198   3.940   7.103
14461TIP3    H143268   4.105   3.955   7.113
14461TIP3    H243269   4.223   3.886   7.178
14462TIP3   OH243270   5.018   4.576   5.583
14462TIP3    H143271   5.022   4.538   5.670
14462TIP3    H243272   5.108   4.600   5.562
14463TIP3   OH243273   3.941   5.034   6.756
14463TIP3    H143274   3.995   4.972   6.804
14463TIP3    H243275   3.961   5.119   6.794
14464TIP3   OH243276   4.142   4.688   5.742
14464TIP3    H143277   4.228   4.657   5.770
14464TIP3    H243278   4.155   4.782   5.728
14465TIP3   OH243279   3.896   4.365   5.927
14465TIP3    H143280   3.831   4.413   5.978
14465TIP3    H243281   3.912   4.420   5.851
14466TIP3   OH243282   5.057   3.998   6.794
14466TIP3    H143283   5.134   4.044   6.827
14466TIP3    H243284   5.048   3.922   6.851
14467TIP3   OH243285   4.949   3.736   5.986
14467TIP3    H143286   4.927   3.755   5.895
14467TIP3    H243287   4.991   3.815   6.018
14468TIP3   OH243288   4.449   4.873   5.651
14468TIP3    H143289   4.358   4.895   5.673
14468TIP3    H243290   4.500   4.902   5.727
14469TIP3   OH243291   4.595   3.940   6.076
14469TIP3    H143292   4.656   4.009   6.050
14469TIP3    H243293   4.620   3.919   6.166
14470TIP3   OH243294   4.897   4.235   6.846
14470TIP3    H143295   4.923   4.277   6.928
14470TIP3    H243296   4.946   4.153   6.845
14471TIP3   OH243297   4.761   3.635   6.163
14471TIP3    H143298   4.740   3.712   6.214
14471TIP3    H243299   4.832   3.663   6.105
14472TIP3   OH243300   4.198   4.959   5.717
14472TIP3    H143301   4.167   5.027   5.657
14472TIP3    H243302   4.180   4.994   5.805
14473TIP3   OH243303   4.273   3.660   5.966
14473TIP3    H143304   4.260   3.750   5.997
14473TIP3    H243305   4.367   3.646   5.974
14474TIP3   OH243306   5.509   4.125   6.838
14474TIP3    H143307   5.416   4.140   6.851
14474TIP3    H243308   5.514   4.059   6.769
14475TIP3   OH243309   5.179   4.331   6.208
14475TIP3    H143310   5.101   4.279   6.226
14475TIP3    H243311   5.245   4.296   6.268
14476TIP3   OH243312   3.919   4.534   5.708
14476TIP3    H143313   3.985   4.601   5.726
14476TIP3    H243314   3.959   4.480   5.640
14477TIP3   OH243315   3.825   3.839   5.839
14477TIP3    H143316   3.835   3.933   5.853
14477TIP3    H243317   3.784   3.832   5.752
14478TIP3   OH243318   5.156   5.307   6.162
14478TIP3    H143319   5.116   5.360   6.093
14478TIP3    H243320   5.250   5.321   6.152
14479TIP3   OH243321   4.223   3.557   6.708
14479TIP3    H143322   4.194   3.523   6.624
14479TIP3    H243323   4.217   3.482   6.767
14480TIP3   OH243324   3.748   4.823   6.094
14480TIP3    H143325   3.704   4.850   6.175
14480TIP3    H243326   3.701   4.867   6.024
14481TIP3   OH243327   3.931   5.327   7.193
14481TIP3    H143328   4.007   5.314   7.250
14481TIP3    H243329   3.892   5.240   7.186
14482TIP3   OH243330   5.040   5.196   6.969
14482TIP3    H143331   5.052   5.128   7.036
14482TIP3    H243332   5.113   5.256   6.982
14483TIP3   OH243333   4.804   4.913   5.265
14483TIP3    H143334   4.812   4.836   5.322
14483TIP3    H243335   4.775   4.878   5.181
14484TIP3   OH243336   4.066   4.367   5.549
14484TIP3    H143337   4.124   4.350   5.623
14484TIP3    H243338   4.125   4.371   5.474
14485TIP3   OH243339   4.665   4.815   7.137
14485TIP3    H143340   4.623   4.837   7.054
14485TIP3    H243341   4.703   4.728   7.124
14486TIP3   OH243342   4.467   4.564   5.329
14486TIP3    H143343   4.507   4.604   5.406
14486TIP3    H243344   4.495   4.472   5.333
14487TIP3   OH243345   5.146   4.875   6.744
14487TIP3    H143346   5.224   4.906   6.697
14487TIP3    H243347   5.082   4.946   6.733
14488TIP3   OH243348   4.236   4.304   5.763
14488TIP3    H143349   4.208   4.277   5.850
14488TIP3    H243350   4.278   4.226   5.726
14489TIP3   OH243351   4.473   4.354   7.012
14489TIP3    H143352   4.408   4.419   7.038
14489TIP3    H243353   4.531   4.400   6.951
14490TIP3   OH243354   4.364   4.106   5.611
14490TIP3    H143355   4.332   4.102   5.521
14490TIP3    H243356   4.459   4.116   5.603
14491TIP3   OH243357   5.026   4.759   7.096
14491TIP3    H143358   5.096   4.721   7.043
14491TIP3    H243359   5.021   4.703   7.173
14492TIP3   OH243360   4.631   4.154   7.123
14492TIP3    H143361   4.635   4.080   7.062
14492TIP3    H243362   4.581   4.221   7.076
14493TIP3   OH243363   4.637   3.949   6.926
14493TIP3    H143364   4.664   3.981   6.839
14493TIP3    H243365   4.547   3.921   6.913
14494TIP3   OH243366   4.643   4.496   6.846
14494TIP3    H143367   4.731   4.509   6.810
14494TIP3    H243368   4.585   4.543   6.786
14495TIP3   OH243369   5.242   4.430   7.175
14495TIP3    H143370   5.283   4.344   7.186
14495TIP3    H243371   5.315   4.491   7.166
14496TIP3   OH243372   5.269   4.701   6.912
14496TIP3    H143373   5.216   4.761   6.861
14496TIP3    H243374   5.359   4.715   6.881
14497TIP3   OH243375   4.524   4.224   7.374
14497TIP3    H143376   4.456   4.159   7.389
14497TIP3    H243377   4.551   4.210   7.284
14498TIP3   OH243378   4.762   3.719   7.028
14498TIP3    H143379   4.720   3.798   6.996
14498TIP3    H243380   4.697   3.650   7.015
14499TIP3   OH243381   4.887   4.186   7.229
14499TIP3    H143382   4.877   4.171   7.323
14499TIP3    H243383   4.800   4.170   7.193
14500TIP3   OH243384   5.136   4.139   7.104
14500TIP3    H143385   5.057   4.137   7.158
14500TIP3    H243386   5.206   4.114   7.164
14501TIP3   OH243387   5.372   4.106   7.252
14501TIP3    H143388   5.387   4.012   7.258
14501TIP3    H243389   5.368   4.136   7.343
14502TIP3   OH243390   4.362   4.007   7.438
14502TIP3    H143391   4.359   3.921   7.397
14502TIP3    H243392   4.403   3.992   7.523
14503TIP3   OH243393   4.828   3.692   7.293
14503TIP3    H143394   4.896   3.625   7.288
14503TIP3    H243395   4.799   3.704   7.203
14504TIP3   OH243396   4.930   3.905   7.436
14504TIP3    H143397   4.898   3.833   7.382
14504TIP3    H243398   4.857   3.967   7.438
14505TIP3   OH243399   4.164   5.157   5.524
14505TIP3    H143400   4.257   5.138   5.507
14505TIP3    H243401   4.133   5.199   5.444
14506TIP3   OH243402   3.646   4.498   5.739
14506TIP3    H143403   3.737   4.523   5.720
14506TIP3    H243404   3.625   4.433   5.672
14507TIP3   OH243405   3.544   5.122   6.191
14507TIP3    H143406   3.489   5.065   6.138
14507TIP3    H243407   3.591   5.063   6.249
14508TIP3   OH243408   3.692   4.959   6.360
14508TIP3    H143409   3.693   4.885   6.422
14508TIP3    H243410   3.746   5.026   6.402
14509TIP3   OH243411   5.427   5.358   6.159
14509TIP3    H143412   5.447   5.388   6.248
14509TIP3    H243413   5.481   5.413   6.102
14510TIP3   OH243414   5.443   5.393   6.440
14510TIP3    H143415   5.396   5.309   6.436
14510TIP3    H243416   5.515   5.377   6.501
14511TIP3   OH243417   5.509   5.094   7.010
14511TIP3    H143418   5.438   5.104   7.073
14511TIP3    H243419   5.555   5.179   7.013
14512TIP3   OH243420   5.305   4.627   5.596
14512TIP3    H143421   5.335   4.685   5.527
14512TIP3    H243422   5.284   4.685   5.669
14513TIP3   OH243423   5.454   4.419   5.764
14513TIP3    H143424   5.389   4.392   5.829
14513TIP3    H243425   5.522   4.464   5.814
14514TIP3   OH243426   5.503   4.865   6.255
14514TIP3    H143427   5.552   4.798   6.208
14514TIP3    H243428   5.505   4.941   6.197
14515TIP3   OH243429   5.299   5.155   6.445
14515TIP3    H143430   5.232   5.200   6.497
14515TIP3    H243431   5.251   5.114   6.373
14516TIP3   OH243432   5.219   4.094   5.487
14516TIP3    H143433   5.202   4.135   5.402
14516TIP3    H243434   5.202   4.001   5.472
14517TIP3   OH243435   5.264   4.312   5.939
14517TIP3    H143436   5.253   4.218   5.927
14517TIP3    H243437   5.244   4.327   6.031
14518TIP3   OH243438   3.864   4.394   6.730
14518TIP3    H143439   3.856   4.360   6.640
14518TIP3    H243440   3.957   4.386   6.750
14519TIP3   OH243441   5.529   4.743   6.820
14519TIP3    H143442   5.595   4.676   6.803
14519TIP3    H243443   5.549   4.812   6.756
14520TIP3   OH243444   5.706   4.531   6.808
14520TIP3    H143445   5.632   4.489   6.851
14520TIP3    H243446   5.781   4.475   6.828
14521TIP3   OH243447   5.163   3.828   5.441
14521TIP3    H143448   5.238   3.781   5.477
14521TIP3    H243449   5.092   3.764   5.443
14522TIP3   OH243450   5.229   4.038   5.829
14522TIP3    H143451   5.276   3.957   5.848
14522TIP3    H243452   5.247   4.054   5.736
14523TIP3   OH243453   5.391   4.219   6.361
14523TIP3    H143454   5.474   4.234   6.315
14523TIP3    H243455   5.404   4.258   6.448
14524TIP3   OH243456   5.467   4.367   6.590
14524TIP3    H143457   5.397   4.395   6.649
14524TIP3    H243458   5.498   4.447   6.549
14525TIP3   OH243459   4.101   4.084   7.401
14525TIP3    H143460   4.195   4.073   7.414
14525TIP3    H243461   4.064   3.997   7.417
14526TIP3   OH243462   5.930   3.962   7.131
14526TIP3    H143463   5.996   3.905   7.091
14526TIP3    H243464   5.892   4.010   7.058
14527TIP3   OH243465   5.351   3.797   5.895
14527TIP3    H143466   5.398   3.787   5.978
14527TIP3    H243467   5.291   3.722   5.893
14528TIP3   OH243468   4.061   3.783   6.725
14528TIP3    H143469   4.114   3.703   6.731
14528TIP3    H243470   4.124   3.852   6.706
14529TIP3   OH243471   3.841   4.046   6.779
14529TIP3    H143472   3.891   4.037   6.697
14529TIP3    H243473   3.880   4.121   6.823
14530TIP3   OH243474   5.777   4.075   6.933
14530TIP3    H143475   5.695   4.113   6.963
14530TIP3    H243476   5.750   4.000   6.880
14531TIP3   OH243477   5.407   3.730   5.539
14531TIP3    H143478   5.448   3.670   5.477
14531TIP3    H243479   5.462   3.809   5.536
14532TIP3   OH243480   3.827   3.549   6.280
14532TIP3    H143481   3.744   3.541   6.325
14532TIP3    H243482   3.809   3.606   6.205
14533TIP3   OH243483   4.988   5.266   5.798
14533TIP3    H143484   5.043   5.254   5.720
14533TIP3    H243485   5.030   5.338   5.846
14534TIP3   OH243486   4.055   3.610   7.109
14534TIP3    H143487   4.005   3.605   7.191
14534TIP3    H243488   3.998   3.658   7.049
14535TIP3   OH243489   4.116   5.041   7.209
14535TIP3    H143490   4.020   5.046   7.203
14535TIP3    H243491   4.140   5.113   7.267
14536TIP3   OH243492   4.282   5.099   6.719
14536TIP3    H143493   4.220   5.157   6.675
14536TIP3    H243494   4.368   5.123   6.683
14537TIP3   OH243495   4.700   5.339   6.861
14537TIP3    H143496   4.726   5.338   6.953
14537TIP3    H243497   4.767   5.394   6.819
14538TIP3   OH243498   4.901   5.496   6.742
14538TIP3    H143499   4.971   5.442   6.705
14538TIP3    H243500   4.948   5.559   6.798
14539TIP3   OH243501   5.693   3.818   6.833
14539TIP3    H143502   5.604   3.798   6.806
14539TIP3    H243503   5.739   3.734   6.826
14540TIP3   OH243504   3.938   5.375   6.766
14540TIP3    H143505   3.856   5.425   6.759
14540TIP3    H243506   3.983   5.414   6.841
14541TIP3   OH243507   4.126   5.281   6.589
14541TIP3    H143508   4.063   5.321   6.649
14541TIP3    H243509   4.140   5.346   6.521
14542TIP3   OH243510   4.597   5.384   6.446
14542TIP3    H143511   4.528   5.402   6.383
14542TIP3    H243512   4.609   5.466   6.494
14543TIP3   OH243513   4.857   5.292   6.459
14543TIP3    H143514   4.766   5.324   6.455
14543TIP3    H243515   4.908   5.363   6.420
14544TIP3   OH243516   5.058   5.462   6.368
14544TIP3    H143517   5.066   5.551   6.333
14544TIP3    H243518   5.090   5.406   6.298
14545TIP3   OH243519   3.860   5.138   6.506
14545TIP3    H143520   3.893   5.115   6.593
14545TIP3    H243521   3.931   5.114   6.447
14546TIP3   OH243522   4.063   5.026   6.358
14546TIP3    H143523   4.073   4.940   6.400
14546TIP3    H243524   4.149   5.067   6.367
14547TIP3   OH243525   4.338   5.102   6.379
14547TIP3    H143526   4.353   5.008   6.369
14547TIP3    H243527   4.392   5.126   6.454
14548TIP3   OH243528   4.900   3.747   6.462
14548TIP3    H143529   4.861   3.677   6.515
14548TIP3    H243530   4.968   3.703   6.411
14549TIP3   OH243531   5.403   3.673   6.340
14549TIP3    H143532   5.438   3.729   6.271
14549TIP3    H243533   5.310   3.696   6.345
14550TIP3   OH243534   5.520   3.776   6.112
14550TIP3    H143535   5.587   3.711   6.093
14550TIP3    H243536   5.561   3.860   6.091
14551TIP3   OH243537   4.136   3.454   6.466
14551TIP3    H143538   4.047   3.419   6.478
14551TIP3    H243539   4.191   3.376   6.459
14552TIP3   OH243540   3.944   3.356   6.108
14552TIP3    H143541   3.974   3.408   6.033
14552TIP3    H243542   3.911   3.421   6.170
14553TIP3   OH243543   4.615   3.496   6.362
14553TIP3    H143544   4.665   3.542   6.295
14553TIP3    H243545   4.657   3.521   6.445
14554TIP3   OH243546   5.115   3.623   6.335
14554TIP3    H143547   5.139   3.583   6.252
14554TIP3    H243548   5.123   3.552   6.400
14555TIP3   OH243549   5.169   3.584   5.900
14555TIP3    H143550   5.090   3.631   5.926
14555TIP3    H243551   5.161   3.498   5.941
14556TIP3   OH243552   3.603   4.958   5.902
14556TIP3    H143553   3.513   4.926   5.908
14556TIP3    H243554   3.598   5.033   5.844
14557TIP3   OH243555   4.060   3.494   5.875
14557TIP3    H143556   4.107   3.432   5.818
14557TIP3    H243557   4.129   3.549   5.912
14558TIP3   OH243558   4.548   3.688   5.979
14558TIP3    H143559   4.607   3.634   6.032
14558TIP3    H243560   4.564   3.778   6.009
14559TIP3   OH243561   4.427   5.096   5.485
14559TIP3    H143562   4.505   5.117   5.434
14559TIP3    H243563   4.442   5.008   5.518
14560TIP3   OH243564   5.130   5.209   5.561
14560TIP3    H143565   5.136   5.117   5.538
14560TIP3    H243566   5.085   5.250   5.487
14561TIP3   OH243567   4.366   3.741   7.343
14561TIP3    H143568   4.330   3.677   7.405
14561TIP3    H243569   4.458   3.748   7.367
14562TIP3   OH243570   4.613   3.749   7.469
14562TIP3    H143571   4.690   3.725   7.417
14562TIP3    H243572   4.606   3.680   7.535
14563TIP3   OH243573   5.437   3.835   7.255
14563TIP3    H143574   5.452   3.804   7.344
14563TIP3    H243575   5.522   3.828   7.212
14564TIP3   OH243576   5.350   5.364   6.760
14564TIP3    H143577   5.275   5.334   6.708
14564TIP3    H243578   5.339   5.459   6.766
14565TIP3   OH243579   6.633   4.758   5.490
14565TIP3    H143580   6.598   4.843   5.463
14565TIP3    H243581   6.563   4.696   5.471
14566TIP3   OH243582   6.627   4.744   5.924
14566TIP3    H143583   6.682   4.727   6.001
14566TIP3    H243584   6.582   4.661   5.909
14567TIP3   OH243585   5.917   4.596   6.264
14567TIP3    H143586   5.955   4.551   6.339
14567TIP3    H243587   5.992   4.629   6.214
14568TIP3   OH243588   6.897   5.062   5.598
14568TIP3    H143589   6.882   4.994   5.663
14568TIP3    H243590   6.920   5.139   5.650
14569TIP3   OH243591   5.919   5.024   5.942
14569TIP3    H143592   5.900   4.931   5.955
14569TIP3    H243593   6.015   5.027   5.938
14570TIP3   OH243594   5.588   4.147   5.770
14570TIP3    H143595   5.540   4.228   5.788
14570TIP3    H243596   5.589   4.101   5.853
14571TIP3   OH243597   5.673   4.533   5.925
14571TIP3    H143598   5.724   4.462   5.964
14571TIP3    H243599   5.736   4.604   5.915
14572TIP3   OH243600   6.557   5.482   5.612
14572TIP3    H143601   6.583   5.415   5.549
14572TIP3    H243602   6.560   5.438   5.696
14573TIP3   OH243603   6.438   4.964   5.929
14573TIP3    H143604   6.485   4.884   5.904
14573TIP3    H243605   6.507   5.023   5.961
14574TIP3   OH243606   7.473   4.286   5.943
14574TIP3    H143607   7.488   4.371   5.984
14574TIP3    H243608   7.505   4.296   5.853
14575TIP3   OH243609   6.839   4.452   5.962
14575TIP3    H143610   6.873   4.367   5.991
14575TIP3    H243611   6.805   4.435   5.874
14576TIP3   OH243612   6.201   4.116   5.929
14576TIP3    H143613   6.178   4.187   5.869
14576TIP3    H243614   6.148   4.041   5.899
14577TIP3   OH243615   6.895   4.215   5.557
14577TIP3    H143616   6.957   4.209   5.629
14577TIP3    H243617   6.946   4.249   5.484
14578TIP3   OH243618   5.816   4.325   6.039
14578TIP3    H143619   5.898   4.314   6.089
14578TIP3    H243620   5.827   4.268   5.963
14579TIP3   OH243621   6.238   4.530   5.869
14579TIP3    H143622   6.332   4.516   5.877
14579TIP3    H243623   6.204   4.447   5.837
14580TIP3   OH243624   7.523   4.507   6.111
14580TIP3    H143625   7.433   4.539   6.106
14580TIP3    H243626   7.553   4.536   6.197
14581TIP3   OH243627   6.177   4.119   6.372
14581TIP3    H143628   6.124   4.155   6.300
14581TIP3    H243629   6.124   4.133   6.450
14582TIP3   OH243630   6.521   4.970   5.349
14582TIP3    H143631   6.485   4.948   5.263
14582TIP3    H243632   6.471   5.046   5.378
14583TIP3   OH243633   6.264   4.897   6.136
14583TIP3    H143634   6.214   4.971   6.169
14583TIP3    H243635   6.316   4.933   6.064
14584TIP3   OH243636   7.049   4.241   5.780
14584TIP3    H143637   7.010   4.218   5.864
14584TIP3    H243638   7.107   4.315   5.800
14585TIP3   OH243639   6.063   4.229   6.143
14585TIP3    H143640   6.116   4.304   6.169
14585TIP3    H243641   6.115   4.185   6.075
14586TIP3   OH243642   6.115   5.107   6.239
14586TIP3    H143643   6.100   5.197   6.209
14586TIP3    H243644   6.039   5.087   6.294
14587TIP3   OH243645   5.475   4.808   5.470
14587TIP3    H143646   5.419   4.834   5.397
14587TIP3    H243647   5.501   4.890   5.511
14588TIP3   OH243648   6.944   5.305   5.749
14588TIP3    H143649   6.857   5.297   5.787
14588TIP3    H243650   6.942   5.387   5.700
14589TIP3   OH243651   7.266   4.183   6.109
14589TIP3    H143652   7.182   4.200   6.065
14589TIP3    H243653   7.332   4.207   6.045
14590TIP3   OH243654   6.519   3.808   6.107
14590TIP3    H143655   6.514   3.716   6.134
14590TIP3    H243656   6.442   3.849   6.146
14591TIP3   OH243657   6.643   5.325   5.398
14591TIP3    H143658   6.697   5.248   5.384
14591TIP3    H243659   6.696   5.398   5.368
14592TIP3   OH243660   6.795   5.103   5.343
14592TIP3    H143661   6.729   5.033   5.336
14592TIP3    H243662   6.841   5.086   5.425
14593TIP3   OH243663   7.173   5.175   6.079
14593TIP3    H143664   7.147   5.114   6.011
14593TIP3    H243665   7.174   5.261   6.036
14594TIP3   OH243666   6.459   4.591   5.346
14594TIP3    H143667   6.382   4.643   5.325
14594TIP3    H243668   6.513   4.595   5.267
14595TIP3   OH243669   6.433   4.404   5.057
14595TIP3    H143670   6.500   4.453   5.105
14595TIP3    H243671   6.482   4.341   5.004
14596TIP3   OH243672   7.341   4.871   5.970
14596TIP3    H143673   7.254   4.907   5.951
14596TIP3    H243674   7.387   4.873   5.886
14597TIP3   OH243675   6.822   4.694   5.303
14597TIP3    H143676   6.767   4.720   5.376
14597TIP3    H243677   6.904   4.665   5.344
14598TIP3   OH243678   7.041   4.712   6.257
14598TIP3    H143679   7.033   4.794   6.306
14598TIP3    H243680   6.959   4.707   6.206
14599TIP3   OH243681   6.045   4.668   5.715
14599TIP3    H143682   6.004   4.607   5.654
14599TIP3    H243683   6.117   4.619   5.755
14600TIP3   OH243684   6.185   5.075   5.857
14600TIP3    H143685   6.164   5.066   5.764
14600TIP3    H243686   6.273   5.039   5.866
14601TIP3   OH243687   6.131   4.660   6.091
14601TIP3    H143688   6.173   4.624   6.013
14601TIP3    H243689   6.178   4.742   6.107
14602TIP3   OH243690   6.701   5.294   5.871
14602TIP3    H143691   6.685   5.375   5.919
14602TIP3    H243692   6.681   5.225   5.934
14603TIP3   OH243693   6.313   5.193   6.414
14603TIP3    H143694   6.252   5.251   6.460
14603TIP3    H243695   6.258   5.145   6.353
14604TIP3   OH243696   6.654   4.547   5.142
14604TIP3    H143697   6.716   4.606   5.186
14604TIP3    H243698   6.678   4.553   5.049
14605TIP3   OH243699   6.068   4.740   6.557
14605TIP3    H143700   6.072   4.834   6.576
14605TIP3    H243701   5.974   4.721   6.552
14606TIP3   OH243702   6.391   5.212   5.389
14606TIP3    H143703   6.475   5.257   5.402
14606TIP3    H243704   6.335   5.278   5.348
14607TIP3   OH243705   6.102   5.354   6.494
14607TIP3    H143706   6.078   5.371   6.403
14607TIP3    H243707   6.019   5.341   6.540
14608TIP3   OH243708   7.157   3.769   5.204
14608TIP3    H143709   7.080   3.791   5.258
14608TIP3    H243710   7.168   3.845   5.147
14609TIP3   OH243711   5.899   4.517   5.525
14609TIP3    H143712   5.821   4.561   5.492
14609TIP3    H243713   5.873   4.426   5.536
14610TIP3   OH243714   5.702   4.910   6.450
14610TIP3    H143715   5.633   4.891   6.387
14610TIP3    H243716   5.735   4.824   6.476
14611TIP3   OH243717   5.541   5.106   6.110
14611TIP3    H143718   5.631   5.134   6.128
14611TIP3    H243719   5.487   5.181   6.134
14612TIP3   OH243720   7.403   5.574   6.131
14612TIP3    H143721   7.388   5.483   6.106
14612TIP3    H243722   7.330   5.595   6.189
14613TIP3   OH243723   6.503   5.338   6.278
14613TIP3    H143724   6.495   5.429   6.307
14613TIP3    H243725   6.435   5.292   6.327
14614TIP3   OH243726   6.289   5.440   5.234
14614TIP3    H143727   6.242   5.429   5.152
14614TIP3    H243728   6.252   5.520   5.272
14615TIP3   OH243729   5.717   5.286   5.607
14615TIP3    H143730   5.763   5.281   5.691
14615TIP3    H243731   5.670   5.203   5.600
14616TIP3   OH243732   6.463   5.375   4.849
14616TIP3    H143733   6.513   5.313   4.796
14616TIP3    H243734   6.513   5.382   4.930
14617TIP3   OH243735   6.539   5.413   5.119
14617TIP3    H143736   6.456   5.414   5.166
14617TIP3    H243737   6.603   5.386   5.185
14618TIP3   OH243738   7.284   4.658   6.398
14618TIP3    H143739   7.200   4.670   6.353
14618TIP3    H243740   7.301   4.564   6.394
14619TIP3   OH243741   5.904   5.096   6.416
14619TIP3    H143742   5.954   5.082   6.497
14619TIP3    H243743   5.830   5.035   6.423
14620TIP3   OH243744   6.280   3.900   6.231
14620TIP3    H143745   6.196   3.864   6.203
14620TIP3    H243746   6.258   3.981   6.277
14621TIP3   OH243747   6.824   4.026   6.434
14621TIP3    H143748   6.894   4.000   6.494
14621TIP3    H243749   6.743   4.009   6.483
14622TIP3   OH243750   7.040   4.447   6.351
14622TIP3    H143751   7.003   4.442   6.439
14622TIP3    H243752   7.023   4.537   6.323
14623TIP3   OH243753   6.712   4.529   4.871
14623TIP3    H143754   6.676   4.527   4.782
14623TIP3    H243755   6.795   4.576   4.862
14624TIP3   OH243756   6.422   3.952   5.197
14624TIP3    H143757   6.393   3.956   5.288
14624TIP3    H243758   6.393   3.866   5.166
14625TIP3   OH243759   6.215   4.439   6.239
14625TIP3    H143760   6.172   4.446   6.324
14625TIP3    H243761   6.194   4.521   6.195
14626TIP3   OH243762   6.099   4.312   5.764
14626TIP3    H143763   6.010   4.285   5.788
14626TIP3    H243764   6.111   4.278   5.676
14627TIP3   OH243765   6.578   4.385   5.485
14627TIP3    H143766   6.533   4.458   5.444
14627TIP3    H243767   6.639   4.353   5.418
14628TIP3   OH243768   6.767   4.652   6.562
14628TIP3    H143769   6.739   4.585   6.624
14628TIP3    H243770   6.859   4.667   6.583
14629TIP3   OH243771   6.749   4.401   5.709
14629TIP3    H143772   6.680   4.420   5.646
14629TIP3    H243773   6.797   4.328   5.670
14630TIP3   OH243774   6.056   4.450   6.463
14630TIP3    H143775   6.072   4.514   6.533
14630TIP3    H243776   6.040   4.368   6.509
14631TIP3   OH243777   6.096   3.925   5.176
14631TIP3    H143778   6.086   3.923   5.271
14631TIP3    H243779   6.016   3.965   5.144
14632TIP3   OH243780   5.654   3.991   5.989
14632TIP3    H143781   5.724   4.009   6.052
14632TIP3    H243782   5.688   3.922   5.933
14633TIP3   OH243783   5.567   3.969   5.558
14633TIP3    H143784   5.575   4.016   5.475
14633TIP3    H243785   5.570   4.037   5.625
14634TIP3   OH243786   6.793   4.654   6.136
14634TIP3    H143787   6.817   4.587   6.072
14634TIP3    H243788   6.748   4.607   6.206
14635TIP3   OH243789   6.467   4.103   5.814
14635TIP3    H143790   6.391   4.103   5.872
14635TIP3    H243791   6.542   4.091   5.873
14636TIP3   OH243792   5.866   4.172   5.814
14636TIP3    H143793   5.778   4.154   5.779
14636TIP3    H243794   5.910   4.087   5.812
14637TIP3   OH243795   6.115   4.188   5.519
14637TIP3    H143796   6.211   4.197   5.516
14637TIP3    H243797   6.085   4.214   5.432
14638TIP3   OH243798   6.914   4.190   6.021
14638TIP3    H143799   6.895   4.207   6.113
14638TIP3    H243800   6.848   4.126   5.994
14639TIP3   OH243801   6.009   4.241   5.268
14639TIP3    H143802   5.939   4.185   5.233
14639TIP3    H243803   6.073   4.247   5.198
14640TIP3   OH243804   7.104   5.896   6.236
14640TIP3    H143805   7.098   5.914   6.143
14640TIP3    H243806   7.182   5.945   6.265
14641TIP3   OH243807   6.053   5.007   6.650
14641TIP3    H143808   6.133   5.026   6.698
14641TIP3    H243809   5.983   5.017   6.716
14642TIP3   OH243810   6.511   4.477   5.919
14642TIP3    H143811   6.579   4.427   5.874
14642TIP3    H243812   6.507   4.438   6.007
14643TIP3   OH243813   6.013   3.934   5.816
14643TIP3    H143814   5.981   3.861   5.869
14643TIP3    H243815   6.049   3.893   5.737
14644TIP3   OH243816   6.483   4.383   6.183
14644TIP3    H143817   6.396   4.414   6.208
14644TIP3    H243818   6.544   4.433   6.237
14645TIP3   OH243819   6.232   4.743   5.284
14645TIP3    H143820   6.168   4.672   5.273
14645TIP3    H243821   6.207   4.785   5.366
14646TIP3   OH243822   7.103   4.985   5.893
14646TIP3    H143823   7.139   5.033   5.819
14646TIP3    H243824   7.024   4.943   5.859
14647TIP3   OH243825   6.681   4.046   5.206
14647TIP3    H143826   6.587   4.029   5.200
14647TIP3    H243827   6.688   4.141   5.216
14648TIP3   OH243828   6.629   5.072   6.319
14648TIP3    H143829   6.678   5.062   6.401
14648TIP3    H243830   6.590   5.159   6.325
14649TIP3   OH243831   6.745   4.312   5.270
14649TIP3    H143832   6.840   4.312   5.282
14649TIP3    H243833   6.728   4.390   5.218
14650TIP3   OH243834   5.894   4.720   5.941
14650TIP3    H143835   5.938   4.715   5.856
14650TIP3    H243836   5.961   4.699   6.005
14651TIP3   OH243837   6.375   4.903   5.107
14651TIP3    H143838   6.326   4.986   5.109
14651TIP3    H243839   6.325   4.845   5.164
14652TIP3   OH243840   5.793   4.676   6.579
14652TIP3    H143841   5.794   4.648   6.670
14652TIP3    H243842   5.720   4.628   6.540
14653TIP3   OH243843   6.536   4.810   6.601
14653TIP3    H143844   6.466   4.750   6.575
14653TIP3    H243845   6.617   4.767   6.573
14654TIP3   OH243846   6.776   5.357   6.206
14654TIP3    H143847   6.681   5.346   6.207
14654TIP3    H243848   6.797   5.395   6.291
14655TIP3   OH243849   7.156   4.404   5.089
14655TIP3    H143850   7.095   4.360   5.029
14655TIP3    H243851   7.165   4.492   5.052
14656TIP3   OH243852   6.896   5.212   5.043
14656TIP3    H143853   6.882   5.164   5.124
14656TIP3    H243854   6.860   5.156   4.975
14657TIP3   OH243855   6.877   4.850   5.793
14657TIP3    H143856   6.788   4.828   5.820
14657TIP3    H243857   6.911   4.769   5.756
14658TIP3   OH243858   6.041   5.088   5.614
14658TIP3    H143859   6.035   5.163   5.555
14658TIP3    H243860   5.956   5.086   5.659
14659TIP3   OH243861   5.453   4.451   5.395
14659TIP3    H143862   5.532   4.500   5.373
14659TIP3    H243863   5.392   4.473   5.324
14660TIP3   OH243864   6.124   4.844   5.512
14660TIP3    H143865   6.105   4.934   5.540
14660TIP3    H243866   6.099   4.790   5.587
14661TIP3   OH243867   6.318   5.411   6.070
14661TIP3    H143868   6.353   5.486   6.021
14661TIP3    H243869   6.393   5.379   6.121
14662TIP3   OH243870   5.952   5.308   5.463
14662TIP3    H143871   5.865   5.314   5.501
14662TIP3    H243872   5.987   5.397   5.468
14663TIP3   OH243873   6.667   5.075   6.045
14663TIP3    H143874   6.654   5.072   6.140
14663TIP3    H243875   6.748   5.026   6.031
14664TIP3   OH243876   6.694   4.993   4.904
14664TIP3    H143877   6.750   4.951   4.970
14664TIP3    H243878   6.605   4.978   4.936
14665TIP3   OH243879   6.934   5.562   6.081
14665TIP3    H143880   6.862   5.503   6.101
14665TIP3    H243881   6.900   5.618   6.011
14666TIP3   OH243882   6.998   5.455   4.721
14666TIP3    H143883   7.053   5.532   4.707
14666TIP3    H243884   6.915   5.491   4.754
14667TIP3   OH243885   6.006   4.195   6.580
14667TIP3    H143886   5.911   4.203   6.585
14667TIP3    H243887   6.029   4.138   6.653
14668TIP3   OH243888   6.855   4.880   5.095
14668TIP3    H143889   6.836   4.822   5.170
14668TIP3    H243890   6.950   4.886   5.094
14669TIP3   OH243891   5.746   5.314   6.229
14669TIP3    H143892   5.802   5.260   6.285
14669TIP3    H243893   5.762   5.403   6.258
14670TIP3   OH243894   6.007   4.805   4.936
14670TIP3    H143895   6.094   4.827   4.903
14670TIP3    H243896   5.994   4.863   5.011
14671TIP3   OH243897   5.974   4.930   5.185
14671TIP3    H143898   6.043   4.909   5.248
14671TIP3    H243899   5.965   5.025   5.190
14672TIP3   OH243900   5.672   4.625   5.402
14672TIP3    H143901   5.611   4.690   5.437
14672TIP3    H243902   5.706   4.665   5.321
14673TIP3   OH243903   6.853   4.253   6.282
14673TIP3    H143904   6.930   4.300   6.316
14673TIP3    H243905   6.845   4.177   6.339
14674TIP3   OH243906   6.745   3.996   5.473
14674TIP3    H143907   6.724   4.014   5.381
14674TIP3    H243908   6.790   4.075   5.503
14675TIP3   OH243909   6.222   5.127   5.106
14675TIP3    H143910   6.142   5.146   5.155
14675TIP3    H243911   6.240   5.207   5.057
14676TIP3   OH243912   6.391   4.199   5.565
14676TIP3    H143913   6.454   4.265   5.537
14676TIP3    H243914   6.417   4.177   5.654
14677TIP3   OH243915   6.693   4.490   6.334
14677TIP3    H143916   6.718   4.531   6.417
14677TIP3    H243917   6.742   4.408   6.332
14678TIP3   OH243918   6.559   3.891   5.649
14678TIP3    H143919   6.538   3.968   5.702
14678TIP3    H243920   6.630   3.920   5.591
14679TIP3   OH243921   5.978   5.202   5.211
14679TIP3    H143922   5.948   5.272   5.153
14679TIP3    H243923   5.968   5.238   5.299
14680TIP3   OH243924   6.074   3.917   5.452
14680TIP3    H143925   6.064   4.004   5.488
14680TIP3    H243926   6.168   3.899   5.458
14681TIP3   OH243927   7.301   4.381   6.317
14681TIP3    H143928   7.208   4.393   6.332
14681TIP3    H243929   7.306   4.315   6.248
14682TIP3   OH243930   6.972   4.592   5.708
14682TIP3    H143931   6.897   4.534   5.720
14682TIP3    H243932   7.041   4.553   5.763
14683TIP3   OH243933   5.757   4.761   5.179
14683TIP3    H143934   5.828   4.825   5.186
14683TIP3    H243935   5.702   4.795   5.108
14684TIP3   OH243936   5.572   4.141   5.338
14684TIP3    H143937   5.542   4.232   5.337
14684TIP3    H243938   5.544   4.105   5.255
14685TIP3   OH243939   6.956   5.567   5.649
14685TIP3    H143940   6.914   5.618   5.580
14685TIP3    H243941   7.050   5.579   5.636
14686TIP3   OH243942   6.020   3.809   6.195
14686TIP3    H143943   5.990   3.772   6.112
14686TIP3    H243944   6.011   3.737   6.257
14687TIP3   OH243945   5.541   5.059   5.595
14687TIP3    H143946   5.507   5.099   5.675
14687TIP3    H243947   5.496   5.106   5.524
14688TIP3   OH243948   5.751   5.607   6.656
14688TIP3    H143949   5.832   5.614   6.706
14688TIP3    H243950   5.742   5.514   6.637
14689TIP3   OH243951   6.210   5.509   6.696
14689TIP3    H143952   6.302   5.484   6.703
14689TIP3    H243953   6.178   5.459   6.621
14690TIP3   OH243954   6.830   5.456   6.456
14690TIP3    H143955   6.843   5.386   6.519
14690TIP3    H243956   6.905   5.514   6.468
14691TIP3   OH243957   6.594   5.179   4.699
14691TIP3    H143958   6.638   5.113   4.752
14691TIP3    H243959   6.627   5.165   4.610
14692TIP3   OH243960   5.847   5.010   6.841
14692TIP3    H143961   5.868   4.917   6.852
14692TIP3    H243962   5.760   5.010   6.802
14693TIP3   OH243963   5.926   4.565   5.025
14693TIP3    H143964   5.892   4.587   5.112
14693TIP3    H243965   5.935   4.649   4.981
14694TIP3   OH243966   6.469   5.088   6.618
14694TIP3    H143967   6.423   5.109   6.536
14694TIP3    H243968   6.503   4.999   6.603
14695TIP3   OH243969   6.267   4.836   4.851
14695TIP3    H143970   6.313   4.869   4.928
14695TIP3    H243971   6.302   4.747   4.838
14696TIP3   OH243972   6.944   5.133   6.231
14696TIP3    H143973   7.020   5.159   6.179
14696TIP3    H243974   6.881   5.203   6.219
14697TIP3   OH243975   5.962   4.755   6.849
14697TIP3    H143976   6.039   4.736   6.795
14697TIP3    H243977   5.997   4.772   6.936
14698TIP3   OH243978   6.051   4.530   5.294
14698TIP3    H143979   6.006   4.550   5.375
14698TIP3    H243980   6.047   4.434   5.287
14699TIP3   OH243981   6.327   4.636   6.506
14699TIP3    H143982   6.241   4.677   6.517
14699TIP3    H243983   6.357   4.665   6.420
14700TIP3   OH243984   6.173   4.321   5.060
14700TIP3    H143985   6.202   4.245   5.010
14700TIP3    H243986   6.254   4.365   5.086
14701TIP3   OH243987   6.827   5.006   6.587
14701TIP3    H143988   6.894   4.966   6.532
14701TIP3    H243989   6.825   4.951   6.665
14702TIP3   OH243990   6.937   4.666   4.786
14702TIP3    H143991   6.937   4.619   4.703
14702TIP3    H243992   6.915   4.756   4.762
14703TIP3   OH243993   6.426   4.403   6.615
14703TIP3    H143994   6.430   4.333   6.550
14703TIP3    H243995   6.393   4.479   6.566
14704TIP3   OH243996   6.435   4.206   6.410
14704TIP3    H143997   6.463   4.243   6.326
14704TIP3    H243998   6.345   4.177   6.395
14705TIP3   OH243999   6.436   4.735   6.278
14705TIP3    H144000   6.523   4.772   6.270
14705TIP3    H244001   6.379   4.794   6.229
14706TIP3   OH244002   7.037   4.677   6.661
14706TIP3    H144003   7.061   4.586   6.677
14706TIP3    H244004   7.119   4.719   6.635
14707TIP3   OH244005   7.061   4.959   6.404
14707TIP3    H144006   7.008   5.019   6.352
14707TIP3    H244007   7.147   4.959   6.362
14708TIP3   OH244008   6.314   4.485   6.859
14708TIP3    H144009   6.244   4.422   6.880
14708TIP3    H244010   6.342   4.460   6.771
14709TIP3   OH244011   6.559   3.976   6.514
14709TIP3    H144012   6.517   4.056   6.481
14709TIP3    H244013   6.493   3.908   6.502
14710TIP3   OH244014   6.683   4.443   6.718
14710TIP3    H144015   6.674   4.429   6.812
14710TIP3    H244016   6.596   4.421   6.682
14711TIP3   OH244017   6.930   4.398   6.591
14711TIP3    H144018   6.851   4.395   6.645
14711TIP3    H244019   7.000   4.368   6.650
14712TIP3   OH244020   7.166   4.364   6.737
14712TIP3    H144021   7.182   4.270   6.744
14712TIP3    H244022   7.164   4.394   6.828
14713TIP3   OH244023   6.144   4.267   6.923
14713TIP3    H144024   6.151   4.179   6.886
14713TIP3    H244025   6.183   4.260   7.010
14714TIP3   OH244026   6.624   3.951   6.780
14714TIP3    H144027   6.692   3.884   6.775
14714TIP3    H244028   6.595   3.962   6.690
14715TIP3   OH244029   6.723   4.165   6.924
14715TIP3    H144030   6.692   4.092   6.870
14715TIP3    H244031   6.649   4.226   6.926
14716TIP3   OH244032   5.950   5.411   5.033
14716TIP3    H144033   6.045   5.409   5.023
14716TIP3    H244034   5.918   5.453   4.953
14717TIP3   OH244035   5.336   5.365   5.667
14717TIP3    H144036   5.275   5.310   5.618
14717TIP3    H244037   5.382   5.305   5.726
14718TIP3   OH244038   5.488   5.204   5.837
14718TIP3    H144039   5.482   5.140   5.908
14718TIP3    H244040   5.540   5.275   5.874
14719TIP3   OH244041   7.227   5.614   5.641
14719TIP3    H144042   7.243   5.654   5.726
14719TIP3    H244043   7.288   5.659   5.582
14720TIP3   OH244044   7.230   5.669   5.919
14720TIP3    H144045   7.192   5.581   5.919
14720TIP3    H244046   7.306   5.661   5.976
14721TIP3   OH244047   7.346   5.339   6.499
14721TIP3    H144048   7.267   5.340   6.553
14721TIP3    H244049   7.376   5.430   6.499
14722TIP3   OH244050   7.135   4.875   5.102
14722TIP3    H144051   7.195   4.945   5.075
14722TIP3    H244052   7.178   4.836   5.178
14723TIP3   OH244053   7.253   4.729   5.310
14723TIP3    H144054   7.184   4.690   5.364
14723TIP3    H244055   7.316   4.764   5.373
14724TIP3   OH244056   7.296   5.125   5.746
14724TIP3    H144057   7.353   5.060   5.706
14724TIP3    H244058   7.298   5.199   5.686
14725TIP3   OH244059   7.119   5.411   5.942
14725TIP3    H144060   7.051   5.454   5.994
14725TIP3    H244061   7.072   5.370   5.870
14726TIP3   OH244062   7.155   4.645   4.953
14726TIP3    H144063   7.079   4.645   4.895
14726TIP3    H244064   7.146   4.724   5.006
14727TIP3   OH244065   6.989   4.293   4.904
14727TIP3    H144066   6.948   4.325   4.823
14727TIP3    H244067   6.987   4.197   4.896
14728TIP3   OH244068   7.043   4.587   5.439
14728TIP3    H144069   7.049   4.493   5.424
14728TIP3    H244070   7.024   4.596   5.532
14729TIP3   OH244071   5.655   4.637   6.195
14729TIP3    H144072   5.647   4.605   6.106
14729TIP3    H244073   5.749   4.631   6.215
14730TIP3   OH244074   7.287   4.985   6.242
14730TIP3    H144075   7.314   4.931   6.168
14730TIP3    H244076   7.254   5.065   6.201
14731TIP3   OH244077   7.511   4.803   6.387
14731TIP3    H144078   7.426   4.760   6.386
14731TIP3    H244079   7.574   4.732   6.379
14732TIP3   OH244080   6.964   4.022   4.870
14732TIP3    H144081   7.033   3.991   4.929
14732TIP3    H244082   6.885   3.976   4.900
14733TIP3   OH244083   7.035   4.307   5.327
14733TIP3    H144084   7.081   4.224   5.340
14733TIP3    H244085   7.077   4.346   5.251
14734TIP3   OH244086   7.190   4.473   5.849
14734TIP3    H144087   7.270   4.492   5.799
14734TIP3    H244088   7.205   4.512   5.935
14735TIP3   OH244089   7.262   4.624   6.075
14735TIP3    H144090   7.188   4.648   6.131
14735TIP3    H244091   7.290   4.706   6.036
14736TIP3   OH244092   5.880   4.320   6.856
14736TIP3    H144093   5.974   4.318   6.876
14736TIP3    H244094   5.846   4.239   6.893
14737TIP3   OH244095   7.723   4.225   6.616
14737TIP3    H144096   7.789   4.166   6.580
14737TIP3    H244097   7.687   4.270   6.540
14738TIP3   OH244098   7.152   4.059   5.381
14738TIP3    H144099   7.198   4.044   5.463
14738TIP3    H244100   7.090   3.986   5.375
14739TIP3   OH244101   5.856   4.032   6.172
14739TIP3    H144102   5.908   3.955   6.195
14739TIP3    H244103   5.918   4.104   6.172
14740TIP3   OH244104   5.640   4.293   6.262
14740TIP3    H144105   5.691   4.291   6.181
14740TIP3    H244106   5.670   4.371   6.308
14741TIP3   OH244107   7.570   4.335   6.418
14741TIP3    H144108   7.490   4.373   6.454
14741TIP3    H244109   7.540   4.261   6.365
14742TIP3   OH244110   7.196   3.969   5.018
14742TIP3    H144111   7.245   3.908   4.963
14742TIP3    H244112   7.249   4.048   5.019
14743TIP3   OH244113   5.621   3.802   5.770
14743TIP3    H144114   5.533   3.785   5.805
14743TIP3    H244115   5.606   3.859   5.695
14744TIP3   OH244116   6.773   5.532   5.285
14744TIP3    H144117   6.830   5.523   5.209
14744TIP3    H244118   6.815   5.598   5.340
14745TIP3   OH244119   5.853   3.893   6.608
14745TIP3    H144120   5.798   3.868   6.683
14745TIP3    H244121   5.791   3.930   6.545
14746TIP3   OH244122   5.875   5.330   6.659
14746TIP3    H144123   5.783   5.306   6.655
14746TIP3    H244124   5.898   5.320   6.752
14747TIP3   OH244125   6.083   5.386   6.212
14747TIP3    H144126   6.032   5.458   6.174
14747TIP3    H244127   6.169   5.394   6.171
14748TIP3   OH244128   6.486   5.604   6.356
14748TIP3    H144129   6.523   5.598   6.445
14748TIP3    H244130   6.548   5.660   6.309
14749TIP3   OH244131   6.677   5.762   6.234
14749TIP3    H144132   6.740   5.713   6.181
14749TIP3    H244133   6.731   5.820   6.288
14750TIP3   OH244134   7.488   4.079   6.319
14750TIP3    H144135   7.399   4.062   6.288
14750TIP3    H244136   7.531   3.993   6.314
14751TIP3   OH244137   5.757   5.602   6.266
14751TIP3    H144138   5.666   5.622   6.243
14751TIP3    H244139   5.781   5.672   6.327
14752TIP3   OH244140   5.976   5.615   6.090
14752TIP3    H144141   5.894   5.621   6.139
14752TIP3    H244142   5.955   5.652   6.004
14753TIP3   OH244143   6.398   5.622   5.909
14753TIP3    H144144   6.328   5.633   5.844
14753TIP3    H244145   6.407   5.708   5.949
14754TIP3   OH244146   6.660   5.552   5.960
14754TIP3    H144147   6.569   5.576   5.941
14754TIP3    H244148   6.712   5.619   5.914
14755TIP3   OH244149   6.859   5.720   5.858
14755TIP3    H144150   6.862   5.809   5.823
14755TIP3    H244151   6.891   5.665   5.786
14756TIP3   OH244152   5.660   5.386   5.975
14756TIP3    H144153   5.686   5.367   6.065
14756TIP3    H244154   5.734   5.355   5.921
14757TIP3   OH244155   5.867   5.270   5.838
14757TIP3    H144156   5.879   5.186   5.881
14757TIP3    H244157   5.952   5.313   5.844
14758TIP3   OH244158   6.135   5.353   5.866
14758TIP3    H144159   6.156   5.260   5.855
14758TIP3    H244160   6.188   5.381   5.940
14759TIP3   OH244161   6.692   4.005   5.951
14759TIP3    H144162   6.653   3.935   6.002
14759TIP3    H244163   6.762   3.963   5.901
14760TIP3   OH244164   7.198   3.932   5.844
14760TIP3    H144165   7.233   3.980   5.769
14760TIP3    H244166   7.105   3.952   5.843
14761TIP3   OH244167   7.310   4.005   5.603
14761TIP3    H144168   7.378   3.943   5.577
14761TIP3    H244169   7.349   4.091   5.590
14762TIP3   OH244170   5.927   3.708   5.953
14762TIP3    H144171   5.840   3.672   5.965
14762TIP3    H244172   5.984   3.631   5.946
14763TIP3   OH244173   5.739   3.611   5.595
14763TIP3    H144174   5.772   3.663   5.521
14763TIP3    H244175   5.707   3.676   5.657
14764TIP3   OH244176   6.408   3.754   5.847
14764TIP3    H144177   6.460   3.797   5.780
14764TIP3    H244178   6.450   3.779   5.930
14765TIP3   OH244179   6.910   3.890   5.824
14765TIP3    H144180   6.931   3.853   5.738
14765TIP3    H244181   6.917   3.815   5.884
14766TIP3   OH244182   6.966   3.847   5.389
14766TIP3    H144183   6.887   3.893   5.415
14766TIP3    H244184   6.957   3.760   5.427
14767TIP3   OH244185   5.423   5.186   5.386
14767TIP3    H144186   5.343   5.159   5.342
14767TIP3    H244187   5.440   5.274   5.352
14768TIP3   OH244188   5.862   3.749   5.367
14768TIP3    H144189   5.906   3.684   5.312
14768TIP3    H244190   5.934   3.801   5.404
14769TIP3   OH244191   6.349   3.947   5.464
14769TIP3    H144192   6.407   3.892   5.516
14769TIP3    H244193   6.365   4.036   5.496
14770TIP3   OH244194   6.215   5.367   4.959
14770TIP3    H144195   6.303   5.381   4.926
14770TIP3    H244196   6.164   5.345   4.881
14771TIP3   OH244197   6.924   5.487   5.056
14771TIP3    H144198   6.924   5.392   5.047
14771TIP3    H244199   6.888   5.520   4.974
14772TIP3   OH244200   6.164   3.998   6.835
14772TIP3    H144201   6.129   3.931   6.894
14772TIP3    H244202   6.256   4.006   6.860
14773TIP3   OH244203   6.411   4.003   6.958
14773TIP3    H144204   6.487   3.980   6.906
14773TIP3    H244205   6.405   3.934   7.025
14774TIP3   OH244206   7.232   4.093   6.742
14774TIP3    H144207   7.247   4.063   6.832
14774TIP3    H244208   7.317   4.087   6.700
14775TIP3   OH244209   7.153   5.625   6.247
14775TIP3    H144210   7.079   5.593   6.196
14775TIP3    H244211   7.139   5.719   6.254
14776TIP3   OH244212   8.423   5.007   4.992
14776TIP3    H144213   8.393   5.094   4.966
14776TIP3    H244214   8.354   4.948   4.963
14777TIP3   OH244215   8.423   5.002   5.414
14777TIP3    H144216   8.480   4.983   5.489
14777TIP3    H244217   8.382   4.918   5.393
14778TIP3   OH244218   7.738   4.899   5.787
14778TIP3    H144219   7.768   4.824   5.839
14778TIP3    H244220   7.802   4.907   5.717
14779TIP3   OH244221   8.693   5.315   5.085
14779TIP3    H144222   8.679   5.246   5.150
14779TIP3    H244223   8.714   5.393   5.136
14780TIP3   OH244224   7.709   5.285   5.442
14780TIP3    H144225   7.691   5.191   5.447
14780TIP3    H244226   7.804   5.291   5.429
14781TIP3   OH244227   7.395   4.497   5.226
14781TIP3    H144228   7.358   4.582   5.250
14781TIP3    H244229   7.323   4.450   5.185
14782TIP3   OH244230   7.479   4.813   5.464
14782TIP3    H144231   7.529   4.733   5.479
14782TIP3    H244232   7.543   4.877   5.435
14783TIP3   OH244233   8.361   5.730   5.100
14783TIP3    H144234   8.382   5.668   5.031
14783TIP3    H244235   8.362   5.678   5.180
14784TIP3   OH244236   8.229   5.215   5.424
14784TIP3    H144237   8.278   5.138   5.394
14784TIP3    H244238   8.297   5.277   5.450
14785TIP3   OH244239   9.236   4.561   5.436
14785TIP3    H144240   9.256   4.633   5.496
14785TIP3    H244241   9.242   4.600   5.349
14786TIP3   OH244242   8.634   4.710   5.452
14786TIP3    H144243   8.670   4.625   5.479
14786TIP3    H244244   8.597   4.694   5.365
14787TIP3   OH244245   7.991   4.366   5.408
14787TIP3    H144246   7.971   4.440   5.350
14787TIP3    H244247   7.936   4.295   5.375
14788TIP3   OH244248   8.685   4.476   5.052
14788TIP3    H144249   8.750   4.467   5.121
14788TIP3    H244250   8.734   4.509   4.977
14789TIP3   OH244251   7.621   4.586   5.537
14789TIP3    H144252   7.704   4.562   5.580
14789TIP3    H244253   7.622   4.536   5.455
14790TIP3   OH244254   8.034   4.783   5.364
14790TIP3    H144255   8.128   4.770   5.365
14790TIP3    H244256   7.999   4.702   5.326
14791TIP3   OH244257   9.282   4.756   5.626
14791TIP3    H144258   9.208   4.809   5.596
14791TIP3    H244259   9.327   4.811   5.690
14792TIP3   OH244260   7.974   4.374   5.862
14792TIP3    H144261   7.923   4.409   5.789
14792TIP3    H244262   7.918   4.388   5.939
14793TIP3   OH244263   8.309   5.219   4.861
14793TIP3    H144264   8.272   5.197   4.775
14793TIP3    H244265   8.264   5.300   4.886
14794TIP3   OH244266   8.070   5.146   5.641
14794TIP3    H144267   8.016   5.220   5.667
14794TIP3    H244268   8.120   5.178   5.566
14795TIP3   OH244269   8.848   4.489   5.272
14795TIP3    H144270   8.807   4.474   5.357
14795TIP3    H244271   8.904   4.566   5.285
14796TIP3   OH244272   7.865   4.477   5.629
14796TIP3    H144273   7.921   4.551   5.649
14796TIP3    H244274   7.909   4.432   5.557
14797TIP3   OH244275   7.910   5.355   5.735
14797TIP3    H144276   7.899   5.442   5.696
14797TIP3    H244277   7.830   5.342   5.786
14798TIP3   OH244278   7.307   5.074   4.984
14798TIP3    H144279   7.250   5.123   4.925
14798TIP3    H244280   7.346   5.140   5.040
14799TIP3   OH244281   8.728   5.558   5.235
14799TIP3    H144282   8.639   5.555   5.270
14799TIP3    H244283   8.731   5.639   5.184
14800TIP3   OH244284   9.055   4.416   5.596
14800TIP3    H144285   8.968   4.445   5.570
14800TIP3    H244286   9.114   4.455   5.532
14801TIP3   OH244287   8.313   4.065   5.595
14801TIP3    H144288   8.307   3.973   5.620
14801TIP3    H244289   8.235   4.105   5.634
14802TIP3   OH244290   8.436   5.585   4.874
14802TIP3    H144291   8.489   5.506   4.864
14802TIP3    H244292   8.494   5.657   4.848
14803TIP3   OH244293   8.593   5.369   4.832
14803TIP3    H144294   8.563   5.286   4.795
14803TIP3    H244295   8.633   5.344   4.915
14804TIP3   OH244296   8.965   5.431   5.569
14804TIP3    H144297   8.946   5.360   5.508
14804TIP3    H244298   8.949   5.511   5.519
14805TIP3   OH244299   8.252   4.847   4.840
14805TIP3    H144300   8.170   4.894   4.823
14805TIP3    H244301   8.297   4.847   4.755
14806TIP3   OH244302   8.218   4.658   4.523
14806TIP3    H144303   8.284   4.707   4.573
14806TIP3    H244304   8.269   4.590   4.478
14807TIP3   OH244305   9.124   5.093   5.428
14807TIP3    H144306   9.044   5.144   5.413
14807TIP3    H244307   9.164   5.086   5.341
14808TIP3   OH244308   8.604   4.940   4.798
14808TIP3    H144309   8.550   4.966   4.872
14808TIP3    H244310   8.687   4.912   4.837
14809TIP3   OH244311   8.832   4.970   5.752
14809TIP3    H144312   8.823   5.053   5.800
14809TIP3    H244313   8.752   4.964   5.700
14810TIP3   OH244314   7.831   4.914   5.208
14810TIP3    H144315   7.795   4.854   5.143
14810TIP3    H244316   7.907   4.867   5.244
14811TIP3   OH244317   7.973   5.320   5.352
14811TIP3    H144318   7.954   5.319   5.258
14811TIP3    H244319   8.062   5.285   5.358
14812TIP3   OH244320   7.931   4.916   5.583
14812TIP3    H144321   7.968   4.879   5.503
14812TIP3    H244322   7.982   4.995   5.599
14813TIP3   OH244323   8.487   5.561   5.364
14813TIP3    H144324   8.476   5.637   5.420
14813TIP3    H244325   8.474   5.486   5.422
14814TIP3   OH244326   8.112   5.452   5.901
14814TIP3    H144327   8.052   5.509   5.948
14814TIP3    H244328   8.055   5.402   5.842
14815TIP3   OH244329   8.439   4.797   4.630
14815TIP3    H144330   8.498   4.856   4.677
14815TIP3    H244331   8.469   4.800   4.539
14816TIP3   OH244332   7.826   5.025   6.040
14816TIP3    H144333   7.836   5.114   6.072
14816TIP3    H244334   7.803   5.035   5.947
14817TIP3   OH244335   8.187   5.468   4.896
14817TIP3    H144336   8.270   5.515   4.894
14817TIP3    H244337   8.128   5.519   4.841
14818TIP3   OH244338   7.897   5.605   5.986
14818TIP3    H144339   7.871   5.619   5.895
14818TIP3    H244340   7.816   5.581   6.031
14819TIP3   OH244341   8.919   4.036   4.686
14819TIP3    H144342   8.853   4.059   4.750
14819TIP3    H244343   8.935   4.117   4.637
14820TIP3   OH244344   7.704   4.752   5.013
14820TIP3    H144345   7.629   4.797   4.975
14820TIP3    H244346   7.675   4.661   5.022
14821TIP3   OH244347   8.741   5.412   4.242
14821TIP3    H144348   8.744   5.506   4.223
14821TIP3    H244349   8.831   5.383   4.231
14822TIP3   OH244350   7.482   5.192   5.947
14822TIP3    H144351   7.410   5.175   5.887
14822TIP3    H244352   7.476   5.122   6.012
14823TIP3   OH244353   7.339   5.358   5.594
14823TIP3    H144354   7.432   5.380   5.600
14823TIP3    H244355   7.294   5.437   5.623
14824TIP3   OH244356   9.168   5.817   5.683
14824TIP3    H144357   9.180   5.723   5.672
14824TIP3    H244358   9.142   5.848   5.596
14825TIP3   OH244359   8.306   5.592   5.765
14825TIP3    H144360   8.297   5.682   5.796
14825TIP3    H244361   8.237   5.544   5.811
14826TIP3   OH244362   8.078   5.693   4.719
14826TIP3    H144363   8.032   5.672   4.638
14826TIP3    H244364   8.037   5.774   4.750
14827TIP3   OH244365   7.509   5.567   5.095
14827TIP3    H144366   7.559   5.559   5.176
14827TIP3    H244367   7.465   5.482   5.085
14828TIP3   OH244368   8.279   5.631   4.347
14828TIP3    H144369   8.328   5.557   4.313
14828TIP3    H244370   8.312   5.643   4.436
14829TIP3   OH244371   8.331   5.670   4.616
14829TIP3    H144372   8.245   5.675   4.656
14829TIP3    H244373   8.387   5.631   4.683
14830TIP3   OH244374   9.061   4.941   5.925
14830TIP3    H144375   8.987   4.947   5.865
14830TIP3    H244376   9.085   4.849   5.925
14831TIP3   OH244377   7.683   5.371   5.898
14831TIP3    H144378   7.703   5.395   5.988
14831TIP3    H244379   7.613   5.306   5.905
14832TIP3   OH244380   8.076   4.156   5.720
14832TIP3    H144381   7.992   4.123   5.688
14832TIP3    H244382   8.054   4.237   5.766
14833TIP3   OH244383   8.621   4.282   5.921
14833TIP3    H144384   8.693   4.255   5.979
14833TIP3    H244385   8.542   4.263   5.972
14834TIP3   OH244386   8.825   4.698   5.826
14834TIP3    H144387   8.793   4.694   5.916
14834TIP3    H244388   8.817   4.791   5.803
14835TIP3   OH244389   8.518   4.775   4.368
14835TIP3    H144390   8.471   4.779   4.285
14835TIP3    H244391   8.599   4.823   4.352
14836TIP3   OH244392   8.226   4.200   4.689
14836TIP3    H144393   8.189   4.207   4.777
14836TIP3    H244394   8.191   4.118   4.654
14837TIP3   OH244395   8.018   4.689   5.718
14837TIP3    H144396   7.972   4.693   5.801
14837TIP3    H244397   7.995   4.770   5.673
14838TIP3   OH244398   7.897   4.570   5.249
14838TIP3    H144399   7.807   4.546   5.272
14838TIP3    H244400   7.907   4.540   5.159
14839TIP3   OH244401   8.374   4.643   4.976
14839TIP3    H144402   8.327   4.716   4.935
14839TIP3    H244403   8.433   4.611   4.907
14840TIP3   OH244404   8.564   4.910   6.046
14840TIP3    H144405   8.536   4.843   6.108
14840TIP3    H244406   8.657   4.925   6.067
14841TIP3   OH244407   8.537   4.659   5.202
14841TIP3    H144408   8.471   4.681   5.136
14841TIP3    H244409   8.586   4.586   5.163
14842TIP3   OH244410   7.849   4.691   5.937
14842TIP3    H144411   7.914   4.738   5.990
14842TIP3    H244412   7.830   4.612   5.988
14843TIP3   OH244413   7.894   4.178   4.667
14843TIP3    H144414   7.885   4.186   4.762
14843TIP3    H244415   7.817   4.222   4.631
14844TIP3   OH244416   7.445   4.226   5.529
14844TIP3    H144417   7.517   4.261   5.581
14844TIP3    H244418   7.483   4.210   5.443
14845TIP3   OH244419   7.342   4.207   5.024
14845TIP3    H144420   7.386   4.242   4.947
14845TIP3    H244421   7.279   4.274   5.049
14846TIP3   OH244422   8.588   4.911   5.626
14846TIP3    H144423   8.613   4.844   5.561
14846TIP3    H244424   8.544   4.861   5.695
14847TIP3   OH244425   8.259   4.358   5.299
14847TIP3    H144426   8.182   4.357   5.355
14847TIP3    H244427   8.333   4.350   5.360
14848TIP3   OH244428   7.656   4.445   5.305
14848TIP3    H144429   7.568   4.449   5.267
14848TIP3    H244430   7.685   4.355   5.288
14849TIP3   OH244431   7.909   4.451   5.001
14849TIP3    H144432   8.004   4.459   4.992
14849TIP3    H244433   7.875   4.467   4.913
14850TIP3   OH244434   8.707   4.447   5.511
14850TIP3    H144435   8.683   4.465   5.602
14850TIP3    H244436   8.641   4.385   5.481
14851TIP3   OH244437   7.800   4.471   4.751
14851TIP3    H144438   7.737   4.422   4.697
14851TIP3    H244439   7.852   4.521   4.688
14852TIP3   OH244440   8.893   6.169   5.727
14852TIP3    H144441   8.882   6.178   5.632
14852TIP3    H244442   8.969   6.224   5.748
14853TIP3   OH244443   7.846   5.264   6.174
14853TIP3    H144444   7.928   5.278   6.221
14853TIP3    H244445   7.798   5.346   6.185
14854TIP3   OH244446   8.310   4.733   5.402
14854TIP3    H144447   8.375   4.688   5.348
14854TIP3    H244448   8.311   4.686   5.485
14855TIP3   OH244449   7.796   4.195   5.291
14855TIP3    H144450   7.770   4.119   5.343
14855TIP3    H244451   7.817   4.159   5.204
14856TIP3   OH244452   8.283   4.626   5.664
14856TIP3    H144453   8.195   4.657   5.687
14856TIP3    H244454   8.342   4.678   5.720
14857TIP3   OH244455   8.016   4.985   4.790
14857TIP3    H144456   7.939   4.934   4.764
14857TIP3    H244457   7.990   5.027   4.872
14858TIP3   OH244458   8.900   5.245   5.379
14858TIP3    H144459   8.935   5.295   5.305
14858TIP3    H244460   8.821   5.203   5.345
14859TIP3   OH244461   8.479   4.303   4.696
14859TIP3    H144462   8.386   4.283   4.690
14859TIP3    H244463   8.483   4.398   4.706
14860TIP3   OH244464   8.431   5.328   5.805
14860TIP3    H144465   8.482   5.319   5.885
14860TIP3    H244466   8.393   5.416   5.810
14861TIP3   OH244467   8.537   4.569   4.760
14861TIP3    H144468   8.632   4.575   4.771
14861TIP3    H244469   8.514   4.645   4.708
14862TIP3   OH244470   7.699   4.994   5.436
14862TIP3    H144471   7.735   4.978   5.349
14862TIP3    H244472   7.770   4.970   5.496
14863TIP3   OH244473   8.164   5.147   4.628
14863TIP3    H144474   8.118   5.231   4.626
14863TIP3    H244475   8.109   5.090   4.681
14864TIP3   OH244476   7.561   4.962   6.129
14864TIP3    H144477   7.650   4.968   6.094
14864TIP3    H244478   7.514   4.908   6.065
14865TIP3   OH244479   8.351   5.089   6.070
14865TIP3    H144480   8.299   5.067   5.993
14865TIP3    H244481   8.431   5.037   6.060
14866TIP3   OH244482   8.573   5.607   5.673
14866TIP3    H144483   8.479   5.600   5.689
14866TIP3    H244484   8.609   5.639   5.756
14867TIP3   OH244485   8.958   4.659   4.585
14867TIP3    H144486   8.907   4.611   4.520
14867TIP3    H244487   8.958   4.750   4.553
14868TIP3   OH244488   9.199   5.550   5.650
14868TIP3    H144489   9.111   5.513   5.649
14868TIP3    H244490   9.240   5.518   5.569
14869TIP3   OH244491   8.701   5.475   4.516
14869TIP3    H144492   8.671   5.406   4.575
14869TIP3    H244493   8.702   5.434   4.429
14870TIP3   OH244494   8.674   5.108   5.282
14870TIP3    H144495   8.583   5.086   5.305
14870TIP3    H244496   8.710   5.028   5.244
14871TIP3   OH244497   7.837   5.349   5.104
14871TIP3    H144498   7.844   5.424   5.045
14871TIP3    H244499   7.746   5.349   5.132
14872TIP3   OH244500   7.379   4.634   4.789
14872TIP3    H144501   7.427   4.714   4.810
14872TIP3    H244502   7.303   4.636   4.847
14873TIP3   OH244503   7.915   5.099   5.013
14873TIP3    H144504   7.899   5.189   5.042
14873TIP3    H244505   7.886   5.045   5.087
14874TIP3   OH244506   8.114   5.671   5.558
14874TIP3    H144507   8.145   5.748   5.509
14874TIP3    H244508   8.193   5.639   5.602
14875TIP3   OH244509   7.747   5.577   4.951
14875TIP3    H144510   7.659   5.581   4.988
14875TIP3    H244511   7.780   5.667   4.960
14876TIP3   OH244512   8.462   5.330   5.528
14876TIP3    H144513   8.453   5.326   5.623
14876TIP3    H244514   8.535   5.272   5.508
14877TIP3   OH244515   8.467   5.210   4.401
14877TIP3    H144516   8.510   5.189   4.484
14877TIP3    H244517   8.383   5.164   4.406
14878TIP3   OH244518   8.727   5.828   5.585
14878TIP3    H144519   8.658   5.763   5.599
14878TIP3    H244520   8.697   5.879   5.510
14879TIP3   OH244521   8.769   5.681   4.203
14879TIP3    H144522   8.791   5.737   4.129
14879TIP3    H244523   8.701   5.728   4.250
14880TIP3   OH244524   7.799   4.447   6.070
14880TIP3    H144525   7.704   4.458   6.076
14880TIP3    H244526   7.822   4.392   6.145
14881TIP3   OH244527   8.627   5.147   4.617
14881TIP3    H144528   8.612   5.076   4.680
14881TIP3    H244529   8.722   5.149   4.605
14882TIP3   OH244530   7.544   5.570   5.721
14882TIP3    H144531   7.601   5.513   5.773
14882TIP3    H244532   7.562   5.658   5.754
14883TIP3   OH244533   7.810   5.180   4.416
14883TIP3    H144534   7.805   5.089   4.387
14883TIP3    H244535   7.798   5.176   4.511
14884TIP3   OH244536   7.775   5.185   4.690
14884TIP3    H144537   7.839   5.171   4.760
14884TIP3    H244538   7.757   5.279   4.692
14885TIP3   OH244539   7.492   4.881   4.877
14885TIP3    H144540   7.435   4.946   4.919
14885TIP3    H244541   7.543   4.931   4.813
14886TIP3   OH244542   8.633   4.511   5.769
14886TIP3    H144543   8.712   4.558   5.796
14886TIP3    H244544   8.631   4.434   5.826
14887TIP3   OH244545   8.535   4.257   4.964
14887TIP3    H144546   8.517   4.274   4.872
14887TIP3    H244547   8.579   4.337   4.995
14888TIP3   OH244548   8.028   5.381   4.631
14888TIP3    H144549   7.939   5.401   4.662
14888TIP3    H244550   8.047   5.451   4.568
14889TIP3   OH244551   8.188   4.454   5.048
14889TIP3    H144552   8.250   4.521   5.021
14889TIP3    H244553   8.213   4.433   5.138
14890TIP3   OH244554   8.480   4.749   5.821
14890TIP3    H144555   8.509   4.790   5.903
14890TIP3    H244556   8.529   4.666   5.817
14891TIP3   OH244557   8.350   4.147   5.136
14891TIP3    H144558   8.326   4.224   5.188
14891TIP3    H244559   8.420   4.178   5.078
14892TIP3   OH244560   7.773   5.463   4.699
14892TIP3    H144561   7.745   5.528   4.635
14892TIP3    H244562   7.761   5.507   4.783
14893TIP3   OH244563   7.864   4.176   4.947
14893TIP3    H144564   7.853   4.268   4.973
14893TIP3    H244565   7.958   4.161   4.952
14894TIP3   OH244566   9.096   4.679   5.834
14894TIP3    H144567   9.002   4.663   5.826
14894TIP3    H244568   9.129   4.676   5.744
14895TIP3   OH244569   8.763   4.852   5.197
14895TIP3    H144570   8.689   4.794   5.211
14895TIP3    H244571   8.835   4.814   5.247
14896TIP3   OH244572   7.416   4.356   4.804
14896TIP3    H144573   7.422   4.451   4.813
14896TIP3    H244574   7.397   4.341   4.712
14897TIP3   OH244575   8.754   5.820   5.141
14897TIP3    H144576   8.708   5.870   5.074
14897TIP3    H244577   8.845   5.847   5.134
14898TIP3   OH244578   7.813   4.071   5.680
14898TIP3    H144579   7.785   4.039   5.595
14898TIP3    H244580   7.806   3.995   5.738
14899TIP3   OH244581   7.357   5.328   5.099
14899TIP3    H144582   7.317   5.367   5.176
14899TIP3    H244583   7.305   5.361   5.025
14900TIP3   OH244584   7.530   5.861   6.147
14900TIP3    H144585   7.611   5.861   6.198
14900TIP3    H244586   7.500   5.770   6.148
14901TIP3   OH244587   8.004   5.776   6.174
14901TIP3    H144588   8.090   5.738   6.194
14901TIP3    H244589   7.970   5.722   6.103
14902TIP3   OH244590   7.975   5.373   4.308
14902TIP3    H144591   7.918   5.307   4.347
14902TIP3    H244592   8.046   5.323   4.269
14903TIP3   OH244593   8.679   5.699   5.904
14903TIP3    H144594   8.660   5.642   5.978
14903TIP3    H244595   8.712   5.780   5.944
14904TIP3   OH244596   8.412   5.421   4.235
14904TIP3    H144597   8.448   5.356   4.295
14904TIP3    H244598   8.468   5.415   4.157
14905TIP3   OH244599   7.613   4.880   4.560
14905TIP3    H144600   7.676   4.862   4.630
14905TIP3    H244601   7.667   4.904   4.485
14906TIP3   OH244602   8.268   5.357   6.110
14906TIP3    H144603   8.223   5.377   6.028
14906TIP3    H244604   8.310   5.272   6.095
14907TIP3   OH244605   8.221   5.085   4.367
14907TIP3    H144606   8.190   5.098   4.457
14907TIP3    H244607   8.194   4.996   4.346
14908TIP3   OH244608   8.737   5.383   5.718
14908TIP3    H144609   8.814   5.406   5.667
14908TIP3    H244610   8.672   5.450   5.696
14909TIP3   OH244611   7.738   5.024   6.349
14909TIP3    H144612   7.798   5.056   6.281
14909TIP3    H244613   7.782   5.045   6.431
14910TIP3   OH244614   7.806   4.808   4.747
14910TIP3    H144615   7.793   4.769   4.834
14910TIP3    H244616   7.854   4.742   4.698
14911TIP3   OH244617   8.063   4.862   5.991
14911TIP3    H144618   8.003   4.927   6.025
14911TIP3    H244619   8.123   4.911   5.934
14912TIP3   OH244620   7.946   4.632   4.583
14912TIP3    H144621   7.914   4.637   4.493
14912TIP3    H244622   8.042   4.638   4.575
14913TIP3   OH244623   8.620   5.285   6.068
14913TIP3    H144624   8.693   5.250   6.018
14913TIP3    H244625   8.616   5.230   6.147
14914TIP3   OH244626   8.736   4.912   4.268
14914TIP3    H144627   8.724   4.871   4.183
14914TIP3    H244628   8.714   5.005   4.254
14915TIP3   OH244629   8.221   4.659   6.099
14915TIP3    H144630   8.230   4.587   6.036
14915TIP3    H244631   8.174   4.727   6.050
14916TIP3   OH244632   8.233   4.459   5.898
14916TIP3    H144633   8.263   4.490   5.812
14916TIP3    H244634   8.143   4.431   5.883
14917TIP3   OH244635   8.229   5.013   5.827
14917TIP3    H144636   8.313   5.003   5.782
14917TIP3    H244637   8.175   5.064   5.767
14918TIP3   OH244638   8.833   4.938   6.143
14918TIP3    H144639   8.859   4.848   6.161
14918TIP3    H244640   8.911   4.979   6.107
14919TIP3   OH244641   8.848   5.215   5.897
14919TIP3    H144642   8.796   5.273   5.842
14919TIP3    H244643   8.938   5.225   5.865
14920TIP3   OH244644   8.110   4.738   6.345
14920TIP3    H144645   8.042   4.673   6.363
14920TIP3    H244646   8.140   4.717   6.256
14921TIP3   OH244647   8.355   4.229   6.003
14921TIP3    H144648   8.315   4.309   5.969
14921TIP3    H244649   8.289   4.162   5.989
14922TIP3   OH244650   8.479   4.700   6.202
14922TIP3    H144651   8.471   4.687   6.296
14922TIP3    H244652   8.392   4.680   6.167
14923TIP3   OH244653   8.727   4.656   6.074
14923TIP3    H144654   8.648   4.654   6.128
14923TIP3    H244655   8.797   4.629   6.134
14924TIP3   OH244656   8.952   4.620   6.231
14924TIP3    H144657   8.969   4.525   6.235
14924TIP3    H244658   8.951   4.648   6.322
14925TIP3   OH244659   7.938   4.524   6.410
14925TIP3    H144660   7.944   4.437   6.372
14925TIP3    H244661   7.978   4.516   6.497
14926TIP3   OH244662   8.419   4.205   6.268
14926TIP3    H144663   8.489   4.139   6.262
14926TIP3    H244664   8.390   4.217   6.178
14927TIP3   OH244665   8.518   4.419   6.411
14927TIP3    H144666   8.486   4.347   6.357
14927TIP3    H244667   8.445   4.482   6.412
14928TIP3   OH244668   7.760   5.670   4.500
14928TIP3    H144669   7.852   5.651   4.484
14928TIP3    H244670   7.724   5.693   4.415
14929TIP3   OH244671   7.130   5.636   5.164
14929TIP3    H144672   7.067   5.582   5.115
14929TIP3    H244673   7.175   5.574   5.221
14930TIP3   OH244674   7.278   5.468   5.330
14930TIP3    H144675   7.269   5.403   5.400
14930TIP3    H244676   7.334   5.536   5.367
14931TIP3   OH244677   9.006   5.930   5.135
14931TIP3    H144678   9.017   6.023   5.154
14931TIP3    H244679   9.067   5.913   5.063
14932TIP3   OH244680   9.063   5.880   5.434
14932TIP3    H144681   9.007   5.802   5.429
14932TIP3    H244682   9.096   5.890   5.345
14933TIP3   OH244683   8.904   5.129   4.601
14933TIP3    H144684   8.961   5.199   4.570
14933TIP3    H244685   8.950   5.092   4.677
14934TIP3   OH244686   9.027   4.990   4.806
14934TIP3    H144687   8.956   4.946   4.852
14934TIP3    H244688   9.094   5.003   4.872
14935TIP3   OH244689   9.075   5.386   5.214
14935TIP3    H144690   9.124   5.311   5.180
14935TIP3    H244691   9.089   5.455   5.149
14936TIP3   OH244692   8.895   5.659   5.434
14936TIP3    H144693   8.828   5.708   5.482
14936TIP3    H244694   8.849   5.622   5.359
14937TIP3   OH244695   8.935   4.899   4.454
14937TIP3    H144696   8.865   4.898   4.390
14937TIP3    H244697   8.922   4.979   4.504
14938TIP3   OH244698   8.813   4.561   4.376
14938TIP3    H144699   8.761   4.605   4.308
14938TIP3    H244700   8.793   4.468   4.366
14939TIP3   OH244701   8.828   4.842   4.927
14939TIP3    H144702   8.834   4.747   4.913
14939TIP3    H244703   8.813   4.851   5.021
14940TIP3   OH244704   7.469   4.889   5.728
14940TIP3    H144705   7.462   4.867   5.635
14940TIP3    H244706   7.562   4.904   5.742
14941TIP3   OH244707   9.096   5.266   5.790
14941TIP3    H144708   9.168   5.203   5.782
14941TIP3    H244709   9.085   5.301   5.702
14942TIP3   OH244710   9.280   5.062   5.808
14942TIP3    H144711   9.205   5.020   5.852
14942TIP3    H244712   9.352   5.001   5.822
14943TIP3   OH244713   8.739   4.298   4.352
14943TIP3    H144714   8.807   4.275   4.415
14943TIP3    H244715   8.662   4.249   4.380
14944TIP3   OH244716   8.822   4.573   4.817
14944TIP3    H144717   8.864   4.489   4.835
14944TIP3    H244718   8.868   4.608   4.741
14945TIP3   OH244719   8.976   4.731   5.330
14945TIP3    H144720   9.055   4.741   5.278
14945TIP3    H244721   8.997   4.769   5.415
14946TIP3   OH244722   9.041   4.876   5.569
14946TIP3    H144723   8.968   4.910   5.620
14946TIP3    H244724   9.071   4.951   5.517
14947TIP3   OH244725   7.671   4.582   6.355
14947TIP3    H144726   7.765   4.579   6.370
14947TIP3    H244727   7.638   4.498   6.388
14948TIP3   OH244728   9.488   4.517   6.114
14948TIP3    H144729   9.560   4.467   6.076
14948TIP3    H244730   9.446   4.559   6.038
14949TIP3   OH244731   8.922   4.329   4.892
14949TIP3    H144732   8.976   4.320   4.971
14949TIP3    H244733   8.867   4.251   4.891
14950TIP3   OH244734   7.653   4.298   5.703
14950TIP3    H144735   7.705   4.217   5.706
14950TIP3    H244736   7.716   4.366   5.681
14951TIP3   OH244737   7.428   4.571   5.746
14951TIP3    H144738   7.484   4.550   5.671
14951TIP3    H244739   7.448   4.663   5.765
14952TIP3   OH244740   9.347   4.601   5.901
14952TIP3    H144741   9.259   4.636   5.912
14952TIP3    H244742   9.336   4.522   5.849
14953TIP3   OH244743   8.960   4.259   4.520
14953TIP3    H144744   8.997   4.196   4.458
14953TIP3    H244745   9.031   4.321   4.536
14954TIP3   OH244746   7.421   4.079   5.254
14954TIP3    H144747   7.336   4.065   5.295
14954TIP3    H244748   7.402   4.131   5.176
14955TIP3   OH244749   8.579   5.790   4.776
14955TIP3    H144750   8.634   5.780   4.698
14955TIP3    H244751   8.622   5.860   4.826
14956TIP3   OH244752   7.648   4.126   6.088
14956TIP3    H144753   7.595   4.117   6.167
14956TIP3    H244754   7.592   4.174   6.027
14957TIP3   OH244755   7.679   5.507   6.157
14957TIP3    H144756   7.590   5.537   6.140
14957TIP3    H244757   7.689   5.513   6.252
14958TIP3   OH244758   7.882   5.636   5.704
14958TIP3    H144759   7.829   5.706   5.665
14958TIP3    H244760   7.967   5.645   5.662
14959TIP3   OH244761   8.291   5.853   5.858
14959TIP3    H144762   8.338   5.832   5.939
14959TIP3    H244763   8.350   5.912   5.811
14960TIP3   OH244764   8.468   6.016   5.723
14960TIP3    H144765   8.519   5.966   5.660
14960TIP3    H244766   8.533   6.064   5.774
14961TIP3   OH244767   9.264   4.366   5.787
14961TIP3    H144768   9.183   4.373   5.736
14961TIP3    H244769   9.290   4.274   5.778
14962TIP3   OH244770   7.553   5.860   5.762
14962TIP3    H144771   7.463   5.882   5.739
14962TIP3    H244772   7.579   5.928   5.825
14963TIP3   OH244773   7.768   5.863   5.585
14963TIP3    H144774   7.690   5.872   5.640
14963TIP3    H244775   7.740   5.889   5.498
14964TIP3   OH244776   8.193   5.891   5.405
14964TIP3    H144777   8.127   5.896   5.336
14964TIP3    H244778   8.200   5.980   5.439
14965TIP3   OH244779   8.454   5.822   5.466
14965TIP3    H144780   8.363   5.841   5.439
14965TIP3    H244781   8.507   5.877   5.408
14966TIP3   OH244782   8.662   5.969   5.351
14966TIP3    H144783   8.662   6.056   5.312
14966TIP3    H244784   8.690   5.911   5.280
14967TIP3   OH244785   7.457   5.641   5.470
14967TIP3    H144786   7.489   5.621   5.558
14967TIP3    H244787   7.527   5.612   5.412
14968TIP3   OH244788   7.655   5.526   5.324
14968TIP3    H144789   7.664   5.441   5.367
14968TIP3    H244790   7.742   5.566   5.331
14969TIP3   OH244791   7.916   5.593   5.372
14969TIP3    H144792   7.945   5.502   5.364
14969TIP3    H244793   7.980   5.633   5.431
14970TIP3   OH244794   8.481   4.268   5.446
14970TIP3    H144795   8.441   4.197   5.495
14970TIP3    H244796   8.547   4.226   5.391
14971TIP3   OH244797   8.976   4.192   5.313
14971TIP3    H144798   9.024   4.246   5.250
14971TIP3    H244799   8.890   4.234   5.320
14972TIP3   OH244800   9.105   4.290   5.093
14972TIP3    H144801   9.166   4.223   5.061
14972TIP3    H244802   9.151   4.372   5.079
14973TIP3   OH244803   7.727   3.968   5.438
14973TIP3    H144804   7.638   3.934   5.448
14973TIP3    H244805   7.782   3.891   5.429
14974TIP3   OH244806   7.553   3.882   5.094
14974TIP3    H144807   7.578   3.928   5.014
14974TIP3    H244808   7.515   3.949   5.150
14975TIP3   OH244809   8.210   4.005   5.335
14975TIP3    H144810   8.257   4.052   5.266
14975TIP3    H244811   8.251   4.035   5.417
14976TIP3   OH244812   8.685   4.150   5.309
14976TIP3    H144813   8.712   4.119   5.223
14976TIP3    H244814   8.700   4.075   5.368
14977TIP3   OH244815   8.757   4.107   4.897
14977TIP3    H144816   8.675   4.150   4.917
14977TIP3    H244817   8.747   4.018   4.932
14978TIP3   OH244818   7.221   5.422   4.883
14978TIP3    H144819   7.139   5.400   4.837
14978TIP3    H244820   7.247   5.506   4.845
14979TIP3   OH244821   7.657   4.006   4.854
14979TIP3    H144822   7.703   3.946   4.795
14979TIP3    H244823   7.726   4.063   4.889
14980TIP3   OH244824   8.139   4.202   4.953
14980TIP3    H144825   8.199   4.149   5.005
14980TIP3    H244826   8.155   4.292   4.980
14981TIP3   OH244827   8.023   5.600   4.450
14981TIP3    H144828   8.106   5.629   4.412
14981TIP3    H244829   7.995   5.527   4.395
14982TIP3   OH244830   8.730   5.745   4.547
14982TIP3    H144831   8.725   5.650   4.540
14982TIP3    H244832   8.686   5.777   4.468
14983TIP3   OH244833   7.956   4.254   6.320
14983TIP3    H144834   7.922   4.188   6.380
14983TIP3    H244835   8.049   4.262   6.344
14984TIP3   OH244836   8.204   4.257   6.443
14984TIP3    H144837   8.281   4.235   6.391
14984TIP3    H244838   8.199   4.189   6.509
14985TIP3   OH244839   9.021   4.351   6.231
14985TIP3    H144840   9.041   4.328   6.321
14985TIP3    H244841   9.106   4.346   6.186
14986TIP3   OH244842   8.908   5.905   5.792
14986TIP3    H144843   8.849   5.853   5.738
14986TIP3    H244844   8.885   5.996   5.772
14987TIP3   OH244845   9.479   5.144   5.280
14987TIP3    H144846   9.486   5.064   5.332
14987TIP3    H244847   9.499   5.215   5.341
14988TIP3   OH244848   9.440   5.572   4.987
14988TIP3    H144849   9.422   5.478   4.986
14988TIP3    H244850   9.531   5.579   5.017
14989TIP3   OH244851   9.178   4.766   4.727
14989TIP3    H144852   9.138   4.850   4.750
14989TIP3    H244853   9.107   4.716   4.687
14990TIP3   OH244854   9.245   4.976   4.974
14990TIP3    H144855   9.238   4.911   5.044
14990TIP3    H244856   9.320   4.948   4.922
14991TIP3   OH244857   0.203   5.512   4.975
14991TIP3    H144858   0.244   5.502   4.889
14991TIP3    H244859   0.273   5.543   5.031
14992TIP3   OH244860   0.019   4.666   5.053
14992TIP3    H144861   0.091   4.707   5.005
14992TIP3    H244862   0.061   4.600   5.108
14993TIP3   OH244863   0.121   5.080   4.869
14993TIP3    H144864   0.209   5.048   4.889
14993TIP3    H244865   0.067   5.001   4.865
14994TIP3   OH244866   9.676   4.586   5.376
14994TIP3    H144867   9.613   4.589   5.304
14994TIP3    H244868   9.628   4.620   5.451
14995TIP3   OH244869   0.018   5.394   5.129
14995TIP3    H144870  -0.031   5.459   5.180
14995TIP3    H244871   0.086   5.445   5.085
14996TIP3   OH244872   9.638   5.601   5.208
14996TIP3    H144873   9.627   5.693   5.184
14996TIP3    H244874   9.565   5.583   5.267
14997TIP3   OH244875   9.068   5.319   4.480
14997TIP3    H144876   9.023   5.337   4.397
14997TIP3    H244877   9.094   5.405   4.512
14998TIP3   OH244878   9.477   5.302   4.715
14998TIP3    H144879   9.427   5.268   4.641
14998TIP3    H244880   9.553   5.243   4.722
14999TIP3   OH244881   9.757   5.690   4.868
14999TIP3    H144882   9.737   5.597   4.865
14999TIP3    H244883   9.851   5.695   4.847
15000TIP3   OH244884   9.678   5.177   5.020
15000TIP3    H144885   9.740   5.130   4.965
15000TIP3    H244886   9.733   5.235   5.074
15001TIP3   OH244887   9.824   5.711   5.387
15001TIP3    H144888   9.781   5.783   5.433
15001TIP3    H244889   9.754   5.668   5.338
15002TIP3   OH244890   9.548   5.322   5.471
15002TIP3    H144891   9.578   5.400   5.517
15002TIP3    H244892   9.479   5.286   5.527
15003TIP3   OH244893   0.281   5.792   4.457
15003TIP3    H144894   0.361   5.741   4.443
15003TIP3    H244895   0.215   5.745   4.406
15004TIP3   OH244896   9.642   5.919   5.453
15004TIP3    H144897   9.616   5.903   5.363
15004TIP3    H244898   9.568   5.890   5.506
15005TIP3   OH244899   9.438   5.139   4.500
15005TIP3    H144900   9.364   5.123   4.442
15005TIP3    H244901   9.457   5.055   4.540
15006TIP3   OH244902   9.262   5.430   5.414
15006TIP3    H144903   9.196   5.412   5.347
15006TIP3    H244904   9.287   5.344   5.447
15007TIP3   OH244905   9.174   5.609   5.066
15007TIP3    H144906   9.262   5.592   5.034
15007TIP3    H244907   9.185   5.676   5.133
15008TIP3   OH244908   0.252   5.785   5.264
15008TIP3    H144909   0.250   5.879   5.282
15008TIP3    H244910   0.172   5.751   5.305
15009TIP3   OH244911   9.323   5.785   4.569
15009TIP3    H144912   9.345   5.784   4.662
15009TIP3    H244913   9.259   5.715   4.559
15010TIP3   OH244914   9.439   5.636   5.400
15010TIP3    H144915   9.489   5.622   5.481
15010TIP3    H244916   9.378   5.563   5.396
15011TIP3   OH244917   0.060   4.458   5.226
15011TIP3    H144918   0.001   4.398   5.180
15011TIP3    H244919   0.004   4.506   5.286
15012TIP3   OH244920   0.101   4.997   5.151
15012TIP3    H144921   0.085   4.923   5.209
15012TIP3    H244922   0.059   4.972   5.068
15013TIP3   OH244923   9.699   4.709   4.736
15013TIP3    H144924   9.606   4.695   4.751
15013TIP3    H244925   9.705   4.735   4.644
15014TIP3   OH244926   9.532   4.969   5.491
15014TIP3    H144927   9.579   5.007   5.565
15014TIP3    H244928   9.540   4.875   5.504
15015TIP3   OH244929   9.756   4.500   4.106
15015TIP3    H144930   9.746   4.413   4.144
15015TIP3    H244931   9.666   4.533   4.098
15016TIP3   OH244932   9.246   4.510   5.027
15016TIP3    H144933   9.250   4.590   5.081
15016TIP3    H244934   9.324   4.516   4.971
15017TIP3   OH244935   9.157   4.471   4.519
15017TIP3    H144936   9.208   4.520   4.455
15017TIP3    H244937   9.096   4.535   4.556
15018TIP3   OH244938   9.429   4.670   4.759
15018TIP3    H144939   9.338   4.699   4.758
15018TIP3    H244940   9.424   4.576   4.772
15019TIP3   OH244941   9.681   4.752   4.466
15019TIP3    H144942   9.738   4.828   4.459
15019TIP3    H244943   9.626   4.756   4.388
15020TIP3   OH244944   9.472   4.788   4.285
15020TIP3    H144945   9.396   4.731   4.297
15020TIP3    H244946   9.514   4.756   4.205
15021TIP3   OH244947   9.581   5.547   5.631
15021TIP3    H144948   9.670   5.574   5.651
15021TIP3    H244949   9.563   5.476   5.693
15022TIP3   OH244950   9.665   4.270   4.712
15022TIP3    H144951   9.688   4.321   4.789
15022TIP3    H244952   9.671   4.332   4.639
15023TIP3   OH244953   9.814   5.296   4.269
15023TIP3    H144954   9.796   5.203   4.253
15023TIP3    H244955   9.785   5.311   4.359
15024TIP3   OH244956   0.396   5.594   5.144
15024TIP3    H144957   0.481   5.582   5.187
15024TIP3    H244958   0.362   5.676   5.180
15025TIP3   OH244959   9.433   5.303   4.988
15025TIP3    H144960   9.422   5.279   4.896
15025TIP3    H244961   9.495   5.239   5.022
15026TIP3   OH244962   9.322   5.209   5.579
15026TIP3    H144963   9.335   5.160   5.660
15026TIP3    H244964   9.268   5.151   5.525
15027TIP3   OH244965   0.370   5.229   5.508
15027TIP3    H144966   0.286   5.185   5.498
15027TIP3    H244967   0.434   5.158   5.508
15028TIP3   OH244968   9.539   5.547   4.585
15028TIP3    H144969   9.465   5.606   4.569
15028TIP3    H244970   9.505   5.483   4.647
15029TIP3   OH244971   9.152   4.883   4.288
15029TIP3    H144972   9.192   4.970   4.296
15029TIP3    H244973   9.077   4.885   4.347
15030TIP3   OH244974   9.715   5.325   4.520
15030TIP3    H144975   9.661   5.397   4.555
15030TIP3    H244976   9.710   5.257   4.587
15031TIP3   OH244977   0.050   5.908   5.058
15031TIP3    H144978   0.133   5.957   5.057
15031TIP3    H244979   0.074   5.821   5.027
15032TIP3   OH244980   9.542   5.903   4.450
15032TIP3    H144981   9.463   5.861   4.484
15032TIP3    H244982   9.561   5.973   4.513
15033TIP3   OH244983   9.550   4.702   5.583
15033TIP3    H144984   9.455   4.705   5.596
15033TIP3    H244985   9.584   4.659   5.662
15034TIP3   OH244986   9.300   5.825   5.228
15034TIP3    H144987   9.352   5.764   5.281
15034TIP3    H244988   9.332   5.912   5.253
15035TIP3   OH244989   9.494   5.418   3.856
15035TIP3    H144990   9.499   5.324   3.869
15035TIP3    H244991   9.468   5.453   3.941
15036TIP3   OH244992   9.449   5.499   4.114
15036TIP3    H144993   9.489   5.444   4.181
15036TIP3    H244994   9.455   5.588   4.149
15037TIP3   OH244995   9.226   5.145   4.332
15037TIP3    H144996   9.170   5.194   4.392
15037TIP3    H244997   9.240   5.204   4.258
15038TIP3   OH244998   0.090   5.732   4.023
15038TIP3    H144999  -0.002   5.754   4.037
15038TIP3    H245000   0.115   5.782   3.946
15039TIP3   OH245001   9.468   5.753   4.221
15039TIP3    H145002   9.523   5.791   4.153
15039TIP3    H245003   9.491   5.801   4.301
15040TIP3   OH245004   9.723   4.311   4.295
15040TIP3    H145005   9.659   4.370   4.336
15040TIP3    H245006   9.803   4.323   4.346
15041TIP3   OH245007   9.239   5.327   4.114
15041TIP3    H145008   9.299   5.402   4.119
15041TIP3    H245009   9.278   5.270   4.048
15042TIP3   OH245010   9.240   4.627   4.300
15042TIP3    H145011   9.205   4.716   4.300
15042TIP3    H245012   9.180   4.577   4.244
15043TIP3   OH245013   9.629   4.319   5.176
15043TIP3    H145014   9.585   4.288   5.096
15043TIP3    H245015   9.592   4.265   5.246
15044TIP3   OH245016   9.128   5.587   4.557
15044TIP3    H145017   9.081   5.619   4.634
15044TIP3    H245018   9.083   5.627   4.483
15045TIP3   OH245019   9.345   6.110   5.633
15045TIP3    H145020   9.411   6.135   5.698
15045TIP3    H245021   9.365   6.019   5.611
15046TIP3   OH245022   9.748   6.097   5.640
15046TIP3    H145023   9.841   6.088   5.661
15046TIP3    H245024   9.728   6.019   5.588
15047TIP3   OH245025   9.362   5.520   5.869
15047TIP3    H145026   9.425   5.451   5.848
15047TIP3    H245027   9.309   5.530   5.790
15048TIP3   OH245028   9.382   5.149   3.959
15048TIP3    H145029   9.417   5.111   4.039
15048TIP3    H245030   9.450   5.135   3.894
15049TIP3   OH245031   0.239   5.627   5.572
15049TIP3    H145032   0.217   5.588   5.488
15049TIP3    H245033   0.319   5.677   5.556
15050TIP3   OH245034   9.547   5.325   5.794
15050TIP3    H145035   9.587   5.248   5.753
15050TIP3    H245036   9.573   5.319   5.886
15051TIP3   OH245037   9.505   5.037   4.173
15051TIP3    H145038   9.480   4.965   4.232
15051TIP3    H245039   9.600   5.035   4.172
15052TIP3   OH245040   0.159   5.058   5.478
15052TIP3    H145041   0.080   5.094   5.438
15052TIP3    H245042   0.204   5.015   5.405
15053TIP3   OH245043   9.716   4.782   4.139
15053TIP3    H145044   9.701   4.836   4.061
15053TIP3    H245045   9.810   4.765   4.139
15054TIP3   OH245046   0.075   4.809   5.614
15054TIP3    H145047   0.128   4.763   5.549
15054TIP3    H245048   0.013   4.859   5.563
15055TIP3   OH245049   0.215   4.650   5.436
15055TIP3    H145050   0.310   4.647   5.433
15055TIP3    H245051   0.189   4.676   5.347
15056TIP3   OH245052   0.247   5.235   5.197
15056TIP3    H145053   0.227   5.142   5.185
15056TIP3    H245054   0.168   5.280   5.166
15057TIP3   OH245055   0.101   4.959   5.845
15057TIP3    H145056   0.028   4.911   5.885
15057TIP3    H245057   0.110   4.920   5.758
15058TIP3   OH245058   9.693   4.804   5.934
15058TIP3    H145059   9.698   4.723   5.883
15058TIP3    H245060   9.720   4.778   6.022
15059TIP3   OH245061   8.989   5.309   4.208
15059TIP3    H145062   9.077   5.331   4.179
15059TIP3    H245063   8.970   5.225   4.166
15060TIP3   OH245064   8.938   5.894   4.643
15060TIP3    H145065   8.871   5.843   4.596
15060TIP3    H245066   8.977   5.831   4.704
15061TIP3   OH245067   9.074   5.722   4.812
15061TIP3    H145068   9.066   5.650   4.875
15061TIP3    H245069   9.122   5.790   4.859
15062TIP3   OH245070   9.226   5.162   5.178
15062TIP3    H145071   9.222   5.104   5.102
15062TIP3    H245072   9.318   5.164   5.201
15063TIP3   OH245073   9.443   4.850   5.839
15063TIP3    H145074   9.537   4.849   5.856
15063TIP3    H245075   9.412   4.765   5.870
15064TIP3   OH245076   9.157   4.268   4.753
15064TIP3    H145077   9.074   4.295   4.792
15064TIP3    H245078   9.216   4.342   4.767
15065TIP3   OH245079   9.414   4.379   5.540
15065TIP3    H145080   9.374   4.385   5.627
15065TIP3    H245081   9.359   4.435   5.485
15066TIP3   OH245082   9.461   5.854   5.650
15066TIP3    H145083   9.386   5.797   5.669
15066TIP3    H245084   9.526   5.830   5.716
15067TIP3   OH245085   9.613   5.876   5.183
15067TIP3    H145086   9.570   5.951   5.143
15067TIP3    H245087   9.704   5.882   5.153
15068TIP3   OH245088   0.286   6.046   5.315
15068TIP3    H145089   0.330   6.070   5.396
15068TIP3    H245090   0.257   6.129   5.278
15069TIP3   OH245091   9.324   6.128   5.238
15069TIP3    H145092   9.233   6.146   5.214
15069TIP3    H245093   9.345   6.196   5.302
15070TIP3   OH245094   9.535   6.110   5.065
15070TIP3    H145095   9.455   6.124   5.115
15070TIP3    H245096   9.517   6.147   4.979
15071TIP3   OH245097   0.147   6.180   4.851
15071TIP3    H145098   0.091   6.123   4.798
15071TIP3    H245099   0.193   6.120   4.910
15072TIP3   OH245100   0.535   6.086   4.910
15072TIP3    H145101   0.561   6.118   4.824
15072TIP3    H245102   0.589   6.135   4.971
15073TIP3   OH245103   9.229   5.905   4.968
15073TIP3    H145104   9.256   5.883   5.057
15073TIP3    H245105   9.299   5.871   4.913
15074TIP3   OH245106   9.424   5.790   4.822
15074TIP3    H145107   9.437   5.710   4.872
15074TIP3    H245108   9.506   5.838   4.830
15075TIP3   OH245109   9.659   5.936   4.850
15075TIP3    H145110   9.697   5.849   4.842
15075TIP3    H245111   9.690   5.969   4.935
15076TIP3   OH245112   9.491   4.211   4.970
15076TIP3    H145113   9.404   4.172   4.975
15076TIP3    H245114   9.551   4.136   4.975
15077TIP3   OH245115   9.242   4.099   4.558
15077TIP3    H145116   9.275   4.162   4.494
15077TIP3    H245117   9.210   4.153   4.630
15078TIP3   OH245118   9.012   5.708   4.342
15078TIP3    H145119   8.930   5.675   4.304
15078TIP3    H245120   9.016   5.799   4.313
15079TIP3   OH245121   9.386   4.263   4.386
15079TIP3    H145122   9.405   4.221   4.302
15079TIP3    H245123   9.449   4.224   4.447
15080TIP3   OH245124   9.669   4.567   5.792
15080TIP3    H145125   9.668   4.499   5.859
15080TIP3    H245126   9.748   4.549   5.741
15081TIP3   OH245127   0.122   4.599   5.961
15081TIP3    H145128   0.196   4.634   5.911
15081TIP3    H245129   0.144   4.507   5.974
15082TIP3   OH245130   9.087   5.682   4.038
15082TIP3    H145131   9.109   5.701   4.129
15082TIP3    H245132   9.172   5.670   3.995
15083TIP3   OH245133   0.898   5.836   6.698
15083TIP3    H145134   0.881   5.916   6.650
15083TIP3    H245135   0.844   5.770   6.656
15084TIP3   OH245136   0.906   5.783   7.097
15084TIP3    H145137   0.962   5.772   7.173
15084TIP3    H245138   0.871   5.695   7.079
15085TIP3   OH245139   1.157   6.097   6.770
15085TIP3    H145140   1.141   6.029   6.836
15085TIP3    H245141   1.173   6.176   6.821
15086TIP3   OH245142   0.791   6.542   6.783
15086TIP3    H145143   0.840   6.467   6.749
15086TIP3    H245144   0.781   6.524   6.876
15087TIP3   OH245145   0.689   5.957   7.074
15087TIP3    H145146   0.756   5.888   7.070
15087TIP3    H245147   0.734   6.031   7.114
15088TIP3   OH245148   1.717   5.325   7.112
15088TIP3    H145149   1.726   5.411   7.153
15088TIP3    H245150   1.743   5.339   7.021
15089TIP3   OH245151   1.108   5.508   7.149
15089TIP3    H145152   1.144   5.422   7.172
15089TIP3    H245153   1.061   5.492   7.067
15090TIP3   OH245154   0.463   5.296   7.107
15090TIP3    H145155   0.391   5.334   7.058
15090TIP3    H245156   0.437   5.205   7.122
15091TIP3   OH245157   1.163   5.262   6.734
15091TIP3    H145158   1.222   5.255   6.809
15091TIP3    H245159   1.217   5.299   6.664
15092TIP3   OH245160   0.548   5.638   7.055
15092TIP3    H145161   0.639   5.610   7.048
15092TIP3    H245162   0.504   5.595   6.982
15093TIP3   OH245163   1.751   5.538   7.295
15093TIP3    H145164   1.682   5.599   7.268
15093TIP3    H245165   1.713   5.491   7.369
15094TIP3   OH245166   0.825   6.025   6.513
15094TIP3    H145167   0.779   5.979   6.443
15094TIP3    H245168   0.766   6.095   6.539
15095TIP3   OH245169   1.315   5.283   6.959
15095TIP3    H145170   1.274   5.262   7.043
15095TIP3    H245171   1.368   5.361   6.978
15096TIP3   OH245172   1.190   6.340   6.917
15096TIP3    H145173   1.104   6.330   6.958
15096TIP3    H245174   1.185   6.423   6.870
15097TIP3   OH245175   1.495   5.226   7.274
15097TIP3    H145176   1.407   5.238   7.237
15097TIP3    H245177   1.554   5.247   7.202
15098TIP3   OH245178   0.856   4.896   7.286
15098TIP3    H145179   0.843   4.807   7.254
15098TIP3    H245180   0.775   4.942   7.266
15099TIP3   OH245181   0.931   6.369   6.618
15099TIP3    H145182   0.983   6.292   6.593
15099TIP3    H245183   0.973   6.442   6.574
15100TIP3   OH245184   1.069   6.155   6.516
15100TIP3    H145185   0.994   6.097   6.505
15100TIP3    H245186   1.112   6.125   6.596
15101TIP3   OH245187   1.429   6.220   7.266
15101TIP3    H145188   1.405   6.151   7.204
15101TIP3    H245189   1.411   6.301   7.218
15102TIP3   OH245190   0.756   5.672   6.524
15102TIP3    H145191   0.679   5.728   6.512
15102TIP3    H245192   0.799   5.672   6.438
15103TIP3   OH245193   0.762   5.427   6.225
15103TIP3    H145194   0.826   5.485   6.266
15103TIP3    H245195   0.814   5.364   6.175
15104TIP3   OH245196   1.592   5.904   7.118
15104TIP3    H145197   1.507   5.948   7.116
15104TIP3    H245198   1.628   5.915   7.030
15105TIP3   OH245199   1.090   5.753   6.514
15105TIP3    H145200   1.043   5.785   6.590
15105TIP3    H245201   1.171   5.717   6.549
15106TIP3   OH245202   1.301   5.761   7.432
15106TIP3    H145203   1.294   5.842   7.482
15106TIP3    H245204   1.219   5.756   7.383
15107TIP3   OH245205   0.469   5.776   7.277
15107TIP3    H145206   0.497   5.749   7.190
15107TIP3    H245207   0.548   5.813   7.317
15108TIP3   OH245208   0.956   6.325   7.051
15108TIP3    H145209   0.930   6.409   7.088
15108TIP3    H245210   0.921   6.260   7.112
15109TIP3   OH245211   0.951   5.602   6.330
15109TIP3    H145212   1.005   5.663   6.381
15109TIP3    H245213   0.973   5.622   6.239
15110TIP3   OH245214   0.682   6.265   6.567
15110TIP3    H145215   0.764   6.300   6.601
15110TIP3    H245216   0.627   6.342   6.552
15111TIP3   OH245217   1.414   4.807   6.377
15111TIP3    H145218   1.340   4.823   6.435
15111TIP3    H245219   1.421   4.886   6.323
15112TIP3   OH245220   1.237   6.193   5.935
15112TIP3    H145221   1.230   6.287   5.915
15112TIP3    H245222   1.328   6.171   5.914
15113TIP3   OH245223   1.654   6.611   7.327
15113TIP3    H145224   1.658   6.516   7.336
15113TIP3    H245225   1.573   6.636   7.372
15114TIP3   OH245226   0.762   6.342   7.446
15114TIP3    H145227   0.766   6.430   7.485
15114TIP3    H245228   0.682   6.342   7.394
15115TIP3   OH245229   0.555   6.496   6.475
15115TIP3    H145230   0.524   6.481   6.386
15115TIP3    H245231   0.552   6.591   6.485
15116TIP3   OH245232   0.769   6.420   6.037
15116TIP3    H145233   0.826   6.352   6.003
15116TIP3    H245234   0.786   6.420   6.131
15117TIP3   OH245235   0.804   6.446   6.317
15117TIP3    H145236   0.728   6.453   6.375
15117TIP3    H245237   0.879   6.449   6.377
15118TIP3   OH245238   1.555   5.716   7.586
15118TIP3    H145239   1.471   5.727   7.542
15118TIP3    H245240   1.562   5.622   7.600
15119TIP3   OH245241   0.524   4.966   7.450
15119TIP3    H145242   0.540   4.907   7.376
15119TIP3    H245243   0.540   5.053   7.414
15120TIP3   OH245244   1.106   5.092   7.619
15120TIP3    H145245   1.171   5.057   7.680
15120TIP3    H245246   1.021   5.072   7.660
15121TIP3   OH245247   1.334   5.508   7.545
15121TIP3    H145248   1.282   5.498   7.624
15121TIP3    H245249   1.302   5.589   7.505
15122TIP3   OH245250   1.002   5.623   6.069
15122TIP3    H145251   0.949   5.603   5.991
15122TIP3    H245252   1.084   5.657   6.034
15123TIP3   OH245253   0.718   4.982   6.338
15123TIP3    H145254   0.679   4.988   6.425
15123TIP3    H245255   0.685   4.900   6.302
15124TIP3   OH245256   0.412   5.513   7.577
15124TIP3    H145257   0.402   5.425   7.613
15124TIP3    H245258   0.364   5.510   7.494
15125TIP3   OH245259   0.281   5.425   6.958
15125TIP3    H145260   0.213   5.483   6.993
15125TIP3    H245261   0.323   5.477   6.889
15126TIP3   OH245262   0.879   5.462   6.654
15126TIP3    H145263   0.850   5.542   6.611
15126TIP3    H245264   0.936   5.420   6.589
15127TIP3   OH245265   1.038   5.709   7.755
15127TIP3    H145266   1.008   5.642   7.815
15127TIP3    H245267   1.131   5.719   7.775
15128TIP3   OH245268   1.027   5.452   6.889
15128TIP3    H145269   0.954   5.473   6.831
15128TIP3    H245270   1.065   5.372   6.853
15129TIP3   OH245271   0.369   4.956   6.327
15129TIP3    H145272   0.380   5.034   6.381
15129TIP3    H245273   0.296   4.977   6.268
15130TIP3   OH245274   1.050   5.707   7.320
15130TIP3    H145275   1.074   5.638   7.259
15130TIP3    H245276   1.015   5.661   7.397
15131TIP3   OH245277   0.815   5.151   6.946
15131TIP3    H145278   0.728   5.136   6.983
15131TIP3    H245279   0.874   5.144   7.021
15132TIP3   OH245280   0.427   5.285   6.737
15132TIP3    H145281   0.473   5.361   6.702
15132TIP3    H245282   0.395   5.239   6.660
15133TIP3   OH245283   1.201   5.252   7.214
15133TIP3    H145284   1.177   5.274   7.304
15133TIP3    H245285   1.133   5.191   7.185
15134TIP3   OH245286   0.140   5.313   6.394
15134TIP3    H145287   0.089   5.243   6.436
15134TIP3    H245288   0.182   5.270   6.319
15135TIP3   OH245289   1.370   6.945   7.411
15135TIP3    H145290   1.366   6.961   7.317
15135TIP3    H245291   1.445   6.996   7.442
15136TIP3   OH245292   0.801   5.529   7.098
15136TIP3    H145293   0.773   5.464   7.033
15136TIP3    H245294   0.815   5.478   7.178
15137TIP3   OH245295   0.310   4.930   6.914
15137TIP3    H145296   0.298   4.921   6.820
15137TIP3    H245297   0.350   4.847   6.941
15138TIP3   OH245298   0.796   5.434   7.360
15138TIP3    H145299   0.707   5.467   7.370
15138TIP3    H245300   0.848   5.486   7.422
15139TIP3   OH245301   0.503   5.777   6.584
15139TIP3    H145302   0.457   5.704   6.541
15139TIP3    H245303   0.433   5.830   6.622
15140TIP3   OH245304   1.357   6.036   7.075
15140TIP3    H145305   1.391   6.088   7.002
15140TIP3    H245306   1.279   5.993   7.041
15141TIP3   OH245307   0.958   5.111   6.357
15141TIP3    H145308   0.865   5.087   6.354
15141TIP3    H245309   0.958   5.205   6.377
15142TIP3   OH245310   0.840   6.078   7.492
15142TIP3    H145311   0.887   6.072   7.575
15142TIP3    H245312   0.811   6.169   7.488
15143TIP3   OH245313   1.029   5.364   6.444
15143TIP3    H145314   1.123   5.361   6.459
15143TIP3    H245315   1.015   5.444   6.394
15144TIP3   OH245316   0.649   5.902   6.330
15144TIP3    H145317   0.640   5.996   6.315
15144TIP3    H245318   0.559   5.870   6.333
15145TIP3   OH245319   0.796   5.843   7.775
15145TIP3    H145320   0.734   5.783   7.735
15145TIP3    H245321   0.882   5.807   7.753
15146TIP3   OH245322   1.031   6.396   7.386
15146TIP3    H145323   0.938   6.373   7.390
15146TIP3    H245324   1.049   6.437   7.471
15147TIP3   OH245325   1.415   5.444   6.265
15147TIP3    H145326   1.360   5.397   6.203
15147TIP3    H245327   1.418   5.533   6.231
15148TIP3   OH245328   1.672   6.334   7.344
15148TIP3    H145329   1.580   6.308   7.350
15148TIP3    H245330   1.702   6.295   7.262
15149TIP3   OH245331   1.147   6.257   6.206
15149TIP3    H145332   1.126   6.189   6.270
15149TIP3    H245333   1.164   6.209   6.125
15150TIP3   OH245334   1.140   5.893   6.968
15150TIP3    H145335   1.051   5.871   6.994
15150TIP3    H245336   1.176   5.812   6.934
15151TIP3   OH245337   0.317   5.922   6.728
15151TIP3    H145338   0.350   6.006   6.696
15151TIP3    H245339   0.352   5.914   6.817
15152TIP3   OH245340   0.894   6.106   7.219
15152TIP3    H145341   0.879   6.096   7.313
15152TIP3    H245342   0.980   6.066   7.204
15153TIP3   OH245343   0.951   6.006   6.074
15153TIP3    H145344   0.994   5.971   6.152
15153TIP3    H245345   0.863   5.968   6.075
15154TIP3   OH245346   1.172   6.609   7.264
15154TIP3    H145347   1.105   6.543   7.279
15154TIP3    H245348   1.140   6.658   7.188
15155TIP3   OH245349   1.228   6.464   5.886
15155TIP3    H145350   1.238   6.522   5.810
15155TIP3    H245351   1.161   6.506   5.940
15156TIP3   OH245352   1.097   5.911   6.285
15156TIP3    H145353   1.085   5.869   6.370
15156TIP3    H245354   1.192   5.916   6.275
15157TIP3   OH245355   0.326   5.991   6.101
15157TIP3    H145356   0.361   5.904   6.083
15157TIP3    H245357   0.260   5.976   6.169
15158TIP3   OH245358   1.133   5.320   7.472
15158TIP3    H145359   1.213   5.358   7.508
15158TIP3    H245360   1.119   5.241   7.524
15159TIP3   OH245361   1.035   5.050   6.615
15159TIP3    H145362   1.010   5.077   6.526
15159TIP3    H245363   1.068   5.130   6.656
15160TIP3   OH245364   0.393   6.174   6.366
15160TIP3    H145365   0.343   6.234   6.311
15160TIP3    H245366   0.483   6.182   6.335
15161TIP3   OH245367   0.737   5.229   6.693
15161TIP3    H145368   0.780   5.313   6.678
15161TIP3    H245369   0.760   5.206   6.783
15162TIP3   OH245370   0.974   5.553   7.531
15162TIP3    H145371   0.993   5.596   7.614
15162TIP3    H245372   1.024   5.471   7.535
15163TIP3   OH245373   0.849   4.938   6.776
15163TIP3    H145374   0.830   5.012   6.833
15163TIP3    H245375   0.914   4.972   6.714
15164TIP3   OH245376   0.358   4.958   6.648
15164TIP3    H145377   0.327   5.035   6.600
15164TIP3    H245378   0.453   4.959   6.637
15165TIP3   OH245379   1.576   5.408   7.468
15165TIP3    H145380   1.492   5.440   7.500
15165TIP3    H245381   1.553   5.339   7.406
15166TIP3   OH245382   1.234   5.637   6.890
15166TIP3    H145383   1.158   5.580   6.898
15166TIP3    H245384   1.300   5.598   6.947
15167TIP3   OH245385   1.202   6.604   6.823
15167TIP3    H145386   1.160   6.657   6.755
15167TIP3    H245387   1.295   6.621   6.813
15168TIP3   OH245388   0.489   6.211   6.071
15168TIP3    H145389   0.426   6.141   6.088
15168TIP3    H245390   0.518   6.195   5.981
15169TIP3   OH245391   1.083   6.502   7.636
15169TIP3    H145392   1.099   6.430   7.697
15169TIP3    H245393   1.159   6.559   7.646
15170TIP3   OH245394   0.916   6.228   5.917
15170TIP3    H145395   0.947   6.158   5.975
15170TIP3    H245396   0.969   6.218   5.838
15171TIP3   OH245397   0.737   6.116   7.780
15171TIP3    H145398   0.658   6.108   7.727
15171TIP3    H245399   0.768   6.025   7.790
15172TIP3   OH245400   0.690   5.918   6.056
15172TIP3    H145401   0.686   5.902   6.150
15172TIP3    H245402   0.610   5.877   6.022
15173TIP3   OH245403   1.193   6.168   7.408
15173TIP3    H145404   1.271   6.196   7.360
15173TIP3    H245405   1.133   6.242   7.398
15174TIP3   OH245406   0.340   5.582   6.460
15174TIP3    H145407   0.250   5.554   6.472
15174TIP3    H245408   0.385   5.505   6.424
15175TIP3   OH245409   0.636   5.666   7.630
15175TIP3    H145410   0.552   5.623   7.613
15175TIP3    H245411   0.654   5.716   7.550
15176TIP3   OH245412   0.514   5.388   6.349
15176TIP3    H145413   0.461   5.394   6.270
15176TIP3    H245414   0.605   5.391   6.318
15177TIP3   OH245415   1.084   6.044   7.769
15177TIP3    H145416   1.145   6.000   7.709
15177TIP3    H245417   1.081   5.987   7.845
15178TIP3   OH245418   1.225   5.707   5.929
15178TIP3    H145419   1.204   5.662   5.847
15178TIP3    H245420   1.202   5.799   5.913
15179TIP3   OH245421   0.709   5.443   7.789
15179TIP3    H145422   0.709   5.371   7.727
15179TIP3    H245423   0.677   5.518   7.740
15180TIP3   OH245424   0.732   5.260   7.580
15180TIP3    H145425   0.788   5.301   7.513
15180TIP3    H245426   0.652   5.236   7.532
15181TIP3   OH245427   0.721   5.829   7.412
15181TIP3    H145428   0.794   5.796   7.361
15181TIP3    H245429   0.751   5.915   7.444
15182TIP3   OH245430   1.302   5.735   7.849
15182TIP3    H145431   1.350   5.652   7.857
15182TIP3    H245432   1.370   5.802   7.842
15183TIP3   OH245433   1.314   5.998   7.581
15183TIP3    H145434   1.260   6.059   7.531
15183TIP3    H245435   1.403   6.013   7.549
15184TIP3   OH245436   0.840   5.021   7.664
15184TIP3    H145437   0.793   5.102   7.644
15184TIP3    H245438   0.795   4.954   7.612
15185TIP3   OH245439   0.951   5.498   7.902
15185TIP3    H145440   0.939   5.483   7.995
15185TIP3    H245441   0.867   5.473   7.862
15186TIP3   OH245442   1.188   5.447   7.763
15186TIP3    H145443   1.109   5.448   7.818
15186TIP3    H245444   1.258   5.420   7.823
15187TIP3   OH245445   1.427   5.413   7.909
15187TIP3    H145446   1.439   5.318   7.915
15187TIP3    H245447   1.419   5.443   7.999
15188TIP3   OH245448   0.897   5.003   7.928
15188TIP3    H145449   0.962   4.932   7.925
15188TIP3    H245450   0.867   5.011   7.838
15189TIP3   OH245451   7.514   0.594   0.083
15189TIP3    H145452   7.490   0.522   0.025
15189TIP3    H245453   7.437   0.651   0.084
15190TIP3   OH245454   1.469   6.668   6.825
15190TIP3    H145455   1.486   6.684   6.918
15190TIP3    H245456   1.510   6.742   6.780
15191TIP3   OH245457   1.491   6.679   7.101
15191TIP3    H145458   1.446   6.594   7.105
15191TIP3    H245459   1.562   6.672   7.165
15192TIP3   OH245460   1.554   6.388   7.662
15192TIP3    H145461   1.482   6.398   7.725
15192TIP3    H245462   1.599   6.473   7.663
15193TIP3   OH245463   1.375   5.908   6.280
15193TIP3    H145464   1.430   5.981   6.252
15193TIP3    H245465   1.421   5.871   6.356
15194TIP3   OH245466   1.504   5.767   6.483
15194TIP3    H145467   1.439   5.728   6.541
15194TIP3    H245468   1.569   5.805   6.542
15195TIP3   OH245469   1.548   6.177   6.921
15195TIP3    H145470   1.596   6.110   6.871
15195TIP3    H245471   1.547   6.253   6.864
15196TIP3   OH245472   1.349   6.442   7.123
15196TIP3    H145473   1.281   6.490   7.170
15196TIP3    H245474   1.303   6.404   7.048
15197TIP3   OH245475   1.411   5.682   6.129
15197TIP3    H145476   1.346   5.685   6.059
15197TIP3    H245477   1.393   5.761   6.181
15198TIP3   OH245478   1.272   5.326   6.066
15198TIP3    H145479   1.219   5.368   5.998
15198TIP3    H245480   1.262   5.232   6.050
15199TIP3   OH245481   1.310   5.624   6.625
15199TIP3    H145482   1.313   5.530   6.607
15199TIP3    H245483   1.289   5.631   6.718
15200TIP3   OH245484   1.569   6.038   7.476
15200TIP3    H145485   1.644   5.983   7.454
15200TIP3    H245486   1.556   6.093   7.398
15201TIP3   OH245487   1.779   5.838   7.483
15201TIP3    H145488   1.698   5.799   7.514
15201TIP3    H245489   1.847   5.777   7.512
15202TIP3   OH245490   1.235   5.053   6.032
15202TIP3    H145491   1.296   5.034   6.103
15202TIP3    H245492   1.152   5.018   6.062
15203TIP3   OH245493   1.307   5.352   6.508
15203TIP3    H145494   1.348   5.266   6.518
15203TIP3    H245495   1.347   5.388   6.429
15204TIP3   OH245496   1.446   5.516   7.031
15204TIP3    H145497   1.528   5.535   6.985
15204TIP3    H245498   1.456   5.558   7.116
15205TIP3   OH245499   1.510   5.677   7.251
15205TIP3    H145500   1.438   5.703   7.308
15205TIP3    H245501   1.535   5.758   7.206
15206TIP3   OH245502   1.994   5.249   7.781
15206TIP3    H145503   2.058   5.190   7.741
15206TIP3    H245504   1.962   5.303   7.709
15207TIP3   OH245505   1.409   5.096   6.555
15207TIP3    H145506   1.451   5.084   6.640
15207TIP3    H245507   1.347   5.023   6.548
15208TIP3   OH245508   1.840   5.404   7.604
15208TIP3    H145509   1.773   5.438   7.663
15208TIP3    H245510   1.793   5.345   7.546
15209TIP3   OH245511   1.454   5.012   6.197
15209TIP3    H145512   1.505   4.952   6.143
15209TIP3    H245513   1.506   5.092   6.201
15210TIP3   OH245514   1.019   6.575   6.461
15210TIP3    H145515   1.082   6.560   6.390
15210TIP3    H245516   1.061   6.639   6.518
15211TIP3   OH245517   0.775   6.603   7.524
15211TIP3    H145518   0.788   6.622   7.617
15211TIP3    H245519   0.831   6.666   7.478
15212TIP3   OH245520   0.952   6.777   7.396
15212TIP3    H145521   1.020   6.725   7.355
15212TIP3    H245522   0.999   6.840   7.452
15213TIP3   OH245523   1.738   5.127   7.497
15213TIP3    H145524   1.648   5.110   7.470
15213TIP3    H245525   1.782   5.042   7.487
15214TIP3   OH245526   0.666   6.711   7.039
15214TIP3    H145527   0.572   6.695   7.045
15214TIP3    H245528   0.684   6.777   7.105
15215TIP3   OH245529   0.902   6.588   7.110
15215TIP3    H145530   0.816   6.625   7.092
15215TIP3    H245531   0.964   6.654   7.079
15216TIP3   OH245532   1.109   6.755   7.035
15216TIP3    H145533   1.108   6.845   7.003
15216TIP3    H245534   1.141   6.704   6.960
15217TIP3   OH245535   1.005   5.077   7.137
15217TIP3    H145536   0.958   5.014   7.193
15217TIP3    H245537   1.061   5.023   7.082
15218TIP3   OH245538   1.450   4.973   7.022
15218TIP3    H145539   1.479   5.026   6.948
15218TIP3    H245540   1.354   4.975   7.016
15219TIP3   OH245541   1.561   5.050   6.781
15219TIP3    H145542   1.631   4.990   6.756
15219TIP3    H245543   1.598   5.137   6.768
15220TIP3   OH245544   0.722   4.832   6.994
15220TIP3    H145545   0.776   4.851   6.918
15220TIP3    H245546   0.763   4.755   7.034
15221TIP3   OH245547   1.178   4.928   6.986
15221TIP3    H145548   1.172   4.904   6.893
15221TIP3    H245549   1.159   4.846   7.032
15222TIP3   OH245550   1.235   4.875   6.567
15222TIP3    H145551   1.158   4.928   6.584
15222TIP3    H245552   1.216   4.790   6.608
15223TIP3   OH245553   0.069   4.740   6.472
15223TIP3    H145554   0.160   4.710   6.471
15223TIP3    H245555   0.047   4.748   6.564
15224TIP3   OH245556   0.627   4.996   6.598
15224TIP3    H145557   0.676   4.936   6.654
15224TIP3    H245558   0.654   5.083   6.625
15225TIP3   OH245559   0.514   6.440   6.215
15225TIP3    H145560   0.533   6.508   6.150
15225TIP3    H245561   0.498   6.361   6.162
15226TIP3   OH245562   1.185   6.522   6.247
15226TIP3    H145563   1.179   6.427   6.238
15226TIP3    H245564   1.150   6.557   6.166
15227TIP3   OH245565   7.245   0.414   0.127
15227TIP3    H145566   7.299   0.415   0.048
15227TIP3    H245567   7.265   0.330   0.168
15228TIP3   OH245568   1.490   5.144   7.918
15228TIP3    H145569   1.506   5.115   8.008
15228TIP3    H245570   1.575   5.136   7.875
15229TIP3   OH245571   1.400   6.671   7.420
15229TIP3    H145572   1.323   6.641   7.371
15229TIP3    H245573   1.389   6.766   7.425
15230TIP3   OH245574   2.676   6.057   6.163
15230TIP3    H145575   2.645   6.144   6.138
15230TIP3    H245576   2.604   5.998   6.139
15231TIP3   OH245577   2.681   6.044   6.586
15231TIP3    H145578   2.732   6.027   6.666
15231TIP3    H245579   2.633   5.962   6.571
15232TIP3   OH245580   1.970   5.905   6.929
15232TIP3    H145581   2.008   5.856   7.001
15232TIP3    H245582   2.045   5.932   6.876
15233TIP3   OH245583   2.954   6.349   6.261
15233TIP3    H145584   2.935   6.287   6.331
15233TIP3    H245585   2.969   6.432   6.307
15234TIP3   OH245586   1.970   6.332   6.612
15234TIP3    H145587   1.951   6.239   6.622
15234TIP3    H245588   2.065   6.337   6.605
15235TIP3   OH245589   1.650   5.541   6.399
15235TIP3    H145590   1.612   5.625   6.424
15235TIP3    H245591   1.578   5.494   6.358
15236TIP3   OH245592   1.732   5.854   6.622
15236TIP3    H145593   1.782   5.777   6.649
15236TIP3    H245594   1.798   5.920   6.600
15237TIP3   OH245595   2.598   6.786   6.269
15237TIP3    H145596   2.627   6.722   6.205
15237TIP3    H245597   2.596   6.738   6.352
15238TIP3   OH245598   2.483   6.263   6.594
15238TIP3    H145599   2.529   6.185   6.565
15238TIP3    H245600   2.552   6.322   6.624
15239TIP3   OH245601   3.449   5.586   6.550
15239TIP3    H145602   3.383   5.654   6.536
15239TIP3    H245603   3.457   5.543   6.465
15240TIP3   OH245604   2.897   5.752   6.624
15240TIP3    H145605   2.926   5.666   6.656
15240TIP3    H245606   2.852   5.733   6.542
15241TIP3   OH245607   2.245   5.414   6.584
15241TIP3    H145608   2.220   5.488   6.528
15241TIP3    H245609   2.188   5.342   6.556
15242TIP3   OH245610   2.939   5.517   6.225
15242TIP3    H145611   3.004   5.513   6.295
15242TIP3    H245612   2.987   5.550   6.149
15243TIP3   OH245613   1.870   5.633   6.717
15243TIP3    H145614   1.953   5.614   6.760
15243TIP3    H245615   1.872   5.580   6.637
15244TIP3   OH245616   2.286   5.830   6.534
15244TIP3    H145617   2.380   5.815   6.539
15244TIP3    H245618   2.250   5.748   6.500
15245TIP3   OH245619   3.583   5.784   6.748
15245TIP3    H145620   3.498   5.823   6.765
15245TIP3    H245621   3.641   5.820   6.815
15246TIP3   OH245622   2.217   5.423   7.045
15246TIP3    H145623   2.168   5.458   6.970
15246TIP3    H245624   2.159   5.438   7.120
15247TIP3   OH245625   2.574   6.275   6.026
15247TIP3    H145626   2.534   6.244   5.945
15247TIP3    H245627   2.522   6.350   6.052
15248TIP3   OH245628   2.325   6.188   6.813
15248TIP3    H145629   2.273   6.261   6.848
15248TIP3    H245630   2.373   6.226   6.740
15249TIP3   OH245631   3.102   5.546   6.444
15249TIP3    H145632   3.059   5.520   6.526
15249TIP3    H245633   3.150   5.626   6.467
15250TIP3   OH245634   2.119   5.529   6.807
15250TIP3    H145635   2.174   5.603   6.831
15250TIP3    H245636   2.167   5.486   6.736
15251TIP3   OH245637   2.171   6.396   6.918
15251TIP3    H145638   2.158   6.486   6.888
15251TIP3    H245639   2.091   6.376   6.967
15252TIP3   OH245640   1.540   6.104   6.165
15252TIP3    H145641   1.504   6.122   6.078
15252TIP3    H245642   1.561   6.190   6.201
15253TIP3   OH245643   2.978   6.600   6.395
15253TIP3    H145644   2.892   6.593   6.436
15253TIP3    H245645   2.975   6.684   6.349
15254TIP3   OH245646   3.274   5.472   6.764
15254TIP3    H145647   3.186   5.482   6.730
15254TIP3    H245648   3.331   5.491   6.690
15255TIP3   OH245649   2.565   5.116   6.771
15255TIP3    H145650   2.562   5.024   6.796
15255TIP3    H245651   2.489   5.155   6.812
15256TIP3   OH245652   2.689   6.634   6.054
15256TIP3    H145653   2.741   6.555   6.045
15256TIP3    H245654   2.747   6.705   6.027
15257TIP3   OH245655   2.825   6.400   6.021
15257TIP3    H145656   2.750   6.342   6.021
15257TIP3    H245657   2.876   6.374   6.098
15258TIP3   OH245658   3.209   6.492   6.742
15258TIP3    H145659   3.194   6.417   6.685
15258TIP3    H245660   3.193   6.568   6.686
15259TIP3   OH245661   2.502   5.894   6.017
15259TIP3    H145662   2.418   5.937   6.001
15259TIP3    H245663   2.546   5.897   5.932
15260TIP3   OH245664   2.464   5.705   5.709
15260TIP3    H145665   2.528   5.756   5.758
15260TIP3    H245666   2.516   5.643   5.658
15261TIP3   OH245667   3.394   6.142   6.594
15261TIP3    H145668   3.313   6.192   6.595
15261TIP3    H245669   3.436   6.166   6.511
15262TIP3   OH245670   2.856   5.985   5.972
15262TIP3    H145671   2.802   6.016   6.044
15262TIP3    H245672   2.937   5.955   6.013
15263TIP3   OH245673   3.096   6.011   6.924
15263TIP3    H145674   3.094   6.095   6.970
15263TIP3    H245675   3.014   6.009   6.875
15264TIP3   OH245676   2.087   5.961   6.380
15264TIP3    H145677   2.050   5.900   6.316
15264TIP3    H245678   2.159   5.913   6.420
15265TIP3   OH245679   2.232   6.384   6.521
15265TIP3    H145680   2.210   6.371   6.429
15265TIP3    H245681   2.319   6.344   6.531
15266TIP3   OH245682   2.187   5.957   6.759
15266TIP3    H145683   2.225   5.922   6.679
15266TIP3    H245684   2.236   6.037   6.776
15267TIP3   OH245685   2.745   6.595   6.532
15267TIP3    H145686   2.727   6.675   6.580
15267TIP3    H245687   2.726   6.525   6.595
15268TIP3   OH245688   2.367   6.504   7.088
15268TIP3    H145689   2.305   6.559   7.136
15268TIP3    H245690   2.312   6.446   7.036
15269TIP3   OH245691   2.688   5.846   5.804
15269TIP3    H145692   2.747   5.905   5.851
15269TIP3    H245693   2.717   5.851   5.713
15270TIP3   OH245694   2.099   6.046   7.219
15270TIP3    H145695   2.099   6.138   7.245
15270TIP3    H245696   2.007   6.021   7.218
15271TIP3   OH245697   2.440   6.514   6.065
15271TIP3    H145698   2.521   6.565   6.068
15271TIP3    H245699   2.379   6.569   6.017
15272TIP3   OH245700   2.151   6.655   7.173
15272TIP3    H145701   2.125   6.664   7.081
15272TIP3    H245702   2.069   6.635   7.219
15273TIP3   OH245703   3.211   5.077   5.876
15273TIP3    H145704   3.130   5.103   5.919
15273TIP3    H245705   3.221   5.139   5.804
15274TIP3   OH245706   1.959   5.803   6.181
15274TIP3    H145707   1.884   5.855   6.152
15274TIP3    H245708   1.923   5.716   6.198
15275TIP3   OH245709   3.028   6.447   5.425
15275TIP3    H145710   3.022   6.539   5.403
15275TIP3    H245711   3.119   6.423   5.404
15276TIP3   OH245712   1.748   6.205   7.116
15276TIP3    H145713   1.677   6.194   7.052
15276TIP3    H245714   1.780   6.116   7.131
15277TIP3   OH245715   1.585   6.418   6.777
15277TIP3    H145716   1.672   6.448   6.802
15277TIP3    H245717   1.528   6.493   6.795
15278TIP3   OH245718   3.436   6.847   6.817
15278TIP3    H145719   3.441   6.753   6.833
15278TIP3    H245720   3.357   6.875   6.865
15279TIP3   OH245721   2.545   6.645   6.938
15279TIP3    H145722   2.539   6.737   6.964
15279TIP3    H245723   2.482   6.600   6.994
15280TIP3   OH245724   2.331   6.738   5.893
15280TIP3    H145725   2.285   6.716   5.812
15280TIP3    H245726   2.291   6.819   5.922
15281TIP3   OH245727   1.764   6.592   6.269
15281TIP3    H145728   1.807   6.583   6.354
15281TIP3    H245729   1.713   6.511   6.260
15282TIP3   OH245730   2.531   6.675   5.520
15282TIP3    H145731   2.581   6.601   5.484
15282TIP3    H245732   2.566   6.687   5.608
15283TIP3   OH245733   2.585   6.715   5.791
15283TIP3    H145734   2.497   6.718   5.830
15283TIP3    H245735   2.640   6.678   5.860
15284TIP3   OH245736   3.338   5.953   7.081
15284TIP3    H145737   3.252   5.963   7.039
15284TIP3    H245738   3.351   5.858   7.086
15285TIP3   OH245739   1.944   6.398   7.078
15285TIP3    H145740   1.994   6.389   7.160
15285TIP3    H245741   1.873   6.335   7.086
15286TIP3   OH245742   2.327   5.207   6.899
15286TIP3    H145743   2.244   5.172   6.867
15286TIP3    H245744   2.302   5.285   6.948
15287TIP3   OH245745   2.874   5.327   7.098
15287TIP3    H145746   2.945   5.304   7.158
15287TIP3    H245747   2.794   5.305   7.146
15288TIP3   OH245748   3.097   5.749   7.019
15288TIP3    H145749   3.054   5.739   7.104
15288TIP3    H245750   3.077   5.839   6.992
15289TIP3   OH245751   2.770   5.821   5.541
15289TIP3    H145752   2.724   5.831   5.458
15289TIP3    H245753   2.854   5.865   5.528
15290TIP3   OH245754   2.474   5.234   5.867
15290TIP3    H145755   2.442   5.242   5.957
15290TIP3    H245756   2.424   5.162   5.829
15291TIP3   OH245757   2.270   5.739   6.913
15291TIP3    H145758   2.220   5.744   6.995
15291TIP3    H245759   2.247   5.820   6.867
15292TIP3   OH245760   2.145   5.616   6.428
15292TIP3    H145761   2.056   5.593   6.454
15292TIP3    H245762   2.153   5.584   6.338
15293TIP3   OH245763   2.623   5.690   6.154
15293TIP3    H145764   2.576   5.763   6.115
15293TIP3    H245765   2.681   5.659   6.084
15294TIP3   OH245766   2.840   5.943   7.204
15294TIP3    H145767   2.799   5.892   7.274
15294TIP3    H245768   2.927   5.965   7.238
15295TIP3   OH245769   2.789   5.699   6.378
15295TIP3    H145770   2.720   5.722   6.315
15295TIP3    H245771   2.836   5.627   6.337
15296TIP3   OH245772   2.101   5.753   7.130
15296TIP3    H145773   2.094   5.821   7.197
15296TIP3    H245774   2.076   5.672   7.174
15297TIP3   OH245775   2.148   5.266   5.855
15297TIP3    H145776   2.133   5.275   5.949
15297TIP3    H245777   2.069   5.303   5.815
15298TIP3   OH245778   1.693   5.271   6.702
15298TIP3    H145779   1.767   5.306   6.751
15298TIP3    H245780   1.729   5.249   6.616
15299TIP3   OH245781   1.602   5.247   6.205
15299TIP3    H145782   1.646   5.281   6.127
15299TIP3    H245783   1.539   5.315   6.229
15300TIP3   OH245784   2.844   5.953   6.800
15300TIP3    H145785   2.870   5.885   6.737
15300TIP3    H245786   2.799   5.904   6.869
15301TIP3   OH245787   2.512   5.401   6.474
15301TIP3    H145788   2.433   5.401   6.529
15301TIP3    H245789   2.584   5.393   6.537
15302TIP3   OH245790   1.907   5.491   6.486
15302TIP3    H145791   1.819   5.497   6.448
15302TIP3    H245792   1.933   5.400   6.471
15303TIP3   OH245793   2.159   5.497   6.181
15303TIP3    H145794   2.252   5.511   6.168
15303TIP3    H245795   2.119   5.520   6.098
15304TIP3   OH245796   2.970   5.489   6.686
15304TIP3    H145797   2.950   5.508   6.778
15304TIP3    H245798   2.902   5.427   6.659
15305TIP3   OH245799   2.034   5.529   5.940
15305TIP3    H145800   1.965   5.485   5.890
15305TIP3    H245801   2.090   5.569   5.873
15306TIP3   OH245802   3.157   7.197   6.904
15306TIP3    H145803   3.153   7.213   6.810
15306TIP3    H245804   3.236   7.243   6.933
15307TIP3   OH245805   2.102   6.313   7.309
15307TIP3    H145806   2.185   6.337   7.350
15307TIP3    H245807   2.036   6.328   7.377
15308TIP3   OH245808   2.560   5.777   6.582
15308TIP3    H145809   2.623   5.725   6.533
15308TIP3    H245810   2.556   5.736   6.668
15309TIP3   OH245811   2.049   5.241   6.471
15309TIP3    H145812   2.022   5.166   6.525
15309TIP3    H245813   2.062   5.204   6.384
15310TIP3   OH245814   2.532   5.678   6.844
15310TIP3    H145815   2.446   5.709   6.872
15310TIP3    H245816   2.594   5.725   6.899
15311TIP3   OH245817   2.264   6.026   5.965
15311TIP3    H145818   2.188   5.974   5.939
15311TIP3    H245819   2.236   6.070   6.045
15312TIP3   OH245820   3.160   6.288   6.561
15312TIP3    H145821   3.195   6.336   6.486
15312TIP3    H245822   3.080   6.248   6.528
15313TIP3   OH245823   2.724   5.354   5.870
15313TIP3    H145824   2.631   5.330   5.865
15313TIP3    H245825   2.724   5.449   5.881
15314TIP3   OH245826   2.667   6.373   6.973
15314TIP3    H145827   2.707   6.358   7.059
15314TIP3    H245828   2.612   6.450   6.986
15315TIP3   OH245829   2.785   5.618   5.937
15315TIP3    H145830   2.880   5.621   5.943
15315TIP3    H245831   2.762   5.695   5.884
15316TIP3   OH245832   1.954   6.041   6.609
15316TIP3    H145833   1.992   6.025   6.523
15316TIP3    H245834   2.022   6.013   6.671
15317TIP3   OH245835   2.416   6.190   5.809
15317TIP3    H145836   2.369   6.273   5.804
15317TIP3    H245837   2.359   6.133   5.861
15318TIP3   OH245838   1.837   5.952   7.238
15318TIP3    H145839   1.830   5.915   7.326
15318TIP3    H245840   1.759   5.920   7.192
15319TIP3   OH245841   2.818   6.661   6.867
15319TIP3    H145842   2.724   6.644   6.868
15319TIP3    H245843   2.838   6.696   6.953
15320TIP3   OH245844   3.200   5.708   5.756
15320TIP3    H145845   3.143   5.661   5.696
15320TIP3    H245846   3.210   5.795   5.718
15321TIP3   OH245847   3.454   6.566   6.840
15321TIP3    H145848   3.360   6.551   6.832
15321TIP3    H245849   3.490   6.543   6.755
15322TIP3   OH245850   2.950   6.516   5.690
15322TIP3    H145851   2.914   6.446   5.745
15322TIP3    H245852   2.966   6.473   5.606
15323TIP3   OH245853   2.928   6.151   6.463
15323TIP3    H145854   2.839   6.131   6.492
15323TIP3    H245855   2.958   6.070   6.422
15324TIP3   OH245856   2.082   6.390   6.281
15324TIP3    H145857   2.077   6.464   6.221
15324TIP3    H245858   1.997   6.388   6.324
15325TIP3   OH245859   1.652   5.673   5.997
15325TIP3    H145860   1.691   5.759   6.016
15325TIP3    H245861   1.570   5.673   6.046
15326TIP3   OH245862   2.163   6.145   6.185
15326TIP3    H145863   2.144   6.234   6.214
15326TIP3    H245864   2.136   6.090   6.258
15327TIP3   OH245865   2.363   6.712   6.733
15327TIP3    H145866   2.399   6.786   6.685
15327TIP3    H245867   2.436   6.680   6.786
15328TIP3   OH245868   2.000   6.610   6.128
15328TIP3    H145869   1.912   6.616   6.166
15328TIP3    H245870   2.036   6.698   6.134
15329TIP3   OH245871   2.715   6.375   6.703
15329TIP3    H145872   2.698   6.374   6.798
15329TIP3    H245873   2.794   6.323   6.693
15330TIP3   OH245874   2.714   6.254   5.566
15330TIP3    H145875   2.763   6.224   5.642
15330TIP3    H245876   2.630   6.209   5.572
15331TIP3   OH245877   2.969   6.870   6.747
15331TIP3    H145878   2.900   6.807   6.768
15331TIP3    H245879   2.934   6.921   6.675
15332TIP3   OH245880   3.019   6.719   5.378
15332TIP3    H145881   3.025   6.773   5.299
15332TIP3    H245882   2.952   6.761   5.431
15333TIP3   OH245883   2.029   5.506   7.251
15333TIP3    H145884   1.935   5.521   7.260
15333TIP3    H245885   2.048   5.434   7.312
15334TIP3   OH245886   2.885   6.161   5.758
15334TIP3    H145887   2.868   6.111   5.838
15334TIP3    H245888   2.980   6.170   5.755
15335TIP3   OH245889   1.792   6.602   6.890
15335TIP3    H145890   1.849   6.547   6.943
15335TIP3    H245891   1.802   6.690   6.926
15336TIP3   OH245892   2.067   6.217   5.590
15336TIP3    H145893   2.075   6.125   5.564
15336TIP3    H245894   2.051   6.213   5.685
15337TIP3   OH245895   2.005   6.235   5.861
15337TIP3    H145896   2.063   6.212   5.934
15337TIP3    H245897   2.001   6.330   5.863
15338TIP3   OH245898   1.737   5.929   6.073
15338TIP3    H145899   1.672   5.977   6.124
15338TIP3    H245900   1.756   5.986   5.998
15339TIP3   OH245901   2.908   5.554   6.945
15339TIP3    H145902   2.982   5.602   6.984
15339TIP3    H245903   2.895   5.479   7.003
15340TIP3   OH245904   2.787   5.301   6.137
15340TIP3    H145905   2.766   5.321   6.046
15340TIP3    H245906   2.831   5.380   6.169
15341TIP3   OH245907   2.274   6.421   5.800
15341TIP3    H145908   2.189   6.444   5.836
15341TIP3    H245909   2.297   6.494   5.742
15342TIP3   OH245910   2.439   5.496   6.222
15342TIP3    H145911   2.500   5.566   6.197
15342TIP3    H245912   2.462   5.476   6.312
15343TIP3   OH245913   2.737   5.788   6.998
15343TIP3    H145914   2.770   5.839   7.072
15343TIP3    H245915   2.790   5.708   6.998
15344TIP3   OH245916   2.602   5.192   6.311
15344TIP3    H145917   2.579   5.268   6.364
15344TIP3    H245918   2.672   5.223   6.253
15345TIP3   OH245919   2.023   6.507   5.875
15345TIP3    H145920   2.004   6.579   5.815
15345TIP3    H245921   2.012   6.545   5.962
15346TIP3   OH245922   2.112   5.227   6.134
15346TIP3    H145923   2.104   5.317   6.164
15346TIP3    H245924   2.206   5.208   6.138
15347TIP3   OH245925   3.348   5.657   6.964
15347TIP3    H145926   3.260   5.687   6.987
15347TIP3    H245927   3.334   5.589   6.899
15348TIP3   OH245928   3.012   5.888   6.369
15348TIP3    H145929   2.932   5.838   6.384
15348TIP3    H245930   3.074   5.853   6.433
15349TIP3   OH245931   1.762   6.101   5.854
15349TIP3    H145932   1.833   6.164   5.861
15349TIP3    H245933   1.792   6.038   5.788
15350TIP3   OH245934   1.665   5.395   5.981
15350TIP3    H145935   1.681   5.488   5.996
15350TIP3    H245936   1.598   5.393   5.913
15351TIP3   OH245937   2.994   6.867   6.313
15351TIP3    H145938   2.950   6.920   6.246
15351TIP3    H245939   3.087   6.883   6.300
15352TIP3   OH245940   2.069   5.117   6.856
15352TIP3    H145941   2.039   5.083   6.771
15352TIP3    H245942   2.062   5.042   6.915
15353TIP3   OH245943   1.584   6.373   6.247
15353TIP3    H145944   1.543   6.409   6.325
15353TIP3    H245945   1.540   6.415   6.174
15354TIP3   OH245946   1.793   6.884   7.291
15354TIP3    H145947   1.874   6.886   7.342
15354TIP3    H245948   1.764   6.793   7.294
15355TIP3   OH245949   2.258   6.805   7.378
15355TIP3    H145950   2.351   6.784   7.377
15355TIP3    H245951   2.222   6.756   7.304
15356TIP3   OH245952   2.214   6.421   5.478
15356TIP3    H145953   2.168   6.350   5.523
15356TIP3    H245954   2.288   6.377   5.436
15357TIP3   OH245955   2.861   6.755   7.120
15357TIP3    H145956   2.853   6.685   7.186
15357TIP3    H245957   2.942   6.800   7.143
15358TIP3   OH245958   2.657   6.463   5.399
15358TIP3    H145959   2.693   6.398   5.459
15358TIP3    H245960   2.712   6.458   5.321
15359TIP3   OH245961   1.899   6.318   7.502
15359TIP3    H145962   1.921   6.225   7.508
15359TIP3    H245963   1.814   6.320   7.459
15360TIP3   OH245964   1.884   5.910   5.701
15360TIP3    H145965   1.935   5.889   5.779
15360TIP3    H245966   1.950   5.926   5.633
15361TIP3   OH245967   2.466   6.131   5.545
15361TIP3    H145968   2.439   6.144   5.636
15361TIP3    H245969   2.440   6.041   5.525
15362TIP3   OH245970   2.990   6.436   6.902
15362TIP3    H145971   3.065   6.465   6.850
15362TIP3    H245972   2.924   6.504   6.887
15363TIP3   OH245973   2.006   6.064   7.523
15363TIP3    H145974   1.969   5.976   7.523
15363TIP3    H245975   2.037   6.077   7.613
15364TIP3   OH245976   2.054   5.853   5.915
15364TIP3    H145977   2.029   5.823   6.003
15364TIP3    H245978   2.101   5.779   5.877
15365TIP3   OH245979   2.368   6.009   7.241
15365TIP3    H145980   2.277   6.023   7.214
15365TIP3    H245981   2.419   6.020   7.160
15366TIP3   OH245982   2.194   5.665   5.764
15366TIP3    H145983   2.163   5.672   5.673
15366TIP3    H245984   2.289   5.677   5.758
15367TIP3   OH245985   2.856   6.315   7.260
15367TIP3    H145986   2.920   6.279   7.198
15367TIP3    H245987   2.863   6.258   7.337
15368TIP3   OH245988   2.992   5.951   5.438
15368TIP3    H145989   2.978   5.912   5.351
15368TIP3    H245990   2.970   6.044   5.426
15369TIP3   OH245991   2.488   5.695   7.251
15369TIP3    H145992   2.493   5.612   7.205
15369TIP3    H245993   2.494   5.761   7.182
15370TIP3   OH245994   2.484   5.488   7.066
15370TIP3    H145995   2.508   5.524   6.980
15370TIP3    H245996   2.391   5.467   7.058
15371TIP3   OH245997   2.478   6.035   6.991
15371TIP3    H145998   2.569   6.057   6.967
15371TIP3    H245999   2.425   6.088   6.932
15372TIP3   OH246000   3.093   5.982   7.331
15372TIP3    H146001   3.143   5.902   7.343
15372TIP3    H246002   3.160   6.051   7.323
15373TIP3   OH246003   3.120   6.257   7.060
15373TIP3    H146004   3.066   6.319   7.011
15373TIP3    H246005   3.209   6.272   7.028
15374TIP3   OH246006   2.296   5.781   7.427
15374TIP3    H146007   2.257   5.715   7.484
15374TIP3    H246008   2.348   5.731   7.365
15375TIP3   OH246009   2.612   5.259   7.170
15375TIP3    H146010   2.568   5.337   7.137
15375TIP3    H246011   2.544   5.190   7.165
15376TIP3   OH246012   2.735   5.758   7.382
15376TIP3    H146013   2.739   5.743   7.477
15376TIP3    H246014   2.649   5.723   7.357
15377TIP3   OH246015   2.975   5.680   7.250
15377TIP3    H146016   2.898   5.695   7.304
15377TIP3    H246017   3.047   5.666   7.312
15378TIP3   OH246018   3.212   5.671   7.403
15378TIP3    H146019   3.228   5.576   7.408
15378TIP3    H246020   3.205   5.699   7.494
15379TIP3   OH246021   2.225   5.564   7.583
15379TIP3    H146022   2.219   5.475   7.549
15379TIP3    H246023   2.257   5.553   7.673
15380TIP3   OH246024   2.693   5.269   7.438
15380TIP3    H146025   2.705   5.181   7.474
15380TIP3    H246026   2.669   5.254   7.346
15381TIP3   OH246027   2.745   5.483   7.592
15381TIP3    H146028   2.742   5.406   7.536
15381TIP3    H246029   2.657   5.519   7.588
15382TIP3   OH246030   2.023   6.717   5.695
15382TIP3    H146031   2.112   6.697   5.666
15382TIP3    H246032   1.982   6.761   5.620
15383TIP3   OH246033   1.490   6.102   5.873
15383TIP3    H146034   1.585   6.113   5.870
15383TIP3    H246035   1.474   6.015   5.836
15384TIP3   OH246036   1.395   6.679   6.332
15384TIP3    H146037   1.328   6.624   6.290
15384TIP3    H246038   1.440   6.620   6.392
15385TIP3   OH246039   1.536   6.512   6.501
15385TIP3    H146040   1.529   6.445   6.568
15385TIP3    H246041   1.588   6.581   6.542
15386TIP3   OH246042   3.264   6.925   6.312
15386TIP3    H146043   3.281   6.947   6.404
15386TIP3    H246044   3.308   6.994   6.262
15387TIP3   OH246045   3.284   6.949   6.592
15387TIP3    H146046   3.235   6.867   6.588
15387TIP3    H246047   3.352   6.933   6.657
15388TIP3   OH246048   3.328   6.651   7.175
15388TIP3    H146049   3.258   6.659   7.240
15388TIP3    H246050   3.376   6.733   7.182
15389TIP3   OH246051   3.166   6.163   5.770
15389TIP3    H146052   3.220   6.236   5.740
15389TIP3    H246053   3.209   6.131   5.849
15390TIP3   OH246054   3.274   6.034   5.997
15390TIP3    H146055   3.203   5.977   6.026
15390TIP3    H246056   3.283   6.099   6.067
15391TIP3   OH246057   3.350   6.419   6.399
15391TIP3    H146058   3.403   6.356   6.350
15391TIP3    H246059   3.351   6.498   6.346
15392TIP3   OH246060   3.140   6.712   6.593
15392TIP3    H146061   3.073   6.756   6.645
15392TIP3    H246062   3.092   6.672   6.520
15393TIP3   OH246063   3.204   5.943   5.612
15393TIP3    H146064   3.133   5.938   5.548
15393TIP3    H246065   3.186   6.021   5.663
15394TIP3   OH246066   3.048   5.584   5.565
15394TIP3    H146067   3.002   5.619   5.489
15394TIP3    H246068   3.050   5.489   5.550
15395TIP3   OH246069   3.077   5.875   6.101
15395TIP3    H146070   3.078   5.780   6.084
15395TIP3    H246071   3.057   5.882   6.194
15396TIP3   OH246072   1.707   5.946   6.877
15396TIP3    H146073   1.698   5.918   6.786
15396TIP3    H246074   1.802   5.942   6.894
15397TIP3   OH246075   3.382   6.296   6.970
15397TIP3    H146076   3.441   6.222   6.954
15397TIP3    H246077   3.407   6.361   6.904
15398TIP3   OH246078   3.542   6.070   6.944
15398TIP3    H146079   3.473   6.027   6.995
15398TIP3    H246080   3.620   6.016   6.959
15399TIP3   OH246081   3.042   5.308   5.527
15399TIP3    H146082   3.113   5.275   5.582
15399TIP3    H246083   2.963   5.268   5.563
15400TIP3   OH246084   3.078   5.608   5.993
15400TIP3    H146085   3.124   5.525   6.006
15400TIP3    H246086   3.120   5.646   5.916
15401TIP3   OH246087   3.245   5.777   6.512
15401TIP3    H146088   3.312   5.821   6.459
15401TIP3    H246089   3.250   5.819   6.598
15402TIP3   OH246090   3.314   5.919   6.738
15402TIP3    H146091   3.249   5.948   6.802
15402TIP3    H246092   3.347   6.001   6.699
15403TIP3   OH246093   1.967   5.662   7.583
15403TIP3    H146094   2.058   5.633   7.578
15403TIP3    H246095   1.916   5.581   7.589
15404TIP3   OH246096   3.765   5.527   7.277
15404TIP3    H146097   3.830   5.463   7.247
15404TIP3    H246098   3.737   5.572   7.197
15405TIP3   OH246099   3.196   5.363   6.053
15405TIP3    H146100   3.242   5.346   6.135
15405TIP3    H246101   3.134   5.290   6.045
15406TIP3   OH246102   1.907   5.343   6.864
15406TIP3    H146103   1.960   5.263   6.873
15406TIP3    H246104   1.971   5.412   6.848
15407TIP3   OH246105   1.688   5.610   6.934
15407TIP3    H146106   1.740   5.594   6.856
15407TIP3    H246107   1.701   5.703   6.954
15408TIP3   OH246108   3.605   5.654   7.089
15408TIP3    H146109   3.556   5.694   7.161
15408TIP3    H246110   3.537   5.618   7.031
15409TIP3   OH246111   3.280   5.258   5.676
15409TIP3    H146112   3.362   5.209   5.681
15409TIP3    H246113   3.306   5.350   5.677
15410TIP3   OH246114   1.673   5.121   6.438
15410TIP3    H146115   1.587   5.104   6.477
15410TIP3    H246116   1.654   5.172   6.360
15411TIP3   OH246117   2.837   6.833   5.954
15411TIP3    H146118   2.891   6.823   5.876
15411TIP3    H246119   2.874   6.910   5.999
15412TIP3   OH246120   1.902   5.190   7.272
15412TIP3    H146121   1.848   5.175   7.349
15412TIP3    H246122   1.842   5.227   7.207
15413TIP3   OH246123   1.932   6.611   7.340
15413TIP3    H146124   1.838   6.600   7.328
15413TIP3    H246125   1.944   6.612   7.435
15414TIP3   OH246126   2.138   6.673   6.888
15414TIP3    H146127   2.086   6.747   6.856
15414TIP3    H246128   2.222   6.682   6.842
15415TIP3   OH246129   2.533   6.912   7.008
15415TIP3    H146130   2.568   6.912   7.097
15415TIP3    H246131   2.596   6.965   6.958
15416TIP3   OH246132   2.728   7.066   6.889
15416TIP3    H146133   2.791   7.013   6.841
15416TIP3    H246134   2.780   7.123   6.945
15417TIP3   OH246135   3.530   5.366   6.981
15417TIP3    H146136   3.440   5.337   6.963
15417TIP3    H246137   3.582   5.287   6.975
15418TIP3   OH246138   1.795   6.903   6.926
15418TIP3    H146139   1.704   6.919   6.904
15418TIP3    H246140   1.817   6.972   6.990
15419TIP3   OH246141   2.029   6.904   6.780
15419TIP3    H146142   1.945   6.906   6.827
15419TIP3    H246143   2.007   6.928   6.690
15420TIP3   OH246144   2.440   6.924   6.571
15420TIP3    H146145   2.366   6.934   6.511
15420TIP3    H246146   2.449   7.010   6.611
15421TIP3   OH246147   2.702   6.855   6.617
15421TIP3    H146148   2.610   6.876   6.599
15421TIP3    H246149   2.752   6.922   6.571
15422TIP3   OH246150   2.903   7.025   6.520
15422TIP3    H146151   2.904   7.113   6.482
15422TIP3    H246152   2.932   6.968   6.449
15423TIP3   OH246153   1.710   6.692   6.636
15423TIP3    H146154   1.728   6.668   6.726
15423TIP3    H246155   1.783   6.657   6.586
15424TIP3   OH246156   1.914   6.574   6.501
15424TIP3    H146157   1.925   6.490   6.546
15424TIP3    H246158   2.000   6.616   6.507
15425TIP3   OH246159   2.180   6.661   6.530
15425TIP3    H146160   2.201   6.569   6.515
15425TIP3    H246161   2.232   6.686   6.606
15426TIP3   OH246162   2.742   5.312   6.615
15426TIP3    H146163   2.702   5.243   6.668
15426TIP3    H246164   2.809   5.267   6.563
15427TIP3   OH246165   3.241   5.236   6.504
15427TIP3    H146166   3.273   5.284   6.427
15427TIP3    H246167   3.146   5.245   6.500
15428TIP3   OH246168   3.365   5.316   6.270
15428TIP3    H146169   3.425   5.246   6.246
15428TIP3    H246170   3.414   5.396   6.254
15429TIP3   OH246171   1.982   5.013   6.615
15429TIP3    H146172   1.893   4.980   6.627
15429TIP3    H246173   2.036   4.934   6.606
15430TIP3   OH246174   1.810   4.933   6.279
15430TIP3    H146175   1.825   4.985   6.200
15430TIP3    H246176   1.768   4.994   6.340
15431TIP3   OH246177   2.463   5.046   6.511
15431TIP3    H146178   2.511   5.096   6.445
15431TIP3    H246179   2.499   5.076   6.595
15432TIP3   OH246180   2.958   5.195   6.481
15432TIP3    H146181   2.965   5.156   6.393
15432TIP3    H246182   2.961   5.120   6.540
15433TIP3   OH246183   3.010   5.156   6.051
15433TIP3    H146184   2.928   5.199   6.077
15433TIP3    H246185   3.002   5.068   6.088
15434TIP3   OH246186   1.466   6.493   6.030
15434TIP3    H146187   1.385   6.464   5.989
15434TIP3    H246188   1.476   6.584   6.001
15435TIP3   OH246189   1.892   5.074   6.042
15435TIP3    H146190   1.937   5.009   5.988
15435TIP3    H246191   1.962   5.129   6.077
15436TIP3   OH246192   2.391   5.242   6.131
15436TIP3    H146193   2.451   5.196   6.188
15436TIP3    H246194   2.401   5.335   6.154
15437TIP3   OH246195   2.278   6.642   5.624
15437TIP3    H146196   2.360   6.671   5.585
15437TIP3    H246197   2.246   6.573   5.566
15438TIP3   OH246198   2.984   6.785   5.724
15438TIP3    H146199   2.977   6.690   5.717
15438TIP3    H246200   2.939   6.819   5.647
15439TIP3   OH246201   2.229   5.294   7.521
15439TIP3    H146202   2.192   5.217   7.565
15439TIP3    H246203   2.321   5.295   7.549
15440TIP3   OH246204   2.475   5.295   7.654
15440TIP3    H146205   2.549   5.254   7.611
15440TIP3    H246206   2.453   5.235   7.726
15441TIP3   OH246207   1.582   6.477   5.676
15441TIP3    H146208   1.584   6.495   5.770
15441TIP3    H246209   1.666   6.432   5.660
15442TIP3   OH246210   3.281   5.401   7.408
15442TIP3    H146211   3.296   5.368   7.496
15442TIP3    H246212   3.365   5.394   7.364
15443TIP3   OH246213   3.188   6.922   6.917
15443TIP3    H146214   3.114   6.893   6.863
15443TIP3    H246215   3.177   7.017   6.923
15444TIP3   OH246216   4.463   6.313   5.644
15444TIP3    H146217   4.421   6.399   5.641
15444TIP3    H246218   4.396   6.253   5.611
15445TIP3   OH246219   4.462   6.307   6.081
15445TIP3    H146220   4.523   6.287   6.153
15445TIP3    H246221   4.420   6.223   6.063
15446TIP3   OH246222   3.781   6.255   6.393
15446TIP3    H146223   3.811   6.290   6.477
15446TIP3    H246224   3.861   6.221   6.352
15447TIP3   OH246225   4.734   6.614   5.745
15447TIP3    H146226   4.728   6.546   5.812
15447TIP3    H246227   4.756   6.694   5.793
15448TIP3   OH246228   3.802   6.602   6.127
15448TIP3    H146229   3.820   6.594   6.221
15448TIP3    H246230   3.888   6.610   6.087
15449TIP3   OH246231   3.440   5.812   5.916
15449TIP3    H146232   3.397   5.894   5.943
15449TIP3    H246233   3.375   5.766   5.864
15450TIP3   OH246234   4.408   7.030   5.769
15450TIP3    H146235   4.424   6.968   5.698
15450TIP3    H246236   4.426   6.980   5.849
15451TIP3   OH246237   4.280   6.522   6.088
15451TIP3    H146238   4.330   6.443   6.069
15451TIP3    H246239   4.347   6.586   6.115
15452TIP3   OH246240   5.317   5.838   6.095
15452TIP3    H146241   5.327   5.922   6.138
15452TIP3    H246242   5.354   5.850   6.008
15453TIP3   OH246243   4.675   6.005   6.111
15453TIP3    H146244   4.713   5.922   6.138
15453TIP3    H246245   4.640   5.989   6.023
15454TIP3   OH246246   4.052   5.672   6.063
15454TIP3    H146247   4.016   5.755   6.032
15454TIP3    H246248   3.983   5.608   6.049
15455TIP3   OH246249   4.739   5.775   5.710
15455TIP3    H146250   4.804   5.771   5.780
15455TIP3    H246251   4.787   5.809   5.634
15456TIP3   OH246252   3.719   5.829   6.287
15456TIP3    H146253   3.798   5.879   6.306
15456TIP3    H246254   3.721   5.815   6.193
15457TIP3   OH246255   4.062   6.108   5.938
15457TIP3    H146256   4.154   6.101   5.961
15457TIP3    H246257   4.029   6.018   5.941
15458TIP3   OH246258   5.352   6.055   6.270
15458TIP3    H146259   5.270   6.103   6.257
15458TIP3    H246260   5.394   6.098   6.344
15459TIP3   OH246261   4.272   6.507   5.569
15459TIP3    H146262   4.279   6.493   5.475
15459TIP3    H246263   4.253   6.600   5.578
15460TIP3   OH246264   4.126   6.443   6.309
15460TIP3    H146265   4.066   6.513   6.335
15460TIP3    H246266   4.177   6.481   6.237
15461TIP3   OH246267   4.904   5.804   5.925
15461TIP3    H146268   4.865   5.784   6.009
15461TIP3    H246269   4.963   5.877   5.942
15462TIP3   OH246270   3.945   6.648   6.383
15462TIP3    H146271   3.942   6.742   6.363
15462TIP3    H246272   3.875   6.635   6.447
15463TIP3   OH246273   3.335   6.356   5.655
15463TIP3    H146274   3.301   6.370   5.567
15463TIP3    H246275   3.354   6.444   5.688
15464TIP3   OH246276   4.766   6.861   5.889
15464TIP3    H146277   4.676   6.857   5.922
15464TIP3    H246278   4.770   6.945   5.842
15465TIP3   OH246279   5.119   5.717   6.260
15465TIP3    H146280   5.034   5.749   6.229
15465TIP3    H246281   5.182   5.749   6.195
15466TIP3   OH246282   4.364   5.360   6.259
15466TIP3    H146283   4.362   5.268   6.287
15466TIP3    H246284   4.286   5.399   6.299
15467TIP3   OH246285   4.473   6.880   5.543
15467TIP3    H146286   4.521   6.798   5.531
15467TIP3    H246287   4.534   6.949   5.517
15468TIP3   OH246288   4.614   6.654   5.499
15468TIP3    H146289   4.645   6.589   5.436
15468TIP3    H246290   4.660   6.632   5.580
15469TIP3   OH246291   5.009   6.747   6.232
15469TIP3    H146292   4.991   6.673   6.174
15469TIP3    H246293   4.996   6.824   6.177
15470TIP3   OH246294   4.286   6.156   5.496
15470TIP3    H146295   4.206   6.203   5.473
15470TIP3    H246296   4.337   6.153   5.415
15471TIP3   OH246297   4.279   5.955   5.183
15471TIP3    H146298   4.343   6.007   5.233
15471TIP3    H246299   4.332   5.890   5.137
15472TIP3   OH246300   5.182   6.401   6.100
15472TIP3    H146301   5.101   6.451   6.094
15472TIP3    H246302   5.225   6.416   6.015
15473TIP3   OH246303   4.657   6.247   5.461
15473TIP3    H146304   4.603   6.273   5.535
15473TIP3    H246305   4.740   6.219   5.501
15474TIP3   OH246306   4.887   6.266   6.413
15474TIP3    H146307   4.883   6.350   6.459
15474TIP3    H246308   4.808   6.263   6.360
15475TIP3   OH246309   4.041   6.645   5.998
15475TIP3    H146310   4.030   6.628   5.904
15475TIP3    H246311   4.126   6.607   6.019
15476TIP3   OH246312   4.007   6.210   6.219
15476TIP3    H146313   4.071   6.182   6.153
15476TIP3    H246314   4.049   6.283   6.263
15477TIP3   OH246315   4.518   6.862   6.009
15477TIP3    H146316   4.514   6.941   6.062
15477TIP3    H246317   4.511   6.790   6.071
15478TIP3   OH246318   4.151   6.750   6.559
15478TIP3    H146319   4.088   6.805   6.607
15478TIP3    H246320   4.097   6.695   6.503
15479TIP3   OH246321   4.484   6.111   5.295
15479TIP3    H146322   4.545   6.167   5.343
15479TIP3    H246323   4.514   6.114   5.205
15480TIP3   OH246324   3.872   6.346   6.643
15480TIP3    H146325   3.893   6.427   6.689
15480TIP3    H246326   3.792   6.315   6.686
15481TIP3   OH246327   4.216   6.779   5.560
15481TIP3    H146328   4.305   6.815   5.562
15481TIP3    H246329   4.167   6.841   5.507
15482TIP3   OH246330   3.940   6.906   6.649
15482TIP3    H146331   3.916   6.920   6.557
15482TIP3    H246332   3.856   6.896   6.694
15483TIP3   OH246333   4.989   5.343   5.353
15483TIP3    H146334   4.916   5.369   5.409
15483TIP3    H246335   5.001   5.416   5.292
15484TIP3   OH246336   3.762   6.119   5.751
15484TIP3    H146337   3.698   6.156   5.689
15484TIP3    H246338   3.732   6.029   5.765
15485TIP3   OH246339   4.826   6.705   4.906
15485TIP3    H146340   4.820   6.797   4.882
15485TIP3    H246341   4.916   6.680   4.883
15486TIP3   OH246342   3.540   6.471   6.600
15486TIP3    H146343   3.472   6.448   6.537
15486TIP3    H246344   3.567   6.387   6.637
15487TIP3   OH246345   3.383   6.673   6.273
15487TIP3    H146346   3.466   6.709   6.303
15487TIP3    H246347   3.319   6.743   6.288
15488TIP3   OH246348   5.235   7.112   6.301
15488TIP3    H146349   5.241   7.018   6.313
15488TIP3    H246350   5.156   7.138   6.349
15489TIP3   OH246351   4.343   6.900   6.429
15489TIP3    H146352   4.334   6.990   6.460
15489TIP3    H246353   4.276   6.851   6.477
15490TIP3   OH246354   4.123   6.989   5.383
15490TIP3    H146355   4.083   6.969   5.298
15490TIP3    H246356   4.086   7.073   5.409
15491TIP3   OH246357   3.560   6.849   5.757
15491TIP3    H146358   3.604   6.838   5.841
15491TIP3    H246359   3.508   6.769   5.746
15492TIP3   OH246360   4.327   6.927   5.006
15492TIP3    H146361   4.377   6.853   4.972
15492TIP3    H246362   4.363   6.941   5.094
15493TIP3   OH246363   4.378   6.971   5.276
15493TIP3    H146364   4.293   6.972   5.320
15493TIP3    H246365   4.438   6.938   5.343
15494TIP3   OH246366   5.116   6.228   6.588
15494TIP3    H146367   5.041   6.236   6.530
15494TIP3    H246368   5.139   6.135   6.585
15495TIP3   OH246369   3.737   6.661   6.563
15495TIP3    H146370   3.786   6.654   6.644
15495TIP3    H246371   3.667   6.597   6.571
15496TIP3   OH246372   4.131   5.466   6.375
15496TIP3    H146373   4.038   5.446   6.360
15496TIP3    H246374   4.134   5.561   6.378
15497TIP3   OH246375   4.674   5.594   6.613
15497TIP3    H146376   4.755   5.563   6.653
15497TIP3    H246377   4.611   5.596   6.685
15498TIP3   OH246378   4.882   5.995   6.496
15498TIP3    H146379   4.843   5.990   6.583
15498TIP3    H246380   4.870   6.086   6.469
15499TIP3   OH246381   4.562   6.089   5.034
15499TIP3    H146382   4.517   6.090   4.950
15499TIP3    H246383   4.647   6.131   5.017
15500TIP3   OH246384   4.264   5.498   5.348
15500TIP3    H146385   4.232   5.500   5.438
15500TIP3    H246386   4.233   5.415   5.313
15501TIP3   OH246387   3.942   5.972   6.354
15501TIP3    H146388   3.972   5.997   6.442
15501TIP3    H246389   3.973   6.043   6.298
15502TIP3   OH246390   3.919   5.877   5.917
15502TIP3    H146391   3.837   5.843   5.953
15502TIP3    H246392   3.929   5.831   5.833
15503TIP3   OH246393   4.412   5.952   5.637
15503TIP3    H146394   4.365   6.024   5.595
15503TIP3    H246395   4.476   5.923   5.572
15504TIP3   OH246396   4.612   6.219   6.717
15504TIP3    H146397   4.575   6.147   6.769
15504TIP3    H246398   4.704   6.222   6.743
15505TIP3   OH246399   4.591   5.961   5.854
15505TIP3    H146400   4.521   5.980   5.792
15505TIP3    H246401   4.639   5.889   5.815
15506TIP3   OH246402   3.940   5.475   5.324
15506TIP3    H146403   3.933   5.478   5.419
15506TIP3    H246404   3.867   5.528   5.292
15507TIP3   OH246405   3.520   5.524   6.189
15507TIP3    H146406   3.576   5.601   6.178
15507TIP3    H246407   3.515   5.485   6.102
15508TIP3   OH246408   3.390   5.513   5.703
15508TIP3    H146409   3.437   5.550   5.629
15508TIP3    H246410   3.323   5.579   5.724
15509TIP3   OH246411   4.641   6.213   6.281
15509TIP3    H146412   4.662   6.144   6.218
15509TIP3    H246413   4.604   6.166   6.356
15510TIP3   OH246414   4.307   5.666   5.954
15510TIP3    H146415   4.226   5.665   6.006
15510TIP3    H246416   4.376   5.647   6.018
15511TIP3   OH246417   3.695   5.751   6.016
15511TIP3    H146418   3.609   5.763   5.975
15511TIP3    H246419   3.723   5.664   5.989
15512TIP3   OH246420   3.949   5.750   5.674
15512TIP3    H146421   4.044   5.759   5.670
15512TIP3    H246422   3.919   5.772   5.585
15513TIP3   OH246423   4.770   5.746   6.160
15513TIP3    H146424   4.749   5.757   6.253
15513TIP3    H246425   4.714   5.674   6.131
15514TIP3   OH246426   3.854   5.794   5.418
15514TIP3    H146427   3.793   5.740   5.368
15514TIP3    H246428   3.915   5.828   5.352
15515TIP3   OH246429   4.951   7.455   6.391
15515TIP3    H146430   4.949   7.468   6.296
15515TIP3    H246431   5.031   7.500   6.419
15516TIP3   OH246432   3.891   6.582   6.796
15516TIP3    H146433   3.973   6.593   6.843
15516TIP3    H246434   3.824   6.585   6.864
15517TIP3   OH246435   4.322   6.056   6.059
15517TIP3    H146436   4.386   5.997   6.019
15517TIP3    H246437   4.321   6.032   6.151
15518TIP3   OH246438   3.833   5.508   5.976
15518TIP3    H146439   3.809   5.433   6.030
15518TIP3    H246440   3.869   5.469   5.896
15519TIP3   OH246441   4.330   5.997   6.328
15519TIP3    H146442   4.270   5.951   6.387
15519TIP3    H246443   4.407   6.016   6.381
15520TIP3   OH246444   4.024   6.294   5.461
15520TIP3    H146445   3.961   6.228   5.432
15520TIP3    H246446   4.001   6.311   5.552
15521TIP3   OH246447   4.952   6.548   6.051
15521TIP3    H146448   4.991   6.595   5.978
15521TIP3    H246449   4.875   6.506   6.014
15522TIP3   OH246450   4.512   5.623   5.370
15522TIP3    H146451   4.419   5.601   5.361
15522TIP3    H246452   4.514   5.718   5.382
15523TIP3   OH246453   4.471   6.635   6.463
15523TIP3    H146454   4.523   6.616   6.540
15523TIP3    H246455   4.436   6.723   6.477
15524TIP3   OH246456   4.586   5.884   5.430
15524TIP3    H146457   4.681   5.882   5.439
15524TIP3    H246458   4.569   5.960   5.375
15525TIP3   OH246459   3.812   6.250   6.027
15525TIP3    H146460   3.865   6.236   6.105
15525TIP3    H246461   3.737   6.301   6.058
15526TIP3   OH246462   4.197   6.433   5.297
15526TIP3    H146463   4.159   6.520   5.289
15526TIP3    H246464   4.136   6.384   5.352
15527TIP3   OH246465   3.636   6.266   6.763
15527TIP3    H146466   3.684   6.271   6.846
15527TIP3    H246467   3.585   6.185   6.771
15528TIP3   OH246468   4.395   6.392   6.737
15528TIP3    H146469   4.342   6.362   6.664
15528TIP3    H246470   4.478   6.344   6.728
15529TIP3   OH246471   4.615   6.921   6.353
15529TIP3    H146472   4.520   6.908   6.355
15529TIP3    H246473   4.637   6.955   6.439
15530TIP3   OH246474   4.993   5.961   5.241
15530TIP3    H146475   4.937   5.916   5.178
15530TIP3    H246476   5.002   6.050   5.206
15531TIP3   OH246477   5.253   6.837   6.322
15531TIP3    H146478   5.160   6.815   6.319
15531TIP3    H246479   5.288   6.807   6.238
15532TIP3   OH246480   4.739   6.770   5.165
15532TIP3    H146481   4.712   6.692   5.213
15532TIP3    H246482   4.765   6.737   5.079
15533TIP3   OH246483   4.726   6.410   5.944
15533TIP3    H146484   4.637   6.389   5.971
15533TIP3    H246485   4.762   6.328   5.910
15534TIP3   OH246486   3.885   6.615   5.753
15534TIP3    H146487   3.895   6.685   5.689
15534TIP3    H246488   3.804   6.635   5.799
15535TIP3   OH246489   3.447   5.938   5.478
15535TIP3    H146490   3.490   6.019   5.506
15535TIP3    H246491   3.363   5.938   5.524
15536TIP3   OH246492   3.978   6.354   5.763
15536TIP3    H146493   3.936   6.439   5.755
15536TIP3    H246494   4.072   6.373   5.758
15537TIP3   OH246495   4.163   6.968   6.220
15537TIP3    H146496   4.197   7.042   6.170
15537TIP3    H246497   4.238   6.938   6.271
15538TIP3   OH246498   3.799   6.858   5.618
15538TIP3    H146499   3.712   6.867   5.655
15538TIP3    H246500   3.837   6.946   5.622
15539TIP3   OH246501   4.511   6.643   6.189
15539TIP3    H146502   4.496   6.638   6.284
15539TIP3    H246503   4.593   6.595   6.175
15540TIP3   OH246504   4.517   6.513   5.073
15540TIP3    H146505   4.557   6.496   5.158
15540TIP3    H246506   4.433   6.467   5.076
15541TIP3   OH246507   4.769   7.127   6.232
15541TIP3    H146508   4.700   7.064   6.253
15541TIP3    H246509   4.734   7.179   6.161
15542TIP3   OH246510   4.815   6.976   4.863
15542TIP3    H146511   4.825   7.032   4.787
15542TIP3    H246512   4.747   7.020   4.916
15543TIP3   OH246513   4.689   6.467   5.295
15543TIP3    H146514   4.671   6.390   5.350
15543TIP3    H246515   4.783   6.460   5.275
15544TIP3   OH246516   3.589   6.853   6.381
15544TIP3    H146517   3.641   6.799   6.439
15544TIP3    H246518   3.598   6.942   6.415
15545TIP3   OH246519   3.859   6.471   5.068
15545TIP3    H146520   3.869   6.379   5.041
15545TIP3    H246521   3.840   6.466   5.162
15546TIP3   OH246522   3.802   6.487   5.340
15546TIP3    H146523   3.886   6.466   5.382
15546TIP3    H246524   3.796   6.582   5.347
15547TIP3   OH246525   3.548   6.190   5.574
15547TIP3    H146526   3.475   6.235   5.618
15547TIP3    H246527   3.563   6.242   5.495
15548TIP3   OH246528   4.709   5.789   6.421
15548TIP3    H146529   4.776   5.848   6.456
15548TIP3    H246530   4.695   5.726   6.492
15549TIP3   OH246531   4.584   5.560   5.630
15549TIP3    H146532   4.561   5.581   5.539
15549TIP3    H246533   4.632   5.637   5.661
15550TIP3   OH246534   4.064   6.669   5.286
15550TIP3    H146535   3.981   6.699   5.321
15550TIP3    H246536   4.095   6.741   5.232
15551TIP3   OH246537   4.227   5.760   5.708
15551TIP3    H146538   4.289   5.827   5.681
15551TIP3    H246539   4.254   5.736   5.797
15552TIP3   OH246540   4.545   6.064   6.492
15552TIP3    H146541   4.560   6.117   6.571
15552TIP3    H246542   4.582   5.979   6.513
15553TIP3   OH246543   4.397   5.453   5.799
15553TIP3    H146544   4.375   5.528   5.853
15553TIP3    H246545   4.468   5.483   5.743
15554TIP3   OH246546   3.816   6.760   5.362
15554TIP3    H146547   3.798   6.832   5.302
15554TIP3    H246548   3.807   6.798   5.449
15555TIP3   OH246549   3.912   5.476   5.601
15555TIP3    H146550   3.899   5.565   5.634
15555TIP3    H246551   4.006   5.460   5.610
15556TIP3   OH246552   5.154   5.964   6.493
15556TIP3    H146553   5.058   5.955   6.495
15556TIP3    H246554   5.178   5.940   6.404
15557TIP3   OH246555   4.818   6.153   5.862
15557TIP3    H146556   4.745   6.092   5.876
15557TIP3    H246557   4.890   6.115   5.912
15558TIP3   OH246558   3.558   6.353   5.346
15558TIP3    H146559   3.627   6.418   5.350
15558TIP3    H246560   3.585   6.292   5.277
15559TIP3   OH246561   3.476   5.661   5.491
15559TIP3    H146562   3.477   5.756   5.489
15559TIP3    H246563   3.454   5.634   5.402
15560TIP3   OH246564   4.793   7.126   5.803
15560TIP3    H146565   4.750   7.176   5.734
15560TIP3    H246566   4.886   7.144   5.791
15561TIP3   OH246567   3.856   5.397   6.367
15561TIP3    H146568   3.825   5.366   6.282
15561TIP3    H246569   3.854   5.319   6.423
15562TIP3   OH246570   3.380   6.627   5.735
15562TIP3    H146571   3.339   6.665   5.813
15562TIP3    H246572   3.335   6.669   5.662
15563TIP3   OH246573   3.595   7.168   6.805
15563TIP3    H146574   3.676   7.176   6.856
15563TIP3    H246575   3.588   7.074   6.788
15564TIP3   OH246576   4.052   7.068   6.843
15564TIP3    H146577   4.143   7.039   6.854
15564TIP3    H246578   4.018   7.015   6.772
15565TIP3   OH246579   4.011   6.677   4.966
15565TIP3    H146580   3.963   6.605   5.008
15565TIP3    H246581   4.086   6.635   4.924
15566TIP3   OH246582   4.668   7.013   6.606
15566TIP3    H146583   4.685   6.942   6.668
15566TIP3    H246584   4.742   7.073   6.617
15567TIP3   OH246585   4.453   6.713   4.891
15567TIP3    H146586   4.493   6.652   4.953
15567TIP3    H246587   4.509   6.708   4.813
15568TIP3   OH246588   3.689   6.568   6.989
15568TIP3    H146589   3.713   6.476   7.000
15568TIP3    H246590   3.601   6.566   6.952
15569TIP3   OH246591   3.675   6.166   5.183
15569TIP3    H146592   3.727   6.138   5.258
15569TIP3    H246593   3.739   6.180   5.113
15570TIP3   OH246594   4.310   6.657   6.768
15570TIP3    H146595   4.266   6.673   6.685
15570TIP3    H246596   4.352   6.572   6.757
15571TIP3   OH246597   4.267   6.387   5.034
15571TIP3    H146598   4.235   6.394   5.124
15571TIP3    H246599   4.246   6.297   5.009
15572TIP3   OH246600   4.784   6.695   6.386
15572TIP3    H146601   4.863   6.721   6.337
15572TIP3    H246602   4.722   6.766   6.370
15573TIP3   OH246603   3.812   6.307   6.978
15573TIP3    H146604   3.892   6.265   6.945
15573TIP3    H246605   3.830   6.324   7.070
15574TIP3   OH246606   3.854   6.087   5.388
15574TIP3    H146607   3.816   6.018   5.442
15574TIP3    H246608   3.915   6.042   5.330
15575TIP3   OH246609   4.047   6.154   6.539
15575TIP3    H146610   3.995   6.216   6.590
15575TIP3    H246611   4.136   6.190   6.542
15576TIP3   OH246612   4.010   5.926   5.232
15576TIP3    H146613   3.979   5.926   5.141
15576TIP3    H246614   4.105   5.931   5.225
15577TIP3   OH246615   4.673   6.568   6.734
15577TIP3    H146616   4.741   6.530   6.678
15577TIP3    H246617   4.669   6.509   6.810
15578TIP3   OH246618   4.785   6.215   4.929
15578TIP3    H146619   4.774   6.173   4.844
15578TIP3    H246620   4.763   6.307   4.914
15579TIP3   OH246621   4.281   6.305   6.499
15579TIP3    H146622   4.355   6.272   6.449
15579TIP3    H246623   4.232   6.360   6.437
15580TIP3   OH246624   4.880   6.227   6.816
15580TIP3    H146625   4.906   6.136   6.829
15580TIP3    H246626   4.959   6.270   6.783
15581TIP3   OH246627   4.906   6.514   6.550
15581TIP3    H146628   4.854   6.577   6.499
15581TIP3    H246629   4.996   6.527   6.519
15582TIP3   OH246630   4.118   6.077   7.008
15582TIP3    H146631   4.071   5.999   7.038
15582TIP3    H246632   4.169   6.046   6.933
15583TIP3   OH246633   4.506   6.000   6.841
15583TIP3    H146634   4.505   5.994   6.936
15583TIP3    H246635   4.431   5.948   6.812
15584TIP3   OH246636   4.765   5.950   6.735
15584TIP3    H146637   4.682   5.943   6.782
15584TIP3    H246638   4.830   5.921   6.798
15585TIP3   OH246639   5.001   5.926   6.892
15585TIP3    H146640   5.016   5.831   6.895
15585TIP3    H246641   5.000   5.952   6.984
15586TIP3   OH246642   3.997   5.835   7.065
15586TIP3    H146643   4.057   5.804   6.997
15586TIP3    H246644   4.029   5.795   7.146
15587TIP3   OH246645   4.515   5.550   6.834
15587TIP3    H146646   4.549   5.464   6.857
15587TIP3    H246647   4.420   5.540   6.837
15588TIP3   OH246648   4.613   5.758   6.991
15588TIP3    H146649   4.583   5.686   6.936
15588TIP3    H246650   4.533   5.797   7.026
15589TIP3   OH246651   3.818   6.970   5.181
15589TIP3    H146652   3.908   6.951   5.154
15589TIP3    H246653   3.779   7.015   5.106
15590TIP3   OH246654   3.283   6.352   5.369
15590TIP3    H146655   3.378   6.363   5.361
15590TIP3    H246656   3.265   6.270   5.325
15591TIP3   OH246657   3.189   6.937   5.822
15591TIP3    H146658   3.125   6.884   5.775
15591TIP3    H246659   3.233   6.876   5.881
15592TIP3   OH246660   3.333   6.766   5.989
15592TIP3    H146661   3.323   6.700   6.057
15592TIP3    H246662   3.386   6.835   6.029
15593TIP3   OH246663   5.055   7.202   5.791
15593TIP3    H146664   5.089   7.216   5.880
15593TIP3    H246665   5.127   7.227   5.733
15594TIP3   OH246666   5.087   7.206   6.076
15594TIP3    H146667   5.041   7.123   6.066
15594TIP3    H246668   5.155   7.188   6.141
15595TIP3   OH246669   5.140   6.908   6.651
15595TIP3    H146670   5.071   6.919   6.716
15595TIP3    H246671   5.187   6.992   6.653
15596TIP3   OH246672   4.963   6.428   5.263
15596TIP3    H146673   5.020   6.496   5.229
15596TIP3    H246674   5.012   6.389   5.335
15597TIP3   OH246675   5.098   6.287   5.463
15597TIP3    H146676   5.032   6.249   5.520
15597TIP3    H246677   5.169   6.313   5.522
15598TIP3   OH246678   5.132   6.681   5.886
15598TIP3    H146679   5.185   6.608   5.854
15598TIP3    H246680   5.145   6.751   5.823
15599TIP3   OH246681   4.942   6.967   6.080
15599TIP3    H146682   4.876   7.014   6.131
15599TIP3    H246683   4.893   6.927   6.009
15600TIP3   OH246684   4.994   6.201   5.107
15600TIP3    H146685   4.922   6.201   5.044
15600TIP3    H246686   4.979   6.280   5.159
15601TIP3   OH246687   4.838   5.848   5.046
15601TIP3    H146688   4.796   5.883   4.968
15601TIP3    H246689   4.841   5.753   5.032
15602TIP3   OH246690   4.884   6.147   5.592
15602TIP3    H146691   4.893   6.053   5.577
15602TIP3    H246692   4.867   6.156   5.685
15603TIP3   OH246693   3.519   6.197   6.347
15603TIP3    H146694   3.526   6.114   6.300
15603TIP3    H246695   3.610   6.223   6.364
15604TIP3   OH246696   5.164   6.553   6.451
15604TIP3    H146697   5.227   6.482   6.438
15604TIP3    H246698   5.175   6.609   6.375
15605TIP3   OH246699   5.330   6.335   6.448
15605TIP3    H146700   5.261   6.296   6.501
15605TIP3    H246701   5.408   6.283   6.467
15606TIP3   OH246702   4.823   5.576   5.005
15606TIP3    H146703   4.893   5.544   5.061
15606TIP3    H246704   4.743   5.543   5.046
15607TIP3   OH246705   4.874   5.870   5.480
15607TIP3    H146706   4.921   5.788   5.494
15607TIP3    H246707   4.916   5.908   5.402
15608TIP3   OH246708   5.042   6.039   5.992
15608TIP3    H146709   5.125   6.055   5.947
15608TIP3    H246710   5.055   6.075   6.080
15609TIP3   OH246711   5.102   6.176   6.233
15609TIP3    H146712   5.030   6.206   6.289
15609TIP3    H246713   5.133   6.255   6.189
15610TIP3   OH246714   3.734   5.867   6.972
15610TIP3    H146715   3.827   5.866   6.994
15610TIP3    H246716   3.697   5.793   7.020
15611TIP3   OH246717   5.567   5.773   6.771
15611TIP3    H146718   5.633   5.720   6.727
15611TIP3    H246719   5.527   5.824   6.700
15612TIP3   OH246720   4.988   5.623   5.539
15612TIP3    H146721   5.039   5.608   5.618
15612TIP3    H246722   4.926   5.550   5.535
15613TIP3   OH246723   3.735   5.626   6.481
15613TIP3    H146724   3.784   5.553   6.443
15613TIP3    H246725   3.742   5.695   6.415
15614TIP3   OH246726   3.483   5.884   6.422
15614TIP3    H146727   3.562   5.861   6.374
15614TIP3    H246728   3.512   5.943   6.491
15615TIP3   OH246729   5.411   5.887   6.577
15615TIP3    H146730   5.327   5.929   6.596
15615TIP3    H246731   5.389   5.812   6.523
15616TIP3   OH246732   5.056   5.521   5.149
15616TIP3    H146733   5.112   5.475   5.087
15616TIP3    H246734   5.101   5.603   5.167
15617TIP3   OH246735   3.459   5.400   5.942
15617TIP3    H146736   3.372   5.372   5.970
15617TIP3    H246737   3.444   5.445   5.859
15618TIP3   OH246738   4.620   7.082   5.443
15618TIP3    H146739   4.677   7.074   5.367
15618TIP3    H246740   4.660   7.152   5.495
15619TIP3   OH246741   3.655   5.470   6.748
15619TIP3    H146742   3.629   5.462   6.839
15619TIP3    H246743   3.646   5.382   6.712
15620TIP3   OH246744   3.709   6.890   6.811
15620TIP3    H146745   3.617   6.865   6.808
15620TIP3    H246746   3.735   6.876   6.902
15621TIP3   OH246747   3.934   6.926   6.365
15621TIP3    H146748   3.883   7.001   6.336
15621TIP3    H246749   4.020   6.937   6.324
15622TIP3   OH246750   4.327   7.166   6.509
15622TIP3    H146751   4.365   7.158   6.596
15622TIP3    H246752   4.390   7.219   6.460
15623TIP3   OH246753   4.520   7.317   6.381
15623TIP3    H146754   4.580   7.264   6.330
15623TIP3    H246755   4.576   7.374   6.434
15624TIP3   OH246756   5.327   5.647   6.462
15624TIP3    H146757   5.245   5.650   6.412
15624TIP3    H246758   5.356   5.556   6.456
15625TIP3   OH246759   3.591   7.157   6.419
15625TIP3    H146760   3.501   7.175   6.393
15625TIP3    H246761   3.613   7.227   6.481
15626TIP3   OH246762   3.823   7.159   6.268
15626TIP3    H146763   3.740   7.161   6.314
15626TIP3    H246764   3.801   7.185   6.178
15627TIP3   OH246765   4.235   7.183   6.061
15627TIP3    H146766   4.166   7.194   5.996
15627TIP3    H246767   4.246   7.269   6.100
15628TIP3   OH246768   4.500   7.119   6.108
15628TIP3    H146769   4.409   7.139   6.087
15628TIP3    H246770   4.551   7.184   6.060
15629TIP3   OH246771   4.701   7.286   6.007
15629TIP3    H146772   4.703   7.374   5.968
15629TIP3    H246773   4.732   7.228   5.937
15630TIP3   OH246774   3.508   6.945   6.124
15630TIP3    H146775   3.527   6.920   6.214
15630TIP3    H246776   3.581   6.910   6.073
15631TIP3   OH246777   3.713   6.823   5.988
15631TIP3    H146778   3.729   6.744   6.038
15631TIP3    H246779   3.796   6.871   5.991
15632TIP3   OH246780   3.976   6.919   6.017
15632TIP3    H146781   4.004   6.829   5.998
15632TIP3    H246782   4.030   6.945   6.091
15633TIP3   OH246783   4.511   5.551   6.099
15633TIP3    H146784   4.478   5.481   6.155
15633TIP3    H246785   4.587   5.513   6.056
15634TIP3   OH246786   5.042   5.479   5.980
15634TIP3    H146787   5.083   5.528   5.909
15634TIP3    H246788   4.956   5.519   5.991
15635TIP3   OH246789   5.158   5.561   5.747
15635TIP3    H146790   5.223   5.497   5.719
15635TIP3    H246791   5.201   5.646   5.735
15636TIP3   OH246792   3.773   5.279   6.124
15636TIP3    H146793   3.685   5.240   6.134
15636TIP3    H246794   3.831   5.204   6.112
15637TIP3   OH246795   3.551   5.193   5.743
15637TIP3    H146796   3.603   5.233   5.673
15637TIP3    H246797   3.550   5.259   5.813
15638TIP3   OH246798   4.256   5.305   5.998
15638TIP3    H146799   4.304   5.355   5.932
15638TIP3    H246800   4.294   5.332   6.082
15639TIP3   OH246801   4.745   5.456   5.985
15639TIP3    H146802   4.766   5.426   5.897
15639TIP3    H246803   4.756   5.379   6.041
15640TIP3   OH246804   4.804   5.414   5.544
15640TIP3    H146805   4.724   5.458   5.571
15640TIP3    H246806   4.795   5.325   5.577
15641TIP3   OH246807   3.261   6.749   5.520
15641TIP3    H146808   3.178   6.721   5.482
15641TIP3    H246809   3.272   6.839   5.489
15642TIP3   OH246810   3.699   5.306   5.519
15642TIP3    H146811   3.740   5.244   5.460
15642TIP3    H246812   3.771   5.361   5.551
15643TIP3   OH246813   4.187   5.504   5.615
15643TIP3    H146814   4.248   5.455   5.671
15643TIP3    H246815   4.201   5.596   5.641
15644TIP3   OH246816   4.075   6.897   5.115
15644TIP3    H146817   4.157   6.925   5.075
15644TIP3    H246818   4.044   6.827   5.057
15645TIP3   OH246819   4.772   7.039   5.214
15645TIP3    H146820   4.766   6.944   5.203
15645TIP3    H246821   4.731   7.075   5.135
15646TIP3   OH246822   4.035   5.487   6.994
15646TIP3    H146823   3.998   5.435   7.066
15646TIP3    H246824   4.114   5.526   7.031
15647TIP3   OH246825   4.264   5.568   7.136
15647TIP3    H146826   4.331   5.608   7.080
15647TIP3    H246827   4.312   5.508   7.192
15648TIP3   OH246828   3.379   6.740   5.164
15648TIP3    H146829   3.381   6.759   5.258
15648TIP3    H246830   3.460   6.693   5.147
15649TIP3   OH246831   5.074   5.657   6.892
15649TIP3    H146832   5.088   5.625   6.981
15649TIP3    H246833   5.160   5.648   6.850
15650TIP3   OH246834   4.986   7.180   6.401
15650TIP3    H146835   4.914   7.151   6.346
15650TIP3    H246836   4.974   7.275   6.406
15651TIP3   OH246837   6.270   6.571   5.130
15651TIP3    H146838   6.237   6.658   5.106
15651TIP3    H246839   6.199   6.511   5.110
15652TIP3   OH246840   6.271   6.567   5.562
15652TIP3    H146841   6.325   6.547   5.638
15652TIP3    H246842   6.225   6.485   5.543
15653TIP3   OH246843   5.554   6.432   5.913
15653TIP3    H146844   5.589   6.374   5.980
15653TIP3    H246845   5.628   6.447   5.854
15654TIP3   OH246846   6.536   6.868   5.239
15654TIP3    H146847   6.522   6.802   5.307
15654TIP3    H246848   6.555   6.949   5.286
15655TIP3   OH246849   5.541   6.843   5.594
15655TIP3    H146850   5.526   6.748   5.592
15655TIP3    H246851   5.636   6.853   5.589
15656TIP3   OH246852   5.235   6.052   5.379
15656TIP3    H146853   5.201   6.139   5.402
15656TIP3    H246854   5.161   6.009   5.336
15657TIP3   OH246855   5.337   6.346   5.607
15657TIP3    H146856   5.394   6.274   5.634
15657TIP3    H246857   5.397   6.416   5.581
15658TIP3   OH246858   6.198   7.294   5.252
15658TIP3    H146859   6.222   7.232   5.183
15658TIP3    H246860   6.207   7.243   5.333
15659TIP3   OH246861   6.065   6.779   5.572
15659TIP3    H146862   6.110   6.701   5.541
15659TIP3    H246863   6.135   6.838   5.602
15660TIP3   OH246864   7.111   6.095   5.582
15660TIP3    H146865   7.120   6.179   5.626
15660TIP3    H246866   7.146   6.110   5.494
15661TIP3   OH246867   6.487   6.272   5.598
15661TIP3    H146868   6.512   6.185   5.630
15661TIP3    H246869   6.438   6.254   5.518
15662TIP3   OH246870   6.520   6.025   5.210
15662TIP3    H146871   6.585   6.018   5.281
15662TIP3    H246872   6.569   6.064   5.138
15663TIP3   OH246873   5.510   6.133   5.711
15663TIP3    H146874   5.604   6.144   5.726
15663TIP3    H246875   5.504   6.084   5.629
15664TIP3   OH246876   5.874   6.345   5.519
15664TIP3    H146877   5.968   6.326   5.521
15664TIP3    H246878   5.834   6.263   5.491
15665TIP3   OH246879   7.139   6.309   5.757
15665TIP3    H146880   7.062   6.361   5.735
15665TIP3    H246881   7.128   6.287   5.849
15666TIP3   OH246882   5.835   5.946   6.039
15666TIP3    H146883   5.822   5.967   5.947
15666TIP3    H246884   5.752   5.969   6.081
15667TIP3   OH246885   6.163   6.790   4.999
15667TIP3    H146886   6.124   6.759   4.917
15667TIP3    H246887   6.109   6.866   5.024
15668TIP3   OH246888   5.921   6.698   5.796
15668TIP3    H146889   5.863   6.769   5.824
15668TIP3    H246890   5.966   6.732   5.719
15669TIP3   OH246891   6.691   6.050   5.422
15669TIP3    H146892   6.644   6.032   5.504
15669TIP3    H246893   6.745   6.127   5.442
15670TIP3   OH246894   5.755   6.908   5.882
15670TIP3    H146895   5.742   6.997   5.849
15670TIP3    H246896   5.676   6.889   5.932
15671TIP3   OH246897   5.129   6.616   5.137
15671TIP3    H146898   5.099   6.633   5.048
15671TIP3    H246899   5.153   6.702   5.172
15672TIP3   OH246900   6.567   7.116   5.376
15672TIP3    H146901   6.479   7.109   5.414
15672TIP3    H246902   6.566   7.199   5.329
15673TIP3   OH246903   6.915   5.989   5.754
15673TIP3    H146904   6.829   6.009   5.716
15673TIP3    H246905   6.977   6.014   5.686
15674TIP3   OH246906   6.165   5.618   5.741
15674TIP3    H146907   6.156   5.526   5.766
15674TIP3    H246908   6.086   5.660   5.775
15675TIP3   OH246909   6.278   7.149   5.028
15675TIP3    H146910   6.331   7.070   5.019
15675TIP3    H246911   6.337   7.220   5.000
15676TIP3   OH246912   6.414   6.916   4.995
15676TIP3    H146913   6.339   6.856   4.995
15676TIP3    H246914   6.464   6.891   5.073
15677TIP3   OH246915   6.806   7.005   5.718
15677TIP3    H146916   6.787   6.930   5.662
15677TIP3    H246917   6.790   7.081   5.663
15678TIP3   OH246918   6.092   6.406   4.992
15678TIP3    H146919   6.009   6.449   4.972
15678TIP3    H246920   6.139   6.406   4.908
15679TIP3   OH246921   6.065   6.221   4.671
15679TIP3    H146922   6.130   6.268   4.724
15679TIP3    H246923   6.116   6.158   4.621
15680TIP3   OH246924   6.994   6.676   5.586
15680TIP3    H146925   6.908   6.719   5.588
15680TIP3    H246926   7.023   6.683   5.496
15681TIP3   OH246927   6.460   6.497   4.949
15681TIP3    H146928   6.402   6.528   5.019
15681TIP3    H246929   6.542   6.475   4.993
15682TIP3   OH246930   6.686   6.528   5.897
15682TIP3    H146931   6.680   6.611   5.944
15682TIP3    H246932   6.605   6.524   5.845
15683TIP3   OH246933   5.689   6.477   5.352
15683TIP3    H146934   5.656   6.413   5.289
15683TIP3    H246935   5.755   6.430   5.402
15684TIP3   OH246936   5.809   6.898   5.503
15684TIP3    H146937   5.788   6.883   5.410
15684TIP3    H246938   5.895   6.858   5.515
15685TIP3   OH246939   5.754   6.484   5.727
15685TIP3    H146940   5.801   6.431   5.663
15685TIP3    H246941   5.817   6.551   5.754
15686TIP3   OH246942   6.326   7.112   5.503
15686TIP3    H146943   6.315   7.192   5.556
15686TIP3    H246944   6.311   7.040   5.565
15687TIP3   OH246945   5.951   7.010   6.051
15687TIP3    H146946   5.888   7.065   6.096
15687TIP3    H246947   5.898   6.956   5.992
15688TIP3   OH246948   6.284   6.360   4.785
15688TIP3    H146949   6.345   6.418   4.832
15688TIP3    H246950   6.311   6.367   4.694
15689TIP3   OH246951   5.713   6.577   6.212
15689TIP3    H146952   5.706   6.672   6.219
15689TIP3    H246953   5.626   6.549   6.184
15690TIP3   OH246954   6.029   7.032   5.035
15690TIP3    H146955   6.112   7.079   5.041
15690TIP3    H246956   5.971   7.091   4.987
15691TIP3   OH246957   5.738   7.167   6.133
15691TIP3    H146958   5.717   7.176   6.040
15691TIP3    H246959   5.654   7.155   6.176
15692TIP3   OH246960   6.795   5.607   4.835
15692TIP3    H146961   6.719   5.625   4.890
15692TIP3    H246962   6.804   5.685   4.781
15693TIP3   OH246963   5.563   6.321   5.147
15693TIP3    H146964   5.478   6.357   5.125
15693TIP3    H246965   5.544   6.237   5.189
15694TIP3   OH246966   6.621   6.961   4.399
15694TIP3    H146967   6.613   7.053   4.377
15694TIP3    H246968   6.711   6.938   4.376
15695TIP3   OH246969   5.332   6.732   6.083
15695TIP3    H146970   5.265   6.707   6.020
15695TIP3    H246971   5.366   6.649   6.116
15696TIP3   OH246972   5.227   6.895   5.724
15696TIP3    H146973   5.317   6.879   5.695
15696TIP3    H246974   5.235   6.969   5.785
15697TIP3   OH246975   7.035   7.370   5.787
15697TIP3    H146976   7.040   7.275   5.798
15697TIP3    H246977   6.956   7.395   5.835
15698TIP3   OH246978   6.140   7.156   5.915
15698TIP3    H146979   6.130   7.247   5.945
15698TIP3    H246980   6.073   7.108   5.963
15699TIP3   OH246981   5.920   7.248   4.867
15699TIP3    H146982   5.877   7.228   4.784
15699TIP3    H246983   5.882   7.332   4.894
15700TIP3   OH246984   5.354   7.108   5.247
15700TIP3    H146985   5.399   7.099   5.331
15700TIP3    H246986   5.306   7.026   5.237
15701TIP3   OH246987   6.122   7.184   4.494
15701TIP3    H146988   6.172   7.111   4.458
15701TIP3    H246989   6.158   7.198   4.581
15702TIP3   OH246990   6.175   7.228   4.764
15702TIP3    H146991   6.089   7.230   4.805
15702TIP3    H246992   6.232   7.191   4.831
15703TIP3   OH246993   6.930   6.477   6.048
15703TIP3    H146994   6.846   6.491   6.005
15703TIP3    H246995   6.943   6.382   6.044
15704TIP3   OH246996   5.531   6.920   6.048
15704TIP3    H146997   5.581   6.910   6.129
15704TIP3    H246998   5.461   6.855   6.055
15705TIP3   OH246999   5.922   5.716   5.832
15705TIP3    H147000   5.831   5.686   5.828
15705TIP3    H247001   5.918   5.807   5.803
15706TIP3   OH247002   6.459   5.838   6.073
15706TIP3    H147003   6.528   5.816   6.136
15706TIP3    H247004   6.377   5.821   6.120
15707TIP3   OH247005   6.677   6.262   5.989
15707TIP3    H147006   6.637   6.256   6.076
15707TIP3    H247007   6.661   6.352   5.961
15708TIP3   OH247008   6.356   6.354   4.522
15708TIP3    H147009   6.309   6.351   4.439
15708TIP3    H247010   6.439   6.396   4.501
15709TIP3   OH247011   6.068   5.751   4.840
15709TIP3    H147012   6.035   5.760   4.929
15709TIP3    H247013   6.031   5.668   4.808
15710TIP3   OH247014   5.714   6.155   5.390
15710TIP3    H147015   5.645   6.107   5.436
15710TIP3    H247016   5.732   6.103   5.312
15711TIP3   OH247017   6.207   6.201   5.134
15711TIP3    H147018   6.160   6.274   5.094
15711TIP3    H247019   6.264   6.169   5.064
15712TIP3   OH247020   6.411   6.473   6.213
15712TIP3    H147021   6.382   6.404   6.271
15712TIP3    H247022   6.505   6.483   6.232
15713TIP3   OH247023   6.374   6.216   5.355
15713TIP3    H147024   6.308   6.236   5.289
15713TIP3    H247025   6.422   6.141   5.319
15714TIP3   OH247026   5.659   6.267   6.103
15714TIP3    H147027   5.751   6.293   6.113
15714TIP3    H247028   5.655   6.179   6.142
15715TIP3   OH247029   5.738   5.721   4.805
15715TIP3    H147030   5.733   5.729   4.901
15715TIP3    H247031   5.665   5.775   4.773
15716TIP3   OH247032   5.295   5.783   5.683
15716TIP3    H147033   5.360   5.820   5.742
15716TIP3    H247034   5.338   5.784   5.597
15717TIP3   OH247035   5.183   5.764   5.191
15717TIP3    H147036   5.233   5.802   5.119
15717TIP3    H247037   5.119   5.831   5.215
15718TIP3   OH247038   6.441   6.477   5.768
15718TIP3    H147039   6.463   6.407   5.707
15718TIP3    H247040   6.395   6.432   5.840
15719TIP3   OH247041   6.083   5.941   5.480
15719TIP3    H147042   6.013   5.961   5.543
15719TIP3    H247043   6.160   5.927   5.534
15720TIP3   OH247044   5.492   6.005   5.472
15720TIP3    H147045   5.406   6.012   5.431
15720TIP3    H247046   5.521   5.916   5.452
15721TIP3   OH247047   5.748   6.002   5.162
15721TIP3    H147048   5.843   6.014   5.160
15721TIP3    H247049   5.719   6.020   5.073
15722TIP3   OH247050   6.540   6.005   5.651
15722TIP3    H147051   6.525   6.020   5.745
15722TIP3    H247052   6.468   5.946   5.625
15723TIP3   OH247053   5.656   6.028   4.905
15723TIP3    H147054   5.593   5.981   4.851
15723TIP3    H247055   5.708   6.078   4.843
15724TIP3   OH247056   6.749   7.712   5.879
15724TIP3    H147057   6.746   7.728   5.785
15724TIP3    H247058   6.827   7.758   5.909
15725TIP3   OH247059   5.679   6.846   6.287
15725TIP3    H147060   5.762   6.858   6.334
15725TIP3    H247061   5.612   6.847   6.355
15726TIP3   OH247062   6.159   6.304   5.546
15726TIP3    H147063   6.217   6.253   5.490
15726TIP3    H247064   6.156   6.255   5.628
15727TIP3   OH247065   5.594   5.751   5.443
15727TIP3    H147066   5.578   5.669   5.489
15727TIP3    H247067   5.689   5.757   5.435
15728TIP3   OH247068   6.121   6.174   5.788
15728TIP3    H147069   6.038   6.130   5.770
15728TIP3    H247070   6.101   6.237   5.857
15729TIP3   OH247071   5.855   6.539   4.932
15729TIP3    H147072   5.779   6.486   4.907
15729TIP3    H247073   5.829   6.581   5.013
15730TIP3   OH247074   6.751   6.801   5.541
15730TIP3    H147075   6.785   6.850   5.466
15730TIP3    H247076   6.670   6.761   5.509
15731TIP3   OH247077   6.316   5.869   4.841
15731TIP3    H147078   6.223   5.846   4.838
15731TIP3    H247079   6.316   5.963   4.856
15732TIP3   OH247080   6.272   6.893   5.952
15732TIP3    H147081   6.322   6.878   6.032
15732TIP3    H247082   6.232   6.979   5.964
15733TIP3   OH247083   6.372   6.130   4.918
15733TIP3    H147084   6.467   6.137   4.934
15733TIP3    H247085   6.351   6.208   4.867
15734TIP3   OH247086   5.536   6.556   5.571
15734TIP3    H147087   5.579   6.538   5.487
15734TIP3    H247088   5.602   6.533   5.637
15735TIP3   OH247089   6.010   6.702   4.778
15735TIP3    H147090   5.961   6.785   4.775
15735TIP3    H247091   5.954   6.644   4.830
15736TIP3   OH247092   5.427   6.522   6.234
15736TIP3    H147093   5.460   6.511   6.323
15736TIP3    H247094   5.376   6.443   6.218
15737TIP3   OH247095   6.189   6.641   6.222
15737TIP3    H147096   6.137   6.614   6.146
15737TIP3    H247097   6.271   6.593   6.213
15738TIP3   OH247098   6.411   7.178   5.838
15738TIP3    H147099   6.317   7.163   5.841
15738TIP3    H247100   6.433   7.212   5.925
15739TIP3   OH247101   7.051   7.091   5.805
15739TIP3    H147102   6.957   7.073   5.799
15739TIP3    H247103   7.087   7.055   5.724
15740TIP3   OH247104   6.535   7.030   4.662
15740TIP3    H147105   6.505   6.959   4.719
15740TIP3    H247106   6.556   6.987   4.579
15741TIP3   OH247107   6.518   6.669   5.441
15741TIP3    H147108   6.429   6.648   5.467
15741TIP3    H247109   6.553   6.588   5.405
15742TIP3   OH247110   5.675   6.902   5.254
15742TIP3    H147111   5.673   6.978   5.196
15742TIP3    H247112   5.583   6.886   5.275
15743TIP3   OH247113   5.228   6.187   4.961
15743TIP3    H147114   5.275   6.267   4.986
15743TIP3    H247115   5.149   6.188   5.014
15744TIP3   OH247116   5.758   6.659   5.152
15744TIP3    H147117   5.744   6.747   5.187
15744TIP3    H247118   5.737   6.601   5.226
15745TIP3   OH247119   5.958   7.224   5.706
15745TIP3    H147120   5.993   7.298   5.656
15745TIP3    H247121   6.032   7.191   5.757
15746TIP3   OH247122   5.590   7.124   5.103
15746TIP3    H147123   5.503   7.132   5.142
15746TIP3    H247124   5.626   7.213   5.108
15747TIP3   OH247125   6.301   6.891   5.677
15747TIP3    H147126   6.290   6.889   5.772
15747TIP3    H247127   6.372   6.829   5.659
15748TIP3   OH247128   6.306   6.764   4.543
15748TIP3    H147129   6.356   6.734   4.618
15748TIP3    H247130   6.222   6.719   4.549
15749TIP3   OH247131   6.565   7.382   5.720
15749TIP3    H147132   6.497   7.319   5.742
15749TIP3    H247133   6.528   7.435   5.649
15750TIP3   OH247134   6.610   7.232   4.351
15750TIP3    H147135   6.618   7.287   4.273
15750TIP3    H247136   6.542   7.275   4.403
15751TIP3   OH247137   5.624   6.009   6.209
15751TIP3    H147138   5.530   6.018   6.222
15751TIP3    H247139   5.652   5.949   6.278
15752TIP3   OH247140   6.483   6.672   4.733
15752TIP3    H147141   6.466   6.623   4.813
15752TIP3    H247142   6.578   6.680   4.728
15753TIP3   OH247143   5.374   7.117   5.876
15753TIP3    H147144   5.429   7.056   5.926
15753TIP3    H247145   5.393   7.203   5.913
15754TIP3   OH247146   5.653   6.730   4.565
15754TIP3    H147147   5.664   6.638   4.539
15754TIP3    H247148   5.640   6.725   4.660
15755TIP3   OH247149   5.594   6.747   4.839
15755TIP3    H147150   5.657   6.721   4.906
15755TIP3    H247151   5.593   6.843   4.842
15756TIP3   OH247152   5.325   6.434   5.049
15756TIP3    H147153   5.262   6.484   5.101
15756TIP3    H247154   5.348   6.491   4.977
15757TIP3   OH247155   6.497   6.061   5.913
15757TIP3    H147156   6.565   6.116   5.952
15757TIP3    H247157   6.485   5.990   5.976
15758TIP3   OH247158   6.376   5.810   5.110
15758TIP3    H147159   6.354   5.834   5.020
15758TIP3    H247160   6.418   5.888   5.145
15759TIP3   OH247161   5.863   6.930   4.770
15759TIP3    H147162   5.779   6.955   4.809
15759TIP3    H247163   5.888   7.004   4.715
15760TIP3   OH247164   6.025   6.008   5.214
15760TIP3    H147165   6.087   6.078   5.191
15760TIP3    H247166   6.037   5.996   5.308
15761TIP3   OH247167   6.331   6.339   5.976
15761TIP3    H147168   6.357   6.372   6.062
15761TIP3    H247169   6.354   6.246   5.978
15762TIP3   OH247170   6.194   5.716   5.298
15762TIP3    H147171   6.176   5.793   5.352
15762TIP3    H247172   6.261   5.745   5.236
15763TIP3   OH247173   5.615   7.020   4.850
15763TIP3    H147174   5.596   7.092   4.790
15763TIP3    H247175   5.605   7.059   4.937
15764TIP3   OH247176   5.713   5.733   5.081
15764TIP3    H147177   5.694   5.818   5.122
15764TIP3    H247178   5.806   5.719   5.096
15765TIP3   OH247179   6.937   6.203   5.946
15765TIP3    H147180   6.844   6.217   5.965
15765TIP3    H247181   6.938   6.132   5.882
15766TIP3   OH247182   6.609   6.412   5.356
15766TIP3    H147183   6.531   6.360   5.375
15766TIP3    H247184   6.678   6.372   5.409
15767TIP3   OH247185   5.353   6.610   4.831
15767TIP3    H147186   5.424   6.673   4.840
15767TIP3    H247187   5.384   6.548   4.766
15768TIP3   OH247188   5.265   5.912   4.979
15768TIP3    H147189   5.269   6.008   4.978
15768TIP3    H247190   5.247   5.888   4.888
15769TIP3   OH247191   6.590   7.381   5.290
15769TIP3    H147192   6.549   7.435   5.222
15769TIP3    H247193   6.684   7.393   5.276
15770TIP3   OH247194   5.655   5.630   5.833
15770TIP3    H147195   5.625   5.601   5.747
15770TIP3    H247196   5.647   5.553   5.889
15771TIP3   OH247197   5.177   6.887   5.221
15771TIP3    H147198   5.135   6.922   5.299
15771TIP3    H247199   5.132   6.930   5.148
15772TIP3   OH247200   5.391   7.427   6.292
15772TIP3    H147201   5.472   7.435   6.343
15772TIP3    H247202   5.385   7.334   6.272
15773TIP3   OH247203   5.848   7.324   6.330
15773TIP3    H147204   5.939   7.295   6.339
15773TIP3    H247205   5.814   7.273   6.257
15774TIP3   OH247206   5.804   6.932   4.453
15774TIP3    H147207   5.758   6.862   4.499
15774TIP3    H247208   5.879   6.889   4.412
15775TIP3   OH247209   6.465   7.273   6.090
15775TIP3    H147210   6.480   7.202   6.153
15775TIP3    H247211   6.540   7.331   6.102
15776TIP3   OH247212   6.249   6.973   4.374
15776TIP3    H147213   6.285   6.908   4.435
15776TIP3    H247214   6.305   6.968   4.297
15777TIP3   OH247215   5.480   6.827   6.481
15777TIP3    H147216   5.500   6.734   6.489
15777TIP3    H247217   5.394   6.829   6.439
15778TIP3   OH247218   5.472   6.423   4.671
15778TIP3    H147219   5.522   6.398   4.749
15778TIP3    H247220   5.538   6.438   4.603
15779TIP3   OH247221   6.104   6.907   6.257
15779TIP3    H147222   6.061   6.928   6.174
15779TIP3    H247223   6.145   6.822   6.243
15780TIP3   OH247224   6.055   6.644   4.514
15780TIP3    H147225   6.030   6.654   4.606
15780TIP3    H247226   6.032   6.553   4.494
15781TIP3   OH247227   6.583   6.954   5.877
15781TIP3    H147228   6.660   6.981   5.826
15781TIP3    H247229   6.517   7.021   5.858
15782TIP3   OH247230   5.590   6.569   6.474
15782TIP3    H147231   5.662   6.558   6.412
15782TIP3    H247232   5.632   6.582   6.558
15783TIP3   OH247233   5.643   6.367   4.882
15783TIP3    H147234   5.625   6.340   4.972
15783TIP3    H247235   5.695   6.295   4.846
15784TIP3   OH247236   5.907   6.400   6.129
15784TIP3    H147237   5.844   6.464   6.163
15784TIP3    H247238   5.965   6.451   6.072
15785TIP3   OH247239   5.795   6.187   4.731
15785TIP3    H147240   5.764   6.190   4.641
15785TIP3    H247241   5.890   6.197   4.724
15786TIP3   OH247242   6.465   6.824   6.223
15786TIP3    H147243   6.532   6.785   6.167
15786TIP3    H247244   6.461   6.767   6.300
15787TIP3   OH247245   6.580   6.467   4.405
15787TIP3    H147246   6.563   6.426   4.320
15787TIP3    H247247   6.561   6.560   4.391
15788TIP3   OH247248   6.068   6.213   6.248
15788TIP3    H147249   6.079   6.140   6.187
15788TIP3    H247250   6.014   6.276   6.200
15789TIP3   OH247251   6.095   6.017   6.047
15789TIP3    H147252   6.117   6.037   5.956
15789TIP3    H247253   6.004   5.990   6.044
15790TIP3   OH247254   6.077   6.557   5.979
15790TIP3    H147255   6.155   6.534   5.930
15790TIP3    H247256   6.025   6.610   5.918
15791TIP3   OH247257   6.678   6.505   6.306
15791TIP3    H147258   6.727   6.423   6.313
15791TIP3    H247259   6.745   6.573   6.298
15792TIP3   OH247260   6.701   6.772   6.039
15792TIP3    H147261   6.649   6.835   5.989
15792TIP3    H247262   6.791   6.785   6.008
15793TIP3   OH247263   5.952   6.293   6.495
15793TIP3    H147264   5.883   6.229   6.510
15793TIP3    H247265   5.981   6.277   6.405
15794TIP3   OH247266   6.195   5.781   6.152
15794TIP3    H147267   6.162   5.864   6.118
15794TIP3    H247268   6.127   5.718   6.130
15795TIP3   OH247269   6.320   6.257   6.356
15795TIP3    H147270   6.306   6.242   6.449
15795TIP3    H247271   6.235   6.239   6.315
15796TIP3   OH247272   6.567   6.211   6.229
15796TIP3    H147273   6.488   6.211   6.283
15796TIP3    H247274   6.638   6.190   6.289
15797TIP3   OH247275   6.810   6.182   6.372
15797TIP3    H147276   6.821   6.088   6.381
15797TIP3    H247277   6.804   6.214   6.463
15798TIP3   OH247278   5.779   6.079   6.559
15798TIP3    H147279   5.786   5.993   6.518
15798TIP3    H247280   5.821   6.069   6.645
15799TIP3   OH247281   6.259   5.761   6.417
15799TIP3    H147282   6.329   5.696   6.410
15799TIP3    H247283   6.228   5.772   6.327
15800TIP3   OH247284   6.360   5.975   6.562
15800TIP3    H147285   6.328   5.904   6.506
15800TIP3    H247286   6.288   6.039   6.563
15801TIP3   OH247287   5.615   7.231   4.670
15801TIP3    H147288   5.704   7.209   4.642
15801TIP3    H247289   5.576   7.275   4.594
15802TIP3   OH247290   5.079   6.612   4.845
15802TIP3    H147291   5.174   6.622   4.842
15802TIP3    H247292   5.062   6.527   4.804
15803TIP3   OH247293   4.979   7.192   5.310
15803TIP3    H147294   4.915   7.138   5.264
15803TIP3    H247295   5.024   7.132   5.369
15804TIP3   OH247296   5.124   7.024   5.477
15804TIP3    H147297   5.119   6.955   5.542
15804TIP3    H247298   5.174   7.094   5.520
15805TIP3   OH247299   6.861   7.430   5.283
15805TIP3    H147300   6.882   7.458   5.372
15805TIP3    H247301   6.915   7.486   5.228
15806TIP3   OH247302   6.879   7.463   5.564
15806TIP3    H147303   6.832   7.380   5.559
15806TIP3    H247304   6.949   7.448   5.627
15807TIP3   OH247305   6.936   7.165   6.134
15807TIP3    H147306   6.863   7.174   6.196
15807TIP3    H247307   6.982   7.249   6.140
15808TIP3   OH247308   6.764   6.663   4.739
15808TIP3    H147309   6.815   6.738   4.708
15808TIP3    H247310   6.810   6.633   4.818
15809TIP3   OH247311   6.894   6.523   4.948
15809TIP3    H147312   6.826   6.496   5.010
15809TIP3    H247313   6.962   6.562   5.003
15810TIP3   OH247314   6.937   6.942   5.382
15810TIP3    H147315   6.984   6.873   5.336
15810TIP3    H247316   6.936   7.016   5.322
15811TIP3   OH247317   6.737   7.225   5.568
15811TIP3    H147318   6.671   7.270   5.620
15811TIP3    H247319   6.688   7.184   5.497
15812TIP3   OH247320   6.749   6.418   4.612
15812TIP3    H147321   6.686   6.427   4.540
15812TIP3    H247322   6.742   6.501   4.660
15813TIP3   OH247323   6.683   6.400   5.091
15813TIP3    H147324   6.675   6.305   5.082
15813TIP3    H247325   6.661   6.418   5.182
15814TIP3   OH247326   5.294   6.462   5.853
15814TIP3    H147327   5.290   6.420   5.767
15814TIP3    H247328   5.387   6.462   5.876
15815TIP3   OH247329   6.960   6.813   5.944
15815TIP3    H147330   7.029   6.748   5.929
15815TIP3    H247331   6.972   6.877   5.873
15816TIP3   OH247332   7.143   6.607   5.936
15816TIP3    H147333   7.069   6.560   5.974
15816TIP3    H247334   7.220   6.558   5.966
15817TIP3   OH247335   6.598   5.776   4.486
15817TIP3    H147336   6.659   5.784   4.559
15817TIP3    H247337   6.515   5.751   4.526
15818TIP3   OH247338   6.660   6.125   4.985
15818TIP3    H147339   6.703   6.040   4.998
15818TIP3    H247340   6.711   6.167   4.916
15819TIP3   OH247341   6.829   6.287   5.486
15819TIP3    H147342   6.909   6.307   5.436
15819TIP3    H247343   6.842   6.331   5.570
15820TIP3   OH247344   6.897   6.444   5.709
15820TIP3    H147345   6.827   6.471   5.768
15820TIP3    H247346   6.930   6.526   5.672
15821TIP3   OH247347   5.512   6.132   6.495
15821TIP3    H147348   5.607   6.131   6.509
15821TIP3    H247349   5.481   6.051   6.535
15822TIP3   OH247350   7.341   6.040   6.242
15822TIP3    H147351   7.413   5.982   6.220
15822TIP3    H247352   7.327   6.093   6.164
15823TIP3   OH247353   6.777   5.879   5.031
15823TIP3    H147354   6.829   5.865   5.110
15823TIP3    H247355   6.718   5.804   5.026
15824TIP3   OH247356   5.494   5.858   5.861
15824TIP3    H147357   5.556   5.786   5.860
15824TIP3    H247358   5.544   5.934   5.830
15825TIP3   OH247359   5.295   6.122   5.905
15825TIP3    H147360   5.357   6.106   5.833
15825TIP3    H247361   5.330   6.199   5.950
15826TIP3   OH247362   7.212   6.184   6.041
15826TIP3    H147363   7.147   6.214   6.105
15826TIP3    H247364   7.174   6.106   6.002
15827TIP3   OH247365   6.850   5.815   4.646
15827TIP3    H147366   6.888   5.743   4.596
15827TIP3    H247367   6.858   5.891   4.589
15828TIP3   OH247368   5.250   5.617   5.413
15828TIP3    H147369   5.165   5.619   5.458
15828TIP3    H247370   5.240   5.680   5.341
15829TIP3   OH247371   6.422   7.352   4.926
15829TIP3    H147372   6.477   7.339   4.849
15829TIP3    H247373   6.465   7.422   4.974
15830TIP3   OH247374   5.494   5.671   6.231
15830TIP3    H147375   5.444   5.672   6.313
15830TIP3    H247376   5.441   5.723   6.170
15831TIP3   OH247377   5.507   7.153   6.293
15831TIP3    H147378   5.415   7.126   6.290
15831TIP3    H247379   5.535   7.134   6.382
15832TIP3   OH247380   5.728   7.186   5.852
15832TIP3    H147381   5.679   7.263   5.821
15832TIP3    H247382   5.814   7.194   5.809
15833TIP3   OH247383   6.123   7.422   5.995
15833TIP3    H147384   6.161   7.413   6.083
15833TIP3    H247385   6.186   7.475   5.947
15834TIP3   OH247386   6.316   7.575   5.868
15834TIP3    H147387   6.376   7.520   5.819
15834TIP3    H247388   6.372   7.631   5.921
15835TIP3   OH247389   7.117   5.922   5.951
15835TIP3    H147390   7.037   5.926   5.899
15835TIP3    H247391   7.147   5.832   5.943
15836TIP3   OH247392   5.391   7.426   5.906
15836TIP3    H147393   5.301   7.448   5.883
15836TIP3    H247394   5.417   7.492   5.970
15837TIP3   OH247395   5.621   7.421   5.753
15837TIP3    H147396   5.538   7.424   5.801
15837TIP3    H247397   5.598   7.443   5.663
15838TIP3   OH247398   6.032   7.438   5.546
15838TIP3    H147399   5.960   7.448   5.483
15838TIP3    H247400   6.042   7.525   5.585
15839TIP3   OH247401   6.295   7.372   5.596
15839TIP3    H147402   6.204   7.393   5.574
15839TIP3    H247403   6.346   7.438   5.548
15840TIP3   OH247404   6.495   7.540   5.494
15840TIP3    H147405   6.498   7.628   5.455
15840TIP3    H247406   6.526   7.482   5.424
15841TIP3   OH247407   5.296   7.204   5.624
15841TIP3    H147408   5.323   7.180   5.712
15841TIP3    H247409   5.367   7.172   5.568
15842TIP3   OH247410   5.500   7.091   5.482
15842TIP3    H147411   5.511   7.005   5.522
15842TIP3    H247412   5.587   7.131   5.485
15843TIP3   OH247413   5.769   7.176   5.505
15843TIP3    H147414   5.787   7.083   5.491
15843TIP3    H247415   5.826   7.200   5.579
15844TIP3   OH247416   6.327   5.824   5.582
15844TIP3    H147417   6.287   5.753   5.632
15844TIP3    H247418   6.396   5.782   5.531
15845TIP3   OH247419   6.836   5.737   5.467
15845TIP3    H147420   6.875   5.792   5.399
15845TIP3    H247421   6.746   5.769   5.474
15846TIP3   OH247422   6.953   5.836   5.237
15846TIP3    H147423   7.018   5.768   5.217
15846TIP3    H247424   6.998   5.918   5.218
15847TIP3   OH247425   5.564   5.519   5.595
15847TIP3    H147426   5.475   5.483   5.604
15847TIP3    H247427   5.620   5.442   5.585
15848TIP3   OH247428   5.377   5.436   5.250
15848TIP3    H147429   5.409   5.492   5.179
15848TIP3    H247430   5.344   5.497   5.316
15849TIP3   OH247431   6.048   5.563   5.482
15849TIP3    H147432   6.090   5.618   5.417
15849TIP3    H247433   6.082   5.594   5.566
15850TIP3   OH247434   6.543   5.704   5.454
15850TIP3    H147435   6.566   5.666   5.369
15850TIP3    H247436   6.549   5.631   5.515
15851TIP3   OH247437   6.598   5.665   5.022
15851TIP3    H147438   6.518   5.709   5.050
15851TIP3    H247439   6.589   5.576   5.056
15852TIP3   OH247440   5.056   7.009   5.006
15852TIP3    H147441   4.974   6.977   4.967
15852TIP3    H247442   5.064   7.099   4.974
15853TIP3   OH247443   5.492   5.575   5.022
15853TIP3    H147444   5.546   5.498   5.003
15853TIP3    H247445   5.554   5.641   5.052
15854TIP3   OH247446   5.990   5.760   5.105
15854TIP3    H147447   6.046   5.711   5.166
15854TIP3    H247448   5.996   5.851   5.134
15855TIP3   OH247449   5.869   7.154   4.598
15855TIP3    H147450   5.952   7.182   4.560
15855TIP3    H247451   5.838   7.084   4.541
15856TIP3   OH247452   6.571   7.298   4.698
15856TIP3    H147453   6.564   7.203   4.690
15856TIP3    H247454   6.528   7.332   4.619
15857TIP3   OH247455   5.799   5.807   6.469
15857TIP3    H147456   5.766   5.740   6.529
15857TIP3    H247457   5.891   5.817   6.493
15858TIP3   OH247458   6.046   5.816   6.594
15858TIP3    H147459   6.123   5.795   6.540
15858TIP3    H247460   6.043   5.746   6.659
15859TIP3   OH247461   5.181   7.001   4.655
15859TIP3    H147462   5.184   7.012   4.750
15859TIP3    H247463   5.260   6.953   4.633
15860TIP3   OH247464   6.866   5.908   6.382
15860TIP3    H147465   6.885   5.877   6.470
15860TIP3    H247466   6.951   5.903   6.337
15861TIP3   OH247467   6.786   7.438   5.884
15861TIP3    H147468   6.711   7.408   5.832
15861TIP3    H247469   6.773   7.533   5.893
15862TIP3   OH247470   8.064   6.828   4.624
15862TIP3    H147471   8.032   6.914   4.597
15862TIP3    H247472   7.994   6.768   4.598
15863TIP3   OH247473   8.053   6.820   5.045
15863TIP3    H147474   8.096   6.795   5.127
15863TIP3    H247475   8.012   6.740   5.014
15864TIP3   OH247476   7.354   6.679   5.388
15864TIP3    H147477   7.391   6.624   5.457
15864TIP3    H247478   7.430   6.701   5.333
15865TIP3   OH247479   8.330   7.126   4.725
15865TIP3    H147480   8.318   7.058   4.792
15865TIP3    H247481   8.352   7.204   4.775
15866TIP3   OH247482   7.352   7.100   5.075
15866TIP3    H147483   7.334   7.006   5.082
15866TIP3    H247484   7.447   7.106   5.065
15867TIP3   OH247485   6.970   6.313   4.789
15867TIP3    H147486   6.945   6.388   4.843
15867TIP3    H247487   7.015   6.254   4.849
15868TIP3   OH247488   7.127   6.614   5.081
15868TIP3    H147489   7.179   6.537   5.102
15868TIP3    H247490   7.192   6.682   5.062
15869TIP3   OH247491   7.993   7.547   4.736
15869TIP3    H147492   8.017   7.486   4.667
15869TIP3    H247493   7.997   7.495   4.817
15870TIP3   OH247494   7.862   7.032   5.059
15870TIP3    H147495   7.910   6.955   5.029
15870TIP3    H247496   7.930   7.093   5.087
15871TIP3   OH247497   8.890   6.366   5.082
15871TIP3    H147498   8.914   6.451   5.119
15871TIP3    H247499   8.888   6.381   4.988
15872TIP3   OH247500   8.256   6.535   5.091
15872TIP3    H147501   8.298   6.453   5.115
15872TIP3    H247502   8.226   6.522   5.001
15873TIP3   OH247503   8.325   6.285   4.680
15873TIP3    H147504   8.389   6.275   4.751
15873TIP3    H247505   8.375   6.319   4.607
15874TIP3   OH247506   7.267   6.385   5.158
15874TIP3    H147507   7.349   6.375   5.206
15874TIP3    H247508   7.272   6.319   5.088
15875TIP3   OH247509   7.668   6.601   4.999
15875TIP3    H147510   7.762   6.583   4.997
15875TIP3    H247511   7.628   6.521   4.964
15876TIP3   OH247512   7.619   6.181   5.535
15876TIP3    H147513   7.583   6.151   5.451
15876TIP3    H247514   7.543   6.209   5.585
15877TIP3   OH247515   7.959   7.045   4.487
15877TIP3    H147516   7.919   7.016   4.405
15877TIP3    H247517   7.907   7.121   4.513
15878TIP3   OH247518   7.726   6.945   5.283
15878TIP3    H147519   7.670   7.015   5.316
15878TIP3    H247520   7.768   6.982   5.206
15879TIP3   OH247521   8.490   6.299   4.896
15879TIP3    H147522   8.446   6.283   4.979
15879TIP3    H247523   8.542   6.378   4.912
15880TIP3   OH247524   7.505   6.284   5.272
15880TIP3    H147525   7.561   6.353   5.308
15880TIP3    H247526   7.566   6.222   5.231
15881TIP3   OH247527   7.560   7.155   5.371
15881TIP3    H147528   7.543   7.241   5.332
15881TIP3    H247529   7.482   7.137   5.424
15882TIP3   OH247530   6.923   6.870   4.628
15882TIP3    H147531   6.890   6.888   4.540
15882TIP3    H247532   6.943   6.957   4.663
15883TIP3   OH247533   8.364   7.373   4.867
15883TIP3    H147534   8.276   7.365   4.904
15883TIP3    H247535   8.363   7.456   4.820
15884TIP3   OH247536   8.706   6.228   5.247
15884TIP3    H147537   8.619   6.259   5.222
15884TIP3    H247538   8.765   6.270   5.184
15885TIP3   OH247539   7.991   5.922   5.219
15885TIP3    H147540   7.958   5.838   5.185
15885TIP3    H247541   7.914   5.979   5.218
15886TIP3   OH247542   8.074   7.403   4.513
15886TIP3    H147543   8.127   7.324   4.503
15886TIP3    H247544   8.131   7.474   4.485
15887TIP3   OH247545   8.222   7.178   4.476
15887TIP3    H147546   8.157   7.108   4.465
15887TIP3    H247547   8.269   7.154   4.556
15888TIP3   OH247548   8.605   7.245   5.211
15888TIP3    H147549   8.589   7.173   5.151
15888TIP3    H247550   8.593   7.324   5.158
15889TIP3   OH247551   7.891   6.664   4.477
15889TIP3    H147552   7.809   6.708   4.457
15889TIP3    H247553   7.938   6.661   4.394
15890TIP3   OH247554   7.862   6.473   4.163
15890TIP3    H147555   7.928   6.521   4.212
15890TIP3    H247556   7.911   6.404   4.117
15891TIP3   OH247557   8.816   6.972   5.076
15891TIP3    H147558   8.721   6.978   5.076
15891TIP3    H247559   8.840   6.962   4.983
15892TIP3   OH247560   8.249   6.756   4.435
15892TIP3    H147561   8.195   6.784   4.510
15892TIP3    H247562   8.332   6.729   4.474
15893TIP3   OH247563   8.496   6.788   5.396
15893TIP3    H147564   8.482   6.871   5.442
15893TIP3    H247565   8.436   6.792   5.321
15894TIP3   OH247566   7.484   6.740   4.841
15894TIP3    H147567   7.453   6.680   4.774
15894TIP3    H247568   7.554   6.692   4.886
15895TIP3   OH247569   7.613   7.152   4.986
15895TIP3    H147570   7.594   7.139   4.893
15895TIP3    H247571   7.699   7.111   4.998
15896TIP3   OH247572   7.573   6.723   5.225
15896TIP3    H147573   7.610   6.685   5.145
15896TIP3    H247574   7.629   6.799   5.243
15897TIP3   OH247575   8.122   7.368   4.994
15897TIP3    H147576   8.112   7.448   5.045
15897TIP3    H247577   8.106   7.298   5.057
15898TIP3   OH247578   7.743   7.273   5.543
15898TIP3    H147579   7.678   7.330   5.583
15898TIP3    H247580   7.692   7.217   5.484
15899TIP3   OH247581   8.080   6.614   4.270
15899TIP3    H147582   8.140   6.672   4.318
15899TIP3    H247583   8.109   6.619   4.179
15900TIP3   OH247584   7.526   6.806   5.719
15900TIP3    H147585   7.524   6.901   5.726
15900TIP3    H247586   7.436   6.781   5.699
15901TIP3   OH247587   7.824   7.287   4.525
15901TIP3    H147588   7.908   7.333   4.528
15901TIP3    H247589   7.766   7.345   4.476
15902TIP3   OH247590   7.532   7.426   5.625
15902TIP3    H147591   7.505   7.433   5.534
15902TIP3    H247592   7.450   7.411   5.673
15903TIP3   OH247593   8.589   5.845   4.329
15903TIP3    H147594   8.512   5.864   4.383
15903TIP3    H247595   8.597   5.921   4.271
15904TIP3   OH247596   7.369   6.588   4.634
15904TIP3    H147597   7.286   6.631   4.612
15904TIP3    H247598   7.344   6.502   4.668
15905TIP3   OH247599   8.416   7.217   3.884
15905TIP3    H147600   8.409   7.310   3.862
15905TIP3    H247601   8.505   7.192   3.859
15906TIP3   OH247602   7.139   6.970   5.577
15906TIP3    H147603   7.068   6.960   5.514
15906TIP3    H247604   7.174   6.881   5.587
15907TIP3   OH247605   6.974   7.177   5.231
15907TIP3    H147606   7.064   7.204   5.248
15907TIP3    H247607   6.921   7.253   5.256
15908TIP3   OH247608   8.837   7.655   5.279
15908TIP3    H147609   8.843   7.560   5.282
15908TIP3    H247610   8.757   7.676   5.326
15909TIP3   OH247611   7.936   7.408   5.403
15909TIP3    H147612   7.927   7.500   5.429
15909TIP3    H247613   7.867   7.363   5.451
15910TIP3   OH247614   7.717   7.505   4.354
15910TIP3    H147615   7.672   7.485   4.272
15910TIP3    H247616   7.678   7.588   4.383
15911TIP3   OH247617   7.150   7.362   4.731
15911TIP3    H147618   7.194   7.353   4.815
15911TIP3    H247619   7.100   7.281   4.721
15912TIP3   OH247620   7.919   7.442   3.980
15912TIP3    H147621   7.969   7.368   3.945
15912TIP3    H247622   7.954   7.454   4.068
15913TIP3   OH247623   7.971   7.483   4.250
15913TIP3    H147624   7.884   7.486   4.291
15913TIP3    H247625   8.027   7.444   4.317
15914TIP3   OH247626   8.718   6.765   5.578
15914TIP3    H147627   8.644   6.779   5.518
15914TIP3    H247628   8.746   6.675   5.560
15915TIP3   OH247629   7.343   7.156   5.543
15915TIP3    H147630   7.391   7.145   5.625
15915TIP3    H247631   7.269   7.096   5.551
15916TIP3   OH247632   8.253   6.118   5.573
15916TIP3    H147633   8.319   6.079   5.630
15916TIP3    H247634   8.169   6.090   5.610
15917TIP3   OH247635   8.495   6.511   5.463
15917TIP3    H147636   8.461   6.515   5.552
15917TIP3    H247637   8.492   6.602   5.432
15918TIP3   OH247638   8.159   6.600   4.009
15918TIP3    H147639   8.111   6.599   3.926
15918TIP3    H247640   8.241   6.645   3.990
15919TIP3   OH247641   7.848   5.994   4.309
15919TIP3    H147642   7.820   6.000   4.400
15919TIP3    H247643   7.819   5.907   4.280
15920TIP3   OH247644   7.653   6.503   5.381
15920TIP3    H147645   7.598   6.506   5.459
15920TIP3    H247646   7.627   6.580   5.330
15921TIP3   OH247647   7.513   6.404   4.882
15921TIP3    H147648   7.457   6.343   4.930
15921TIP3    H247649   7.531   6.359   4.799
15922TIP3   OH247650   8.009   6.456   4.613
15922TIP3    H147651   7.964   6.530   4.573
15922TIP3    H247652   8.067   6.423   4.545
15923TIP3   OH247653   8.120   6.631   5.766
15923TIP3    H147654   8.130   6.585   5.849
15923TIP3    H247655   8.200   6.610   5.718
15924TIP3   OH247656   8.183   6.475   4.832
15924TIP3    H147657   8.113   6.491   4.768
15924TIP3    H247658   8.230   6.400   4.796
15925TIP3   OH247659   7.468   6.520   5.588
15925TIP3    H147660   7.423   6.575   5.652
15925TIP3    H247661   7.456   6.431   5.621
15926TIP3   OH247662   7.522   5.966   4.288
15926TIP3    H147663   7.523   5.975   4.383
15926TIP3    H247664   7.454   6.027   4.259
15927TIP3   OH247665   7.104   6.044   5.146
15927TIP3    H147666   7.154   6.087   5.216
15927TIP3    H247667   7.171   6.006   5.089
15928TIP3   OH247668   8.172   6.713   5.277
15928TIP3    H147669   8.203   6.653   5.209
15928TIP3    H247670   8.174   6.661   5.357
15929TIP3   OH247671   7.913   6.180   4.932
15929TIP3    H147672   7.847   6.170   5.000
15929TIP3    H247673   7.997   6.174   4.978
15930TIP3   OH247674   7.352   6.188   4.975
15930TIP3    H147675   7.329   6.135   4.899
15930TIP3    H247676   7.419   6.138   5.020
15931TIP3   OH247677   7.541   6.258   4.648
15931TIP3    H147678   7.636   6.267   4.646
15931TIP3    H247679   7.513   6.281   4.559
15932TIP3   OH247680   8.346   6.274   5.130
15932TIP3    H147681   8.329   6.287   5.224
15932TIP3    H247682   8.276   6.214   5.102
15933TIP3   OH247683   7.442   6.296   4.395
15933TIP3    H147684   7.385   6.243   4.339
15933TIP3    H247685   7.499   6.343   4.334
15934TIP3   OH247686   8.537   7.964   5.370
15934TIP3    H147687   8.530   7.984   5.277
15934TIP3    H247688   8.616   8.011   5.398
15935TIP3   OH247689   7.492   7.077   5.782
15935TIP3    H147690   7.571   7.098   5.833
15935TIP3    H247691   7.420   7.089   5.843
15936TIP3   OH247692   7.943   6.556   5.027
15936TIP3    H147693   8.002   6.497   4.981
15936TIP3    H247694   7.943   6.525   5.117
15937TIP3   OH247695   7.921   6.472   5.293
15937TIP3    H147696   7.830   6.477   5.321
15937TIP3    H247697   7.957   6.397   5.340
15938TIP3   OH247698   7.654   6.799   4.419
15938TIP3    H147699   7.578   6.748   4.392
15938TIP3    H247700   7.627   6.842   4.500
15939TIP3   OH247701   8.548   7.048   5.028
15939TIP3    H147702   8.583   7.099   4.955
15939TIP3    H247703   8.470   7.005   4.993
15940TIP3   OH247704   8.101   6.112   4.334
15940TIP3    H147705   8.008   6.090   4.323
15940TIP3    H247706   8.102   6.208   4.343
15941TIP3   OH247707   8.070   7.154   5.446
15941TIP3    H147708   8.154   7.174   5.486
15941TIP3    H247709   8.025   7.238   5.440
15942TIP3   OH247710   8.171   6.379   4.397
15942TIP3    H147711   8.266   6.380   4.407
15942TIP3    H247712   8.152   6.458   4.345
15943TIP3   OH247713   7.343   6.807   5.069
15943TIP3    H147714   7.383   6.794   4.983
15943TIP3    H247715   7.411   6.781   5.131
15944TIP3   OH247716   7.807   6.962   4.263
15944TIP3    H147717   7.758   7.045   4.260
15944TIP3    H247718   7.752   6.904   4.316
15945TIP3   OH247719   7.254   6.712   5.701
15945TIP3    H147720   7.239   6.697   5.794
15945TIP3    H247721   7.173   6.683   5.659
15946TIP3   OH247722   8.013   6.922   5.655
15946TIP3    H147723   7.989   6.907   5.563
15946TIP3    H247724   8.094   6.972   5.650
15947TIP3   OH247725   8.206   7.434   5.328
15947TIP3    H147726   8.111   7.424   5.330
15947TIP3    H247727   8.228   7.470   5.414
15948TIP3   OH247728   8.588   6.469   4.211
15948TIP3    H147729   8.532   6.424   4.148
15948TIP3    H247730   8.593   6.559   4.177
15949TIP3   OH247731   8.846   7.386   5.275
15949TIP3    H147732   8.761   7.346   5.297
15949TIP3    H247733   8.878   7.335   5.201
15950TIP3   OH247734   8.336   7.287   4.149
15950TIP3    H147735   8.308   7.217   4.208
15950TIP3    H247736   8.354   7.242   4.066
15951TIP3   OH247737   8.311   6.920   4.927
15951TIP3    H147738   8.221   6.898   4.949
15951TIP3    H247739   8.346   6.841   4.887
15952TIP3   OH247740   7.473   7.161   4.741
15952TIP3    H147741   7.470   7.237   4.682
15952TIP3    H247742   7.384   7.152   4.773
15953TIP3   OH247743   7.015   6.467   4.492
15953TIP3    H147744   7.059   6.549   4.512
15953TIP3    H247745   6.990   6.474   4.400
15954TIP3   OH247746   7.552   6.918   4.638
15954TIP3    H147747   7.537   7.008   4.669
15954TIP3    H247748   7.531   6.863   4.713
15955TIP3   OH247749   7.752   7.477   5.194
15955TIP3    H147750   7.786   7.552   5.144
15955TIP3    H247751   7.827   7.445   5.244
15956TIP3   OH247752   7.386   7.381   4.589
15956TIP3    H147753   7.299   7.388   4.627
15956TIP3    H247754   7.422   7.470   4.595
15957TIP3   OH247755   8.094   7.146   5.167
15957TIP3    H147756   8.086   7.138   5.262
15957TIP3    H247757   8.165   7.087   5.143
15958TIP3   OH247758   8.102   7.024   4.033
15958TIP3    H147759   8.150   7.000   4.112
15958TIP3    H247760   8.019   6.977   4.040
15959TIP3   OH247761   8.364   7.637   5.202
15959TIP3    H147762   8.292   7.578   5.223
15959TIP3    H247763   8.330   7.693   5.132
15960TIP3   OH247764   8.406   7.489   3.837
15960TIP3    H147765   8.414   7.545   3.759
15960TIP3    H247766   8.338   7.531   3.889
15961TIP3   OH247767   7.411   6.273   5.702
15961TIP3    H147768   7.318   6.287   5.716
15961TIP3    H247769   7.438   6.214   5.772
15962TIP3   OH247770   8.271   6.949   4.235
15962TIP3    H147771   8.256   6.889   4.309
15962TIP3    H247772   8.366   6.954   4.228
15963TIP3   OH247773   7.181   7.380   5.352
15963TIP3    H147774   7.238   7.323   5.404
15963TIP3    H247775   7.193   7.467   5.390
15964TIP3   OH247776   7.450   6.987   4.052
15964TIP3    H147777   7.460   6.896   4.024
15964TIP3    H247778   7.437   6.982   4.146
15965TIP3   OH247779   7.391   7.004   4.324
15965TIP3    H147780   7.455   6.980   4.392
15965TIP3    H247781   7.389   7.100   4.327
15966TIP3   OH247782   7.133   6.708   4.545
15966TIP3    H147783   7.068   6.759   4.593
15966TIP3    H247784   7.154   6.762   4.468
15967TIP3   OH247785   8.297   6.323   5.390
15967TIP3    H147786   8.369   6.375   5.425
15967TIP3    H247787   8.281   6.256   5.457
15968TIP3   OH247788   8.176   6.064   4.598
15968TIP3    H147789   8.151   6.083   4.507
15968TIP3    H247790   8.219   6.145   4.627
15969TIP3   OH247791   7.659   7.189   4.258
15969TIP3    H147792   7.574   7.214   4.296
15969TIP3    H247793   7.683   7.263   4.202
15970TIP3   OH247794   7.819   6.268   4.686
15970TIP3    H147795   7.881   6.335   4.659
15970TIP3    H247796   7.845   6.246   4.775
15971TIP3   OH247797   7.984   5.962   4.770
15971TIP3    H147798   7.967   6.040   4.824
15971TIP3    H247799   8.056   5.988   4.713
15972TIP3   OH247800   7.409   7.277   4.337
15972TIP3    H147801   7.391   7.349   4.276
15972TIP3    H247802   7.399   7.315   4.424
15973TIP3   OH247803   7.507   5.990   4.565
15973TIP3    H147804   7.498   6.077   4.602
15973TIP3    H247805   7.600   5.969   4.575
15974TIP3   OH247806   8.790   6.532   5.446
15974TIP3    H147807   8.703   6.500   5.421
15974TIP3    H247808   8.833   6.550   5.362
15975TIP3   OH247809   8.396   6.668   4.829
15975TIP3    H147810   8.321   6.608   4.837
15975TIP3    H247811   8.466   6.626   4.879
15976TIP3   OH247812   7.149   6.869   4.316
15976TIP3    H147813   7.220   6.932   4.323
15976TIP3    H247814   7.178   6.807   4.249
15977TIP3   OH247815   6.966   6.179   4.490
15977TIP3    H147816   7.054   6.184   4.453
15977TIP3    H247817   6.920   6.116   4.435
15978TIP3   OH247818   8.383   7.638   4.779
15978TIP3    H147819   8.340   7.689   4.710
15978TIP3    H247820   8.476   7.648   4.763
15979TIP3   OH247821   7.403   5.893   5.359
15979TIP3    H147822   7.398   5.869   5.267
15979TIP3    H247823   7.424   5.811   5.404
15980TIP3   OH247824   6.970   7.140   4.707
15980TIP3    H147825   6.930   7.178   4.785
15980TIP3    H247826   6.926   7.184   4.634
15981TIP3   OH247827   7.178   7.678   5.778
15981TIP3    H147828   7.260   7.683   5.827
15981TIP3    H247829   7.161   7.585   5.768
15982TIP3   OH247830   7.642   7.585   5.823
15982TIP3    H147831   7.734   7.561   5.828
15982TIP3    H247832   7.608   7.533   5.750
15983TIP3   OH247833   7.602   7.189   3.939
15983TIP3    H147834   7.555   7.119   3.985
15983TIP3    H247835   7.676   7.146   3.898
15984TIP3   OH247836   8.261   7.521   5.582
15984TIP3    H147837   8.275   7.449   5.644
15984TIP3    H247838   8.335   7.580   5.596
15985TIP3   OH247839   8.046   7.230   3.862
15985TIP3    H147840   8.081   7.166   3.924
15985TIP3    H247841   8.103   7.223   3.785
15986TIP3   OH247842   7.279   7.086   5.962
15986TIP3    H147843   7.297   6.993   5.976
15986TIP3    H247844   7.192   7.088   5.922
15987TIP3   OH247845   7.265   6.679   4.157
15987TIP3    H147846   7.318   6.658   4.234
15987TIP3    H247847   7.329   6.694   4.087
15988TIP3   OH247848   7.894   7.169   5.745
15988TIP3    H147849   7.844   7.205   5.671
15988TIP3    H247850   7.938   7.092   5.709
15989TIP3   OH247851   7.853   6.900   4.000
15989TIP3    H147852   7.828   6.912   4.092
15989TIP3    H247853   7.832   6.809   3.981
15990TIP3   OH247854   8.373   7.213   5.363
15990TIP3    H147855   8.453   7.228   5.312
15990TIP3    H247856   8.316   7.285   5.340
15991TIP3   OH247857   7.386   6.832   5.979
15991TIP3    H147858   7.459   6.804   5.924
15991TIP3    H247859   7.424   6.845   6.066
15992TIP3   OH247860   7.441   6.629   4.365
15992TIP3    H147861   7.429   6.602   4.456
15992TIP3    H247862   7.494   6.559   4.327
15993TIP3   OH247863   7.794   6.702   5.690
15993TIP3    H147864   7.706   6.739   5.698
15993TIP3    H247865   7.794   6.659   5.604
15994TIP3   OH247866   7.590   6.445   4.219
15994TIP3    H147867   7.560   6.447   4.128
15994TIP3    H247868   7.686   6.452   4.213
15995TIP3   OH247869   8.257   7.049   5.709
15995TIP3    H147870   8.337   7.037   5.658
15995TIP3    H247871   8.272   7.002   5.790
15996TIP3   OH247872   8.378   6.728   3.897
15996TIP3    H147873   8.364   6.687   3.812
15996TIP3    H247874   8.356   6.820   3.883
15997TIP3   OH247875   7.878   6.221   5.450
15997TIP3    H147876   7.858   6.189   5.362
15997TIP3    H247877   7.793   6.222   5.495
15998TIP3   OH247878   7.934   6.812   5.420
15998TIP3    H147879   7.993   6.778   5.352
15998TIP3    H247880   7.863   6.854   5.371
15999TIP3   OH247881   8.491   6.763   5.810
15999TIP3    H147882   8.508   6.670   5.792
15999TIP3    H247883   8.573   6.807   5.786
16000TIP3   OH247884   8.500   7.036   5.528
16000TIP3    H147885   8.449   7.100   5.477
16000TIP3    H247886   8.589   7.045   5.495
16001TIP3   OH247887   7.734   6.569   5.963
16001TIP3    H147888   7.675   6.500   5.992
16001TIP3    H247889   7.714   6.582   5.870
16002TIP3   OH247890   7.989   6.039   5.634
16002TIP3    H147891   7.959   6.110   5.577
16002TIP3    H247892   7.925   5.969   5.621
16003TIP3   OH247893   8.379   6.480   5.715
16003TIP3    H147894   8.326   6.400   5.719
16003TIP3    H247895   8.456   6.460   5.768
16004TIP3   OH247896   8.601   6.419   5.870
16004TIP3    H147897   8.612   6.325   5.883
16004TIP3    H247898   8.596   6.455   5.958
16005TIP3   OH247899   7.596   6.335   6.038
16005TIP3    H147900   7.596   6.248   6.000
16005TIP3    H247901   7.633   6.323   6.126
16006TIP3   OH247902   8.064   6.020   5.903
16006TIP3    H147903   8.131   5.952   5.897
16006TIP3    H247904   8.030   6.028   5.813
16007TIP3   OH247905   8.152   6.247   6.035
16007TIP3    H147906   8.123   6.169   5.988
16007TIP3    H247907   8.079   6.309   6.028
16008TIP3   OH247908   7.411   7.487   4.156
16008TIP3    H147909   7.500   7.466   4.127
16008TIP3    H247910   7.371   7.531   4.081
16009TIP3   OH247911   6.875   6.872   4.337
16009TIP3    H147912   6.970   6.882   4.331
16009TIP3    H247913   6.858   6.786   4.297
16010TIP3   OH247914   6.777   7.451   4.795
16010TIP3    H147915   6.713   7.397   4.748
16010TIP3    H247916   6.822   7.389   4.853
16011TIP3   OH247917   6.922   7.280   4.959
16011TIP3    H147918   6.914   7.212   5.026
16011TIP3    H247919   6.975   7.349   5.001
16012TIP3   OH247920   8.654   7.685   4.768
16012TIP3    H147921   8.677   7.704   4.858
16012TIP3    H247922   8.700   7.752   4.716
16013TIP3   OH247923   8.684   7.702   5.045
16013TIP3    H147924   8.639   7.617   5.046
16013TIP3    H247925   8.751   7.693   5.113
16014TIP3   OH247926   8.729   7.419   5.623
16014TIP3    H147927   8.657   7.428   5.686
16014TIP3    H247928   8.773   7.505   5.625
16015TIP3   OH247929   8.550   6.940   4.229
16015TIP3    H147930   8.608   7.010   4.199
16015TIP3    H247931   8.595   6.901   4.304
16016TIP3   OH247932   8.676   6.796   4.429
16016TIP3    H147933   8.609   6.756   4.485
16016TIP3    H247934   8.741   6.830   4.490
16017TIP3   OH247935   8.716   7.208   4.867
16017TIP3    H147936   8.771   7.139   4.830
16017TIP3    H247937   8.715   7.277   4.802
16018TIP3   OH247938   8.537   7.469   5.063
16018TIP3    H147939   8.470   7.518   5.111
16018TIP3    H247940   8.489   7.429   4.990
16019TIP3   OH247941   8.584   6.711   4.079
16019TIP3    H147942   8.513   6.711   4.014
16019TIP3    H247943   8.569   6.790   4.131
16020TIP3   OH247944   8.438   6.357   4.011
16020TIP3    H147945   8.394   6.393   3.934
16020TIP3    H247946   8.431   6.262   4.001
16021TIP3   OH247947   8.475   6.654   4.563
16021TIP3    H147948   8.480   6.559   4.551
16021TIP3    H247949   8.453   6.665   4.656
16022TIP3   OH247950   7.092   6.713   5.334
16022TIP3    H147951   7.084   6.681   5.244
16022TIP3    H247952   7.186   6.712   5.351
16023TIP3   OH247953   8.754   7.058   5.415
16023TIP3    H147954   8.822   6.991   5.407
16023TIP3    H247955   8.751   7.100   5.329
16024TIP3   OH247956   8.945   6.854   5.427
16024TIP3    H147957   8.896   6.816   5.500
16024TIP3    H247958   8.964   6.780   5.369
16025TIP3   OH247959   8.401   6.085   3.981
16025TIP3    H147960   8.467   6.060   4.046
16025TIP3    H247961   8.319   6.050   4.015
16026TIP3   OH247962   8.466   6.375   4.451
16026TIP3    H147963   8.514   6.293   4.465
16026TIP3    H247964   8.507   6.414   4.374
16027TIP3   OH247965   8.609   6.542   4.956
16027TIP3    H147966   8.694   6.559   4.916
16027TIP3    H247967   8.616   6.578   5.044
16028TIP3   OH247968   8.670   6.663   5.194
16028TIP3    H147969   8.642   6.727   5.260
16028TIP3    H247970   8.764   6.676   5.186
16029TIP3   OH247971   7.340   6.434   6.024
16029TIP3    H147972   7.433   6.410   6.027
16029TIP3    H247973   7.294   6.351   6.033
16030TIP3   OH247974   9.160   6.281   5.740
16030TIP3    H147975   9.229   6.231   5.696
16030TIP3    H247976   9.121   6.334   5.671
16031TIP3   OH247977   8.586   6.128   4.506
16031TIP3    H147978   8.629   6.114   4.591
16031TIP3    H247979   8.523   6.056   4.500
16032TIP3   OH247980   7.276   6.131   5.348
16032TIP3    H147981   7.319   6.046   5.361
16032TIP3    H247982   7.348   6.191   5.327
16033TIP3   OH247983   7.067   6.381   5.375
16033TIP3    H147984   7.126   6.356   5.304
16033TIP3    H247985   7.096   6.469   5.401
16034TIP3   OH247986   9.009   6.393   5.548
16034TIP3    H147987   8.945   6.463   5.537
16034TIP3    H247988   8.975   6.320   5.496
16035TIP3   OH247989   8.626   6.043   4.141
16035TIP3    H147990   8.675   5.982   4.085
16035TIP3    H247991   8.682   6.120   4.146
16036TIP3   OH247992   7.018   5.885   4.859
16036TIP3    H147993   6.961   5.894   4.936
16036TIP3    H247994   6.957   5.864   4.787
16037TIP3   OH247995   8.215   7.607   4.412
16037TIP3    H147996   8.272   7.595   4.336
16037TIP3    H247997   8.257   7.678   4.462
16038TIP3   OH247998   7.294   5.942   5.727
16038TIP3    H147999   7.243   5.945   5.808
16038TIP3    H248000   7.240   5.986   5.662
16039TIP3   OH248001   7.311   7.395   5.793
16039TIP3    H148002   7.217   7.376   5.784
16039TIP3    H248003   7.328   7.387   5.887
16040TIP3   OH248004   7.523   7.436   5.341
16040TIP3    H148005   7.473   7.512   5.310
16040TIP3    H248006   7.608   7.445   5.298
16041TIP3   OH248007   7.918   7.674   5.477
16041TIP3    H148008   7.956   7.670   5.565
16041TIP3    H248009   7.979   7.730   5.428
16042TIP3   OH248010   8.108   7.831   5.353
16042TIP3    H148011   8.169   7.782   5.298
16042TIP3    H248012   8.163   7.885   5.409
16043TIP3   OH248013   8.900   6.160   5.441
16043TIP3    H148014   8.823   6.176   5.386
16043TIP3    H248015   8.916   6.066   5.434
16044TIP3   OH248016   7.186   7.677   5.393
16044TIP3    H148017   7.095   7.695   5.368
16044TIP3    H248018   7.208   7.745   5.457
16045TIP3   OH248019   7.416   7.672   5.241
16045TIP3    H148020   7.333   7.676   5.288
16045TIP3    H248021   7.394   7.696   5.151
16046TIP3   OH248022   7.829   7.690   5.033
16046TIP3    H148023   7.758   7.700   4.970
16046TIP3    H248024   7.838   7.776   5.074
16047TIP3   OH248025   8.095   7.631   5.082
16047TIP3    H148026   8.002   7.648   5.063
16047TIP3    H248027   8.142   7.697   5.031
16048TIP3   OH248028   8.301   7.806   4.982
16048TIP3    H148029   8.289   7.890   4.937
16048TIP3    H248030   8.326   7.745   4.912
16049TIP3   OH248031   7.095   7.461   5.101
16049TIP3    H148032   7.120   7.439   5.191
16049TIP3    H248033   7.166   7.428   5.047
16050TIP3   OH248034   7.298   7.344   4.964
16050TIP3    H148035   7.309   7.259   5.007
16050TIP3    H248036   7.385   7.385   4.968
16051TIP3   OH248037   7.566   7.430   4.990
16051TIP3    H148038   7.586   7.337   4.975
16051TIP3    H248039   7.620   7.453   5.065
16052TIP3   OH248040   8.144   6.097   5.061
16052TIP3    H148041   8.100   6.035   5.118
16052TIP3    H248042   8.210   6.045   5.014
16053TIP3   OH248043   8.631   5.994   4.968
16053TIP3    H148044   8.665   6.046   4.895
16053TIP3    H248045   8.537   6.013   4.968
16054TIP3   OH248046   8.743   6.073   4.730
16054TIP3    H148047   8.813   6.014   4.702
16054TIP3    H248048   8.778   6.161   4.715
16055TIP3   OH248049   7.346   5.801   5.103
16055TIP3    H148050   7.265   5.750   5.112
16055TIP3    H248051   7.413   5.736   5.080
16056TIP3   OH248052   7.168   5.679   4.732
16056TIP3    H148053   7.205   5.724   4.656
16056TIP3    H248054   7.136   5.750   4.788
16057TIP3   OH248055   7.811   5.844   4.980
16057TIP3    H148056   7.864   5.887   4.913
16057TIP3    H248057   7.774   5.917   5.030
16058TIP3   OH248058   8.348   5.954   4.944
16058TIP3    H148059   8.362   5.916   4.857
16058TIP3    H248060   8.352   5.880   5.004
16059TIP3   OH248061   8.399   5.918   4.515
16059TIP3    H148062   8.319   5.965   4.540
16059TIP3    H248063   8.389   5.831   4.553
16060TIP3   OH248064   6.852   7.264   4.492
16060TIP3    H148065   6.769   7.234   4.454
16060TIP3    H248066   6.861   7.354   4.460
16061TIP3   OH248067   7.308   5.805   4.505
16061TIP3    H148068   7.362   5.728   4.492
16061TIP3    H248069   7.369   5.873   4.533
16062TIP3   OH248070   7.783   6.016   4.578
16062TIP3    H148071   7.841   5.965   4.635
16062TIP3    H248072   7.795   6.107   4.607
16063TIP3   OH248073   7.665   7.411   4.084
16063TIP3    H148074   7.748   7.439   4.045
16063TIP3    H248075   7.634   7.341   4.027
16064TIP3   OH248076   8.365   7.556   4.183
16064TIP3    H148077   8.360   7.461   4.177
16064TIP3    H248078   8.321   7.588   4.105
16065TIP3   OH248079   7.602   6.059   5.966
16065TIP3    H148080   7.563   5.994   6.025
16065TIP3    H248081   7.693   6.065   5.993
16066TIP3   OH248082   7.847   6.057   6.094
16066TIP3    H148083   7.925   6.036   6.043
16066TIP3    H248084   7.840   5.985   6.157
16067TIP3   OH248085   6.972   7.251   4.138
16067TIP3    H148086   6.976   7.268   4.232
16067TIP3    H248087   7.054   7.205   4.119
16068TIP3   OH248088   8.665   6.145   5.882
16068TIP3    H148089   8.692   6.111   5.967
16068TIP3    H248090   8.747   6.158   5.834
16069TIP3   OH248091   8.580   7.694   5.373
16069TIP3    H148092   8.508   7.661   5.319
16069TIP3    H248093   8.562   7.787   5.382
16070TIP3   OH248094   9.764   7.135   4.165
16070TIP3    H148095   9.778   7.214   4.113
16070TIP3    H248096   9.714   7.077   4.107
16071TIP3   OH248097   9.800   7.071   4.525
16071TIP3    H148098   9.839   7.092   4.610
16071TIP3    H248099   9.751   6.990   4.539
16072TIP3   OH248100   9.146   6.959   4.892
16072TIP3    H148101   9.178   6.905   4.964
16072TIP3    H248102   9.221   6.970   4.834
16073TIP3   OH248103   9.147   7.374   4.589
16073TIP3    H148104   9.126   7.281   4.588
16073TIP3    H248105   9.239   7.379   4.565
16074TIP3   OH248106   8.824   6.570   4.346
16074TIP3    H148107   8.784   6.654   4.371
16074TIP3    H248108   8.753   6.521   4.306
16075TIP3   OH248109   8.905   6.876   4.570
16075TIP3    H148110   8.954   6.800   4.602
16075TIP3    H248111   8.972   6.934   4.534
16076TIP3   OH248112   9.764   7.854   4.259
16076TIP3    H148113   9.766   7.759   4.253
16076TIP3    H248114   9.716   7.873   4.340
16077TIP3   OH248115   9.641   7.304   4.524
16077TIP3    H148116   9.680   7.225   4.486
16077TIP3    H248117   9.715   7.352   4.561
16078TIP3   OH248118   0.253   6.901   4.572
16078TIP3    H148119   0.315   6.828   4.577
16078TIP3    H248120   0.193   6.877   4.502
16079TIP3   OH248121   9.396   6.435   4.537
16079TIP3    H148122   9.379   6.507   4.477
16079TIP3    H248123   9.343   6.362   4.503
16080TIP3   OH248124   0.395   6.435   4.191
16080TIP3    H148125   0.363   6.426   4.281
16080TIP3    H248126   0.391   6.529   4.175
16081TIP3   OH248127   9.046   6.660   4.670
16081TIP3    H148128   9.128   6.635   4.713
16081TIP3    H248129   9.042   6.606   4.592
16082TIP3   OH248130   9.439   6.850   4.489
16082TIP3    H148131   9.529   6.833   4.514
16082TIP3    H248132   9.408   6.768   4.449
16083TIP3   OH248133   9.385   6.447   5.004
16083TIP3    H148134   9.326   6.486   4.939
16083TIP3    H248135   9.339   6.458   5.087
16084TIP3   OH248136   9.790   7.308   3.929
16084TIP3    H148137   9.729   7.277   3.862
16084TIP3    H248138   9.747   7.385   3.966
16085TIP3   OH248139   9.498   7.220   4.746
16085TIP3    H148140   9.446   7.289   4.787
16085TIP3    H248141   9.537   7.261   4.670
16086TIP3   OH248142   9.285   6.548   4.763
16086TIP3    H148143   9.342   6.621   4.786
16086TIP3    H248144   9.330   6.505   4.689
16087TIP3   OH248145   9.348   7.410   4.882
16087TIP3    H148146   9.319   7.494   4.846
16087TIP3    H248147   9.281   7.387   4.946
16088TIP3   OH248148   8.721   7.129   4.110
16088TIP3    H148149   8.686   7.147   4.023
16088TIP3    H248150   8.743   7.215   4.145
16089TIP3   OH248151   9.699   6.140   4.679
16089TIP3    H148152   9.674   6.071   4.740
16089TIP3    H248153   9.645   6.215   4.705
16090TIP3   OH248154   0.086   7.681   3.982
16090TIP3    H148155   0.167   7.643   4.015
16090TIP3    H248156   0.095   7.775   3.998
16091TIP3   OH248157   9.652   6.970   3.961
16091TIP3    H148158   9.565   7.001   3.939
16091TIP3    H248159   9.706   6.993   3.885
16092TIP3   OH248160   9.613   6.705   3.654
16092TIP3    H148161   9.650   6.706   3.743
16092TIP3    H248162   9.654   6.629   3.612
16093TIP3   OH248163   9.256   6.988   4.330
16093TIP3    H148164   9.219   6.927   4.265
16093TIP3    H248165   9.325   6.938   4.373
16094TIP3   OH248166   9.395   7.417   4.469
16094TIP3    H148167   9.369   7.402   4.378
16094TIP3    H248168   9.482   7.378   4.476
16095TIP3   OH248169   9.360   6.985   4.715
16095TIP3    H148170   9.391   6.945   4.634
16095TIP3    H248171   9.412   7.065   4.724
16096TIP3   OH248172   0.065   7.658   4.509
16096TIP3    H148173   0.128   7.625   4.445
16096TIP3    H248174   0.040   7.580   4.559
16097TIP3   OH248175   9.551   7.528   5.023
16097TIP3    H148176   9.492   7.591   5.064
16097TIP3    H248177   9.495   7.474   4.969
16098TIP3   OH248178   0.139   6.834   3.788
16098TIP3    H148179   0.153   6.908   3.848
16098TIP3    H248180   0.108   6.875   3.707
16099TIP3   OH248181   9.253   7.175   5.274
16099TIP3    H148182   9.242   7.243   5.207
16099TIP3    H248183   9.186   7.110   5.253
16100TIP3   OH248184   9.652   7.535   4.005
16100TIP3    H148185   9.727   7.594   4.005
16100TIP3    H248186   9.583   7.584   3.959
16101TIP3   OH248187   9.342   7.688   5.110
16101TIP3    H148188   9.322   7.699   5.017
16101TIP3    H248189   9.260   7.659   5.149
16102TIP3   OH248190   9.136   6.825   4.132
16102TIP3    H148191   9.057   6.872   4.103
16102TIP3    H248192   9.109   6.733   4.135
16103TIP3   OH248193   8.923   7.243   5.055
16103TIP3    H148194   8.852   7.246   4.992
16103TIP3    H248195   8.933   7.150   5.076
16104TIP3   OH248196   8.764   7.434   4.706
16104TIP3    H148197   8.857   7.452   4.720
16104TIP3    H248198   8.719   7.513   4.735
16105TIP3   OH248199   9.756   7.639   4.878
16105TIP3    H148200   9.755   7.732   4.904
16105TIP3    H248201   9.685   7.599   4.928
16106TIP3   OH248202   9.510   7.761   3.838
16106TIP3    H148203   9.461   7.743   3.759
16106TIP3    H248204   9.472   7.841   3.873
16107TIP3   OH248205   8.943   7.616   4.220
16107TIP3    H148206   8.988   7.607   4.304
16107TIP3    H248207   8.892   7.535   4.212
16108TIP3   OH248208   9.729   7.700   3.470
16108TIP3    H148209   9.809   7.650   3.452
16108TIP3    H248210   9.733   7.719   3.564
16109TIP3   OH248211   9.761   7.709   3.739
16109TIP3    H148212   9.675   7.728   3.776
16109TIP3    H248213   9.817   7.693   3.816
16110TIP3   OH248214   9.165   7.374   5.093
16110TIP3    H148215   9.141   7.448   5.150
16110TIP3    H248216   9.082   7.331   5.073
16111TIP3   OH248217   9.487   6.253   4.834
16111TIP3    H148218   9.404   6.215   4.805
16111TIP3    H248219   9.461   6.330   4.886
16112TIP3   OH248220   0.390   6.333   5.025
16112TIP3    H148221   0.444   6.281   5.084
16112TIP3    H248222   0.302   6.329   5.064
16113TIP3   OH248223   9.674   6.192   3.859
16113TIP3    H148224   9.656   6.228   3.946
16113TIP3    H248225   9.596   6.141   3.837
16114TIP3   OH248226   9.422   6.762   4.866
16114TIP3    H148227   9.366   6.769   4.943
16114TIP3    H248228   9.406   6.843   4.817
16115TIP3   OH248229   9.315   6.635   4.369
16115TIP3    H148230   9.226   6.612   4.394
16115TIP3    H248231   9.325   6.601   4.280
16116TIP3   OH248232   9.749   6.791   4.150
16116TIP3    H148233   9.692   6.837   4.089
16116TIP3    H248234   9.833   6.835   4.143
16117TIP3   OH248235   0.166   7.023   5.192
16117TIP3    H148236   0.154   6.948   5.252
16117TIP3    H248237   0.258   7.047   5.203
16118TIP3   OH248238   0.081   6.779   4.401
16118TIP3    H148239   0.031   6.825   4.333
16118TIP3    H248240   0.097   6.692   4.365
16119TIP3   OH248241   9.251   6.775   5.083
16119TIP3    H148242   9.306   6.748   5.157
16119TIP3    H248243   9.163   6.743   5.106
16120TIP3   OH248244   9.333   6.319   3.807
16120TIP3    H148245   9.327   6.261   3.883
16120TIP3    H248246   9.242   6.337   3.783
16121TIP3   OH248247   8.863   6.298   4.647
16121TIP3    H148248   8.938   6.333   4.696
16121TIP3    H248249   8.899   6.277   4.561
16122TIP3   OH248250   8.780   6.274   4.158
16122TIP3    H148251   8.826   6.310   4.083
16122TIP3    H248252   8.715   6.341   4.180
16123TIP3   OH248253   0.150   7.083   4.760
16123TIP3    H148254   0.197   7.033   4.692
16123TIP3    H248255   0.192   7.057   4.842
16124TIP3   OH248256   9.664   6.499   4.463
16124TIP3    H148257   9.585   6.467   4.505
16124TIP3    H248258   9.733   6.491   4.529
16125TIP3   OH248259   9.078   6.514   4.438
16125TIP3    H148260   8.991   6.523   4.399
16125TIP3    H248261   9.103   6.423   4.419
16126TIP3   OH248262   9.327   6.515   4.121
16126TIP3    H148263   9.420   6.529   4.100
16126TIP3    H248264   9.281   6.537   4.040
16127TIP3   OH248265   0.076   6.478   4.663
16127TIP3    H148266   0.042   6.501   4.750
16127TIP3    H248267   0.164   6.444   4.680
16128TIP3   OH248268   9.184   6.569   3.893
16128TIP3    H148269   9.125   6.508   3.848
16128TIP3    H248270   9.243   6.601   3.825
16129TIP3   OH248271   9.691   6.811   4.592
16129TIP3    H148272   9.759   6.780   4.532
16129TIP3    H248273   9.699   6.755   4.669
16130TIP3   OH248274   9.215   6.261   4.406
16130TIP3    H148275   9.192   6.182   4.455
16130TIP3    H248276   9.228   6.231   4.316
16131TIP3   OH248277   9.674   6.664   4.836
16131TIP3    H148278   9.585   6.699   4.844
16131TIP3    H248279   9.728   6.726   4.886
16132TIP3   OH248280   9.406   7.083   3.897
16132TIP3    H148281   9.338   7.018   3.880
16132TIP3    H248282   9.389   7.112   3.987
16133TIP3   OH248283   0.182   6.413   3.757
16133TIP3    H148284   0.091   6.396   3.781
16133TIP3    H248285   0.217   6.465   3.829
16134TIP3   OH248286   0.102   7.393   4.928
16134TIP3    H148287   0.115   7.372   5.020
16134TIP3    H248288   0.060   7.478   4.927
16135TIP3   OH248289   0.246   6.623   3.928
16135TIP3    H148290   0.332   6.641   3.965
16135TIP3    H248291   0.222   6.703   3.883
16136TIP3   OH248292   9.142   7.093   4.559
16136TIP3    H148293   9.176   7.066   4.473
16136TIP3    H248294   9.204   7.055   4.621
16137TIP3   OH248295   9.592   7.221   3.756
16137TIP3    H148296   9.553   7.308   3.748
16137TIP3    H248297   9.525   7.170   3.802
16138TIP3   OH248298   9.049   7.004   5.224
16138TIP3    H148299   9.031   6.953   5.303
16138TIP3    H248300   8.983   6.974   5.161
16139TIP3   OH248301   9.726   7.148   5.224
16139TIP3    H148302   9.664   7.087   5.184
16139TIP3    H248303   9.812   7.119   5.193
16140TIP3   OH248304   0.228   7.683   4.793
16140TIP3    H148305   0.134   7.666   4.789
16140TIP3    H248306   0.245   7.700   4.886
16141TIP3   OH248307   9.257   7.414   4.227
16141TIP3    H148308   9.254   7.489   4.169
16141TIP3    H248309   9.165   7.397   4.248
16142TIP3   OH248310   8.821   6.700   3.938
16142TIP3    H148311   8.864   6.783   3.960
16142TIP3    H248312   8.741   6.700   3.990
16143TIP3   OH248313   9.350   7.169   4.143
16143TIP3    H148314   9.330   7.258   4.172
16143TIP3    H248315   9.320   7.113   4.215
16144TIP3   OH248316   9.556   7.728   4.678
16144TIP3    H148317   9.593   7.791   4.617
16144TIP3    H248318   9.632   7.689   4.722
16145TIP3   OH248319   9.175   7.633   4.075
16145TIP3    H148320   9.087   7.636   4.114
16145TIP3    H248321   9.205   7.724   4.079
16146TIP3   OH248322   0.062   7.410   4.649
16146TIP3    H148323   0.066   7.388   4.742
16146TIP3    H248324   0.154   7.418   4.623
16147TIP3   OH248325   9.263   6.494   5.241
16147TIP3    H148326   9.174   6.528   5.245
16147TIP3    H248327   9.270   6.437   5.318
16148TIP3   OH248328   8.968   7.653   4.824
16148TIP3    H148329   9.046   7.610   4.859
16148TIP3    H248330   8.972   7.743   4.859
16149TIP3   OH248331   9.247   7.258   3.536
16149TIP3    H148332   9.252   7.167   3.506
16149TIP3    H248333   9.228   7.252   3.629
16150TIP3   OH248334   9.185   7.259   3.804
16150TIP3    H148335   9.261   7.227   3.853
16150TIP3    H248336   9.188   7.354   3.816
16151TIP3   OH248337   8.916   6.950   4.020
16151TIP3    H148338   8.851   6.999   4.071
16151TIP3    H248339   8.937   7.008   3.947
16152TIP3   OH248340   0.314   6.608   4.917
16152TIP3    H148341   0.313   6.656   5.000
16152TIP3    H248342   0.252   6.537   4.930
16153TIP3   OH248343   0.049   6.398   4.020
16153TIP3    H148344   0.126   6.347   3.995
16153TIP3    H248345   0.064   6.420   4.112
16154TIP3   OH248346   9.461   7.456   3.748
16154TIP3    H148347   9.375   7.477   3.783
16154TIP3    H248348   9.479   7.528   3.687
16155TIP3   OH248349   9.611   6.546   4.192
16155TIP3    H148350   9.635   6.637   4.176
16155TIP3    H248351   9.623   6.534   4.286
16156TIP3   OH248352   0.022   6.828   5.022
16156TIP3    H148353   0.067   6.899   5.068
16156TIP3    H248354   0.073   6.815   4.942
16157TIP3   OH248355   9.209   7.531   3.825
16157TIP3    H148356   9.189   7.602   3.764
16157TIP3    H248357   9.194   7.568   3.912
16158TIP3   OH248358   9.302   6.237   4.088
16158TIP3    H148359   9.292   6.331   4.104
16158TIP3    H248360   9.396   6.221   4.092
16159TIP3   OH248361   8.941   7.128   3.805
16159TIP3    H148362   9.015   7.189   3.811
16159TIP3    H248363   8.969   7.064   3.738
16160TIP3   OH248364   8.850   6.424   3.941
16160TIP3    H148365   8.859   6.519   3.947
16160TIP3    H248366   8.801   6.409   3.861
16161TIP3   OH248367   9.241   6.134   4.798
16161TIP3    H148368   9.215   6.099   4.713
16161TIP3    H248369   9.224   6.062   4.859
16162TIP3   OH248370   8.767   7.398   4.191
16162TIP3    H148371   8.721   7.432   4.268
16162TIP3    H248372   8.723   7.440   4.117
16163TIP3   OH248373   8.950   7.917   5.259
16163TIP3    H148374   9.030   7.912   5.313
16163TIP3    H248375   8.913   7.829   5.263
16164TIP3   OH248376   9.419   7.879   5.295
16164TIP3    H148377   9.511   7.903   5.283
16164TIP3    H248378   9.403   7.811   5.230
16165TIP3   OH248379   9.417   7.441   3.419
16165TIP3    H148380   9.365   7.375   3.465
16165TIP3    H248381   9.488   7.391   3.378
16166TIP3   OH248382   0.284   7.735   5.063
16166TIP3    H148383   0.263   7.678   5.137
16166TIP3    H248384   0.379   7.733   5.056
16167TIP3   OH248385   9.054   6.937   3.647
16167TIP3    H148386   9.105   6.911   3.724
16167TIP3    H248387   9.121   6.957   3.581
16168TIP3   OH248388   9.646   7.410   5.251
16168TIP3    H148389   9.621   7.442   5.164
16168TIP3    H248390   9.691   7.327   5.235
16169TIP3   OH248391   9.590   7.151   3.490
16169TIP3    H148392   9.590   7.170   3.584
16169TIP3    H248393   9.552   7.064   3.484
16170TIP3   OH248394   9.221   6.885   3.867
16170TIP3    H148395   9.199   6.852   3.954
16170TIP3    H248396   9.264   6.811   3.823
16171TIP3   OH248397   9.556   6.970   5.096
16171TIP3    H148398   9.466   6.992   5.071
16171TIP3    H248399   9.608   6.988   5.018
16172TIP3   OH248400   9.343   6.696   3.710
16172TIP3    H148401   9.307   6.703   3.622
16172TIP3    H248402   9.438   6.694   3.697
16173TIP3   OH248403   0.185   7.333   5.222
16173TIP3    H148404   0.274   7.316   5.192
16173TIP3    H248405   0.173   7.276   5.298
16174TIP3   OH248406   9.634   6.742   5.240
16174TIP3    H148407   9.641   6.662   5.187
16174TIP3    H248408   9.623   6.812   5.176
16175TIP3   OH248409   9.639   6.518   5.068
16175TIP3    H148410   9.670   6.557   4.986
16175TIP3    H248411   9.547   6.496   5.050
16176TIP3   OH248412   9.687   7.072   4.881
16176TIP3    H148413   9.773   7.085   4.841
16176TIP3    H248414   9.629   7.129   4.832
16177TIP3   OH248415   0.513   7.004   5.254
16177TIP3    H148416   0.569   6.968   5.186
16177TIP3    H248417   0.574   7.038   5.320
16178TIP3   OH248418   9.514   6.841   5.466
16178TIP3    H148419   9.459   6.767   5.492
16178TIP3    H248420   9.552   6.813   5.383
16179TIP3   OH248421   9.733   6.278   5.156
16179TIP3    H148422   9.689   6.360   5.135
16179TIP3    H248423   9.675   6.210   5.120
16180TIP3   OH248424   0.099   6.793   5.325
16180TIP3    H148425   0.076   6.786   5.417
16180TIP3    H248426   0.019   6.770   5.278
16181TIP3   OH248427   0.310   6.762   5.142
16181TIP3    H148428   0.239   6.763   5.207
16181TIP3    H248429   0.380   6.711   5.183
16182TIP3   OH248430   0.660   6.610   5.419
16182TIP3    H148431   0.622   6.529   5.455
16182TIP3    H248432   0.589   6.674   5.424
16183TIP3   OH248433   9.373   6.633   5.573
16183TIP3    H148434   9.333   6.556   5.533
16183TIP3    H248435   9.414   6.600   5.653
16184TIP3   OH248436   9.773   6.279   5.428
16184TIP3    H148437   9.779   6.196   5.476
16184TIP3    H248438   9.751   6.253   5.338
16185TIP3   OH248439   0.093   6.518   5.477
16185TIP3    H148440   0.038   6.441   5.463
16185TIP3    H248441   0.032   6.588   5.499
16186TIP3   OH248442   9.208   7.742   3.646
16186TIP3    H148443   9.295   7.722   3.611
16186TIP3    H248444   9.163   7.785   3.574
16187TIP3   OH248445   8.668   7.126   3.816
16187TIP3    H148446   8.763   7.137   3.815
16187TIP3    H248447   8.653   7.040   3.778
16188TIP3   OH248448   8.571   7.709   4.277
16188TIP3    H148449   8.505   7.657   4.232
16188TIP3    H248450   8.615   7.647   4.336
16189TIP3   OH248451   8.710   7.536   4.441
16189TIP3    H148452   8.700   7.468   4.508
16189TIP3    H248453   8.762   7.604   4.483
16190TIP3   OH248454   8.889   7.003   4.812
16190TIP3    H148455   8.880   6.959   4.727
16190TIP3    H248456   8.981   6.994   4.834
16191TIP3   OH248457   9.082   6.360   4.802
16191TIP3    H148458   9.135   6.281   4.811
16191TIP3    H248459   9.147   6.431   4.793
16192TIP3   OH248460   8.868   6.611   4.894
16192TIP3    H148461   8.924   6.630   4.819
16192TIP3    H248462   8.918   6.642   4.970
16193TIP3   OH248463   8.855   6.153   4.389
16193TIP3    H148464   8.770   6.135   4.428
16193TIP3    H248465   8.836   6.202   4.310
16194TIP3   OH248466   9.058   6.190   5.207
16194TIP3    H148467   9.018   6.200   5.293
16194TIP3    H248468   9.012   6.252   5.151
16195TIP3   OH248469   9.114   7.605   5.253
16195TIP3    H148470   9.020   7.620   5.251
16195TIP3    H248471   9.142   7.637   5.339
16196TIP3   OH248472   9.321   7.687   4.830
16196TIP3    H148473   9.269   7.758   4.791
16196TIP3    H248474   9.406   7.694   4.787
16197TIP3   OH248475   9.756   7.903   4.950
16197TIP3    H148476   9.794   7.904   5.038
16197TIP3    H248477   9.811   7.961   4.898
16198TIP3   OH248478   0.109   8.063   4.790
16198TIP3    H148479   0.121   8.011   4.710
16198TIP3    H248480   0.193   8.108   4.802
16199TIP3   OH248481   8.971   7.929   4.875
16199TIP3    H148482   8.880   7.950   4.853
16199TIP3    H248483   8.995   7.993   4.941
16200TIP3   OH248484   9.197   7.903   4.719
16200TIP3    H148485   9.116   7.917   4.768
16200TIP3    H248486   9.178   7.938   4.632
16201TIP3   OH248487   9.616   7.924   4.481
16201TIP3    H148488   9.530   7.947   4.447
16201TIP3    H248489   9.643   7.999   4.534
16202TIP3   OH248490   0.142   7.918   4.560
16202TIP3    H148491   0.111   7.828   4.552
16202TIP3    H248492   0.127   7.957   4.474
16203TIP3   OH248493   8.881   7.718   4.574
16203TIP3    H148494   8.902   7.697   4.665
16203TIP3    H248495   8.955   7.684   4.524
16204TIP3   OH248496   9.094   7.604   4.452
16204TIP3    H148497   9.104   7.523   4.501
16204TIP3    H248498   9.179   7.646   4.455
16205TIP3   OH248499   9.360   7.691   4.480
16205TIP3    H148500   9.376   7.598   4.465
16205TIP3    H248501   9.418   7.713   4.553
16206TIP3   OH248502   0.144   6.200   4.494
16206TIP3    H148503   0.067   6.216   4.549
16206TIP3    H248504   0.180   6.288   4.479
16207TIP3   OH248505   9.166   6.027   4.554
16207TIP3    H148506   9.076   5.996   4.566
16207TIP3    H248507   9.217   5.947   4.535
16208TIP3   OH248508   8.988   5.957   4.231
16208TIP3    H148509   9.012   6.001   4.149
16208TIP3    H248510   8.949   6.026   4.284
16209TIP3   OH248511   8.651   7.519   3.973
16209TIP3    H148512   8.567   7.489   3.937
16209TIP3    H248513   8.657   7.610   3.943
16210TIP3   OH248514   9.088   6.077   3.988
16210TIP3    H148515   9.128   6.013   3.929
16210TIP3    H248516   9.163   6.127   4.022
16211TIP3   OH248517   9.583   6.274   4.115
16211TIP3    H148518   9.648   6.235   4.173
16211TIP3    H248519   9.593   6.368   4.127
16212TIP3   OH248520   9.461   7.667   3.563
16212TIP3    H148521   9.542   7.699   3.525
16212TIP3    H248522   9.435   7.594   3.506
16213TIP3   OH248523   9.352   6.318   5.448
16213TIP3    H148524   9.330   6.242   5.502
16213TIP3    H248525   9.435   6.349   5.483
16214TIP3   OH248526   9.577   6.353   5.603
16214TIP3    H148527   9.652   6.332   5.548
16214TIP3    H248528   9.576   6.284   5.669
16215TIP3   OH248529   8.771   7.511   3.630
16215TIP3    H148530   8.771   7.515   3.725
16215TIP3    H248531   8.851   7.464   3.607
16216TIP3   OH248532   0.758   7.867   6.393
16216TIP3    H148533   0.775   7.806   6.465
16216TIP3    H248534   0.787   7.952   6.426
16217TIP3   OH248535   1.359   7.136   6.755
16217TIP3    H148536   1.373   7.219   6.800
16217TIP3    H248537   1.379   7.154   6.664
16218TIP3   OH248538   0.767   7.344   6.784
16218TIP3    H148539   0.802   7.261   6.815
16218TIP3    H248540   0.717   7.322   6.705
16219TIP3   OH248541   0.787   7.094   6.371
16219TIP3    H148542   0.850   7.078   6.441
16219TIP3    H248543   0.840   7.123   6.297
16220TIP3   OH248544   1.410   7.360   6.914
16220TIP3    H148545   1.328   7.405   6.891
16220TIP3    H248546   1.401   7.341   7.007
16221TIP3   OH248547   0.963   7.090   6.580
16221TIP3    H148548   0.919   7.080   6.664
16221TIP3    H248549   1.020   7.166   6.592
16222TIP3   OH248550   1.164   7.014   6.928
16222TIP3    H148551   1.076   7.045   6.908
16222TIP3    H248552   1.218   7.046   6.856
16223TIP3   OH248553   0.602   7.915   6.167
16223TIP3    H148554   0.658   7.892   6.093
16223TIP3    H248555   0.656   7.898   6.244
16224TIP3   OH248556   1.053   8.081   6.896
16224TIP3    H148557   1.032   8.000   6.848
16224TIP3    H248558   1.026   8.151   6.837
16225TIP3   OH248559   1.243   7.710   6.757
16225TIP3    H148560   1.162   7.760   6.764
16225TIP3    H248561   1.271   7.722   6.666
16226TIP3   OH248562   0.706   7.566   6.120
16226TIP3    H148563   0.663   7.605   6.196
16226TIP3    H248564   0.787   7.528   6.154
16227TIP3   OH248565   0.951   7.569   7.036
16227TIP3    H148566   0.962   7.647   7.090
16227TIP3    H248567   0.866   7.581   6.994
16228TIP3   OH248568   0.602   7.366   5.953
16228TIP3    H148569   0.629   7.443   6.004
16228TIP3    H248570   0.585   7.400   5.866
16229TIP3   OH248571   1.060   6.629   6.028
16229TIP3    H148572   0.985   6.656   6.081
16229TIP3    H248573   1.079   6.705   5.973
16230TIP3   OH248574   0.870   8.022   5.569
16230TIP3    H148575   0.867   8.116   5.550
16230TIP3    H248576   0.960   7.997   5.548
16231TIP3   OH248577   1.304   8.408   6.936
16231TIP3    H148578   1.306   8.313   6.951
16231TIP3    H248579   1.224   8.437   6.979
16232TIP3   OH248580   1.185   7.537   7.271
16232TIP3    H148581   1.128   7.552   7.346
16232TIP3    H248582   1.179   7.443   7.254
16233TIP3   OH248583   0.735   6.873   7.252
16233TIP3    H148584   0.811   6.836   7.298
16233TIP3    H248585   0.681   6.911   7.322
16234TIP3   OH248586   0.991   7.322   7.155
16234TIP3    H148587   0.927   7.313   7.226
16234TIP3    H248588   0.971   7.407   7.115
16235TIP3   OH248589   0.577   7.416   5.675
16235TIP3    H148590   0.549   7.411   5.584
16235TIP3    H248591   0.663   7.458   5.671
16236TIP3   OH248592   0.659   7.278   6.535
16236TIP3    H148593   0.564   7.265   6.530
16236TIP3    H248594   0.695   7.210   6.478
16237TIP3   OH248595   0.843   7.073   6.825
16237TIP3    H148596   0.854   7.070   6.920
16237TIP3    H248597   0.775   7.008   6.806
16238TIP3   OH248598   1.016   7.865   6.724
16238TIP3    H148599   1.056   7.913   6.652
16238TIP3    H248600   0.947   7.813   6.683
16239TIP3   OH248601   0.453   6.981   6.089
16239TIP3    H148602   0.376   7.032   6.063
16239TIP3    H248603   0.528   7.039   6.070
16240TIP3   OH248604   0.684   7.124   6.041
16240TIP3    H148605   0.768   7.141   6.082
16240TIP3    H248606   0.654   7.211   6.013
16241TIP3   OH248607   1.060   7.268   5.909
16241TIP3    H148608   1.011   7.219   5.843
16241TIP3    H248609   1.061   7.358   5.877
16242TIP3   OH248610   1.306   8.128   6.977
16242TIP3    H148611   1.212   8.118   6.970
16242TIP3    H248612   1.340   8.097   6.893
16243TIP3   OH248613   0.792   8.044   5.839
16243TIP3    H148614   0.770   7.962   5.883
16243TIP3    H248615   0.816   8.017   5.750
16244TIP3   OH248616   0.820   7.700   6.610
16244TIP3    H148617   0.753   7.672   6.673
16244TIP3    H248618   0.851   7.619   6.570
16245TIP3   OH248619   0.864   8.300   5.517
16245TIP3    H148620   0.942   8.355   5.524
16245TIP3    H248621   0.812   8.341   5.448
16246TIP3   OH248622   0.756   7.792   5.959
16246TIP3    H148623   0.723   7.713   6.003
16246TIP3    H248624   0.848   7.772   5.942
16247TIP3   OH248625   0.880   7.054   7.090
16247TIP3    H148626   0.899   7.134   7.139
16247TIP3    H248627   0.828   7.001   7.149
16248TIP3   OH248628   0.657   6.871   6.262
16248TIP3    H148629   0.577   6.900   6.219
16248TIP3    H248630   0.687   6.948   6.310
16249TIP3   OH248631   1.237   7.220   7.104
16249TIP3    H148632   1.152   7.258   7.126
16249TIP3    H248633   1.217   7.144   7.050
16250TIP3   OH248634   0.881   7.448   6.513
16250TIP3    H148635   0.803   7.394   6.529
16250TIP3    H248636   0.949   7.407   6.565
16251TIP3   OH248637   0.892   8.361   6.481
16251TIP3    H148638   0.826   8.362   6.412
16251TIP3    H248639   0.958   8.425   6.452
16252TIP3   OH248640   0.817   7.534   5.603
16252TIP3    H148641   0.825   7.499   5.515
16252TIP3    H248642   0.792   7.626   5.591
16253TIP3   OH248643   1.058   7.547   7.519
16253TIP3    H148644   1.083   7.478   7.580
16253TIP3    H248645   1.038   7.622   7.574
16254TIP3   OH248646   0.983   7.815   7.166
16254TIP3    H148647   0.941   7.901   7.154
16254TIP3    H248648   1.075   7.830   7.144
16255TIP3   OH248649   0.814   7.252   7.349
16255TIP3    H148650   0.747   7.299   7.398
16255TIP3    H248651   0.872   7.217   7.417
16256TIP3   OH248652   0.973   7.163   7.549
16256TIP3    H148653   1.021   7.080   7.546
16256TIP3    H248654   1.022   7.217   7.611
16257TIP3   OH248655   1.104   8.544   6.446
16257TIP3    H148656   1.135   8.546   6.536
16257TIP3    H248657   1.183   8.555   6.393
16258TIP3   OH248658   1.149   8.511   6.722
16258TIP3    H148659   1.090   8.435   6.723
16258TIP3    H248660   1.219   8.488   6.782
16259TIP3   OH248661   1.154   8.223   7.358
16259TIP3    H148662   1.127   8.224   7.450
16259TIP3    H248663   1.206   8.303   7.348
16260TIP3   OH248664   1.019   7.728   5.921
16260TIP3    H148665   1.079   7.796   5.888
16260TIP3    H248666   1.067   7.687   5.993
16261TIP3   OH248667   1.142   7.583   6.120
16261TIP3    H148668   1.073   7.545   6.174
16261TIP3    H248669   1.205   7.617   6.183
16262TIP3   OH248670   1.183   7.992   6.545
16262TIP3    H148671   1.235   7.918   6.513
16262TIP3    H248672   1.206   8.065   6.487
16263TIP3   OH248673   0.968   8.294   6.734
16263TIP3    H148674   0.890   8.324   6.781
16263TIP3    H248675   0.945   8.301   6.642
16264TIP3   OH248676   1.040   7.503   5.766
16264TIP3    H148677   0.965   7.503   5.707
16264TIP3    H248678   1.029   7.582   5.818
16265TIP3   OH248679   0.931   7.156   5.701
16265TIP3    H148680   0.858   7.188   5.648
16265TIP3    H248681   0.935   7.062   5.682
16266TIP3   OH248682   0.928   7.445   6.242
16266TIP3    H148683   0.936   7.351   6.223
16266TIP3    H248684   0.916   7.450   6.337
16267TIP3   OH248685   1.244   7.875   7.107
16267TIP3    H148686   1.299   7.797   7.100
16267TIP3    H248687   1.281   7.937   7.044
16268TIP3   OH248688   1.388   7.642   7.110
16268TIP3    H148689   1.314   7.606   7.159
16268TIP3    H248690   1.462   7.585   7.132
16269TIP3   OH248691   0.919   6.881   5.688
16269TIP3    H148692   0.982   6.858   5.756
16269TIP3    H248693   0.834   6.883   5.733
16270TIP3   OH248694   0.944   7.170   6.147
16270TIP3    H148695   0.992   7.089   6.163
16270TIP3    H248696   0.985   7.207   6.069
16271TIP3   OH248697   1.090   7.328   6.649
16271TIP3    H148698   1.175   7.348   6.609
16271TIP3    H248699   1.096   7.364   6.737
16272TIP3   OH248700   1.161   7.475   6.876
16272TIP3    H148701   1.092   7.498   6.938
16272TIP3    H248702   1.189   7.559   6.840
16273TIP3   OH248703   1.633   7.069   7.409
16273TIP3    H148704   1.686   7.007   7.359
16273TIP3    H248705   1.587   7.119   7.342
16274TIP3   OH248706   1.056   6.920   6.199
16274TIP3    H148707   1.101   6.909   6.282
16274TIP3    H248708   0.992   6.849   6.196
16275TIP3   OH248709   1.462   7.222   7.257
16275TIP3    H148710   1.415   7.257   7.333
16275TIP3    H248711   1.393   7.199   7.194
16276TIP3   OH248712   1.130   6.825   5.852
16276TIP3    H148713   1.178   6.768   5.791
16276TIP3    H248714   1.179   6.908   5.851
16277TIP3   OH248715   1.375   6.931   7.127
16277TIP3    H148716   1.291   6.933   7.081
16277TIP3    H248717   1.404   6.840   7.120
16278TIP3   OH248718   0.674   6.863   6.790
16278TIP3    H148719   0.674   6.794   6.856
16278TIP3    H248720   0.699   6.818   6.709
16279TIP3   OH248721   1.085   6.775   6.642
16279TIP3    H148722   1.132   6.824   6.575
16279TIP3    H248723   1.001   6.820   6.651
16280TIP3   OH248724   1.212   6.865   6.420
16280TIP3    H148725   1.280   6.805   6.391
16280TIP3    H248726   1.249   6.952   6.407
16281TIP3   OH248727   0.796   6.721   6.580
16281TIP3    H148728   0.860   6.686   6.519
16281TIP3    H248729   0.791   6.657   6.651
16282TIP3   OH248730   0.867   6.709   6.212
16282TIP3    H148731   0.796   6.764   6.245
16282TIP3    H248732   0.856   6.626   6.257
16283TIP3   OH248733   0.878   8.302   5.819
16283TIP3    H148734   0.845   8.216   5.845
16283TIP3    H248735   0.822   8.328   5.746
16284TIP3   OH248736   1.123   6.930   7.544
16284TIP3    H148737   1.140   6.911   7.637
16284TIP3    H248738   1.210   6.942   7.506
16285TIP3   OH248739   1.066   8.481   7.048
16285TIP3    H148740   1.027   8.420   7.111
16285TIP3    H248741   1.046   8.567   7.083
16286TIP3   OH248742   2.314   7.870   5.801
16286TIP3    H148743   2.285   7.957   5.774
16286TIP3    H248744   2.244   7.812   5.774
16287TIP3   OH248745   2.314   7.863   6.226
16287TIP3    H148746   2.367   7.844   6.303
16287TIP3    H248747   2.267   7.781   6.208
16288TIP3   OH248748   1.605   7.726   6.569
16288TIP3    H148749   1.643   7.675   6.640
16288TIP3    H248750   1.679   7.749   6.513
16289TIP3   OH248751   2.582   8.167   5.900
16289TIP3    H148752   2.569   8.100   5.967
16289TIP3    H248753   2.601   8.247   5.949
16290TIP3   OH248754   1.585   8.140   6.265
16290TIP3    H148755   1.573   8.046   6.261
16290TIP3    H248756   1.680   8.153   6.259
16291TIP3   OH248757   1.293   7.360   6.042
16291TIP3    H148758   1.254   7.444   6.066
16291TIP3    H248759   1.222   7.312   5.999
16292TIP3   OH248760   1.367   7.666   6.263
16292TIP3    H148761   1.418   7.590   6.290
16292TIP3    H248762   1.433   7.731   6.237
16293TIP3   OH248763   2.243   8.589   5.920
16293TIP3    H148764   2.267   8.525   5.852
16293TIP3    H248765   2.247   8.540   6.002
16294TIP3   OH248766   2.115   8.085   6.227
16294TIP3    H148767   2.161   8.006   6.197
16294TIP3    H248768   2.185   8.142   6.260
16295TIP3   OH248769   3.157   7.402   6.248
16295TIP3    H148770   3.171   7.487   6.289
16295TIP3    H248771   3.179   7.417   6.156
16296TIP3   OH248772   2.524   7.570   6.263
16296TIP3    H148773   2.555   7.484   6.291
16296TIP3    H248774   2.487   7.555   6.176
16297TIP3   OH248775   1.882   7.227   6.219
16297TIP3    H148776   1.860   7.301   6.161
16297TIP3    H248777   1.825   7.156   6.189
16298TIP3   OH248778   2.579   7.332   5.862
16298TIP3    H148779   2.643   7.325   5.933
16298TIP3    H248780   2.629   7.367   5.788
16299TIP3   OH248781   1.512   7.448   6.354
16299TIP3    H148782   1.595   7.428   6.396
16299TIP3    H248783   1.512   7.396   6.273
16300TIP3   OH248784   1.922   7.645   6.171
16300TIP3    H148785   2.017   7.631   6.176
16300TIP3    H248786   1.888   7.563   6.136
16301TIP3   OH248787   3.207   7.625   6.411
16301TIP3    H148788   3.118   7.660   6.404
16301TIP3    H248789   3.241   7.661   6.493
16302TIP3   OH248790   1.858   7.235   6.677
16302TIP3    H148791   1.809   7.270   6.603
16302TIP3    H248792   1.803   7.253   6.753
16303TIP3   OH248793   2.216   8.088   5.662
16303TIP3    H148794   2.175   8.055   5.582
16303TIP3    H248795   2.161   8.162   5.688
16304TIP3   OH248796   1.952   8.007   6.436
16304TIP3    H148797   1.898   8.078   6.471
16304TIP3    H248798   2.000   8.047   6.364
16305TIP3   OH248799   2.736   7.351   6.086
16305TIP3    H148800   2.691   7.330   6.167
16305TIP3    H248801   2.790   7.427   6.106
16306TIP3   OH248802   1.758   7.340   6.442
16306TIP3    H148803   1.813   7.415   6.465
16306TIP3    H248804   1.804   7.298   6.369
16307TIP3   OH248805   1.797   8.206   6.547
16307TIP3    H148806   1.787   8.297   6.520
16307TIP3    H248807   1.718   8.187   6.598
16308TIP3   OH248808   1.185   7.915   5.802
16308TIP3    H148809   1.150   7.940   5.716
16308TIP3    H248810   1.209   7.998   5.843
16309TIP3   OH248811   2.614   8.410   6.044
16309TIP3    H148812   2.526   8.404   6.081
16309TIP3    H248813   2.615   8.492   5.995
16310TIP3   OH248814   2.958   7.291   6.417
16310TIP3    H148815   2.872   7.311   6.379
16310TIP3    H248816   3.020   7.318   6.350
16311TIP3   OH248817   2.203   6.925   6.412
16311TIP3    H148818   2.194   6.832   6.436
16311TIP3    H248819   2.126   6.967   6.450
16312TIP3   OH248820   2.324   8.444   5.698
16312TIP3    H148821   2.379   8.367   5.686
16312TIP3    H248822   2.377   8.517   5.665
16313TIP3   OH248823   2.465   8.217   5.654
16313TIP3    H148824   2.392   8.156   5.652
16313TIP3    H248825   2.515   8.191   5.732
16314TIP3   OH248826   2.859   8.295   6.388
16314TIP3    H148827   2.836   8.222   6.329
16314TIP3    H248828   2.842   8.373   6.336
16315TIP3   OH248829   2.139   7.710   5.655
16315TIP3    H148830   2.054   7.750   5.635
16315TIP3    H248831   2.184   7.707   5.570
16316TIP3   OH248832   2.111   7.510   5.349
16316TIP3    H148833   2.178   7.560   5.395
16316TIP3    H248834   2.160   7.444   5.300
16317TIP3   OH248835   3.026   7.965   6.248
16317TIP3    H148836   2.941   8.010   6.246
16317TIP3    H248837   3.062   7.979   6.160
16318TIP3   OH248838   2.499   7.801   5.612
16318TIP3    H148839   2.445   7.829   5.685
16318TIP3    H248840   2.583   7.777   5.651
16319TIP3   OH248841   2.728   7.825   6.561
16319TIP3    H148842   2.721   7.908   6.608
16319TIP3    H248843   2.647   7.820   6.510
16320TIP3   OH248844   1.722   7.774   6.018
16320TIP3    H148845   1.686   7.713   5.953
16320TIP3    H248846   1.795   7.727   6.057
16321TIP3   OH248847   1.854   8.194   6.166
16321TIP3    H148848   1.829   8.183   6.075
16321TIP3    H248849   1.943   8.158   6.172
16322TIP3   OH248850   1.817   7.773   6.392
16322TIP3    H148851   1.856   7.735   6.313
16322TIP3    H248852   1.866   7.853   6.407
16323TIP3   OH248853   2.373   8.409   6.171
16323TIP3    H148854   2.358   8.488   6.222
16323TIP3    H248855   2.358   8.337   6.232
16324TIP3   OH248856   1.998   8.302   6.714
16324TIP3    H148857   1.939   8.361   6.761
16324TIP3    H248858   1.941   8.250   6.658
16325TIP3   OH248859   2.329   7.657   5.449
16325TIP3    H148860   2.388   7.717   5.496
16325TIP3    H248861   2.359   7.662   5.358
16326TIP3   OH248862   1.751   7.852   6.859
16326TIP3    H148863   1.756   7.946   6.880
16326TIP3    H248864   1.657   7.834   6.857
16327TIP3   OH248865   2.076   8.323   5.705
16327TIP3    H148866   2.158   8.372   5.712
16327TIP3    H248867   2.019   8.379   5.652
16328TIP3   OH248868   1.797   8.467   6.803
16328TIP3    H148869   1.769   8.477   6.712
16328TIP3    H248870   1.716   8.452   6.852
16329TIP3   OH248871   2.841   6.884   5.509
16329TIP3    H148872   2.764   6.905   5.562
16329TIP3    H248873   2.851   6.959   5.450
16330TIP3   OH248874   1.598   7.614   5.819
16330TIP3    H148875   1.521   7.662   5.788
16330TIP3    H248876   1.568   7.524   5.830
16331TIP3   OH248877   2.670   8.260   5.063
16331TIP3    H148878   2.662   8.353   5.040
16331TIP3    H248879   2.758   8.236   5.034
16332TIP3   OH248880   1.391   8.017   6.744
16332TIP3    H148881   1.321   7.999   6.681
16332TIP3    H248882   1.424   7.930   6.769
16333TIP3   OH248883   1.308   8.190   6.387
16333TIP3    H148884   1.391   8.167   6.345
16333TIP3    H248885   1.331   8.261   6.447
16334TIP3   OH248886   3.089   8.679   6.457
16334TIP3    H148887   3.094   8.584   6.464
16334TIP3    H248888   3.007   8.702   6.500
16335TIP3   OH248889   2.185   8.446   6.575
16335TIP3    H148890   2.179   8.537   6.605
16335TIP3    H248891   2.117   8.400   6.623
16336TIP3   OH248892   1.970   8.523   5.533
16336TIP3    H148893   1.928   8.510   5.448
16336TIP3    H248894   1.938   8.608   5.563
16337TIP3   OH248895   1.402   8.398   5.915
16337TIP3    H148896   1.449   8.395   5.998
16337TIP3    H248897   1.356   8.315   5.911
16338TIP3   OH248898   2.170   8.482   5.155
16338TIP3    H148899   2.220   8.409   5.119
16338TIP3    H248900   2.204   8.492   5.244
16339TIP3   OH248901   2.222   8.508   5.426
16339TIP3    H148902   2.137   8.510   5.469
16339TIP3    H248903   2.282   8.471   5.491
16340TIP3   OH248904   2.971   7.781   6.717
16340TIP3    H148905   2.888   7.793   6.671
16340TIP3    H248906   2.989   7.687   6.711
16341TIP3   OH248907   1.577   8.217   6.716
16341TIP3    H148908   1.630   8.207   6.795
16341TIP3    H248909   1.511   8.148   6.722
16342TIP3   OH248910   1.966   7.018   6.536
16342TIP3    H148911   1.883   6.983   6.502
16342TIP3    H248912   1.942   7.098   6.582
16343TIP3   OH248913   2.504   7.142   6.732
16343TIP3    H148914   2.574   7.119   6.794
16343TIP3    H248915   2.423   7.126   6.781
16344TIP3   OH248916   2.729   7.560   6.654
16344TIP3    H148917   2.688   7.556   6.741
16344TIP3    H248918   2.712   7.649   6.624
16345TIP3   OH248919   2.414   7.641   5.190
16345TIP3    H148920   2.364   7.641   5.108
16345TIP3    H248921   2.495   7.688   5.169
16346TIP3   OH248922   2.120   7.051   5.505
16346TIP3    H148923   2.079   7.060   5.591
16346TIP3    H248924   2.081   6.972   5.468
16347TIP3   OH248925   1.903   7.554   6.542
16347TIP3    H148926   1.857   7.560   6.625
16347TIP3    H248927   1.880   7.634   6.495
16348TIP3   OH248928   1.785   7.430   6.062
16348TIP3    H148929   1.697   7.406   6.087
16348TIP3    H248930   1.794   7.399   5.972
16349TIP3   OH248931   2.262   7.504   5.790
16349TIP3    H148932   2.214   7.577   5.750
16349TIP3    H248933   2.319   7.472   5.721
16350TIP3   OH248934   2.447   7.768   6.862
16350TIP3    H148935   2.421   7.700   6.925
16350TIP3    H248936   2.539   7.784   6.882
16351TIP3   OH248937   2.432   7.518   6.011
16351TIP3    H148938   2.362   7.539   5.948
16351TIP3    H248939   2.479   7.445   5.971
16352TIP3   OH248940   1.739   7.571   6.761
16352TIP3    H148941   1.747   7.637   6.830
16352TIP3    H248942   1.720   7.489   6.807
16353TIP3   OH248943   1.786   7.039   5.478
16353TIP3    H148944   1.772   7.047   5.573
16353TIP3    H248945   1.708   7.080   5.440
16354TIP3   OH248946   1.334   7.090   6.339
16354TIP3    H148947   1.408   7.125   6.388
16354TIP3    H248948   1.370   7.068   6.253
16355TIP3   OH248949   1.253   7.072   5.853
16355TIP3    H148950   1.292   7.103   5.771
16355TIP3    H248951   1.188   7.139   5.875
16356TIP3   OH248952   2.479   7.772   6.438
16356TIP3    H148953   2.502   7.705   6.373
16356TIP3    H248954   2.433   7.724   6.507
16357TIP3   OH248955   2.149   7.217   6.113
16357TIP3    H148956   2.070   7.217   6.166
16357TIP3    H248957   2.221   7.209   6.176
16358TIP3   OH248958   1.549   7.305   6.124
16358TIP3    H148959   1.461   7.311   6.086
16358TIP3    H248960   1.576   7.214   6.107
16359TIP3   OH248961   1.797   7.309   5.816
16359TIP3    H148962   1.892   7.318   5.804
16359TIP3    H248963   1.761   7.325   5.729
16360TIP3   OH248964   2.591   7.308   6.323
16360TIP3    H148965   2.573   7.326   6.415
16360TIP3    H248966   2.522   7.247   6.296
16361TIP3   OH248967   1.686   7.330   5.567
16361TIP3    H148968   1.624   7.279   5.515
16361TIP3    H248969   1.739   7.376   5.503
16362TIP3   OH248970   2.798   9.006   6.539
16362TIP3    H148971   2.791   9.025   6.445
16362TIP3    H248972   2.876   9.054   6.567
16363TIP3   OH248973   1.738   8.124   6.945
16363TIP3    H148974   1.820   8.142   6.992
16363TIP3    H248975   1.669   8.133   7.010
16364TIP3   OH248976   2.196   7.595   6.220
16364TIP3    H148977   2.261   7.544   6.172
16364TIP3    H248978   2.193   7.554   6.307
16365TIP3   OH248979   1.686   7.056   6.103
16365TIP3    H148980   1.659   6.980   6.155
16365TIP3    H248981   1.702   7.021   6.016
16366TIP3   OH248982   2.168   7.497   6.483
16366TIP3    H148983   2.082   7.529   6.508
16366TIP3    H248984   2.229   7.549   6.536
16367TIP3   OH248985   1.898   7.838   5.599
16367TIP3    H148986   1.823   7.784   5.573
16367TIP3    H248987   1.871   7.879   5.680
16368TIP3   OH248988   2.791   8.102   6.203
16368TIP3    H148989   2.826   8.153   6.130
16368TIP3    H248990   2.712   8.061   6.169
16369TIP3   OH248991   2.370   7.160   5.511
16369TIP3    H148992   2.277   7.136   5.506
16369TIP3    H248993   2.370   7.255   5.520
16370TIP3   OH248994   2.313   8.184   6.618
16370TIP3    H148995   2.361   8.176   6.700
16370TIP3    H248996   2.271   8.270   6.623
16371TIP3   OH248997   2.426   7.427   5.575
16371TIP3    H148998   2.521   7.432   5.584
16371TIP3    H248999   2.403   7.504   5.523
16372TIP3   OH249000   1.588   7.857   6.244
16372TIP3    H149001   1.626   7.838   6.158
16372TIP3    H249002   1.654   7.828   6.307
16373TIP3   OH249003   2.058   7.998   5.448
16373TIP3    H149004   2.009   8.080   5.442
16373TIP3    H249005   2.001   7.940   5.498
16374TIP3   OH249006   1.479   7.782   6.882
16374TIP3    H149007   1.478   7.748   6.971
16374TIP3    H249008   1.404   7.740   6.840
16375TIP3   OH249009   2.217   7.926   6.903
16375TIP3    H149010   2.146   7.867   6.877
16375TIP3    H249011   2.297   7.882   6.873
16376TIP3   OH249012   2.457   8.472   6.507
16376TIP3    H149013   2.363   8.458   6.507
16376TIP3    H249014   2.477   8.507   6.594
16377TIP3   OH249015   2.839   7.515   5.389
16377TIP3    H149016   2.783   7.469   5.326
16377TIP3    H249017   2.846   7.604   5.355
16378TIP3   OH249018   3.101   8.403   6.470
16378TIP3    H149019   3.008   8.378   6.473
16378TIP3    H249020   3.133   8.366   6.388
16379TIP3   OH249021   2.582   8.325   5.328
16379TIP3    H149022   2.553   8.254   5.386
16379TIP3    H249023   2.603   8.282   5.245
16380TIP3   OH249024   2.564   7.965   6.100
16380TIP3    H149025   2.475   7.943   6.125
16380TIP3    H249026   2.598   7.884   6.061
16381TIP3   OH249027   1.719   8.199   5.921
16381TIP3    H149028   1.719   8.274   5.863
16381TIP3    H249029   1.626   8.183   5.940
16382TIP3   OH249030   1.281   7.480   5.630
16382TIP3    H149031   1.324   7.563   5.652
16382TIP3    H249032   1.199   7.483   5.679
16383TIP3   OH249033   1.802   7.955   5.821
16383TIP3    H149034   1.788   8.044   5.853
16383TIP3    H249035   1.775   7.899   5.894
16384TIP3   OH249036   2.001   8.528   6.370
16384TIP3    H149037   2.034   8.603   6.320
16384TIP3    H249038   2.077   8.495   6.419
16385TIP3   OH249039   1.632   8.416   5.767
16385TIP3    H149040   1.545   8.422   5.807
16385TIP3    H249041   1.668   8.504   5.774
16386TIP3   OH249042   2.349   8.189   6.344
16386TIP3    H149043   2.337   8.185   6.439
16386TIP3    H249044   2.424   8.133   6.327
16387TIP3   OH249045   2.350   8.069   5.206
16387TIP3    H149046   2.400   8.040   5.283
16387TIP3    H249047   2.267   8.021   5.213
16388TIP3   OH249048   2.611   8.674   6.388
16388TIP3    H149049   2.543   8.611   6.412
16388TIP3    H249050   2.575   8.723   6.315
16389TIP3   OH249051   2.667   8.532   5.017
16389TIP3    H149052   2.703   8.604   4.965
16389TIP3    H249053   2.590   8.569   5.059
16390TIP3   OH249054   1.685   7.322   6.880
16390TIP3    H149055   1.590   7.335   6.886
16390TIP3    H249056   1.708   7.278   6.962
16391TIP3   OH249057   2.523   7.985   5.402
16391TIP3    H149058   2.506   7.931   5.479
16391TIP3    H249059   2.618   7.990   5.397
16392TIP3   OH249060   1.425   8.400   6.544
16392TIP3    H149061   1.481   8.344   6.598
16392TIP3    H249062   1.428   8.485   6.586
16393TIP3   OH249063   1.698   8.030   5.229
16393TIP3    H149064   1.707   7.939   5.200
16393TIP3    H249065   1.684   8.023   5.324
16394TIP3   OH249066   1.640   8.044   5.502
16394TIP3    H149067   1.707   8.018   5.565
16394TIP3    H249068   1.640   8.140   5.506
16395TIP3   OH249069   1.375   7.735   5.708
16395TIP3    H149070   1.311   7.785   5.759
16395TIP3    H249071   1.394   7.791   5.633
16396TIP3   OH249072   2.536   7.372   6.584
16396TIP3    H149073   2.614   7.416   6.618
16396TIP3    H249074   2.526   7.295   6.640
16397TIP3   OH249075   2.431   7.112   5.778
16397TIP3    H149076   2.408   7.130   5.687
16397TIP3    H249077   2.473   7.193   5.808
16398TIP3   OH249078   1.909   8.223   5.435
16398TIP3    H149079   1.826   8.251   5.473
16398TIP3    H249080   1.935   8.296   5.379
16399TIP3   OH249081   2.078   7.311   5.861
16399TIP3    H149082   2.138   7.380   5.835
16399TIP3    H249083   2.101   7.292   5.951
16400TIP3   OH249084   2.376   7.608   6.634
16400TIP3    H149085   2.399   7.650   6.717
16400TIP3    H249086   2.425   7.526   6.634
16401TIP3   OH249087   2.240   7.008   5.950
16401TIP3    H149088   2.215   7.085   6.000
16401TIP3    H249089   2.310   7.038   5.891
16402TIP3   OH249090   1.663   8.317   5.515
16402TIP3    H149091   1.645   8.392   5.458
16402TIP3    H249092   1.651   8.351   5.604
16403TIP3   OH249093   1.750   7.035   5.759
16403TIP3    H149094   1.738   7.126   5.784
16403TIP3    H249095   1.845   7.021   5.764
16404TIP3   OH249096   2.993   7.506   6.629
16404TIP3    H149097   2.899   7.514   6.643
16404TIP3    H249098   3.002   7.450   6.552
16405TIP3   OH249099   2.656   7.706   6.011
16405TIP3    H149100   2.578   7.651   6.021
16405TIP3    H249101   2.721   7.666   6.068
16406TIP3   OH249102   1.395   7.914   5.492
16406TIP3    H149103   1.469   7.975   5.501
16406TIP3    H249104   1.424   7.851   5.426
16407TIP3   OH249105   1.302   7.201   5.620
16407TIP3    H149106   1.308   7.297   5.620
16407TIP3    H249107   1.237   7.181   5.552
16408TIP3   OH249108   2.635   8.670   5.951
16408TIP3    H149109   2.592   8.723   5.884
16408TIP3    H249110   2.728   8.687   5.939
16409TIP3   OH249111   1.708   6.929   6.487
16409TIP3    H149112   1.678   6.898   6.402
16409TIP3    H249113   1.698   6.854   6.545
16410TIP3   OH249114   1.238   8.172   5.909
16410TIP3    H149115   1.192   8.211   5.983
16410TIP3    H249116   1.199   8.212   5.832
16411TIP3   OH249117   1.429   8.717   6.949
16411TIP3    H149118   1.508   8.720   7.003
16411TIP3    H249119   1.410   8.623   6.939
16412TIP3   OH249120   1.894   8.633   7.001
16412TIP3    H149121   1.986   8.609   7.012
16412TIP3    H249122   1.864   8.578   6.928
16413TIP3   OH249123   1.856   8.226   5.119
16413TIP3    H149124   1.807   8.157   5.164
16413TIP3    H249125   1.929   8.181   5.078
16414TIP3   OH249126   2.513   8.568   6.758
16414TIP3    H149127   2.531   8.499   6.822
16414TIP3    H249128   2.587   8.628   6.767
16415TIP3   OH249129   2.295   8.273   5.034
16415TIP3    H149130   2.329   8.208   5.096
16415TIP3    H249131   2.353   8.265   4.958
16416TIP3   OH249132   1.534   8.129   7.136
16416TIP3    H149133   1.557   8.037   7.148
16416TIP3    H249134   1.448   8.126   7.093
16417TIP3   OH249135   1.514   7.726   5.336
16417TIP3    H149136   1.564   7.698   5.412
16417TIP3    H249137   1.580   7.738   5.268
16418TIP3   OH249138   2.155   8.202   6.918
16418TIP3    H149139   2.109   8.223   6.837
16418TIP3    H249140   2.188   8.113   6.905
16419TIP3   OH249141   2.102   7.946   5.182
16419TIP3    H149142   2.078   7.955   5.274
16419TIP3    H249143   2.084   7.854   5.162
16420TIP3   OH249144   2.627   8.249   6.538
16420TIP3    H149145   2.705   8.276   6.488
16420TIP3    H249146   2.563   8.318   6.522
16421TIP3   OH249147   1.648   7.879   7.150
16421TIP3    H149148   1.719   7.836   7.102
16421TIP3    H249149   1.682   7.891   7.238
16422TIP3   OH249150   1.687   7.664   5.549
16422TIP3    H149151   1.668   7.631   5.636
16422TIP3    H249152   1.738   7.595   5.507
16423TIP3   OH249153   2.012   7.753   6.809
16423TIP3    H149154   1.924   7.791   6.818
16423TIP3    H249155   2.040   7.781   6.722
16424TIP3   OH249156   1.838   7.486   5.400
16424TIP3    H149157   1.808   7.489   5.309
16424TIP3    H249158   1.933   7.490   5.394
16425TIP3   OH249159   2.506   8.125   6.886
16425TIP3    H149160   2.573   8.085   6.830
16425TIP3    H249161   2.502   8.068   6.963
16426TIP3   OH249162   2.631   7.771   5.071
16426TIP3    H149163   2.616   7.730   4.985
16426TIP3    H249164   2.607   7.863   5.059
16427TIP3   OH249165   2.114   7.519   6.911
16427TIP3    H149166   2.114   7.449   6.846
16427TIP3    H249167   2.079   7.595   6.865
16428TIP3   OH249168   2.118   7.321   6.709
16428TIP3    H149169   2.144   7.359   6.625
16428TIP3    H249170   2.027   7.294   6.696
16429TIP3   OH249171   2.122   7.846   6.578
16429TIP3    H149172   2.210   7.884   6.569
16429TIP3    H249173   2.065   7.904   6.528
16430TIP3   OH249174   2.715   7.808   6.958
16430TIP3    H149175   2.760   7.723   6.962
16430TIP3    H249176   2.786   7.872   6.949
16431TIP3   OH249177   2.743   8.069   6.704
16431TIP3    H149178   2.691   8.132   6.653
16431TIP3    H249179   2.833   8.083   6.673
16432TIP3   OH249180   2.001   7.598   7.157
16432TIP3    H149181   1.928   7.540   7.179
16432TIP3    H249182   2.026   7.573   7.068
16433TIP3   OH249183   2.239   7.091   6.813
16433TIP3    H149184   2.198   7.170   6.779
16433TIP3    H249185   2.173   7.023   6.801
16434TIP3   OH249186   2.367   7.556   7.019
16434TIP3    H149187   2.353   7.543   7.113
16434TIP3    H249188   2.282   7.537   6.980
16435TIP3   OH249189   2.614   7.515   6.893
16435TIP3    H149190   2.534   7.514   6.946
16435TIP3    H249191   2.684   7.491   6.954
16436TIP3   OH249192   2.852   7.481   7.040
16436TIP3    H149193   2.865   7.386   7.047
16436TIP3    H249194   2.846   7.511   7.131
16437TIP3   OH249195   1.839   7.372   7.217
16437TIP3    H149196   1.839   7.283   7.181
16437TIP3    H249197   1.880   7.363   7.303
16438TIP3   OH249198   2.307   7.062   7.077
16438TIP3    H149199   2.376   6.997   7.066
16438TIP3    H249200   2.274   7.078   6.988
16439TIP3   OH249201   2.403   7.275   7.225
16439TIP3    H149202   2.371   7.205   7.169
16439TIP3    H249203   2.331   7.339   7.227
16440TIP3   OH249204   1.675   8.537   5.343
16440TIP3    H149205   1.761   8.506   5.314
16440TIP3    H249206   1.631   8.564   5.263
16441TIP3   OH249207   1.122   7.922   5.513
16441TIP3    H149208   1.218   7.931   5.508
16441TIP3    H249209   1.104   7.838   5.472
16442TIP3   OH249210   1.020   8.480   5.975
16442TIP3    H149211   0.967   8.424   5.919
16442TIP3    H249212   1.058   8.421   6.040
16443TIP3   OH249213   1.170   8.319   6.152
16443TIP3    H149214   1.174   8.249   6.217
16443TIP3    H249215   1.217   8.392   6.192
16444TIP3   OH249216   2.903   8.732   5.947
16444TIP3    H149217   2.921   8.752   6.038
16444TIP3    H249218   2.944   8.803   5.898
16445TIP3   OH249219   2.923   8.752   6.225
16445TIP3    H149220   2.880   8.666   6.227
16445TIP3    H249221   2.996   8.743   6.287
16446TIP3   OH249222   2.987   8.460   6.795
16446TIP3    H149223   2.913   8.470   6.855
16446TIP3    H249224   3.032   8.544   6.798
16447TIP3   OH249225   2.802   7.979   5.405
16447TIP3    H149226   2.859   8.050   5.375
16447TIP3    H249227   2.848   7.941   5.480
16448TIP3   OH249228   2.933   7.838   5.607
16448TIP3    H149229   2.864   7.801   5.664
16448TIP3    H249230   2.996   7.875   5.668
16449TIP3   OH249231   2.978   8.243   6.047
16449TIP3    H149232   3.028   8.176   6.001
16449TIP3    H249233   2.980   8.319   5.989
16450TIP3   OH249234   2.783   8.514   6.240
16450TIP3    H149235   2.716   8.561   6.290
16450TIP3    H249236   2.735   8.474   6.167
16451TIP3   OH249237   2.838   7.754   5.251
16451TIP3    H149238   2.767   7.753   5.187
16451TIP3    H249239   2.821   7.832   5.304
16452TIP3   OH249240   2.691   7.400   5.190
16452TIP3    H149241   2.642   7.439   5.117
16452TIP3    H249242   2.682   7.306   5.177
16453TIP3   OH249243   2.727   7.701   5.742
16453TIP3    H149244   2.729   7.607   5.726
16453TIP3    H249245   2.707   7.709   5.836
16454TIP3   OH249246   1.345   7.775   6.512
16454TIP3    H149247   1.336   7.737   6.424
16454TIP3    H249248   1.438   7.767   6.532
16455TIP3   OH249249   2.999   8.112   6.605
16455TIP3    H149250   3.069   8.050   6.586
16455TIP3    H249251   2.994   8.168   6.527
16456TIP3   OH249252   3.184   7.904   6.595
16456TIP3    H149253   3.109   7.863   6.639
16456TIP3    H249254   3.259   7.849   6.619
16457TIP3   OH249255   2.653   7.128   5.162
16457TIP3    H149256   2.715   7.104   5.231
16457TIP3    H249257   2.568   7.095   5.193
16458TIP3   OH249258   2.720   7.424   5.631
16458TIP3    H149259   2.765   7.341   5.643
16458TIP3    H249260   2.759   7.462   5.553
16459TIP3   OH249261   2.871   7.585   6.156
16459TIP3    H149262   2.951   7.603   6.107
16459TIP3    H249263   2.885   7.626   6.241
16460TIP3   OH249264   2.946   7.737   6.382
16460TIP3    H149265   2.873   7.764   6.438
16460TIP3    H249266   2.975   7.817   6.339
16461TIP3   OH249267   1.581   7.460   7.180
16461TIP3    H149268   1.675   7.447   7.193
16461TIP3    H249269   1.541   7.380   7.213
16462TIP3   OH249270   3.409   7.330   6.923
16462TIP3    H149271   3.476   7.277   6.880
16462TIP3    H249272   3.370   7.381   6.853
16463TIP3   OH249273   2.837   7.174   5.682
16463TIP3    H149274   2.881   7.158   5.765
16463TIP3    H249275   2.773   7.103   5.675
16464TIP3   OH249276   1.548   7.156   6.501
16464TIP3    H149277   1.601   7.076   6.508
16464TIP3    H249278   1.612   7.225   6.484
16465TIP3   OH249279   1.338   7.416   6.573
16465TIP3    H149280   1.387   7.414   6.490
16465TIP3    H249281   1.379   7.486   6.623
16466TIP3   OH249282   3.259   7.451   6.730
16466TIP3    H149283   3.179   7.491   6.764
16466TIP3    H249284   3.227   7.380   6.673
16467TIP3   OH249285   2.879   7.082   5.322
16467TIP3    H149286   2.927   7.023   5.265
16467TIP3    H249287   2.931   7.162   5.324
16468TIP3   OH249288   1.327   6.943   6.081
16468TIP3    H149289   1.240   6.925   6.117
16468TIP3    H249290   1.310   6.996   6.004
16469TIP3   OH249291   2.454   8.651   5.584
16469TIP3    H149292   2.514   8.638   5.511
16469TIP3    H249293   2.498   8.713   5.641
16470TIP3   OH249294   1.530   6.965   6.892
16470TIP3    H149295   1.487   6.969   6.978
16470TIP3    H249296   1.476   7.021   6.836
16471TIP3   OH249297   1.576   8.435   6.967
16471TIP3    H149298   1.484   8.417   6.951
16471TIP3    H249299   1.586   8.430   7.062
16472TIP3   OH249300   1.777   8.478   6.522
16472TIP3    H149301   1.718   8.546   6.487
16472TIP3    H249302   1.859   8.494   6.476
16473TIP3   OH249303   2.181   8.708   6.657
16473TIP3    H149304   2.219   8.706   6.745
16473TIP3    H249305   2.240   8.764   6.607
16474TIP3   OH249306   2.364   8.866   6.525
16474TIP3    H149307   2.421   8.812   6.469
16474TIP3    H249308   2.425   8.915   6.580
16475TIP3   OH249309   3.169   7.206   6.614
16475TIP3    H149310   3.084   7.207   6.569
16475TIP3    H249311   3.198   7.115   6.610
16476TIP3   OH249312   1.413   8.732   6.559
16476TIP3    H149313   1.328   8.771   6.538
16476TIP3    H249314   1.448   8.787   6.629
16477TIP3   OH249315   1.646   8.691   6.415
16477TIP3    H149316   1.562   8.707   6.458
16477TIP3    H249317   1.634   8.721   6.325
16478TIP3   OH249318   2.078   8.734   6.201
16478TIP3    H149319   2.012   8.742   6.132
16478TIP3    H249320   2.084   8.822   6.239
16479TIP3   OH249321   2.333   8.663   6.269
16479TIP3    H149322   2.244   8.686   6.242
16479TIP3    H249323   2.389   8.723   6.220
16480TIP3   OH249324   2.536   8.815   6.162
16480TIP3    H149325   2.539   8.904   6.128
16480TIP3    H249326   2.567   8.760   6.089
16481TIP3   OH249327   1.349   8.495   6.292
16481TIP3    H149328   1.374   8.469   6.380
16481TIP3    H249329   1.420   8.464   6.236
16482TIP3   OH249330   1.551   8.388   6.145
16482TIP3    H149331   1.564   8.302   6.187
16482TIP3    H249332   1.638   8.428   6.147
16483TIP3   OH249333   1.818   8.472   6.167
16483TIP3    H149334   1.837   8.379   6.156
16483TIP3    H249335   1.874   8.499   6.241
16484TIP3   OH249336   2.374   7.128   6.259
16484TIP3    H149337   2.335   7.056   6.308
16484TIP3    H249338   2.442   7.086   6.206
16485TIP3   OH249339   2.875   7.047   6.144
16485TIP3    H149340   2.911   7.096   6.070
16485TIP3    H249341   2.781   7.067   6.142
16486TIP3   OH249342   2.993   7.116   5.905
16486TIP3    H149343   3.063   7.056   5.878
16486TIP3    H249344   3.031   7.203   5.893
16487TIP3   OH249345   1.618   6.827   6.247
16487TIP3    H149346   1.529   6.794   6.256
16487TIP3    H249347   1.672   6.748   6.238
16488TIP3   OH249348   1.452   6.743   5.916
16488TIP3    H149349   1.475   6.788   5.834
16488TIP3    H249350   1.417   6.812   5.972
16489TIP3   OH249351   2.101   6.862   6.150
16489TIP3    H149352   2.146   6.912   6.081
16489TIP3    H249353   2.140   6.894   6.231
16490TIP3   OH249354   2.588   7.015   6.123
16490TIP3    H149355   2.592   6.982   6.033
16490TIP3    H249356   2.594   6.937   6.177
16491TIP3   OH249357   2.651   6.963   5.692
16491TIP3    H149358   2.571   7.011   5.715
16491TIP3    H249359   2.639   6.876   5.729
16492TIP3   OH249360   1.124   8.290   5.696
16492TIP3    H149361   1.035   8.288   5.732
16492TIP3    H249362   1.124   8.364   5.635
16493TIP3   OH249363   1.546   6.860   5.671
16493TIP3    H149364   1.591   6.801   5.611
16493TIP3    H249365   1.615   6.919   5.702
16494TIP3   OH249366   2.026   7.060   5.766
16494TIP3    H149367   2.085   7.007   5.820
16494TIP3    H249368   2.042   7.150   5.793
16495TIP3   OH249369   1.919   8.448   5.262
16495TIP3    H149370   2.001   8.477   5.223
16495TIP3    H249371   1.888   8.377   5.205
16496TIP3   OH249372   2.613   8.594   5.361
16496TIP3    H149373   2.606   8.499   5.356
16496TIP3    H249374   2.571   8.625   5.281
16497TIP3   OH249375   1.847   7.102   7.128
16497TIP3    H149376   1.815   7.030   7.182
16497TIP3    H249377   1.939   7.113   7.154
16498TIP3   OH249378   2.094   7.116   7.250
16498TIP3    H149379   2.171   7.091   7.198
16498TIP3    H249380   2.083   7.044   7.313
16499TIP3   OH249381   1.224   8.293   5.314
16499TIP3    H149382   1.223   8.303   5.409
16499TIP3    H249383   1.305   8.245   5.296
16500TIP3   OH249384   2.914   7.209   7.044
16500TIP3    H149385   2.932   7.179   7.133
16500TIP3    H249386   2.999   7.203   6.999
16501TIP3   OH249387   2.834   8.734   6.546
16501TIP3    H149388   2.759   8.703   6.495
16501TIP3    H249389   2.822   8.829   6.551
16502TIP3   OH249390   4.106   8.101   5.299
16502TIP3    H149391   4.074   8.188   5.276
16502TIP3    H249392   4.037   8.042   5.269
16503TIP3   OH249393   4.108   8.119   5.713
16503TIP3    H149394   4.162   8.101   5.789
16503TIP3    H249395   4.063   8.036   5.694
16504TIP3   OH249396   3.404   7.979   6.055
16504TIP3    H149397   3.444   7.927   6.125
16504TIP3    H249398   3.478   8.003   5.999
16505TIP3   OH249399   4.371   8.430   5.380
16505TIP3    H149400   4.362   8.363   5.447
16505TIP3    H249401   4.393   8.510   5.429
16506TIP3   OH249402   3.404   8.402   5.731
16506TIP3    H149403   3.384   8.309   5.743
16506TIP3    H249404   3.499   8.405   5.731
16507TIP3   OH249405   3.078   7.610   5.526
16507TIP3    H149406   3.040   7.694   5.550
16507TIP3    H249407   3.007   7.562   5.484
16508TIP3   OH249408   3.161   7.924   5.750
16508TIP3    H149409   3.211   7.847   5.775
16508TIP3    H249410   3.228   7.988   5.725
16509TIP3   OH249411   4.029   8.841   5.411
16509TIP3    H149412   4.050   8.783   5.338
16509TIP3    H249413   4.042   8.787   5.489
16510TIP3   OH249414   3.920   8.339   5.717
16510TIP3    H149415   3.966   8.259   5.691
16510TIP3    H249416   3.988   8.397   5.748
16511TIP3   OH249417   4.949   7.658   5.732
16511TIP3    H149418   4.964   7.744   5.771
16511TIP3    H249419   4.977   7.668   5.641
16512TIP3   OH249420   4.317   7.827   5.750
16512TIP3    H149421   4.349   7.741   5.778
16512TIP3    H249422   4.283   7.812   5.662
16513TIP3   OH249423   3.675   7.484   5.707
16513TIP3    H149424   3.655   7.557   5.650
16513TIP3    H249425   3.619   7.413   5.676
16514TIP3   OH249426   4.374   7.589   5.347
16514TIP3    H149427   4.437   7.583   5.419
16514TIP3    H249428   4.424   7.622   5.273
16515TIP3   OH249429   3.300   7.701   5.842
16515TIP3    H149430   3.383   7.683   5.884
16515TIP3    H249431   3.303   7.650   5.760
16516TIP3   OH249432   3.719   7.900   5.656
16516TIP3    H149433   3.813   7.885   5.662
16516TIP3    H249434   3.684   7.818   5.622
16517TIP3   OH249435   5.003   7.881   5.895
16517TIP3    H149436   4.915   7.916   5.892
16517TIP3    H249437   5.041   7.916   5.976
16518TIP3   OH249438   3.655   7.492   6.162
16518TIP3    H149439   3.607   7.527   6.088
16518TIP3    H249440   3.599   7.510   6.238
16519TIP3   OH249441   4.004   8.316   5.161
16519TIP3    H149442   3.964   8.318   5.074
16519TIP3    H249443   4.072   8.383   5.158
16520TIP3   OH249444   3.749   8.264   5.923
16520TIP3    H149445   3.696   8.335   5.958
16520TIP3    H249446   3.800   8.303   5.852
16521TIP3   OH249447   4.528   7.612   5.572
16521TIP3    H149448   4.485   7.591   5.655
16521TIP3    H249449   4.585   7.686   5.592
16522TIP3   OH249450   3.549   7.597   5.929
16522TIP3    H149451   3.604   7.672   5.952
16522TIP3    H249452   3.595   7.554   5.857
16523TIP3   OH249453   3.595   8.464   6.032
16523TIP3    H149454   3.584   8.555   6.004
16523TIP3    H249455   3.517   8.446   6.084
16524TIP3   OH249456   2.971   8.168   5.286
16524TIP3    H149457   2.934   8.191   5.201
16524TIP3    H249458   2.994   8.253   5.326
16525TIP3   OH249459   4.412   8.675   5.523
16525TIP3    H149460   4.324   8.670   5.561
16525TIP3    H249461   4.412   8.759   5.476
16526TIP3   OH249462   4.751   7.549   5.902
16526TIP3    H149463   4.667   7.571   5.863
16526TIP3    H249464   4.816   7.575   5.836
16527TIP3   OH249465   3.999   7.183   5.896
16527TIP3    H149466   3.992   7.091   5.921
16527TIP3    H249467   3.922   7.224   5.935
16528TIP3   OH249468   4.108   8.706   5.189
16528TIP3    H149469   4.151   8.622   5.172
16528TIP3    H249470   4.146   8.766   5.125
16529TIP3   OH249471   4.237   8.465   5.142
16529TIP3    H149472   4.281   8.410   5.078
16529TIP3    H249473   4.287   8.452   5.223
16530TIP3   OH249474   4.645   8.563   5.866
16530TIP3    H149475   4.627   8.488   5.809
16530TIP3    H249476   4.632   8.639   5.810
16531TIP3   OH249477   3.932   7.955   5.136
16531TIP3    H149478   3.856   8.009   5.115
16531TIP3    H249479   3.984   7.953   5.056
16532TIP3   OH249480   3.907   7.773   4.822
16532TIP3    H149481   3.972   7.821   4.873
16532TIP3    H249482   3.957   7.706   4.776
16533TIP3   OH249483   4.823   8.223   5.739
16533TIP3    H149484   4.739   8.268   5.735
16533TIP3    H249485   4.860   8.233   5.651
16534TIP3   OH249486   4.294   8.058   5.102
16534TIP3    H149487   4.238   8.076   5.178
16534TIP3    H249488   4.377   8.028   5.140
16535TIP3   OH249489   4.523   8.081   6.049
16535TIP3    H149490   4.519   8.165   6.095
16535TIP3    H249491   4.442   8.078   5.998
16536TIP3   OH249492   3.524   8.033   5.497
16536TIP3    H149493   3.486   7.969   5.437
16536TIP3    H249494   3.596   7.986   5.540
16537TIP3   OH249495   3.670   8.453   5.647
16537TIP3    H149496   3.646   8.436   5.556
16537TIP3    H249497   3.757   8.416   5.657
16538TIP3   OH249498   3.617   8.028   5.879
16538TIP3    H149499   3.656   7.991   5.800
16538TIP3    H249500   3.665   8.110   5.894
16539TIP3   OH249501   4.174   8.670   5.657
16539TIP3    H149502   4.159   8.749   5.708
16539TIP3    H249503   4.159   8.598   5.719
16540TIP3   OH249504   3.792   8.562   6.203
16540TIP3    H149505   3.732   8.621   6.249
16540TIP3    H249506   3.736   8.511   6.144
16541TIP3   OH249507   4.125   7.915   4.935
16541TIP3    H149508   4.185   7.973   4.983
16541TIP3    H249509   4.154   7.921   4.844
16542TIP3   OH249510   3.542   8.105   6.356
16542TIP3    H149511   3.548   8.200   6.370
16542TIP3    H249512   3.449   8.088   6.346
16543TIP3   OH249513   3.587   8.724   6.291
16543TIP3    H149514   3.561   8.734   6.200
16543TIP3    H249515   3.506   8.705   6.338
16544TIP3   OH249516   4.636   7.141   4.994
16544TIP3    H149517   4.560   7.163   5.047
16544TIP3    H249518   4.647   7.216   4.935
16545TIP3   OH249519   3.396   7.873   5.301
16545TIP3    H149520   3.319   7.922   5.273
16545TIP3    H249521   3.366   7.784   5.314
16546TIP3   OH249522   4.463   8.528   4.534
16546TIP3    H149523   4.468   8.621   4.515
16546TIP3    H249524   4.552   8.495   4.517
16547TIP3   OH249525   3.179   8.281   6.240
16547TIP3    H149526   3.109   8.265   6.177
16547TIP3    H249527   3.212   8.194   6.262
16548TIP3   OH249528   3.020   8.483   5.902
16548TIP3    H149529   3.107   8.515   5.928
16548TIP3    H249530   2.962   8.556   5.919
16549TIP3   OH249531   4.880   8.927   5.940
16549TIP3    H149532   4.885   8.832   5.952
16549TIP3    H249533   4.800   8.953   5.985
16550TIP3   OH249534   3.983   8.703   6.065
16550TIP3    H149535   3.976   8.794   6.093
16550TIP3    H249536   3.913   8.657   6.112
16551TIP3   OH249537   3.201   8.644   5.395
16551TIP3    H149538   3.243   8.645   5.481
16551TIP3    H249539   3.149   8.564   5.393
16552TIP3   OH249540   4.069   8.724   4.643
16552TIP3    H149541   4.066   8.644   4.696
16552TIP3    H249542   4.123   8.784   4.694
16553TIP3   OH249543   4.765   8.040   6.209
16553TIP3    H149544   4.684   8.047   6.160
16553TIP3    H249545   4.785   7.946   6.209
16554TIP3   OH249546   3.379   8.468   6.204
16554TIP3    H149547   3.427   8.458   6.286
16554TIP3    H249548   3.306   8.406   6.211
16555TIP3   OH249549   3.761   7.272   6.024
16555TIP3    H149550   3.678   7.239   5.990
16555TIP3    H249551   3.738   7.354   6.068
16556TIP3   OH249552   4.301   7.399   6.223
16556TIP3    H149553   4.371   7.374   6.283
16556TIP3    H249554   4.220   7.382   6.272
16557TIP3   OH249555   4.525   7.815   6.138
16557TIP3    H149556   4.485   7.812   6.225
16557TIP3    H249557   4.510   7.905   6.108
16558TIP3   OH249558   4.205   7.910   4.676
16558TIP3    H149559   4.156   7.906   4.593
16558TIP3    H249560   4.286   7.955   4.653
16559TIP3   OH249561   3.912   7.312   4.990
16559TIP3    H149562   3.873   7.320   5.077
16559TIP3    H249563   3.876   7.231   4.955
16560TIP3   OH249564   3.700   7.808   6.028
16560TIP3    H149565   3.654   7.815   6.112
16560TIP3    H249566   3.678   7.889   5.982
16561TIP3   OH249567   3.578   7.686   5.549
16561TIP3    H149568   3.489   7.663   5.574
16561TIP3    H249569   3.587   7.654   5.459
16562TIP3   OH249570   4.058   7.754   5.274
16562TIP3    H149571   4.008   7.824   5.232
16562TIP3    H249572   4.118   7.722   5.206
16563TIP3   OH249573   4.244   8.025   6.347
16563TIP3    H149574   4.219   7.957   6.410
16563TIP3    H249575   4.337   8.041   6.366
16564TIP3   OH249576   4.227   7.775   5.497
16564TIP3    H149577   4.159   7.796   5.434
16564TIP3    H249578   4.274   7.702   5.458
16565TIP3   OH249579   3.539   7.826   6.250
16565TIP3    H149580   3.545   7.892   6.318
16565TIP3    H249581   3.519   7.745   6.296
16566TIP3   OH249582   3.580   7.295   4.967
16566TIP3    H149583   3.570   7.301   5.062
16566TIP3    H249584   3.502   7.337   4.931
16567TIP3   OH249585   3.127   7.339   5.834
16567TIP3    H149586   3.199   7.377   5.884
16567TIP3    H249587   3.162   7.329   5.745
16568TIP3   OH249588   3.028   7.317   5.331
16568TIP3    H149589   3.072   7.353   5.254
16568TIP3    H249590   2.964   7.385   5.355
16569TIP3   OH249591   4.274   8.029   5.925
16569TIP3    H149592   4.297   7.962   5.860
16569TIP3    H249593   4.228   7.981   5.994
16570TIP3   OH249594   3.945   7.471   5.599
16570TIP3    H149595   3.867   7.472   5.655
16570TIP3    H249596   4.018   7.463   5.661
16571TIP3   OH249597   3.338   7.562   5.608
16571TIP3    H149598   3.250   7.567   5.570
16571TIP3    H249599   3.367   7.473   5.591
16572TIP3   OH249600   3.591   7.565   5.302
16572TIP3    H149601   3.686   7.574   5.293
16572TIP3    H249602   3.557   7.582   5.215
16573TIP3   OH249603   4.385   7.565   5.810
16573TIP3    H149604   4.367   7.582   5.902
16573TIP3    H249605   4.317   7.503   5.783
16574TIP3   OH249606   3.483   7.588   5.052
16574TIP3    H149607   3.421   7.538   4.999
16574TIP3    H249608   3.536   7.635   4.988
16575TIP3   OH249609   7.862   0.025   6.030
16575TIP3    H149610   7.861   0.033   5.934
16575TIP3    H249611   7.939   0.075   6.057
16576TIP3   OH249612   3.530   8.374   6.440
16576TIP3    H149613   3.610   8.397   6.486
16576TIP3    H249614   3.460   8.389   6.504
16577TIP3   OH249615   3.992   7.849   5.706
16577TIP3    H149616   4.059   7.801   5.657
16577TIP3    H249617   3.991   7.807   5.792
16578TIP3   OH249618   3.480   7.313   5.589
16578TIP3    H149619   3.453   7.237   5.641
16578TIP3    H249620   3.496   7.278   5.502
16579TIP3   OH249621   3.965   7.749   5.970
16579TIP3    H149622   3.878   7.782   5.994
16579TIP3    H249623   4.026   7.802   6.022
16580TIP3   OH249624   3.712   8.114   5.071
16580TIP3    H149625   3.641   8.054   5.046
16580TIP3    H249626   3.683   8.152   5.154
16581TIP3   OH249627   4.589   8.360   5.687
16581TIP3    H149628   4.625   8.409   5.613
16581TIP3    H249629   4.510   8.319   5.652
16582TIP3   OH249630   4.165   7.415   4.998
16582TIP3    H149631   4.072   7.394   4.991
16582TIP3    H249632   4.167   7.510   5.005
16583TIP3   OH249633   4.110   8.443   6.105
16583TIP3    H149634   4.160   8.435   6.186
16583TIP3    H249635   4.069   8.529   6.110
16584TIP3   OH249636   4.224   7.682   5.060
16584TIP3    H149637   4.319   7.685   5.069
16584TIP3    H249638   4.202   7.759   5.006
16585TIP3   OH249639   3.388   8.111   5.728
16585TIP3    H149640   3.427   8.096   5.642
16585TIP3    H249641   3.455   8.083   5.790
16586TIP3   OH249642   3.867   8.283   4.910
16586TIP3    H149643   3.803   8.340   4.867
16586TIP3    H249644   3.814   8.224   4.963
16587TIP3   OH249645   3.268   8.041   6.366
16587TIP3    H149646   3.266   8.012   6.457
16587TIP3    H249647   3.193   7.998   6.325
16588TIP3   OH249648   4.015   8.182   6.392
16588TIP3    H149649   3.944   8.124   6.364
16588TIP3    H249650   4.095   8.140   6.360
16589TIP3   OH249651   4.254   8.731   5.992
16589TIP3    H149652   4.159   8.717   5.994
16589TIP3    H249653   4.274   8.767   6.079
16590TIP3   OH249654   4.634   7.776   4.875
16590TIP3    H149655   4.576   7.731   4.813
16590TIP3    H249656   4.641   7.865   4.840
16591TIP3   OH249657   4.890   8.649   5.958
16591TIP3    H149658   4.796   8.631   5.953
16591TIP3    H249659   4.925   8.617   5.875
16592TIP3   OH249660   4.350   8.579   4.785
16592TIP3    H149661   4.326   8.498   4.830
16592TIP3    H249662   4.387   8.549   4.701
16593TIP3   OH249663   4.362   8.224   5.581
16593TIP3    H149664   4.272   8.203   5.608
16593TIP3    H249665   4.396   8.143   5.545
16594TIP3   OH249666   3.511   8.451   5.411
16594TIP3    H149667   3.497   8.526   5.352
16594TIP3    H249668   3.434   8.451   5.468
16595TIP3   OH249669   3.080   7.743   5.119
16595TIP3    H149670   3.120   7.827   5.140
16595TIP3    H249671   2.997   7.743   5.167
16596TIP3   OH249672   3.579   8.214   5.288
16596TIP3    H149673   3.565   8.300   5.328
16596TIP3    H249674   3.563   8.152   5.360
16597TIP3   OH249675   3.800   8.783   5.858
16597TIP3    H149676   3.832   8.859   5.808
16597TIP3    H249677   3.877   8.752   5.905
16598TIP3   OH249678   3.429   8.661   5.242
16598TIP3    H149679   3.343   8.667   5.286
16598TIP3    H249680   3.468   8.747   5.256
16599TIP3   OH249681   4.150   8.449   5.831
16599TIP3    H149682   4.136   8.444   5.926
16599TIP3    H249683   4.228   8.396   5.816
16600TIP3   OH249684   4.145   8.333   4.746
16600TIP3    H149685   4.204   8.307   4.817
16600TIP3    H249686   4.058   8.308   4.778
16601TIP3   OH249687   4.412   8.931   5.870
16601TIP3    H149688   4.342   8.870   5.894
16601TIP3    H249689   4.375   8.984   5.800
16602TIP3   OH249690   4.471   8.803   4.519
16602TIP3    H149691   4.525   8.876   4.488
16602TIP3    H249692   4.391   8.845   4.551
16603TIP3   OH249693   3.482   7.572   6.367
16603TIP3    H149694   3.387   7.582   6.371
16603TIP3    H249695   3.504   7.521   6.445
16604TIP3   OH249696   4.331   8.284   4.946
16604TIP3    H149697   4.312   8.206   4.998
16604TIP3    H249698   4.424   8.275   4.923
16605TIP3   OH249699   3.223   8.663   6.008
16605TIP3    H149700   3.281   8.615   6.067
16605TIP3    H249701   3.232   8.754   6.035
16606TIP3   OH249702   3.487   8.282   4.732
16606TIP3    H149703   3.523   8.204   4.691
16606TIP3    H249704   3.477   8.259   4.825
16607TIP3   OH249705   3.454   8.288   5.014
16607TIP3    H149706   3.492   8.236   5.085
16607TIP3    H249707   3.491   8.376   5.025
16608TIP3   OH249708   3.171   7.996   5.196
16608TIP3    H149709   3.104   8.042   5.247
16608TIP3    H249710   3.189   8.055   5.123
16609TIP3   OH249711   4.330   7.628   6.072
16609TIP3    H149712   4.409   7.672   6.103
16609TIP3    H249713   4.322   7.552   6.129
16610TIP3   OH249714   4.225   7.368   5.264
16610TIP3    H149715   4.203   7.386   5.173
16610TIP3    H249716   4.268   7.448   5.294
16611TIP3   OH249717   3.870   7.567   5.349
16611TIP3    H149718   3.933   7.634   5.322
16611TIP3    H249719   3.895   7.546   5.439
16612TIP3   OH249720   4.171   7.863   6.120
16612TIP3    H149721   4.197   7.905   6.202
16612TIP3    H249722   4.221   7.782   6.119
16613TIP3   OH249723   4.035   7.261   5.435
16613TIP3    H149724   4.011   7.337   5.487
16613TIP3    H249725   4.106   7.291   5.378
16614TIP3   OH249726   3.471   8.579   4.986
16614TIP3    H149727   3.383   8.550   4.964
16614TIP3    H249728   3.466   8.608   5.077
16615TIP3   OH249729   3.547   7.291   5.247
16615TIP3    H149730   3.536   7.382   5.273
16615TIP3    H249731   3.641   7.276   5.253
16616TIP3   OH249732   4.791   7.763   6.118
16616TIP3    H149733   4.696   7.771   6.129
16616TIP3    H249734   4.801   7.707   6.041
16617TIP3   OH249735   4.452   7.965   5.497
16617TIP3    H149736   4.375   7.908   5.508
16617TIP3    H249737   4.519   7.925   5.553
16618TIP3   OH249738   3.197   8.177   4.983
16618TIP3    H149739   3.273   8.234   4.996
16618TIP3    H249740   3.226   8.114   4.917
16619TIP3   OH249741   3.097   7.465   5.111
16619TIP3    H149742   3.111   7.559   5.121
16619TIP3    H249743   3.038   7.457   5.035
16620TIP3   OH249744   4.437   8.939   5.433
16620TIP3    H149745   4.389   8.977   5.360
16620TIP3    H249746   4.527   8.970   5.422
16621TIP3   OH249747   3.501   7.186   5.977
16621TIP3    H149748   3.471   7.156   5.891
16621TIP3    H249749   3.492   7.109   6.034
16622TIP3   OH249750   3.020   8.430   5.377
16622TIP3    H149751   2.979   8.467   5.455
16622TIP3    H249752   2.977   8.475   5.304
16623TIP3   OH249753   3.212   8.949   6.457
16623TIP3    H149754   3.298   8.951   6.499
16623TIP3    H249755   3.187   8.857   6.458
16624TIP3   OH249756   3.694   8.886   6.487
16624TIP3    H149757   3.786   8.858   6.493
16624TIP3    H249758   3.658   8.834   6.415
16625TIP3   OH249759   3.686   8.474   4.701
16625TIP3    H149760   3.628   8.398   4.695
16625TIP3    H249761   3.734   8.474   4.618
16626TIP3   OH249762   4.311   8.826   6.244
16626TIP3    H149763   4.327   8.756   6.307
16626TIP3    H249764   4.385   8.885   6.253
16627TIP3   OH249765   3.325   8.380   6.632
16627TIP3    H149766   3.341   8.286   6.643
16627TIP3    H249767   3.240   8.385   6.589
16628TIP3   OH249768   3.314   7.985   4.831
16628TIP3    H149769   3.369   7.961   4.905
16628TIP3    H249770   3.375   7.994   4.758
16629TIP3   OH249771   3.947   8.459   6.406
16629TIP3    H149772   3.903   8.480   6.324
16629TIP3    H249773   3.983   8.371   6.392
16630TIP3   OH249774   3.760   8.176   4.667
16630TIP3    H149775   3.824   8.188   4.737
16630TIP3    H249776   3.782   8.091   4.629
16631TIP3   OH249777   4.423   8.508   6.023
16631TIP3    H149778   4.500   8.536   5.973
16631TIP3    H249779   4.359   8.577   6.008
16632TIP3   OH249780   3.441   8.125   6.643
16632TIP3    H149781   3.512   8.111   6.580
16632TIP3    H249782   3.486   8.146   6.725
16633TIP3   OH249783   3.500   7.933   5.038
16633TIP3    H149784   3.476   7.899   5.124
16633TIP3    H249785   3.545   7.859   4.995
16634TIP3   OH249786   3.807   8.010   6.300
16634TIP3    H149787   3.719   8.048   6.310
16634TIP3    H249788   3.835   8.038   6.213
16635TIP3   OH249789   3.634   7.745   4.882
16635TIP3    H149790   3.602   7.746   4.792
16635TIP3    H249791   3.729   7.751   4.874
16636TIP3   OH249792   4.304   8.380   6.372
16636TIP3    H149793   4.372   8.343   6.316
16636TIP3    H249794   4.301   8.323   6.449
16637TIP3   OH249795   4.420   8.043   4.561
16637TIP3    H149796   4.407   8.002   4.475
16637TIP3    H249797   4.390   8.134   4.549
16638TIP3   OH249798   3.907   7.776   6.404
16638TIP3    H149799   3.909   7.706   6.338
16638TIP3    H249800   3.874   7.852   6.357
16639TIP3   OH249801   3.915   7.578   6.199
16639TIP3    H149802   3.943   7.615   6.116
16639TIP3    H249803   3.824   7.551   6.185
16640TIP3   OH249804   3.916   8.103   6.070
16640TIP3    H149805   4.005   8.137   6.057
16640TIP3    H249806   3.861   8.162   6.018
16641TIP3   OH249807   4.513   8.062   6.444
16641TIP3    H149808   4.553   7.976   6.448
16641TIP3    H249809   4.587   8.122   6.431
16642TIP3   OH249810   4.542   8.328   6.188
16642TIP3    H149811   4.490   8.391   6.137
16642TIP3    H249812   4.632   8.341   6.157
16643TIP3   OH249813   3.795   7.857   6.651
16643TIP3    H149814   3.723   7.796   6.669
16643TIP3    H249815   3.821   7.837   6.561
16644TIP3   OH249816   4.035   7.347   6.304
16644TIP3    H149817   3.995   7.426   6.269
16644TIP3    H249818   3.969   7.279   6.289
16645TIP3   OH249819   4.164   7.814   6.505
16645TIP3    H149820   4.153   7.801   6.599
16645TIP3    H249821   4.078   7.794   6.468
16646TIP3   OH249822   4.413   7.774   6.379
16646TIP3    H149823   4.333   7.772   6.432
16646TIP3    H249824   4.482   7.747   6.438
16647TIP3   OH249825   4.644   7.732   6.529
16647TIP3    H149826   4.659   7.638   6.535
16647TIP3    H249827   4.641   7.762   6.620
16648TIP3   OH249828   3.623   7.637   6.710
16648TIP3    H149829   3.630   7.549   6.672
16648TIP3    H249830   3.663   7.629   6.796
16649TIP3   OH249831   4.101   7.322   6.569
16649TIP3    H149832   4.170   7.256   6.562
16649TIP3    H249833   4.071   7.335   6.479
16650TIP3   OH249834   4.200   7.534   6.715
16650TIP3    H149835   4.170   7.462   6.660
16650TIP3    H249836   4.128   7.597   6.714
16651TIP3   OH249837   3.451   8.801   4.786
16651TIP3    H149838   3.435   8.819   4.694
16651TIP3    H249839   3.421   8.880   4.832
16652TIP3   OH249840   2.922   8.175   4.986
16652TIP3    H149841   3.018   8.184   4.989
16652TIP3    H249842   2.907   8.087   4.952
16653TIP3   OH249843   2.833   8.730   5.453
16653TIP3    H149844   2.764   8.678   5.410
16653TIP3    H249845   2.874   8.668   5.514
16654TIP3   OH249846   2.973   8.569   5.627
16654TIP3    H149847   2.969   8.504   5.698
16654TIP3    H249848   3.021   8.642   5.665
16655TIP3   OH249849   4.694   9.040   5.427
16655TIP3    H149850   4.727   9.028   5.516
16655TIP3    H249851   4.772   9.035   5.371
16656TIP3   OH249852   4.751   9.005   5.699
16656TIP3    H149853   4.695   8.927   5.695
16656TIP3    H249854   4.807   8.990   5.775
16657TIP3   OH249855   4.781   8.721   6.284
16657TIP3    H149856   4.709   8.731   6.346
16657TIP3    H249857   4.827   8.805   6.288
16658TIP3   OH249858   4.600   8.241   4.899
16658TIP3    H149859   4.660   8.307   4.865
16658TIP3    H249860   4.648   8.199   4.970
16659TIP3   OH249861   4.728   8.094   5.096
16659TIP3    H149862   4.661   8.056   5.152
16659TIP3    H249863   4.793   8.129   5.157
16660TIP3   OH249864   4.775   8.496   5.525
16660TIP3    H149865   4.826   8.422   5.493
16660TIP3    H249866   4.790   8.565   5.460
16661TIP3   OH249867   4.585   8.784   5.713
16661TIP3    H149868   4.520   8.829   5.766
16661TIP3    H249869   4.535   8.744   5.642
16662TIP3   OH249870   4.630   8.017   4.738
16662TIP3    H149871   4.559   8.018   4.674
16662TIP3    H249872   4.615   8.095   4.792
16663TIP3   OH249873   4.477   7.664   4.681
16663TIP3    H149874   4.432   7.698   4.604
16663TIP3    H249875   4.471   7.569   4.673
16664TIP3   OH249876   4.521   7.955   5.228
16664TIP3    H149877   4.527   7.861   5.213
16664TIP3    H249878   4.503   7.964   5.322
16665TIP3   OH249879   3.140   8.016   6.006
16665TIP3    H149880   3.130   7.987   5.916
16665TIP3    H249881   3.234   8.013   6.023
16666TIP3   OH249882   4.800   8.370   6.092
16666TIP3    H149883   4.867   8.303   6.078
16666TIP3    H249884   4.813   8.433   6.021
16667TIP3   OH249885   4.979   8.159   6.085
16667TIP3    H149886   4.905   8.118   6.130
16667TIP3    H249887   5.054   8.103   6.105
16668TIP3   OH249888   4.444   7.394   4.655
16668TIP3    H149889   4.511   7.363   4.717
16668TIP3    H249890   4.364   7.352   4.685
16669TIP3   OH249891   4.515   7.680   5.116
16669TIP3    H149892   4.561   7.597   5.129
16669TIP3    H249893   4.555   7.718   5.038
16670TIP3   OH249894   4.666   7.845   5.641
16670TIP3    H149895   4.747   7.862   5.592
16670TIP3    H249896   4.682   7.884   5.727
16671TIP3   OH249897   4.742   7.993   5.870
16671TIP3    H149898   4.670   8.022   5.926
16671TIP3    H249899   4.773   8.073   5.828
16672TIP3   OH249900   3.359   7.695   6.647
16672TIP3    H149901   3.453   7.692   6.666
16672TIP3    H249902   3.325   7.615   6.685
16673TIP3   OH249903   5.202   7.589   6.405
16673TIP3    H149904   5.270   7.535   6.364
16673TIP3    H249905   5.164   7.639   6.334
16674TIP3   OH249906   4.631   7.432   5.169
16674TIP3    H149907   4.677   7.416   5.252
16674TIP3    H249908   4.569   7.359   5.162
16675TIP3   OH249909   3.340   7.413   5.997
16675TIP3    H149910   3.393   7.333   6.001
16675TIP3    H249911   3.402   7.483   5.977
16676TIP3   OH249912   3.115   7.675   6.057
16676TIP3    H149913   3.167   7.665   5.977
16676TIP3    H249914   3.134   7.764   6.087
16677TIP3   OH249915   5.051   7.703   6.206
16677TIP3    H149916   4.965   7.742   6.221
16677TIP3    H249917   5.033   7.624   6.155
16678TIP3   OH249918   4.674   7.339   4.806
16678TIP3    H149919   4.722   7.280   4.749
16678TIP3    H249920   4.727   7.418   4.810
16679TIP3   OH249921   3.105   7.188   5.559
16679TIP3    H149922   3.020   7.175   5.600
16679TIP3    H249923   3.086   7.240   5.481
16680TIP3   OH249924   4.223   8.904   5.032
16680TIP3    H149925   4.297   8.881   4.976
16680TIP3    H249926   4.262   8.952   5.105
16681TIP3   OH249927   3.328   7.225   6.377
16681TIP3    H149928   3.281   7.228   6.461
16681TIP3    H249929   3.277   7.281   6.319
16682TIP3   OH249930   3.369   8.679   6.458
16682TIP3    H149931   3.275   8.668   6.446
16682TIP3    H249932   3.381   8.680   6.553
16683TIP3   OH249933   3.575   8.738   6.009
16683TIP3    H149934   3.519   8.806   5.972
16683TIP3    H249935   3.660   8.751   5.965
16684TIP3   OH249936   3.978   8.966   6.143
16684TIP3    H149937   4.017   8.963   6.230
16684TIP3    H249938   4.036   9.023   6.092
16685TIP3   OH249939   4.156   9.127   6.010
16685TIP3    H149940   4.210   9.075   5.950
16685TIP3    H249941   4.220   9.173   6.065
16686TIP3   OH249942   4.968   7.455   6.102
16686TIP3    H149943   4.882   7.449   6.059
16686TIP3    H249944   5.004   7.367   6.096
16687TIP3   OH249945   3.225   8.942   6.037
16687TIP3    H149946   3.135   8.967   6.015
16687TIP3    H249947   3.250   9.003   6.107
16688TIP3   OH249948   3.457   8.952   5.892
16688TIP3    H149949   3.372   8.955   5.937
16688TIP3    H249950   3.437   8.984   5.803
16689TIP3   OH249951   3.875   8.994   5.694
16689TIP3    H149952   3.812   9.004   5.622
16689TIP3    H249953   3.881   9.081   5.733
16690TIP3   OH249954   4.135   8.927   5.753
16690TIP3    H149955   4.045   8.948   5.728
16690TIP3    H249956   4.188   8.987   5.701
16691TIP3   OH249957   4.340   9.082   5.647
16691TIP3    H149958   4.338   9.172   5.613
16691TIP3    H249959   4.371   9.030   5.573
16692TIP3   OH249960   3.137   8.761   5.754
16692TIP3    H149961   3.156   8.737   5.845
16692TIP3    H249962   3.214   8.730   5.705
16693TIP3   OH249963   3.349   8.646   5.627
16693TIP3    H149964   3.360   8.563   5.673
16693TIP3    H249965   3.434   8.689   5.634
16694TIP3   OH249966   3.614   8.729   5.656
16694TIP3    H149967   3.637   8.637   5.643
16694TIP3    H249968   3.669   8.757   5.729
16695TIP3   OH249969   4.171   7.382   5.743
16695TIP3    H149970   4.130   7.311   5.793
16695TIP3    H249971   4.239   7.339   5.691
16696TIP3   OH249972   4.670   7.295   5.625
16696TIP3    H149973   4.709   7.344   5.552
16696TIP3    H249974   4.579   7.324   5.627
16697TIP3   OH249975   4.788   7.376   5.391
16697TIP3    H149976   4.856   7.314   5.366
16697TIP3    H249977   4.828   7.462   5.379
16698TIP3   OH249978   3.412   7.085   5.736
16698TIP3    H149979   3.323   7.052   5.746
16698TIP3    H249980   3.466   7.007   5.726
16699TIP3   OH249981   3.249   6.998   5.401
16699TIP3    H149982   3.267   7.044   5.319
16699TIP3    H249983   3.205   7.063   5.456
16700TIP3   OH249984   3.898   7.113   5.636
16700TIP3    H149985   3.941   7.162   5.565
16700TIP3    H249986   3.937   7.148   5.716
16701TIP3   OH249987   4.380   7.257   5.614
16701TIP3    H149988   4.399   7.222   5.527
16701TIP3    H249989   4.392   7.182   5.673
16702TIP3   OH249990   4.446   7.220   5.177
16702TIP3    H149991   4.366   7.268   5.203
16702TIP3    H249992   4.434   7.133   5.215
16703TIP3   OH249993   2.909   8.548   5.156
16703TIP3    H149994   2.824   8.515   5.126
16703TIP3    H249995   2.913   8.637   5.121
16704TIP3   OH249996   3.340   7.120   5.154
16704TIP3    H149997   3.386   7.061   5.095
16704TIP3    H249998   3.409   7.177   5.188
16705TIP3   OH249999   3.822   7.315   5.253
16705TIP3    H150000   3.883   7.263   5.306
16705TIP3    H250001   3.837   7.406   5.281
16706TIP3   OH250002   3.747   8.721   4.786
16706TIP3    H150003   3.815   8.785   4.764
16706TIP3    H250004   3.767   8.645   4.732
16707TIP3   OH250005   4.417   8.837   4.845
16707TIP3    H150006   4.403   8.743   4.834
16707TIP3    H250007   4.381   8.876   4.766
16708TIP3   OH250008   3.640   7.366   6.617
16708TIP3    H150009   3.607   7.301   6.678
16708TIP3    H250010   3.733   7.375   6.640
16709TIP3   OH250011   3.886   7.374   6.744
16709TIP3    H150012   3.963   7.353   6.692
16709TIP3    H250013   3.882   7.305   6.810
16710TIP3   OH250014   3.019   8.550   4.794
16710TIP3    H150015   3.009   8.556   4.889
16710TIP3    H250016   3.100   8.502   4.782
16711TIP3   OH250017   4.710   7.462   6.530
16711TIP3    H150018   4.728   7.432   6.619
16711TIP3    H250019   4.794   7.458   6.485
16712TIP3   OH250020   4.630   8.992   6.033
16712TIP3    H150021   4.555   8.961   5.981
16712TIP3    H250022   4.617   9.086   6.041
16713TIP3   OH250023   5.904   8.376   4.775
16713TIP3    H150024   5.868   8.463   4.759
16713TIP3    H250025   5.835   8.316   4.748
16714TIP3   OH250026   5.900   8.377   5.202
16714TIP3    H150027   5.956   8.358   5.277
16714TIP3    H250028   5.857   8.293   5.183
16715TIP3   OH250029   5.198   8.232   5.546
16715TIP3    H150030   5.238   8.180   5.617
16715TIP3    H250031   5.272   8.256   5.490
16716TIP3   OH250032   6.173   8.683   4.870
16716TIP3    H150033   6.160   8.616   4.937
16716TIP3    H250034   6.192   8.763   4.919
16717TIP3   OH250035   5.174   8.659   5.241
16717TIP3    H150036   5.163   8.564   5.236
16717TIP3    H250037   5.268   8.673   5.232
16718TIP3   OH250038   4.874   7.866   5.012
16718TIP3    H150039   4.836   7.951   5.036
16718TIP3    H250040   4.802   7.819   4.970
16719TIP3   OH250041   4.956   8.178   5.240
16719TIP3    H150042   5.006   8.100   5.264
16719TIP3    H250043   5.022   8.241   5.212
16720TIP3   OH250044   5.841   9.091   4.898
16720TIP3    H150045   5.858   9.031   4.825
16720TIP3    H250046   5.862   9.040   4.976
16721TIP3   OH250047   5.704   8.597   5.204
16721TIP3    H150048   5.750   8.519   5.174
16721TIP3    H250049   5.774   8.657   5.232
16722TIP3   OH250050   6.748   7.914   5.220
16722TIP3    H150051   6.763   7.999   5.261
16722TIP3    H250052   6.775   7.927   5.129
16723TIP3   OH250053   6.112   8.083   5.237
16723TIP3    H150054   6.145   7.998   5.265
16723TIP3    H250055   6.077   8.068   5.149
16724TIP3   OH250056   5.470   7.740   5.196
16724TIP3    H150057   5.450   7.813   5.138
16724TIP3    H250058   5.415   7.668   5.164
16725TIP3   OH250059   6.170   7.846   4.835
16725TIP3    H150060   6.233   7.840   4.906
16725TIP3    H250061   6.220   7.880   4.761
16726TIP3   OH250062   5.095   7.955   5.327
16726TIP3    H150063   5.179   7.937   5.370
16726TIP3    H250064   5.098   7.904   5.246
16727TIP3   OH250065   5.512   8.156   5.147
16727TIP3    H150066   5.606   8.143   5.152
16727TIP3    H250067   5.478   8.074   5.111
16728TIP3   OH250068   6.800   8.136   5.384
16728TIP3    H150069   6.712   8.173   5.378
16728TIP3    H250070   6.836   8.173   5.465
16729TIP3   OH250071   5.453   7.746   5.648
16729TIP3    H150072   5.403   7.782   5.574
16729TIP3    H250073   5.398   7.762   5.724
16730TIP3   OH250074   5.760   8.583   4.669
16730TIP3    H150075   5.741   8.567   4.577
16730TIP3    H250076   5.722   8.669   4.687
16731TIP3   OH250077   5.546   8.517   5.414
16731TIP3    H150078   5.495   8.590   5.448
16731TIP3    H250079   5.596   8.554   5.342
16732TIP3   OH250080   6.325   7.868   5.059
16732TIP3    H150081   6.283   7.847   5.142
16732TIP3    H250082   6.382   7.943   5.079
16733TIP3   OH250083   5.343   7.852   5.417
16733TIP3    H150084   5.398   7.927   5.439
16733TIP3    H250085   5.389   7.809   5.345
16734TIP3   OH250086   5.394   8.722   5.520
16734TIP3    H150087   5.380   8.812   5.491
16734TIP3    H250088   5.316   8.701   5.572
16735TIP3   OH250089   4.770   8.424   4.777
16735TIP3    H150090   4.741   8.443   4.688
16735TIP3    H250091   4.795   8.509   4.812
16736TIP3   OH250092   6.201   8.929   5.015
16736TIP3    H150093   6.111   8.926   5.047
16736TIP3    H250094   6.206   9.012   4.966
16737TIP3   OH250095   6.549   7.803   5.388
16737TIP3    H150096   6.464   7.824   5.350
16737TIP3    H250097   6.613   7.830   5.322
16738TIP3   OH250098   5.795   7.437   5.383
16738TIP3    H150099   5.788   7.345   5.408
16738TIP3    H250100   5.717   7.478   5.421
16739TIP3   OH250101   5.914   8.954   4.667
16739TIP3    H150102   5.966   8.874   4.655
16739TIP3    H250103   5.973   9.025   4.641
16740TIP3   OH250104   6.069   8.738   4.619
16740TIP3    H150105   6.082   8.665   4.559
16740TIP3    H250106   6.108   8.710   4.701
16741TIP3   OH250107   6.436   8.819   5.356
16741TIP3    H150108   6.421   8.744   5.297
16741TIP3    H250109   6.423   8.896   5.300
16742TIP3   OH250110   5.728   8.217   4.625
16742TIP3    H150111   5.647   8.264   4.607
16742TIP3    H250112   5.776   8.218   4.542
16743TIP3   OH250113   5.701   8.030   4.312
16743TIP3    H150114   5.766   8.078   4.362
16743TIP3    H250115   5.751   7.963   4.265
16744TIP3   OH250116   6.619   8.479   5.226
16744TIP3    H150117   6.535   8.525   5.224
16744TIP3    H250118   6.655   8.491   5.138
16745TIP3   OH250119   6.089   8.316   4.583
16745TIP3    H150120   6.034   8.340   4.657
16745TIP3    H250121   6.173   8.289   4.623
16746TIP3   OH250122   6.319   8.338   5.537
16746TIP3    H150123   6.316   8.422   5.582
16746TIP3    H250124   6.238   8.334   5.485
16747TIP3   OH250125   5.313   8.287   4.995
16747TIP3    H150126   5.278   8.227   4.929
16747TIP3    H250127   5.386   8.241   5.034
16748TIP3   OH250128   5.442   8.710   5.142
16748TIP3    H150129   5.417   8.698   5.051
16748TIP3    H250130   5.530   8.673   5.149
16749TIP3   OH250131   5.408   8.286   5.368
16749TIP3    H150132   5.447   8.248   5.289
16749TIP3    H250133   5.459   8.365   5.384
16750TIP3   OH250134   5.952   8.930   5.132
16750TIP3    H150135   5.950   9.008   5.188
16750TIP3    H250136   5.943   8.857   5.192
16751TIP3   OH250137   5.590   8.823   5.690
16751TIP3    H150138   5.528   8.880   5.735
16751TIP3    H250139   5.536   8.769   5.632
16752TIP3   OH250140   5.921   8.171   4.419
16752TIP3    H150141   5.980   8.229   4.466
16752TIP3    H250142   5.949   8.175   4.328
16753TIP3   OH250143   5.341   8.374   5.838
16753TIP3    H150144   5.342   8.468   5.854
16753TIP3    H250145   5.248   8.352   5.829
16754TIP3   OH250146   5.661   8.842   4.684
16754TIP3    H150147   5.748   8.882   4.687
16754TIP3    H250148   5.611   8.899   4.627
16755TIP3   OH250149   5.379   8.981   5.772
16755TIP3    H150150   5.353   8.990   5.680
16755TIP3    H250151   5.296   8.965   5.818
16756TIP3   OH250152   6.431   7.398   4.480
16756TIP3    H150153   6.355   7.420   4.534
16756TIP3    H250154   6.442   7.473   4.422
16757TIP3   OH250155   5.193   8.128   4.794
16757TIP3    H150156   5.115   8.174   4.762
16757TIP3    H250157   5.164   8.037   4.804
16758TIP3   OH250158   6.259   8.776   4.031
16758TIP3    H150159   6.255   8.869   4.006
16758TIP3    H250160   6.349   8.749   4.010
16759TIP3   OH250161   4.972   8.538   5.723
16759TIP3    H150162   4.903   8.518   5.660
16759TIP3    H250163   5.005   8.453   5.750
16760TIP3   OH250164   4.891   8.698   5.355
16760TIP3    H150165   4.974   8.674   5.314
16760TIP3    H250166   4.915   8.765   5.419
16761TIP3   OH250167   6.673   9.175   5.425
16761TIP3    H150168   6.676   9.080   5.439
16761TIP3    H250169   6.593   9.204   5.469
16762TIP3   OH250170   5.778   8.965   5.548
16762TIP3    H150171   5.772   9.055   5.578
16762TIP3    H250172   5.711   8.918   5.599
16763TIP3   OH250173   5.562   9.035   4.505
16763TIP3    H150174   5.524   9.024   4.418
16763TIP3    H250175   5.534   9.122   4.533
16764TIP3   OH250176   4.999   8.906   4.893
16764TIP3    H150177   5.043   8.901   4.977
16764TIP3    H250178   4.952   8.823   4.885
16765TIP3   OH250179   5.762   8.993   4.132
16765TIP3    H150180   5.812   8.920   4.096
16765TIP3    H250181   5.799   9.007   4.219
16766TIP3   OH250182   5.818   9.031   4.401
16766TIP3    H150183   5.733   9.029   4.444
16766TIP3    H250184   5.879   8.995   4.465
16767TIP3   OH250185   6.560   8.297   5.697
16767TIP3    H150186   6.479   8.306   5.647
16767TIP3    H250187   6.580   8.203   5.694
16768TIP3   OH250188   5.173   8.720   5.687
16768TIP3    H150189   5.225   8.712   5.768
16768TIP3    H250190   5.102   8.657   5.697
16769TIP3   OH250191   5.556   7.527   5.507
16769TIP3    H150192   5.472   7.494   5.475
16769TIP3    H250193   5.534   7.609   5.552
16770TIP3   OH250194   6.098   7.655   5.708
16770TIP3    H150195   6.168   7.630   5.768
16770TIP3    H250196   6.017   7.638   5.757
16771TIP3   OH250197   6.318   8.071   5.623
16771TIP3    H150198   6.280   8.068   5.710
16771TIP3    H250199   6.305   8.162   5.594
16772TIP3   OH250200   5.998   8.157   4.157
16772TIP3    H150201   5.951   8.159   4.074
16772TIP3    H250202   6.081   8.200   4.139
16773TIP3   OH250203   5.707   7.571   4.477
16773TIP3    H150204   5.669   7.578   4.564
16773TIP3    H250205   5.672   7.489   4.442
16774TIP3   OH250206   5.495   8.063   5.512
16774TIP3    H150207   5.451   8.070   5.597
16774TIP3    H250208   5.472   8.145   5.467
16775TIP3   OH250209   5.374   7.942   5.037
16775TIP3    H150210   5.285   7.917   5.061
16775TIP3    H250211   5.384   7.911   4.947
16776TIP3   OH250212   5.853   8.014   4.762
16776TIP3    H150213   5.805   8.086   4.721
16776TIP3    H250214   5.912   7.982   4.693
16777TIP3   OH250215   6.043   8.282   5.834
16777TIP3    H150216   6.016   8.214   5.896
16777TIP3    H250217   6.135   8.297   5.854
16778TIP3   OH250218   6.022   8.031   4.984
16778TIP3    H150219   5.954   8.052   4.920
16778TIP3    H250220   6.070   7.958   4.945
16779TIP3   OH250221   5.333   8.074   5.736
16779TIP3    H150222   5.367   8.132   5.804
16779TIP3    H250223   5.315   7.992   5.781
16780TIP3   OH250224   5.375   7.551   4.452
16780TIP3    H150225   5.366   7.558   4.547
16780TIP3    H250226   5.297   7.594   4.418
16781TIP3   OH250227   4.923   7.598   5.319
16781TIP3    H150228   4.995   7.633   5.370
16781TIP3    H250229   4.961   7.582   5.232
16782TIP3   OH250230   4.820   7.575   4.819
16782TIP3    H150231   4.867   7.610   4.743
16782TIP3    H250232   4.756   7.643   4.841
16783TIP3   OH250233   6.069   8.284   5.413
16783TIP3    H150234   6.092   8.218   5.348
16783TIP3    H250235   6.024   8.236   5.482
16784TIP3   OH250236   5.741   7.730   5.087
16784TIP3    H150237   5.663   7.729   5.143
16784TIP3    H250238   5.814   7.720   5.147
16785TIP3   OH250239   5.134   7.816   5.094
16785TIP3    H150240   5.047   7.820   5.056
16785TIP3    H250241   5.163   7.726   5.078
16786TIP3   OH250242   5.387   7.822   4.789
16786TIP3    H150243   5.482   7.831   4.781
16786TIP3    H250244   5.353   7.839   4.701
16787TIP3   OH250245   6.182   7.821   5.296
16787TIP3    H150246   6.162   7.839   5.388
16787TIP3    H250247   6.115   7.759   5.269
16788TIP3   OH250248   5.278   7.843   4.539
16788TIP3    H150249   5.216   7.793   4.486
16788TIP3    H250250   5.332   7.889   4.475
16789TIP3   OH250251   9.656   0.282   5.512
16789TIP3    H150252   9.651   0.297   5.418
16789TIP3    H250253   9.735   0.328   5.540
16790TIP3   OH250254   5.323   8.642   5.923
16790TIP3    H150255   5.405   8.659   5.970
16790TIP3    H250256   5.255   8.651   5.990
16791TIP3   OH250257   5.786   8.106   5.193
16791TIP3    H150258   5.852   8.059   5.142
16791TIP3    H250259   5.786   8.063   5.278
16792TIP3   OH250260   5.275   7.567   5.080
16792TIP3    H150261   5.248   7.492   5.132
16792TIP3    H250262   5.297   7.531   4.994
16793TIP3   OH250263   5.761   8.005   5.456
16793TIP3    H150264   5.674   8.036   5.480
16793TIP3    H250265   5.821   8.056   5.510
16794TIP3   OH250266   5.489   8.354   4.569
16794TIP3    H150267   5.414   8.299   4.545
16794TIP3    H250268   5.464   8.394   4.652
16795TIP3   OH250269   6.385   8.617   5.175
16795TIP3    H150270   6.423   8.666   5.101
16795TIP3    H250271   6.307   8.576   5.139
16796TIP3   OH250272   5.960   7.673   4.484
16796TIP3    H150273   5.867   7.652   4.478
16796TIP3    H250274   5.963   7.768   4.492
16797TIP3   OH250275   5.903   8.698   5.585
16797TIP3    H150276   5.961   8.689   5.660
16797TIP3    H250277   5.868   8.787   5.592
16798TIP3   OH250278   6.018   7.940   4.547
16798TIP3    H150279   6.114   7.944   4.556
16798TIP3    H250280   5.996   8.017   4.494
16799TIP3   OH250281   5.180   8.376   5.220
16799TIP3    H150282   5.218   8.356   5.134
16799TIP3    H250283   5.246   8.347   5.283
16800TIP3   OH250284   5.651   8.511   4.416
16800TIP3    H150285   5.602   8.593   4.411
16800TIP3    H250286   5.594   8.453   4.468
16801TIP3   OH250287   5.064   8.310   5.858
16801TIP3    H150288   5.071   8.283   5.950
16801TIP3    H250289   4.991   8.259   5.824
16802TIP3   OH250290   5.816   8.443   5.872
16802TIP3    H150291   5.749   8.389   5.831
16802TIP3    H250292   5.899   8.402   5.846
16803TIP3   OH250293   6.049   8.988   5.476
16803TIP3    H150294   5.954   8.976   5.476
16803TIP3    H250295   6.070   9.025   5.562
16804TIP3   OH250296   6.431   8.030   4.363
16804TIP3    H150297   6.373   7.986   4.301
16804TIP3    H250298   6.438   8.119   4.329
16805TIP3   OH250299   6.682   8.893   5.451
16805TIP3    H150300   6.587   8.881   5.440
16805TIP3    H250301   6.719   8.866   5.367
16806TIP3   OH250302   6.171   8.841   4.291
16806TIP3    H150303   6.145   8.764   4.341
16806TIP3    H250304   6.196   8.807   4.205
16807TIP3   OH250305   6.156   8.480   5.072
16807TIP3    H150306   6.066   8.458   5.095
16807TIP3    H250307   6.191   8.400   5.034
16808TIP3   OH250308   5.315   8.714   4.894
16808TIP3    H150309   5.321   8.791   4.837
16808TIP3    H250310   5.224   8.687   4.888
16809TIP3   OH250311   4.873   7.998   4.605
16809TIP3    H150312   4.916   8.080   4.627
16809TIP3    H250313   4.790   8.001   4.653
16810TIP3   OH250314   5.390   8.466   4.794
16810TIP3    H150315   5.388   8.555   4.827
16810TIP3    H250316   5.366   8.411   4.869
16811TIP3   OH250317   5.591   9.044   5.346
16811TIP3    H150318   5.628   9.115   5.293
16811TIP3    H250319   5.665   9.008   5.394
16812TIP3   OH250320   5.227   8.932   4.740
16812TIP3    H150321   5.141   8.936   4.782
16812TIP3    H250322   5.260   9.022   4.745
16813TIP3   OH250323   5.939   8.709   5.309
16813TIP3    H150324   5.928   8.702   5.404
16813TIP3    H250325   6.017   8.655   5.290
16814TIP3   OH250326   5.950   8.584   4.194
16814TIP3    H150327   5.988   8.568   4.280
16814TIP3    H250328   5.866   8.537   4.195
16815TIP3   OH250329   6.203   9.199   5.360
16815TIP3    H150330   6.133   9.137   5.375
16815TIP3    H250331   6.173   9.252   5.286
16816TIP3   OH250332   6.260   9.047   3.987
16816TIP3    H150333   6.293   9.115   3.928
16816TIP3    H250334   6.185   9.088   4.031
16817TIP3   OH250335   5.280   7.822   5.855
16817TIP3    H150336   5.185   7.830   5.859
16817TIP3    H250337   5.302   7.762   5.927
16818TIP3   OH250338   6.117   8.538   4.419
16818TIP3    H150339   6.098   8.461   4.473
16818TIP3    H250340   6.210   8.530   4.398
16819TIP3   OH250341   5.017   8.896   5.518
16819TIP3    H150342   5.077   8.834   5.559
16819TIP3    H250343   5.014   8.971   5.578
16820TIP3   OH250344   5.289   8.542   4.202
16820TIP3    H150345   5.299   8.452   4.173
16820TIP3    H250346   5.277   8.535   4.297
16821TIP3   OH250347   5.235   8.556   4.476
16821TIP3    H150348   5.308   8.530   4.533
16821TIP3    H250349   5.235   8.651   4.480
16822TIP3   OH250350   4.968   8.248   4.684
16822TIP3    H150351   4.903   8.297   4.735
16822TIP3    H250352   4.989   8.305   4.611
16823TIP3   OH250353   6.124   7.885   5.558
16823TIP3    H150354   6.203   7.929   5.588
16823TIP3    H250355   6.117   7.808   5.614
16824TIP3   OH250356   6.021   7.626   4.751
16824TIP3    H150357   6.000   7.643   4.659
16824TIP3    H250358   6.065   7.705   4.781
16825TIP3   OH250359   5.501   8.735   4.407
16825TIP3    H150360   5.419   8.765   4.446
16825TIP3    H250361   5.529   8.808   4.353
16826TIP3   OH250362   5.666   7.826   4.836
16826TIP3    H150363   5.728   7.893   4.808
16826TIP3    H250364   5.692   7.805   4.926
16827TIP3   OH250365   5.965   8.119   5.608
16827TIP3    H150366   5.992   8.161   5.690
16827TIP3    H250367   6.015   8.038   5.605
16828TIP3   OH250368   5.832   7.520   4.922
16828TIP3    H150369   5.808   7.597   4.973
16828TIP3    H250370   5.902   7.550   4.864
16829TIP3   OH250371   5.254   8.829   4.489
16829TIP3    H150372   5.237   8.903   4.430
16829TIP3    H250373   5.245   8.867   4.576
16830TIP3   OH250374   5.343   7.548   4.732
16830TIP3    H150375   5.332   7.639   4.759
16830TIP3    H250376   5.437   7.532   4.738
16831TIP3   OH250377   6.585   8.023   5.605
16831TIP3    H150378   6.490   8.028   5.615
16831TIP3    H250379   6.598   7.970   5.526
16832TIP3   OH250380   6.248   8.221   4.985
16832TIP3    H150381   6.171   8.165   4.995
16832TIP3    H250382   6.315   8.182   5.040
16833TIP3   OH250383   4.991   8.425   4.467
16833TIP3    H150384   5.064   8.486   4.477
16833TIP3    H250385   5.020   8.362   4.401
16834TIP3   OH250386   4.895   7.721   4.600
16834TIP3    H150387   4.906   7.815   4.609
16834TIP3    H250388   4.851   7.709   4.516
16835TIP3   OH250389   6.228   9.191   4.925
16835TIP3    H150390   6.183   9.244   4.859
16835TIP3    H250391   6.321   9.213   4.914
16836TIP3   OH250392   5.292   7.442   5.469
16836TIP3    H150393   5.263   7.410   5.384
16836TIP3    H250394   5.283   7.367   5.527
16837TIP3   OH250395   4.824   8.686   4.875
16837TIP3    H150396   4.782   8.724   4.952
16837TIP3    H250397   4.783   8.731   4.801
16838TIP3   OH250398   5.012   9.224   5.938
16838TIP3    H150399   5.097   9.228   5.983
16838TIP3    H250400   4.990   9.131   5.937
16839TIP3   OH250401   5.487   9.140   5.969
16839TIP3    H150402   5.577   9.110   5.980
16839TIP3    H250403   5.453   9.089   5.896
16840TIP3   OH250404   5.444   8.744   4.094
16840TIP3    H150405   5.396   8.673   4.137
16840TIP3    H250406   5.518   8.701   4.051
16841TIP3   OH250407   6.101   9.084   5.728
16841TIP3    H150408   6.119   9.013   5.789
16841TIP3    H250409   6.176   9.143   5.737
16842TIP3   OH250410   5.887   8.783   4.012
16842TIP3    H150411   5.926   8.721   4.073
16842TIP3    H250412   5.940   8.776   3.933
16843TIP3   OH250413   5.119   8.640   6.115
16843TIP3    H150414   5.139   8.547   6.126
16843TIP3    H250415   5.032   8.641   6.075
16844TIP3   OH250416   5.108   8.235   4.310
16844TIP3    H150417   5.160   8.210   4.386
16844TIP3    H250418   5.172   8.249   4.240
16845TIP3   OH250419   5.744   8.718   5.894
16845TIP3    H150420   5.702   8.740   5.811
16845TIP3    H250421   5.784   8.632   5.880
16846TIP3   OH250422   5.702   8.457   4.153
16846TIP3    H150423   5.675   8.466   4.244
16846TIP3    H250424   5.680   8.367   4.130
16847TIP3   OH250425   6.216   8.765   5.513
16847TIP3    H150426   6.294   8.789   5.462
16847TIP3    H250427   6.153   8.835   5.495
16848TIP3   OH250428   5.233   8.385   6.121
16848TIP3    H150429   5.308   8.368   6.064
16848TIP3    H250430   5.273   8.401   6.207
16849TIP3   OH250431   5.281   8.177   4.522
16849TIP3    H150432   5.265   8.144   4.611
16849TIP3    H250433   5.333   8.108   4.480
16850TIP3   OH250434   5.585   8.250   5.779
16850TIP3    H150435   5.506   8.303   5.794
16850TIP3    H250436   5.623   8.286   5.699
16851TIP3   OH250437   5.429   7.998   4.370
16851TIP3    H150438   5.399   8.001   4.279
16851TIP3    H250439   5.524   8.006   4.364
16852TIP3   OH250440   6.102   8.636   5.858
16852TIP3    H150441   6.172   8.600   5.803
16852TIP3    H250442   6.100   8.580   5.935
16853TIP3   OH250443   6.221   8.283   4.051
16853TIP3    H150444   6.208   8.242   3.966
16853TIP3    H250445   6.199   8.375   4.037
16854TIP3   OH250446   5.702   8.029   5.891
16854TIP3    H150447   5.708   7.958   5.826
16854TIP3    H250448   5.665   8.103   5.842
16855TIP3   OH250449   5.712   7.833   5.686
16855TIP3    H150450   5.740   7.869   5.602
16855TIP3    H250451   5.622   7.805   5.670
16856TIP3   OH250452   5.715   8.369   5.574
16856TIP3    H150453   5.804   8.397   5.554
16856TIP3    H250454   5.660   8.424   5.518
16857TIP3   OH250455   6.310   8.317   5.932
16857TIP3    H150456   6.347   8.229   5.939
16857TIP3    H250457   6.386   8.374   5.917
16858TIP3   OH250458   6.339   8.585   5.675
16858TIP3    H150459   6.287   8.648   5.625
16858TIP3    H250460   6.428   8.598   5.644
16859TIP3   OH250461   5.588   8.113   6.134
16859TIP3    H150462   5.520   8.049   6.153
16859TIP3    H250463   5.618   8.090   6.045
16860TIP3   OH250464   5.833   7.604   5.790
16860TIP3    H150465   5.793   7.683   5.756
16860TIP3    H250466   5.768   7.535   5.776
16861TIP3   OH250467   5.960   8.072   5.991
16861TIP3    H150468   5.951   8.059   6.086
16861TIP3    H250469   5.873   8.050   5.956
16862TIP3   OH250470   6.209   8.030   5.866
16862TIP3    H150471   6.129   8.028   5.919
16862TIP3    H250472   6.279   8.003   5.925
16863TIP3   OH250473   6.441   7.990   6.014
16863TIP3    H150474   6.456   7.895   6.021
16863TIP3    H250475   6.437   8.020   6.105
16864TIP3   OH250476   5.418   7.896   6.198
16864TIP3    H150477   5.425   7.809   6.159
16864TIP3    H250478   5.458   7.887   6.284
16865TIP3   OH250479   5.897   7.579   6.055
16865TIP3    H150480   5.966   7.512   6.050
16865TIP3    H250481   5.869   7.591   5.965
16866TIP3   OH250482   5.996   7.792   6.200
16866TIP3    H150483   5.965   7.720   6.145
16866TIP3    H250484   5.923   7.854   6.201
16867TIP3   OH250485   5.260   9.046   4.312
16867TIP3    H150486   5.346   9.017   4.281
16867TIP3    H250487   5.219   9.083   4.234
16868TIP3   OH250488   4.717   8.424   4.490
16868TIP3    H150489   4.812   8.436   4.482
16868TIP3    H250490   4.699   8.340   4.449
16869TIP3   OH250491   4.623   8.989   4.948
16869TIP3    H150492   4.558   8.934   4.904
16869TIP3    H250493   4.666   8.931   5.010
16870TIP3   OH250494   4.767   8.831   5.123
16870TIP3    H150495   4.766   8.760   5.188
16870TIP3    H250496   4.815   8.902   5.166
16871TIP3   OH250497   9.752   0.040   4.909
16871TIP3    H150498   9.789   0.055   4.996
16871TIP3    H250499   9.824   0.057   4.849
16872TIP3   OH250500   9.783   0.039   5.196
16872TIP3    H150501   9.740  -0.045   5.188
16872TIP3    H250502   9.859   0.022   5.252
16873TIP3   OH250503   6.573   8.977   5.779
16873TIP3    H150504   6.502   8.988   5.843
16873TIP3    H250505   6.619   9.061   5.778
16874TIP3   OH250506   6.390   8.497   4.383
16874TIP3    H150507   6.448   8.565   4.349
16874TIP3    H250508   6.439   8.457   4.455
16875TIP3   OH250509   6.525   8.352   4.580
16875TIP3    H150510   6.458   8.316   4.637
16875TIP3    H250511   6.590   8.389   4.639
16876TIP3   OH250512   6.574   8.753   5.015
16876TIP3    H150513   6.623   8.680   4.978
16876TIP3    H250514   6.588   8.825   4.954
16877TIP3   OH250515   6.375   9.039   5.206
16877TIP3    H150516   6.309   9.087   5.256
16877TIP3    H250517   6.326   9.000   5.133
16878TIP3   OH250518   6.430   8.271   4.228
16878TIP3    H150519   6.360   8.268   4.164
16878TIP3    H250520   6.413   8.349   4.280
16879TIP3   OH250521   6.274   7.919   4.169
16879TIP3    H150522   6.230   7.955   4.092
16879TIP3    H250523   6.268   7.824   4.159
16880TIP3   OH250524   6.317   8.216   4.715
16880TIP3    H150525   6.322   8.122   4.700
16880TIP3    H250526   6.298   8.225   4.808
16881TIP3   OH250527   4.936   8.275   5.495
16881TIP3    H150528   4.927   8.241   5.406
16881TIP3    H250529   5.030   8.269   5.513
16882TIP3   OH250530   6.597   8.628   5.581
16882TIP3    H150531   6.663   8.561   5.563
16882TIP3    H250532   6.617   8.698   5.519
16883TIP3   OH250533   6.774   8.416   5.571
16883TIP3    H150534   6.700   8.375   5.617
16883TIP3    H250535   6.849   8.360   5.593
16884TIP3   OH250536   6.242   7.648   4.141
16884TIP3    H150537   6.307   7.619   4.204
16884TIP3    H250538   6.160   7.608   4.171
16885TIP3   OH250539   6.311   7.937   4.604
16885TIP3    H150540   6.357   7.854   4.616
16885TIP3    H250541   6.351   7.976   4.526
16886TIP3   OH250542   6.463   8.101   5.128
16886TIP3    H150543   6.543   8.119   5.079
16886TIP3    H250544   6.479   8.141   5.214
16887TIP3   OH250545   6.539   8.249   5.357
16887TIP3    H150546   6.466   8.278   5.413
16887TIP3    H250547   6.569   8.329   5.314
16888TIP3   OH250548   5.154   7.950   6.131
16888TIP3    H150549   5.248   7.947   6.150
16888TIP3    H250550   5.120   7.869   6.169
16889TIP3   OH250551   6.998   7.850   5.894
16889TIP3    H150552   7.064   7.793   5.853
16889TIP3    H250553   6.961   7.899   5.821
16890TIP3   OH250554   6.428   7.688   4.656
16890TIP3    H150555   6.473   7.672   4.739
16890TIP3    H250556   6.365   7.616   4.649
16891TIP3   OH250557   5.133   7.669   5.489
16891TIP3    H150558   5.185   7.589   5.493
16891TIP3    H250559   5.196   7.738   5.468
16892TIP3   OH250560   4.911   7.932   5.542
16892TIP3    H150561   4.961   7.920   5.462
16892TIP3    H250562   4.948   8.010   5.583
16893TIP3   OH250563   6.848   7.963   5.695
16893TIP3    H150564   6.764   8.002   5.719
16893TIP3    H250565   6.824   7.886   5.642
16894TIP3   OH250566   6.470   7.596   4.294
16894TIP3    H150567   6.519   7.537   4.237
16894TIP3    H250568   6.523   7.676   4.297
16895TIP3   OH250569   4.901   7.449   5.047
16895TIP3    H150570   4.815   7.434   5.089
16895TIP3    H250571   4.881   7.501   4.969
16896TIP3   OH250572   6.050   9.165   4.564
16896TIP3    H150573   6.105   9.151   4.487
16896TIP3    H250574   6.098   9.230   4.616
16897TIP3   OH250575   5.135   7.515   5.880
16897TIP3    H150576   5.079   7.497   5.956
16897TIP3    H250577   5.076   7.555   5.816
16898TIP3   OH250578   5.156   8.948   5.936
16898TIP3    H150579   5.062   8.929   5.932
16898TIP3    H250580   5.178   8.940   6.029
16899TIP3   OH250581   5.362   8.995   5.490
16899TIP3    H150582   5.306   9.063   5.451
16899TIP3    H250583   5.447   9.008   5.449
16900TIP3   OH250584   9.040  -0.012   5.631
16900TIP3    H150585   9.079  -0.018   5.719
16900TIP3    H250586   9.102   0.042   5.582
16901TIP3   OH250587   9.230   0.144   5.504
16901TIP3    H150588   9.291   0.092   5.451
16901TIP3    H250589   9.285   0.202   5.556
16902TIP3   OH250590   6.762   7.717   5.589
16902TIP3    H150591   6.677   7.714   5.545
16902TIP3    H250592   6.794   7.627   5.584
16903TIP3   OH250593   8.276   0.011   5.518
16903TIP3    H150594   8.181   0.011   5.519
16903TIP3    H250595   8.301   0.069   5.590
16904TIP3   OH250596   5.241   9.212   5.373
16904TIP3    H150597   5.160   9.225   5.422
16904TIP3    H250598   5.228   9.262   5.292
16905TIP3   OH250599   8.944   0.006   5.178
16905TIP3    H150600   8.907   0.019   5.090
16905TIP3    H250601   8.955   0.094   5.213
16906TIP3   OH250602   5.937   9.183   5.241
16906TIP3    H150603   5.846   9.202   5.216
16906TIP3    H250604   5.989   9.246   5.191
16907TIP3   OH250605   9.400   0.105   5.132
16907TIP3    H150606   9.404   0.194   5.097
16907TIP3    H250607   9.432   0.050   5.061
16908TIP3   OH250608   4.934   9.012   5.275
16908TIP3    H150609   4.965   8.983   5.361
16908TIP3    H250610   5.004   8.988   5.215
16909TIP3   OH250611   5.140   8.911   5.129
16909TIP3    H150612   5.149   8.823   5.167
16909TIP3    H250613   5.229   8.946   5.129
16910TIP3   OH250614   5.409   8.989   5.142
16910TIP3    H150615   5.427   8.896   5.128
16910TIP3    H250616   5.466   9.013   5.215
16911TIP3   OH250617   5.966   7.637   5.229
16911TIP3    H150618   5.927   7.566   5.279
16911TIP3    H250619   6.035   7.596   5.177
16912TIP3   OH250620   6.471   7.560   5.118
16912TIP3    H150621   6.507   7.608   5.044
16912TIP3    H250622   6.377   7.581   5.118
16913TIP3   OH250623   6.585   7.631   4.879
16913TIP3    H150624   6.653   7.570   4.852
16913TIP3    H250625   6.624   7.718   4.866
16914TIP3   OH250626   5.205   7.340   5.227
16914TIP3    H150627   5.116   7.306   5.236
16914TIP3    H250628   5.260   7.263   5.218
16915TIP3   OH250629   5.033   7.255   4.883
16915TIP3    H150630   5.057   7.302   4.803
16915TIP3    H250631   4.995   7.322   4.940
16916TIP3   OH250632   5.689   7.378   5.122
16916TIP3    H150633   5.737   7.424   5.053
16916TIP3    H250634   5.731   7.407   5.203
16917TIP3   OH250635   6.182   7.521   5.100
16917TIP3    H150636   6.197   7.486   5.012
16917TIP3    H250637   6.190   7.445   5.158
16918TIP3   OH250638   6.242   7.477   4.665
16918TIP3    H150639   6.162   7.524   4.689
16918TIP3    H250640   6.231   7.390   4.702
16919TIP3   OH250641   4.709   8.811   4.664
16919TIP3    H150642   4.628   8.773   4.629
16919TIP3    H250643   4.710   8.901   4.630
16920TIP3   OH250644   5.135   7.378   4.640
16920TIP3    H150645   5.181   7.317   4.583
16920TIP3    H250646   5.204   7.435   4.675
16921TIP3   OH250647   5.618   7.574   4.740
16921TIP3    H150648   5.678   7.521   4.792
16921TIP3    H250649   5.634   7.664   4.768
16922TIP3   OH250650   5.509   8.966   4.235
16922TIP3    H150651   5.593   8.992   4.198
16922TIP3    H250652   5.479   8.894   4.179
16923TIP3   OH250653   6.202   9.110   4.338
16923TIP3    H150654   6.197   9.014   4.329
16923TIP3    H250655   6.164   9.143   4.256
16924TIP3   OH250656   5.438   7.627   6.106
16924TIP3    H150657   5.404   7.561   6.166
16924TIP3    H250658   5.530   7.636   6.130
16925TIP3   OH250659   5.684   7.633   6.231
16925TIP3    H150660   5.761   7.611   6.177
16925TIP3    H250661   5.680   7.563   6.296
16926TIP3   OH250662   4.834   8.834   4.284
16926TIP3    H150663   4.849   8.848   4.377
16926TIP3    H250664   4.908   8.780   4.255
16927TIP3   OH250665   6.506   7.719   6.017
16927TIP3    H150666   6.523   7.689   6.107
16927TIP3    H250667   6.591   7.714   5.974
16928TIP3   OH250668   9.691   0.009   5.524
16928TIP3    H150669   9.618  -0.020   5.469
16928TIP3    H250670   9.683   0.104   5.527
16929TIP3   OH250671   7.701   8.639   4.266
16929TIP3    H150672   7.676   8.726   4.237
16929TIP3    H250673   7.628   8.583   4.238
16930TIP3   OH250674   7.672   8.614   4.674
16930TIP3    H150675   7.723   8.603   4.754
16930TIP3    H250676   7.629   8.530   4.660
16931TIP3   OH250677   6.995   8.490   5.032
16931TIP3    H150678   7.036   8.439   5.102
16931TIP3    H250679   7.067   8.514   4.974
16932TIP3   OH250680   7.966   8.894   4.326
16932TIP3    H150681   7.931   8.835   4.393
16932TIP3    H250682   7.993   8.973   4.374
16933TIP3   OH250683   6.955   8.898   4.735
16933TIP3    H150684   6.944   8.803   4.728
16933TIP3    H250685   7.049   8.911   4.723
16934TIP3   OH250686   6.670   8.122   4.501
16934TIP3    H150687   6.634   8.207   4.524
16934TIP3    H250688   6.598   8.075   4.459
16935TIP3   OH250689   6.751   8.435   4.726
16935TIP3    H150690   6.801   8.358   4.750
16935TIP3    H250691   6.817   8.501   4.702
16936TIP3   OH250692   1.077   0.144   4.344
16936TIP3    H150693   1.111   0.068   4.297
16936TIP3    H250694   1.000   0.110   4.390
16937TIP3   OH250695   7.481   8.835   4.677
16937TIP3    H150696   7.519   8.753   4.645
16937TIP3    H250697   7.555   8.885   4.712
16938TIP3   OH250698   8.533   8.152   4.694
16938TIP3    H150699   8.544   8.239   4.734
16938TIP3    H250700   8.562   8.163   4.604
16939TIP3   OH250701   7.907   8.332   4.726
16939TIP3    H150702   7.942   8.248   4.754
16939TIP3    H250703   7.869   8.316   4.640
16940TIP3   OH250704   7.268   7.996   4.681
16940TIP3    H150705   7.247   8.070   4.624
16940TIP3    H250706   7.212   7.925   4.650
16941TIP3   OH250707   7.959   8.098   4.317
16941TIP3    H150708   8.022   8.078   4.387
16941TIP3    H250709   8.013   8.128   4.244
16942TIP3   OH250710   6.891   8.213   4.815
16942TIP3    H150711   6.976   8.196   4.857
16942TIP3    H250712   6.895   8.163   4.733
16943TIP3   OH250713   7.307   8.411   4.630
16943TIP3    H150714   7.401   8.393   4.637
16943TIP3    H250715   7.270   8.330   4.595
16944TIP3   OH250716   8.582   8.374   4.858
16944TIP3    H150717   8.488   8.386   4.869
16944TIP3    H250718   8.620   8.412   4.938
16945TIP3   OH250719   7.248   8.004   5.135
16945TIP3    H150720   7.199   8.039   5.061
16945TIP3    H250721   7.193   8.022   5.211
16946TIP3   OH250722   7.600   8.853   4.124
16946TIP3    H150723   7.560   8.828   4.040
16946TIP3    H250724   7.547   8.926   4.154
16947TIP3   OH250725   7.328   8.774   4.900
16947TIP3    H150726   7.273   8.847   4.931
16947TIP3    H250727   7.372   8.809   4.822
16948TIP3   OH250728   8.117   8.079   4.538
16948TIP3    H150729   8.070   8.070   4.621
16948TIP3    H250730   8.168   8.160   4.548
16949TIP3   OH250731   7.141   8.110   4.903
16949TIP3    H150732   7.196   8.185   4.925
16949TIP3    H250733   7.187   8.067   4.831
16950TIP3   OH250734   7.173   8.977   5.004
16950TIP3    H150735   7.153   9.061   4.961
16950TIP3    H250736   7.099   8.962   5.062
16951TIP3   OH250737   6.561   8.682   4.262
16951TIP3    H150738   6.531   8.700   4.173
16951TIP3    H250739   6.583   8.768   4.298
16952TIP3   OH250740   8.002   9.141   4.448
16952TIP3    H150741   7.924   9.138   4.504
16952TIP3    H250742   7.987   9.217   4.391
16953TIP3   OH250743   8.318   8.059   4.857
16953TIP3    H150744   8.236   8.080   4.813
16953TIP3    H250745   8.386   8.081   4.793
16954TIP3   OH250746   7.592   7.693   4.872
16954TIP3    H150747   7.583   7.601   4.895
16954TIP3    H250748   7.514   7.735   4.910
16955TIP3   OH250749   7.712   9.199   4.157
16955TIP3    H150750   7.763   9.119   4.145
16955TIP3    H250751   7.767   9.269   4.121
16956TIP3   OH250752   7.882   8.994   4.084
16956TIP3    H150753   7.844   8.918   4.040
16956TIP3    H250754   7.917   8.959   4.166
16957TIP3   OH250755   8.280   8.988   4.750
16957TIP3    H150756   8.251   8.919   4.690
16957TIP3    H250757   8.202   9.042   4.764
16958TIP3   OH250758   7.527   8.480   4.114
16958TIP3    H150759   7.445   8.526   4.097
16958TIP3    H250760   7.571   8.477   4.028
16959TIP3   OH250761   7.494   8.288   3.798
16959TIP3    H150762   7.561   8.335   3.848
16959TIP3    H250763   7.543   8.220   3.751
16960TIP3   OH250764   8.372   8.643   4.638
16960TIP3    H150765   8.283   8.677   4.635
16960TIP3    H250766   8.419   8.691   4.570
16961TIP3   OH250767   7.882   8.554   4.080
16961TIP3    H150768   7.828   8.586   4.153
16961TIP3    H250769   7.963   8.524   4.122
16962TIP3   OH250770   8.078   8.586   5.015
16962TIP3    H150771   8.080   8.670   5.061
16962TIP3    H250772   7.998   8.589   4.962
16963TIP3   OH250773   7.110   8.545   4.476
16963TIP3    H150774   7.076   8.485   4.410
16963TIP3    H250775   7.184   8.499   4.515
16964TIP3   OH250776   7.216   8.930   4.641
16964TIP3    H150777   7.199   8.952   4.550
16964TIP3    H250778   7.309   8.906   4.643
16965TIP3   OH250779   7.202   8.538   4.852
16965TIP3    H150780   7.242   8.504   4.772
16965TIP3    H250781   7.247   8.621   4.867
16966TIP3   OH250782   7.800   9.126   4.635
16966TIP3    H150783   7.738   9.199   4.640
16966TIP3    H250784   7.757   9.055   4.683
16967TIP3   OH250785   7.370   9.063   5.178
16967TIP3    H150786   7.310   9.124   5.221
16967TIP3    H250787   7.315   9.016   5.115
16968TIP3   OH250788   7.717   8.422   3.905
16968TIP3    H150789   7.774   8.479   3.957
16968TIP3    H250790   7.749   8.431   3.816
16969TIP3   OH250791   7.139   8.619   5.327
16969TIP3    H150792   7.144   8.713   5.342
16969TIP3    H250793   7.045   8.601   5.316
16970TIP3   OH250794   7.460   9.090   4.172
16970TIP3    H150795   7.543   9.137   4.168
16970TIP3    H250796   7.402   9.138   4.113
16971TIP3   OH250797   7.166   9.235   5.255
16971TIP3    H150798   7.138   9.245   5.164
16971TIP3    H250799   7.085   9.220   5.304
16972TIP3   OH250800   8.226   7.655   3.964
16972TIP3    H150801   8.149   7.675   4.018
16972TIP3    H250802   8.237   7.732   3.908
16973TIP3   OH250803   6.988   8.386   4.276
16973TIP3    H150804   6.912   8.436   4.247
16973TIP3    H250805   6.955   8.297   4.288
16974TIP3   OH250806   8.006   9.047   3.453
16974TIP3    H150807   7.966   9.114   3.398
16974TIP3    H250808   7.953   8.969   3.437
16975TIP3   OH250809   6.769   8.792   5.215
16975TIP3    H150810   6.701   8.777   5.149
16975TIP3    H250811   6.804   8.705   5.235
16976TIP3   OH250812   6.680   8.957   4.850
16976TIP3    H150813   6.765   8.937   4.810
16976TIP3    H250814   6.698   9.032   4.907
16977TIP3   OH250815   1.953   0.258   4.982
16977TIP3    H150816   1.950   0.176   4.933
16977TIP3    H250817   1.881   0.251   5.045
16978TIP3   OH250818   7.553   9.212   5.039
16978TIP3    H150819   7.539   9.297   5.079
16978TIP3    H250820   7.493   9.153   5.086
16979TIP3   OH250821   0.826   0.083   3.983
16979TIP3    H150822   0.773   0.057   3.908
16979TIP3    H250823   0.781   0.160   4.018
16980TIP3   OH250824   6.782   9.171   4.361
16980TIP3    H150825   6.824   9.161   4.447
16980TIP3    H250826   6.733   9.090   4.348
16981TIP3   OH250827   7.544   9.234   3.594
16981TIP3    H150828   7.554   9.153   3.544
16981TIP3    H250829   7.588   9.217   3.677
16982TIP3   OH250830   1.071   0.019   3.877
16982TIP3    H150831   0.985   0.030   3.917
16982TIP3    H250832   1.127  -0.010   3.950
16983TIP3   OH250833   8.340   8.513   5.204
16983TIP3    H150834   8.250   8.489   5.183
16983TIP3    H250835   8.372   8.443   5.260
16984TIP3   OH250836   6.969   8.978   5.186
16984TIP3    H150837   7.020   8.964   5.266
16984TIP3    H250838   6.896   8.917   5.192
16985TIP3   OH250839   7.353   7.784   4.997
16985TIP3    H150840   7.270   7.752   4.963
16985TIP3    H250841   7.331   7.866   5.041
16986TIP3   OH250842   7.889   7.908   5.193
16986TIP3    H150843   7.958   7.887   5.256
16986TIP3    H250844   7.807   7.894   5.241
16987TIP3   OH250845   8.124   8.339   5.120
16987TIP3    H150846   8.071   8.325   5.199
16987TIP3    H250847   8.088   8.418   5.080
16988TIP3   OH250848   7.809   8.423   3.648
16988TIP3    H150849   7.758   8.415   3.568
16988TIP3    H250850   7.880   8.484   3.626
16989TIP3   OH250851   7.505   7.824   3.963
16989TIP3    H150852   7.466   7.832   4.050
16989TIP3    H250853   7.468   7.743   3.928
16990TIP3   OH250854   7.292   8.321   5.000
16990TIP3    H150855   7.248   8.329   5.085
16990TIP3    H250856   7.267   8.401   4.953
16991TIP3   OH250857   7.170   8.197   4.523
16991TIP3    H150858   7.080   8.174   4.547
16991TIP3    H250859   7.179   8.166   4.432
16992TIP3   OH250860   7.648   8.274   4.250
16992TIP3    H150861   7.602   8.347   4.210
16992TIP3    H250862   7.705   8.241   4.181
16993TIP3   OH250863   7.841   8.534   5.328
16993TIP3    H150864   7.809   8.467   5.388
16993TIP3    H250865   7.931   8.551   5.356
16994TIP3   OH250866   7.813   8.278   4.474
16994TIP3    H150867   7.744   8.301   4.411
16994TIP3    H250868   7.860   8.206   4.431
16995TIP3   OH250869   7.133   8.337   5.224
16995TIP3    H150870   7.144   8.403   5.293
16995TIP3    H250871   7.114   8.256   5.271
16996TIP3   OH250872   7.172   7.808   3.940
16996TIP3    H150873   7.162   7.815   4.035
16996TIP3    H250874   7.094   7.850   3.905
16997TIP3   OH250875   6.719   7.854   4.808
16997TIP3    H150876   6.790   7.891   4.859
16997TIP3    H250877   6.755   7.844   4.720
16998TIP3   OH250878   6.618   7.832   4.303
16998TIP3    H150879   6.663   7.868   4.227
16998TIP3    H250880   6.554   7.900   4.327
16999TIP3   OH250881   7.835   8.540   4.886
16999TIP3    H150882   7.866   8.469   4.830
16999TIP3    H250883   7.795   8.495   4.961
17000TIP3   OH250884   7.537   7.987   4.573
17000TIP3    H150885   7.459   7.987   4.628
17000TIP3    H250886   7.609   7.977   4.636
17001TIP3   OH250887   6.930   8.073   4.582
17001TIP3    H150888   6.842   8.078   4.544
17001TIP3    H250889   6.959   7.984   4.565
17002TIP3   OH250890   7.184   8.077   4.276
17002TIP3    H150891   7.279   8.087   4.266
17002TIP3    H250892   7.149   8.094   4.189
17003TIP3   OH250893   7.981   8.070   4.782
17003TIP3    H150894   7.967   8.090   4.875
17003TIP3    H250895   7.909   8.012   4.759
17004TIP3   OH250896   7.074   8.098   4.026
17004TIP3    H150897   7.011   8.049   3.973
17004TIP3    H250898   7.126   8.147   3.963
17005TIP3   OH250899   1.740   0.553   5.049
17005TIP3    H150900   1.755   0.582   4.959
17005TIP3    H250901   1.812   0.591   5.099
17006TIP3   OH250902   7.122   8.887   5.417
17006TIP3    H150903   7.202   8.908   5.464
17006TIP3    H250904   7.052   8.899   5.481
17007TIP3   OH250905   7.576   8.346   4.678
17007TIP3    H150906   7.644   8.297   4.632
17007TIP3    H250907   7.577   8.311   4.767
17008TIP3   OH250908   7.072   7.825   4.565
17008TIP3    H150909   7.045   7.749   4.617
17008TIP3    H250910   7.090   7.789   4.478
17009TIP3   OH250911   7.558   8.263   4.947
17009TIP3    H150912   7.471   8.297   4.969
17009TIP3    H250913   7.618   8.316   4.999
17010TIP3   OH250914   7.294   8.620   4.057
17010TIP3    H150915   7.219   8.567   4.030
17010TIP3    H250916   7.267   8.662   4.138
17011TIP3   OH250917   8.153   8.800   4.599
17011TIP3    H150918   8.171   8.858   4.525
17011TIP3    H250919   8.062   8.774   4.588
17012TIP3   OH250920   7.756   7.929   3.967
17012TIP3    H150921   7.663   7.906   3.963
17012TIP3    H250922   7.757   8.024   3.979
17013TIP3   OH250923   7.664   8.870   5.090
17013TIP3    H150924   7.714   8.856   5.170
17013TIP3    H250925   7.659   8.965   5.081
17014TIP3   OH250926   7.811   8.194   4.035
17014TIP3    H150927   7.907   8.199   4.044
17014TIP3    H250928   7.788   8.270   3.982
17015TIP3   OH250929   6.969   8.615   4.704
17015TIP3    H150930   7.008   8.604   4.617
17015TIP3    H250931   7.039   8.592   4.765
17016TIP3   OH250932   7.453   8.779   3.895
17016TIP3    H150933   7.406   8.862   3.894
17016TIP3    H250934   7.398   8.720   3.947
17017TIP3   OH250935   6.863   8.557   5.342
17017TIP3    H150936   6.865   8.531   5.434
17017TIP3    H250937   6.787   8.511   5.306
17018TIP3   OH250938   7.605   8.692   5.354
17018TIP3    H150939   7.539   8.630   5.323
17018TIP3    H250940   7.689   8.651   5.331
17019TIP3   OH250941   7.801   9.104   5.005
17019TIP3    H150942   7.722   9.157   4.997
17019TIP3    H250943   7.853   9.149   5.071
17020TIP3   OH250944   8.228   8.288   3.840
17020TIP3    H150945   8.172   8.242   3.778
17020TIP3    H250946   8.225   8.380   3.812
17021TIP3   OH250947   8.498   9.094   4.920
17021TIP3    H150948   8.432   9.156   4.889
17021TIP3    H250949   8.565   9.094   4.851
17022TIP3   OH250950   8.017   9.043   3.750
17022TIP3    H150951   8.025   9.035   3.845
17022TIP3    H250952   7.932   9.003   3.729
17023TIP3   OH250953   7.903   8.712   4.536
17023TIP3    H150954   7.814   8.689   4.564
17023TIP3    H250955   7.939   8.630   4.503
17024TIP3   OH250956   7.109   8.977   4.386
17024TIP3    H150957   7.110   9.050   4.325
17024TIP3    H250958   7.019   8.976   4.420
17025TIP3   OH250959   6.672   8.258   4.092
17025TIP3    H150960   6.713   8.342   4.112
17025TIP3    H250961   6.590   8.259   4.141
17026TIP3   OH250962   7.191   8.732   4.282
17026TIP3    H150963   7.176   8.821   4.314
17026TIP3    H250964   7.164   8.675   4.354
17027TIP3   OH250965   0.829   0.006   4.835
17027TIP3    H150966   0.816   0.101   4.830
17027TIP3    H250967   0.911  -0.004   4.883
17028TIP3   OH250968   7.022   9.190   4.224
17028TIP3    H150969   6.934   9.193   4.262
17028TIP3    H250970   7.053   9.281   4.229
17029TIP3   OH250971   7.719   8.910   4.790
17029TIP3    H150972   7.711   8.913   4.886
17029TIP3    H250973   7.780   8.838   4.774
17030TIP3   OH250974   7.754   8.856   3.704
17030TIP3    H150975   7.797   8.815   3.779
17030TIP3    H250976   7.661   8.843   3.720
17031TIP3   OH250977   1.487   0.104   4.876
17031TIP3    H150978   1.404   0.105   4.923
17031TIP3    H250979   1.501   0.195   4.849
17032TIP3   OH250980   1.477   0.122   3.450
17032TIP3    H150981   1.467   0.155   3.361
17032TIP3    H250982   1.410   0.170   3.500
17033TIP3   OH250983   7.077   8.083   5.341
17033TIP3    H150984   6.982   8.092   5.345
17033TIP3    H250985   7.100   8.032   5.419
17034TIP3   OH250986   7.910   8.762   3.905
17034TIP3    H150987   7.895   8.691   3.968
17034TIP3    H250988   8.005   8.764   3.893
17035TIP3   OH250989   6.796   9.170   4.999
17035TIP3    H150990   6.861   9.122   5.051
17035TIP3    H250991   6.802   9.260   5.029
17036TIP3   OH250992   7.065   8.803   3.690
17036TIP3    H150993   7.124   8.733   3.663
17036TIP3    H250994   7.060   8.794   3.785
17037TIP3   OH250995   7.028   8.818   3.967
17037TIP3    H150996   7.092   8.794   4.034
17037TIP3    H250997   7.030   8.914   3.966
17038TIP3   OH250998   6.763   8.510   4.170
17038TIP3    H150999   6.697   8.558   4.221
17038TIP3    H251000   6.782   8.568   4.097
17039TIP3   OH251001   7.933   8.136   5.044
17039TIP3    H151002   8.008   8.179   5.086
17039TIP3    H251003   7.915   8.060   5.100
17040TIP3   OH251004   7.813   7.878   4.234
17040TIP3    H151005   7.792   7.894   4.142
17040TIP3    H251006   7.855   7.959   4.264
17041TIP3   OH251007   7.310   9.009   3.900
17041TIP3    H151008   7.223   9.027   3.934
17041TIP3    H251009   7.321   9.072   3.829
17042TIP3   OH251010   7.464   8.081   4.322
17042TIP3    H151011   7.525   8.150   4.295
17042TIP3    H251012   7.488   8.061   4.412
17043TIP3   OH251013   7.765   8.375   5.099
17043TIP3    H151014   7.791   8.422   5.178
17043TIP3    H251015   7.817   8.294   5.101
17044TIP3   OH251016   7.626   7.775   4.410
17044TIP3    H151017   7.603   7.853   4.460
17044TIP3    H251018   7.696   7.805   4.351
17045TIP3   OH251019   7.057   9.090   3.973
17045TIP3    H151020   7.035   9.162   3.914
17045TIP3    H251021   7.042   9.126   4.060
17046TIP3   OH251022   7.139   7.803   4.220
17046TIP3    H151023   7.128   7.895   4.246
17046TIP3    H251024   7.233   7.788   4.226
17047TIP3   OH251025   8.372   8.231   5.074
17047TIP3    H151026   8.286   8.270   5.091
17047TIP3    H251027   8.357   8.173   4.999
17048TIP3   OH251028   8.027   8.464   4.468
17048TIP3    H151029   7.951   8.408   4.480
17048TIP3    H251030   8.096   8.422   4.518
17049TIP3   OH251031   6.784   8.686   3.953
17049TIP3    H151032   6.856   8.748   3.963
17049TIP3    H251033   6.815   8.624   3.887
17050TIP3   OH251034   6.691   7.980   4.085
17050TIP3    H151035   6.704   8.074   4.095
17050TIP3    H251036   6.643   7.971   4.003
17051TIP3   OH251037   1.468   0.161   4.326
17051TIP3    H151038   1.425   0.229   4.274
17051TIP3    H251039   1.561   0.174   4.312
17052TIP3   OH251040   7.091   7.700   4.952
17052TIP3    H151041   7.062   7.669   4.866
17052TIP3    H251042   7.081   7.624   5.009
17053TIP3   OH251043   6.606   8.948   4.351
17053TIP3    H151044   6.570   8.987   4.430
17053TIP3    H251045   6.562   8.994   4.279
17054TIP3   OH251046   0.277   0.247   5.411
17054TIP3    H151047   0.359   0.249   5.460
17054TIP3    H251048   0.270   0.157   5.380
17055TIP3   OH251049   0.745   0.149   5.453
17055TIP3    H151050   0.833   0.114   5.462
17055TIP3    H251051   0.707   0.101   5.379
17056TIP3   OH251052   7.282   8.987   3.570
17056TIP3    H151053   7.265   8.900   3.606
17056TIP3    H251054   7.363   8.977   3.520
17057TIP3   OH251055   7.936   9.206   5.217
17057TIP3    H151056   7.887   9.169   5.291
17057TIP3    H251057   7.950   9.298   5.242
17058TIP3   OH251058   6.913   8.892   5.604
17058TIP3    H151059   6.934   8.799   5.615
17058TIP3    H251060   6.827   8.893   5.564
17059TIP3   OH251061   6.903   8.494   3.801
17059TIP3    H151062   6.958   8.474   3.877
17059TIP3    H251063   6.966   8.508   3.730
17060TIP3   OH251064   7.529   8.964   5.379
17060TIP3    H151065   7.482   8.986   5.299
17060TIP3    H251066   7.564   8.876   5.363
17061TIP3   OH251067   7.340   8.713   3.644
17061TIP3    H151068   7.389   8.729   3.725
17061TIP3    H251069   7.371   8.627   3.614
17062TIP3   OH251070   7.965   8.890   4.970
17062TIP3    H151071   8.012   8.928   4.896
17062TIP3    H251072   7.895   8.953   4.989
17063TIP3   OH251073   7.028   8.637   5.610
17063TIP3    H151074   7.102   8.622   5.551
17063TIP3    H251075   7.068   8.654   5.695
17064TIP3   OH251076   7.084   8.442   4.011
17064TIP3    H151077   7.064   8.409   4.098
17064TIP3    H251078   7.131   8.370   3.968
17065TIP3   OH251079   7.400   8.519   5.261
17065TIP3    H151080   7.315   8.560   5.274
17065TIP3    H251081   7.431   8.553   5.177
17066TIP3   OH251082   7.223   8.255   3.857
17066TIP3    H151083   7.191   8.258   3.766
17066TIP3    H251084   7.318   8.264   3.849
17067TIP3   OH251085   7.872   8.860   5.369
17067TIP3    H151086   7.948   8.839   5.315
17067TIP3    H251087   7.879   8.802   5.445
17068TIP3   OH251088   7.997   8.594   3.526
17068TIP3    H151089   7.989   8.544   3.445
17068TIP3    H251090   7.957   8.678   3.507
17069TIP3   OH251091   7.496   8.288   5.374
17069TIP3    H151092   7.501   8.218   5.309
17069TIP3    H251093   7.465   8.364   5.325
17070TIP3   OH251094   7.508   8.089   5.171
17070TIP3    H151095   7.535   8.128   5.088
17070TIP3    H251096   7.417   8.063   5.156
17071TIP3   OH251097   7.514   8.635   5.043
17071TIP3    H151098   7.584   8.700   5.055
17071TIP3    H251099   7.449   8.680   4.989
17072TIP3   OH251100   8.099   8.555   5.454
17072TIP3    H151101   8.158   8.483   5.477
17072TIP3    H251102   8.155   8.632   5.451
17073TIP3   OH251103   8.097   8.834   5.197
17073TIP3    H151104   8.032   8.856   5.130
17073TIP3    H251105   8.181   8.856   5.158
17074TIP3   OH251106   7.381   8.365   5.618
17074TIP3    H151107   7.312   8.301   5.636
17074TIP3    H251108   7.411   8.343   5.529
17075TIP3   OH251109   7.626   7.859   5.277
17075TIP3    H151110   7.586   7.938   5.242
17075TIP3    H251111   7.560   7.791   5.263
17076TIP3   OH251112   7.751   8.325   5.479
17076TIP3    H151113   7.740   8.313   5.573
17076TIP3    H251114   7.665   8.305   5.442
17077TIP3   OH251115   7.986   8.263   5.338
17077TIP3    H151116   7.910   8.273   5.395
17077TIP3    H251117   8.059   8.248   5.399
17078TIP3   OH251118   8.222   8.234   5.489
17078TIP3    H151119   8.237   8.140   5.501
17078TIP3    H251120   8.216   8.269   5.577
17079TIP3   OH251121   7.213   8.149   5.682
17079TIP3    H151122   7.220   8.060   5.646
17079TIP3    H251123   7.252   8.142   5.769
17080TIP3   OH251124   7.693   7.832   5.541
17080TIP3    H151125   7.761   7.766   5.533
17080TIP3    H251126   7.662   7.846   5.451
17081TIP3   OH251127   7.790   8.048   5.684
17081TIP3    H151128   7.759   7.976   5.629
17081TIP3    H251129   7.717   8.110   5.685
17082TIP3   OH251130   0.516   0.065   3.797
17082TIP3    H151131   0.601   0.038   3.762
17082TIP3    H251132   0.471   0.105   3.723
17083TIP3   OH251133   6.511   8.680   3.974
17083TIP3    H151134   6.606   8.693   3.966
17083TIP3    H251135   6.495   8.596   3.931
17084TIP3   OH251136   6.416   9.258   4.431
17084TIP3    H151137   6.350   9.205   4.386
17084TIP3    H251138   6.460   9.197   4.490
17085TIP3   OH251139   6.556   9.088   4.601
17085TIP3    H151140   6.550   9.020   4.668
17085TIP3    H251141   6.607   9.158   4.642
17086TIP3   OH251142   1.747   0.203   4.320
17086TIP3    H151143   1.774   0.220   4.410
17086TIP3    H251144   1.791   0.271   4.269
17087TIP3   OH251145   1.850   0.217   4.580
17087TIP3    H151146   1.807   0.132   4.585
17087TIP3    H251147   1.820   0.265   4.657
17088TIP3   OH251148   1.893   0.042   5.411
17088TIP3    H151149   1.821  -0.013   5.441
17088TIP3    H251150   1.907   0.016   5.320
17089TIP3   OH251151   8.187   8.754   3.875
17089TIP3    H151152   8.260   8.810   3.849
17089TIP3    H251153   8.221   8.701   3.947
17090TIP3   OH251154   8.293   8.584   4.060
17090TIP3    H151155   8.227   8.543   4.114
17090TIP3    H251156   8.360   8.613   4.122
17091TIP3   OH251157   8.276   8.972   4.424
17091TIP3    H151158   8.346   8.907   4.417
17091TIP3    H251159   8.291   9.032   4.351
17092TIP3   OH251160   1.644   0.038   4.617
17092TIP3    H151161   1.568   0.094   4.634
17092TIP3    H251162   1.610  -0.033   4.562
17093TIP3   OH251163   8.203   8.535   3.706
17093TIP3    H151164   8.133   8.547   3.642
17093TIP3    H251165   8.193   8.609   3.766
17094TIP3   OH251166   8.080   8.172   3.643
17094TIP3    H151167   8.027   8.207   3.572
17094TIP3    H251168   8.072   8.077   3.635
17095TIP3   OH251169   8.105   8.450   4.205
17095TIP3    H151170   8.109   8.355   4.192
17095TIP3    H251171   8.084   8.460   4.298
17096TIP3   OH251172   6.731   8.526   4.983
17096TIP3    H151173   6.722   8.496   4.892
17096TIP3    H251174   6.825   8.523   4.999
17097TIP3   OH251175   8.550   8.880   5.126
17097TIP3    H151176   8.568   8.788   5.148
17097TIP3    H251177   8.467   8.877   5.079
17098TIP3   OH251178   8.589   8.627   5.222
17098TIP3    H151179   8.500   8.591   5.220
17098TIP3    H251180   8.642   8.562   5.175
17099TIP3   OH251181   8.040   7.901   3.622
17099TIP3    H151182   8.104   7.875   3.688
17099TIP3    H251183   7.958   7.864   3.653
17100TIP3   OH251184   8.106   8.186   4.088
17100TIP3    H151185   8.153   8.103   4.100
17100TIP3    H251186   8.147   8.225   4.010
17101TIP3   OH251187   8.241   8.318   4.582
17101TIP3    H151188   8.328   8.331   4.543
17101TIP3    H251189   8.250   8.351   4.671
17102TIP3   OH251190   8.295   8.436   4.821
17102TIP3    H151191   8.234   8.469   4.887
17102TIP3    H251192   8.329   8.514   4.778
17103TIP3   OH251193   6.950   8.208   5.619
17103TIP3    H151194   7.044   8.205   5.637
17103TIP3    H251195   6.916   8.128   5.657
17104TIP3   OH251196   8.783   8.104   5.374
17104TIP3    H151197   8.849   8.042   5.342
17104TIP3    H251198   8.744   8.140   5.295
17105TIP3   OH251199   8.224   7.939   4.142
17105TIP3    H151200   8.268   7.925   4.226
17105TIP3    H251201   8.161   7.868   4.135
17106TIP3   OH251202   6.930   7.927   4.975
17106TIP3    H151203   6.984   7.848   4.978
17106TIP3    H251204   6.992   7.997   4.954
17107TIP3   OH251205   6.705   8.192   5.027
17107TIP3    H151206   6.758   8.179   4.949
17107TIP3    H251207   6.729   8.280   5.059
17108TIP3   OH251208   8.623   8.182   5.168
17108TIP3    H151209   8.537   8.223   5.166
17108TIP3    H251210   8.612   8.100   5.120
17109TIP3   OH251211   8.269   7.856   3.780
17109TIP3    H151212   8.316   7.794   3.723
17109TIP3    H251213   8.324   7.934   3.781
17110TIP3   OH251214   6.696   7.703   4.531
17110TIP3    H151215   6.611   7.690   4.573
17110TIP3    H251216   6.677   7.756   4.454
17111TIP3   OH251217   1.322   0.144   4.026
17111TIP3    H151218   1.376   0.142   3.947
17111TIP3    H251219   1.344   0.226   4.069
17112TIP3   OH251220   6.924   7.747   5.355
17112TIP3    H151221   6.874   7.744   5.437
17112TIP3    H251222   6.869   7.799   5.296
17113TIP3   OH251223   6.948   9.210   5.426
17113TIP3    H151224   6.855   9.189   5.419
17113TIP3    H251225   6.964   9.212   5.520
17114TIP3   OH251226   0.594   0.021   4.979
17114TIP3    H151227   0.562   0.105   4.948
17114TIP3    H251228   0.676   0.007   4.930
17115TIP3   OH251229   1.025   0.217   5.150
17115TIP3    H151230   1.063   0.211   5.238
17115TIP3    H251231   1.017   0.311   5.133
17116TIP3   OH251232   1.255   0.428   5.108
17116TIP3    H151233   1.261   0.345   5.060
17116TIP3    H251234   1.344   0.442   5.142
17117TIP3   OH251235   8.549   7.938   5.069
17117TIP3    H151236   8.459   7.917   5.045
17117TIP3    H251237   8.595   7.854   5.067
17118TIP3   OH251238   0.271   0.199   5.055
17118TIP3    H151239   0.189   0.245   5.035
17118TIP3    H251240   0.339   0.267   5.049
17119TIP3   OH251241   0.867   0.315   4.550
17119TIP3    H151242   0.794   0.300   4.610
17119TIP3    H251243   0.936   0.353   4.604
17120TIP3   OH251244   1.131   0.127   4.641
17120TIP3    H151245   1.072   0.162   4.708
17120TIP3    H251246   1.120   0.184   4.566
17121TIP3   OH251247   1.498   0.434   4.614
17121TIP3    H151248   1.446   0.485   4.552
17121TIP3    H251249   1.456   0.348   4.615
17122TIP3   OH251250   0.192   0.029   4.744
17122TIP3    H151251   0.221   0.005   4.832
17122TIP3    H251252   0.261  -0.004   4.686
17123TIP3   OH251253   6.916   9.135   4.597
17123TIP3    H151254   6.929   9.054   4.647
17123TIP3    H251255   6.999   9.183   4.608
17124TIP3   OH251256   0.612   0.033   4.652
17124TIP3    H151257   0.689  -0.012   4.685
17124TIP3    H251258   0.618   0.122   4.687
17125TIP3   OH251259   7.762   7.895   4.718
17125TIP3    H151260   7.722   7.824   4.768
17125TIP3    H251261   7.829   7.852   4.665
17126TIP3   OH251262   8.264   7.813   4.604
17126TIP3    H151263   8.302   7.862   4.531
17126TIP3    H251264   8.172   7.840   4.605
17127TIP3   OH251265   8.380   7.888   4.367
17127TIP3    H151266   8.449   7.829   4.339
17127TIP3    H251267   8.416   7.976   4.352
17128TIP3   OH251268   7.003   7.597   4.711
17128TIP3    H151269   6.914   7.564   4.721
17128TIP3    H251270   7.057   7.519   4.702
17129TIP3   OH251271   6.834   7.511   4.371
17129TIP3    H151272   6.856   7.558   4.290
17129TIP3    H251273   6.793   7.577   4.427
17130TIP3   OH251274   7.486   7.634   4.610
17130TIP3    H151275   7.532   7.681   4.541
17130TIP3    H251276   7.528   7.664   4.691
17131TIP3   OH251277   7.972   7.774   4.586
17131TIP3    H151278   7.992   7.742   4.498
17131TIP3    H251279   7.982   7.698   4.643
17132TIP3   OH251280   8.037   7.732   4.150
17132TIP3    H151281   7.956   7.778   4.174
17132TIP3    H251282   8.027   7.645   4.188
17133TIP3   OH251283   6.493   9.076   4.138
17133TIP3    H151284   6.412   9.041   4.101
17133TIP3    H251285   6.501   9.164   4.101
17134TIP3   OH251286   6.931   7.634   4.127
17134TIP3    H151287   6.978   7.574   4.068
17134TIP3    H251288   7.000   7.691   4.161
17135TIP3   OH251289   7.414   7.830   4.226
17135TIP3    H151290   7.473   7.777   4.279
17135TIP3    H251291   7.430   7.920   4.254
17136TIP3   OH251292   7.295   9.220   3.712
17136TIP3    H151293   7.376   9.253   3.673
17136TIP3    H251294   7.271   9.145   3.658
17137TIP3   OH251295   1.461   0.116   3.786
17137TIP3    H151296   1.456   0.024   3.760
17137TIP3    H251297   1.412   0.163   3.719
17138TIP3   OH251298   7.231   7.879   5.593
17138TIP3    H151299   7.196   7.813   5.654
17138TIP3    H251300   7.323   7.888   5.617
17139TIP3   OH251301   7.477   7.885   5.716
17139TIP3    H151302   7.555   7.863   5.665
17139TIP3    H251303   7.472   7.816   5.783
17140TIP3   OH251304   6.614   9.074   3.776
17140TIP3    H151305   6.621   9.083   3.871
17140TIP3    H251306   6.693   9.025   3.751
17141TIP3   OH251307   8.296   7.968   5.508
17141TIP3    H151308   8.314   7.942   5.598
17141TIP3    H251309   8.382   7.964   5.465
17142TIP3   OH251310   1.691   0.280   5.079
17142TIP3    H151311   1.611   0.297   5.029
17142TIP3    H251312   1.727   0.367   5.098
17143TIP3   OH251313   8.807   8.728   4.468
17143TIP3    H151314   8.761   8.667   4.525
17143TIP3    H251315   8.841   8.795   4.527
17144TIP3   OH251316   8.784   9.101   4.148
17144TIP3    H151317   8.738   9.046   4.085
17144TIP3    H251318   8.854   9.046   4.182
17145TIP3   OH251319   8.467   8.375   3.975
17145TIP3    H151320   8.428   8.456   4.006
17145TIP3    H251321   8.394   8.327   3.935
17146TIP3   OH251322   8.513   8.640   4.209
17146TIP3    H151323   8.567   8.567   4.241
17146TIP3    H251324   8.576   8.701   4.172
17147TIP3   OH251325   9.042   8.249   4.166
17147TIP3    H151326   9.019   8.323   4.110
17147TIP3    H251327   8.992   8.175   4.130
17148TIP3   OH251328   8.674   8.440   4.304
17148TIP3    H151329   8.756   8.423   4.350
17148TIP3    H251330   8.683   8.394   4.221
17149TIP3   OH251331   9.069   8.687   4.090
17149TIP3    H151332   9.161   8.681   4.062
17149TIP3    H251333   9.029   8.606   4.057
17150TIP3   OH251334   9.026   8.242   4.632
17150TIP3    H151335   8.983   8.287   4.559
17150TIP3    H251336   8.967   8.255   4.706
17151TIP3   OH251337   8.924   8.348   4.396
17151TIP3    H151338   8.962   8.435   4.391
17151TIP3    H251339   8.967   8.298   4.327
17152TIP3   OH251340   8.393   8.908   3.766
17152TIP3    H151341   8.357   8.920   3.678
17152TIP3    H251342   8.404   8.997   3.800
17153TIP3   OH251343   9.362   7.943   4.355
17153TIP3    H151344   9.359   7.852   4.385
17153TIP3    H251345   9.288   7.985   4.399
17154TIP3   OH251346   8.873   8.807   3.922
17154TIP3    H151347   8.849   8.737   3.862
17154TIP3    H251348   8.957   8.778   3.959
17155TIP3   OH251349   9.240   8.841   4.296
17155TIP3    H151350   9.219   8.772   4.232
17155TIP3    H251351   9.188   8.818   4.373
17156TIP3   OH251352   8.943   8.806   4.849
17156TIP3    H151353   8.971   8.877   4.906
17156TIP3    H251354   8.911   8.851   4.770
17157TIP3   OH251355   8.778   8.593   3.776
17157TIP3    H151356   8.698   8.632   3.741
17157TIP3    H251357   8.755   8.502   3.795
17158TIP3   OH251358   8.643   9.038   4.681
17158TIP3    H151359   8.579   9.073   4.619
17158TIP3    H251360   8.604   8.958   4.714
17159TIP3   OH251361   8.389   9.196   4.286
17159TIP3    H151362   8.475   9.229   4.261
17159TIP3    H251363   8.338   9.275   4.305
17160TIP3   OH251364   8.832   9.226   4.643
17160TIP3    H151365   8.865   9.248   4.730
17160TIP3    H251366   8.767   9.157   4.658
17161TIP3   OH251367   9.137   8.035   4.485
17161TIP3    H151368   9.053   8.006   4.450
17161TIP3    H251369   9.116   8.116   4.533
17162TIP3   OH251370   9.670   8.130   4.649
17162TIP3    H151371   9.741   8.126   4.713
17162TIP3    H251372   9.590   8.117   4.701
17163TIP3   OH251373   9.336   8.023   3.492
17163TIP3    H151374   9.284   8.048   3.568
17163TIP3    H251375   9.278   7.966   3.441
17164TIP3   OH251376   9.165   8.544   4.578
17164TIP3    H151377   9.109   8.531   4.654
17164TIP3    H251378   9.107   8.582   4.512
17165TIP3   OH251379   8.954   8.454   4.005
17165TIP3    H151380   8.865   8.426   4.028
17165TIP3    H251381   8.967   8.422   3.916
17166TIP3   OH251382   9.005   8.532   4.800
17166TIP3    H151383   8.951   8.608   4.820
17166TIP3    H251384   8.950   8.457   4.822
17167TIP3   OH251385   8.953   8.062   3.426
17167TIP3    H151386   8.944   8.067   3.521
17167TIP3    H251387   8.873   8.103   3.393
17168TIP3   OH251388   8.504   8.113   4.285
17168TIP3    H151389   8.578   8.144   4.338
17168TIP3    H251390   8.543   8.089   4.201
17169TIP3   OH251391   8.422   8.092   3.789
17169TIP3    H151392   8.484   8.134   3.729
17169TIP3    H251393   8.355   8.159   3.804
17170TIP3   OH251394   9.303   8.298   4.070
17170TIP3    H151395   9.223   8.281   4.118
17170TIP3    H251396   9.370   8.247   4.115
17171TIP3   OH251397   8.722   8.318   4.062
17171TIP3    H151398   8.634   8.324   4.025
17171TIP3    H251399   8.750   8.228   4.045
17172TIP3   OH251400   8.978   8.333   3.760
17172TIP3    H151401   9.071   8.339   3.743
17172TIP3    H251402   8.937   8.350   3.675
17173TIP3   OH251403   8.813   8.339   3.539
17173TIP3    H151404   8.729   8.308   3.573
17173TIP3    H251405   8.812   8.315   3.447
17174TIP3   OH251406   9.029   9.045   4.958
17174TIP3    H151407   9.069   9.116   5.008
17174TIP3    H251408   8.936   9.069   4.953
17175TIP3   OH251409   8.862   8.072   4.038
17175TIP3    H151410   8.836   7.997   4.091
17175TIP3    H251411   8.884   8.035   3.952
17176TIP3   OH251412   9.425   8.357   4.502
17176TIP3    H151413   9.407   8.418   4.430
17176TIP3    H251414   9.504   8.392   4.543
17177TIP3   OH251415   8.710   8.810   4.136
17177TIP3    H151416   8.750   8.807   4.049
17177TIP3    H251417   8.784   8.823   4.195
17178TIP3   OH251418   8.690   8.674   4.919
17178TIP3    H151419   8.772   8.713   4.949
17178TIP3    H251420   8.642   8.747   4.879
17179TIP3   OH251421   8.446   8.500   3.580
17179TIP3    H151422   8.495   8.579   3.603
17179TIP3    H251423   8.363   8.509   3.628
17180TIP3   OH251424   8.865   8.293   4.850
17180TIP3    H151425   8.770   8.303   4.852
17180TIP3    H251426   8.885   8.233   4.921
17181TIP3   OH251427   2.115   0.193   4.494
17181TIP3    H151428   2.024   0.180   4.523
17181TIP3    H251429   2.154   0.247   4.563
17182TIP3   OH251430   8.576   8.731   3.654
17182TIP3    H151431   8.526   8.798   3.700
17182TIP3    H251432   8.640   8.780   3.602
17183TIP3   OH251433   9.261   8.339   3.803
17183TIP3    H151434   9.320   8.411   3.778
17183TIP3    H251435   9.274   8.330   3.898
17184TIP3   OH251436   9.428   8.025   3.917
17184TIP3    H151437   9.458   8.062   4.000
17184TIP3    H251438   9.477   8.072   3.850
17185TIP3   OH251439   8.931   8.058   3.708
17185TIP3    H151440   8.922   8.150   3.736
17185TIP3    H251441   9.024   8.040   3.716
17186TIP3   OH251442   8.550   8.248   3.595
17186TIP3    H151443   8.512   8.335   3.594
17186TIP3    H251444   8.521   8.207   3.514
17187TIP3   OH251445   8.881   7.951   4.427
17187TIP3    H151446   8.855   7.920   4.340
17187TIP3    H251447   8.872   7.874   4.484
17188TIP3   OH251448   8.411   9.175   3.824
17188TIP3    H151449   8.368   9.225   3.893
17188TIP3    H251450   8.495   9.220   3.811
17189TIP3   OH251451   8.800   9.109   5.243
17189TIP3    H151452   8.806   9.029   5.190
17189TIP3    H251453   8.761   9.174   5.183
17190TIP3   OH251454   8.904   8.847   5.156
17190TIP3    H151455   8.977   8.794   5.125
17190TIP3    H251456   8.925   8.865   5.248
17191TIP3   OH251457   8.846   8.688   3.521
17191TIP3    H151458   8.846   8.648   3.608
17191TIP3    H251459   8.898   8.628   3.468
17192TIP3   OH251460   9.207   8.766   4.797
17192TIP3    H151461   9.115   8.771   4.825
17192TIP3    H251462   9.203   8.767   4.701
17193TIP3   OH251463   9.281   8.469   4.947
17193TIP3    H151464   9.279   8.386   4.898
17193TIP3    H251465   9.253   8.535   4.883
17194TIP3   OH251466   9.278   8.294   4.728
17194TIP3    H151467   9.325   8.322   4.649
17194TIP3    H251468   9.188   8.281   4.698
17195TIP3   OH251469   9.269   8.507   5.243
17195TIP3    H151470   9.198   8.566   5.268
17195TIP3    H251471   9.257   8.493   5.149
17196TIP3   OH251472   9.422   8.065   4.762
17196TIP3    H151473   9.374   8.148   4.752
17196TIP3    H251474   9.356   7.997   4.747
17197TIP3   OH251475   9.569   8.515   4.961
17197TIP3    H151476   9.572   8.523   5.056
17197TIP3    H251477   9.484   8.474   4.943
17198TIP3   OH251478   8.987   8.394   5.153
17198TIP3    H151479   9.005   8.308   5.116
17198TIP3    H251480   9.020   8.389   5.243
17199TIP3   OH251481   9.544   8.067   5.005
17199TIP3    H151482   9.614   8.004   4.990
17199TIP3    H251483   9.494   8.068   4.924
17200TIP3   OH251484   9.489   8.260   5.189
17200TIP3    H151485   9.525   8.201   5.123
17200TIP3    H251486   9.546   8.337   5.185
17201TIP3   OH251487   8.279   8.948   3.518
17201TIP3    H151488   8.321   9.001   3.450
17201TIP3    H251489   8.260   8.864   3.475
17202TIP3   OH251490   1.650   0.286   3.890
17202TIP3    H151491   1.585   0.232   3.845
17202TIP3    H251492   1.705   0.223   3.936
17203TIP3   OH251493   1.797   0.095   4.033
17203TIP3    H151494   1.787   0.032   4.104
17203TIP3    H251495   1.831   0.174   4.075
17204TIP3   OH251496   8.480   8.787   4.435
17204TIP3    H151497   8.485   8.734   4.356
17204TIP3    H251498   8.550   8.851   4.426
17205TIP3   OH251499   8.721   8.425   5.099
17205TIP3    H151500   8.816   8.429   5.113
17205TIP3    H251501   8.695   8.339   5.132
17206TIP3   OH251502   8.715   8.166   4.461
17206TIP3    H151503   8.768   8.087   4.460
17206TIP3    H251504   8.777   8.237   4.449
17207TIP3   OH251505   8.498   8.408   4.524
17207TIP3    H151506   8.549   8.418   4.444
17207TIP3    H251507   8.468   8.496   4.545
17208TIP3   OH251508   8.492   7.965   4.022
17208TIP3    H151509   8.406   7.947   4.061
17208TIP3    H251510   8.471   8.016   3.943
17209TIP3   OH251511   8.709   7.999   4.843
17209TIP3    H151512   8.652   7.985   4.919
17209TIP3    H251513   8.654   8.047   4.781
17210TIP3   OH251514   2.233   0.298   4.975
17210TIP3    H151515   2.145   0.286   5.010
17210TIP3    H251516   2.287   0.316   5.051
17211TIP3   OH251517   9.490   8.114   4.175
17211TIP3    H151518   9.447   8.059   4.240
17211TIP3    H251519   9.577   8.132   4.211
17212TIP3   OH251520   8.796   7.848   4.187
17212TIP3    H151521   8.707   7.815   4.200
17212TIP3    H251522   8.850   7.770   4.182
17213TIP3   OH251523   8.627   7.770   3.861
17213TIP3    H151524   8.648   7.816   3.780
17213TIP3    H251525   8.588   7.837   3.917
17214TIP3   OH251526   9.254   7.891   4.096
17214TIP3    H151527   9.307   7.939   4.031
17214TIP3    H251528   9.292   7.916   4.180
17215TIP3   OH251529   0.119   7.944   4.049
17215TIP3    H151530   0.106   8.037   4.031
17215TIP3    H251531   0.066   7.927   4.127
17216TIP3   OH251532   1.681  -0.002   3.575
17216TIP3    H151533   1.620   0.052   3.525
17216TIP3    H251534   1.744   0.060   3.610
17217TIP3   OH251535   8.725   7.890   3.614
17217TIP3    H151536   8.771   7.827   3.559
17217TIP3    H251537   8.795   7.944   3.651
17218TIP3   OH251538   9.204   8.078   3.735
17218TIP3    H151539   9.259   8.028   3.796
17218TIP3    H251540   9.225   8.169   3.754
17219TIP3   OH251541   9.012   8.119   5.078
17219TIP3    H151542   8.976   8.054   5.137
17219TIP3    H251543   9.103   8.128   5.105
17220TIP3   OH251544   9.254   8.130   5.208
17220TIP3    H151545   9.331   8.185   5.196
17220TIP3    H251546   9.290   8.045   5.236
17221TIP3   OH251547   0.998   8.982   6.381
17221TIP3    H151548   0.987   9.074   6.356
17221TIP3    H251549   1.030   8.939   6.302
17222TIP3   OH251550   1.256   8.897   7.070
17222TIP3    H151551   1.316   8.833   7.031
17222TIP3    H251552   1.215   8.939   6.995
17223TIP3   OH251553   1.097   9.011   6.866
17223TIP3    H151554   1.025   9.034   6.924
17223TIP3    H251555   1.070   8.930   6.824
17224TIP3   OH251556   0.690   8.704   5.400
17224TIP3    H151557   0.727   8.617   5.386
17224TIP3    H251558   0.756   8.750   5.452
17225TIP3   OH251559   1.028   8.763   6.750
17225TIP3    H151560   0.943   8.742   6.710
17225TIP3    H251561   1.074   8.679   6.753
17226TIP3   OH251562   0.808   8.654   6.036
17226TIP3    H151563   0.877   8.589   6.022
17226TIP3    H251564   0.844   8.736   6.003
17227TIP3   OH251565   0.960   9.038   5.719
17227TIP3    H151566   0.897   9.108   5.734
17227TIP3    H251567   0.949   8.980   5.794
17228TIP3   OH251568   2.777   9.186   5.903
17228TIP3    H151569   2.795   9.263   5.956
17228TIP3    H251570   2.829   9.199   5.823
17229TIP3   OH251571   5.383   0.069   5.893
17229TIP3    H151572   5.434  -0.009   5.917
17229TIP3    H251573   5.355   0.052   5.803
17230TIP3   OH251574   1.518   8.958   5.891
17230TIP3    H151575   1.521   9.030   5.828
17230TIP3    H251576   1.467   8.890   5.848
17231TIP3   OH251577   2.219   9.107   5.494
17231TIP3    H151578   2.283   9.095   5.564
17231TIP3    H251579   2.271   9.127   5.416
17232TIP3   OH251580   1.125   9.222   6.025
17232TIP3    H151581   1.204   9.172   6.045
17232TIP3    H251582   1.094   9.187   5.942
17233TIP3   OH251583   4.875   0.289   5.725
17233TIP3    H151584   4.954   0.235   5.717
17233TIP3    H251585   4.804   0.231   5.696
17234TIP3   OH251586   6.126   0.151   6.068
17234TIP3    H151587   6.126   0.231   6.015
17234TIP3    H251588   6.149   0.180   6.156
17235TIP3   OH251589   1.479   8.998   6.313
17235TIP3    H151590   1.418   9.022   6.244
17235TIP3    H251591   1.434   9.020   6.394
17236TIP3   OH251592   2.384   9.097   5.715
17236TIP3    H151593   2.342   9.091   5.801
17236TIP3    H251594   2.446   9.169   5.722
17237TIP3   OH251595   1.354   9.080   6.083
17237TIP3    H151596   1.400   9.163   6.091
17237TIP3    H251597   1.403   9.031   6.017
17238TIP3   OH251598   2.577   9.064   6.055
17238TIP3    H151599   2.492   9.095   6.024
17238TIP3    H251600   2.640   9.103   5.994
17239TIP3   OH251601   1.843   8.729   6.040
17239TIP3    H151602   1.838   8.637   6.067
17239TIP3    H251603   1.765   8.769   6.079
17240TIP3   OH251604   4.960   0.043   5.122
17240TIP3    H151605   4.969   0.090   5.205
17240TIP3    H251606   5.029   0.079   5.066
17241TIP3   OH251607   5.766   0.506   6.037
17241TIP3    H151608   5.728   0.592   6.056
17241TIP3    H251609   5.708   0.444   6.082
17242TIP3   OH251610   2.473   8.685   5.138
17242TIP3    H151611   2.397   8.704   5.192
17242TIP3    H251612   2.485   8.764   5.085
17243TIP3   OH251613   5.896   0.347   6.277
17243TIP3    H151614   5.804   0.340   6.253
17243TIP3    H251615   5.922   0.257   6.299
17244TIP3   OH251616   1.606   8.801   6.166
17244TIP3    H151617   1.525   8.769   6.127
17244TIP3    H251618   1.581   8.884   6.207
17245TIP3   OH251619   2.140   8.944   6.377
17245TIP3    H151620   2.214   8.919   6.433
17245TIP3    H251621   2.064   8.907   6.421
17246TIP3   OH251622   5.653   0.076   6.299
17246TIP3    H151623   5.621   0.089   6.388
17246TIP3    H251624   5.642   0.161   6.257
17247TIP3   OH251625   1.743   8.859   5.146
17247TIP3    H151626   1.707   8.855   5.235
17247TIP3    H251627   1.724   8.774   5.108
17248TIP3   OH251628   4.726   0.082   6.149
17248TIP3    H151629   4.711   0.060   6.241
17248TIP3    H251630   4.707   0.175   6.143
17249TIP3   OH251631   1.502   9.138   5.689
17249TIP3    H151632   1.415   9.166   5.719
17249TIP3    H251633   1.491   9.121   5.596
17250TIP3   OH251634   5.194  -0.004   5.366
17250TIP3    H151635   5.126   0.061   5.350
17250TIP3    H251636   5.240  -0.011   5.282
17251TIP3   OH251637   5.392   0.363   6.534
17251TIP3    H151638   5.385   0.299   6.605
17251TIP3    H251639   5.486   0.365   6.513
17252TIP3   OH251640   2.036   9.250   5.640
17252TIP3    H151641   1.962   9.253   5.579
17252TIP3    H251642   2.101   9.195   5.596
17253TIP3   OH251643   4.677   0.069   6.421
17253TIP3    H151644   4.611   0.124   6.464
17253TIP3    H251645   4.674  -0.014   6.470
17254TIP3   OH251646   1.407   8.789   5.078
17254TIP3    H151647   1.367   8.855   5.135
17254TIP3    H251648   1.356   8.794   4.997
17255TIP3   OH251649   0.960   8.870   5.940
17255TIP3    H151650   0.907   8.933   5.989
17255TIP3    H251651   1.040   8.861   5.991
17256TIP3   OH251652   0.894   8.860   5.516
17256TIP3    H151653   0.891   8.897   5.428
17256TIP3    H251654   0.923   8.934   5.571
17257TIP3   OH251655   5.392   0.240   6.116
17257TIP3    H151656   5.381   0.168   6.053
17257TIP3    H251657   5.307   0.245   6.161
17258TIP3   OH251658   1.775   8.978   5.745
17258TIP3    H151659   1.700   8.946   5.796
17258TIP3    H251660   1.810   9.050   5.797
17259TIP3   OH251661   1.225   9.069   5.797
17259TIP3    H151662   1.145   9.068   5.745
17259TIP3    H251663   1.269   8.986   5.777
17260TIP3   OH251664   1.510   9.133   5.406
17260TIP3    H151665   1.592   9.084   5.417
17260TIP3    H251666   1.463   9.086   5.338
17261TIP3   OH251667   2.267   9.089   5.969
17261TIP3    H151668   2.246   9.113   6.059
17261TIP3    H251669   2.202   9.022   5.946
17262TIP3   OH251670   1.326   9.013   5.238
17262TIP3    H151671   1.239   9.042   5.265
17262TIP3    H251672   1.334   9.043   5.147
17263TIP3   OH251673   1.843   9.205   5.883
17263TIP3    H151674   1.927   9.199   5.929
17263TIP3    H251675   1.789   9.261   5.939
17264TIP3   OH251676   1.339   8.827   5.724
17264TIP3    H151677   1.300   8.751   5.766
17264TIP3    H251678   1.339   8.806   5.631
17265TIP3   OH251679   5.052  -0.003   6.215
17265TIP3    H151680   4.991   0.058   6.257
17265TIP3    H251681   5.139   0.026   6.245
17266TIP3   OH251682   2.003   8.956   5.146
17266TIP3    H151683   1.908   8.942   5.144
17266TIP3    H251684   2.013   9.050   5.131
17267TIP3   OH251685   2.098   9.220   5.144
17267TIP3    H151686   2.179   9.183   5.178
17267TIP3    H251687   2.124   9.305   5.108
17268TIP3   OH251688   5.146   0.474   6.594
17268TIP3    H151689   5.109   0.489   6.507
17268TIP3    H251690   5.236   0.446   6.578
17269TIP3   OH251691   5.836   0.067   5.063
17269TIP3    H151692   5.785   0.036   4.988
17269TIP3    H251693   5.796   0.151   5.086
17270TIP3   OH251694   1.381   9.071   6.558
17270TIP3    H151695   1.299   9.023   6.561
17270TIP3    H251696   1.433   9.035   6.629
17271TIP3   OH251697   2.180   9.161   6.217
17271TIP3    H151698   2.260   9.201   6.250
17271TIP3    H251699   2.166   9.085   6.274
17272TIP3   OH251700   2.063   8.897   5.408
17272TIP3    H151701   2.042   8.920   5.318
17272TIP3    H251702   2.110   8.974   5.442
17273TIP3   OH251703   1.760   9.039   5.473
17273TIP3    H151704   1.829   9.100   5.444
17273TIP3    H251705   1.770   9.036   5.568
17274TIP3   OH251706   5.268   0.100   6.339
17274TIP3    H151707   5.284   0.094   6.434
17274TIP3    H251708   5.338   0.048   6.300
17275TIP3   OH251709   1.889   8.782   5.588
17275TIP3    H151710   1.861   8.857   5.641
17275TIP3    H251711   1.954   8.818   5.528
17276TIP3   OH251712   1.363   8.811   5.434
17276TIP3    H151713   1.343   8.887   5.379
17276TIP3    H251714   1.457   8.799   5.425
17277TIP3   OH251715   5.922   0.072   6.273
17277TIP3    H151716   5.831   0.050   6.294
17277TIP3    H251717   5.924   0.079   6.178
17278TIP3   OH251718   5.590   0.178   5.607
17278TIP3    H151719   5.559   0.255   5.655
17278TIP3    H251720   5.659   0.141   5.663
17279TIP3   OH251721   0.859   8.955   5.261
17279TIP3    H151722   0.817   9.038   5.238
17279TIP3    H251723   0.825   8.893   5.196
17280TIP3   OH251724   1.341   8.719   6.126
17280TIP3    H151725   1.311   8.687   6.041
17280TIP3    H251726   1.336   8.642   6.183
17281TIP3   OH251727   4.642   0.376   6.753
17281TIP3    H151728   4.698   0.300   6.769
17281TIP3    H251729   4.601   0.394   6.838
17282TIP3   OH251730   4.927   0.177   6.389
17282TIP3    H151731   4.841   0.136   6.399
17282TIP3    H251732   4.918   0.262   6.432
17283TIP3   OH251733   4.694   0.082   5.077
17283TIP3    H151734   4.685   0.075   4.982
17283TIP3    H251735   4.788   0.077   5.093
17284TIP3   OH251736   1.757   9.235   6.578
17284TIP3    H151737   1.747   9.154   6.529
17284TIP3    H251738   1.732   9.304   6.516
17285TIP3   OH251739   1.734   9.038   6.387
17285TIP3    H151740   1.762   9.095   6.315
17285TIP3    H251741   1.643   9.017   6.368
17286TIP3   OH251742   5.653   0.306   6.725
17286TIP3    H151743   5.665   0.245   6.652
17286TIP3    H251744   5.738   0.348   6.736
17287TIP3   OH251745   4.800   0.159   6.749
17287TIP3    H151746   4.778   0.074   6.786
17287TIP3    H251747   4.892   0.153   6.725
17288TIP3   OH251748   1.893   8.832   6.451
17288TIP3    H151749   1.843   8.910   6.427
17288TIP3    H251750   1.832   8.760   6.439
17289TIP3   OH251751   5.291   0.054   6.611
17289TIP3    H151752   5.294   0.108   6.690
17289TIP3    H251753   5.201   0.019   6.610
17290TIP3   OH251754   5.556   0.094   6.548
17290TIP3    H151755   5.469   0.065   6.575
17290TIP3    H251756   5.616   0.050   6.607
17291TIP3   OH251757   2.499   9.254   6.706
17291TIP3    H151758   2.515   9.159   6.699
17291TIP3    H251759   2.494   9.270   6.800
17292TIP3   OH251760   1.444   9.173   6.879
17292TIP3    H151761   1.440   9.086   6.839
17292TIP3    H251762   1.500   9.161   6.956
17293TIP3   OH251763   1.947   8.846   6.718
17293TIP3    H151764   2.021   8.786   6.716
17293TIP3    H251765   1.916   8.849   6.627
17294TIP3   OH251766   2.047   9.063   6.852
17294TIP3    H151767   2.017   8.989   6.799
17294TIP3    H251768   1.973   9.123   6.854
17295TIP3   OH251769   2.453   9.206   4.842
17295TIP3    H151770   2.424   9.249   4.762
17295TIP3    H251771   2.397   9.128   4.849
17296TIP3   OH251772   5.548   0.403   5.381
17296TIP3    H151773   5.513   0.315   5.395
17296TIP3    H251774   5.598   0.422   5.460
17297TIP3   OH251775   5.963   0.617   6.310
17297TIP3    H151776   5.920   0.544   6.265
17297TIP3    H251777   5.993   0.674   6.240
17298TIP3   OH251778   2.283   8.988   4.879
17298TIP3    H151779   2.359   8.945   4.918
17298TIP3    H251780   2.215   8.921   4.878
17299TIP3   OH251781   2.342   9.155   5.251
17299TIP3    H151782   2.409   9.087   5.259
17299TIP3    H251783   2.389   9.236   5.267
17300TIP3   OH251784   5.798   0.085   5.771
17300TIP3    H151785   5.884   0.121   5.746
17300TIP3    H251786   5.795   0.095   5.866
17301TIP3   OH251787   5.820   0.180   6.027
17301TIP3    H151788   5.734   0.220   6.013
17301TIP3    H251789   5.882   0.252   6.015
17302TIP3   OH251790   4.464   0.036   6.779
17302TIP3    H151791   4.551   0.022   6.815
17302TIP3    H251792   4.419  -0.048   6.791
17303TIP3   OH251793   3.047   9.143   6.558
17303TIP3    H151794   3.109   9.078   6.524
17303TIP3    H251795   3.015   9.188   6.480
17304TIP3   OH251796   2.501   8.941   5.331
17304TIP3    H151797   2.542   8.936   5.418
17304TIP3    H251798   2.431   8.875   5.334
17305TIP3   OH251799   1.146   8.910   6.155
17305TIP3    H151800   1.203   8.833   6.162
17305TIP3    H251801   1.206   8.981   6.130
17306TIP3   OH251802   4.243  -0.011   6.258
17306TIP3    H151803   4.299  -0.007   6.180
17306TIP3    H251804   4.241   0.079   6.291
17307TIP3   OH251805   2.905   9.239   6.348
17307TIP3    H151806   2.819   9.279   6.344
17307TIP3    H251807   2.896   9.157   6.299
17308TIP3   OH251808   2.525   8.891   4.963
17308TIP3    H151809   2.562   8.830   4.899
17308TIP3    H251810   2.593   8.957   4.976
17309TIP3   OH251811   0.976   8.677   5.703
17309TIP3    H151812   0.963   8.720   5.788
17309TIP3    H251813   0.942   8.741   5.640
17310TIP3   OH251814   1.180   8.887   6.557
17310TIP3    H151815   1.130   8.848   6.629
17310TIP3    H251816   1.114   8.918   6.496
17311TIP3   OH251817   2.805   9.003   6.246
17311TIP3    H151818   2.721   9.010   6.201
17311TIP3    H251819   2.828   8.910   6.240
17312TIP3   OH251820   2.052   8.929   5.910
17312TIP3    H151821   1.979   8.872   5.932
17312TIP3    H251822   2.099   8.883   5.840
17313TIP3   OH251823   2.523   8.843   5.772
17313TIP3    H151824   2.576   8.890   5.707
17313TIP3    H251825   2.439   8.889   5.772
17314TIP3   OH251826   2.667   8.921   5.555
17314TIP3    H151827   2.722   8.850   5.523
17314TIP3    H251828   2.720   9.000   5.545
17315TIP3   OH251829   1.245   8.621   5.886
17315TIP3    H151830   1.156   8.587   5.898
17315TIP3    H251831   1.300   8.543   5.880
17316TIP3   OH251832   1.069   8.494   5.522
17316TIP3    H151833   1.096   8.545   5.446
17316TIP3    H251834   1.039   8.559   5.585
17317TIP3   OH251835   1.730   8.667   5.789
17317TIP3    H151836   1.785   8.702   5.718
17317TIP3    H251837   1.773   8.697   5.869
17318TIP3   OH251838   2.225   8.796   5.741
17318TIP3    H151839   2.267   8.758   5.663
17318TIP3    H251840   2.232   8.728   5.807
17319TIP3   OH251841   2.291   8.758   5.331
17319TIP3    H151842   2.210   8.804   5.354
17319TIP3    H251843   2.281   8.671   5.371
17320TIP3   OH251844   1.179   8.646   5.306
17320TIP3    H151845   1.231   8.596   5.243
17320TIP3    H251846   1.243   8.696   5.356
17321TIP3   OH251847   1.634   8.809   5.395
17321TIP3    H151848   1.664   8.720   5.411
17321TIP3    H251849   1.694   8.864   5.444
17322TIP3   OH251850   1.487   8.916   6.767
17322TIP3    H151851   1.452   8.850   6.827
17322TIP3    H251852   1.579   8.924   6.793
17323TIP3   OH251853   1.733   8.908   6.889
17323TIP3    H151854   1.811   8.885   6.838
17323TIP3    H251855   1.728   8.840   6.957
17324TIP3   OH251856   2.559   8.988   6.680
17324TIP3    H151857   2.579   8.961   6.770
17324TIP3    H251858   2.645   8.990   6.637
17325TIP3   OH251859   6.031   0.124   5.245
17325TIP3    H151860   5.994   0.110   5.333
17325TIP3    H251861   5.963   0.093   5.185
17326TIP3   OH251862   7.205   0.286   5.377
17326TIP3    H151863   7.259   0.212   5.404
17326TIP3    H251864   7.185   0.269   5.285
17327TIP3   OH251865   6.593   0.005   5.367
17327TIP3    H151866   6.582   0.087   5.319
17327TIP3    H251867   6.540  -0.058   5.318
17328TIP3   OH251868   7.276   0.116   4.965
17328TIP3    H151869   7.335   0.109   5.040
17328TIP3    H251870   7.331   0.148   4.894
17329TIP3   OH251871   6.205   0.218   5.519
17329TIP3    H151872   6.291   0.196   5.554
17329TIP3    H251873   6.199   0.170   5.436
17330TIP3   OH251874   6.696   0.497   5.126
17330TIP3    H151875   6.744   0.575   5.156
17330TIP3    H251876   6.624   0.487   5.189
17331TIP3   OH251877   7.938   0.415   5.509
17331TIP3    H151878   7.917   0.428   5.416
17331TIP3    H251879   7.891   0.485   5.554
17332TIP3   OH251880   6.559   0.041   5.817
17332TIP3    H151881   6.508   0.075   5.743
17332TIP3    H251882   6.504   0.059   5.894
17333TIP3   OH251883   7.431   0.084   5.189
17333TIP3    H151884   7.388   0.057   5.271
17333TIP3    H251885   7.494   0.150   5.216
17334TIP3   OH251886   6.451   0.122   5.580
17334TIP3    H151887   6.502   0.200   5.559
17334TIP3    H251888   6.478   0.057   5.515
17335TIP3   OH251889   7.612   0.093   5.529
17335TIP3    H151890   7.521   0.082   5.500
17335TIP3    H251891   7.646   0.163   5.473
17336TIP3   OH251892   3.632   8.993   5.532
17336TIP3    H151893   3.626   8.901   5.559
17336TIP3    H251894   3.554   9.034   5.570
17337TIP3   OH251895   6.810   0.265   4.620
17337TIP3    H151896   6.845   0.326   4.554
17337TIP3    H251897   6.862   0.185   4.608
17338TIP3   OH251898   7.496   0.738   5.586
17338TIP3    H151899   7.494   0.830   5.614
17338TIP3    H251900   7.409   0.722   5.550
17339TIP3   OH251901   4.281   8.974   4.643
17339TIP3    H151902   4.268   9.035   4.715
17339TIP3    H251903   4.292   9.029   4.566
17340TIP3   OH251904   7.712   0.606   5.783
17340TIP3    H151905   7.622   0.631   5.804
17340TIP3    H251906   7.714   0.511   5.794
17341TIP3   OH251907   3.392   9.075   5.655
17341TIP3    H151908   3.310   9.047   5.615
17341TIP3    H251909   3.369   9.154   5.705
17342TIP3   OH251910   3.931   9.209   5.864
17342TIP3    H151911   4.005   9.185   5.921
17342TIP3    H251912   3.855   9.175   5.910
17343TIP3   OH251913   7.444   0.318   5.810
17343TIP3    H151914   7.422   0.319   5.904
17343TIP3    H251915   7.403   0.398   5.776
17344TIP3   OH251916   3.564   9.093   4.648
17344TIP3    H151917   3.543   9.073   4.739
17344TIP3    H251918   3.535   9.016   4.599
17345TIP3   OH251919   6.610   0.341   5.533
17345TIP3    H151920   6.560   0.379   5.605
17345TIP3    H251921   6.658   0.415   5.495
17346TIP3   OH251922   6.526   0.215   5.203
17346TIP3    H151923   6.438   0.183   5.224
17346TIP3    H251924   6.535   0.199   5.109
17347TIP3   OH251925   7.006   0.245   4.836
17347TIP3    H151926   6.963   0.327   4.813
17347TIP3    H251927   7.068   0.230   4.764
17348TIP3   OH251928   7.200   0.625   6.013
17348TIP3    H151929   7.192   0.580   6.097
17348TIP3    H251930   7.294   0.627   5.994
17349TIP3   OH251931   7.112   0.266   5.126
17349TIP3    H151932   7.020   0.264   5.100
17349TIP3    H251933   7.156   0.210   5.062
17350TIP3   OH251934   6.269   0.313   5.884
17350TIP3    H151935   6.328   0.358   5.824
17350TIP3    H251936   6.326   0.251   5.931
17351TIP3   OH251937   3.200   9.038   4.571
17351TIP3    H151938   3.171   9.118   4.616
17351TIP3    H251939   3.154   9.039   4.487
17352TIP3   OH251940   2.850   9.090   5.443
17352TIP3    H151941   2.794   9.168   5.439
17352TIP3    H251942   2.836   9.046   5.360
17353TIP3   OH251943   2.720   9.088   4.994
17353TIP3    H151944   2.749   9.108   4.906
17353TIP3    H251945   2.678   9.169   5.025
17354TIP3   OH251946   7.238   0.665   5.516
17354TIP3    H151947   7.271   0.648   5.428
17354TIP3    H251948   7.180   0.591   5.535
17355TIP3   OH251949   6.848  -0.022   5.264
17355TIP3    H151950   6.762  -0.025   5.305
17355TIP3    H251951   6.892   0.052   5.306
17356TIP3   OH251952   6.298   0.085   5.294
17356TIP3    H151953   6.214   0.093   5.249
17356TIP3    H251954   6.330  -0.001   5.269
17357TIP3   OH251955   6.551   0.162   4.924
17357TIP3    H151956   6.643   0.133   4.920
17357TIP3    H251957   6.516   0.144   4.837
17358TIP3   OH251958   7.343   0.059   5.457
17358TIP3    H151959   7.319   0.095   5.543
17358TIP3    H251960   7.273  -0.004   5.438
17359TIP3   OH251961   6.384   0.034   4.731
17359TIP3    H151962   6.301   0.069   4.764
17359TIP3    H251963   6.388   0.064   4.640
17360TIP3   OH251964   6.933   0.217   5.381
17360TIP3    H151965   7.028   0.210   5.391
17360TIP3    H251966   6.899   0.215   5.470
17361TIP3   OH251967   3.153   9.092   5.210
17361TIP3    H151968   3.119   9.014   5.255
17361TIP3    H251969   3.150   9.070   5.117
17362TIP3   OH251970   6.834   0.229   5.632
17362TIP3    H151971   6.748   0.237   5.592
17362TIP3    H251972   6.849   0.313   5.676
17363TIP3   OH251973   7.178   0.213   4.633
17363TIP3    H151974   7.268   0.200   4.663
17363TIP3    H251975   7.185   0.217   4.538
17364TIP3   OH251976   6.914   0.627   6.055
17364TIP3    H151977   6.889   0.675   5.976
17364TIP3    H251978   7.008   0.612   6.046
17365TIP3   OH251979   7.622   0.315   4.544
17365TIP3    H151980   7.575   0.313   4.460
17365TIP3    H251981   7.594   0.397   4.585
17366TIP3   OH251982   6.407   0.121   6.034
17366TIP3    H151983   6.319   0.087   6.050
17366TIP3    H251984   6.446   0.130   6.121
17367TIP3   OH251985   7.252   0.169   5.684
17367TIP3    H151986   7.321   0.217   5.731
17367TIP3    H251987   7.220   0.104   5.746
17368TIP3   OH251988   3.825   9.171   4.880
17368TIP3    H151989   3.799   9.204   4.794
17368TIP3    H251990   3.886   9.238   4.913
17369TIP3   OH251991   6.809   0.080   4.929
17369TIP3    H151992   6.884   0.117   4.882
17369TIP3    H251993   6.814   0.120   5.016
17370TIP3   OH251994   7.079   0.414   5.859
17370TIP3    H151995   7.151   0.475   5.875
17370TIP3    H251996   7.086   0.350   5.929
17371TIP3   OH251997   3.671   9.047   5.072
17371TIP3    H151998   3.651   9.118   5.133
17371TIP3    H251999   3.733   9.085   5.010
17372TIP3   OH252000   3.173   9.066   4.917
17372TIP3    H152001   3.154   9.142   4.862
17372TIP3    H252002   3.269   9.060   4.917
17373TIP3   OH252003   7.710   0.331   5.756
17373TIP3    H152004   7.623   0.305   5.786
17373TIP3    H252005   7.703   0.335   5.661
17374TIP3   OH252006   7.421   0.385   5.070
17374TIP3    H152007   7.399   0.474   5.098
17374TIP3    H252008   7.465   0.346   5.146
17375TIP3   OH252009   2.703   9.178   4.739
17375TIP3    H152010   2.614   9.191   4.771
17375TIP3    H252011   2.693   9.125   4.660
17376TIP3   OH252012   3.129   8.998   5.599
17376TIP3    H152013   3.095   8.973   5.513
17376TIP3    H252014   3.120   8.920   5.653
17377TIP3   OH252015   6.467   0.669   6.289
17377TIP3    H152016   6.432   0.598   6.236
17377TIP3    H252017   6.398   0.689   6.352
17378TIP3   OH252018   6.627   0.486   5.956
17378TIP3    H152019   6.596   0.443   6.036
17378TIP3    H252020   6.625   0.579   5.976
17379TIP3   OH252021   6.536   0.303   4.582
17379TIP3    H152022   6.525   0.312   4.487
17379TIP3    H252023   6.628   0.281   4.594
17380TIP3   OH252024   6.826   0.271   6.056
17380TIP3    H152025   6.825   0.197   5.996
17380TIP3    H252026   6.781   0.341   6.008
17381TIP3   OH252027   6.821   0.084   5.861
17381TIP3    H152028   6.844   0.124   5.776
17381TIP3    H252029   6.728   0.063   5.852
17382TIP3   OH252030   7.421   0.581   6.208
17382TIP3    H152031   7.418   0.498   6.159
17382TIP3    H252032   7.514   0.592   6.229
17383TIP3   OH252033   6.620   0.377   6.207
17383TIP3    H152034   6.546   0.338   6.255
17383TIP3    H252035   6.677   0.303   6.187
17384TIP3   OH252036   3.685   9.105   5.945
17384TIP3    H152037   3.642   9.185   5.915
17384TIP3    H252038   3.620   9.036   5.929
17385TIP3   OH252039   7.095   0.284   6.103
17385TIP3    H152040   7.096   0.359   6.163
17385TIP3    H252041   7.003   0.257   6.100
17386TIP3   OH252042   7.360   0.348   6.065
17386TIP3    H152043   7.276   0.306   6.084
17386TIP3    H252044   7.423   0.300   6.118
17387TIP3   OH252045   7.577   0.269   6.208
17387TIP3    H152046   7.589   0.175   6.202
17387TIP3    H252047   7.571   0.287   6.302
17388TIP3   OH252048   6.511   0.130   6.301
17388TIP3    H152049   6.522   0.037   6.281
17388TIP3    H252050   6.551   0.142   6.386
17389TIP3   OH252051   3.757   9.120   6.206
17389TIP3    H152052   3.829   9.057   6.201
17389TIP3    H252053   3.720   9.122   6.118
17390TIP3   OH252054   7.086   0.098   6.364
17390TIP3    H152055   7.065   0.028   6.302
17390TIP3    H252056   7.004   0.145   6.376
17391TIP3   OH252057   7.523   0.252   4.290
17391TIP3    H152058   7.456   0.287   4.231
17391TIP3    H252059   7.502   0.158   4.296
17392TIP3   OH252060   7.400   0.634   4.875
17392TIP3    H152061   7.325   0.579   4.899
17392TIP3    H252062   7.375   0.722   4.901
17393TIP3   OH252063   7.978   0.795   5.696
17393TIP3    H152064   7.910   0.840   5.645
17393TIP3    H252065   7.954   0.703   5.692
17394TIP3   OH252066   4.111   9.233   4.320
17394TIP3    H152067   4.184   9.199   4.371
17394TIP3    H252068   4.074   9.155   4.278
17395TIP3   OH252069   7.425   0.167   4.739
17395TIP3    H152070   7.481   0.090   4.750
17395TIP3    H252071   7.483   0.242   4.753
17396TIP3   OH252072   7.589   0.285   5.279
17396TIP3    H152073   7.663   0.297   5.219
17396TIP3    H252074   7.607   0.347   5.350
17397TIP3   OH252075   7.617   0.436   5.508
17397TIP3    H152076   7.532   0.465   5.541
17397TIP3    H252077   7.662   0.517   5.483
17398TIP3   OH252078   6.228   0.267   6.298
17398TIP3    H152079   6.311   0.308   6.321
17398TIP3    H252080   6.233   0.179   6.334
17399TIP3   OH252081   8.104   0.174   6.038
17399TIP3    H152082   8.168   0.109   6.009
17399TIP3    H252083   8.073   0.214   5.956
17400TIP3   OH252084   4.271   9.169   4.841
17400TIP3    H152085   4.334   9.181   4.912
17400TIP3    H252086   4.188   9.149   4.885
17401TIP3   OH252087   2.969   9.208   5.705
17401TIP3    H152088   2.996   9.126   5.663
17401TIP3    H252089   3.030   9.273   5.672
17402TIP3   OH252090   6.047   0.223   5.743
17402TIP3    H152091   6.090   0.231   5.658
17402TIP3    H252092   6.112   0.253   5.806
17403TIP3   OH252093   7.967   0.264   5.817
17403TIP3    H152094   7.878   0.299   5.813
17403TIP3    H252095   7.960   0.175   5.781
17404TIP3   OH252096   4.340   9.145   4.438
17404TIP3    H152097   4.372   9.080   4.375
17404TIP3    H252098   4.410   9.210   4.442
17405TIP3   OH252099   2.758   8.952   5.220
17405TIP3    H152100   2.669   8.937   5.252
17405TIP3    H252101   2.747   9.008   5.143
17406TIP3   OH252102   2.964   9.016   6.013
17406TIP3    H152103   2.922   9.018   6.099
17406TIP3    H252104   2.907   9.070   5.957
17407TIP3   OH252105   4.620   9.251   5.747
17407TIP3    H152106   4.542   9.256   5.691
17407TIP3    H252107   4.659   9.167   5.726
17408TIP3   OH252108   3.837   9.174   5.414
17408TIP3    H152109   3.758   9.123   5.435
17408TIP3    H252110   3.876   9.128   5.339
17409TIP3   OH252111   4.313   9.073   5.230
17409TIP3    H152112   4.363   9.132   5.175
17409TIP3    H252113   4.227   9.115   5.239
17410TIP3   OH252114   4.463   9.194   5.035
17410TIP3    H152115   4.522   9.124   5.007
17410TIP3    H252116   4.519   9.272   5.039
17411TIP3   OH252117   3.056   8.875   5.353
17411TIP3    H152118   2.967   8.847   5.370
17411TIP3    H252119   3.108   8.795   5.358
17412TIP3   OH252120   2.861   8.780   5.013
17412TIP3    H152121   2.889   8.834   4.939
17412TIP3    H252122   2.839   8.843   5.082
17413TIP3   OH252123   3.540   8.905   5.273
17413TIP3    H152124   3.588   8.949   5.202
17413TIP3    H252125   3.566   8.952   5.352
17414TIP3   OH252126   4.017   9.054   5.241
17414TIP3    H152127   4.021   9.010   5.156
17414TIP3    H252128   4.023   8.984   5.306
17415TIP3   OH252129   2.971   8.920   4.784
17415TIP3    H152130   3.020   8.868   4.720
17415TIP3    H252131   3.037   8.969   4.832
17416TIP3   OH252132   3.454   9.061   4.906
17416TIP3    H152133   3.517   9.028   4.971
17416TIP3    H252134   3.469   9.156   4.905
17417TIP3   OH252135   3.283   9.107   6.246
17417TIP3    H152136   3.250   9.051   6.316
17417TIP3    H252137   3.374   9.126   6.270
17418TIP3   OH252138   3.525   9.157   6.353
17418TIP3    H152139   3.610   9.137   6.313
17418TIP3    H252140   3.523   9.105   6.433
17419TIP3   OH252141   4.355   9.243   6.167
17419TIP3    H152142   4.374   9.214   6.256
17419TIP3    H252143   4.440   9.246   6.124
17420TIP3   OH252144   7.850   0.385   4.753
17420TIP3    H152145   7.796   0.460   4.730
17420TIP3    H252146   7.801   0.309   4.723
17421TIP3   OH252147   9.643   0.474   4.865
17421TIP3    H152148   9.672   0.551   4.913
17421TIP3    H252149   9.681   0.484   4.778
17422TIP3   OH252150   9.005   0.633   4.833
17422TIP3    H152151   9.047   0.554   4.868
17422TIP3    H252152   9.016   0.625   4.738
17423TIP3   OH252153   8.399   0.207   4.886
17423TIP3    H152154   8.400   0.293   4.846
17423TIP3    H252155   8.346   0.153   4.826
17424TIP3   OH252156   9.099   0.392   4.457
17424TIP3    H152157   9.157   0.386   4.532
17424TIP3    H252158   9.153   0.429   4.388
17425TIP3   OH252159   7.967   0.508   4.990
17425TIP3    H152160   8.023   0.430   4.989
17425TIP3    H252161   7.900   0.490   4.924
17426TIP3   OH252162   8.476   0.767   4.762
17426TIP3    H152163   8.554   0.739   4.714
17426TIP3    H252164   8.404   0.724   4.718
17427TIP3   OH252165   9.716   0.677   5.038
17427TIP3    H152166   9.643   0.729   5.006
17427TIP3    H252167   9.749   0.725   5.114
17428TIP3   OH252168   8.307   0.292   5.300
17428TIP3    H152169   8.297   0.386   5.283
17428TIP3    H252170   8.274   0.280   5.389
17429TIP3   OH252171   9.242   0.405   4.690
17429TIP3    H152172   9.200   0.396   4.775
17429TIP3    H252173   9.301   0.479   4.700
17430TIP3   OH252174   8.195   0.337   5.042
17430TIP3    H152175   8.233   0.424   5.052
17430TIP3    H252176   8.175   0.331   4.948
17431TIP3   OH252177   9.448   0.360   5.028
17431TIP3    H152178   9.363   0.387   4.993
17431TIP3    H252179   9.511   0.388   4.962
17432TIP3   OH252180   5.447   9.236   5.000
17432TIP3    H152181   5.448   9.145   5.030
17432TIP3    H252182   5.397   9.284   5.066
17433TIP3   OH252183   8.558   0.611   4.057
17433TIP3    H152184   8.557   0.695   4.102
17433TIP3    H252185   8.625   0.621   3.989
17434TIP3   OH252186   9.364   1.020   5.019
17434TIP3    H152187   9.345   1.111   5.042
17434TIP3    H252188   9.318   0.968   5.085
17435TIP3   OH252189   6.071   9.204   4.111
17435TIP3    H152190   5.994   9.226   4.164
17435TIP3    H252191   6.087   9.282   4.057
17436TIP3   OH252192   9.475   0.862   5.333
17436TIP3    H152193   9.393   0.876   5.285
17436TIP3    H252194   9.504   0.774   5.307
17437TIP3   OH252195   8.450   0.086   5.118
17437TIP3    H152196   8.430  -0.003   5.089
17437TIP3    H252197   8.465   0.135   5.037
17438TIP3   OH252198   9.007   0.217   5.348
17438TIP3    H152199   9.081   0.196   5.405
17438TIP3    H252200   8.930   0.183   5.394
17439TIP3   OH252201   9.242   0.615   5.254
17439TIP3    H152202   9.209   0.598   5.342
17439TIP3    H252203   9.225   0.708   5.240
17440TIP3   OH252204   8.590   0.174   4.108
17440TIP3    H152205   8.560   0.168   4.199
17440TIP3    H252206   8.570   0.089   4.070
17441TIP3   OH252207   8.310   0.581   5.086
17441TIP3    H152208   8.278   0.593   5.175
17441TIP3    H252209   8.260   0.643   5.034
17442TIP3   OH252210   8.396   0.409   4.701
17442TIP3    H152211   8.321   0.464   4.722
17442TIP3    H252212   8.375   0.373   4.615
17443TIP3   OH252213   8.810   0.521   4.318
17443TIP3    H152214   8.783   0.606   4.283
17443TIP3    H252215   8.877   0.491   4.257
17444TIP3   OH252216   9.021   0.849   5.490
17444TIP3    H152217   8.987   0.792   5.559
17444TIP3    H252218   9.116   0.836   5.493
17445TIP3   OH252219   8.901   0.534   4.587
17445TIP3    H152220   8.852   0.551   4.507
17445TIP3    H252221   8.976   0.481   4.558
17446TIP3   OH252222   8.195   0.547   5.342
17446TIP3    H152223   8.176   0.633   5.380
17446TIP3    H252224   8.169   0.484   5.410
17447TIP3   OH252225   8.193   0.041   4.101
17447TIP3    H152226   8.279   0.025   4.141
17447TIP3    H252227   8.169  -0.042   4.060
17448TIP3   OH252228   7.933   0.132   4.960
17448TIP3    H152229   7.876   0.205   4.981
17448TIP3    H252230   7.904   0.103   4.873
17449TIP3   OH252231   7.785   0.112   4.475
17449TIP3    H152232   7.843   0.150   4.409
17449TIP3    H252233   7.726   0.184   4.499
17450TIP3   OH252234   9.042   0.802   5.054
17450TIP3    H152235   9.047   0.746   4.976
17450TIP3    H252236   8.951   0.793   5.083
17451TIP3   OH252237   8.654   0.261   4.706
17451TIP3    H152238   8.563   0.266   4.735
17451TIP3    H252239   8.700   0.326   4.759
17452TIP3   OH252240   8.122   0.347   4.783
17452TIP3    H152241   8.032   0.363   4.756
17452TIP3    H252242   8.144   0.262   4.744
17453TIP3   OH252243   8.358   0.334   4.438
17453TIP3    H152244   8.447   0.299   4.446
17453TIP3    H252245   8.357   0.377   4.353
17454TIP3   OH252246   9.102   0.393   4.930
17454TIP3    H152247   9.083   0.412   5.022
17454TIP3    H252248   9.042   0.322   4.908
17455TIP3   OH252249   8.111   0.295   4.151
17455TIP3    H152250   8.132   0.203   4.135
17455TIP3    H252251   8.142   0.340   4.072
17456TIP3   OH252252   8.740   0.484   4.832
17456TIP3    H152253   8.829   0.510   4.810
17456TIP3    H252254   8.712   0.546   4.899
17457TIP3   OH252255   8.216   0.097   4.708
17457TIP3    H152256   8.175   0.026   4.757
17457TIP3    H252257   8.226   0.061   4.619
17458TIP3   OH252258   8.667   0.476   5.191
17458TIP3    H152259   8.635   0.529   5.118
17458TIP3    H252260   8.737   0.527   5.230
17459TIP3   OH252261   8.859   0.229   4.132
17459TIP3    H152262   8.764   0.229   4.120
17459TIP3    H252263   8.886   0.319   4.109
17460TIP3   OH252264   8.989   0.473   4.102
17460TIP3    H152265   9.075   0.478   4.143
17460TIP3    H252266   9.007   0.480   4.008
17461TIP3   OH252267   8.773   0.967   5.553
17461TIP3    H152268   8.723   0.972   5.471
17461TIP3    H252269   8.862   0.945   5.525
17462TIP3   OH252270   9.368   0.614   4.014
17462TIP3    H152271   9.301   0.581   3.954
17462TIP3    H252272   9.387   0.702   3.982
17463TIP3   OH252273   8.192   0.326   5.542
17463TIP3    H152274   8.098   0.341   5.551
17463TIP3    H252275   8.217   0.283   5.624
17464TIP3   OH252276   9.038   0.441   5.192
17464TIP3    H152277   9.120   0.482   5.219
17464TIP3    H252278   9.030   0.364   5.248
17465TIP3   OH252279   8.933   0.182   4.392
17465TIP3    H152280   8.905   0.201   4.302
17465TIP3    H252281   8.985   0.258   4.418
17466TIP3   OH252282   8.643   0.324   4.435
17466TIP3    H152283   8.703   0.388   4.396
17466TIP3    H252284   8.667   0.321   4.528
17467TIP3   OH252285   8.867   0.628   5.302
17467TIP3    H152286   8.885   0.626   5.396
17467TIP3    H252287   8.933   0.570   5.264
17468TIP3   OH252288   8.756   0.056   4.560
17468TIP3    H152289   8.729   0.130   4.614
17468TIP3    H252290   8.826   0.092   4.504
17469TIP3   OH252291   8.254   0.071   4.412
17469TIP3    H152292   8.251   0.167   4.411
17469TIP3    H252293   8.345   0.050   4.393
17470TIP3   OH252294   9.511   0.603   5.241
17470TIP3    H152295   9.417   0.589   5.243
17470TIP3    H252296   9.537   0.581   5.151
17471TIP3   OH252297   9.170   0.729   4.572
17471TIP3    H152298   9.132   0.806   4.613
17471TIP3    H252299   9.236   0.699   4.634
17472TIP3   OH252300   4.907   9.259   5.125
17472TIP3    H152301   4.857   9.241   5.045
17472TIP3    H252302   4.896   9.180   5.178
17473TIP3   OH252303   8.295   0.926   5.746
17473TIP3    H152304   8.313   0.832   5.737
17473TIP3    H252305   8.213   0.930   5.796
17474TIP3   OH252306   8.453   0.680   5.419
17474TIP3    H152307   8.370   0.659   5.461
17474TIP3    H252308   8.477   0.766   5.455
17475TIP3   OH252309   6.825   0.466   5.765
17475TIP3    H152310   6.761   0.483   5.833
17475TIP3    H252311   6.909   0.461   5.812
17476TIP3   OH252312   8.618   0.504   5.561
17476TIP3    H152313   8.607   0.422   5.513
17476TIP3    H252314   8.570   0.569   5.508
17477TIP3   OH252315   8.575   0.304   5.373
17477TIP3    H152316   8.611   0.361   5.305
17477TIP3    H252317   8.484   0.289   5.345
17478TIP3   OH252318   9.294   0.823   5.546
17478TIP3    H152319   9.319   0.739   5.585
17478TIP3    H252320   9.368   0.846   5.490
17479TIP3   OH252321   8.373   0.665   5.716
17479TIP3    H152322   8.365   0.576   5.751
17479TIP3    H252323   8.467   0.682   5.713
17480TIP3   OH252324   8.758   0.115   5.431
17480TIP3    H152325   8.698   0.187   5.409
17480TIP3    H252326   8.707   0.036   5.415
17481TIP3   OH252327   8.881   0.585   5.580
17481TIP3    H152328   8.878   0.641   5.658
17481TIP3    H252329   8.793   0.547   5.575
17482TIP3   OH252330   9.136   0.544   5.489
17482TIP3    H152331   9.051   0.540   5.533
17482TIP3    H252332   9.200   0.538   5.560
17483TIP3   OH252333   9.353   0.559   5.665
17483TIP3    H152334   9.373   0.466   5.661
17483TIP3    H252335   9.353   0.581   5.758
17484TIP3   OH252336   8.311   0.428   5.841
17484TIP3    H152337   8.317   0.341   5.802
17484TIP3    H252338   8.361   0.422   5.922
17485TIP3   OH252339   8.813   0.136   5.698
17485TIP3    H152340   8.885   0.073   5.697
17485TIP3    H252341   8.783   0.140   5.608
17486TIP3   OH252342   8.913   0.349   5.843
17486TIP3    H152343   8.890   0.275   5.787
17486TIP3    H252344   8.834   0.404   5.843
17487TIP3   OH252345   9.185   0.518   3.842
17487TIP3    H152346   9.209   0.550   3.755
17487TIP3    H252347   9.170   0.424   3.830
17488TIP3   OH252348   9.333   0.723   4.348
17488TIP3    H152349   9.297   0.639   4.320
17488TIP3    H252350   9.285   0.745   4.428
17489TIP3   OH252351   9.688   1.037   5.366
17489TIP3    H152352   9.620   0.976   5.339
17489TIP3    H252353   9.763   1.016   5.310
17490TIP3   OH252354   9.156   0.246   3.820
17490TIP3    H152355   9.235   0.211   3.861
17490TIP3    H252356   9.090   0.178   3.831
17491TIP3   OH252357   9.242   0.484   4.228
17491TIP3    H152358   9.287   0.400   4.242
17491TIP3    H252359   9.291   0.525   4.157
17492TIP3   OH252360   9.380   0.642   4.734
17492TIP3    H152361   9.455   0.668   4.679
17492TIP3    H252362   9.401   0.676   4.821
17493TIP3   OH252363   9.502   0.801   4.930
17493TIP3    H152364   9.458   0.882   4.956
17493TIP3    H252365   9.540   0.821   4.844
17494TIP3   OH252366   8.039   0.528   5.781
17494TIP3    H152367   8.127   0.523   5.742
17494TIP3    H252368   8.015   0.436   5.795
17495TIP3   OH252369   0.105   0.420   5.533
17495TIP3    H152370   0.169   0.362   5.491
17495TIP3    H252371   0.068   0.470   5.461
17496TIP3   OH252372   9.349   0.239   4.291
17496TIP3    H152373   9.392   0.227   4.375
17496TIP3    H252374   9.283   0.169   4.288
17497TIP3   OH252375   7.878   0.497   5.254
17497TIP3    H152376   7.931   0.494   5.174
17497TIP3    H252377   7.842   0.586   5.255
17498TIP3   OH252378   9.754   0.528   5.336
17498TIP3    H152379   9.668   0.570   5.329
17498TIP3    H252380   9.747   0.449   5.283
17499TIP3   OH252381   9.391   0.167   3.935
17499TIP3    H152382   9.430   0.108   3.870
17499TIP3    H252383   9.447   0.244   3.934
17500TIP3   OH252384   7.810   0.022   4.729
17500TIP3    H152385   7.722  -0.014   4.746
17500TIP3    H252386   7.804   0.057   4.640
17501TIP3   OH252387   9.665   0.289   5.224
17501TIP3    H152388   9.583   0.292   5.175
17501TIP3    H252389   9.695   0.198   5.214
17502TIP3   OH252390   8.922   0.192   4.878
17502TIP3    H152391   8.846   0.136   4.890
17502TIP3    H252392   8.974   0.149   4.810
17503TIP3   OH252393   9.375   0.128   4.754
17503TIP3    H152394   9.419   0.176   4.684
17503TIP3    H252395   9.284   0.157   4.748
17504TIP3   OH252396   9.497   0.201   4.520
17504TIP3    H152397   9.567   0.141   4.494
17504TIP3    H252398   9.533   0.288   4.505
17505TIP3   OH252399   4.849   9.135   4.869
17505TIP3    H152400   4.760   9.103   4.882
17505TIP3    H252401   4.904   9.056   4.869
17506TIP3   OH252402   4.632   9.042   4.530
17506TIP3    H152403   4.676   9.081   4.454
17506TIP3    H252404   4.622   9.114   4.592
17507TIP3   OH252405   5.319   9.186   4.758
17507TIP3    H152406   5.371   9.218   4.684
17507TIP3    H252407   5.369   9.213   4.835
17508TIP3   OH252408   9.095   0.058   4.713
17508TIP3    H152409   9.141   0.021   4.638
17508TIP3    H252410   9.100  -0.010   4.780
17509TIP3   OH252411   9.152   0.040   4.299
17509TIP3    H152412   9.074   0.087   4.329
17509TIP3    H252413   9.143  -0.047   4.338
17510TIP3   OH252414   4.767   9.162   4.327
17510TIP3    H152415   4.780   9.151   4.233
17510TIP3    H252416   4.840   9.217   4.355
17511TIP3   OH252417   8.525   0.085   4.364
17511TIP3    H152418   8.560  -0.002   4.382
17511TIP3    H252419   8.589   0.146   4.402
17512TIP3   OH252420   8.330   0.169   5.742
17512TIP3    H152421   8.301   0.104   5.806
17512TIP3    H252422   8.423   0.181   5.759
17513TIP3   OH252423   8.580   0.187   5.853
17513TIP3    H152424   8.663   0.173   5.808
17513TIP3    H252425   8.579   0.121   5.922
17514TIP3   OH252426   9.417   0.292   5.653
17514TIP3    H152427   9.435   0.260   5.742
17514TIP3    H252428   9.501   0.285   5.608
17515TIP3   OH252429   9.568   0.673   4.205
17515TIP3    H152430   9.510   0.709   4.272
17515TIP3    H252431   9.509   0.645   4.135
17516TIP3   OH252432   1.034   0.926   4.337
17516TIP3    H152433   0.988   0.868   4.398
17516TIP3    H252434   1.002   0.901   4.251
17517TIP3   OH252435   0.369   0.563   4.306
17517TIP3    H152436   0.348   0.642   4.256
17517TIP3    H252437   0.308   0.497   4.273
17518TIP3   OH252438   1.082   0.663   3.955
17518TIP3    H152439   1.140   0.663   4.031
17518TIP3    H252440   1.137   0.635   3.882
17519TIP3   OH252441  -0.014   0.769   4.474
17519TIP3    H152442   0.072   0.734   4.497
17519TIP3    H252443  -0.023   0.753   4.380
17520TIP3   OH252444   0.412   0.950   4.314
17520TIP3    H152445   0.505   0.947   4.292
17520TIP3    H252446   0.370   0.898   4.246
17521TIP3   OH252447   0.328   0.552   4.786
17521TIP3    H152448   0.271   0.496   4.732
17521TIP3    H252449   0.274   0.575   4.862
17522TIP3   OH252450   1.272   0.671   4.151
17522TIP3    H152451   1.213   0.664   4.226
17522TIP3    H252452   1.318   0.754   4.164
17523TIP3   OH252453   0.222   0.645   4.532
17523TIP3    H152454   0.287   0.690   4.587
17523TIP3    H252455   0.273   0.607   4.460
17524TIP3   OH252456   1.394   0.590   4.415
17524TIP3    H152457   1.337   0.668   4.415
17524TIP3    H252458   1.401   0.567   4.322
17525TIP3   OH252459   0.610   0.791   3.488
17525TIP3    H152460   0.665   0.866   3.511
17525TIP3    H252461   0.661   0.742   3.423
17526TIP3   OH252462   1.311   0.271   3.609
17526TIP3    H152463   1.234   0.264   3.666
17526TIP3    H252464   1.312   0.363   3.582
17527TIP3   OH252465   0.999   0.285   4.828
17527TIP3    H152466   1.025   0.373   4.855
17527TIP3    H252467   0.903   0.285   4.834
17528TIP3   OH252468   1.254   0.825   4.825
17528TIP3    H152469   1.257   0.873   4.908
17528TIP3    H252470   1.201   0.880   4.767
17529TIP3   OH252471   0.601   0.383   3.604
17529TIP3    H152472   0.562   0.393   3.691
17529TIP3    H252473   0.563   0.302   3.571
17530TIP3   OH252474   0.360   0.904   4.574
17530TIP3    H152475   0.267   0.915   4.589
17530TIP3    H252476   0.373   0.927   4.482
17531TIP3   OH252477   0.279   0.771   4.149
17531TIP3    H152478   0.189   0.753   4.176
17531TIP3    H252479   0.284   0.736   4.059
17532TIP3   OH252480   0.758   0.852   3.864
17532TIP3    H152481   0.705   0.926   3.832
17532TIP3    H252482   0.816   0.831   3.792
17533TIP3   OH252483   0.964   1.194   5.144
17533TIP3    H152484   0.920   1.125   5.095
17533TIP3    H252485   1.047   1.206   5.100
17534TIP3   OH252486   0.925   0.861   4.088
17534TIP3    H152487   0.854   0.869   4.024
17534TIP3    H252488   0.983   0.795   4.051
17535TIP3   OH252489   0.195   0.895   4.890
17535TIP3    H152490   0.128   0.936   4.944
17535TIP3    H252491   0.202   0.805   4.924
17536TIP3   OH252492   0.264   0.381   3.577
17536TIP3    H152493   0.253   0.389   3.672
17536TIP3    H252494   0.191   0.430   3.540
17537TIP3   OH252495   9.613   0.431   4.444
17537TIP3    H152496   9.676   0.473   4.502
17537TIP3    H252497   9.656   0.431   4.358
17538TIP3   OH252498   9.534   0.404   3.940
17538TIP3    H152499   9.582   0.442   3.866
17538TIP3    H252500   9.477   0.475   3.970
17539TIP3   OH252501   0.997   1.157   4.479
17539TIP3    H152502   1.002   1.095   4.405
17539TIP3    H252503   0.905   1.154   4.506
17540TIP3   OH252504   0.635   0.564   4.203
17540TIP3    H152505   0.556   0.567   4.258
17540TIP3    H252506   0.707   0.554   4.265
17541TIP3   OH252507   0.040   0.655   4.220
17541TIP3    H152508  -0.054   0.656   4.200
17541TIP3    H252509   0.067   0.564   4.205
17542TIP3   OH252510   0.283   0.647   3.902
17542TIP3    H152511   0.374   0.663   3.877
17542TIP3    H252512   0.233   0.667   3.823
17543TIP3   OH252513   1.102   0.628   4.357
17543TIP3    H152514   1.107   0.657   4.448
17543TIP3    H252515   1.012   0.597   4.347
17544TIP3   OH252516   0.123   0.659   3.669
17544TIP3    H152517   0.083   0.610   3.597
17544TIP3    H252518   0.193   0.710   3.628
17545TIP3   OH252519   0.692   0.923   4.309
17545TIP3    H152520   0.761   0.878   4.260
17545TIP3    H252521   0.683   0.873   4.390
17546TIP3   OH252522   0.167   0.399   4.198
17546TIP3    H152523   0.143   0.324   4.252
17546TIP3    H252524   0.181   0.362   4.111
17547TIP3   OH252525   0.619   0.798   4.558
17547TIP3    H152526   0.529   0.828   4.566
17547TIP3    H252527   0.667   0.844   4.627
17548TIP3   OH252528   0.829   0.525   3.624
17548TIP3    H152529   0.745   0.479   3.615
17548TIP3    H252530   0.809   0.616   3.601
17549TIP3   OH252531   0.921   0.803   3.643
17549TIP3    H152532   0.982   0.730   3.657
17549TIP3    H252533   0.969   0.863   3.586
17550TIP3   OH252534   0.596   1.184   5.149
17550TIP3    H152535   0.589   1.255   5.085
17550TIP3    H252536   0.653   1.119   5.107
17551TIP3   OH252537   0.191   0.631   5.009
17551TIP3    H152538   0.095   0.630   5.020
17551TIP3    H252539   0.223   0.572   5.077
17552TIP3   OH252540   1.145   0.647   4.636
17552TIP3    H152541   1.211   0.703   4.678
17552TIP3    H252542   1.096   0.609   4.708
17553TIP3   OH252543   0.913   0.453   3.878
17553TIP3    H152544   0.884   0.478   3.791
17553TIP3    H252545   0.959   0.530   3.911
17554TIP3   OH252546   0.577   0.654   3.946
17554TIP3    H152547   0.641   0.721   3.921
17554TIP3    H252548   0.594   0.638   4.039
17555TIP3   OH252549   0.765   0.914   4.763
17555TIP3    H152550   0.757   0.960   4.847
17555TIP3    H252551   0.826   0.843   4.780
17556TIP3   OH252552   0.725   0.349   4.050
17556TIP3    H152553   0.701   0.426   4.100
17556TIP3    H252554   0.793   0.380   3.989
17557TIP3   OH252555   0.238   0.374   3.858
17557TIP3    H152556   0.230   0.466   3.884
17557TIP3    H252557   0.332   0.356   3.863
17558TIP3   OH252558   1.532   0.816   4.745
17558TIP3    H152559   1.461   0.880   4.737
17558TIP3    H252560   1.551   0.789   4.655
17559TIP3   OH252561   9.632   0.568   3.744
17559TIP3    H152562   9.718   0.612   3.745
17559TIP3    H252563   9.595   0.590   3.659
17560TIP3   OH252564   0.140   0.273   4.608
17560TIP3    H152565   0.137   0.242   4.518
17560TIP3    H252566   0.161   0.195   4.660
17561TIP3   OH252567   0.174   1.073   5.238
17561TIP3    H152568   0.262   1.037   5.231
17561TIP3    H252569   0.187   1.168   5.235
17562TIP3   OH252570   0.398   1.056   4.800
17562TIP3    H152571   0.316   1.020   4.832
17562TIP3    H252572   0.408   1.021   4.711
17563TIP3   OH252573   0.334   0.768   3.535
17563TIP3    H152574   0.298   0.762   3.447
17563TIP3    H252575   0.428   0.776   3.523
17564TIP3   OH252576   0.658   0.657   5.075
17564TIP3    H152577   0.637   0.636   4.984
17564TIP3    H252578   0.583   0.709   5.105
17565TIP3   OH252579   0.569   0.666   4.815
17565TIP3    H152580   0.607   0.669   4.727
17565TIP3    H252581   0.490   0.613   4.806
17566TIP3   OH252582   0.425   0.940   5.234
17566TIP3    H152583   0.376   0.863   5.262
17566TIP3    H252584   0.446   0.923   5.142
17567TIP3   OH252585   0.880   0.781   5.168
17567TIP3    H152586   0.854   0.814   5.254
17567TIP3    H252587   0.809   0.722   5.143
17568TIP3   OH252588   0.969   0.773   4.915
17568TIP3    H152589   0.948   0.771   5.008
17568TIP3    H252590   1.040   0.710   4.905
17569TIP3   OH252591   1.412   0.860   5.262
17569TIP3    H152592   1.350   0.793   5.233
17569TIP3    H252593   1.357   0.924   5.308
17570TIP3   OH252594   0.293   0.722   5.328
17570TIP3    H152595   0.288   0.636   5.287
17570TIP3    H252596   0.329   0.706   5.415
17571TIP3   OH252597   0.827   0.408   5.106
17571TIP3    H152598   0.832   0.314   5.127
17571TIP3    H252599   0.764   0.413   5.034
17572TIP3   OH252600   0.774   0.556   5.350
17572TIP3    H152601   0.806   0.522   5.266
17572TIP3    H252602   0.739   0.643   5.328
17573TIP3   OH252603   1.104   0.550   3.323
17573TIP3    H152604   1.148   0.514   3.245
17573TIP3    H252605   1.031   0.491   3.338
17574TIP3   OH252606   0.029   0.786   5.261
17574TIP3    H152607   0.122   0.802   5.275
17574TIP3    H252608   0.010   0.706   5.309
17575TIP3   OH252609   1.263   0.523   3.805
17575TIP3    H152610   1.343   0.520   3.858
17575TIP3    H252611   1.228   0.434   3.811
17576TIP3   OH252612   0.002   0.503   4.639
17576TIP3    H152613   0.045   0.417   4.633
17576TIP3    H252614   0.068   0.564   4.605
17577TIP3   OH252615   9.606   0.823   4.675
17577TIP3    H152616   9.666   0.781   4.613
17577TIP3    H252617   9.609   0.916   4.652
17578TIP3   OH252618   9.609   0.262   4.163
17578TIP3    H152619   9.524   0.248   4.206
17578TIP3    H252620   9.589   0.320   4.089
17579TIP3   OH252621   0.040   0.337   5.010
17579TIP3    H152622  -0.017   0.326   5.086
17579TIP3    H252623  -0.018   0.368   4.941
17580TIP3   OH252624   1.750   0.627   4.778
17580TIP3    H152625   1.664   0.653   4.746
17580TIP3    H252626   1.757   0.534   4.755
17581TIP3   OH252627   0.866   0.480   4.330
17581TIP3    H152628   0.859   0.421   4.405
17581TIP3    H252629   0.929   0.437   4.272
17582TIP3   OH252630   1.351   0.372   4.180
17582TIP3    H152631   1.393   0.434   4.120
17582TIP3    H252632   1.260   0.400   4.184
17583TIP3   OH252633   1.491   0.496   3.968
17583TIP3    H152634   1.552   0.430   3.937
17583TIP3    H252635   1.540   0.544   4.035
17584TIP3   OH252636   0.107   0.171   4.348
17584TIP3    H152637   0.018   0.136   4.357
17584TIP3    H252638   0.162   0.093   4.340
17585TIP3   OH252639   9.722   0.069   3.992
17585TIP3    H152640   9.753   0.119   3.916
17585TIP3    H252641   9.691   0.135   4.053
17586TIP3   OH252642   0.566   0.211   4.236
17586TIP3    H152643   0.621   0.256   4.171
17586TIP3    H252644   0.567   0.269   4.312
17587TIP3   OH252645   1.067   0.359   4.180
17587TIP3    H152646   1.052   0.328   4.091
17587TIP3    H252647   1.072   0.280   4.233
17588TIP3   OH252648   1.121   0.281   3.806
17588TIP3    H152649   1.038   0.325   3.825
17588TIP3    H252650   1.106   0.190   3.829
17589TIP3   OH252651   0.033   0.205   3.763
17589TIP3    H152652   0.080   0.147   3.704
17589TIP3    H252653   0.101   0.261   3.800
17590TIP3   OH252654   0.513   0.400   3.865
17590TIP3    H152655   0.570   0.348   3.922
17590TIP3    H252656   0.531   0.491   3.889
17591TIP3   OH252657   0.297   0.467   5.219
17591TIP3    H152658   0.258   0.387   5.255
17591TIP3    H252659   0.387   0.466   5.251
17592TIP3   OH252660   0.526   0.451   5.365
17592TIP3    H152661   0.618   0.475   5.351
17592TIP3    H252662   0.529   0.376   5.424
17593TIP3   OH252663   1.529   0.497   5.219
17593TIP3    H152664   1.573   0.507   5.303
17593TIP3    H252665   1.592   0.531   5.155
17594TIP3   OH252666   6.056   5.709   0.803
17594TIP3    H152667   6.028   5.773   0.738
17594TIP3    H252668   6.132   5.748   0.845
17595TIP3   OH252669   5.982   6.208   0.842
17595TIP3    H152670   5.985   6.201   0.747
17595TIP3    H252671   5.953   6.122   0.872
17596TIP3   OH252672   5.744   5.755   0.814
17596TIP3    H152673   5.740   5.660   0.820
17596TIP3    H252674   5.755   5.772   0.720
17597TIP3   OH252675   7.354   5.715   1.214
17597TIP3    H152676   7.281   5.777   1.215
17597TIP3    H252677   7.345   5.669   1.131
17598TIP3   OH252678   7.758   6.040   1.178
17598TIP3    H152679   7.776   5.968   1.238
17598TIP3    H252680   7.674   6.018   1.138
17599TIP3   OH252681   7.395   6.371   1.196
17599TIP3    H152682   7.479   6.359   1.150
17599TIP3    H252683   7.420   6.409   1.280
17600TIP3   OH252684   7.289   5.934   0.948
17600TIP3    H152685   7.329   5.953   1.033
17600TIP3    H252686   7.257   6.019   0.917
17601TIP3   OH252687   7.621   6.330   1.044
17601TIP3    H152688   7.597   6.247   1.003
17601TIP3    H252689   7.681   6.371   0.982
17602TIP3   OH252690   7.537   6.113   0.914
17602TIP3    H152691   7.496   6.095   0.830
17602TIP3    H252692   7.530   6.030   0.962
17603TIP3   OH252693   7.284   5.565   0.998
17603TIP3    H152694   7.243   5.618   0.929
17603TIP3    H252695   7.311   5.485   0.953
17604TIP3   OH252696   7.306   5.276   0.520
17604TIP3    H152697   7.318   5.304   0.611
17604TIP3    H252698   7.323   5.181   0.523
17605TIP3   OH252699   7.657   5.662   0.923
17605TIP3    H152700   7.644   5.641   1.016
17605TIP3    H252701   7.724   5.601   0.893
17606TIP3   OH252702   7.550   5.501   0.687
17606TIP3    H152703   7.553   5.593   0.710
17606TIP3    H252704   7.548   5.499   0.592
17607TIP3   OH252705   7.201   6.197   0.958
17607TIP3    H152706   7.209   6.166   1.048
17607TIP3    H252707   7.108   6.193   0.938
17608TIP3   OH252708   7.824   6.079   0.203
17608TIP3    H152709   7.829   6.174   0.194
17608TIP3    H252710   7.915   6.049   0.192
17609TIP3   OH252711   7.392   6.338   0.354
17609TIP3    H152712   7.435   6.259   0.324
17609TIP3    H252713   7.378   6.324   0.448
17610TIP3   OH252714   7.317   6.350   0.621
17610TIP3    H152715   7.281   6.261   0.627
17610TIP3    H252716   7.346   6.370   0.710
17611TIP3   OH252717   7.544   5.532   0.416
17611TIP3    H152718   7.470   5.515   0.358
17611TIP3    H252719   7.612   5.567   0.359
17612TIP3   OH252720   7.413   5.168   0.998
17612TIP3    H152721   7.472   5.242   0.982
17612TIP3    H252722   7.372   5.152   0.913
17613TIP3   OH252723   6.780   5.154   0.746
17613TIP3    H152724   6.711   5.104   0.789
17613TIP3    H252725   6.861   5.120   0.783
17614TIP3   OH252726   7.050   5.672   0.883
17614TIP3    H152727   7.003   5.620   0.818
17614TIP3    H252728   7.032   5.628   0.966
17615TIP3   OH252729   7.609   5.221   0.728
17615TIP3    H152730   7.641   5.191   0.813
17615TIP3    H252731   7.612   5.316   0.734
17616TIP3   OH252732   7.215   5.891   0.626
17616TIP3    H152733   7.186   5.982   0.627
17616TIP3    H252734   7.179   5.854   0.706
17617TIP3   OH252735   8.045   5.235   0.564
17617TIP3    H152736   8.021   5.195   0.481
17617TIP3    H252737   8.090   5.316   0.540
17618TIP3   OH252738   7.891   6.140   0.466
17618TIP3    H152739   7.836   6.110   0.538
17618TIP3    H252740   7.852   6.099   0.388
17619TIP3   OH252741   6.720   6.218   0.973
17619TIP3    H152742   6.667   6.257   1.043
17619TIP3    H252743   6.786   6.286   0.954
17620TIP3   OH252744   7.558   5.910   0.449
17620TIP3    H152745   7.601   5.863   0.520
17620TIP3    H252746   7.480   5.858   0.430
17621TIP3   OH252747   7.852   6.351   0.215
17621TIP3    H152748   7.903   6.425   0.181
17621TIP3    H252749   7.769   6.390   0.243
17622TIP3   OH252750   7.694   5.778   0.649
17622TIP3    H152751   7.683   5.812   0.738
17622TIP3    H252752   7.777   5.816   0.619
17623TIP3   OH252753   6.832   5.848   0.381
17623TIP3    H152754   6.831   5.760   0.345
17623TIP3    H252755   6.804   5.837   0.472
17624TIP3   OH252756   6.792   5.866   0.654
17624TIP3    H152757   6.876   5.836   0.689
17624TIP3    H252758   6.787   5.958   0.678
17625TIP3   OH252759   7.136   6.148   0.635
17625TIP3    H152760   7.088   6.148   0.717
17625TIP3    H252761   7.070   6.129   0.568
17626TIP3   OH252762   6.737   6.143   0.681
17626TIP3    H152763   6.771   6.208   0.620
17626TIP3    H252764   6.691   6.195   0.747
17627TIP3   OH252765   6.574   5.733   0.763
17627TIP3    H152766   6.650   5.781   0.730
17627TIP3    H252767   6.608   5.646   0.785
17628TIP3   OH252768   7.658   6.501   1.255
17628TIP3    H152769   7.661   6.455   1.171
17628TIP3    H252770   7.726   6.568   1.248
17629TIP3   OH252771   7.089   6.122   0.232
17629TIP3    H152772   7.058   6.092   0.318
17629TIP3    H252773   7.158   6.060   0.209
17630TIP3   OH252774   7.494   6.105   0.260
17630TIP3    H152775   7.535   6.046   0.323
17630TIP3    H252776   7.546   6.095   0.181
17631TIP3   OH252777   6.689   5.616   0.519
17631TIP3    H152778   6.743   5.622   0.597
17631TIP3    H252779   6.745   5.576   0.453
17632TIP3   OH252780   7.349   5.761   0.366
17632TIP3    H152781   7.257   5.774   0.391
17632TIP3    H252782   7.351   5.674   0.326
17633TIP3   OH252783   6.935   5.402   0.878
17633TIP3    H152784   6.970   5.370   0.961
17633TIP3    H252785   6.982   5.352   0.812
17634TIP3   OH252786   7.049   5.267   0.666
17634TIP3    H152787   6.961   5.282   0.630
17634TIP3    H252788   7.105   5.254   0.589
17635TIP3   OH252789   7.766   5.599   0.253
17635TIP3    H152790   7.775   5.552   0.170
17635TIP3    H252791   7.740   5.687   0.229
17636TIP3   OH252792   6.808   6.319   0.482
17636TIP3    H152793   6.806   6.370   0.401
17636TIP3    H252794   6.768   6.376   0.548
17637TIP3   OH252795   6.334   5.667   0.873
17637TIP3    H152796   6.417   5.712   0.855
17637TIP3    H252797   6.303   5.639   0.787
17638TIP3   OH252798   8.107   6.544   1.164
17638TIP3    H152799   8.094   6.553   1.259
17638TIP3    H252800   8.107   6.634   1.131
17639TIP3   OH252801   7.947   5.853   0.592
17639TIP3    H152802   8.008   5.912   0.547
17639TIP3    H252803   7.979   5.851   0.682
17640TIP3   OH252804   8.204   5.774   0.750
17640TIP3    H152805   8.141   5.706   0.772
17640TIP3    H252806   8.160   5.856   0.772
17641TIP3   OH252807   8.109   5.994   1.103
17641TIP3    H152808   8.181   5.966   1.160
17641TIP3    H252809   8.096   6.086   1.126
17642TIP3   OH252810   8.005   5.663   0.394
17642TIP3    H152811   7.930   5.654   0.335
17642TIP3    H252812   7.979   5.731   0.456
17643TIP3   OH252813   7.946   5.192   0.304
17643TIP3    H152814   7.905   5.271   0.340
17643TIP3    H252815   7.873   5.141   0.269
17644TIP3   OH252816   7.821   5.440   0.968
17644TIP3    H152817   7.883   5.396   0.909
17644TIP3    H252818   7.867   5.445   1.052
17645TIP3   OH252819   7.896   5.075   0.783
17645TIP3    H152820   7.834   5.054   0.853
17645TIP3    H252821   7.910   5.169   0.791
17646TIP3   OH252822   7.637   6.380   0.751
17646TIP3    H152823   7.698   6.388   0.677
17646TIP3    H252824   7.636   6.467   0.791
17647TIP3   OH252825   6.325   6.099   1.076
17647TIP3    H152826   6.244   6.048   1.080
17647TIP3    H252827   6.365   6.074   0.992
17648TIP3   OH252828   7.790   6.385   0.528
17648TIP3    H152829   7.828   6.302   0.500
17648TIP3    H252830   7.743   6.417   0.450
17649TIP3   OH252831   6.319   6.168   0.620
17649TIP3    H152832   6.341   6.231   0.689
17649TIP3    H252833   6.401   6.150   0.576
17650TIP3   OH252834   9.260   5.933   0.535
17650TIP3    H152835   9.231   6.017   0.499
17650TIP3    H252836   9.200   5.869   0.497
17651TIP3   OH252837   9.352   5.892   0.843
17651TIP3    H152838   9.383   5.808   0.876
17651TIP3    H252839   9.310   5.870   0.759
17652TIP3   OH252840   8.574   5.706   1.218
17652TIP3    H152841   8.594   5.743   1.304
17652TIP3    H252842   8.652   5.727   1.165
17653TIP3   OH252843   9.525   6.243   0.611
17653TIP3    H152844   9.546   6.171   0.670
17653TIP3    H252845   9.554   6.321   0.658
17654TIP3   OH252846   8.599   6.223   0.933
17654TIP3    H152847   8.522   6.181   0.971
17654TIP3    H252848   8.641   6.154   0.881
17655TIP3   OH252849   8.326   5.333   0.671
17655TIP3    H152850   8.263   5.405   0.661
17655TIP3    H252851   8.323   5.287   0.586
17656TIP3   OH252852   8.322   5.728   0.996
17656TIP3    H152853   8.277   5.645   0.989
17656TIP3    H252854   8.308   5.771   0.912
17657TIP3   OH252855   9.183   6.671   0.613
17657TIP3    H152856   9.214   6.600   0.557
17657TIP3    H252857   9.199   6.640   0.703
17658TIP3   OH252858   9.181   6.205   0.849
17658TIP3    H152859   9.218   6.193   0.761
17658TIP3    H252860   9.256   6.227   0.904
17659TIP3   OH252861   9.471   5.658   0.961
17659TIP3    H152862   9.525   5.594   1.007
17659TIP3    H252863   9.455   5.619   0.876
17660TIP3   OH252864   8.423   5.471   1.182
17660TIP3    H152865   8.510   5.510   1.183
17660TIP3    H252866   8.426   5.404   1.114
17661TIP3   OH252867   8.929   5.673   0.837
17661TIP3    H152868   9.023   5.660   0.830
17661TIP3    H252869   8.892   5.619   0.766
17662TIP3   OH252870   0.341   5.653   1.177
17662TIP3    H152871   0.263   5.698   1.145
17662TIP3    H252872   0.307   5.574   1.218
17663TIP3   OH252873   9.168   6.149   0.384
17663TIP3    H152874   9.135   6.123   0.298
17663TIP3    H252875   9.115   6.225   0.408
17664TIP3   OH252876   8.894   5.991   1.183
17664TIP3    H152877   8.807   6.011   1.218
17664TIP3    H252878   8.912   6.062   1.121
17665TIP3   OH252879   8.707   5.421   1.194
17665TIP3    H152880   8.773   5.477   1.235
17665TIP3    H252881   8.723   5.429   1.100
17666TIP3   OH252882   8.862   6.276   1.271
17666TIP3    H152883   8.875   6.287   1.177
17666TIP3    H252884   8.776   6.314   1.288
17667TIP3   OH252885   8.150   5.986   0.470
17667TIP3    H152886   8.115   6.001   0.382
17667TIP3    H252887   8.166   6.074   0.505
17668TIP3   OH252888   9.567   6.483   0.756
17668TIP3    H152889   9.477   6.474   0.788
17668TIP3    H252890   9.568   6.566   0.710
17669TIP3   OH252891   9.286   6.511   0.408
17669TIP3    H152892   9.340   6.434   0.392
17669TIP3    H252893   9.341   6.585   0.381
17670TIP3   OH252894   9.417   6.276   0.361
17670TIP3    H152895   9.341   6.218   0.365
17670TIP3    H252896   9.465   6.258   0.441
17671TIP3   OH252897   0.026   6.378   1.099
17671TIP3    H152898   0.007   6.307   1.038
17671TIP3    H252899   0.004   6.458   1.051
17672TIP3   OH252900   9.117   5.758   0.372
17672TIP3    H152901   9.035   5.799   0.345
17672TIP3    H252902   9.168   5.750   0.291
17673TIP3   OH252903   9.062   5.577   0.068
17673TIP3    H152904   9.130   5.623   0.117
17673TIP3    H252905   9.109   5.511   0.017
17674TIP3   OH252906   0.179   6.032   0.968
17674TIP3    H152907   0.097   6.081   0.968
17674TIP3    H252908   0.209   6.035   0.878
17675TIP3   OH252909   9.442   5.867   0.332
17675TIP3    H152910   9.391   5.894   0.408
17675TIP3    H252911   9.529   5.848   0.368
17676TIP3   OH252912   9.716   5.896   1.279
17676TIP3    H152913   9.707   5.979   1.325
17676TIP3    H252914   9.631   5.883   1.237
17677TIP3   OH252915   8.719   5.802   0.628
17677TIP3    H152916   8.662   5.758   0.565
17677TIP3    H252917   8.772   5.732   0.666
17678TIP3   OH252918   8.855   6.320   0.730
17678TIP3    H152919   8.795   6.278   0.668
17678TIP3    H252920   8.941   6.284   0.708
17679TIP3   OH252921   8.786   5.776   1.054
17679TIP3    H152922   8.840   5.742   0.983
17679TIP3    H252923   8.840   5.842   1.097
17680TIP3   OH252924   9.328   6.461   0.896
17680TIP3    H152925   9.339   6.551   0.927
17680TIP3    H252926   9.366   6.407   0.966
17681TIP3   OH252927   9.015   6.370   1.477
17681TIP3    H152928   8.964   6.343   1.553
17681TIP3    H252929   8.965   6.337   1.402
17682TIP3   OH252930   9.295   5.713   0.156
17682TIP3    H152931   9.349   5.776   0.204
17682TIP3    H252932   9.324   5.721   0.065
17683TIP3   OH252933   9.038   6.391   0.425
17683TIP3    H152934   9.119   6.441   0.424
17683TIP3    H252935   8.976   6.443   0.374
17684TIP3   OH252936   8.709   6.413   1.515
17684TIP3    H152937   8.715   6.477   1.444
17684TIP3    H252938   8.615   6.408   1.533
17685TIP3   OH252939   8.538   5.651   0.494
17685TIP3    H152940   8.458   5.694   0.462
17685TIP3    H252941   8.521   5.558   0.483
17686TIP3   OH252942   6.341   1.716   7.771
17686TIP3    H152943   6.343   1.811   7.755
17686TIP3    H252944   6.430   1.687   7.757
17687TIP3   OH252945   8.060   6.250   1.177
17687TIP3    H152946   8.142   6.282   1.214
17687TIP3    H252947   7.992   6.289   1.233
17688TIP3   OH252948   0.243   6.754   1.156
17688TIP3    H152949   0.252   6.659   1.162
17688TIP3    H252950   0.164   6.774   1.207
17689TIP3   OH252951   9.236   6.445   1.311
17689TIP3    H152952   9.237   6.535   1.344
17689TIP3    H252953   9.161   6.405   1.355
17690TIP3   OH252954   8.926   6.610   0.248
17690TIP3    H152955   8.882   6.590   0.165
17690TIP3    H252956   8.893   6.696   0.273
17691TIP3   OH252957   8.341   6.478   0.586
17691TIP3    H152958   8.406   6.445   0.648
17691TIP3    H252959   8.284   6.403   0.571
17692TIP3   OH252960   5.860   1.931   7.873
17692TIP3    H152961   5.911   1.858   7.837
17692TIP3    H252962   5.896   1.945   7.960
17693TIP3   OH252963   9.179   6.592   0.141
17693TIP3    H152964   9.094   6.595   0.184
17693TIP3    H252965   9.238   6.556   0.207
17694TIP3   OH252966   0.181   5.901   1.373
17694TIP3    H152967   0.091   5.890   1.343
17694TIP3    H252968   0.189   5.843   1.448
17695TIP3   OH252969   9.634   5.695   1.466
17695TIP3    H152970   9.619   5.737   1.550
17695TIP3    H252971   9.677   5.761   1.413
17696TIP3   OH252972   6.114   1.067   7.891
17696TIP3    H152973   6.056   1.075   7.815
17696TIP3    H252974   6.184   1.130   7.874
17697TIP3   OH252975   8.928   5.577   1.223
17697TIP3    H152976   8.987   5.583   1.298
17697TIP3    H252977   8.873   5.655   1.230
17698TIP3   OH252978   8.799   5.534   0.647
17698TIP3    H152979   8.725   5.480   0.675
17698TIP3    H252980   8.837   5.486   0.573
17699TIP3   OH252981   9.241   5.558   0.520
17699TIP3    H152982   9.189   5.629   0.482
17699TIP3    H252983   9.293   5.525   0.446
17700TIP3   OH252984   9.455   5.566   0.700
17700TIP3    H152985   9.374   5.585   0.653
17700TIP3    H252986   9.481   5.479   0.668
17701TIP3   OH252987   9.465   5.828   1.183
17701TIP3    H152988   9.462   5.787   1.096
17701TIP3    H252989   9.437   5.758   1.242
17702TIP3   OH252990   8.606   5.346   0.703
17702TIP3    H152991   8.511   5.350   0.694
17702TIP3    H252992   8.623   5.261   0.742
17703TIP3   OH252993   8.874   5.350   0.458
17703TIP3    H152994   8.905   5.270   0.416
17703TIP3    H252995   8.789   5.368   0.418
17704TIP3   OH252996   8.645   5.401   0.310
17704TIP3    H152997   8.584   5.342   0.266
17704TIP3    H252998   8.693   5.443   0.239
17705TIP3   OH252999   9.761   7.085   1.248
17705TIP3    H153000   9.750   7.103   1.155
17705TIP3    H253001   9.835   7.139   1.276
17706TIP3   OH253002   9.195   5.636   0.842
17706TIP3    H153003   9.193   5.543   0.821
17706TIP3    H253004   9.203   5.639   0.937
17707TIP3   OH253005   9.264   5.422   1.242
17707TIP3    H153006   9.228   5.460   1.161
17707TIP3    H253007   9.297   5.498   1.290
17708TIP3   OH253008   8.894   5.887   0.277
17708TIP3    H153009   8.819   5.831   0.258
17708TIP3    H253010   8.864   5.945   0.347
17709TIP3   OH253011   9.761   6.188   0.919
17709TIP3    H153012   9.801   6.234   0.846
17709TIP3    H253013   9.688   6.139   0.879
17710TIP3   OH253014   9.341   6.214   1.447
17710TIP3    H153015   9.287   6.157   1.391
17710TIP3    H253016   9.335   6.300   1.406
17711TIP3   OH253017   9.401   5.500   0.307
17711TIP3    H153018   9.496   5.510   0.311
17711TIP3    H253019   9.373   5.567   0.244
17712TIP3   OH253020   8.566   5.926   0.984
17712TIP3    H153021   8.528   5.903   0.899
17712TIP3    H253022   8.636   5.863   0.997
17713TIP3   OH253023   9.033   6.081   0.148
17713TIP3    H153024   8.978   6.159   0.151
17713TIP3    H253025   8.980   6.013   0.190
17714TIP3   OH253026   9.468   6.525   1.189
17714TIP3    H153027   9.382   6.493   1.216
17714TIP3    H253028   9.507   6.559   1.269
17715TIP3   OH253029   9.812   5.579   0.095
17715TIP3    H153030   9.763   5.529   0.030
17715TIP3    H253031   9.806   5.670   0.065
17716TIP3   OH253032   0.273   6.476   1.166
17716TIP3    H153033   0.181   6.449   1.172
17716TIP3    H253034   0.305   6.434   1.086
17717TIP3   OH253035   9.521   6.398   0.034
17717TIP3    H153036   9.502   6.324   0.092
17717TIP3    H253037   9.544   6.358  -0.049
17718TIP3   OH253038   9.578   6.033   0.786
17718TIP3    H153039   9.492   6.008   0.818
17718TIP3    H253040   9.616   5.952   0.751
17719TIP3   OH253041   8.653   6.258   0.539
17719TIP3    H153042   8.643   6.344   0.498
17719TIP3    H253043   8.582   6.255   0.603
17720TIP3   OH253044   8.234   5.561   0.287
17720TIP3    H153045   8.291   5.636   0.301
17720TIP3    H253046   8.147   5.593   0.307
17721TIP3   OH253047   8.780   6.030   0.469
17721TIP3    H153048   8.743   6.111   0.504
17721TIP3    H253049   8.768   5.966   0.540
17722TIP3   OH253050   8.913   6.686   0.994
17722TIP3    H153051   8.976   6.748   0.957
17722TIP3    H253052   8.968   6.618   1.034
17723TIP3   OH253053   8.579   6.508   0.450
17723TIP3    H153054   8.490   6.514   0.485
17723TIP3    H253055   8.614   6.597   0.458
17724TIP3   OH253056   9.373   6.243   1.063
17724TIP3    H153057   9.305   6.218   1.126
17724TIP3    H253058   9.455   6.223   1.107
17725TIP3   OH253059   6.040   1.512   7.922
17725TIP3    H153060   6.089   1.480   7.998
17725TIP3    H253061   5.954   1.472   7.929
17726TIP3   OH253062   9.579   6.770   1.081
17726TIP3    H153063   9.510   6.703   1.079
17726TIP3    H253064   9.560   6.826   1.006
17727TIP3   OH253065   6.361   1.991   7.743
17727TIP3    H153066   6.415   2.065   7.714
17727TIP3    H253067   6.278   2.030   7.771
17728TIP3   OH253068   9.475   6.026   0.108
17728TIP3    H153069   9.457   5.985   0.192
17728TIP3    H253070   9.570   6.043   0.110
17729TIP3   OH253071   8.298   6.356   1.276
17729TIP3    H153072   8.389   6.329   1.270
17729TIP3    H253073   8.299   6.450   1.257
17730TIP3   OH253074   5.388   1.483   7.955
17730TIP3    H153075   5.394   1.392   7.927
17730TIP3    H253076   5.376   1.478   8.050
17731TIP3   OH253077   8.601   6.118   0.228
17731TIP3    H153078   8.657   6.096   0.303
17731TIP3    H253079   8.601   6.213   0.225
17732TIP3   OH253080   8.335   5.799   0.391
17732TIP3    H153081   8.268   5.845   0.441
17732TIP3    H253082   8.359   5.860   0.320
17733TIP3   OH253083   8.874   6.300   0.152
17733TIP3    H153084   8.785   6.320   0.184
17733TIP3    H253085   8.897   6.373   0.096
17734TIP3   OH253086   9.081   5.404   0.683
17734TIP3    H153087   9.138   5.454   0.625
17734TIP3    H253088   9.010   5.373   0.627
17735TIP3   OH253089   9.387   5.641   1.368
17735TIP3    H153090   9.332   5.680   1.436
17735TIP3    H253091   9.474   5.638   1.406
17736TIP3   OH253092   8.619   6.390   0.210
17736TIP3    H153093   8.601   6.457   0.145
17736TIP3    H253094   8.604   6.433   0.294
17737TIP3   OH253095   9.643   5.771   0.713
17737TIP3    H153096   9.574   5.705   0.716
17737TIP3    H253097   9.714   5.735   0.766
17738TIP3   OH253098   8.350   6.000   0.194
17738TIP3    H153099   8.422   6.061   0.210
17738TIP3    H253100   8.389   5.932   0.138
17739TIP3   OH253101   8.258   5.304   0.389
17739TIP3    H153102   8.261   5.391   0.351
17739TIP3    H253103   8.219   5.249   0.321
17740TIP3   OH253104   9.594   6.741   0.662
17740TIP3    H153105   9.552   6.797   0.596
17740TIP3    H253106   9.688   6.753   0.648
17741TIP3   OH253107   8.194   6.240   0.567
17741TIP3    H153108   8.131   6.264   0.635
17741TIP3    H253109   8.157   6.277   0.487
17742TIP3   OH253110   5.543   1.678   7.833
17742TIP3    H153111   5.496   1.609   7.881
17742TIP3    H253112   5.616   1.633   7.792
17743TIP3   OH253113   9.558   6.603   1.438
17743TIP3    H153114   9.508   6.588   1.518
17743TIP3    H253115   9.628   6.663   1.465
17744TIP3   OH253116   5.987   1.721   7.751
17744TIP3    H153117   6.022   1.657   7.814
17744TIP3    H253118   6.048   1.719   7.678
17745TIP3   OH253119   8.494   5.804   0.084
17745TIP3    H153120   8.559   5.778   0.149
17745TIP3    H253121   8.543   5.811   0.002
17746TIP3   OH253122   5.787   1.394   7.885
17746TIP3    H153123   5.767   1.410   7.977
17746TIP3    H253124   5.769   1.301   7.872
17747TIP3   OH253125   9.603   6.284   1.228
17747TIP3    H153126   9.688   6.309   1.191
17747TIP3    H253127   9.550   6.364   1.221
17748TIP3   OH253128   8.681   5.720   0.266
17748TIP3    H153129   8.641   5.689   0.347
17748TIP3    H253130   8.718   5.641   0.226
17749TIP3   OH253131   8.795   5.522   0.114
17749TIP3    H153132   8.763   5.545   0.027
17749TIP3    H253133   8.889   5.542   0.111
17750TIP3   OH253134   6.319   1.212   7.781
17750TIP3    H153135   6.303   1.178   7.693
17750TIP3    H253136   6.299   1.305   7.774
17751TIP3   OH253137   9.222   5.899   1.301
17751TIP3    H153138   9.312   5.898   1.271
17751TIP3    H253139   9.173   5.943   1.231
17752TIP3   OH253140   9.733   6.133   1.422
17752TIP3    H153141   9.671   6.188   1.373
17752TIP3    H253142   9.819   6.167   1.398
17753TIP3   OH253143   8.620   6.604   0.038
17753TIP3    H153144   8.710   6.583   0.013
17753TIP3    H253145   8.583   6.646  -0.040
17754TIP3   OH253146   8.080   5.981   0.192
17754TIP3    H153147   8.175   5.994   0.191
17754TIP3    H253148   8.069   5.890   0.163
17755TIP3   OH253149   7.997   6.559   0.554
17755TIP3    H153150   7.934   6.497   0.518
17755TIP3    H253151   7.973   6.567   0.647
17756TIP3   OH253152   8.056   6.306   0.793
17756TIP3    H153153   7.983   6.366   0.803
17756TIP3    H253154   8.123   6.338   0.854
17757TIP3   OH253155   0.063   6.798   0.660
17757TIP3    H153156   0.084   6.839   0.744
17757TIP3    H253157   0.115   6.846   0.596
17758TIP3   OH253158   0.077   6.838   0.940
17758TIP3    H153159   0.037   6.751   0.930
17758TIP3    H253160   0.150   6.823   1.001
17759TIP3   OH253161   0.158   6.543   1.519
17759TIP3    H153162   0.063   6.553   1.527
17759TIP3    H253163   0.191   6.632   1.510
17760TIP3   OH253164   9.752   6.042   0.126
17760TIP3    H153165   9.805   6.114   0.093
17760TIP3    H253166   9.802   6.006   0.199
17761TIP3   OH253167   0.097   5.904   0.317
17761TIP3    H153168   0.027   5.874   0.374
17761TIP3    H253169   0.161   5.943   0.377
17762TIP3   OH253170   0.136   6.308   0.746
17762TIP3    H153171   0.176   6.243   0.689
17762TIP3    H253172   0.141   6.390   0.697
17763TIP3   OH253173   9.745   6.590   0.945
17763TIP3    H153174   9.679   6.640   0.993
17763TIP3    H253175   9.697   6.549   0.874
17764TIP3   OH253176   6.513   1.200   7.974
17764TIP3    H153177   6.447   1.206   7.904
17764TIP3    H253178   6.498   1.278   8.027
17765TIP3   OH253179   6.391   0.892   7.880
17765TIP3    H153180   6.333   0.967   7.890
17765TIP3    H253181   6.342   0.830   7.825
17766TIP3   OH253182   9.683   5.783   0.444
17766TIP3    H153183   9.680   5.690   0.420
17766TIP3    H253184   9.673   5.784   0.539
17767TIP3   OH253185   8.362   5.912   1.192
17767TIP3    H153186   8.361   5.847   1.123
17767TIP3    H253187   8.455   5.921   1.216
17768TIP3   OH253188   0.192   6.185   1.339
17768TIP3    H153189   0.204   6.090   1.332
17768TIP3    H253190   0.205   6.217   1.250
17769TIP3   OH253191   0.449   5.938   1.323
17769TIP3    H153192   0.360   5.905   1.314
17769TIP3    H253193   0.463   5.946   1.418
17770TIP3   OH253194   9.680   5.524   0.333
17770TIP3    H153195   9.720   5.444   0.366
17770TIP3    H253196   9.728   5.545   0.254
17771TIP3   OH253197   0.047   5.665   0.857
17771TIP3    H153198   0.129   5.686   0.811
17771TIP3    H253199   0.063   5.690   0.948
17772TIP3   OH253200   0.110   5.793   1.094
17772TIP3    H153201   0.039   5.820   1.153
17772TIP3    H253202   0.135   5.873   1.049
17773TIP3   OH253203   9.416   6.726   0.307
17773TIP3    H153204   9.463   6.709   0.225
17773TIP3    H253205   9.468   6.793   0.352
17774TIP3   OH253206   8.725   6.542   1.274
17774TIP3    H153207   8.693   6.630   1.250
17774TIP3    H253208   8.814   6.539   1.240
17775TIP3   OH253209   9.277   6.696   1.411
17775TIP3    H153210   9.318   6.679   1.496
17775TIP3    H253211   9.335   6.757   1.367
17776TIP3   OH253212   9.382   6.884   1.240
17776TIP3    H153213   9.457   6.856   1.188
17776TIP3    H253214   9.413   6.961   1.288
17777TIP3   OH253215   8.368   6.651   1.221
17777TIP3    H153216   8.295   6.680   1.167
17777TIP3    H253217   8.403   6.732   1.259
17778TIP3   OH253218   8.652   6.741   1.063
17778TIP3    H153219   8.605   6.658   1.053
17778TIP3    H253220   8.741   6.722   1.033
17779TIP3   OH253221   9.082   6.851   0.851
17779TIP3    H153222   9.028   6.839   0.773
17779TIP3    H253223   9.092   6.945   0.859
17780TIP3   OH253224   9.335   6.726   0.940
17780TIP3    H153225   9.246   6.752   0.966
17780TIP3    H253226   9.370   6.803   0.894
17781TIP3   OH253227   9.522   6.922   0.857
17781TIP3    H153228   9.514   7.008   0.816
17781TIP3    H253229   9.547   6.864   0.786
17782TIP3   OH253230   8.387   6.633   0.872
17782TIP3    H153231   8.422   6.587   0.948
17782TIP3    H253232   8.404   6.574   0.798
17783TIP3   OH253233   8.541   6.416   0.753
17783TIP3    H153234   8.569   6.343   0.808
17783TIP3    H253235   8.615   6.477   0.752
17784TIP3   OH253236   8.773   6.573   0.779
17784TIP3    H153237   8.811   6.489   0.754
17784TIP3    H253238   8.813   6.594   0.864
17785TIP3   OH253239   8.105   6.354   0.334
17785TIP3    H153240   8.020   6.314   0.314
17785TIP3    H253241   8.092   6.447   0.319
17786TIP3   OH253242   5.607   1.901   7.978
17786TIP3    H153243   5.690   1.928   7.939
17786TIP3    H253244   5.576   1.830   7.921
17787TIP3   OH253245   9.549   6.667   0.073
17787TIP3    H153246   9.547   6.572   0.065
17787TIP3    H253247   9.512   6.699  -0.010
17788TIP3   OH253248   8.184   6.361   0.041
17788TIP3    H153249   8.182   6.356   0.136
17788TIP3    H253250   8.264   6.315   0.016
17789TIP3   OH253251   9.791   6.814   1.261
17789TIP3    H153252   9.721   6.784   1.202
17789TIP3    H253253   9.783   6.910   1.260
17790TIP3   OH253254   1.247   6.187   0.039
17790TIP3    H153255   1.228   6.273   0.002
17790TIP3    H253256   1.187   6.127  -0.006
17791TIP3   OH253257   1.229   6.177   0.340
17791TIP3    H153258   1.200   6.094   0.377
17791TIP3    H253259   1.230   6.163   0.246
17792TIP3   OH253260   0.553   6.061   0.766
17792TIP3    H153261   0.586   5.997   0.828
17792TIP3    H253262   0.625   6.074   0.704
17793TIP3   OH253263   1.549   6.489   0.110
17793TIP3    H153264   1.515   6.430   0.177
17793TIP3    H253265   1.566   6.571   0.156
17794TIP3   OH253266   0.555   6.472   0.474
17794TIP3    H153267   0.531   6.380   0.464
17794TIP3    H253268   0.647   6.475   0.448
17795TIP3   OH253269   0.237   5.681   0.229
17795TIP3    H153270   0.194   5.762   0.256
17795TIP3    H253271   0.168   5.631   0.186
17796TIP3   OH253272   0.325   5.990   0.458
17796TIP3    H153273   0.378   5.913   0.479
17796TIP3    H253274   0.389   6.058   0.437
17797TIP3   OH253275   1.178   6.917   0.092
17797TIP3    H153276   1.214   6.855   0.029
17797TIP3    H253277   1.102   6.871   0.129
17798TIP3   OH253278   1.078   6.391   0.442
17798TIP3    H153279   1.113   6.315   0.395
17798TIP3    H253280   1.154   6.430   0.485
17799TIP3   OH253281   0.463   5.761   0.538
17799TIP3    H153282   0.542   5.731   0.583
17799TIP3    H253283   0.462   5.712   0.456
17800TIP3   OH253284   0.874   5.961   0.374
17800TIP3    H153285   0.968   5.945   0.378
17800TIP3    H253286   0.837   5.878   0.342
17801TIP3   OH253287   7.709   1.781   7.878
17801TIP3    H153288   7.667   1.756   7.796
17801TIP3    H253289   7.658   1.855   7.910
17802TIP3   OH253290   0.908   6.315   0.648
17802TIP3    H153291   0.852   6.386   0.681
17802TIP3    H253292   0.956   6.355   0.575
17803TIP3   OH253293   0.703   5.659   0.617
17803TIP3    H153294   0.761   5.720   0.664
17803TIP3    H253295   0.761   5.615   0.555
17804TIP3   OH253296   0.747   6.526   0.744
17804TIP3    H153297   0.735   6.613   0.705
17804TIP3    H253298   0.663   6.506   0.786
17805TIP3   OH253299   6.653   1.605   8.011
17805TIP3    H153300   6.617   1.626   7.925
17805TIP3    H253301   6.686   1.689   8.044
17806TIP3   OH253302   1.583   6.732   0.260
17806TIP3    H153303   1.498   6.727   0.304
17806TIP3    H253304   1.577   6.810   0.206
17807TIP3   OH253305   7.812   2.144   7.883
17807TIP3    H153306   7.866   2.065   7.875
17807TIP3    H253307   7.871   2.216   7.860
17808TIP3   OH253308   7.956   1.911   7.863
17808TIP3    H153309   7.881   1.852   7.865
17808TIP3    H253310   8.007   1.888   7.940
17809TIP3   OH253311   7.628   1.421   7.861
17809TIP3    H153312   7.544   1.464   7.844
17809TIP3    H253313   7.671   1.420   7.775
17810TIP3   OH253314   7.564   1.209   7.596
17810TIP3    H153315   7.639   1.259   7.628
17810TIP3    H253316   7.592   1.117   7.599
17811TIP3   OH253317   7.956   1.496   7.823
17811TIP3    H153318   7.907   1.527   7.900
17811TIP3    H253319   8.040   1.467   7.858
17812TIP3   OH253320   0.679   6.090   0.216
17812TIP3    H153321   0.644   6.032   0.149
17812TIP3    H253322   0.749   6.041   0.258
17813TIP3   OH253323   0.806   6.514   0.355
17813TIP3    H153324   0.767   6.501   0.269
17813TIP3    H253325   0.892   6.472   0.350
17814TIP3   OH253326   0.767   6.087   0.592
17814TIP3    H153327   0.806   6.049   0.513
17814TIP3    H253328   0.815   6.168   0.606
17815TIP3   OH253329   1.342   6.720   0.398
17815TIP3    H153330   1.319   6.812   0.392
17815TIP3    H253331   1.265   6.673   0.366
17816TIP3   OH253332   0.945   6.621   0.908
17816TIP3    H153333   0.892   6.686   0.955
17816TIP3    H253334   0.885   6.581   0.846
17817TIP3   OH253335   7.799   1.348   7.647
17817TIP3    H153336   7.859   1.387   7.710
17817TIP3    H253337   7.828   1.383   7.562
17818TIP3   OH253338   0.683   6.168   1.088
17818TIP3    H153339   0.680   6.263   1.078
17818TIP3    H253340   0.592   6.140   1.077
17819TIP3   OH253341   7.570   2.013   7.932
17819TIP3    H153342   7.638   2.074   7.904
17819TIP3    H253343   7.494   2.037   7.880
17820TIP3   OH253344   0.746   6.783   0.998
17820TIP3    H153345   0.721   6.797   0.906
17820TIP3    H253346   0.663   6.774   1.045
17821TIP3   OH253347   0.543   5.937   0.014
17821TIP3    H153348   0.470   5.991  -0.016
17821TIP3    H253349   0.502   5.869   0.068
17822TIP3   OH253350   8.150   1.959   7.262
17822TIP3    H153351   8.145   2.052   7.242
17822TIP3    H253352   8.241   1.935   7.241
17823TIP3   OH253353   0.334   6.331   0.941
17823TIP3    H153354   0.262   6.323   0.878
17823TIP3    H253355   0.366   6.242   0.952
17824TIP3   OH253356   0.184   6.548   0.622
17824TIP3    H153357   0.272   6.584   0.634
17824TIP3    H253358   0.126   6.623   0.635
17825TIP3   OH253359   1.130   6.772   0.769
17825TIP3    H153360   1.117   6.864   0.793
17825TIP3    H253361   1.064   6.724   0.820
17826TIP3   OH253362   7.460   2.280   7.729
17826TIP3    H153363   7.391   2.248   7.671
17826TIP3    H253364   7.425   2.362   7.766
17827TIP3   OH253365   0.321   6.747   0.142
17827TIP3    H153366   0.393   6.731   0.204
17827TIP3    H253367   0.294   6.660   0.114
17828TIP3   OH253368   7.656   2.188   7.356
17828TIP3    H153369   7.710   2.118   7.320
17828TIP3    H253370   7.689   2.200   7.445
17829TIP3   OH253371   7.707   2.229   7.627
17829TIP3    H153372   7.618   2.242   7.661
17829TIP3    H253373   7.756   2.192   7.700
17830TIP3   OH253374   0.512   6.538   0.896
17830TIP3    H153375   0.558   6.525   0.979
17830TIP3    H253376   0.443   6.472   0.896
17831TIP3   OH253377   7.909   1.419   7.410
17831TIP3    H153378   7.868   1.433   7.325
17831TIP3    H253379   7.943   1.505   7.435
17832TIP3   OH253380   0.846   5.860   0.739
17832TIP3    H153381   0.796   5.867   0.820
17832TIP3    H253382   0.821   5.937   0.688
17833TIP3   OH253383   0.742   5.746   0.267
17833TIP3    H153384   0.656   5.710   0.289
17833TIP3    H253385   0.761   5.712   0.180
17834TIP3   OH253386   7.726   1.199   7.993
17834TIP3    H153387   7.682   1.272   7.950
17834TIP3    H253388   7.797   1.176   7.933
17835TIP3   OH253389   1.341   5.878   0.215
17835TIP3    H153390   1.289   5.862   0.136
17835TIP3    H253391   1.400   5.803   0.221
17836TIP3   OH253392   0.683   5.905   0.958
17836TIP3    H153393   0.684   5.981   1.016
17836TIP3    H253394   0.649   5.834   1.013
17837TIP3   OH253395   0.492   5.624   0.298
17837TIP3    H153396   0.403   5.646   0.269
17837TIP3    H253397   0.499   5.530   0.285
17838TIP3   OH253398   7.328   1.011   8.023
17838TIP3    H153399   7.421   0.991   8.032
17838TIP3    H253400   7.299   0.955   7.951
17839TIP3   OH253401   7.165   0.993   7.778
17839TIP3    H153402   7.138   1.051   7.850
17839TIP3    H253403   7.214   1.050   7.719
17840TIP3   OH253404   1.705   7.359   0.736
17840TIP3    H153405   1.680   7.359   0.643
17840TIP3    H253406   1.736   7.448   0.753
17841TIP3   OH253407   0.644   6.437   1.122
17841TIP3    H153408   0.736   6.459   1.140
17841TIP3    H253409   0.599   6.450   1.206
17842TIP3   OH253410   1.147   5.913   0.410
17842TIP3    H153411   1.218   5.888   0.352
17842TIP3    H253412   1.160   5.861   0.489
17843TIP3   OH253413   1.115   5.823   0.689
17843TIP3    H153414   1.019   5.817   0.694
17843TIP3    H253415   1.134   5.916   0.699
17844TIP3   OH253416   7.392   1.550   7.805
17844TIP3    H153417   7.315   1.497   7.781
17844TIP3    H253418   7.369   1.588   7.890
17845TIP3   OH253419   1.725   6.413   0.390
17845TIP3    H153420   1.750   6.441   0.302
17845TIP3    H253421   1.639   6.371   0.379
17846TIP3   OH253422   1.308   6.564   0.820
17846TIP3    H153423   1.262   6.489   0.856
17846TIP3    H253424   1.240   6.631   0.809
17847TIP3   OH253425   7.937   1.127   7.842
17847TIP3    H153426   8.032   1.135   7.851
17847TIP3    H253427   7.924   1.101   7.750
17848TIP3   OH253428   0.540   6.177   0.439
17848TIP3    H153429   0.578   6.162   0.352
17848TIP3    H253430   0.608   6.149   0.500
17849TIP3   OH253431   7.543   1.726   7.659
17849TIP3    H153432   7.497   1.811   7.662
17849TIP3    H253433   7.484   1.665   7.703
17850TIP3   OH253434   0.426   6.073   1.081
17850TIP3    H153435   0.430   6.023   1.163
17850TIP3    H253436   0.342   6.048   1.041
17851TIP3   OH253437   1.387   6.824   0.656
17851TIP3    H153438   1.380   6.780   0.571
17851TIP3    H253439   1.298   6.819   0.693
17852TIP3   OH253440   8.415   1.164   7.711
17852TIP3    H153441   8.441   1.097   7.648
17852TIP3    H253442   8.356   1.222   7.663
17853TIP3   OH253443   8.079   2.032   7.527
17853TIP3    H153444   8.049   1.963   7.587
17853TIP3    H253445   8.096   1.986   7.445
17854TIP3   OH253446   1.483   6.300   0.311
17854TIP3    H153447   1.394   6.280   0.340
17854TIP3    H253448   1.515   6.219   0.272
17855TIP3   OH253449   0.658   6.506   0.120
17855TIP3    H153450   0.674   6.589   0.075
17855TIP3    H253451   0.570   6.481   0.092
17856TIP3   OH253452   6.763   1.193   7.865
17856TIP3    H153453   6.804   1.279   7.874
17856TIP3    H253454   6.679   1.202   7.909
17857TIP3   OH253455   0.777   6.275   0.035
17857TIP3    H153456   0.745   6.363   0.056
17857TIP3    H253457   0.742   6.219   0.105
17858TIP3   OH253458   0.953   6.845   0.559
17858TIP3    H153459   0.982   6.925   0.514
17858TIP3    H253460   1.028   6.820   0.614
17859TIP3   OH253461   7.180   2.111   7.971
17859TIP3    H153462   7.105   2.074   7.925
17859TIP3    H253463   7.169   2.206   7.963
17860TIP3   OH253464   1.323   6.464   0.559
17860TIP3    H153465   1.335   6.516   0.638
17860TIP3    H253466   1.387   6.499   0.497
17861TIP3   OH253467   7.833   1.773   7.400
17861TIP3    H153468   7.878   1.737   7.476
17861TIP3    H253469   7.744   1.739   7.407
17862TIP3   OH253470   1.537   7.042   0.575
17862TIP3    H153471   1.469   6.977   0.591
17862TIP3    H253472   1.512   7.083   0.492
17863TIP3   OH253473   8.139   2.231   7.218
17863TIP3    H153474   8.146   2.283   7.139
17863TIP3    H253475   8.071   2.274   7.270
17864TIP3   OH253476   7.987   1.638   7.582
17864TIP3    H153477   7.973   1.600   7.669
17864TIP3    H253478   8.078   1.666   7.582
17865TIP3   OH253479   0.386   6.744   0.734
17865TIP3    H153480   0.436   6.684   0.789
17865TIP3    H253481   0.400   6.830   0.773
17866TIP3   OH253482   7.187   1.763   7.428
17866TIP3    H153483   7.192   1.671   7.404
17866TIP3    H253484   7.188   1.762   7.524
17867TIP3   OH253485   7.190   1.760   7.698
17867TIP3    H153486   7.230   1.713   7.772
17867TIP3    H253487   7.118   1.809   7.738
17868TIP3   OH253488   6.858   1.448   7.912
17868TIP3    H153489   6.793   1.492   7.966
17868TIP3    H253490   6.871   1.507   7.838
17869TIP3   OH253491   7.401   1.958   7.672
17869TIP3    H153492   7.309   1.933   7.685
17869TIP3    H253493   7.397   2.028   7.607
17870TIP3   OH253494   1.064   5.588   0.066
17870TIP3    H153495   1.106   5.667   0.034
17870TIP3    H253496   1.073   5.592   0.161
17871TIP3   OH253497   1.564   6.039   0.238
17871TIP3    H153498   1.480   5.995   0.233
17871TIP3    H253499   1.601   6.012   0.321
17872TIP3   OH253500   6.853   1.644   7.714
17872TIP3    H153501   6.888   1.726   7.750
17872TIP3    H253502   6.918   1.617   7.649
17873TIP3   OH253503   6.757   0.916   7.853
17873TIP3    H153504   6.763   1.010   7.872
17873TIP3    H253505   6.688   0.884   7.911
17874TIP3   OH253506   1.578   6.982   0.139
17874TIP3    H153507   1.530   7.032   0.073
17874TIP3    H253508   1.669   7.012   0.130
17875TIP3   OH253509   0.218   6.478   0.063
17875TIP3    H153510   0.148   6.530   0.024
17875TIP3    H253511   0.290   6.484  -0.000
17876TIP3   OH253512   0.354   7.039   1.146
17876TIP3    H153513   0.433   7.042   1.201
17876TIP3    H253514   0.328   6.947   1.147
17877TIP3   OH253515   0.805   6.964   1.199
17877TIP3    H153516   0.894   6.976   1.231
17877TIP3    H253517   0.815   6.914   1.118
17878TIP3   OH253518   7.354   1.933   7.301
17878TIP3    H153519   7.301   1.869   7.350
17878TIP3    H253520   7.426   1.881   7.265
17879TIP3   OH253521   7.793   1.984   7.227
17879TIP3    H153522   7.823   1.922   7.294
17879TIP3    H253523   7.860   1.979   7.158
17880TIP3   OH253524   0.479   6.441   1.346
17880TIP3    H153525   0.441   6.394   1.421
17880TIP3    H253526   0.405   6.454   1.286
17881TIP3   OH253527   7.009   1.472   7.558
17881TIP3    H153528   7.062   1.443   7.633
17881TIP3    H253529   7.073   1.489   7.489
17882TIP3   OH253530   0.922   6.417   1.095
17882TIP3    H153531   0.930   6.494   1.037
17882TIP3    H253532   0.982   6.353   1.057
17883TIP3   OH253533   7.578   1.673   7.392
17883TIP3    H153534   7.556   1.693   7.483
17883TIP3    H253535   7.562   1.579   7.384
17884TIP3   OH253536   0.658   6.122   1.394
17884TIP3    H153537   0.584   6.080   1.350
17884TIP3    H253538   0.632   6.128   1.485
17885TIP3   OH253539   7.180   1.378   7.761
17885TIP3    H153540   7.153   1.351   7.849
17885TIP3    H253541   7.216   1.298   7.722
17886TIP3   OH253542   0.938   6.084   0.964
17886TIP3    H153543   0.850   6.119   0.950
17886TIP3    H253544   0.970   6.062   0.877
17887TIP3   OH253545   7.292   1.169   7.608
17887TIP3    H153546   7.265   1.196   7.520
17887TIP3    H253547   7.386   1.188   7.611
17888TIP3   OH253548   8.146   1.518   7.209
17888TIP3    H153549   8.102   1.457   7.150
17888TIP3    H253550   8.092   1.598   7.206
17889TIP3   OH253551   1.077   6.103   0.722
17889TIP3    H153552   1.163   6.143   0.726
17889TIP3    H253553   1.019   6.173   0.691
17890TIP3   OH253554   7.193   2.304   7.534
17890TIP3    H153555   7.261   2.242   7.506
17890TIP3    H253556   7.142   2.320   7.455
17891TIP3   OH253557   6.587   1.606   7.728
17891TIP3    H153558   6.680   1.626   7.722
17891TIP3    H253559   6.577   1.523   7.682
17892TIP3   OH253560   9.760   6.825   0.163
17892TIP3    H153561   9.703   6.763   0.117
17892TIP3    H253562   9.807   6.772   0.227
17893TIP3   OH253563   0.086   6.687   0.363
17893TIP3    H153564   0.100   6.598   0.396
17893TIP3    H253565   0.161   6.737   0.395
17894TIP3   OH253566   1.835   7.077   0.132
17894TIP3    H153567   1.850   7.132   0.209
17894TIP3    H253568   1.880   7.122   0.061
17895TIP3   OH253569   1.864   7.115   0.435
17895TIP3    H153570   1.822   7.029   0.439
17895TIP3    H253571   1.958   7.096   0.437
17896TIP3   OH253572   8.256   1.700   7.582
17896TIP3    H153573   8.321   1.768   7.564
17896TIP3    H253574   8.284   1.661   7.665
17897TIP3   OH253575   8.333   1.574   7.812
17897TIP3    H153576   8.276   1.520   7.867
17897TIP3    H253577   8.396   1.611   7.873
17898TIP3   OH253578   1.909   6.562   0.161
17898TIP3    H153579   1.888   6.512   0.083
17898TIP3    H253580   1.908   6.653   0.133
17899TIP3   OH253581   1.734   6.869   0.462
17899TIP3    H153582   1.661   6.917   0.501
17899TIP3    H253583   1.695   6.818   0.392
17900TIP3   OH253584   8.319   1.491   7.415
17900TIP3    H153585   8.258   1.498   7.342
17900TIP3    H253586   8.298   1.567   7.470
17901TIP3   OH253587   8.256   1.141   7.340
17901TIP3    H153588   8.173   1.174   7.306
17901TIP3    H253589   8.235   1.109   7.428
17902TIP3   OH253590   8.178   1.406   7.971
17902TIP3    H153591   8.182   1.312   7.953
17902TIP3    H253592   8.146   1.412   8.061
17903TIP3   OH253593   0.287   6.057   0.719
17903TIP3    H153594   0.281   6.041   0.625
17903TIP3    H253595   0.381   6.070   0.735
17904TIP3   OH253596   8.213   1.132   7.893
17904TIP3    H153597   8.213   1.036   7.887
17904TIP3    H253598   8.275   1.160   7.827
17905TIP3   OH253599   0.275   5.773   0.746
17905TIP3    H153600   0.337   5.752   0.676
17905TIP3    H253601   0.275   5.868   0.750
17906TIP3   OH253602   7.968   2.342   7.795
17906TIP3    H153603   8.019   2.337   7.715
17906TIP3    H253604   7.997   2.424   7.837
17907TIP3   OH253605   0.521   6.756   1.155
17907TIP3    H153606   0.428   6.752   1.132
17907TIP3    H253607   0.523   6.751   1.251
17908TIP3   OH253608   0.731   6.806   0.717
17908TIP3    H153609   0.675   6.878   0.689
17908TIP3    H253610   0.812   6.817   0.666
17909TIP3   OH253611   1.116   7.040   0.816
17909TIP3    H153612   1.149   7.032   0.906
17909TIP3    H253613   1.180   7.094   0.771
17910TIP3   OH253614   1.315   7.198   0.715
17910TIP3    H153615   1.388   7.168   0.661
17910TIP3    H253616   1.355   7.253   0.782
17911TIP3   OH253617   0.390   7.040   0.774
17911TIP3    H153618   0.299   7.056   0.748
17911TIP3    H253619   0.409   7.110   0.837
17912TIP3   OH253620   0.617   7.037   0.618
17912TIP3    H153621   0.534   7.041   0.666
17912TIP3    H253622   0.593   7.060   0.528
17913TIP3   OH253623   1.018   7.063   0.402
17913TIP3    H153624   0.942   7.076   0.345
17913TIP3    H253625   1.031   7.148   0.444
17914TIP3   OH253626   1.279   6.980   0.410
17914TIP3    H153627   1.189   7.009   0.400
17914TIP3    H253628   1.331   7.051   0.372
17915TIP3   OH253629   1.480   7.155   0.331
17915TIP3    H153630   1.488   7.244   0.296
17915TIP3    H253631   1.510   7.099   0.260
17916TIP3   OH253632   0.297   6.831   0.487
17916TIP3    H153633   0.326   6.808   0.575
17916TIP3    H253634   0.365   6.796   0.429
17917TIP3   OH253635   0.502   6.715   0.352
17917TIP3    H153636   0.514   6.630   0.393
17917TIP3    H253637   0.590   6.751   0.343
17918TIP3   OH253638   0.773   6.795   0.355
17918TIP3    H153639   0.786   6.700   0.343
17918TIP3    H253640   0.827   6.817   0.430
17919TIP3   OH253641   6.574   2.003   7.920
17919TIP3    H153642   6.492   1.977   7.878
17919TIP3    H253643   6.595   2.088   7.882
17920TIP3   OH253644   7.402   2.144   7.463
17920TIP3    H153645   7.484   2.178   7.429
17920TIP3    H253646   7.376   2.076   7.401
17921TIP3   OH253647   8.104   2.302   7.558
17921TIP3    H153648   8.099   2.207   7.551
17921TIP3    H253649   8.056   2.334   7.482
17922TIP3   OH253650   6.720   1.988   7.534
17922TIP3    H153651   6.735   2.001   7.628
17922TIP3    H253652   6.801   1.950   7.501
17923TIP3   OH253653   1.646   7.091   0.824
17923TIP3    H153654   1.614   7.065   0.738
17923TIP3    H253655   1.681   7.179   0.811
17924TIP3   OH253656   8.513   1.349   7.885
17924TIP3    H153657   8.467   1.425   7.847
17924TIP3    H253658   8.496   1.278   7.823
17925TIP3   OH253659   8.574   1.657   7.911
17925TIP3    H153660   8.658   1.629   7.947
17925TIP3    H253661   8.587   1.657   7.816
17926TIP3   OH253662   9.407   2.066   7.429
17926TIP3    H153663   9.397   2.036   7.338
17926TIP3    H253664   9.383   2.159   7.425
17927TIP3   OH253665   8.455   1.875   7.490
17927TIP3    H153666   8.424   1.891   7.401
17927TIP3    H253667   8.476   1.961   7.525
17928TIP3   OH253668   9.358   1.430   7.062
17928TIP3    H153669   9.445   1.447   7.099
17928TIP3    H253670   9.362   1.338   7.035
17929TIP3   OH253671   9.345   2.337   7.412
17929TIP3    H153672   9.383   2.412   7.458
17929TIP3    H253673   9.295   2.376   7.340
17930TIP3   OH253674   8.890   1.644   7.536
17930TIP3    H153675   8.809   1.668   7.490
17930TIP3    H253676   8.871   1.559   7.575
17931TIP3   OH253677   1.936   6.823   0.086
17931TIP3    H153678   2.023   6.858   0.107
17931TIP3    H253679   1.876   6.895   0.107
17932TIP3   OH253680   9.249   2.516   7.218
17932TIP3    H153681   9.209   2.499   7.132
17932TIP3    H253682   9.212   2.601   7.244
17933TIP3   OH253683   8.666   2.367   7.570
17933TIP3    H153684   8.712   2.359   7.653
17933TIP3    H253685   8.616   2.286   7.562
17934TIP3   OH253686   9.458   2.432   6.853
17934TIP3    H153687   9.509   2.356   6.825
17934TIP3    H253688   9.488   2.449   6.942
17935TIP3   OH253689   9.507   2.489   7.120
17935TIP3    H153690   9.423   2.484   7.167
17935TIP3    H253691   9.572   2.503   7.189
17936TIP3   OH253692   9.618   1.637   6.838
17936TIP3    H153693   9.632   1.612   6.746
17936TIP3    H253694   9.672   1.715   6.850
17937TIP3   OH253695   8.933   1.352   7.339
17937TIP3    H153696   8.860   1.345   7.278
17937TIP3    H253697   9.011   1.355   7.283
17938TIP3   OH253698   9.135   1.863   7.289
17938TIP3    H153699   9.087   1.782   7.272
17938TIP3    H253700   9.142   1.869   7.384
17939TIP3   OH253701   9.338   1.973   7.139
17939TIP3    H153702   9.300   2.060   7.134
17939TIP3    H253703   9.275   1.922   7.189
17940TIP3   OH253704   0.130   2.297   6.927
17940TIP3    H153705   0.158   2.227   6.985
17940TIP3    H253706   0.046   2.267   6.892
17941TIP3   OH253707   8.941   2.125   7.577
17941TIP3    H153708   8.969   2.203   7.530
17941TIP3    H253709   8.847   2.138   7.592
17942TIP3   OH253710   8.580   1.446   7.349
17942TIP3    H153711   8.626   1.529   7.366
17942TIP3    H253712   8.491   1.462   7.382
17943TIP3   OH253713   9.067   1.875   7.560
17943TIP3    H153714   9.011   1.953   7.554
17943TIP3    H253715   9.005   1.801   7.559
17944TIP3   OH253716   8.913   2.378   7.449
17944TIP3    H153717   8.823   2.389   7.479
17944TIP3    H253718   8.950   2.466   7.451
17945TIP3   OH253719   9.625   1.976   6.912
17945TIP3    H153720   9.619   1.985   7.007
17945TIP3    H253721   9.537   1.946   6.885
17946TIP3   OH253722   2.155   6.968   0.182
17946TIP3    H153723   2.190   6.889   0.225
17946TIP3    H253724   2.202   7.040   0.223
17947TIP3   OH253725   8.980   2.005   6.919
17947TIP3    H153726   8.992   1.914   6.892
17947TIP3    H253727   8.964   2.000   7.013
17948TIP3   OH253728   8.920   2.008   7.187
17948TIP3    H153729   8.999   1.971   7.228
17948TIP3    H253730   8.930   2.102   7.198
17949TIP3   OH253731   8.660   1.711   7.399
17949TIP3    H153732   8.591   1.757   7.446
17949TIP3    H253733   8.679   1.766   7.324
17950TIP3   OH253734   9.208   2.209   7.131
17950TIP3    H153735   9.121   2.226   7.166
17950TIP3    H253736   9.225   2.282   7.072
17951TIP3   OH253737   8.951   2.278   7.200
17951TIP3    H153738   8.930   2.348   7.139
17951TIP3    H253739   8.938   2.316   7.286
17952TIP3   OH253740   8.675   1.883   7.179
17952TIP3    H153741   8.745   1.948   7.189
17952TIP3    H253742   8.711   1.819   7.118
17953TIP3   OH253743   8.529   1.174   7.307
17953TIP3    H153744   8.553   1.263   7.332
17953TIP3    H253745   8.435   1.169   7.323
17954TIP3   OH253746   8.500   2.138   7.570
17954TIP3    H153747   8.464   2.177   7.650
17954TIP3    H253748   8.453   2.181   7.499
17955TIP3   OH253749   9.132   2.204   6.808
17955TIP3    H153750   9.086   2.133   6.852
17955TIP3    H253751   9.207   2.161   6.766
17956TIP3   OH253752   9.596   2.213   6.767
17956TIP3    H153753   9.623   2.127   6.801
17956TIP3    H253754   9.624   2.212   6.676
17957TIP3   OH253755   8.799   1.689   7.037
17957TIP3    H153756   8.851   1.664   7.114
17957TIP3    H253757   8.863   1.706   6.969
17958TIP3   OH253758   9.361   1.912   6.871
17958TIP3    H153759   9.343   1.931   6.963
17958TIP3    H253760   9.340   1.819   6.861
17959TIP3   OH253761   8.976   1.637   7.251
17959TIP3    H153762   8.960   1.609   7.341
17959TIP3    H253763   9.016   1.561   7.209
17960TIP3   OH253764   9.083   1.427   7.100
17960TIP3    H153765   9.061   1.445   7.008
17960TIP3    H253766   9.179   1.429   7.102
17961TIP3   OH253767   8.939   2.485   7.018
17961TIP3    H153768   9.031   2.471   6.993
17961TIP3    H253769   8.900   2.529   6.943
17962TIP3   OH253770   8.405   1.864   7.205
17962TIP3    H153771   8.498   1.883   7.196
17962TIP3    H253772   8.394   1.775   7.172
17963TIP3   OH253773   8.308   2.455   7.652
17963TIP3    H153774   8.243   2.404   7.604
17963TIP3    H253775   8.352   2.391   7.708
17964TIP3   OH253776   8.447   2.276   7.811
17964TIP3    H153777   8.432   2.221   7.888
17964TIP3    H253778   8.501   2.348   7.844
17965TIP3   OH253779   9.701   2.584   7.294
17965TIP3    H153780   9.768   2.566   7.227
17965TIP3    H253781   9.749   2.629   7.364
17966TIP3   OH253782   2.138   7.267   0.165
17966TIP3    H153783   2.048   7.299   0.172
17966TIP3    H253784   2.187   7.319   0.229
17967TIP3   OH253785   2.377   7.224   0.032
17967TIP3    H153786   2.295   7.228   0.081
17967TIP3    H253787   2.370   7.297  -0.030
17968TIP3   OH253788   8.610   2.464   7.933
17968TIP3    H153789   8.633   2.457   8.026
17968TIP3    H253790   8.688   2.433   7.887
17969TIP3   OH253791   8.822   2.351   7.794
17969TIP3    H153792   8.845   2.288   7.862
17969TIP3    H253793   8.902   2.402   7.781
17970TIP3   OH253794   9.062   2.489   7.837
17970TIP3    H153795   9.144   2.452   7.868
17970TIP3    H253796   9.019   2.522   7.915
17971TIP3   OH253797   8.381   2.262   7.358
17971TIP3    H153798   8.297   2.235   7.320
17971TIP3    H253799   8.394   2.351   7.326
17972TIP3   OH253800   9.200   2.425   6.950
17972TIP3    H153801   9.284   2.448   6.912
17972TIP3    H253802   9.166   2.355   6.894
17973TIP3   OH253803   0.086   2.531   7.082
17973TIP3    H153804   0.106   2.448   7.039
17973TIP3    H253805   0.049   2.585   7.012
17974TIP3   OH253806   8.513   2.268   7.016
17974TIP3    H153807   8.518   2.292   7.109
17974TIP3    H253808   8.595   2.222   6.999
17975TIP3   OH253809   5.460   7.681   1.156
17975TIP3    H153810   5.434   7.773   1.156
17975TIP3    H253811   5.511   7.671   1.075
17976TIP3   OH253812   5.148   6.888   0.702
17976TIP3    H153813   5.234   6.916   0.734
17976TIP3    H253814   5.150   6.793   0.710
17977TIP3   OH253815   5.306   7.055   0.938
17977TIP3    H153816   5.392   7.087   0.964
17977TIP3    H253817   5.284   7.105   0.859
17978TIP3   OH253818   5.666   7.630   0.299
17978TIP3    H153819   5.670   7.725   0.301
17978TIP3    H253820   5.757   7.602   0.305
17979TIP3   OH253821   4.968   7.815   0.945
17979TIP3    H153822   4.936   7.905   0.936
17979TIP3    H253823   4.966   7.798   1.039
17980TIP3   OH253824   5.223   7.896   0.525
17980TIP3    H153825   5.289   7.852   0.471
17980TIP3    H253826   5.212   7.838   0.601
17981TIP3   OH253827   5.209   7.917   0.854
17981TIP3    H153828   5.117   7.892   0.864
17981TIP3    H253829   5.245   7.913   0.942
17982TIP3   OH253830   5.352   7.143   0.430
17982TIP3    H153831   5.305   7.073   0.385
17982TIP3    H253832   5.442   7.137   0.398
17983TIP3   OH253833   7.251   8.522   7.334
17983TIP3    H153834   7.166   8.485   7.356
17983TIP3    H253835   7.304   8.513   7.413
17984TIP3   OH253836   5.376   6.793   0.916
17984TIP3    H153837   5.432   6.783   0.992
17984TIP3    H253838   5.341   6.882   0.923
17985TIP3   OH253839   5.089   7.436   0.793
17985TIP3    H153840   5.007   7.486   0.800
17985TIP3    H253841   5.129   7.444   0.880
17986TIP3   OH253842   5.929   6.894   0.782
17986TIP3    H153843   5.914   6.833   0.710
17986TIP3    H253844   5.906   6.980   0.747
17987TIP3   OH253845   5.522   7.668   0.585
17987TIP3    H153846   5.478   7.588   0.615
17987TIP3    H253847   5.611   7.639   0.563
17988TIP3   OH253848   5.337   7.469   0.660
17988TIP3    H153849   5.371   7.444   0.746
17988TIP3    H253850   5.259   7.521   0.678
17989TIP3   OH253851   5.695   7.901   0.329
17989TIP3    H153852   5.747   7.976   0.301
17989TIP3    H253853   5.611   7.938   0.356
17990TIP3   OH253854   5.432   7.364   0.893
17990TIP3    H153855   5.352   7.357   0.945
17990TIP3    H253856   5.499   7.392   0.956
17991TIP3   OH253857   4.662   7.382   0.498
17991TIP3    H153858   4.720   7.310   0.473
17991TIP3    H253859   4.610   7.348   0.571
17992TIP3   OH253860   4.885   7.607   0.808
17992TIP3    H153861   4.818   7.573   0.868
17992TIP3    H253862   4.913   7.689   0.849
17993TIP3   OH253863   4.480   7.691   0.861
17993TIP3    H153864   4.549   7.657   0.803
17993TIP3    H253865   4.521   7.764   0.907
17994TIP3   OH253866   4.854   7.580   0.425
17994TIP3    H153867   4.855   7.494   0.465
17994TIP3    H253868   4.946   7.606   0.421
17995TIP3   OH253869   5.369   7.725   0.369
17995TIP3    H153870   5.440   7.707   0.431
17995TIP3    H253871   5.402   7.694   0.285
17996TIP3   OH253872   4.566   7.222   0.703
17996TIP3    H153873   4.628   7.150   0.694
17996TIP3    H253874   4.489   7.193   0.654
17997TIP3   OH253875   4.970   7.358   0.551
17997TIP3    H153876   5.031   7.378   0.623
17997TIP3    H253877   4.992   7.269   0.525
17998TIP3   OH253878   4.815   6.780   0.850
17998TIP3    H153879   4.720   6.770   0.840
17998TIP3    H253880   4.835   6.863   0.806
17999TIP3   OH253881   5.626   7.122   0.433
17999TIP3    H153882   5.634   7.132   0.338
17999TIP3    H253883   5.614   7.211   0.466
18000TIP3   OH253884   4.703   7.893   0.776
18000TIP3    H153885   4.796   7.891   0.753
18000TIP3    H253886   4.658   7.872   0.694
18001TIP3   OH253887   5.747   7.421   0.793
18001TIP3    H153888   5.793   7.498   0.762
18001TIP3    H253889   5.812   7.374   0.846
18002TIP3   OH253890   5.962   7.305   0.921
18002TIP3    H153891   5.925   7.249   0.989
18002TIP3    H253892   6.035   7.350   0.964
18003TIP3   OH253893   5.928   7.155   0.695
18003TIP3    H153894   5.904   7.213   0.622
18003TIP3    H253895   5.947   7.214   0.768
18004TIP3   OH253896   5.701   6.803   0.433
18004TIP3    H153897   5.649   6.848   0.499
18004TIP3    H253898   5.781   6.778   0.479
18005TIP3   OH253899   5.662   6.598   0.649
18005TIP3    H153900   5.747   6.555   0.653
18005TIP3    H253901   5.632   6.583   0.560
18006TIP3   OH253902   5.887   6.454   0.611
18006TIP3    H153903   5.960   6.441   0.672
18006TIP3    H253904   5.929   6.486   0.531
18007TIP3   OH253905   5.441   7.951   1.042
18007TIP3    H153906   5.520   7.927   0.992
18007TIP3    H253907   5.470   8.023   1.098
18008TIP3   OH253908   4.928   7.859   0.607
18008TIP3    H153909   5.022   7.852   0.587
18008TIP3    H253910   4.885   7.849   0.522
18009TIP3   OH253911   5.679   7.972   0.625
18009TIP3    H153912   5.597   7.957   0.671
18009TIP3    H253913   5.653   8.012   0.541
18010TIP3   OH253914   4.181   7.584   0.760
18010TIP3    H153915   4.169   7.677   0.743
18010TIP3    H253916   4.269   7.565   0.728
18011TIP3   OH253917   7.134   7.526   1.076
18011TIP3    H153918   7.192   7.501   1.149
18011TIP3    H253919   7.149   7.457   1.010
18012TIP3   OH253920   7.406   7.791   0.668
18012TIP3    H153921   7.370   7.726   0.728
18012TIP3    H253922   7.396   7.875   0.713
18013TIP3   OH253923   6.399   7.848   1.151
18013TIP3    H153924   6.422   7.765   1.111
18013TIP3    H253925   6.477   7.874   1.200
18014TIP3   OH253926   6.151   7.003   0.889
18014TIP3    H153927   6.180   7.078   0.837
18014TIP3    H253928   6.073   6.971   0.843
18015TIP3   OH253929   6.151   7.385   1.106
18015TIP3    H153930   6.140   7.295   1.136
18015TIP3    H253931   6.240   7.409   1.132
18016TIP3   OH253932   6.950   8.217   0.702
18016TIP3    H153933   7.010   8.156   0.660
18016TIP3    H253934   6.914   8.169   0.776
18017TIP3   OH253935   6.915   7.699   1.036
18017TIP3    H153936   6.906   7.626   0.976
18017TIP3    H253937   6.998   7.683   1.081
18018TIP3   OH253938   7.996   7.050   1.140
18018TIP3    H153939   7.934   7.122   1.156
18018TIP3    H253940   8.030   7.067   1.052
18019TIP3   OH253941   7.364   7.140   1.185
18019TIP3    H153942   7.323   7.066   1.230
18019TIP3    H253943   7.376   7.111   1.095
18020TIP3   OH253944   6.799   6.871   1.132
18020TIP3    H153945   6.724   6.930   1.128
18020TIP3    H253946   6.794   6.831   1.219
18021TIP3   OH253947   7.317   6.863   0.623
18021TIP3    H153948   7.397   6.910   0.644
18021TIP3    H253949   7.260   6.928   0.583
18022TIP3   OH253950   6.719   7.246   0.997
18022TIP3    H153951   6.791   7.253   0.935
18022TIP3    H253952   6.682   7.159   0.982
18023TIP3   OH253953   7.994   7.276   1.390
18023TIP3    H153954   7.917   7.220   1.374
18023TIP3    H253955   8.035   7.238   1.468
18024TIP3   OH253956   7.033   7.753   0.449
18024TIP3    H153957   6.981   7.702   0.386
18024TIP3    H253958   6.968   7.788   0.509
18025TIP3   OH253959   7.649   6.862   0.936
18025TIP3    H153960   7.639   6.894   1.025
18025TIP3    H253961   7.743   6.853   0.924
18026TIP3   OH253962   6.019   7.478   0.656
18026TIP3    H153963   5.938   7.473   0.606
18026TIP3    H253964   6.030   7.572   0.675
18027TIP3   OH253965   7.376   8.032   0.805
18027TIP3    H153966   7.286   8.050   0.830
18027TIP3    H253967   7.406   8.114   0.764
18028TIP3   OH253968   7.660   6.949   1.191
18028TIP3    H153969   7.597   6.900   1.244
18028TIP3    H253970   7.706   7.005   1.254
18029TIP3   OH253971   7.131   8.079   0.545
18029TIP3    H153972   7.179   7.999   0.523
18029TIP3    H253973   7.193   8.150   0.527
18030TIP3   OH253974   7.275   7.870   0.440
18030TIP3    H153975   7.198   7.814   0.438
18030TIP3    H253976   7.332   7.830   0.506
18031TIP3   OH253977   7.539   7.944   1.244
18031TIP3    H153978   7.528   7.973   1.154
18031TIP3    H253979   7.558   8.023   1.294
18032TIP3   OH253980   6.869   7.242   0.421
18032TIP3    H153981   6.823   7.326   0.426
18032TIP3    H253982   6.958   7.262   0.449
18033TIP3   OH253983   6.895   7.140   0.170
18033TIP3    H153984   6.909   7.175   0.258
18033TIP3    H253985   6.971   7.084   0.153
18034TIP3   OH253986   7.854   7.523   0.992
18034TIP3    H153987   7.786   7.569   1.040
18034TIP3    H253988   7.894   7.590   0.936
18035TIP3   OH253989   7.283   7.455   0.482
18035TIP3    H153990   7.249   7.501   0.558
18035TIP3    H253991   7.366   7.417   0.511
18036TIP3   OH253992   7.478   7.474   1.383
18036TIP3    H153993   7.476   7.447   1.474
18036TIP3    H253994   7.388   7.464   1.352
18037TIP3   OH253995   6.567   7.435   0.856
18037TIP3    H153996   6.517   7.407   0.779
18037TIP3    H253997   6.600   7.354   0.894
18038TIP3   OH253998   6.681   7.819   0.972
18038TIP3    H153999   6.674   7.823   0.876
18038TIP3    H254000   6.768   7.782   0.987
18039TIP3   OH254001   6.780   7.200   1.265
18039TIP3    H154002   6.758   7.241   1.181
18039TIP3    H254003   6.751   7.264   1.330
18040TIP3   OH254004   7.137   8.147   0.918
18040TIP3    H154005   7.092   8.178   0.997
18040TIP3    H254006   7.090   8.067   0.894
18041TIP3   OH254007   7.139   7.276   0.323
18041TIP3    H154008   7.186   7.348   0.366
18041TIP3    H254009   7.160   7.285   0.230
18042TIP3   OH254010   6.871   7.956   0.567
18042TIP3    H154011   6.959   7.993   0.563
18042TIP3    H254012   6.817   8.018   0.518
18043TIP3   OH254013   7.650   6.499   0.324
18043TIP3    H154014   7.573   6.512   0.380
18043TIP3    H254015   7.658   6.581   0.276
18044TIP3   OH254016   6.441   7.379   0.624
18044TIP3    H154017   6.361   7.375   0.572
18044TIP3    H254018   6.462   7.288   0.643
18045TIP3   OH254019   4.197   3.265   7.932
18045TIP3    H154020   4.198   3.360   7.921
18045TIP3    H254021   4.284   3.237   7.905
18046TIP3   OH254022   7.770   8.361   1.324
18046TIP3    H154023   7.790   8.275   1.286
18046TIP3    H254024   7.759   8.343   1.417
18047TIP3   OH254025   6.999   8.040   1.414
18047TIP3    H154026   6.994   8.134   1.428
18047TIP3    H254027   6.933   8.003   1.472
18048TIP3   OH254028   6.762   8.166   0.396
18048TIP3    H154029   6.718   8.148   0.313
18048TIP3    H254030   6.728   8.251   0.423
18049TIP3   OH254031   6.197   7.997   0.656
18049TIP3    H154032   6.235   7.943   0.725
18049TIP3    H254033   6.103   7.993   0.672
18050TIP3   OH254034   6.968   8.107   0.015
18050TIP3    H154035   7.017   8.032  -0.019
18050TIP3    H254036   7.001   8.119   0.104
18051TIP3   OH254037   7.013   8.136   0.284
18051TIP3    H154038   6.929   8.141   0.330
18051TIP3    H254039   7.070   8.087   0.344
18052TIP3   OH254040   7.209   7.248   0.048
18052TIP3    H154041   7.161   7.259  -0.034
18052TIP3    H254042   7.289   7.299   0.036
18053TIP3   OH254043   6.925   6.702   0.309
18053TIP3    H154044   6.905   6.701   0.403
18053TIP3    H254045   6.890   6.619   0.277
18054TIP3   OH254046   6.646   7.003   0.891
18054TIP3    H154047   6.574   6.971   0.946
18054TIP3    H254048   6.693   6.924   0.865
18055TIP3   OH254049   7.200   7.099   0.760
18055TIP3    H154050   7.182   7.193   0.764
18055TIP3    H254051   7.277   7.087   0.816
18056TIP3   OH254052   6.599   6.647   0.308
18056TIP3    H154053   6.591   6.661   0.402
18056TIP3    H254054   6.529   6.702   0.270
18057TIP3   OH254055   6.152   6.694   0.793
18057TIP3    H154056   6.211   6.657   0.728
18057TIP3    H254057   6.135   6.783   0.763
18058TIP3   OH254058   7.229   7.396   1.302
18058TIP3    H154059   7.225   7.306   1.271
18058TIP3    H254060   7.198   7.392   1.392
18059TIP3   OH254061   6.990   6.935   0.939
18059TIP3    H154062   6.907   6.926   0.987
18059TIP3    H254063   7.057   6.907   1.001
18060TIP3   OH254064   6.412   6.884   0.959
18060TIP3    H154065   6.320   6.909   0.961
18060TIP3    H254066   6.412   6.796   0.922
18061TIP3   OH254067   6.727   6.941   0.545
18061TIP3    H154068   6.718   7.036   0.553
18061TIP3    H254069   6.655   6.915   0.486
18062TIP3   OH254070   7.260   6.922   1.301
18062TIP3    H154071   7.246   6.861   1.373
18062TIP3    H254072   7.210   6.886   1.228
18063TIP3   OH254073   6.484   6.976   0.407
18063TIP3    H154074   6.440   6.910   0.354
18063TIP3    H254075   6.534   7.028   0.344
18064TIP3   OH254076   7.630   8.670   1.560
18064TIP3    H154077   7.635   8.709   1.473
18064TIP3    H254078   7.653   8.741   1.620
18065TIP3   OH254079   6.464   6.634   0.869
18065TIP3    H154080   6.453   6.582   0.949
18065TIP3    H254081   6.539   6.594   0.825
18066TIP3   OH254082   6.725   7.480   0.418
18066TIP3    H154083   6.641   7.438   0.400
18066TIP3    H254084   6.716   7.513   0.508
18067TIP3   OH254085   7.673   7.710   1.086
18067TIP3    H154086   7.713   7.766   1.020
18067TIP3    H254087   7.579   7.726   1.078
18068TIP3   OH254088   7.177   6.789   0.304
18068TIP3    H154089   7.083   6.778   0.299
18068TIP3    H254090   7.189   6.878   0.336
18069TIP3   OH254091   7.211   7.035   0.423
18069TIP3    H154092   7.305   7.047   0.423
18069TIP3    H254093   7.175   7.118   0.391
18070TIP3   OH254094   6.409   7.444   1.194
18070TIP3    H154095   6.487   7.474   1.148
18070TIP3    H254096   6.442   7.381   1.259
18071TIP3   OH254097   6.875   7.634   0.251
18071TIP3    H154098   6.823   7.714   0.261
18071TIP3    H254099   6.830   7.570   0.306
18072TIP3   OH254100   7.245   7.936   1.401
18072TIP3    H154101   7.156   7.966   1.419
18072TIP3    H254102   7.294   8.016   1.384
18073TIP3   OH254103   7.658   7.142   0.216
18073TIP3    H154104   7.603   7.097   0.151
18073TIP3    H254105   7.658   7.233   0.188
18074TIP3   OH254106   7.935   7.959   1.494
18074TIP3    H154107   7.885   8.036   1.521
18074TIP3    H254108   7.905   7.940   1.405
18075TIP3   OH254109   7.342   8.002   0.204
18075TIP3    H154110   7.323   7.949   0.281
18075TIP3    H254111   7.374   7.939   0.139
18076TIP3   OH254112   7.328   7.589   0.847
18076TIP3    H154113   7.315   7.612   0.939
18076TIP3    H254114   7.419   7.560   0.843
18077TIP3   OH254115   6.574   7.821   0.714
18077TIP3    H154116   6.562   7.907   0.672
18077TIP3    H254117   6.488   7.779   0.706
18078TIP3   OH254118   6.133   7.113   0.458
18078TIP3    H154119   6.151   7.205   0.442
18078TIP3    H254120   6.039   7.104   0.445
18079TIP3   OH254121   6.697   7.586   0.666
18079TIP3    H154122   6.669   7.678   0.674
18079TIP3    H254123   6.641   7.539   0.728
18080TIP3   OH254124   6.788   8.209   1.243
18080TIP3    H154125   6.759   8.299   1.227
18080TIP3    H254126   6.839   8.214   1.324
18081TIP3   OH254127   6.459   8.047   0.597
18081TIP3    H154128   6.365   8.035   0.613
18081TIP3    H254129   6.474   8.140   0.610
18082TIP3   OH254130   7.134   7.789   1.195
18082TIP3    H154131   7.158   7.816   1.284
18082TIP3    H254132   7.188   7.712   1.178
18083TIP3   OH254133   7.121   7.690   0.094
18083TIP3    H154134   7.190   7.660   0.153
18083TIP3    H254135   7.040   7.671   0.140
18084TIP3   OH254136   7.476   8.323   1.131
18084TIP3    H154137   7.431   8.271   1.199
18084TIP3    H254138   7.409   8.385   1.102
18085TIP3   OH254139   4.210   3.545   7.913
18085TIP3    H154140   4.221   3.621   7.856
18085TIP3    H254141   4.138   3.569   7.971
18086TIP3   OH254142   7.321   7.593   0.247
18086TIP3    H154143   7.303   7.552   0.331
18086TIP3    H254144   7.416   7.606   0.247
18087TIP3   OH254145   6.497   7.652   0.080
18087TIP3    H154146   6.517   7.563   0.050
18087TIP3    H254147   6.491   7.644   0.176
18088TIP3   OH254148   6.456   7.671   0.354
18088TIP3    H154149   6.521   7.647   0.421
18088TIP3    H254150   6.456   7.767   0.354
18089TIP3   OH254151   6.200   7.373   0.488
18089TIP3    H154152   6.133   7.403   0.550
18089TIP3    H254153   6.208   7.444   0.424
18090TIP3   OH254154   7.217   6.629   0.520
18090TIP3    H154155   7.199   6.667   0.434
18090TIP3    H254156   7.237   6.704   0.576
18091TIP3   OH254157   6.725   7.855   0.289
18091TIP3    H154158   6.638   7.875   0.323
18091TIP3    H254159   6.750   7.932   0.238
18092TIP3   OH254160   6.994   6.943   0.602
18092TIP3    H154161   7.042   6.978   0.526
18092TIP3    H254162   6.905   6.931   0.570
18093TIP3   OH254163   7.062   6.696   0.806
18093TIP3    H154164   7.012   6.760   0.858
18093TIP3    H254165   7.152   6.707   0.835
18094TIP3   OH254166   6.471   7.942   0.350
18094TIP3    H154167   6.448   8.013   0.291
18094TIP3    H254168   6.469   7.981   0.437
18095TIP3   OH254169   6.548   6.693   0.568
18095TIP3    H154170   6.529   6.763   0.631
18095TIP3    H254171   6.594   6.627   0.618
18096TIP3   OH254172   7.447   7.263   0.808
18096TIP3    H154173   7.370   7.300   0.852
18096TIP3    H254174   7.509   7.248   0.879
18097TIP3   OH254175   6.202   7.577   0.308
18097TIP3    H154176   6.279   7.631   0.329
18097TIP3    H254177   6.233   7.517   0.241
18098TIP3   OH254178   6.170   6.892   0.288
18098TIP3    H154179   6.162   6.952   0.362
18098TIP3    H254180   6.097   6.832   0.298
18099TIP3   OH254181   7.453   8.279   0.728
18099TIP3    H154182   7.421   8.295   0.639
18099TIP3    H254183   7.545   8.308   0.726
18100TIP3   OH254184   6.044   7.743   0.696
18100TIP3    H154185   6.009   7.781   0.776
18100TIP3    H254186   6.006   7.795   0.626
18101TIP3   OH254187   3.384   3.237   7.980
18101TIP3    H154188   3.337   3.165   8.022
18101TIP3    H254189   3.458   3.195   7.935
18102TIP3   OH254190   3.827   3.270   7.908
18102TIP3    H154191   3.851   3.205   7.975
18102TIP3    H254192   3.893   3.258   7.839
18103TIP3   OH254193   6.321   7.372   0.172
18103TIP3    H154194   6.370   7.346   0.250
18103TIP3    H254195   6.387   7.379   0.103
18104TIP3   OH254196   6.824   7.564  -0.011
18104TIP3    H154197   6.839   7.578   0.083
18104TIP3    H254198   6.830   7.469  -0.022
18105TIP3   OH254199   7.461   7.763   1.427
18105TIP3    H154200   7.490   7.825   1.360
18105TIP3    H254201   7.369   7.784   1.441
18106TIP3   OH254202   6.513   7.311   0.359
18106TIP3    H154203   6.513   7.283   0.450
18106TIP3    H254204   6.560   7.241   0.312
18107TIP3   OH254205   6.630   7.108   0.223
18107TIP3    H154206   6.600   7.108   0.132
18107TIP3    H254207   6.725   7.113   0.218
18108TIP3   OH254208   4.150   2.778   7.942
18108TIP3    H154209   4.137   2.740   7.855
18108TIP3    H254210   4.121   2.869   7.933
18109TIP3   OH254211   6.462   8.165   0.188
18109TIP3    H154212   6.551   8.142   0.161
18109TIP3    H254213   6.423   8.204   0.110
18110TIP3   OH254214   5.932   7.551   0.308
18110TIP3    H154215   6.024   7.574   0.318
18110TIP3    H254216   5.933   7.469   0.258
18111TIP3   OH254217   5.932   8.024   0.710
18111TIP3    H154218   5.840   8.016   0.684
18111TIP3    H254219   5.931   7.999   0.803
18112TIP3   OH254220   5.993   7.974   0.969
18112TIP3    H154221   5.972   7.918   1.044
18112TIP3    H254222   6.002   8.062   1.007
18113TIP3   OH254223   7.710   8.362   0.774
18113TIP3    H154224   7.722   8.400   0.862
18113TIP3    H254225   7.771   8.411   0.719
18114TIP3   OH254226   7.721   8.430   1.049
18114TIP3    H154227   7.632   8.397   1.062
18114TIP3    H254228   7.766   8.408   1.131
18115TIP3   OH254229   7.598   7.610   0.258
18115TIP3    H154230   7.654   7.681   0.227
18115TIP3    H254231   7.648   7.568   0.328
18116TIP3   OH254232   7.734   7.456   0.443
18116TIP3    H154233   7.660   7.427   0.495
18116TIP3    H254234   7.789   7.506   0.504
18117TIP3   OH254235   7.732   7.852   0.859
18117TIP3    H154236   7.809   7.804   0.829
18117TIP3    H254237   7.730   7.932   0.807
18118TIP3   OH254238   7.573   8.102   1.006
18118TIP3    H154239   7.533   8.183   1.037
18118TIP3    H254240   7.522   8.078   0.929
18119TIP3   OH254241   7.637   7.388   0.101
18119TIP3    H154242   7.561   7.385   0.042
18119TIP3    H254243   7.621   7.465   0.156
18120TIP3   OH254244   7.504   7.025   0.026
18120TIP3    H154245   7.443   7.058  -0.039
18120TIP3    H254246   7.498   6.930   0.018
18121TIP3   OH254247   7.518   7.319   0.552
18121TIP3    H154248   7.504   7.234   0.512
18121TIP3    H254249   7.498   7.305   0.645
18122TIP3   OH254250   7.797   7.741   1.571
18122TIP3    H154251   7.763   7.699   1.492
18122TIP3    H254252   7.834   7.824   1.539
18123TIP3   OH254253   7.919   7.487   1.592
18123TIP3    H154254   7.865   7.416   1.623
18123TIP3    H254255   7.989   7.444   1.542
18124TIP3   OH254256   7.464   6.752  -0.001
18124TIP3    H154257   7.522   6.731   0.072
18124TIP3    H254258   7.380   6.714   0.023
18125TIP3   OH254259   7.488   7.069   0.424
18125TIP3    H154260   7.524   6.985   0.452
18125TIP3    H254261   7.543   7.095   0.350
18126TIP3   OH254262   7.625   7.155   0.984
18126TIP3    H154263   7.710   7.141   0.943
18126TIP3    H254264   7.626   7.097   1.061
18127TIP3   OH254265   7.853   7.287   1.125
18127TIP3    H154266   7.766   7.286   1.164
18127TIP3    H254267   7.856   7.366   1.072
18128TIP3   OH254268   7.603   6.824   0.482
18128TIP3    H154269   7.662   6.827   0.557
18128TIP3    H254270   7.559   6.739   0.490
18129TIP3   OH254271   7.684   6.716   0.164
18129TIP3    H154272   7.731   6.656   0.105
18129TIP3    H254273   7.740   6.793   0.169
18130TIP3   OH254274   6.221   6.479   0.949
18130TIP3    H154275   6.151   6.454   1.009
18130TIP3    H254276   6.199   6.567   0.921
18131TIP3   OH254277   7.324   8.259   0.454
18131TIP3    H154278   7.347   8.202   0.381
18131TIP3    H254279   7.337   8.348   0.421
18132TIP3   OH254280   6.575   8.095   1.428
18132TIP3    H154281   6.563   8.189   1.415
18132TIP3    H254282   6.607   8.063   1.344
18133TIP3   OH254283   7.185   8.390   1.468
18133TIP3    H154284   7.255   8.452   1.448
18133TIP3    H254285   7.126   8.438   1.526
18134TIP3   OH254286   6.459   8.307   1.283
18134TIP3    H154287   6.381   8.317   1.337
18134TIP3    H254288   6.438   8.236   1.223
18135TIP3   OH254289   6.882   8.374   1.017
18135TIP3    H154290   6.828   8.373   0.938
18135TIP3    H254291   6.907   8.465   1.029
18136TIP3   OH254292   7.072   8.241   1.169
18136TIP3    H154293   6.985   8.274   1.150
18136TIP3    H254294   7.129   8.318   1.164
18137TIP3   OH254295   7.434   8.512   0.886
18137TIP3    H154296   7.398   8.552   0.807
18137TIP3    H254297   7.445   8.420   0.864
18138TIP3   OH254298   6.141   8.070   1.271
18138TIP3    H154299   6.177   8.071   1.360
18138TIP3    H254300   6.218   8.079   1.215
18139TIP3   OH254301   6.338   7.917   0.880
18139TIP3    H154302   6.339   7.875   0.966
18139TIP3    H254303   6.424   7.957   0.871
18140TIP3   OH254304   6.564   8.081   0.903
18140TIP3    H154305   6.653   8.046   0.898
18140TIP3    H254306   6.553   8.105   0.995
18141TIP3   OH254307   7.142   6.777   1.104
18141TIP3    H154308   7.071   6.731   1.148
18141TIP3    H254309   7.215   6.716   1.106
18142TIP3   OH254310   7.603   6.600   0.907
18142TIP3    H154311   7.626   6.691   0.892
18142TIP3    H254312   7.565   6.598   0.995
18143TIP3   OH254313   7.788   6.792   0.676
18143TIP3    H154314   7.817   6.710   0.716
18143TIP3    H254315   7.866   6.848   0.678
18144TIP3   OH254316   6.414   6.332   0.814
18144TIP3    H154317   6.491   6.385   0.794
18144TIP3    H254318   6.364   6.385   0.876
18145TIP3   OH254319   6.802   6.604   1.055
18145TIP3    H154320   6.772   6.695   1.048
18145TIP3    H254321   6.850   6.601   1.137
18146TIP3   OH254322   7.393   6.645   1.098
18146TIP3    H154323   7.374   6.661   1.006
18146TIP3    H254324   7.372   6.553   1.113
18147TIP3   OH254325   7.488   6.575   0.541
18147TIP3    H154326   7.395   6.593   0.524
18147TIP3    H254327   7.488   6.489   0.584
18148TIP3   OH254328   5.929   7.858   0.468
18148TIP3    H154329   5.844   7.861   0.423
18148TIP3    H254330   5.952   7.949   0.483
18149TIP3   OH254331   6.298   6.593   0.565
18149TIP3    H154332   6.315   6.517   0.510
18149TIP3    H254333   6.379   6.643   0.564
18150TIP3   OH254334   6.898   6.658   0.576
18150TIP3    H154335   6.850   6.589   0.622
18150TIP3    H254336   6.958   6.694   0.641
18151TIP3   OH254337   6.715   8.081   0.121
18151TIP3    H154338   6.798   8.106   0.082
18151TIP3    H254339   6.683   8.009   0.067
18152TIP3   OH254340   6.015   7.903   0.161
18152TIP3    H154341   6.013   7.903   0.257
18152TIP3    H254342   6.098   7.860   0.139
18153TIP3   OH254343   7.649   8.399   1.564
18153TIP3    H154344   7.566   8.370   1.602
18153TIP3    H254345   7.648   8.494   1.575
18154TIP3   OH254346   8.909   7.747   0.152
18154TIP3    H154347   8.878   7.833   0.126
18154TIP3    H254348   8.839   7.687   0.126
18155TIP3   OH254349   8.905   7.746   0.555
18155TIP3    H154350   8.965   7.726   0.627
18155TIP3    H254351   8.861   7.663   0.536
18156TIP3   OH254352   8.215   7.644   0.828
18156TIP3    H154353   8.230   7.603   0.913
18156TIP3    H254354   8.303   7.651   0.789
18157TIP3   OH254355   9.180   8.053   0.248
18157TIP3    H154356   9.167   7.985   0.313
18157TIP3    H254357   9.199   8.132   0.299
18158TIP3   OH254358   8.209   8.049   0.632
18158TIP3    H154359   8.181   7.959   0.616
18158TIP3    H254360   8.302   8.049   0.611
18159TIP3   OH254361   7.872   7.221   0.388
18159TIP3    H154362   7.838   7.310   0.400
18159TIP3    H254363   7.804   7.176   0.337
18160TIP3   OH254364   7.955   7.578   0.563
18160TIP3    H154365   8.018   7.507   0.574
18160TIP3    H254366   8.007   7.651   0.528
18161TIP3   OH254367   8.838   8.472   0.264
18161TIP3    H154368   8.860   8.409   0.196
18161TIP3    H254369   8.844   8.423   0.346
18162TIP3   OH254370   8.727   7.973   0.553
18162TIP3    H154371   8.771   7.893   0.526
18162TIP3    H254372   8.797   8.028   0.588
18163TIP3   OH254373   9.759   7.281   0.592
18163TIP3    H154374   9.772   7.367   0.631
18163TIP3    H254375   9.789   7.292   0.501
18164TIP3   OH254376   9.127   7.449   0.603
18164TIP3    H154377   9.165   7.367   0.633
18164TIP3    H254378   9.081   7.425   0.522
18165TIP3   OH254379   8.475   7.082   0.551
18165TIP3    H154380   8.466   7.162   0.499
18165TIP3    H254381   8.421   7.017   0.506
18166TIP3   OH254382   9.172   7.210   0.206
18166TIP3    H154383   9.240   7.206   0.274
18166TIP3    H254384   9.217   7.246   0.130
18167TIP3   OH254385   8.136   7.377   0.607
18167TIP3    H154386   8.212   7.347   0.657
18167TIP3    H254387   8.125   7.311   0.538
18168TIP3   OH254388   8.534   7.524   0.481
18168TIP3    H154389   8.628   7.509   0.490
18168TIP3    H254390   8.498   7.439   0.458
18169TIP3   OH254391   9.805   7.506   0.756
18169TIP3    H154392   9.715   7.538   0.751
18169TIP3    H254393   9.838   7.541   0.839
18170TIP3   OH254394   8.468   7.152   0.973
18170TIP3    H154395   8.403   7.186   0.912
18170TIP3    H254396   8.417   7.116   1.046
18171TIP3   OH254397   5.533   3.342   8.018
18171TIP3    H154398   5.494   3.314   7.936
18171TIP3    H254399   5.484   3.419   8.044
18172TIP3   OH254400   8.584   7.889   0.769
18172TIP3    H154401   8.530   7.958   0.808
18172TIP3    H254402   8.627   7.930   0.695
18173TIP3   OH254403   9.347   7.240   0.411
18173TIP3    H154404   9.304   7.213   0.493
18173TIP3    H254405   9.401   7.314   0.436
18174TIP3   OH254406   8.337   7.237   0.741
18174TIP3    H154407   8.404   7.304   0.757
18174TIP3    H254408   8.379   7.176   0.680
18175TIP3   OH254409   8.436   8.099   0.862
18175TIP3    H154410   8.427   8.178   0.809
18175TIP3    H254411   8.369   8.108   0.931
18176TIP3   OH254412   7.773   7.792   0.144
18176TIP3    H154413   7.738   7.815   0.058
18176TIP3    H254414   7.796   7.877   0.183
18177TIP3   OH254415   9.209   8.298   0.392
18177TIP3    H154416   9.121   8.292   0.429
18177TIP3    H254417   9.210   8.382   0.345
18178TIP3   OH254418   9.554   7.183   0.757
18178TIP3    H154419   9.469   7.207   0.719
18178TIP3    H254420   9.618   7.208   0.691
18179TIP3   OH254421   8.835   6.827   0.695
18179TIP3    H154422   8.822   6.735   0.718
18179TIP3    H254423   8.757   6.871   0.730
18180TIP3   OH254424   8.917   8.326   0.040
18180TIP3    H154425   8.971   8.248   0.031
18180TIP3    H254426   8.974   8.398   0.013
18181TIP3   OH254427   9.070   8.106   0.000
18181TIP3    H154428   9.018   8.029  -0.021
18181TIP3    H254429   9.116   8.083   0.080
18182TIP3   OH254430   9.450   8.179   0.733
18182TIP3    H154431   9.428   8.106   0.675
18182TIP3    H254432   9.435   8.257   0.679
18183TIP3   OH254433   5.467   2.967   8.004
18183TIP3    H154434   5.385   3.011   7.986
18183TIP3    H254435   5.514   2.966   7.921
18184TIP3   OH254436   5.443   2.773   7.687
18184TIP3    H154437   5.507   2.822   7.738
18184TIP3    H254438   5.495   2.708   7.640
18185TIP3   OH254439   9.624   7.849   0.602
18185TIP3    H154440   9.538   7.892   0.598
18185TIP3    H254441   9.659   7.859   0.514
18186TIP3   OH254442   9.095   7.678  -0.038
18186TIP3    H154443   9.040   7.705   0.037
18186TIP3    H254444   9.178   7.651   0.002
18187TIP3   OH254445   9.328   7.721   0.895
18187TIP3    H154446   9.320   7.800   0.949
18187TIP3    H254447   9.251   7.723   0.839
18188TIP3   OH254448   8.318   7.655   0.365
18188TIP3    H154449   8.281   7.594   0.301
18188TIP3    H254450   8.395   7.611   0.399
18189TIP3   OH254451   8.464   8.081   0.505
18189TIP3    H154452   8.434   8.065   0.415
18189TIP3    H254453   8.552   8.045   0.508
18190TIP3   OH254454   8.455   7.657   0.709
18190TIP3    H154455   8.486   7.629   0.623
18190TIP3    H254456   8.502   7.738   0.726
18191TIP3   OH254457   8.968   8.295   0.519
18191TIP3    H154458   8.958   8.374   0.572
18191TIP3    H254459   8.957   8.223   0.580
18192TIP3   OH254460   8.614   8.184   1.059
18192TIP3    H154461   8.555   8.252   1.092
18192TIP3    H254462   8.562   8.134   0.997
18193TIP3   OH254463   5.657   2.919   7.798
18193TIP3    H154464   5.717   2.975   7.847
18193TIP3    H254465   5.685   2.928   7.707
18194TIP3   OH254466   8.480   7.828   1.129
18194TIP3    H154467   8.472   7.898   1.195
18194TIP3    H254468   8.393   7.822   1.090
18195TIP3   OH254469   8.669   8.206   0.052
18195TIP3    H154470   8.752   8.253   0.056
18195TIP3    H254471   8.611   8.265   0.004
18196TIP3   OH254472   8.440   8.393   1.105
18196TIP3    H154473   8.410   8.388   1.015
18196TIP3    H254474   8.362   8.377   1.158
18197TIP3   OH254475   6.155   2.143   7.846
18197TIP3    H154476   6.082   2.166   7.903
18197TIP3    H254477   6.167   2.220   7.791
18198TIP3   OH254478   8.195   7.493   0.166
18198TIP3    H154479   8.118   7.541   0.137
18198TIP3    H254480   8.163   7.403   0.180
18199TIP3   OH254481   5.992   3.520   7.415
18199TIP3    H154482   5.987   3.613   7.393
18199TIP3    H254483   6.083   3.496   7.396
18200TIP3   OH254484   7.956   7.989   0.979
18200TIP3    H154485   7.868   7.975   0.944
18200TIP3    H254486   7.991   7.900   0.992
18201TIP3   OH254487   7.795   8.098   0.751
18201TIP3    H154488   7.886   8.117   0.773
18201TIP3    H254489   7.749   8.181   0.767
18202TIP3   OH254490   9.673   8.547   0.804
18202TIP3    H154491   9.679   8.452   0.815
18202TIP3    H254492   9.594   8.572   0.851
18203TIP3   OH254493   8.786   8.342   0.916
18203TIP3    H154494   8.775   8.431   0.949
18203TIP3    H254495   8.723   8.290   0.966
18204TIP3   OH254496   5.296   3.809   7.883
18204TIP3    H154497   5.248   3.788   7.802
18204TIP3    H254498   5.257   3.891   7.913
18205TIP3   OH254499   8.000   8.277   0.255
18205TIP3    H154500   8.044   8.269   0.340
18205TIP3    H254501   7.946   8.198   0.248
18206TIP3   OH254502   5.497   3.741   7.508
18206TIP3    H154503   5.548   3.667   7.473
18206TIP3    H254504   5.532   3.754   7.596
18207TIP3   OH254505   5.549   3.785   7.778
18207TIP3    H154506   5.462   3.789   7.819
18207TIP3    H254507   5.605   3.744   7.844
18208TIP3   OH254508   9.555   7.663   1.077
18208TIP3    H154509   9.481   7.674   1.018
18208TIP3    H254510   9.579   7.571   1.071
18209TIP3   OH254511   8.261   8.153   1.056
18209TIP3    H154512   8.290   8.127   1.143
18209TIP3    H254513   8.179   8.201   1.072
18210TIP3   OH254514   8.598   6.948   0.762
18210TIP3    H154515   8.550   6.991   0.691
18210TIP3    H254516   8.581   7.002   0.839
18211TIP3   OH254517   9.188   7.047   1.105
18211TIP3    H154518   9.250   6.984   1.142
18211TIP3    H254519   9.108   6.997   1.093
18212TIP3   OH254520   9.322   7.452   0.966
18212TIP3    H154521   9.288   7.444   1.055
18212TIP3    H254522   9.303   7.542   0.940
18213TIP3   OH254523   5.735   2.925   7.539
18213TIP3    H154524   5.691   2.914   7.454
18213TIP3    H254525   5.821   2.959   7.516
18214TIP3   OH254526   5.441   2.319   7.849
18214TIP3    H154527   5.406   2.325   7.938
18214TIP3    H254528   5.408   2.237   7.815
18215TIP3   OH254529   8.530   7.415   0.813
18215TIP3    H154530   8.532   7.418   0.909
18215TIP3    H254531   8.506   7.504   0.787
18216TIP3   OH254532   8.395   7.296   0.402
18216TIP3    H154533   8.302   7.278   0.419
18216TIP3    H254534   8.408   7.269   0.311
18217TIP3   OH254535   8.860   7.382   0.133
18217TIP3    H154536   8.813   7.455   0.093
18217TIP3    H254537   8.918   7.351   0.063
18218TIP3   OH254538   9.091   7.691   1.198
18218TIP3    H154539   9.062   7.630   1.267
18218TIP3    H254540   9.186   7.699   1.212
18219TIP3   OH254541   9.016   7.387   0.360
18219TIP3    H154542   8.955   7.408   0.289
18219TIP3    H254543   9.071   7.316   0.324
18220TIP3   OH254544   8.285   7.525   1.066
18220TIP3    H154545   8.267   7.587   1.137
18220TIP3    H254546   8.228   7.450   1.084
18221TIP3   OH254547   5.111   2.295   7.832
18221TIP3    H154548   5.101   2.302   7.927
18221TIP3    H254549   5.033   2.339   7.796
18222TIP3   OH254550   8.010   6.955   0.635
18222TIP3    H154551   8.103   6.977   0.638
18222TIP3    H254552   7.997   6.917   0.548
18223TIP3   OH254553   7.843   6.942   0.176
18223TIP3    H154554   7.886   6.976   0.097
18223TIP3    H254555   7.778   7.008   0.199
18224TIP3   OH254556   9.083   7.669   0.756
18224TIP3    H154557   9.108   7.596   0.699
18224TIP3    H254558   9.052   7.627   0.836
18225TIP3   OH254559   8.752   7.095   0.450
18225TIP3    H154560   8.677   7.087   0.509
18225TIP3    H254561   8.828   7.097   0.507
18226TIP3   OH254562   8.143   7.178   0.423
18226TIP3    H154563   8.050   7.175   0.402
18226TIP3    H254564   8.176   7.091   0.399
18227TIP3   OH254565   8.400   7.185   0.152
18227TIP3    H154566   8.494   7.198   0.140
18227TIP3    H254567   8.362   7.206   0.067
18228TIP3   OH254568   9.207   7.183   0.639
18228TIP3    H154569   9.199   7.192   0.733
18228TIP3    H254570   9.132   7.129   0.613
18229TIP3   OH254571   5.013   2.590   7.911
18229TIP3    H154572   4.951   2.540   7.858
18229TIP3    H254573   5.067   2.636   7.847
18230TIP3   OH254574   9.391   8.890   0.895
18230TIP3    H154575   9.389   8.903   0.800
18230TIP3    H254576   9.470   8.935   0.923
18231TIP3   OH254577   8.368   8.044   1.292
18231TIP3    H154578   8.441   8.064   1.350
18231TIP3    H254579   8.292   8.038   1.349
18232TIP3   OH254580   8.805   7.474   0.533
18232TIP3    H154581   8.872   7.436   0.476
18232TIP3    H254582   8.812   7.425   0.615
18233TIP3   OH254583   8.289   6.939   0.390
18233TIP3    H154584   8.261   6.855   0.426
18233TIP3    H254585   8.309   6.920   0.299
18234TIP3   OH254586   8.795   7.349   0.785
18234TIP3    H154587   8.705   7.381   0.792
18234TIP3    H254588   8.845   7.404   0.845
18235TIP3   OH254589   5.229   3.099   7.949
18235TIP3    H154590   5.154   3.046   7.924
18235TIP3    H254591   5.201   3.143   8.030
18236TIP3   OH254592   9.386   7.981   0.553
18236TIP3    H154593   9.423   8.029   0.479
18236TIP3    H254594   9.308   7.939   0.517
18237TIP3   OH254595   5.696   2.420   7.856
18237TIP3    H154596   5.602   2.401   7.851
18237TIP3    H254597   5.700   2.516   7.866
18238TIP3   OH254598   8.913   8.063   0.959
18238TIP3    H154599   8.958   8.044   1.042
18238TIP3    H254600   8.862   8.142   0.978
18239TIP3   OH254601   5.757   2.686   7.921
18239TIP3    H154602   5.852   2.689   7.929
18239TIP3    H254603   5.735   2.762   7.867
18240TIP3   OH254604   8.171   7.773   0.570
18240TIP3    H154605   8.225   7.739   0.499
18240TIP3    H254606   8.200   7.725   0.647
18241TIP3   OH254607   5.382   3.262   7.793
18241TIP3    H154608   5.334   3.345   7.790
18241TIP3    H254609   5.326   3.204   7.845
18242TIP3   OH254610   8.210   7.671   1.285
18242TIP3    H154611   8.184   7.760   1.309
18242TIP3    H254612   8.130   7.620   1.294
18243TIP3   OH254613   8.861   7.840   1.235
18243TIP3    H154614   8.799   7.779   1.194
18243TIP3    H254615   8.947   7.807   1.209
18244TIP3   OH254616   9.057   8.356   0.852
18244TIP3    H154617   8.962   8.341   0.854
18244TIP3    H254618   9.078   8.390   0.939
18245TIP3   OH254619   6.178   2.783   7.754
18245TIP3    H154620   6.122   2.734   7.693
18245TIP3    H254621   6.180   2.872   7.718
18246TIP3   OH254622   9.693   8.272   0.822
18246TIP3    H154623   9.600   8.250   0.820
18246TIP3    H254624   9.727   8.240   0.739
18247TIP3   OH254625   5.911   3.590   7.679
18247TIP3    H154626   5.885   3.519   7.739
18247TIP3    H254627   5.930   3.546   7.596
18248TIP3   OH254628   9.162   7.847   0.443
18248TIP3    H154629   9.070   7.827   0.462
18248TIP3    H254630   9.197   7.765   0.407
18249TIP3   OH254631   8.313   8.083   0.267
18249TIP3    H154632   8.311   8.158   0.208
18249TIP3    H254633   8.223   8.077   0.300
18250TIP3   OH254634   4.613   2.749   7.978
18250TIP3    H154635   4.657   2.831   8.000
18250TIP3    H254636   4.529   2.753   8.023
18251TIP3   OH254637   8.388   7.838   0.164
18251TIP3    H154638   8.374   7.927   0.197
18251TIP3    H254639   8.365   7.782   0.238
18252TIP3   OH254640   8.616   8.405   0.700
18252TIP3    H154641   8.652   8.480   0.654
18252TIP3    H254642   8.687   8.376   0.758
18253TIP3   OH254643   8.234   8.304   0.113
18253TIP3    H154644   8.147   8.307   0.152
18253TIP3    H254645   8.266   8.394   0.120
18254TIP3   OH254646   8.954   8.070   0.687
18254TIP3    H154647   8.938   8.067   0.781
18254TIP3    H254648   9.030   8.014   0.673
18255TIP3   OH254649   5.681   3.325   7.563
18255TIP3    H154650   5.729   3.302   7.643
18255TIP3    H254651   5.599   3.276   7.570
18256TIP3   OH254652   9.209   8.562   0.735
18256TIP3    H154653   9.141   8.498   0.756
18256TIP3    H254654   9.171   8.614   0.664
18257TIP3   OH254655   5.988   3.793   7.371
18257TIP3    H154656   6.007   3.854   7.299
18257TIP3    H254657   5.917   3.834   7.420
18258TIP3   OH254658   8.290   7.285   1.328
18258TIP3    H154659   8.229   7.301   1.256
18258TIP3    H254660   8.318   7.194   1.315
18259TIP3   OH254661   5.850   3.259   7.771
18259TIP3    H154662   5.834   3.194   7.840
18259TIP3    H254663   5.945   3.261   7.761
18260TIP3   OH254664   8.034   8.239   0.809
18260TIP3    H154665   8.111   8.184   0.791
18260TIP3    H254666   8.034   8.250   0.904
18261TIP3   OH254667   5.026   3.289   7.582
18261TIP3    H154668   5.038   3.198   7.555
18261TIP3    H254669   5.014   3.285   7.677
18262TIP3   OH254670   4.968   3.307   7.855
18262TIP3    H154671   5.027   3.282   7.925
18262TIP3    H254672   4.967   3.403   7.857
18263TIP3   OH254673   7.972   7.618   0.059
18263TIP3    H154674   7.906   7.665   0.109
18263TIP3    H254675   7.992   7.676  -0.015
18264TIP3   OH254676   9.179   7.224   0.899
18264TIP3    H154677   9.219   7.308   0.923
18264TIP3    H254678   9.183   7.172   0.979
18265TIP3   OH254679   9.026   6.991   0.120
18265TIP3    H154680   9.006   7.010   0.029
18265TIP3    H254681   9.070   7.070   0.152
18266TIP3   OH254682   5.238   3.491   7.787
18266TIP3    H154683   5.153   3.515   7.824
18266TIP3    H254684   5.262   3.566   7.732
18267TIP3   OH254685   8.676   7.192   0.203
18267TIP3    H154686   8.737   7.260   0.177
18267TIP3    H254687   8.701   7.169   0.293
18268TIP3   OH254688   9.009   7.543   0.981
18268TIP3    H154689   9.036   7.595   1.057
18268TIP3    H254690   8.978   7.460   1.018
18269TIP3   OH254691   8.839   6.883   0.288
18269TIP3    H154692   8.818   6.960   0.341
18269TIP3    H254693   8.910   6.912   0.231
18270TIP3   OH254694   4.989   3.581   7.863
18270TIP3    H154695   4.970   3.654   7.804
18270TIP3    H254696   4.979   3.618   7.951
18271TIP3   OH254697   8.351   6.915   0.112
18271TIP3    H154698   8.345   7.009   0.126
18271TIP3    H254699   8.444   6.896   0.114
18272TIP3   OH254700   9.587   7.392   0.973
18272TIP3    H154701   9.492   7.404   0.976
18272TIP3    H254702   9.602   7.331   0.901
18273TIP3   OH254703   9.256   7.587   0.363
18273TIP3    H154704   9.179   7.533   0.383
18273TIP3    H254705   9.326   7.550   0.416
18274TIP3   OH254706   4.725   3.173   7.842
18274TIP3    H154707   4.797   3.235   7.852
18274TIP3    H254708   4.757   3.110   7.777
18275TIP3   OH254709   4.631   2.472   7.956
18275TIP3    H154710   4.646   2.565   7.971
18275TIP3    H254711   4.560   2.469   7.892
18276TIP3   OH254712   9.233   8.565   0.308
18276TIP3    H154713   9.192   8.617   0.239
18276TIP3    H254714   9.327   8.576   0.293
18277TIP3   OH254715   8.294   6.879   0.719
18277TIP3    H154716   8.276   6.826   0.641
18277TIP3    H254717   8.378   6.847   0.751
18278TIP3   OH254718   7.826   8.050   0.236
18278TIP3    H154719   7.800   8.082   0.323
18278TIP3    H254720   7.779   8.106   0.175
18279TIP3   OH254721   8.044   8.541   1.186
18279TIP3    H154722   8.129   8.508   1.215
18279TIP3    H254723   8.001   8.572   1.265
18280TIP3   OH254724   8.518   8.554   1.320
18280TIP3    H154725   8.607   8.523   1.339
18280TIP3    H254726   8.494   8.510   1.239
18281TIP3   OH254727   5.179   3.490   7.468
18281TIP3    H154728   5.133   3.420   7.515
18281TIP3    H254729   5.255   3.446   7.429
18282TIP3   OH254730   9.108   8.453   1.104
18282TIP3    H154731   9.124   8.381   1.165
18282TIP3    H254732   9.182   8.512   1.116
18283TIP3   OH254733   5.626   3.529   7.390
18283TIP3    H154734   5.658   3.465   7.453
18283TIP3    H254735   5.685   3.521   7.315
18284TIP3   OH254736   8.201   8.016   1.520
18284TIP3    H154737   8.256   7.938   1.533
18284TIP3    H254738   8.112   7.982   1.515
18285TIP3   OH254739   4.847   2.982   7.688
18285TIP3    H154740   4.898   2.957   7.766
18285TIP3    H254741   4.913   2.996   7.620
18286TIP3   OH254742   8.761   8.095   1.272
18286TIP3    H154743   8.712   8.112   1.191
18286TIP3    H254744   8.801   8.010   1.258
18287TIP3   OH254745   5.427   3.203   7.529
18287TIP3    H154746   5.403   3.213   7.621
18287TIP3    H254747   5.408   3.111   7.509
18288TIP3   OH254748   9.226   8.130   0.890
18288TIP3    H154749   9.302   8.157   0.839
18288TIP3    H254750   9.160   8.197   0.872
18289TIP3   OH254751   8.103   7.713   1.549
18289TIP3    H154752   8.126   7.626   1.515
18289TIP3    H254753   8.187   7.757   1.559
18290TIP3   OH254754   5.020   2.923   7.900
18290TIP3    H154755   5.001   2.892   7.989
18290TIP3    H254756   5.071   2.853   7.861
18291TIP3   OH254757   8.690   7.655   1.121
18291TIP3    H154758   8.614   7.714   1.128
18291TIP3    H254759   8.719   7.665   1.031
18292TIP3   OH254760   5.170   2.744   7.746
18292TIP3    H154761   5.139   2.749   7.656
18292TIP3    H254762   5.265   2.751   7.740
18293TIP3   OH254763   9.127   8.004   1.245
18293TIP3    H154764   9.192   7.968   1.184
18293TIP3    H254765   9.129   7.944   1.320
18294TIP3   OH254766   5.960   3.033   7.414
18294TIP3    H154767   5.948   2.988   7.330
18294TIP3    H254768   5.934   3.123   7.397
18295TIP3   OH254769   8.767   7.454   1.297
18295TIP3    H154770   8.723   7.374   1.271
18295TIP3    H254771   8.752   7.515   1.225
18296TIP3   OH254772   8.735   7.134   0.956
18296TIP3    H154773   8.769   7.186   0.883
18296TIP3    H254774   8.643   7.159   0.963
18297TIP3   OH254775   8.760   7.703   0.866
18297TIP3    H154776   8.847   7.735   0.841
18297TIP3    H254777   8.699   7.770   0.835
18298TIP3   OH254778   9.349   7.700   1.294
18298TIP3    H154779   9.373   7.633   1.359
18298TIP3    H254780   9.427   7.710   1.241
18299TIP3   OH254781   9.343   7.953   1.060
18299TIP3    H154782   9.292   8.016   1.009
18299TIP3    H254783   9.433   7.965   1.029
18300TIP3   OH254784   8.660   7.548   1.521
18300TIP3    H154785   8.572   7.510   1.526
18300TIP3    H254786   8.691   7.526   1.433
18301TIP3   OH254787   8.927   6.970   1.086
18301TIP3    H154788   8.861   7.008   1.028
18301TIP3    H254789   8.897   6.880   1.099
18302TIP3   OH254790   9.023   7.498   1.375
18302TIP3    H154791   9.031   7.488   1.470
18302TIP3    H254792   8.933   7.471   1.355
18303TIP3   OH254793   9.230   7.414   1.214
18303TIP3    H154794   9.152   7.443   1.261
18303TIP3    H254795   9.275   7.355   1.275
18304TIP3   OH254796   9.528   7.357   1.357
18304TIP3    H154797   9.484   7.273   1.367
18304TIP3    H254798   9.481   7.416   1.416
18305TIP3   OH254799   8.443   7.379   1.532
18305TIP3    H154800   8.410   7.325   1.461
18305TIP3    H254801   8.430   7.326   1.610
18306TIP3   OH254802   9.100   6.905   1.403
18306TIP3    H154803   9.138   6.817   1.410
18306TIP3    H254804   9.056   6.905   1.317
18307TIP3   OH254805   9.023   7.210   1.587
18307TIP3    H154806   9.010   7.116   1.598
18307TIP3    H254807   8.943   7.241   1.544
18308TIP3   OH254808   4.992   3.795   7.684
18308TIP3    H154809   5.080   3.769   7.657
18308TIP3    H254810   4.954   3.837   7.608
18309TIP3   OH254811   4.451   3.175   7.853
18309TIP3    H154812   4.546   3.183   7.853
18309TIP3    H254813   4.434   3.088   7.817
18310TIP3   OH254814   7.792   8.173   0.479
18310TIP3    H154815   7.785   8.123   0.561
18310TIP3    H254816   7.817   8.261   0.508
18311TIP3   OH254817   9.504   8.615   0.296
18311TIP3    H154818   9.529   8.640   0.385
18311TIP3    H254819   9.568   8.659   0.240
18312TIP3   OH254820   9.528   8.638   0.578
18312TIP3    H154821   9.479   8.556   0.571
18312TIP3    H254822   9.595   8.621   0.644
18313TIP3   OH254823   9.577   8.348   1.147
18313TIP3    H154824   9.508   8.355   1.212
18313TIP3    H254825   9.623   8.432   1.151
18314TIP3   OH254826   6.129   3.241   7.759
18314TIP3    H154827   6.187   3.311   7.730
18314TIP3    H254828   6.174   3.201   7.833
18315TIP3   OH254829   6.258   3.099   7.960
18315TIP3    H154830   6.191   3.059   8.016
18315TIP3    H254831   6.323   3.134   8.022
18316TIP3   OH254832   9.573   8.116   0.393
18316TIP3    H154833   9.624   8.045   0.355
18316TIP3    H254834   9.577   8.187   0.329
18317TIP3   OH254835   9.381   8.402   0.585
18317TIP3    H154836   9.315   8.449   0.636
18317TIP3    H254837   9.333   8.362   0.513
18318TIP3   OH254838   6.161   3.015   7.603
18318TIP3    H154839   6.092   3.013   7.537
18318TIP3    H254840   6.143   3.094   7.654
18319TIP3   OH254841   6.038   2.667   7.557
18319TIP3    H154842   6.046   2.707   7.471
18319TIP3    H254843   6.008   2.578   7.539
18320TIP3   OH254844   9.321   7.577   0.093
18320TIP3    H154845   9.325   7.483   0.078
18320TIP3    H254846   9.302   7.586   0.186
18321TIP3   OH254847   7.950   7.702   0.805
18321TIP3    H154848   7.938   7.663   0.718
18321TIP3    H254849   8.045   7.699   0.820
18322TIP3   OH254850   9.596   7.990   0.953
18322TIP3    H154851   9.662   7.923   0.938
18322TIP3    H254852   9.596   8.043   0.874
18323TIP3   OH254853   9.774   7.781   0.949
18323TIP3    H154854   9.703   7.738   0.996
18323TIP3    H254855   9.852   7.728   0.970
18324TIP3   OH254856   5.976   2.401   7.512
18324TIP3    H154857   6.042   2.375   7.577
18324TIP3    H254858   5.895   2.360   7.543
18325TIP3   OH254859   6.046   2.681   7.982
18325TIP3    H154860   6.093   2.598   7.995
18325TIP3    H254861   6.091   2.722   7.908
18326TIP3   OH254862   9.473   7.470   0.503
18326TIP3    H154863   9.555   7.488   0.457
18326TIP3    H254864   9.486   7.509   0.590
18327TIP3   OH254865   9.545   7.618   0.731
18327TIP3    H154866   9.472   7.647   0.786
18327TIP3    H254867   9.576   7.698   0.689
18328TIP3   OH254868   8.189   7.458   1.525
18328TIP3    H154869   8.282   7.461   1.548
18328TIP3    H254870   8.183   7.392   1.456
18329TIP3   OH254871   0.197   7.233   1.258
18329TIP3    H154872   0.258   7.166   1.229
18329TIP3    H254873   0.169   7.277   1.178
18330TIP3   OH254874   9.430   7.052   0.034
18330TIP3    H154875   9.472   7.040   0.119
18330TIP3    H254876   9.369   6.979   0.026
18331TIP3   OH254877   8.168   7.058   0.907
18331TIP3    H154878   8.220   6.994   0.859
18331TIP3    H254879   8.174   7.138   0.855
18332TIP3   OH254880   8.045   7.354   0.863
18332TIP3    H154881   8.065   7.374   0.772
18332TIP3    H254882   7.966   7.405   0.882
18333TIP3   OH254883   0.066   7.336   1.043
18333TIP3    H154884  -0.005   7.378   1.090
18333TIP3    H254885   0.025   7.261   1.000
18334TIP3   OH254886   6.199   2.350   7.673
18334TIP3    H154887   6.245   2.289   7.615
18334TIP3    H254888   6.257   2.426   7.678
18335TIP3   OH254889   7.937   6.822   0.401
18335TIP3    H154890   7.856   6.787   0.438
18335TIP3    H254891   7.909   6.869   0.323
18336TIP3   OH254892   5.793   3.912   7.942
18336TIP3    H154893   5.848   3.897   7.866
18336TIP3    H254894   5.840   3.979   7.993
18337TIP3   OH254895   8.127   6.811   1.171
18337TIP3    H154896   8.110   6.789   1.263
18337TIP3    H254897   8.105   6.904   1.165
18338TIP3   OH254898   8.240   8.367   1.289
18338TIP3    H154899   8.164   8.320   1.324
18338TIP3    H254900   8.303   8.366   1.361
18339TIP3   OH254901   8.383   8.375   0.835
18339TIP3    H154902   8.330   8.450   0.809
18339TIP3    H254903   8.467   8.389   0.792
18340TIP3   OH254904   8.767   8.602   1.008
18340TIP3    H154905   8.804   8.594   1.096
18340TIP3    H254906   8.830   8.656   0.961
18341TIP3   OH254907   8.958   8.755   0.881
18341TIP3    H154908   9.018   8.699   0.831
18341TIP3    H254909   9.015   8.810   0.934
18342TIP3   OH254910   9.760   7.089   0.962
18342TIP3    H154911   9.674   7.084   0.919
18342TIP3    H254912   9.794   6.999   0.957
18343TIP3   OH254913   8.052   8.626   0.911
18343TIP3    H154914   7.969   8.634   0.866
18343TIP3    H254915   8.032   8.577   0.991
18344TIP3   OH254916   8.275   8.612   0.755
18344TIP3    H154917   8.197   8.621   0.809
18344TIP3    H254918   8.244   8.632   0.666
18345TIP3   OH254919   8.682   8.626   0.550
18345TIP3    H154920   8.606   8.634   0.491
18345TIP3    H254921   8.688   8.711   0.593
18346TIP3   OH254922   8.942   8.559   0.608
18346TIP3    H154923   8.851   8.578   0.584
18346TIP3    H254924   8.994   8.624   0.560
18347TIP3   OH254925   9.146   8.728   0.511
18347TIP3    H154926   9.142   8.814   0.469
18347TIP3    H254927   9.175   8.669   0.442
18348TIP3   OH254928   7.939   8.393   0.606
18348TIP3    H154929   7.963   8.354   0.690
18348TIP3    H254930   8.008   8.365   0.546
18349TIP3   OH254931   8.152   8.273   0.483
18349TIP3    H154932   8.161   8.197   0.540
18349TIP3    H254933   8.238   8.316   0.488
18350TIP3   OH254934   8.422   8.358   0.506
18350TIP3    H154935   8.437   8.265   0.491
18350TIP3    H254936   8.482   8.381   0.577
18351TIP3   OH254937   8.992   7.017   0.572
18351TIP3    H154938   8.942   6.945   0.610
18351TIP3    H254939   9.057   6.974   0.516
18352TIP3   OH254940   9.473   6.931   0.506
18352TIP3    H154941   9.511   6.977   0.431
18352TIP3    H254942   9.379   6.947   0.499
18353TIP3   OH254943   9.579   7.002   0.264
18353TIP3    H154944   9.643   6.939   0.231
18353TIP3    H254945   9.619   7.088   0.249
18354TIP3   OH254946   8.219   6.710   0.518
18354TIP3    H154947   8.128   6.679   0.515
18354TIP3    H254948   8.271   6.631   0.533
18355TIP3   OH254949   8.020   6.600   0.233
18355TIP3    H154950   8.056   6.647   0.158
18355TIP3    H254951   8.002   6.668   0.298
18356TIP3   OH254952   8.673   6.761   0.474
18356TIP3    H154953   8.722   6.797   0.400
18356TIP3    H254954   8.726   6.783   0.550
18357TIP3   OH254955   9.196   6.883   0.444
18357TIP3    H154956   9.235   6.846   0.365
18357TIP3    H254957   9.191   6.810   0.506
18358TIP3   OH254958   9.245   6.841   0.040
18358TIP3    H154959   9.166   6.889   0.066
18358TIP3    H254960   9.234   6.754   0.078
18359TIP3   OH254961   7.703   8.220   0.064
18359TIP3    H154962   7.630   8.190   0.011
18359TIP3    H254963   7.681   8.311   0.086
18360TIP3   OH254964   8.143   6.740   0.017
18360TIP3    H154965   8.190   6.680  -0.041
18360TIP3    H254966   8.212   6.797   0.053
18361TIP3   OH254967   8.624   6.939   0.111
18361TIP3    H154968   8.687   6.886   0.161
18361TIP3    H254969   8.641   7.029   0.139
18362TIP3   OH254970   5.243   3.712   7.612
18362TIP3    H154971   5.327   3.739   7.574
18362TIP3    H254972   5.212   3.641   7.556
18363TIP3   OH254973   5.944   3.859   7.715
18363TIP3    H154974   5.938   3.763   7.708
18363TIP3    H254975   5.901   3.891   7.635
18364TIP3   OH254976   8.423   7.088   1.550
18364TIP3    H154977   8.418   6.994   1.567
18364TIP3    H254978   8.513   7.103   1.523
18365TIP3   OH254979   4.557   3.567   7.673
18365TIP3    H154980   4.555   3.567   7.768
18365TIP3    H254981   4.636   3.517   7.651
18366TIP3   OH254982   9.516   7.071   1.380
18366TIP3    H154983   9.531   7.039   1.469
18366TIP3    H254984   9.603   7.088   1.345
18367TIP3   OH254985   9.425   8.616   0.902
18367TIP3    H154986   9.352   8.586   0.848
18367TIP3    H254987   9.413   8.710   0.910
18368TIP3   OH254988   7.440   3.383   7.638
18368TIP3    H154989   7.411   3.472   7.617
18368TIP3    H254990   7.368   3.327   7.612
18369TIP3   OH254991   0.881   7.998   0.079
18369TIP3    H154992   0.938   7.984   0.155
18369TIP3    H254993   0.841   7.912   0.064
18370TIP3   OH254994   0.198   7.853   0.408
18370TIP3    H154995   0.238   7.802   0.478
18370TIP3    H254996   0.272   7.878   0.351
18371TIP3   OH254997   7.680   3.651   7.741
18371TIP3    H154998   7.676   3.583   7.807
18371TIP3    H254999   7.731   3.722   7.781
18372TIP3   OH255000   0.185   8.283   0.098
18372TIP3    H155001   0.168   8.189   0.100
18372TIP3    H255002   0.280   8.291   0.089
18373TIP3   OH255003   6.413   2.875   7.882
18373TIP3    H155004   6.375   2.959   7.906
18373TIP3    H255005   6.341   2.825   7.844
18374TIP3   OH255006   9.755   7.799   0.102
18374TIP3    H155007   9.806   7.721   0.126
18374TIP3    H255008   9.821   7.863   0.075
18375TIP3   OH255009   7.346   4.124   7.742
18375TIP3    H155010   7.382   4.058   7.682
18375TIP3    H255011   7.337   4.078   7.825
18376TIP3   OH255012   0.704   8.220   0.070
18376TIP3    H155013   0.756   8.140   0.062
18376TIP3    H255014   0.769   8.290   0.068
18377TIP3   OH255015   1.733   7.537   0.071
18377TIP3    H155016   1.744   7.620   0.118
18377TIP3    H255017   1.763   7.555  -0.018
18378TIP3   OH255018   1.111   7.700   0.103
18378TIP3    H155019   1.146   7.615   0.131
18378TIP3    H255020   1.071   7.682   0.018
18379TIP3   OH255021   0.473   7.362   0.060
18379TIP3    H155022   0.451   7.434   0.002
18379TIP3    H255023   0.419   7.289   0.030
18380TIP3   OH255024   7.705   2.847   7.703
18380TIP3    H155025   7.769   2.841   7.774
18380TIP3    H255026   7.754   2.885   7.630
18381TIP3   OH255027   0.097   7.577   0.190
18381TIP3    H155028   0.180   7.558   0.233
18381TIP3    H255029   0.099   7.526   0.110
18382TIP3   OH255030   7.045   3.159   8.011
18382TIP3    H155031   7.139   3.144   8.017
18382TIP3    H255032   7.010   3.077   7.976
18383TIP3   OH255033   1.773   7.748   0.247
18383TIP3    H155034   1.696   7.803   0.233
18383TIP3    H255035   1.809   7.779   0.330
18384TIP3   OH255036   0.450   7.367   0.514
18384TIP3    H155037   0.400   7.402   0.440
18384TIP3    H255038   0.395   7.384   0.590
18385TIP3   OH255039   7.329   3.602   7.503
18385TIP3    H155040   7.290   3.571   7.421
18385TIP3    H255041   7.276   3.677   7.528
18386TIP3   OH255042   0.539   8.142   0.279
18386TIP3    H155043   0.489   8.215   0.315
18386TIP3    H255044   0.591   8.181   0.208
18387TIP3   OH255045   7.865   2.863   7.925
18387TIP3    H155046   7.820   2.842   8.007
18387TIP3    H255047   7.919   2.939   7.945
18388TIP3   OH255048   0.344   7.473   0.281
18388TIP3    H155049   0.399   7.548   0.303
18388TIP3    H255050   0.389   7.430   0.209
18389TIP3   OH255051   0.391   8.350   0.388
18389TIP3    H155052   0.378   8.440   0.358
18389TIP3    H255053   0.313   8.330   0.440
18390TIP3   OH255054   6.302   3.430   7.645
18390TIP3    H155055   6.269   3.446   7.556
18390TIP3    H255056   6.324   3.517   7.678
18391TIP3   OH255057   1.537   7.413   0.238
18391TIP3    H155058   1.451   7.448   0.216
18391TIP3    H255059   1.595   7.448   0.170
18392TIP3   OH255060   0.786   7.059   0.239
18392TIP3    H155061   0.776   6.966   0.259
18392TIP3    H255062   0.709   7.101   0.278
18393TIP3   OH255063   7.446   3.962   7.538
18393TIP3    H155064   7.499   3.883   7.530
18393TIP3    H255065   7.503   4.033   7.508
18394TIP3   OH255066   7.578   3.727   7.496
18394TIP3    H155067   7.502   3.670   7.493
18394TIP3    H255068   7.626   3.701   7.574
18395TIP3   OH255069   1.455   8.421   0.226
18395TIP3    H155070   1.425   8.354   0.165
18395TIP3    H255071   1.439   8.504   0.181
18396TIP3   OH255072   7.264   3.224   7.492
18396TIP3    H155073   7.180   3.266   7.474
18396TIP3    H255074   7.310   3.224   7.409
18397TIP3   OH255075   7.228   3.036   7.181
18397TIP3    H155076   7.295   3.083   7.232
18397TIP3    H255077   7.277   2.966   7.137
18398TIP3   OH255078   1.614   8.103   0.095
18398TIP3    H155079   1.527   8.144   0.089
18398TIP3    H255080   1.647   8.105   0.006
18399TIP3   OH255081   7.625   3.311   7.450
18399TIP3    H155082   7.571   3.342   7.523
18399TIP3    H255083   7.709   3.289   7.490
18400TIP3   OH255084   1.309   7.961   0.392
18400TIP3    H155085   1.302   8.043   0.442
18400TIP3    H255086   1.228   7.955   0.342
18401TIP3   OH255087   6.849   3.291   7.856
18401TIP3    H155088   6.813   3.230   7.792
18401TIP3    H255089   6.921   3.244   7.897
18402TIP3   OH255090   6.981   3.712   8.000
18402TIP3    H155091   6.957   3.697   7.908
18402TIP3    H255092   7.066   3.669   8.010
18403TIP3   OH255093   0.409   7.906   0.232
18403TIP3    H155094   0.449   7.870   0.152
18403TIP3    H255095   0.457   7.987   0.248
18404TIP3   OH255096   0.588   8.453   0.558
18404TIP3    H155097   0.524   8.509   0.603
18404TIP3    H255098   0.536   8.398   0.500
18405TIP3   OH255099   7.454   3.172   7.283
18405TIP3    H155100   7.513   3.231   7.330
18405TIP3    H255101   7.484   3.175   7.193
18406TIP3   OH255102   0.341   7.986   0.704
18406TIP3    H155103   0.346   8.081   0.717
18406TIP3    H255104   0.248   7.967   0.695
18407TIP3   OH255105   7.197   3.844   7.541
18407TIP3    H155106   7.281   3.890   7.548
18407TIP3    H255107   7.140   3.904   7.492
18408TIP3   OH255108   0.371   8.607   0.637
18408TIP3    H155109   0.349   8.615   0.545
18408TIP3    H255110   0.288   8.593   0.681
18409TIP3   OH255111   7.958   2.396   7.344
18409TIP3    H155112   7.883   2.420   7.399
18409TIP3    H255113   7.971   2.472   7.287
18410TIP3   OH255114   6.724   3.132   7.657
18410TIP3    H155115   6.645   3.178   7.629
18410TIP3    H255116   6.695   3.041   7.672
18411TIP3   OH255117   7.790   3.777   6.899
18411TIP3    H155118   7.783   3.871   6.881
18411TIP3    H255119   7.879   3.753   6.872
18412TIP3   OH255120   9.774   8.159   0.588
18412TIP3    H155121   9.704   8.140   0.525
18412TIP3    H255122   9.808   8.073   0.613
18413TIP3   OH255123   9.635   8.340   0.232
18413TIP3    H155124   9.731   8.347   0.228
18413TIP3    H255125   9.607   8.418   0.278
18414TIP3   OH255126   1.684   8.828   0.293
18414TIP3    H155127   1.689   8.732   0.295
18414TIP3    H255128   1.603   8.849   0.339
18415TIP3   OH255129   0.749   8.613   0.402
18415TIP3    H155130   0.743   8.699   0.444
18415TIP3    H255131   0.704   8.553   0.462
18416TIP3   OH255132   7.090   4.062   7.372
18416TIP3    H155133   7.046   4.043   7.289
18416TIP3    H255134   7.054   4.146   7.400
18417TIP3   OH255135   6.525   3.924   7.748
18417TIP3    H155136   6.568   3.915   7.833
18417TIP3    H255137   6.475   3.843   7.738
18418TIP3   OH255138   7.291   3.999   6.996
18418TIP3    H155139   7.342   3.926   6.961
18418TIP3    H255140   7.325   4.013   7.084
18419TIP3   OH255141   7.344   4.042   7.265
18419TIP3    H155142   7.260   4.042   7.310
18419TIP3    H255143   7.406   4.011   7.331
18420TIP3   OH255144   1.559   7.938   0.549
18420TIP3    H155145   1.475   7.944   0.504
18420TIP3    H255146   1.581   7.845   0.548
18421TIP3   OH255147   0.170   8.350   0.556
18421TIP3    H155148   0.222   8.335   0.635
18421TIP3    H255149   0.099   8.286   0.562
18422TIP3   OH255150   0.554   7.149   0.372
18422TIP3    H155151   0.470   7.115   0.339
18422TIP3    H255152   0.530   7.230   0.418
18423TIP3   OH255153   1.089   7.276   0.565
18423TIP3    H155154   1.159   7.255   0.626
18423TIP3    H255155   1.008   7.262   0.615
18424TIP3   OH255156   1.328   7.697   0.482
18424TIP3    H155157   1.285   7.691   0.567
18424TIP3    H255158   1.308   7.785   0.451
18425TIP3   OH255159   7.534   3.137   7.019
18425TIP3    H155160   7.488   3.146   6.936
18425TIP3    H255161   7.615   3.187   7.008
18426TIP3   OH255162   7.245   2.578   7.333
18426TIP3    H155163   7.201   2.590   7.417
18426TIP3    H255164   7.210   2.496   7.298
18427TIP3   OH255165   0.495   7.685   0.378
18427TIP3    H155166   0.451   7.692   0.462
18427TIP3    H255167   0.471   7.765   0.332
18428TIP3   OH255168   6.910   2.943   7.902
18428TIP3    H155169   6.821   2.918   7.926
18428TIP3    H255170   6.920   2.911   7.812
18429TIP3   OH255171   7.386   3.018   7.630
18429TIP3    H155172   7.338   3.092   7.591
18429TIP3    H255173   7.444   2.988   7.560
18430TIP3   OH255174   1.052   7.904   0.701
18430TIP3    H155175   1.025   7.837   0.763
18430TIP3    H255176   1.144   7.922   0.723
18431TIP3   OH255177   7.546   3.019   7.857
18431TIP3    H155178   7.480   3.044   7.792
18431TIP3    H255179   7.594   2.947   7.815
18432TIP3   OH255180   0.335   7.701   0.601
18432TIP3    H155181   0.348   7.765   0.670
18432TIP3    H255182   0.316   7.619   0.647
18433TIP3   OH255183   6.909   2.549   7.315
18433TIP3    H155184   6.899   2.553   7.410
18433TIP3    H255185   6.830   2.591   7.281
18434TIP3   OH255186   9.723   7.214   0.180
18434TIP3    H155187   9.795   7.250   0.232
18434TIP3    H255188   9.763   7.189   0.097
18435TIP3   OH255189   6.360   2.579   7.689
18435TIP3    H155190   6.401   2.612   7.609
18435TIP3    H255191   6.299   2.648   7.715
18436TIP3   OH255192   1.061   7.902   0.276
18436TIP3    H155193   1.083   7.834   0.213
18436TIP3    H255194   1.015   7.856   0.346
18437TIP3   OH255195   7.275   2.743   7.962
18437TIP3    H155196   7.194   2.739   8.014
18437TIP3    H255197   7.345   2.733   8.026
18438TIP3   OH255198   6.672   2.818   7.960
18438TIP3    H155199   6.583   2.823   7.923
18438TIP3    H255200   6.699   2.728   7.943
18439TIP3   OH255201   6.924   2.823   7.657
18439TIP3    H155202   7.019   2.821   7.644
18439TIP3    H255203   6.889   2.837   7.569
18440TIP3   OH255204   1.190   7.439   0.161
18440TIP3    H155205   1.172   7.460   0.252
18440TIP3    H255206   1.119   7.380   0.135
18441TIP3   OH255207   6.810   2.841   7.409
18441TIP3    H155208   6.748   2.790   7.356
18441TIP3    H255209   6.863   2.889   7.344
18442TIP3   OH255210   1.386   9.153   0.383
18442TIP3    H155211   1.387   9.161   0.288
18442TIP3    H255212   1.466   9.198   0.411
18443TIP3   OH255213   0.323   8.257   0.786
18443TIP3    H155214   0.405   8.277   0.832
18443TIP3    H255215   0.255   8.266   0.853
18444TIP3   OH255216   0.784   7.725   0.060
18444TIP3    H155217   0.849   7.677   0.009
18444TIP3    H255218   0.784   7.684   0.146
18445TIP3   OH255219   6.813   2.570   7.945
18445TIP3    H155220   6.778   2.498   7.998
18445TIP3    H255221   6.840   2.529   7.863
18446TIP3   OH255222   0.762   7.629   0.324
18446TIP3    H155223   0.675   7.662   0.347
18446TIP3    H255224   0.822   7.680   0.378
18447TIP3   OH255225   7.024   3.355   7.436
18447TIP3    H155226   6.949   3.300   7.412
18447TIP3    H255227   6.998   3.397   7.518
18448TIP3   OH255228   1.363   8.204   0.062
18448TIP3    H155229   1.349   8.282   0.008
18448TIP3    H255230   1.290   8.147   0.042
18449TIP3   OH255231   7.497   2.679   7.346
18449TIP3    H155232   7.404   2.657   7.341
18449TIP3    H255233   7.499   2.774   7.359
18450TIP3   OH255234   0.906   8.280   0.497
18450TIP3    H155235   0.963   8.276   0.573
18450TIP3    H255236   0.937   8.355   0.447
18451TIP3   OH255237   7.552   2.944   7.415
18451TIP3    H155238   7.647   2.950   7.426
18451TIP3    H255239   7.529   3.022   7.364
18452TIP3   OH255240   0.181   7.995   0.082
18452TIP3    H155241   0.220   7.977  -0.004
18452TIP3    H255242   0.247   7.966   0.144
18453TIP3   OH255243   7.177   3.517   7.280
18453TIP3    H155244   7.129   3.600   7.278
18453TIP3    H255245   7.122   3.459   7.333
18454TIP3   OH255246   0.066   7.926   0.720
18454TIP3    H155247   0.067   7.899   0.812
18454TIP3    H255248  -0.009   7.879   0.684
18455TIP3   OH255249   0.817   8.056   0.746
18455TIP3    H155250   0.747   8.000   0.712
18455TIP3    H255251   0.897   8.018   0.710
18456TIP3   OH255252   1.013   8.539   0.392
18456TIP3    H155253   0.923   8.567   0.374
18456TIP3    H255254   1.046   8.603   0.455
18457TIP3   OH255255   7.964   3.027   7.228
18457TIP3    H155256   7.909   2.982   7.164
18457TIP3    H255257   7.970   3.117   7.196
18458TIP3   OH255258   1.696   8.551   0.300
18458TIP3    H155259   1.606   8.521   0.307
18458TIP3    H255260   1.731   8.508   0.222
18459TIP3   OH255261   7.702   3.848   7.166
18459TIP3    H155262   7.678   3.781   7.231
18459TIP3    H255263   7.723   3.799   7.087
18460TIP3   OH255264   7.683   3.443   7.952
18460TIP3    H155265   7.592   3.427   7.978
18460TIP3    H255266   7.709   3.363   7.907
18461TIP3   OH255267   6.842   3.717   7.755
18461TIP3    H155268   6.841   3.794   7.697
18461TIP3    H255269   6.750   3.705   7.780
18462TIP3   OH255270   6.405   2.999   7.475
18462TIP3    H155271   6.447   3.082   7.497
18462TIP3    H255272   6.321   3.001   7.523
18463TIP3   OH255273   6.924   3.473   7.657
18463TIP3    H155274   6.909   3.562   7.689
18463TIP3    H255275   6.900   3.416   7.730
18464TIP3   OH255276   0.583   8.666   0.194
18464TIP3    H155277   0.624   8.737   0.145
18464TIP3    H255278   0.650   8.638   0.256
18465TIP3   OH255279   6.760   3.941   7.605
18465TIP3    H155280   6.673   3.947   7.644
18465TIP3    H255281   6.795   4.030   7.610
18466TIP3   OH255282   7.472   3.581   7.048
18466TIP3    H155283   7.524   3.550   7.123
18466TIP3    H255284   7.388   3.536   7.057
18467TIP3   OH255285   1.201   8.847   0.221
18467TIP3    H155286   1.116   8.805   0.210
18467TIP3    H255287   1.197   8.923   0.163
18468TIP3   OH255288   7.788   4.051   6.861
18468TIP3    H155289   7.824   4.121   6.806
18468TIP3    H255290   7.712   4.091   6.903
18469TIP3   OH255291   0.279   7.447   0.720
18469TIP3    H155292   0.184   7.458   0.723
18469TIP3    H255293   0.300   7.396   0.798
18470TIP3   OH255294   7.650   3.486   7.234
18470TIP3    H155295   7.635   3.438   7.315
18470TIP3    H255296   7.745   3.497   7.230
18471TIP3   OH255297   0.019   8.558   0.376
18471TIP3    H155298   0.070   8.496   0.428
18471TIP3    H255299   0.035   8.643   0.416
18472TIP3   OH255300   6.822   3.546   7.068
18472TIP3    H155301   6.832   3.454   7.041
18472TIP3    H255302   6.808   3.541   7.162
18473TIP3   OH255303   6.763   3.564   7.340
18473TIP3    H155304   6.825   3.537   7.408
18473TIP3    H255305   6.762   3.659   7.344
18474TIP3   OH255306   6.497   3.252   7.551
18474TIP3    H155307   6.433   3.301   7.603
18474TIP3    H255308   6.516   3.309   7.476
18475TIP3   OH255309   1.134   7.505   0.419
18475TIP3    H155310   1.209   7.550   0.457
18475TIP3    H255311   1.119   7.430   0.477
18476TIP3   OH255312   7.556   2.631   7.615
18476TIP3    H155313   7.533   2.648   7.523
18476TIP3    H255314   7.599   2.711   7.644
18477TIP3   OH255315   7.033   3.746   7.274
18477TIP3    H155316   6.949   3.771   7.312
18477TIP3    H255317   7.059   3.821   7.221
18478TIP3   OH255318   7.209   2.820   7.705
18478TIP3    H155319   7.267   2.891   7.678
18478TIP3    H255320   7.229   2.807   7.798
18479TIP3   OH255321   0.966   7.740   0.479
18479TIP3    H155322   0.995   7.789   0.556
18479TIP3    H255323   1.020   7.661   0.480
18480TIP3   OH255324   7.369   2.536   7.797
18480TIP3    H155325   7.341   2.615   7.844
18480TIP3    H255326   7.432   2.568   7.733
18481TIP3   OH255327   6.785   3.837   7.352
18481TIP3    H155328   6.765   3.910   7.293
18481TIP3    H255329   6.775   3.875   7.440
18482TIP3   OH255330   6.867   2.547   7.594
18482TIP3    H155331   6.851   2.637   7.623
18482TIP3    H255332   6.962   2.537   7.598
18483TIP3   OH255333   1.597   7.666   0.469
18483TIP3    H155334   1.501   7.660   0.475
18483TIP3    H255335   1.615   7.661   0.375
18484TIP3   OH255336   7.777   3.196   7.842
18484TIP3    H155337   7.701   3.140   7.858
18484TIP3    H255338   7.844   3.164   7.902
18485TIP3   OH255339   6.521   3.427   7.331
18485TIP3    H155340   6.594   3.488   7.339
18485TIP3    H255341   6.550   3.363   7.266
18486TIP3   OH255342   6.413   2.721   7.461
18486TIP3    H155343   6.432   2.815   7.470
18486TIP3    H255344   6.337   2.717   7.403
18487TIP3   OH255345   7.749   4.266   7.830
18487TIP3    H155346   7.711   4.291   7.745
18487TIP3    H255347   7.838   4.239   7.809
18488TIP3   OH255348   0.292   7.064   0.330
18488TIP3    H155349   0.259   7.034   0.245
18488TIP3    H255350   0.284   6.988   0.387
18489TIP3   OH255351   6.350   3.703   7.723
18489TIP3    H155352   6.304   3.737   7.800
18489TIP3    H255353   6.306   3.744   7.648
18490TIP3   OH255354   0.028   8.860   0.794
18490TIP3    H155355   0.109   8.868   0.844
18490TIP3    H255356   0.018   8.766   0.778
18491TIP3   OH255357   0.487   8.761   0.834
18491TIP3    H155358   0.577   8.730   0.840
18491TIP3    H255359   0.450   8.712   0.761
18492TIP3   OH255360   6.976   3.746   6.955
18492TIP3    H155361   6.929   3.676   7.002
18492TIP3    H255362   7.051   3.702   6.916
18493TIP3   OH255363   1.099   8.705   0.598
18493TIP3    H155364   1.117   8.636   0.663
18493TIP3    H255365   1.175   8.762   0.601
18494TIP3   OH255366   7.420   3.788   6.878
18494TIP3    H155367   7.452   3.724   6.941
18494TIP3    H255368   7.480   3.782   6.804
18495TIP3   OH255369   0.120   8.261   0.979
18495TIP3    H155370   0.138   8.167   0.992
18495TIP3    H255371   0.034   8.263   0.938
18496TIP3   OH255372   6.642   3.238   7.175
18496TIP3    H155373   6.691   3.212   7.252
18496TIP3    H255374   6.708   3.252   7.107
18497TIP3   OH255375   0.744   8.337   0.757
18497TIP3    H155376   0.711   8.364   0.672
18497TIP3    H255377   0.786   8.253   0.741
18498TIP3   OH255378   7.218   3.462   7.015
18498TIP3    H155379   7.194   3.472   7.107
18498TIP3    H255380   7.198   3.370   6.996
18499TIP3   OH255381   1.222   8.365   0.381
18499TIP3    H155382   1.289   8.398   0.321
18499TIP3    H255383   1.149   8.425   0.372
18500TIP3   OH255384   0.233   8.005   0.987
18500TIP3    H155385   0.306   7.987   0.927
18500TIP3    H255386   0.275   8.023   1.071
18501TIP3   OH255387   6.813   3.181   7.390
18501TIP3    H155388   6.793   3.151   7.478
18501TIP3    H255389   6.862   3.108   7.351
18502TIP3   OH255390   0.603   7.884   0.645
18502TIP3    H155391   0.518   7.926   0.657
18502TIP3    H255392   0.636   7.921   0.563
18503TIP3   OH255393   6.958   2.999   7.238
18503TIP3    H155394   6.927   3.002   7.148
18503TIP3    H255395   7.053   3.009   7.231
18504TIP3   OH255396   1.093   8.256   0.722
18504TIP3    H155397   1.164   8.219   0.670
18504TIP3    H255398   1.091   8.203   0.802
18505TIP3   OH255399   7.748   3.283   6.919
18505TIP3    H155400   7.736   3.245   6.832
18505TIP3    H255401   7.726   3.376   6.908
18506TIP3   OH255402   0.709   7.654   0.751
18506TIP3    H155403   0.709   7.584   0.685
18506TIP3    H255404   0.674   7.730   0.705
18507TIP3   OH255405   0.709   7.456   0.547
18507TIP3    H155406   0.736   7.495   0.464
18507TIP3    H255407   0.618   7.429   0.533
18508TIP3   OH255408   0.724   8.008   0.434
18508TIP3    H155409   0.799   8.067   0.441
18508TIP3    H255410   0.663   8.054   0.377
18509TIP3   OH255411   1.314   7.950   0.815
18509TIP3    H155412   1.364   7.878   0.853
18509TIP3    H255413   1.378   8.019   0.800
18510TIP3   OH255414   1.333   8.194   0.552
18510TIP3    H155415   1.281   8.254   0.499
18510TIP3    H255416   1.422   8.203   0.518
18511TIP3   OH255417   0.597   7.729   0.998
18511TIP3    H155418   0.526   7.668   1.018
18511TIP3    H255419   0.623   7.707   0.908
18512TIP3   OH255420   0.825   7.226   0.651
18512TIP3    H155421   0.786   7.306   0.616
18512TIP3    H255422   0.759   7.158   0.637
18513TIP3   OH255423   0.965   7.693   0.855
18513TIP3    H155424   0.950   7.681   0.949
18513TIP3    H255425   0.879   7.675   0.815
18514TIP3   OH255426   1.201   7.635   0.712
18514TIP3    H155427   1.125   7.642   0.770
18514TIP3    H255428   1.275   7.623   0.771
18515TIP3   OH255429   1.439   7.610   0.862
18515TIP3    H155430   1.435   7.517   0.883
18515TIP3    H255431   1.425   7.654   0.946
18516TIP3   OH255432   0.425   7.515   1.061
18516TIP3    H155433   0.426   7.426   1.026
18516TIP3    H255434   0.462   7.507   1.149
18517TIP3   OH255435   0.897   7.197   0.914
18517TIP3    H155436   0.965   7.132   0.895
18517TIP3    H255437   0.859   7.217   0.829
18518TIP3   OH255438   1.003   7.411   1.056
18518TIP3    H155439   0.968   7.342   0.999
18518TIP3    H255440   0.934   7.477   1.059
18519TIP3   OH255441   6.785   4.050   7.172
18519TIP3    H155442   6.873   4.025   7.144
18519TIP3    H255443   6.747   4.094   7.095
18520TIP3   OH255444   6.249   3.432   7.361
18520TIP3    H155445   6.343   3.441   7.352
18520TIP3    H255446   6.228   3.350   7.316
18521TIP3   OH255447   6.148   4.012   7.813
18521TIP3    H155448   6.085   3.958   7.767
18521TIP3    H255449   6.193   3.951   7.872
18522TIP3   OH255450   9.560   8.463  -0.023
18522TIP3    H155451   9.552   8.392   0.041
18522TIP3    H255452   9.611   8.530   0.023
18523TIP3   OH255453   8.025   4.251   7.786
18523TIP3    H155454   8.063   4.267   7.872
18523TIP3    H255455   8.097   4.268   7.725
18524TIP3   OH255456   1.546   8.902   0.062
18524TIP3    H155457   1.491   8.824   0.066
18524TIP3    H255458   1.616   8.885   0.126
18525TIP3   OH255459   1.576   8.594   0.632
18525TIP3    H155460   1.504   8.609   0.694
18525TIP3    H255461   1.616   8.680   0.622
18526TIP3   OH255462   7.931   3.494   7.242
18526TIP3    H155463   7.986   3.567   7.214
18526TIP3    H255464   7.976   3.457   7.318
18527TIP3   OH255465   8.062   3.350   7.442
18527TIP3    H155466   7.994   3.317   7.501
18527TIP3    H255467   8.126   3.392   7.500
18528TIP3   OH255468   8.154   3.771   7.874
18528TIP3    H155469   8.149   3.688   7.828
18528TIP3    H255470   8.063   3.799   7.885
18529TIP3   OH255471   1.397   8.678   0.114
18529TIP3    H155472   1.317   8.720   0.145
18529TIP3    H255473   1.369   8.625   0.040
18530TIP3   OH255474   7.961   3.266   7.092
18530TIP3    H155475   7.888   3.266   7.031
18530TIP3    H255476   7.949   3.345   7.145
18531TIP3   OH255477   7.818   2.912   7.027
18531TIP3    H155478   7.765   2.949   6.956
18531TIP3    H255479   7.810   2.818   7.017
18532TIP3   OH255480   7.855   3.213   7.578
18532TIP3    H155481   7.858   3.119   7.560
18532TIP3    H255482   7.832   3.219   7.670
18533TIP3   OH255483   9.735   7.894   0.357
18533TIP3    H155484   9.726   7.862   0.268
18533TIP3    H255485   9.830   7.890   0.375
18534TIP3   OH255486   1.570   8.250   0.420
18534TIP3    H155487   1.645   8.206   0.378
18534TIP3    H255488   1.536   8.308   0.352
18535TIP3   OH255489   1.790   8.050   0.442
18535TIP3    H155490   1.706   8.030   0.482
18535TIP3    H255491   1.845   7.973   0.459
18536TIP3   OH255492   7.779   2.640   7.006
18536TIP3    H155493   7.839   2.617   7.078
18536TIP3    H255494   7.693   2.609   7.036
18537TIP3   OH255495   7.844   2.937   7.470
18537TIP3    H155496   7.890   2.854   7.483
18537TIP3    H255497   7.884   2.975   7.391
18538TIP3   OH255498   1.462   7.718  -0.006
18538TIP3    H155499   1.542   7.741  -0.054
18538TIP3    H255500   1.472   7.764   0.078
18539TIP3   OH255501   1.525   7.875   0.221
18539TIP3    H155502   1.450   7.903   0.273
18539TIP3    H255503   1.556   7.955   0.178
18540TIP3   OH255504   0.166   7.588   0.994
18540TIP3    H155505   0.259   7.582   1.014
18540TIP3    H255506   0.130   7.503   1.023
18541TIP3   OH255507   7.963   2.687   7.521
18541TIP3    H155508   8.007   2.674   7.605
18541TIP3    H255509   7.898   2.617   7.517
18542TIP3   OH255510   0.132   7.290   0.351
18542TIP3    H155511   0.185   7.210   0.354
18542TIP3    H255512   0.195   7.359   0.329
18543TIP3   OH255513   9.716   7.557   0.407
18543TIP3    H155514   9.765   7.544   0.326
18543TIP3    H255515   9.748   7.641   0.441
18544TIP3   OH255516   1.843   7.571   0.587
18544TIP3    H155517   1.771   7.626   0.617
18544TIP3    H255518   1.802   7.509   0.526
18545TIP3   OH255519   8.007   2.593   7.159
18545TIP3    H155520   8.059   2.535   7.105
18545TIP3    H255521   8.059   2.674   7.164
18546TIP3   OH255522   6.431   2.435   7.911
18546TIP3    H155523   6.346   2.428   7.953
18546TIP3    H255524   6.416   2.493   7.836
18547TIP3   OH255525   7.579   4.166   7.424
18547TIP3    H155526   7.641   4.156   7.351
18547TIP3    H255527   7.622   4.229   7.482
18548TIP3   OH255528   0.127   7.108   0.731
18548TIP3    H155529   0.077   7.111   0.813
18548TIP3    H255530   0.076   7.161   0.670
18549TIP3   OH255531   0.145   8.584   0.802
18549TIP3    H155532   0.053   8.559   0.796
18549TIP3    H255533   0.169   8.568   0.893
18550TIP3   OH255534   0.362   8.625   0.354
18550TIP3    H155535   0.311   8.701   0.325
18550TIP3    H255536   0.445   8.632   0.307
18551TIP3   OH255537   0.752   8.868   0.509
18551TIP3    H155538   0.796   8.856   0.593
18551TIP3    H255539   0.814   8.918   0.456
18552TIP3   OH255540   0.934   9.011   0.359
18552TIP3    H155541   0.977   8.962   0.289
18552TIP3    H255542   1.005   9.055   0.405
18553TIP3   OH255543   1.718   7.356   0.451
18553TIP3    H155544   1.648   7.371   0.388
18553TIP3    H255545   1.748   7.267   0.434
18554TIP3   OH255546   0.025   8.862   0.407
18554TIP3    H155547  -0.067   8.882   0.386
18554TIP3    H255548   0.049   8.928   0.472
18555TIP3   OH255549   0.253   8.857   0.254
18555TIP3    H155550   0.169   8.860   0.301
18555TIP3    H255551   0.230   8.878   0.163
18556TIP3   OH255552   0.677   8.872   0.037
18556TIP3    H155553   0.603   8.882  -0.023
18556TIP3    H255554   0.686   8.958   0.078
18557TIP3   OH255555   0.947   8.839   0.110
18557TIP3    H155556   0.853   8.839   0.089
18557TIP3    H255557   0.990   8.843   0.024
18558TIP3   OH255558   7.712   4.433   8.035
18558TIP3    H155559   7.688   4.514   7.990
18558TIP3    H255560   7.723   4.368   7.965
18559TIP3   OH255561   9.735   8.641   0.125
18559TIP3    H155562   9.763   8.618   0.214
18559TIP3    H255563   9.805   8.608   0.068
18560TIP3   OH255564   6.668   3.906   7.983
18560TIP3    H155565   6.679   3.821   8.026
18560TIP3    H255566   6.755   3.946   7.984
18561TIP3   OH255567   0.401   8.609  -0.003
18561TIP3    H155568   0.420   8.516  -0.016
18561TIP3    H255569   0.456   8.634   0.071
18562TIP3   OH255570   0.965   7.265   0.103
18562TIP3    H155571   0.919   7.192   0.144
18562TIP3    H255572   1.031   7.224   0.047
18563TIP3   OH255573   7.996   2.556   7.982
18563TIP3    H155574   8.036   2.608   7.912
18563TIP3    H255575   7.904   2.583   7.983
18564TIP3   OH255576   8.118   2.632   7.746
18564TIP3    H155577   8.186   2.572   7.716
18564TIP3    H255578   8.156   2.719   7.734
18565TIP3   OH255579   0.185   6.976   0.090
18565TIP3    H155580   0.095   6.943   0.096
18565TIP3    H255581   0.239   6.897   0.094
18566TIP3   OH255582   6.525   2.228   7.737
18566TIP3    H155583   6.566   2.276   7.665
18566TIP3    H255584   6.501   2.295   7.801
18567TIP3   OH255585   7.203   2.390   7.973
18567TIP3    H155586   7.254   2.437   7.907
18567TIP3    H255587   7.241   2.416   8.057
18568TIP3   OH255588   7.709   2.536   7.962
18568TIP3    H155589   7.703   2.509   7.871
18568TIP3    H255590   7.718   2.455   8.011
18569TIP3   OH255591   7.775   2.479   7.532
18569TIP3    H155592   7.695   2.527   7.556
18569TIP3    H255593   7.761   2.391   7.568
18570TIP3   OH255594   6.232   3.824   7.505
18570TIP3    H155595   6.149   3.789   7.473
18570TIP3    H255596   6.235   3.914   7.473
18571TIP3   OH255597   6.661   2.369   7.512
18571TIP3    H155598   6.710   2.310   7.454
18571TIP3    H255599   6.727   2.429   7.546
18572TIP3   OH255600   7.138   2.581   7.588
18572TIP3    H155601   7.185   2.504   7.621
18572TIP3    H255602   7.175   2.654   7.638
18573TIP3   OH255603   7.037   3.969   7.101
18573TIP3    H155604   7.121   3.996   7.063
18573TIP3    H255605   7.008   3.898   7.044
18574TIP3   OH255606   7.737   4.118   7.198
18574TIP3    H155607   7.730   4.022   7.193
18574TIP3    H255608   7.694   4.149   7.118
18575TIP3   OH255609   0.432   7.244   0.973
18575TIP3    H155610   0.392   7.178   1.030
18575TIP3    H255611   0.522   7.249   1.003
18576TIP3   OH255612   0.679   7.248   1.098
18576TIP3    H155613   0.757   7.226   1.048
18576TIP3    H255614   0.671   7.178   1.162
18577TIP3   OH255615   6.352   3.817   7.159
18577TIP3    H155616   6.351   3.818   7.255
18577TIP3    H255617   6.431   3.768   7.137
18578TIP3   OH255618   1.468   7.337   0.895
18578TIP3    H155619   1.471   7.330   0.990
18578TIP3    H255620   1.560   7.342   0.868
18579TIP3   OH255621   1.428   8.881   0.386
18579TIP3    H155622   1.355   8.847   0.333
18579TIP3    H255623   1.410   8.974   0.394
18580TIP3   OH255624   9.212   3.647   7.148
18580TIP3    H155625   9.190   3.734   7.113
18580TIP3    H255626   9.140   3.591   7.118
18581TIP3   OH255627   9.215   3.631   7.541
18581TIP3    H155628   9.255   3.614   7.626
18581TIP3    H255629   9.173   3.549   7.517
18582TIP3   OH255630   8.526   3.507   7.889
18582TIP3    H155631   8.564   3.453   7.959
18582TIP3    H255632   8.602   3.544   7.844
18583TIP3   OH255633   9.499   3.936   7.207
18583TIP3    H155634   9.477   3.870   7.273
18583TIP3    H255635   9.516   4.015   7.257
18584TIP3   OH255636   8.529   3.916   7.560
18584TIP3    H155637   8.506   3.825   7.581
18584TIP3    H255638   8.625   3.918   7.562
18585TIP3   OH255639   8.203   3.119   7.365
18585TIP3    H155640   8.169   3.205   7.390
18585TIP3    H255641   8.129   3.075   7.324
18586TIP3   OH255642   8.289   3.442   7.581
18586TIP3    H155643   8.341   3.366   7.607
18586TIP3    H255644   8.353   3.511   7.566
18587TIP3   OH255645   9.160   4.366   7.240
18587TIP3    H155646   9.189   4.304   7.173
18587TIP3    H255647   9.165   4.317   7.321
18588TIP3   OH255648   9.039   3.855   7.546
18588TIP3    H155649   9.083   3.773   7.521
18588TIP3    H255650   9.110   3.911   7.576
18589TIP3   OH255651   9.425   3.355   7.599
18589TIP3    H155652   9.459   3.271   7.631
18589TIP3    H255653   9.388   3.334   7.513
18590TIP3   OH255654   8.800   2.998   7.546
18590TIP3    H155655   8.780   3.073   7.490
18590TIP3    H255656   8.743   2.928   7.513
18591TIP3   OH255657   9.486   3.098   7.212
18591TIP3    H155658   9.552   3.089   7.281
18591TIP3    H255659   9.532   3.136   7.139
18592TIP3   OH255660   8.424   3.218   7.678
18592TIP3    H155661   8.508   3.204   7.721
18592TIP3    H255662   8.430   3.166   7.597
18593TIP3   OH255663   8.845   3.417   7.487
18593TIP3    H155664   8.938   3.400   7.494
18593TIP3    H255665   8.808   3.334   7.455
18594TIP3   OH255666   2.239   7.635   0.004
18594TIP3    H155667   2.194   7.673  -0.072
18594TIP3    H255668   2.178   7.650   0.077
18595TIP3   OH255669   9.137   3.860   6.985
18595TIP3    H155670   9.097   3.828   6.904
18595TIP3    H255671   9.082   3.935   7.010
18596TIP3   OH255672   8.882   3.783   7.763
18596TIP3    H155673   8.827   3.853   7.799
18596TIP3    H255674   8.928   3.823   7.690
18597TIP3   OH255675   9.653   3.089   7.428
18597TIP3    H155676   9.603   3.089   7.510
18597TIP3    H255677   9.713   3.163   7.437
18598TIP3   OH255678   8.673   3.115   7.767
18598TIP3    H155679   8.728   3.191   7.788
18598TIP3    H255680   8.721   3.071   7.696
18599TIP3   OH255681   8.721   3.984   7.869
18599TIP3    H155682   8.708   4.073   7.838
18599TIP3    H255683   8.643   3.964   7.920
18600TIP3   OH255684   8.098   3.690   7.127
18600TIP3    H155685   8.061   3.714   7.042
18600TIP3    H255686   8.122   3.773   7.168
18601TIP3   OH255687   9.524   4.179   7.354
18601TIP3    H155688   9.438   4.171   7.395
18601TIP3    H255689   9.521   4.263   7.308
18602TIP3   OH255690   9.095   2.730   7.696
18602TIP3    H155691   9.096   2.642   7.735
18602TIP3    H255692   9.027   2.777   7.745
18603TIP3   OH255693   9.249   4.224   7.018
18603TIP3    H155694   9.301   4.144   7.005
18603TIP3    H255695   9.308   4.295   6.994
18604TIP3   OH255696   9.387   3.994   6.958
18604TIP3    H155697   9.314   3.933   6.954
18604TIP3    H255698   9.436   3.969   7.036
18605TIP3   OH255699   9.737   4.065   7.713
18605TIP3    H155700   9.728   3.992   7.651
18605TIP3    H255701   9.729   4.144   7.659
18606TIP3   OH255702   9.048   3.482   6.990
18606TIP3    H155703   8.966   3.526   6.969
18606TIP3    H255704   9.092   3.472   6.906
18607TIP3   OH255705   9.018   3.279   6.658
18607TIP3    H155706   9.080   3.329   6.713
18607TIP3    H255707   9.073   3.215   6.612
18608TIP3   OH255708   0.083   3.674   7.493
18608TIP3    H155709   0.008   3.728   7.516
18608TIP3    H255710   0.159   3.727   7.516
18609TIP3   OH255711   9.378   3.549   6.957
18609TIP3    H155712   9.331   3.585   7.033
18609TIP3    H255713   9.465   3.527   6.991
18610TIP3   OH255714   9.595   3.608   7.868
18610TIP3    H155715   9.604   3.692   7.912
18610TIP3    H255716   9.503   3.605   7.842
18611TIP3   OH255717   8.646   3.549   7.341
18611TIP3    H155718   8.610   3.488   7.278
18611TIP3    H255719   8.720   3.503   7.381
18612TIP3   OH255720   8.795   3.975   7.481
18612TIP3    H155721   8.770   3.959   7.390
18612TIP3    H255722   8.881   3.934   7.489
18613TIP3   OH255723   8.749   3.549   7.712
18613TIP3    H155724   8.787   3.513   7.632
18613TIP3    H255725   8.798   3.629   7.728
18614TIP3   OH255726   9.290   4.179   7.491
18614TIP3    H155727   9.273   4.258   7.542
18614TIP3    H255728   9.278   4.107   7.552
18615TIP3   OH255729   2.382   8.697   0.044
18615TIP3    H155730   2.321   8.755   0.088
18615TIP3    H255731   2.328   8.647  -0.017
18616TIP3   OH255732   9.225   3.415   6.780
18616TIP3    H155733   9.284   3.471   6.831
18616TIP3    H255734   9.254   3.428   6.689
18617TIP3   OH255735   2.128   8.250   0.163
18617TIP3    H155736   2.131   8.341   0.192
18617TIP3    H255737   2.036   8.225   0.168
18618TIP3   OH255738   9.000   4.098   7.026
18618TIP3    H155739   9.079   4.152   7.034
18618TIP3    H255740   8.936   4.155   6.984
18619TIP3   OH255741   2.175   8.860   0.123
18619TIP3    H155742   2.148   8.867   0.032
18619TIP3    H255743   2.094   8.841   0.171
18620TIP3   OH255744   9.772   2.654   6.861
18620TIP3    H155745   9.683   2.675   6.889
18620TIP3    H255746   9.785   2.708   6.782
18621TIP3   OH255747   8.519   3.389   7.144
18621TIP3    H155748   8.442   3.439   7.115
18621TIP3    H255749   8.484   3.303   7.167
18622TIP3   OH255750   9.489   4.055   6.378
18622TIP3    H155751   9.506   4.146   6.356
18622TIP3    H255752   9.570   4.024   6.417
18623TIP3   OH255753   1.790   8.412   0.086
18623TIP3    H155754   1.733   8.403   0.010
18623TIP3    H255755   1.820   8.323   0.104
18624TIP3   OH255756   8.125   3.989   7.689
18624TIP3    H155757   8.154   3.918   7.748
18624TIP3    H255758   8.063   4.039   7.742
18625TIP3   OH255759   0.155   4.482   7.762
18625TIP3    H155760   0.198   4.397   7.772
18625TIP3    H255761   0.079   4.477   7.820
18626TIP3   OH255762   9.100   4.228   7.909
18626TIP3    H155763   9.092   4.320   7.935
18626TIP3    H255764   9.032   4.183   7.958
18627TIP3   OH255765   8.881   4.322   6.861
18627TIP3    H155766   8.833   4.301   6.781
18627TIP3    H255767   8.843   4.405   6.890
18628TIP3   OH255768   8.324   4.179   7.232
18628TIP3    H155769   8.367   4.173   7.318
18628TIP3    H255770   8.274   4.098   7.224
18629TIP3   OH255771   9.077   4.278   6.493
18629TIP3    H155772   9.118   4.199   6.459
18629TIP3    H255773   9.113   4.288   6.581
18630TIP3   OH255774   9.135   4.296   6.765
18630TIP3    H155775   9.047   4.299   6.801
18630TIP3    H255776   9.189   4.258   6.835
18631TIP3   OH255777   1.970   8.614   0.039
18631TIP3    H155778   2.023   8.599   0.117
18631TIP3    H255779   1.901   8.548   0.044
18632TIP3   OH255780   8.876   2.809   7.855
18632TIP3    H155781   8.792   2.781   7.819
18632TIP3    H255782   8.855   2.883   7.911
18633TIP3   OH255783   9.299   3.426   6.520
18633TIP3    H155784   9.254   3.414   6.436
18633TIP3    H255785   9.379   3.474   6.497
18634TIP3   OH255786   9.032   2.826   6.826
18634TIP3    H155787   8.995   2.835   6.913
18634TIP3    H255788   8.996   2.744   6.792
18635TIP3   OH255789   8.824   3.326   7.860
18635TIP3    H155790   8.777   3.333   7.943
18635TIP3    H255791   8.804   3.408   7.814
18636TIP3   OH255792   8.704   3.200   7.388
18636TIP3    H155793   8.614   3.178   7.414
18636TIP3    H255794   8.711   3.166   7.298
18637TIP3   OH255795   9.175   3.277   7.121
18637TIP3    H155796   9.128   3.351   7.084
18637TIP3    H255797   9.229   3.244   7.050
18638TIP3   OH255798   9.333   3.288   7.348
18638TIP3    H155799   9.268   3.307   7.280
18638TIP3    H255800   9.381   3.213   7.315
18639TIP3   OH255801   2.124   7.964   0.074
18639TIP3    H155802   2.124   8.030   0.144
18639TIP3    H255803   2.095   7.884   0.117
18640TIP3   OH255804   8.700   2.806   6.808
18640TIP3    H155805   8.692   2.815   6.903
18640TIP3    H255806   8.623   2.851   6.773
18641TIP3   OH255807   8.252   2.854   7.674
18641TIP3    H155808   8.320   2.895   7.727
18641TIP3    H255809   8.286   2.858   7.585
18642TIP3   OH255810   8.153   2.831   7.168
18642TIP3    H155811   8.197   2.867   7.092
18642TIP3    H255812   8.090   2.898   7.194
18643TIP3   OH255813   9.333   3.540   7.779
18643TIP3    H155814   9.373   3.481   7.714
18643TIP3    H255815   9.316   3.484   7.854
18644TIP3   OH255816   9.067   2.984   7.438
18644TIP3    H155817   8.990   2.986   7.494
18644TIP3    H255818   9.141   2.975   7.499
18645TIP3   OH255819   8.463   3.077   7.446
18645TIP3    H155820   8.376   3.081   7.409
18645TIP3    H255821   8.494   2.989   7.427
18646TIP3   OH255822   8.715   3.076   7.143
18646TIP3    H155823   8.809   3.088   7.134
18646TIP3    H255824   8.680   3.094   7.055
18647TIP3   OH255825   9.479   3.087   7.650
18647TIP3    H155826   9.471   3.094   7.746
18647TIP3    H255827   9.414   3.021   7.626
18648TIP3   OH255828   8.606   3.095   6.893
18648TIP3    H155829   8.542   3.048   6.839
18648TIP3    H255830   8.658   3.145   6.829
18649TIP3   OH255831   9.711   4.786   7.870
18649TIP3    H155832   9.713   4.817   7.779
18649TIP3    H255833   9.782   4.833   7.913
18650TIP3   OH255834   2.115   8.515   0.263
18650TIP3    H155835   2.195   8.534   0.311
18650TIP3    H255836   2.045   8.521   0.329
18651TIP3   OH255837   9.111   3.360   7.536
18651TIP3    H155838   9.181   3.313   7.490
18651TIP3    H255839   9.112   3.321   7.624
18652TIP3   OH255840   8.605   2.832   7.422
18652TIP3    H155841   8.575   2.756   7.472
18652TIP3    H255842   8.625   2.797   7.335
18653TIP3   OH255843   9.089   3.266   7.801
18653TIP3    H155844   9.002   3.298   7.825
18653TIP3    H255845   9.148   3.312   7.860
18654TIP3   OH255846   8.814   3.615   6.925
18654TIP3    H155847   8.739   3.561   6.900
18654TIP3    H255848   8.787   3.658   7.006
18655TIP3   OH255849   9.690   3.873   7.520
18655TIP3    H155850   9.732   3.915   7.446
18655TIP3    H255851   9.609   3.836   7.484
18656TIP3   OH255852   9.284   2.928   6.833
18656TIP3    H155853   9.191   2.906   6.826
18656TIP3    H255854   9.286   3.023   6.840
18657TIP3   OH255855   9.208   3.961   7.924
18657TIP3    H155856   9.238   3.937   8.011
18657TIP3    H255857   9.167   4.046   7.935
18658TIP3   OH255858   9.332   3.191   6.907
18658TIP3    H155859   9.427   3.200   6.920
18658TIP3    H255860   9.308   3.264   6.851
18659TIP3   OH255861   8.511   3.620   7.572
18659TIP3    H155862   8.550   3.607   7.486
18659TIP3    H255863   8.578   3.593   7.634
18660TIP3   OH255864   8.972   3.774   6.769
18660TIP3    H155865   8.926   3.858   6.767
18660TIP3    H255866   8.916   3.718   6.823
18661TIP3   OH255867   1.865   8.159   0.198
18661TIP3    H155868   1.858   8.133   0.289
18661TIP3    H255869   1.785   8.126   0.156
18662TIP3   OH255870   2.591   8.315   0.256
18662TIP3    H155871   2.516   8.273   0.214
18662TIP3    H255872   2.650   8.243   0.278
18663TIP3   OH255873   9.372   4.234   7.835
18663TIP3    H155874   9.277   4.228   7.845
18663TIP3    H255875   9.403   4.276   7.915
18664TIP3   OH255876   9.728   3.281   6.747
18664TIP3    H155877   9.666   3.231   6.694
18664TIP3    H255878   9.729   3.368   6.707
18665TIP3   OH255879   0.167   4.134   7.855
18665TIP3    H155880   0.083   4.122   7.812
18665TIP3    H255881   0.216   4.054   7.835
18666TIP3   OH255882   9.512   4.085   6.709
18666TIP3    H155883   9.468   4.048   6.785
18666TIP3    H255884   9.478   4.035   6.634
18667TIP3   OH255885   9.462   3.741   7.414
18667TIP3    H155886   9.372   3.721   7.440
18667TIP3    H255887   9.496   3.658   7.382
18668TIP3   OH255888   8.639   3.977   7.246
18668TIP3    H155889   8.629   4.051   7.186
18668TIP3    H255890   8.559   3.977   7.298
18669TIP3   OH255891   8.202   3.259   6.958
18669TIP3    H155892   8.244   3.342   6.980
18669TIP3    H255893   8.121   3.259   7.008
18670TIP3   OH255894   8.716   3.733   7.145
18670TIP3    H155895   8.698   3.822   7.177
18670TIP3    H255896   8.692   3.677   7.219
18671TIP3   OH255897   8.923   4.299   7.696
18671TIP3    H155898   8.957   4.373   7.647
18671TIP3    H255899   8.998   4.268   7.747
18672TIP3   OH255900   8.558   4.195   7.090
18672TIP3    H155901   8.471   4.201   7.130
18672TIP3    H255902   8.593   4.284   7.097
18673TIP3   OH255903   9.272   3.958   7.659
18673TIP3    H155904   9.250   3.956   7.752
18673TIP3    H255905   9.347   3.899   7.650
18674TIP3   OH255906   9.234   3.841   6.549
18674TIP3    H155907   9.275   3.811   6.631
18674TIP3    H255908   9.149   3.796   6.547
18675TIP3   OH255909   9.507   4.459   7.710
18675TIP3    H155910   9.436   4.396   7.721
18675TIP3    H255911   9.482   4.510   7.633
18676TIP3   OH255912   9.545   4.320   6.339
18676TIP3    H155913   9.596   4.394   6.307
18676TIP3    H255914   9.467   4.359   6.377
18677TIP3   OH255915   2.051   7.720   0.191
18677TIP3    H155916   1.956   7.718   0.201
18677TIP3    H255917   2.084   7.719   0.281
18678TIP3   OH255918   9.365   3.748   6.766
18678TIP3    H155919   9.349   3.680   6.832
18678TIP3    H255920   9.454   3.778   6.784
18679TIP3   OH255921   8.355   4.207   7.862
18679TIP3    H155922   8.399   4.137   7.911
18679TIP3    H255923   8.372   4.286   7.912
18680TIP3   OH255924   8.618   3.803   6.555
18680TIP3    H155925   8.630   3.711   6.529
18680TIP3    H255926   8.605   3.798   6.650
18681TIP3   OH255927   8.560   3.819   6.827
18681TIP3    H155928   8.620   3.795   6.898
18681TIP3    H255929   8.558   3.915   6.830
18682TIP3   OH255930   8.293   3.511   7.036
18682TIP3    H155931   8.229   3.560   7.088
18682TIP3    H255932   8.313   3.569   6.962
18683TIP3   OH255933   9.423   3.110   7.928
18683TIP3    H155934   9.506   3.091   7.972
18683TIP3    H255935   9.361   3.046   7.963
18684TIP3   OH255936   9.339   2.890   7.101
18684TIP3    H155937   9.317   2.913   7.011
18684TIP3    H255938   9.380   2.969   7.136
18685TIP3   OH255939   8.830   4.005   6.763
18685TIP3    H155940   8.744   4.028   6.800
18685TIP3    H255941   8.852   4.079   6.707
18686TIP3   OH255942   8.993   3.082   7.188
18686TIP3    H155943   9.053   3.152   7.164
18686TIP3    H255944   9.017   3.060   7.278
18687TIP3   OH255945   9.294   3.351   7.974
18687TIP3    H155946   9.292   3.355   8.070
18687TIP3    H255947   9.345   3.273   7.954
18688TIP3   OH255948   9.154   2.779   7.269
18688TIP3    H155949   9.132   2.853   7.326
18688TIP3    H255950   9.224   2.812   7.213
18689TIP3   OH255951   8.579   4.092   6.838
18689TIP3    H155952   8.557   4.165   6.779
18689TIP3    H255953   8.570   4.129   6.926
18690TIP3   OH255954   8.670   2.804   7.089
18690TIP3    H155955   8.659   2.895   7.114
18690TIP3    H255956   8.764   2.789   7.093
18691TIP3   OH255957   9.548   3.477   7.349
18691TIP3    H155958   9.468   3.424   7.351
18691TIP3    H255959   9.593   3.454   7.430
18692TIP3   OH255960   8.317   3.685   6.818
18692TIP3    H155961   8.389   3.748   6.827
18692TIP3    H255962   8.349   3.622   6.752
18693TIP3   OH255963   8.218   2.980   6.947
18693TIP3    H155964   8.237   3.073   6.960
18693TIP3    H255965   8.153   2.978   6.878
18694TIP3   OH255966   9.533   4.444   7.269
18694TIP3    H155967   9.480   4.498   7.210
18694TIP3    H255968   9.622   4.476   7.258
18695TIP3   OH255969   8.620   2.712   7.802
18695TIP3    H155970   8.591   2.683   7.716
18695TIP3    H255971   8.610   2.636   7.858
18696TIP3   OH255972   8.148   3.955   7.211
18696TIP3    H155973   8.112   3.996   7.290
18696TIP3    H255974   8.104   4.001   7.139
18697TIP3   OH255975   1.803   9.102   0.283
18697TIP3    H155976   1.889   9.098   0.324
18697TIP3    H255977   1.774   9.011   0.281
18698TIP3   OH255978   2.279   9.023   0.317
18698TIP3    H155979   2.369   8.990   0.326
18698TIP3    H255980   2.242   8.971   0.246
18699TIP3   OH255981   8.769   4.006   6.444
18699TIP3    H155982   8.722   3.936   6.490
18699TIP3    H255983   8.842   3.961   6.401
18700TIP3   OH255984   2.914   8.958   0.076
18700TIP3    H155985   2.897   8.888   0.139
18700TIP3    H255986   2.995   8.998   0.106
18701TIP3   OH255987   9.182   4.055   6.387
18701TIP3    H155988   9.221   3.991   6.446
18701TIP3    H255989   9.240   4.055   6.310
18702TIP3   OH255990   1.918   8.524   0.462
18702TIP3    H155991   1.934   8.431   0.474
18702TIP3    H255992   1.833   8.528   0.419
18703TIP3   OH255993   8.439   3.495   6.663
18703TIP3    H155994   8.488   3.471   6.741
18703TIP3    H255995   8.505   3.510   6.595
18704TIP3   OH255996   2.541   8.595   0.246
18704TIP3    H155997   2.494   8.614   0.165
18704TIP3    H255998   2.571   8.505   0.235
18705TIP3   OH255999   8.991   3.713   6.502
18705TIP3    H156000   8.972   3.722   6.595
18705TIP3    H256001   8.974   3.620   6.483
18706TIP3   OH256002   9.532   4.003   7.889
18706TIP3    H156003   9.601   4.026   7.828
18706TIP3    H256004   9.463   4.067   7.874
18707TIP3   OH256005   2.003   8.266   0.491
18707TIP3    H156006   1.969   8.177   0.498
18707TIP3    H256007   2.065   8.274   0.563
18708TIP3   OH256008   8.608   3.437   6.877
18708TIP3    H156009   8.588   3.407   6.966
18708TIP3    H256010   8.658   3.365   6.838
18709TIP3   OH256011   2.392   8.161   0.130
18709TIP3    H156012   2.302   8.196   0.129
18709TIP3    H256013   2.425   8.178   0.042
18710TIP3   OH256014   8.750   3.254   6.722
18710TIP3    H156015   8.719   3.259   6.632
18710TIP3    H256016   8.846   3.259   6.715
18711TIP3   OH256017   2.846   8.528   0.137
18711TIP3    H156018   2.892   8.538   0.053
18711TIP3    H256019   2.916   8.525   0.202
18712TIP3   OH256020   9.509   3.561   6.399
18712TIP3    H156021   9.491   3.511   6.319
18712TIP3    H256022   9.469   3.647   6.383
18713TIP3   OH256023   2.431   7.914   0.242
18713TIP3    H156024   2.460   7.854   0.173
18713TIP3    H256025   2.421   7.998   0.198
18714TIP3   OH256026   2.496   7.736   0.043
18714TIP3    H156027   2.528   7.756  -0.046
18714TIP3    H256028   2.410   7.695   0.028
18715TIP3   OH256029   9.044   3.599   7.891
18715TIP3    H156030   9.134   3.610   7.860
18715TIP3    H256031   8.994   3.669   7.849
18716TIP3   OH256032   9.719   3.853   8.025
18716TIP3    H156033   9.654   3.909   7.982
18716TIP3    H256034   9.800   3.869   7.976
18717TIP3   OH256035   2.391   8.015   0.496
18717TIP3    H156036   2.313   8.070   0.490
18717TIP3    H256037   2.410   7.990   0.406
18718TIP3   OH256038   2.506   7.471   0.170
18718TIP3    H156039   2.563   7.531   0.122
18718TIP3    H256040   2.522   7.385   0.131
18719TIP3   OH256041   2.192   7.763   0.428
18719TIP3    H156042   2.268   7.781   0.373
18719TIP3    H256043   2.226   7.767   0.518
18720TIP3   OH256044   8.573   4.305   6.660
18720TIP3    H156045   8.662   4.282   6.633
18720TIP3    H256046   8.536   4.350   6.583
18721TIP3   OH256047   8.043   3.691   6.822
18721TIP3    H156048   8.138   3.699   6.826
18721TIP3    H256049   8.028   3.603   6.789
18722TIP3   OH256050   7.944   4.272   7.290
18722TIP3    H156051   7.878   4.217   7.248
18722TIP3    H256052   7.991   4.213   7.348
18723TIP3   OH256053   8.103   4.111   7.447
18723TIP3    H156054   8.096   4.044   7.515
18723TIP3    H256055   8.153   4.182   7.488
18724TIP3   OH256056   9.789   4.544   7.271
18724TIP3    H156057   9.799   4.548   7.366
18724TIP3    H256058   9.799   4.635   7.243
18725TIP3   OH256059  -0.008   4.539   7.545
18725TIP3    H156060  -0.047   4.452   7.548
18725TIP3    H256061   0.063   4.536   7.609
18726TIP3   OH256062   9.620   3.788   6.844
18726TIP3    H156063   9.691   3.775   6.781
18726TIP3    H256064   9.664   3.796   6.928
18727TIP3   OH256065   9.814   3.626   7.001
18727TIP3    H156066   9.726   3.589   7.013
18727TIP3    H256067   9.850   3.630   7.090
18728TIP3   OH256068   0.053   3.998   7.332
18728TIP3    H156069   0.090   3.952   7.257
18728TIP3    H256070   0.028   4.084   7.297
18729TIP3   OH256071   9.678   4.288   7.559
18729TIP3    H156072   9.609   4.327   7.612
18729TIP3    H256073   9.632   4.245   7.486
18730TIP3   OH256074   9.690   3.504   6.600
18730TIP3    H156075   9.613   3.526   6.547
18730TIP3    H256076   9.723   3.588   6.631
18731TIP3   OH256077   9.579   3.162   6.562
18731TIP3    H156078   9.585   3.201   6.475
18731TIP3    H256079   9.567   3.068   6.545
18732TIP3   OH256080   9.607   3.459   7.075
18732TIP3    H156081   9.617   3.364   7.064
18732TIP3    H256082   9.604   3.472   7.170
18733TIP3   OH256083   8.258   3.482   7.850
18733TIP3    H156084   8.249   3.476   7.755
18733TIP3    H256085   8.351   3.499   7.865
18734TIP3   OH256086   9.563   2.894   6.513
18734TIP3    H156087   9.619   2.830   6.555
18734TIP3    H256088   9.474   2.859   6.523
18735TIP3   OH256089   9.612   3.188   6.979
18735TIP3    H156090   9.651   3.101   6.988
18735TIP3    H256091   9.654   3.226   6.902
18736TIP3   OH256092   0.009   3.319   7.465
18736TIP3    H156093   0.095   3.283   7.490
18736TIP3    H256094  -0.018   3.370   7.541
18737TIP3   OH256095   9.749   3.476   7.679
18737TIP3    H156096   9.691   3.507   7.748
18737TIP3    H256097   9.829   3.527   7.690
18738TIP3   OH256098   1.922   7.813   0.474
18738TIP3    H156099   2.017   7.815   0.471
18738TIP3    H256100   1.901   7.737   0.528
18739TIP3   OH256101   9.710   2.933   7.009
18739TIP3    H156102   9.761   2.900   7.083
18739TIP3    H256103   9.646   2.864   6.991
18740TIP3   OH256104   8.460   2.936   7.837
18740TIP3    H156105   8.514   2.858   7.837
18740TIP3    H256106   8.521   3.008   7.819
18741TIP3   OH256107   8.231   3.200   7.888
18741TIP3    H156108   8.292   3.180   7.816
18741TIP3    H256109   8.231   3.295   7.893
18742TIP3   OH256110   0.041   2.818   6.639
18742TIP3    H156111   0.135   2.808   6.649
18742TIP3    H256112   0.028   2.911   6.619
18743TIP3   OH256113   8.227   2.690   7.391
18743TIP3    H156114   8.143   2.683   7.437
18743TIP3    H256115   8.209   2.748   7.317
18744TIP3   OH256116   9.396   4.428   6.920
18744TIP3    H156117   9.438   4.407   6.836
18744TIP3    H256118   9.431   4.514   6.942
18745TIP3   OH256119   1.883   7.354   0.210
18745TIP3    H156120   1.855   7.382   0.297
18745TIP3    H256121   1.836   7.412   0.150
18746TIP3   OH256122   1.961   8.827   0.295
18746TIP3    H156123   1.866   8.817   0.282
18746TIP3    H256124   1.974   8.814   0.389
18747TIP3   OH256125   8.696   4.260   7.844
18747TIP3    H156126   8.642   4.333   7.813
18747TIP3    H256127   8.780   4.271   7.800
18748TIP3   OH256128   9.091   4.495   7.982
18748TIP3    H156129   9.130   4.482   8.068
18748TIP3    H256130   9.155   4.546   7.933
18749TIP3   OH256131   9.283   4.641   7.850
18749TIP3    H156132   9.345   4.586   7.803
18749TIP3    H256133   9.338   4.697   7.906
18750TIP3   OH256134   8.358   4.512   7.893
18750TIP3    H156135   8.267   4.528   7.870
18750TIP3    H256136   8.377   4.574   7.963
18751TIP3   OH256137   8.586   4.493   7.743
18751TIP3    H156138   8.504   4.497   7.792
18751TIP3    H256139   8.562   4.513   7.653
18752TIP3   OH256140   8.992   4.513   7.534
18752TIP3    H156141   8.919   4.521   7.473
18752TIP3    H256142   9.002   4.600   7.572
18753TIP3   OH256143   9.249   4.435   7.583
18753TIP3    H156144   9.158   4.459   7.564
18753TIP3    H256145   9.301   4.501   7.537
18754TIP3   OH256146   9.444   4.603   7.480
18754TIP3    H156147   9.445   4.693   7.447
18754TIP3    H256148   9.471   4.550   7.405
18755TIP3   OH256149   8.269   4.280   7.611
18755TIP3    H156150   8.291   4.253   7.700
18755TIP3    H256151   8.338   4.242   7.557
18756TIP3   OH256152   8.470   4.163   7.465
18756TIP3    H156153   8.478   4.078   7.508
18756TIP3    H256154   8.556   4.203   7.475
18757TIP3   OH256155   8.738   4.248   7.493
18757TIP3    H156156   8.758   4.156   7.477
18757TIP3    H256157   8.792   4.272   7.569
18758TIP3   OH256158   9.297   2.887   7.573
18758TIP3    H156159   9.242   2.826   7.623
18758TIP3    H256160   9.356   2.830   7.524
18759TIP3   OH256161   0.013   2.779   7.462
18759TIP3    H156162   0.031   2.816   7.376
18759TIP3    H256163  -0.045   2.842   7.504
18760TIP3   OH256164   0.087   2.863   7.212
18760TIP3    H156165   0.169   2.825   7.182
18760TIP3    H256166   0.100   2.957   7.208
18761TIP3   OH256167   8.528   2.607   7.564
18761TIP3    H156168   8.439   2.576   7.576
18761TIP3    H256169   8.579   2.527   7.550
18762TIP3   OH256170   8.372   2.506   7.233
18762TIP3    H156171   8.393   2.556   7.154
18762TIP3    H256172   8.328   2.569   7.290
18763TIP3   OH256173   9.002   2.634   7.453
18763TIP3    H156174   9.050   2.681   7.385
18763TIP3    H256175   9.031   2.675   7.535
18764TIP3   OH256176   9.485   2.754   7.406
18764TIP3    H156177   9.500   2.827   7.346
18764TIP3    H256178   9.548   2.688   7.380
18765TIP3   OH256179   9.534   2.726   6.988
18765TIP3    H156180   9.457   2.775   7.017
18765TIP3    H256181   9.526   2.641   7.030
18766TIP3   OH256182   8.032   4.078   6.995
18766TIP3    H156183   7.947   4.043   6.968
18766TIP3    H256184   8.033   4.167   6.960
18767TIP3   OH256185   8.465   2.635   6.991
18767TIP3    H156186   8.513   2.578   6.932
18767TIP3    H256187   8.532   2.693   7.028
18768TIP3   OH256188   8.944   2.832   7.088
18768TIP3    H156189   9.005   2.780   7.142
18768TIP3    H256190   8.958   2.922   7.116
18769TIP3   OH256191   8.826   4.228   6.591
18769TIP3    H156192   8.907   4.262   6.552
18769TIP3    H256193   8.799   4.158   6.533
18770TIP3   OH256194   9.517   4.365   6.679
18770TIP3    H156195   9.520   4.270   6.678
18770TIP3    H256196   9.468   4.389   6.600
18771TIP3   OH256197   8.144   4.071   6.645
18771TIP3    H156198   8.145   4.077   6.741
18771TIP3    H256199   8.224   4.024   6.624
18772TIP3   OH256200   9.712   4.511   7.886
18772TIP3    H156201   9.640   4.486   7.829
18772TIP3    H256202   9.711   4.607   7.885
18773TIP3   OH256203   0.102   3.367   6.948
18773TIP3    H156204   0.059   3.451   6.964
18773TIP3    H256205   0.047   3.324   6.882
18774TIP3   OH256206   0.312   3.624   7.110
18774TIP3    H156207   0.302   3.534   7.140
18774TIP3    H256208   0.286   3.623   7.018
18775TIP3   OH256209   0.179   3.974   6.624
18775TIP3    H156210   0.115   3.949   6.691
18775TIP3    H256211   0.243   4.027   6.671
18776TIP3   OH256212   0.263   4.094   7.504
18776TIP3    H156213   0.192   4.048   7.460
18776TIP3    H256214   0.337   4.032   7.502
18777TIP3   OH256215   0.051   4.269   7.233
18777TIP3    H156216   0.126   4.283   7.292
18777TIP3    H256217  -0.001   4.349   7.242
18778TIP3   OH256218   0.290   4.449   6.779
18778TIP3    H156219   0.364   4.428   6.836
18778TIP3    H256220   0.251   4.364   6.758
18779TIP3   OH256221   0.369   4.300   7.654
18779TIP3    H156222   0.452   4.282   7.610
18779TIP3    H256223   0.315   4.223   7.636
18780TIP3   OH256224   0.155   3.120   7.176
18780TIP3    H156225   0.193   3.207   7.189
18780TIP3    H256226   0.150   3.110   7.081
18781TIP3   OH256227   0.172   3.623   6.442
18781TIP3    H156228   0.207   3.561   6.506
18781TIP3    H256229   0.103   3.575   6.397
18782TIP3   OH256230   0.264   4.355   7.378
18782TIP3    H156231   0.282   4.279   7.433
18782TIP3    H256232   0.265   4.429   7.440
18783TIP3   OH256233   0.101   4.248   6.732
18783TIP3    H156234   0.058   4.301   6.799
18783TIP3    H256235   0.055   4.269   6.651
18784TIP3   OH256236   0.289   4.730   7.811
18784TIP3    H156237   0.372   4.683   7.821
18784TIP3    H256238   0.222   4.662   7.811
18785TIP3   OH256239   9.713   3.916   6.450
18785TIP3    H156240   9.784   3.974   6.423
18785TIP3    H256241   9.704   3.853   6.378
18786TIP3   OH256242   9.711   4.536   6.769
18786TIP3    H156243   9.647   4.484   6.720
18786TIP3    H256244   9.737   4.481   6.842
18787TIP3   OH256245   0.009   4.370   6.960
18787TIP3    H156246  -0.014   4.305   7.027
18787TIP3    H256247   0.081   4.419   6.999
18788TIP3   OH256248   0.338   3.835   7.285
18788TIP3    H156249   0.321   3.760   7.229
18788TIP3    H256250   0.355   3.907   7.225
18789TIP3   OH256251   0.285   3.490   7.411
18789TIP3    H156252   0.250   3.455   7.330
18789TIP3    H256253   0.214   3.542   7.448
18790TIP3   OH256254   0.138   3.053   6.912
18790TIP3    H156255   0.057   3.003   6.923
18790TIP3    H256256   0.177   3.018   6.831
18791TIP3   OH256257   0.290   4.696   7.294
18791TIP3    H156258   0.213   4.752   7.287
18791TIP3    H256259   0.288   4.663   7.384
18792TIP3   OH256260   0.555   4.765   7.264
18792TIP3    H156261   0.474   4.717   7.281
18792TIP3    H256262   0.619   4.697   7.242
18793TIP3   OH256263   0.214   4.500   7.090
18793TIP3    H156264   0.181   4.511   7.179
18793TIP3    H256265   0.305   4.528   7.095
18794TIP3   OH256266   0.492   4.370   6.948
18794TIP3    H156267   0.559   4.305   6.967
18794TIP3    H256268   0.490   4.425   7.027
18795TIP3   OH256269   9.778   4.302   6.494
18795TIP3    H156270   9.695   4.318   6.449
18795TIP3    H256271   9.830   4.381   6.479
18796TIP3   OH256272   0.121   4.358   6.123
18796TIP3    H156273   0.157   4.423   6.184
18796TIP3    H256274   0.196   4.303   6.099
18797TIP3   OH256275   4.885   9.113   0.841
18797TIP3    H156276   4.851   9.191   0.799
18797TIP3    H256277   4.851   9.040   0.788
18798TIP3   OH256278   4.995   8.994   1.208
18798TIP3    H156279   5.032   8.910   1.235
18798TIP3    H256280   5.049   9.020   1.133
18799TIP3   OH256281   8.415   0.160   0.924
18799TIP3    H156282   8.484   0.108   0.885
18799TIP3    H256283   8.461   0.232   0.967
18800TIP3   OH256284   8.122   0.564   0.913
18800TIP3    H156285   8.151   0.488   0.863
18800TIP3    H256286   8.111   0.531   1.003
18801TIP3   OH256287   7.989   0.065   1.249
18801TIP3    H156288   8.061   0.058   1.187
18801TIP3    H256289   8.030   0.051   1.334
18802TIP3   OH256290   5.732   8.632   1.347
18802TIP3    H156291   5.761   8.712   1.303
18802TIP3    H256292   5.765   8.561   1.293
18803TIP3   OH256293   5.206   8.430   0.839
18803TIP3    H156294   5.252   8.493   0.895
18803TIP3    H256295   5.276   8.380   0.797
18804TIP3   OH256296   8.026   0.057   0.692
18804TIP3    H156297   8.029   0.055   0.597
18804TIP3    H256298   7.990   0.143   0.714
18805TIP3   OH256299   5.498   8.480   1.183
18805TIP3    H156300   5.402   8.474   1.192
18805TIP3    H256301   5.514   8.574   1.171
18806TIP3   OH256302   3.797   9.055   0.796
18806TIP3    H156303   3.771   9.065   0.705
18806TIP3    H256304   3.812   9.144   0.827
18807TIP3   OH256305   8.528   0.376   1.057
18807TIP3    H156306   8.452   0.367   1.115
18807TIP3    H256307   8.520   0.464   1.020
18808TIP3   OH256308   8.212   0.393   0.712
18808TIP3    H156309   8.258   0.311   0.694
18808TIP3    H256310   8.274   0.461   0.686
18809TIP3   OH256311   8.358   0.177   0.641
18809TIP3    H156312   8.417   0.129   0.583
18809TIP3    H256313   8.385   0.151   0.729
18810TIP3   OH256314   8.773   0.297   1.443
18810TIP3    H156315   8.742   0.216   1.401
18810TIP3    H256316   8.748   0.367   1.382
18811TIP3   OH256317   4.769   8.967   0.633
18811TIP3    H156318   4.730   9.042   0.588
18811TIP3    H256319   4.828   8.928   0.568
18812TIP3   OH256320   4.753   8.723   0.329
18812TIP3    H156321   4.814   8.772   0.383
18812TIP3    H256322   4.805   8.651   0.293
18813TIP3   OH256323   5.626   9.075   1.201
18813TIP3    H156324   5.584   9.084   1.287
18813TIP3    H256325   5.680   9.154   1.192
18814TIP3   OH256326   5.148   9.034   0.577
18814TIP3    H156327   5.180   9.105   0.633
18814TIP3    H256328   5.215   8.965   0.585
18815TIP3   OH256329   4.405   8.920   1.079
18815TIP3    H156330   4.310   8.918   1.091
18815TIP3    H256331   4.441   8.879   1.158
18816TIP3   OH256332   7.773   0.200   1.150
18816TIP3    H156333   7.755   0.162   1.064
18816TIP3    H256334   7.844   0.148   1.185
18817TIP3   OH256335   8.307   0.355   1.213
18817TIP3    H156336   8.280   0.443   1.236
18817TIP3    H256337   8.230   0.301   1.228
18818TIP3   OH256338   4.949   8.902   0.438
18818TIP3    H156339   5.017   8.954   0.481
18818TIP3    H256340   4.977   8.896   0.347
18819TIP3   OH256341   7.949   0.316   0.731
18819TIP3    H156342   8.040   0.346   0.732
18819TIP3    H256343   7.905   0.375   0.670
18820TIP3   OH256344   5.497   8.063   0.431
18820TIP3    H156345   5.431   8.079   0.498
18820TIP3    H256346   5.505   8.146   0.384
18821TIP3   OH256347   4.285   8.928   0.795
18821TIP3    H156348   4.214   8.984   0.764
18821TIP3    H256349   4.242   8.853   0.835
18822TIP3   OH256350   8.561   0.199   0.056
18822TIP3    H156351   8.565   0.291   0.033
18822TIP3    H256352   8.652   0.169   0.049
18823TIP3   OH256353   9.007   0.674   1.459
18823TIP3    H156354   9.004   0.579   1.468
18823TIP3    H256355   8.935   0.705   1.514
18824TIP3   OH256356   7.870   0.506   0.538
18824TIP3    H156357   7.824   0.489   0.456
18824TIP3    H256358   7.838   0.592   0.566
18825TIP3   OH256359   7.298   0.328   0.890
18825TIP3    H156360   7.350   0.323   0.970
18825TIP3    H256361   7.236   0.399   0.905
18826TIP3   OH256362   8.079   0.436   0.171
18826TIP3    H156363   8.130   0.363   0.136
18826TIP3    H256364   8.110   0.446   0.261
18827TIP3   OH256365   8.126   0.470   0.441
18827TIP3    H156366   8.039   0.475   0.481
18827TIP3    H256367   8.182   0.432   0.508
18828TIP3   OH256368   5.045   8.826   0.194
18828TIP3    H156369   4.997   8.823   0.111
18828TIP3    H256370   5.129   8.866   0.173
18829TIP3   OH256371   4.781   8.267   0.386
18829TIP3    H156372   4.803   8.211   0.460
18829TIP3    H256373   4.732   8.210   0.326
18830TIP3   OH256374   4.336   8.544   1.166
18830TIP3    H156375   4.357   8.458   1.202
18830TIP3    H256376   4.252   8.532   1.122
18831TIP3   OH256377   4.856   8.675   0.727
18831TIP3    H156378   4.918   8.748   0.732
18831TIP3    H256379   4.902   8.607   0.678
18832TIP3   OH256380   5.066   8.675   0.990
18832TIP3    H156381   5.085   8.740   0.922
18832TIP3    H256382   5.056   8.593   0.943
18833TIP3   OH256383   4.473   8.253   0.419
18833TIP3    H156384   4.512   8.217   0.499
18833TIP3    H256385   4.381   8.268   0.441
18834TIP3   OH256386   4.030   8.252   1.018
18834TIP3    H156387   4.051   8.211   0.935
18834TIP3    H256388   3.943   8.218   1.040
18835TIP3   OH256389   4.513   8.441   0.791
18835TIP3    H156390   4.525   8.519   0.845
18835TIP3    H256391   4.473   8.473   0.710
18836TIP3   OH256392   4.383   8.518   0.563
18836TIP3    H156393   4.289   8.533   0.566
18836TIP3    H256394   4.415   8.577   0.495
18837TIP3   OH256395   8.639   1.027   1.517
18837TIP3    H156396   8.651   0.995   1.428
18837TIP3    H256397   8.727   1.031   1.554
18838TIP3   OH256398   4.498   9.119   0.599
18838TIP3    H156399   4.456   9.034   0.583
18838TIP3    H256400   4.509   9.122   0.694
18839TIP3   OH256401   8.680   0.110   1.268
18839TIP3    H156402   8.729   0.149   1.195
18839TIP3    H256403   8.594   0.092   1.232
18840TIP3   OH256404   5.032   8.367   0.363
18840TIP3    H156405   4.944   8.339   0.387
18840TIP3    H256406   5.035   8.460   0.386
18841TIP3   OH256407   5.054   8.628   0.417
18841TIP3    H156408   5.081   8.641   0.507
18841TIP3    H256409   5.063   8.714   0.376
18842TIP3   OH256410   4.690   9.197   0.425
18842TIP3    H156411   4.668   9.289   0.413
18842TIP3    H256412   4.620   9.163   0.481
18843TIP3   OH256413   5.508   8.697   0.359
18843TIP3    H156414   5.444   8.662   0.298
18843TIP3    H256415   5.517   8.789   0.335
18844TIP3   OH256416   9.015   0.403   1.492
18844TIP3    H156417   8.927   0.365   1.489
18844TIP3    H256418   9.060   0.364   1.418
18845TIP3   OH256419   8.484   0.273   0.314
18845TIP3    H156420   8.461   0.193   0.360
18845TIP3    H256421   8.507   0.244   0.225
18846TIP3   OH256422   8.435   0.016   1.200
18846TIP3    H156423   8.344   0.034   1.179
18846TIP3    H256424   8.469  -0.033   1.125
18847TIP3   OH256425   7.605   0.178   0.914
18847TIP3    H156426   7.605   0.242   0.843
18847TIP3    H256427   7.551   0.217   0.982
18848TIP3   OH256428   3.883   8.656   0.716
18848TIP3    H156429   3.906   8.714   0.644
18848TIP3    H256430   3.790   8.672   0.731
18849TIP3   OH256431   4.421   9.165   0.898
18849TIP3    H156432   4.394   9.256   0.897
18849TIP3    H256433   4.345   9.117   0.862
18850TIP3   OH256434   7.536   0.384   0.747
18850TIP3    H156435   7.447   0.380   0.782
18850TIP3    H256436   7.562   0.476   0.759
18851TIP3   OH256437   8.244   0.016   0.221
18851TIP3    H156438   8.302   0.016   0.297
18851TIP3    H256439   8.164  -0.026   0.253
18852TIP3   OH256440   8.512   0.623   1.367
18852TIP3    H156441   8.423   0.591   1.385
18852TIP3    H256442   8.499   0.703   1.315
18853TIP3   OH256443   8.567   0.471   0.023
18853TIP3    H156444   8.580   0.527  -0.053
18853TIP3    H256445   8.500   0.516   0.075
18854TIP3   OH256446   5.181   9.249   0.408
18854TIP3    H156447   5.154   9.175   0.463
18854TIP3    H256448   5.275   9.235   0.394
18855TIP3   OH256449   4.355   9.209   0.214
18855TIP3    H156450   4.364   9.116   0.192
18855TIP3    H256451   4.327   9.210   0.305
18856TIP3   OH256452   7.551   0.003   0.476
18856TIP3    H156453   7.626  -0.033   0.524
18856TIP3    H256454   7.557   0.097   0.491
18857TIP3   OH256455   4.064   9.059   0.717
18857TIP3    H156456   3.983   9.063   0.768
18857TIP3    H256457   4.047   9.115   0.641
18858TIP3   OH256458   5.067   8.235   0.722
18858TIP3    H156459   5.020   8.284   0.655
18858TIP3    H256460   5.106   8.303   0.777
18859TIP3   OH256461   7.845   0.201   0.441
18859TIP3    H156462   7.759   0.213   0.482
18859TIP3    H256463   7.855   0.277   0.383
18860TIP3   OH256464   4.841   8.509   0.947
18860TIP3    H156465   4.840   8.573   0.875
18860TIP3    H256466   4.756   8.521   0.991
18861TIP3   OH256467   4.826   8.261   1.058
18861TIP3    H156468   4.848   8.352   1.038
18861TIP3    H256469   4.864   8.246   1.144
18862TIP3   OH256470   7.583   0.269   0.507
18862TIP3    H156471   7.559   0.340   0.446
18862TIP3    H256472   7.568   0.306   0.594
18863TIP3   OH256473   4.373   8.216   0.825
18863TIP3    H156474   4.413   8.303   0.815
18863TIP3    H256475   4.412   8.163   0.756
18864TIP3   OH256476   5.309   8.877   0.958
18864TIP3    H156477   5.248   8.949   0.969
18864TIP3    H256478   5.385   8.901   1.011
18865TIP3   OH256479   4.023   9.143   0.451
18865TIP3    H156480   4.081   9.220   0.454
18865TIP3    H256481   4.075   9.076   0.407
18866TIP3   OH256482   3.917   8.376   0.526
18866TIP3    H156483   3.961   8.376   0.611
18866TIP3    H256484   3.830   8.412   0.545
18867TIP3   OH256485   8.536   0.638   0.969
18867TIP3    H156486   8.493   0.688   0.899
18867TIP3    H256487   8.630   0.652   0.954
18868TIP3   OH256488   7.150   0.075   0.857
18868TIP3    H156489   7.076   0.129   0.884
18868TIP3    H256490   7.224   0.136   0.850
18869TIP3   OH256491   7.767   0.183   0.131
18869TIP3    H156492   7.721   0.108   0.167
18869TIP3    H256493   7.843   0.146   0.085
18870TIP3   OH256494   8.207   0.227   0.054
18870TIP3    H156495   8.236   0.158   0.114
18870TIP3    H256496   8.263   0.216  -0.023
18871TIP3   OH256497   4.182   8.937   0.355
18871TIP3    H156498   4.246   8.928   0.425
18871TIP3    H256499   4.234   8.936   0.274
18872TIP3   OH256500   4.707   9.131   0.159
18872TIP3    H156501   4.688   9.137   0.253
18872TIP3    H256502   4.697   9.038   0.139
18873TIP3   OH256503   4.375   8.884   0.537
18873TIP3    H156504   4.349   8.849   0.622
18873TIP3    H256505   4.421   8.811   0.495
18874TIP3   OH256506   4.484   8.689   0.379
18874TIP3    H156507   4.452   8.683   0.289
18874TIP3    H256508   4.579   8.696   0.370
18875TIP3   OH256509   5.265   8.953   0.091
18875TIP3    H156510   5.255   8.909   0.006
18875TIP3    H256511   5.239   9.044   0.073
18876TIP3   OH256512   7.565   0.480   0.332
18876TIP3    H156513   7.656   0.464   0.304
18876TIP3    H256514   7.524   0.521   0.256
18877TIP3   OH256515   3.764   9.075   0.526
18877TIP3    H156516   3.844   9.113   0.491
18877TIP3    H256517   3.722   9.033   0.450
18878TIP3   OH256518   8.800   0.703   0.944
18878TIP3    H156519   8.833   0.717   1.033
18878TIP3    H256520   8.869   0.736   0.887
18879TIP3   OH256521   8.846   0.712   1.224
18879TIP3    H156522   8.800   0.628   1.226
18879TIP3    H256523   8.919   0.701   1.284
18880TIP3   OH256524   5.446   9.180   0.397
18880TIP3    H156525   5.512   9.244   0.372
18880TIP3    H256526   5.482   9.138   0.475
18881TIP3   OH256527   5.565   9.027   0.598
18881TIP3    H156528   5.487   9.033   0.653
18881TIP3    H256529   5.633   9.073   0.647
18882TIP3   OH256530   8.803   0.218   1.047
18882TIP3    H156531   8.826   0.148   0.986
18882TIP3    H256532   8.799   0.297   0.992
18883TIP3   OH256533   8.705   0.478   1.247
18883TIP3    H156534   8.636   0.523   1.294
18883TIP3    H256535   8.660   0.429   1.178
18884TIP3   OH256536   5.485   8.949   0.253
18884TIP3    H156537   5.409   8.943   0.195
18884TIP3    H256538   5.471   9.028   0.304
18885TIP3   OH256539   5.323   8.603   0.186
18885TIP3    H156540   5.275   8.631   0.109
18885TIP3    H256541   5.315   8.507   0.186
18886TIP3   OH256542   5.330   8.860   0.681
18886TIP3    H156543   5.383   8.782   0.664
18886TIP3    H256544   5.334   8.871   0.776
18887TIP3   OH256545   5.285   8.334   0.155
18887TIP3    H156546   5.364   8.306   0.201
18887TIP3    H256547   5.228   8.257   0.156
18888TIP3   OH256548   5.415   8.609   0.597
18888TIP3    H156549   5.475   8.541   0.628
18888TIP3    H256550   5.455   8.640   0.515
18889TIP3   OH256551   5.500   8.760   1.171
18889TIP3    H156552   5.590   8.757   1.138
18889TIP3    H256553   5.508   8.787   1.262
18890TIP3   OH256554   5.517   8.327   0.595
18890TIP3    H156555   5.514   8.247   0.648
18890TIP3    H256556   5.428   8.336   0.561
18891TIP3   OH256557   5.530   8.290   0.279
18891TIP3    H156558   5.580   8.230   0.223
18891TIP3    H256559   5.589   8.364   0.294
18892TIP3   OH256560   8.366   0.587   0.605
18892TIP3    H156561   8.424   0.573   0.530
18892TIP3    H256562   8.412   0.653   0.658
18893TIP3   OH256563   7.997   0.703   1.186
18893TIP3    H156564   7.925   0.698   1.124
18893TIP3    H256565   7.978   0.779   1.240
18894TIP3   OH256566   8.246   0.618   1.253
18894TIP3    H156567   8.157   0.645   1.233
18894TIP3    H256568   8.301   0.689   1.219
18895TIP3   OH256569   8.450   0.806   1.168
18895TIP3    H156570   8.442   0.891   1.124
18895TIP3    H256571   8.478   0.746   1.099
18896TIP3   OH256572   7.465   0.324   1.108
18896TIP3    H156573   7.463   0.273   1.189
18896TIP3    H256574   7.536   0.387   1.120
18897TIP3   OH256575   7.705   0.459   1.160
18897TIP3    H156576   7.738   0.369   1.152
18897TIP3    H256577   7.730   0.486   1.249
18898TIP3   OH256578   5.484   8.206   1.153
18898TIP3    H156579   5.497   8.295   1.187
18898TIP3    H256580   5.418   8.168   1.210
18899TIP3   OH256581   5.673   8.209   0.813
18899TIP3    H156582   5.704   8.211   0.904
18899TIP3    H256583   5.619   8.287   0.804
18900TIP3   OH256584   5.267   8.083   1.254
18900TIP3    H156585   5.207   8.131   1.196
18900TIP3    H256586   5.262   7.993   1.223
18901TIP3   OH256587   5.309   8.128   0.623
18901TIP3    H156588   5.236   8.190   0.623
18901TIP3    H256589   5.269   8.045   0.598
18902TIP3   OH256590   4.090   8.126   0.780
18902TIP3    H156591   4.128   8.042   0.804
18902TIP3    H256592   4.165   8.179   0.751
18903TIP3   OH256593   4.733   8.284   0.793
18903TIP3    H156594   4.768   8.291   0.882
18903TIP3    H256595   4.660   8.346   0.791
18904TIP3   OH256596   7.821   0.415   0.264
18904TIP3    H156597   7.906   0.440   0.227
18904TIP3    H256598   7.794   0.340   0.210
18905TIP3   OH256599   8.518   0.537   0.376
18905TIP3    H156600   8.512   0.443   0.364
18905TIP3    H256601   8.479   0.574   0.296
18906TIP3   OH256602   7.125   0.230   0.373
18906TIP3    H156603   7.122   0.324   0.389
18906TIP3    H256604   7.212   0.215   0.337
18907TIP3   OH256605   0.219   0.067   0.300
18907TIP3    H156606   0.189   0.155   0.277
18907TIP3    H256607   0.149   0.009   0.270
18908TIP3   OH256608   0.183   0.077   0.652
18908TIP3    H156609   0.226   0.049   0.733
18908TIP3    H256610   0.146  -0.004   0.615
18909TIP3   OH256611   6.106   9.048   1.035
18909TIP3    H156612   6.115   9.095   1.118
18909TIP3    H256613   6.157   9.100   0.973
18910TIP3   OH256614   0.481   0.374   0.395
18910TIP3    H156615   0.473   0.306   0.462
18910TIP3    H256616   0.505   0.453   0.444
18911TIP3   OH256617   9.301   0.347   0.750
18911TIP3    H156618   9.278   0.255   0.758
18911TIP3    H256619   9.397   0.348   0.745
18912TIP3   OH256620   5.753   8.836   0.511
18912TIP3    H156621   5.683   8.901   0.520
18912TIP3    H256622   5.711   8.753   0.534
18913TIP3   OH256623   5.793   9.139   0.721
18913TIP3    H156624   5.835   9.053   0.724
18913TIP3    H256625   5.864   9.200   0.703
18914TIP3   OH256626   0.149   0.789   0.418
18914TIP3    H156627   0.170   0.726   0.349
18914TIP3    H256628   0.161   0.740   0.500
18915TIP3   OH256629   0.019   0.298   0.701
18915TIP3    H156630   0.061   0.221   0.662
18915TIP3    H256631   0.091   0.349   0.737
18916TIP3   OH256632   7.609   8.839   0.693
18916TIP3    H156633   7.626   8.927   0.727
18916TIP3    H256634   7.635   8.843   0.601
18917TIP3   OH256635   6.970   9.020   0.766
18917TIP3    H156636   6.976   8.930   0.797
18917TIP3    H256637   6.942   9.012   0.674
18918TIP3   OH256638   6.319   8.683   0.658
18918TIP3    H156639   6.300   8.749   0.592
18918TIP3    H256640   6.267   8.607   0.631
18919TIP3   OH256641   6.996   8.763   0.360
18919TIP3    H156642   7.062   8.755   0.429
18919TIP3    H256643   7.044   8.797   0.285
18920TIP3   OH256644   5.884   8.897   0.813
18920TIP3    H156645   5.976   8.894   0.837
18920TIP3    H256646   5.877   8.836   0.739
18921TIP3   OH256647   6.375   9.081   0.641
18921TIP3    H156648   6.469   9.063   0.640
18921TIP3    H256649   6.335   9.005   0.599
18922TIP3   OH256650   7.669   9.069   0.837
18922TIP3    H156651   7.585   9.114   0.840
18922TIP3    H256652   7.686   9.043   0.928
18923TIP3   OH256653   6.322   8.603   1.202
18923TIP3    H156654   6.286   8.636   1.119
18923TIP3    H256655   6.246   8.594   1.259
18924TIP3   OH256656   0.115   0.286   0.165
18924TIP3    H156657   0.074   0.255   0.083
18924TIP3    H256658   0.060   0.360   0.192
18925TIP3   OH256659   9.634   0.209   0.889
18925TIP3    H156660   9.595   0.276   0.946
18925TIP3    H256661   9.682   0.259   0.824
18926TIP3   OH256662   7.188   8.791   0.547
18926TIP3    H156663   7.240   8.721   0.587
18926TIP3    H256664   7.233   8.872   0.572
18927TIP3   OH256665   6.154   8.851   0.831
18927TIP3    H156666   6.211   8.908   0.883
18927TIP3    H256667   6.211   8.817   0.762
18928TIP3   OH256668   9.498   0.404   1.038
18928TIP3    H156669   9.483   0.498   1.027
18928TIP3    H256670   9.416   0.370   1.071
18929TIP3   OH256671   8.901   0.117   0.302
18929TIP3    H156672   8.862   0.129   0.216
18929TIP3    H256673   8.920   0.206   0.332
18930TIP3   OH256674   0.519   0.617   0.539
18930TIP3    H156675   0.430   0.610   0.573
18930TIP3    H256676   0.520   0.701   0.493
18931TIP3   OH256677   7.374   8.877   0.840
18931TIP3    H156678   7.325   8.804   0.877
18931TIP3    H256679   7.450   8.836   0.798
18932TIP3   OH256680   6.694   8.331   0.820
18932TIP3    H156681   6.707   8.236   0.825
18932TIP3    H256682   6.617   8.347   0.875
18933TIP3   OH256683   0.225   0.646   0.191
18933TIP3    H156684   0.279   0.567   0.180
18933TIP3    H256685   0.283   0.718   0.164
18934TIP3   OH256686   0.363   0.414   0.149
18934TIP3    H156687   0.288   0.355   0.152
18934TIP3    H256688   0.413   0.393   0.227
18935TIP3   OH256689   0.752   0.511   0.888
18935TIP3    H156690   0.737   0.436   0.831
18935TIP3    H256691   0.743   0.587   0.831
18936TIP3   OH256692   6.581   9.148   0.147
18936TIP3    H156693   6.497   9.190   0.131
18936TIP3    H256694   6.624   9.147   0.062
18937TIP3   OH256695   3.282   4.331   7.844
18937TIP3    H156696   3.349   4.379   7.892
18937TIP3    H256697   3.328   4.258   7.804
18938TIP3   OH256698   0.935   0.186   0.751
18938TIP3    H156699   0.849   0.227   0.748
18938TIP3    H256700   0.969   0.193   0.662
18939TIP3   OH256701   6.938   9.229   0.114
18939TIP3    H156702   6.884   9.260   0.186
18939TIP3    H256703   7.021   9.204   0.155
18940TIP3   OH256704   6.164   9.207   0.487
18940TIP3    H156705   6.120   9.145   0.428
18940TIP3    H256706   6.237   9.157   0.524
18941TIP3   OH256707   9.565   0.405   0.646
18941TIP3    H156708   9.534   0.391   0.557
18941TIP3    H256709   9.655   0.372   0.647
18942TIP3   OH256710   6.250   9.209   0.846
18942TIP3    H156711   6.293   9.162   0.775
18942TIP3    H256712   6.290   9.296   0.845
18943TIP3   OH256713   0.271   0.616   0.655
18943TIP3    H156714   0.262   0.691   0.713
18943TIP3    H256715   0.263   0.540   0.712
18944TIP3   OH256716   9.718   0.516   1.222
18944TIP3    H156717   9.644   0.564   1.260
18944TIP3    H256718   9.679   0.437   1.185
18945TIP3   OH256719   3.506   4.474   7.942
18945TIP3    H156720   3.563   4.530   7.995
18945TIP3    H256721   3.531   4.493   7.852
18946TIP3   OH256722   9.503   0.126   1.349
18946TIP3    H156723   9.506   0.221   1.357
18946TIP3    H256724   9.492   0.109   1.256
18947TIP3   OH256725   9.778   0.525   0.204
18947TIP3    H156726   9.859   0.575   0.208
18947TIP3    H256727   9.718   0.580   0.154
18948TIP3   OH256728   9.499   0.671   1.294
18948TIP3    H156729   9.479   0.680   1.200
18948TIP3    H256730   9.414   0.664   1.336
18949TIP3   OH256731   6.011   9.048   0.309
18949TIP3    H156732   5.945   9.103   0.266
18949TIP3    H256733   5.964   8.969   0.334
18950TIP3   OH256734   3.820   5.071   7.563
18950TIP3    H156735   3.813   5.164   7.543
18950TIP3    H256736   3.913   5.052   7.553
18951TIP3   OH256737   9.015   0.313   1.203
18951TIP3    H156738   8.932   0.314   1.155
18951TIP3    H256739   9.032   0.221   1.221
18952TIP3   OH256740   8.949   0.415   0.893
18952TIP3    H156741   9.031   0.368   0.908
18952TIP3    H256742   8.959   0.497   0.943
18953TIP3   OH256743   0.989   0.883   0.950
18953TIP3    H156744   0.994   0.787   0.956
18953TIP3    H256745   0.910   0.905   0.999
18954TIP3   OH256746   0.082   0.665   1.062
18954TIP3    H156747   0.078   0.756   1.093
18954TIP3    H256748   0.020   0.618   1.117
18955TIP3   OH256749   9.669   0.746   0.034
18955TIP3    H156750   9.617   0.726  -0.044
18955TIP3    H256751   9.634   0.830   0.065
18956TIP3   OH256752   9.104   0.609   0.410
18956TIP3    H156753   9.148   0.599   0.494
18956TIP3    H256754   9.054   0.527   0.400
18957TIP3   OH256755   3.336   5.299   7.659
18957TIP3    H156756   3.387   5.224   7.625
18957TIP3    H256757   3.370   5.313   7.747
18958TIP3   OH256758   3.388   5.343   7.928
18958TIP3    H156759   3.301   5.346   7.969
18958TIP3    H256760   3.444   5.305   7.995
18959TIP3   OH256761   9.238   0.472   1.183
18959TIP3    H156762   9.284   0.451   1.264
18959TIP3    H256763   9.160   0.416   1.184
18960TIP3   OH256764   6.476   8.401   0.954
18960TIP3    H156765   6.401   8.425   0.900
18960TIP3    H256766   6.503   8.482   0.996
18961TIP3   OH256767   6.939   8.508   1.304
18961TIP3    H156768   6.961   8.429   1.354
18961TIP3    H256769   6.844   8.506   1.299
18962TIP3   OH256770   7.183   9.141   1.007
18962TIP3    H156771   7.212   9.065   1.058
18962TIP3    H256772   7.111   9.108   0.954
18963TIP3   OH256773   3.579   4.518   7.682
18963TIP3    H156774   3.541   4.493   7.598
18963TIP3    H256775   3.622   4.602   7.666
18964TIP3   OH256776   6.551   8.496  -0.004
18964TIP3    H156777   6.513   8.503   0.084
18964TIP3    H256778   6.515   8.414  -0.038
18965TIP3   OH256779   6.382   8.960   0.967
18965TIP3    H156780   6.404   8.926   1.054
18965TIP3    H256781   6.380   9.055   0.978
18966TIP3   OH256782   6.212   8.896   0.525
18966TIP3    H156783   6.127   8.866   0.559
18966TIP3    H256784   6.217   8.861   0.437
18967TIP3   OH256785   6.705   8.949   0.287
18967TIP3    H156786   6.657   9.020   0.245
18967TIP3    H256787   6.760   8.912   0.218
18968TIP3   OH256788   0.449   0.021   1.352
18968TIP3    H156789   0.414   0.006   1.440
18968TIP3    H256790   0.543   0.008   1.361
18969TIP3   OH256791   6.875   8.970   0.505
18969TIP3    H156792   6.812   8.986   0.435
18969TIP3    H256793   6.919   8.889   0.479
18970TIP3   OH256794   6.026   9.154   1.280
18970TIP3    H156795   6.025   9.199   1.364
18970TIP3    H256796   6.019   9.061   1.302
18971TIP3   OH256797   2.950   3.854   7.973
18971TIP3    H156798   2.940   3.859   8.068
18971TIP3    H256799   2.873   3.898   7.939
18972TIP3   OH256800   5.787   8.479   0.877
18972TIP3    H156801   5.866   8.533   0.878
18972TIP3    H256802   5.817   8.392   0.850
18973TIP3   OH256803   5.702   8.507   0.323
18973TIP3    H156804   5.748   8.545   0.248
18973TIP3    H256805   5.637   8.573   0.348
18974TIP3   OH256806   6.834   9.226   0.877
18974TIP3    H156807   6.884   9.157   0.834
18974TIP3    H256808   6.857   9.217   0.970
18975TIP3   OH256809   6.590   8.654   0.587
18975TIP3    H156810   6.510   8.658   0.639
18975TIP3    H256811   6.660   8.640   0.650
18976TIP3   OH256812   5.996   8.744   0.596
18976TIP3    H156813   5.915   8.759   0.548
18976TIP3    H256814   6.027   8.658   0.566
18977TIP3   OH256815   6.238   8.751   0.299
18977TIP3    H156816   6.332   8.761   0.288
18977TIP3    H256817   6.202   8.769   0.212
18978TIP3   OH256818   6.951   8.752   0.808
18978TIP3    H156819   6.921   8.720   0.892
18978TIP3    H256820   6.911   8.694   0.744
18979TIP3   OH256821   6.120   8.767   0.056
18979TIP3    H156822   6.056   8.718   0.005
18979TIP3    H256823   6.172   8.814  -0.009
18980TIP3   OH256824   0.692   1.212   1.042
18980TIP3    H156825   0.689   1.227   0.947
18980TIP3    H256826   0.772   1.256   1.070
18981TIP3   OH256827   9.462   0.395   1.434
18981TIP3    H156828   9.456   0.489   1.451
18981TIP3    H256829   9.371   0.365   1.434
18982TIP3   OH256830   6.647   9.026   0.664
18982TIP3    H156831   6.721   8.995   0.613
18982TIP3    H256832   6.662   8.990   0.752
18983TIP3   OH256833   6.133   8.517   0.520
18983TIP3    H156834   6.134   8.428   0.556
18983TIP3    H256835   6.142   8.504   0.425
18984TIP3   OH256836   6.652   8.920   0.920
18984TIP3    H156837   6.556   8.921   0.918
18984TIP3    H256838   6.675   8.971   0.998
18985TIP3   OH256839   9.611   0.039   0.095
18985TIP3    H156840   9.536  -0.018   0.074
18985TIP3    H256841   9.584   0.086   0.173
18986TIP3   OH256842   0.689   0.308   0.709
18986TIP3    H156843   0.727   0.355   0.635
18986TIP3    H256844   0.612   0.265   0.673
18987TIP3   OH256845   3.533   3.987   7.992
18987TIP3    H156846   3.441   3.962   7.994
18987TIP3    H256847   3.534   4.080   8.013
18988TIP3   OH256848   0.218   0.424   1.084
18988TIP3    H156849   0.223   0.418   1.179
18988TIP3    H256850   0.168   0.503   1.067
18989TIP3   OH256851   6.863   8.865   0.073
18989TIP3    H156852   6.958   8.869   0.087
18989TIP3    H256853   6.844   8.943   0.020
18990TIP3   OH256854   9.290   0.052   0.706
18990TIP3    H156855   9.330   0.038   0.620
18990TIP3    H256856   9.358   0.026   0.768
18991TIP3   OH256857   3.229   4.824   7.944
18991TIP3    H156858   3.181   4.907   7.941
18991TIP3    H256859   3.173   4.766   7.994
18992TIP3   OH256860   5.903   9.253   1.517
18992TIP3    H156861   5.876   9.303   1.593
18992TIP3    H256862   5.887   9.162   1.541
18993TIP3   OH256863   0.177   0.104   1.293
18993TIP3    H156864   0.091   0.064   1.307
18993TIP3    H256865   0.235   0.059   1.353
18994TIP3   OH256866   0.364   0.684   1.001
18994TIP3    H156867   0.269   0.677   0.998
18994TIP3    H256868   0.383   0.715   1.090
18995TIP3   OH256869   4.003   4.317   7.918
18995TIP3    H156870   3.969   4.259   7.849
18995TIP3    H256871   4.002   4.404   7.878
18996TIP3   OH256872   1.004   0.606   0.966
18996TIP3    H156873   0.914   0.575   0.976
18996TIP3    H256874   1.034   0.567   0.884
18997TIP3   OH256875   3.744   5.152   7.831
18997TIP3    H156876   3.722   5.085   7.895
18997TIP3    H256877   3.760   5.103   7.750
18998TIP3   OH256878   0.462   0.172   0.592
18998TIP3    H156879   0.368   0.153   0.596
18998TIP3    H256880   0.502   0.091   0.561
18999TIP3   OH256881   9.414   0.400   0.412
18999TIP3    H156882   9.409   0.476   0.355
18999TIP3    H256883   9.325   0.389   0.445
19000TIP3   OH256884   5.716   8.931   0.107
19000TIP3    H156885   5.759   9.016   0.120
19000TIP3    H256886   5.638   8.935   0.162
19001TIP3   OH256887   9.512   0.164   0.310
19001TIP3    H156888   9.489   0.251   0.344
19001TIP3    H256889   9.484   0.103   0.378
19002TIP3   OH256890   9.701   0.728   0.860
19002TIP3    H156891   9.738   0.801   0.811
19002TIP3    H256892   9.774   0.696   0.914
19003TIP3   OH256893   9.336   0.625   0.263
19003TIP3    H156894   9.249   0.629   0.304
19003TIP3    H256895   9.370   0.714   0.270
19004TIP3   OH256896   0.260   0.386   0.815
19004TIP3    H156897   0.248   0.389   0.910
19004TIP3    H256898   0.326   0.317   0.802
19005TIP3   OH256899   3.521   4.871   7.707
19005TIP3    H156900   3.567   4.842   7.786
19005TIP3    H256901   3.433   4.832   7.715
19006TIP3   OH256902   0.518   0.884   0.882
19006TIP3    H156903   0.451   0.820   0.906
19006TIP3    H256904   0.478   0.935   0.811
19007TIP3   OH256905   3.824   5.348   7.527
19007TIP3    H156906   3.867   5.415   7.474
19007TIP3    H256907   3.750   5.392   7.567
19008TIP3   OH256908   3.697   4.770   7.892
19008TIP3    H156909   3.683   4.727   7.976
19008TIP3    H256910   3.791   4.789   7.890
19009TIP3   OH256911   9.103   0.651   1.024
19009TIP3    H156912   9.158   0.593   1.076
19009TIP3    H256913   9.122   0.738   1.057
19010TIP3   OH256914   2.865   4.854   7.715
19010TIP3    H156915   2.877   4.762   7.690
19010TIP3    H256916   2.844   4.851   7.809
19011TIP3   OH256917   9.338   0.246  -0.015
19011TIP3    H156918   9.392   0.213   0.057
19011TIP3    H256919   9.340   0.341  -0.005
19012TIP3   OH256920   5.813   9.186   0.171
19012TIP3    H156921   5.756   9.237   0.229
19012TIP3    H256922   5.823   9.241   0.093
19013TIP3   OH256923   7.011   8.890   1.088
19013TIP3    H156924   7.003   8.905   1.182
19013TIP3    H256925   6.944   8.825   1.068
19014TIP3   OH256926   6.845   8.553   0.261
19014TIP3    H156927   6.837   8.569   0.166
19014TIP3    H256928   6.888   8.632   0.294
19015TIP3   OH256929   3.084   5.053   7.936
19015TIP3    H156930   2.999   5.074   7.974
19015TIP3    H256931   3.103   5.127   7.878
19016TIP3   OH256932   6.516   8.757   0.344
19016TIP3    H156933   6.577   8.826   0.322
19016TIP3    H256934   6.542   8.729   0.432
19017TIP3   OH256935   6.891   9.134   1.127
19017TIP3    H156936   6.928   9.160   1.211
19017TIP3    H256937   6.935   9.051   1.106
19018TIP3   OH256938   6.670   8.435   0.433
19018TIP3    H156939   6.654   8.511   0.490
19018TIP3    H256940   6.736   8.466   0.371
19019TIP3   OH256941   9.367   0.520   0.011
19019TIP3    H156942   9.344   0.593  -0.047
19019TIP3    H256943   9.355   0.555   0.099
19020TIP3   OH256944   6.187   8.481   0.247
19020TIP3    H156945   6.182   8.576   0.257
19020TIP3    H256946   6.281   8.461   0.255
19021TIP3   OH256947   7.500   9.059   1.112
19021TIP3    H156948   7.430   8.995   1.120
19021TIP3    H256949   7.481   9.106   1.031
19022TIP3   OH256950   7.091   9.159   0.506
19022TIP3    H156951   7.018   9.097   0.512
19022TIP3    H256952   7.161   9.119   0.557
19023TIP3   OH256953   2.542   4.769   7.964
19023TIP3    H156954   2.632   4.800   7.969
19023TIP3    H256955   2.513   4.793   7.876
19024TIP3   OH256956   5.766   8.659   0.108
19024TIP3    H156957   5.766   8.754   0.115
19024TIP3    H256958   5.713   8.640   0.031
19025TIP3   OH256959   0.541   0.881   0.454
19025TIP3    H156960   0.500   0.935   0.386
19025TIP3    H256961   0.635   0.894   0.441
19026TIP3   OH256962   6.229   8.448   0.821
19026TIP3    H156963   6.214   8.391   0.746
19026TIP3    H256964   6.211   8.394   0.898
19027TIP3   OH256965   8.931   0.390   0.380
19027TIP3    H156966   8.882   0.421   0.457
19027TIP3    H256967   8.885   0.429   0.306
19028TIP3   OH256968   9.126   0.933   1.430
19028TIP3    H156969   9.207   0.929   1.481
19028TIP3    H256970   9.095   0.843   1.426
19029TIP3   OH256971   9.599   0.848   1.484
19029TIP3    H156972   9.691   0.833   1.506
19029TIP3    H256973   9.580   0.785   1.415
19030TIP3   OH256974   3.026   5.053   7.615
19030TIP3    H156975   2.976   4.983   7.658
19030TIP3    H256976   3.100   5.008   7.574
19031TIP3   OH256977   0.417   0.771   1.257
19031TIP3    H156978   0.436   0.695   1.313
19031TIP3    H256979   0.492   0.829   1.270
19032TIP3   OH256980   3.470   5.086   7.545
19032TIP3    H156981   3.503   5.020   7.605
19032TIP3    H256982   3.531   5.086   7.471
19033TIP3   OH256983   2.704   4.521   7.837
19033TIP3    H156984   2.747   4.518   7.923
19033TIP3    H256985   2.772   4.549   7.776
19034TIP3   OH256986   0.162   0.500   1.351
19034TIP3    H156987   0.074   0.497   1.314
19034TIP3    H256988   0.167   0.423   1.408
19035TIP3   OH256989   3.265   4.762   7.679
19035TIP3    H156990   3.241   4.774   7.771
19035TIP3    H256991   3.245   4.670   7.661
19036TIP3   OH256992   0.537   0.442   1.044
19036TIP3    H156993   0.613   0.475   0.995
19036TIP3    H256994   0.467   0.504   1.023
19037TIP3   OH256995   6.137   9.104   0.059
19037TIP3    H156996   6.103   9.067   0.140
19037TIP3    H256997   6.179   9.030   0.015
19038TIP3   OH256998   6.482   9.203   1.353
19038TIP3    H156999   6.400   9.241   1.320
19038TIP3    H257000   6.514   9.149   1.280
19039TIP3   OH257001   3.006   4.305   7.895
19039TIP3    H157002   2.976   4.312   7.804
19039TIP3    H257003   3.102   4.312   7.888
19040TIP3   OH257004   0.538   0.329   1.335
19040TIP3    H157005   0.504   0.413   1.366
19040TIP3    H257006   0.523   0.269   1.408
19041TIP3   OH257007   3.855   4.556   7.507
19041TIP3    H157008   3.812   4.534   7.425
19041TIP3    H257009   3.826   4.646   7.526
19042TIP3   OH257010   6.545   8.936   1.496
19042TIP3    H157011   6.598   8.891   1.431
19042TIP3    H257012   6.471   8.971   1.447
19043TIP3   OH257013   6.447   8.838   1.196
19043TIP3    H157014   6.535   8.831   1.232
19043TIP3    H257015   6.409   8.750   1.208
19044TIP3   OH257016   0.095   0.133   0.991
19044TIP3    H157017   0.154   0.079   0.939
19044TIP3    H257018   0.019   0.146   0.935
19045TIP3   OH257019   7.255   9.237   1.393
19045TIP3    H157020   7.286   9.147   1.405
19045TIP3    H257021   7.269   9.279   1.478
19046TIP3   OH257022   6.677   8.457   1.249
19046TIP3    H157023   6.652   8.513   1.176
19046TIP3    H257024   6.602   8.400   1.263
19047TIP3   OH257025   6.808   8.994   1.598
19047TIP3    H157026   6.860   8.913   1.597
19047TIP3    H257027   6.719   8.964   1.583
19048TIP3   OH257028   6.991   8.959   1.347
19048TIP3    H157029   6.905   8.918   1.354
19048TIP3    H257030   7.032   8.944   1.432
19049TIP3   OH257031   7.283   9.005   1.667
19049TIP3    H157032   7.261   8.952   1.590
19049TIP3    H257033   7.217   8.981   1.732
19050TIP3   OH257034   5.388   5.652   0.040
19050TIP3    H157035   5.461   5.712   0.027
19050TIP3    H257036   5.315   5.692  -0.007
19051TIP3   OH257037   2.830   5.363   7.838
19051TIP3    H157038   2.916   5.335   7.805
19051TIP3    H257039   2.788   5.403   7.761
19052TIP3   OH257040   8.815   0.099   0.037
19052TIP3    H157041   8.901   0.129   0.007
19052TIP3    H257042   8.800   0.018  -0.012
19053TIP3   OH257043   8.724   0.693   0.472
19053TIP3    H157044   8.658   0.638   0.428
19053TIP3    H257045   8.768   0.634   0.533
19054TIP3   OH257046   8.869   0.527   0.638
19054TIP3    H157047   8.864   0.461   0.707
19054TIP3    H257048   8.921   0.597   0.677
19055TIP3   OH257049   0.812   0.929   0.447
19055TIP3    H157050   0.831   0.960   0.536
19055TIP3    H257051   0.872   0.979   0.392
19056TIP3   OH257052   0.831   0.966   0.727
19056TIP3    H157053   0.785   0.882   0.722
19056TIP3    H257054   0.899   0.952   0.792
19057TIP3   OH257055   0.897   0.654   1.278
19057TIP3    H157056   0.821   0.657   1.337
19057TIP3    H257057   0.937   0.741   1.287
19058TIP3   OH257058   3.975   4.786   7.900
19058TIP3    H157059   4.029   4.860   7.875
19058TIP3    H257060   4.020   4.747   7.975
19059TIP3   OH257061   0.839   0.023   0.100
19059TIP3    H157062   0.771  -0.012   0.158
19059TIP3    H257063   0.902   0.065   0.159
19060TIP3   OH257064   0.874   0.439   0.547
19060TIP3    H157065   0.928   0.371   0.506
19060TIP3    H257066   0.876   0.512   0.485
19061TIP3   OH257067   0.691   0.728   0.729
19061TIP3    H157068   0.624   0.772   0.781
19061TIP3    H257069   0.642   0.684   0.659
19062TIP3   OH257070   3.987   4.540   7.755
19062TIP3    H157071   3.908   4.591   7.770
19062TIP3    H257072   4.059   4.597   7.782
19063TIP3   OH257073   3.873   4.258   7.661
19063TIP3    H157074   3.791   4.266   7.612
19063TIP3    H257075   3.889   4.164   7.667
19064TIP3   OH257076   7.167   9.134   0.241
19064TIP3    H157077   7.171   9.038   0.236
19064TIP3    H257078   7.148   9.151   0.334
19065TIP3   OH257079   9.107   0.159   0.943
19065TIP3    H157080   9.029   0.164   0.887
19065TIP3    H257081   9.105   0.070   0.978
19066TIP3   OH257082   1.058   0.119   1.160
19066TIP3    H157083   1.003   0.054   1.117
19066TIP3    H257084   1.146   0.081   1.159
19067TIP3   OH257085   3.817   3.979   7.643
19067TIP3    H157086   3.896   3.950   7.689
19067TIP3    H257087   3.746   3.927   7.681
19068TIP3   OH257088   7.156   8.852   0.150
19068TIP3    H157089   7.218   8.785   0.179
19068TIP3    H257090   7.194   8.887   0.070
19069TIP3   OH257091   7.305   9.032   0.626
19069TIP3    H157092   7.389   9.065   0.594
19069TIP3    H257093   7.325   8.992   0.710
19070TIP3   OH257094   7.432   9.199   0.894
19070TIP3    H157095   7.338   9.182   0.906
19070TIP3    H257096   7.436   9.278   0.840
19071TIP3   OH257097   7.929   8.867   1.388
19071TIP3    H157098   7.940   8.774   1.408
19071TIP3    H257099   7.989   8.884   1.316
19072TIP3   OH257100   6.018   8.612   0.876
19072TIP3    H157101   6.086   8.549   0.852
19072TIP3    H257102   6.043   8.692   0.829
19073TIP3   OH257103   5.809   8.870   1.225
19073TIP3    H157104   5.799   8.818   1.145
19073TIP3    H257105   5.751   8.944   1.213
19074TIP3   OH257106   7.758   8.971   1.082
19074TIP3    H157107   7.671   8.987   1.119
19074TIP3    H257108   7.765   8.876   1.077
19075TIP3   OH257109   4.063   3.946   7.761
19075TIP3    H157110   4.118   3.871   7.785
19075TIP3    H257111   4.122   4.022   7.767
19076TIP3   OH257112   5.781   8.337   0.517
19076TIP3    H157113   5.693   8.322   0.554
19076TIP3    H257114   5.766   8.392   0.440
19077TIP3   OH257115   0.365   0.853   0.090
19077TIP3    H157116   0.419   0.840   0.013
19077TIP3    H257117   0.411   0.919   0.142
19078TIP3   OH257118   9.288   0.635   1.468
19078TIP3    H157119   9.193   0.634   1.460
19078TIP3    H257120   9.306   0.691   1.544
19079TIP3   OH257121   9.480   0.686   1.018
19079TIP3    H157122   9.428   0.761   0.987
19079TIP3    H257123   9.562   0.691   0.969
19080TIP3   OH257124   0.078   0.925   1.150
19080TIP3    H157125   0.115   0.923   1.239
19080TIP3    H257126   0.140   0.979   1.100
19081TIP3   OH257127   0.269   1.079   1.027
19081TIP3    H157128   0.333   1.027   0.978
19081TIP3    H257129   0.322   1.134   1.085
19082TIP3   OH257130   7.713   8.705   1.055
19082TIP3    H157131   7.617   8.714   1.056
19082TIP3    H257132   7.727   8.610   1.060
19083TIP3   OH257133   9.136   0.929   1.061
19083TIP3    H157134   9.046   0.950   1.039
19083TIP3    H257135   9.161   0.996   1.125
19084TIP3   OH257136   9.369   0.917   0.914
19084TIP3    H157137   9.286   0.922   0.961
19084TIP3    H257138   9.346   0.938   0.824
19085TIP3   OH257139   9.781   0.941   0.704
19085TIP3    H157140   9.707   0.951   0.644
19085TIP3    H257141   9.791   1.026   0.746
19086TIP3   OH257142   0.243   0.872   0.759
19086TIP3    H157143   0.152   0.892   0.736
19086TIP3    H257144   0.295   0.938   0.712
19087TIP3   OH257145   0.443   1.040   0.657
19087TIP3    H157146   0.443   1.127   0.617
19087TIP3    H257147   0.475   0.982   0.588
19088TIP3   OH257148   9.041   0.710   0.769
19088TIP3    H157149   9.061   0.691   0.860
19088TIP3    H257150   9.113   0.672   0.719
19089TIP3   OH257151   9.250   0.591   0.643
19089TIP3    H157152   9.260   0.506   0.685
19089TIP3    H257153   9.336   0.632   0.648
19090TIP3   OH257154   9.516   0.678   0.662
19090TIP3    H157155   9.535   0.586   0.645
19090TIP3    H257156   9.571   0.701   0.737
19091TIP3   OH257157   6.822   8.539   0.694
19091TIP3    H157158   6.784   8.460   0.732
19091TIP3    H257159   6.899   8.508   0.647
19092TIP3   OH257160   7.315   8.558   0.633
19092TIP3    H157161   7.365   8.540   0.553
19092TIP3    H257162   7.233   8.512   0.620
19093TIP3   OH257163   7.428   8.514   0.382
19093TIP3    H157164   7.474   8.479   0.305
19093TIP3    H257165   7.443   8.609   0.376
19094TIP3   OH257166   6.147   8.269   0.623
19094TIP3    H157167   6.068   8.267   0.677
19094TIP3    H257168   6.161   8.178   0.598
19095TIP3   OH257169   5.872   8.126   0.363
19095TIP3    H157170   5.908   8.177   0.290
19095TIP3    H257171   5.849   8.192   0.429
19096TIP3   OH257172   6.500   8.314   0.621
19096TIP3    H157173   6.544   8.351   0.544
19096TIP3    H257174   6.565   8.323   0.691
19097TIP3   OH257175   7.062   8.437   0.590
19097TIP3    H157176   7.073   8.433   0.495
19097TIP3    H257177   7.022   8.353   0.613
19098TIP3   OH257178   7.070   8.405   0.320
19098TIP3    H157179   6.993   8.448   0.284
19098TIP3    H257180   7.064   8.315   0.289
19099TIP3   OH257181   8.810   0.502   0.158
19099TIP3    H157182   8.728   0.467   0.123
19099TIP3    H257183   8.809   0.595   0.135
19100TIP3   OH257184   5.983   8.296   0.164
19100TIP3    H157185   6.029   8.240   0.101
19100TIP3    H257186   6.051   8.355   0.197
19101TIP3   OH257187   6.460   8.502   0.257
19101TIP3    H157188   6.520   8.448   0.309
19101TIP3    H257189   6.480   8.592   0.285
19102TIP3   OH257190   3.079   5.276   7.759
19102TIP3    H157191   3.164   5.301   7.724
19102TIP3    H257192   3.050   5.204   7.704
19103TIP3   OH257193   3.780   5.421   7.863
19103TIP3    H157194   3.773   5.325   7.856
19103TIP3    H257195   3.738   5.453   7.783
19104TIP3   OH257196   2.394   5.139   7.863
19104TIP3    H157197   2.376   5.122   7.955
19104TIP3    H257198   2.402   5.052   7.823
19105TIP3   OH257199   7.382   8.724   1.658
19105TIP3    H157200   7.462   8.687   1.619
19105TIP3    H257201   7.407   8.812   1.685
19106TIP3   OH257202   0.737   0.940   1.049
19106TIP3    H157203   0.664   0.909   0.994
19106TIP3    H257204   0.722   1.035   1.056
19107TIP3   OH257205   5.282   4.956   7.781
19107TIP3    H157206   5.241   5.039   7.756
19107TIP3    H257207   5.215   4.890   7.765
19108TIP3   OH257208   2.018   0.318   0.214
19108TIP3    H157209   2.070   0.297   0.291
19108TIP3    H257210   1.971   0.237   0.193
19109TIP3   OH257211   1.304   0.169   0.552
19109TIP3    H157212   1.344   0.123   0.625
19109TIP3    H257213   1.378   0.195   0.497
19110TIP3   OH257214   5.546   5.263   7.919
19110TIP3    H157215   5.518   5.187   7.970
19110TIP3    H257216   5.635   5.243   7.893
19111TIP3   OH257217   1.304   0.610   0.246
19111TIP3    H157218   1.283   0.516   0.251
19111TIP3    H257219   1.399   0.612   0.238
19112TIP3   OH257220   7.516   9.032   0.017
19112TIP3    H157221   7.486   9.118   0.046
19112TIP3    H257222   7.436   8.984  -0.002
19113TIP3   OH257223   1.060   0.121   0.247
19113TIP3    H157224   1.112   0.045   0.275
19113TIP3    H257225   1.125   0.187   0.222
19114TIP3   OH257226   5.188   5.650   7.928
19114TIP3    H157227   5.242   5.605   7.863
19114TIP3    H257228   5.102   5.609   7.921
19115TIP3   OH257229   1.822   0.539   0.211
19115TIP3    H157230   1.863   0.456   0.184
19115TIP3    H257231   1.895   0.594   0.238
19116TIP3   OH257232   9.385   9.093   0.232
19116TIP3    H157233   9.402   9.178   0.273
19116TIP3    H257234   9.413   9.104   0.141
19117TIP3   OH257235   8.759   9.265   0.252
19117TIP3    H157236   8.789   9.179   0.282
19117TIP3    H257237   8.723   9.249   0.165
19118TIP3   OH257238   8.121   8.927   0.209
19118TIP3    H157239   8.097   9.001   0.152
19118TIP3    H257240   8.068   8.854   0.177
19119TIP3   OH257241   5.545   4.403   7.849
19119TIP3    H157242   5.607   4.397   7.921
19119TIP3    H257243   5.597   4.436   7.775
19120TIP3   OH257244   7.738   9.143   0.337
19120TIP3    H157245   7.821   9.125   0.382
19120TIP3    H257246   7.741   9.088   0.259
19121TIP3   OH257247   1.622   0.097   0.161
19121TIP3    H157248   1.717   0.082   0.165
19121TIP3    H257249   1.587   0.015   0.125
19122TIP3   OH257250   2.908   0.076   0.394
19122TIP3    H157251   2.818   0.107   0.393
19122TIP3    H257252   2.944   0.108   0.477
19123TIP3   OH257253   8.104   8.925   0.654
19123TIP3    H157254   8.045   8.953   0.585
19123TIP3    H257255   8.055   8.941   0.735
19124TIP3   OH257256   5.148   5.166   7.665
19124TIP3    H157257   5.104   5.144   7.583
19124TIP3    H257258   5.103   5.244   7.697
19125TIP3   OH257259   1.658   0.462   0.422
19125TIP3    H157260   1.604   0.532   0.459
19125TIP3    H257261   1.704   0.503   0.349
19126TIP3   OH257262   8.963   9.051   0.072
19126TIP3    H157263   8.923   9.027   0.155
19126TIP3    H257264   9.021   9.124   0.094
19127TIP3   OH257265   7.982   9.034   0.427
19127TIP3    H157266   8.038   9.106   0.454
19127TIP3    H257267   8.032   8.990   0.358
19128TIP3   OH257268   1.502   0.662   0.535
19128TIP3    H157269   1.485   0.750   0.503
19128TIP3    H257270   1.425   0.639   0.587
19129TIP3   OH257271   4.139   4.989   7.806
19129TIP3    H157272   4.109   5.005   7.716
19129TIP3    H257273   4.162   5.076   7.839
19130TIP3   OH257274   2.271   0.895   0.055
19130TIP3    H157275   2.270   0.813   0.005
19130TIP3    H257276   2.292   0.962  -0.010
19131TIP3   OH257277   9.183   8.991   0.402
19131TIP3    H157278   9.098   9.009   0.361
19131TIP3    H257279   9.247   9.015   0.336
19132TIP3   OH257280   8.442   8.619   0.392
19132TIP3    H157281   8.436   8.527   0.416
19132TIP3    H257282   8.364   8.660   0.429
19133TIP3   OH257283   5.294   5.541   7.700
19133TIP3    H157284   5.340   5.458   7.689
19133TIP3    H257285   5.352   5.606   7.660
19134TIP3   OH257286   5.433   5.314   7.656
19134TIP3    H157287   5.425   5.238   7.598
19134TIP3    H257288   5.460   5.278   7.740
19135TIP3   OH257289   2.525   0.767   0.371
19135TIP3    H157290   2.516   0.689   0.317
19135TIP3    H257291   2.521   0.840   0.309
19136TIP3   OH257292   5.110   4.780   7.647
19136TIP3    H157293   5.026   4.823   7.631
19136TIP3    H257294   5.152   4.777   7.561
19137TIP3   OH257295   5.071   4.592   7.324
19137TIP3    H157296   5.136   4.639   7.377
19137TIP3    H257297   5.121   4.523   7.282
19138TIP3   OH257298   2.730   0.418   0.244
19138TIP3    H157299   2.646   0.463   0.243
19138TIP3    H257300   2.764   0.429   0.156
19139TIP3   OH257301   5.465   4.877   7.595
19139TIP3    H157302   5.409   4.903   7.668
19139TIP3    H257303   5.546   4.846   7.636
19140TIP3   OH257304   2.430   0.272   0.547
19140TIP3    H157305   2.431   0.353   0.596
19140TIP3    H257306   2.347   0.274   0.499
19141TIP3   OH257307   1.424   0.230   0.011
19141TIP3    H157308   1.388   0.172  -0.057
19141TIP3    H257309   1.495   0.179   0.050
19142TIP3   OH257310   1.569   0.658   0.149
19142TIP3    H157311   1.533   0.637   0.063
19142TIP3    H257312   1.653   0.613   0.152
19143TIP3   OH257313   1.518   0.228   0.380
19143TIP3    H157314   1.557   0.190   0.301
19143TIP3    H257315   1.569   0.308   0.395
19144TIP3   OH257316   2.018   0.926   0.197
19144TIP3    H157317   1.976   0.852   0.241
19144TIP3    H257318   2.106   0.896   0.177
19145TIP3   OH257319   1.690   0.763   0.713
19145TIP3    H157320   1.627   0.819   0.759
19145TIP3    H257321   1.636   0.711   0.653
19146TIP3   OH257322   5.295   4.729   7.434
19146TIP3    H157323   5.355   4.788   7.479
19146TIP3    H257324   5.324   4.731   7.343
19147TIP3   OH257325   1.455   0.312   0.844
19147TIP3    H157326   1.460   0.404   0.870
19147TIP3    H257327   1.361   0.295   0.836
19148TIP3   OH257328   5.043   5.427   7.717
19148TIP3    H157329   5.128   5.467   7.702
19148TIP3    H257330   4.984   5.472   7.657
19149TIP3   OH257331   1.478   0.924   0.792
19149TIP3    H157332   1.448   0.924   0.701
19149TIP3    H257333   1.400   0.903   0.844
19150TIP3   OH257334   5.805   3.958   7.495
19150TIP3    H157335   5.728   3.977   7.549
19150TIP3    H257336   5.813   4.033   7.437
19151TIP3   OH257337   4.570   4.697   7.808
19151TIP3    H157338   4.497   4.752   7.778
19151TIP3    H257339   4.530   4.613   7.827
19152TIP3   OH257340   5.634   5.336   7.048
19152TIP3    H157341   5.628   5.428   7.024
19152TIP3    H257342   5.724   5.311   7.025
19153TIP3   OH257343   1.083   0.483   0.735
19153TIP3    H157344   1.010   0.463   0.676
19153TIP3    H257345   1.115   0.397   0.763
19154TIP3   OH257346   0.918   0.673   0.395
19154TIP3    H157347   1.009   0.694   0.414
19154TIP3    H257348   0.869   0.749   0.424
19155TIP3   OH257349   2.777   1.104   0.429
19155TIP3    H157350   2.778   1.010   0.446
19155TIP3    H257351   2.694   1.134   0.467
19156TIP3   OH257352   1.870   0.909   0.565
19156TIP3    H157353   1.887   0.994   0.605
19156TIP3    H257354   1.809   0.866   0.626
19157TIP3   OH257355   4.945   5.628   7.525
19157TIP3    H157356   4.905   5.598   7.443
19157TIP3    H257357   4.896   5.708   7.547
19158TIP3   OH257358   4.363   5.484   7.897
19158TIP3    H157359   4.412   5.473   7.978
19158TIP3    H257360   4.318   5.400   7.884
19159TIP3   OH257361   5.129   5.555   7.143
19159TIP3    H157362   5.178   5.481   7.108
19159TIP3    H257363   5.165   5.569   7.230
19160TIP3   OH257364   5.195   5.600   7.411
19160TIP3    H157365   5.109   5.604   7.454
19160TIP3    H257366   5.247   5.543   7.468
19161TIP3   OH257367   2.674   0.229   0.707
19161TIP3    H157368   2.592   0.235   0.658
19161TIP3    H257369   2.693   0.135   0.711
19162TIP3   OH257370   1.285   0.667   0.708
19162TIP3    H157371   1.335   0.652   0.788
19162TIP3    H257372   1.212   0.605   0.712
19163TIP3   OH257373   8.205   8.714   0.507
19163TIP3    H157374   8.120   8.681   0.478
19163TIP3    H257375   8.185   8.794   0.556
19164TIP3   OH257376   8.743   8.838   0.720
19164TIP3    H157377   8.811   8.810   0.781
19164TIP3    H257378   8.661   8.821   0.767
19165TIP3   OH257379   2.429   0.010   0.643
19165TIP3    H157380   2.389   0.009   0.730
19165TIP3    H257381   2.414   0.099   0.611
19166TIP3   OH257382   5.374   4.708   7.172
19166TIP3    H157383   5.327   4.711   7.089
19166TIP3    H257384   5.456   4.754   7.155
19167TIP3   OH257385   5.084   4.131   7.491
19167TIP3    H157386   5.047   4.138   7.579
19167TIP3    H257387   5.049   4.049   7.457
19168TIP3   OH257388   1.605   0.004   0.523
19168TIP3    H157389   1.561   0.011   0.608
19168TIP3    H257390   1.582   0.085   0.478
19169TIP3   OH257391   8.016   9.124   0.049
19169TIP3    H157392   7.927   9.098   0.075
19169TIP3    H257393   8.025   9.091  -0.041
19170TIP3   OH257394   5.231   4.575   7.783
19170TIP3    H157395   5.183   4.648   7.743
19170TIP3    H257396   5.287   4.541   7.714
19171TIP3   OH257397   2.141   0.223   0.852
19171TIP3    H157398   2.117   0.154   0.914
19171TIP3    H257399   2.233   0.240   0.871
19172TIP3   OH257400   5.403   4.592   8.000
19172TIP3    H157401   5.332   4.608   7.937
19172TIP3    H257402   5.451   4.517   7.964
19173TIP3   OH257403   1.451   0.033   0.747
19173TIP3    H157404   1.460   0.098   0.816
19173TIP3    H257405   1.441  -0.050   0.793
19174TIP3   OH257406   4.753   4.109   7.471
19174TIP3    H157407   4.746   4.115   7.566
19174TIP3    H257408   4.674   4.151   7.438
19175TIP3   OH257409   7.534   8.760   0.310
19175TIP3    H157410   7.613   8.793   0.353
19175TIP3    H257411   7.566   8.700   0.243
19176TIP3   OH257412   4.250   4.156   7.790
19176TIP3    H157413   4.329   4.101   7.790
19176TIP3    H257414   4.241   4.184   7.881
19177TIP3   OH257415   2.174   0.225   0.427
19177TIP3    H157416   2.200   0.158   0.364
19177TIP3    H257417   2.133   0.175   0.498
19178TIP3   OH257418   8.386   8.913   0.103
19178TIP3    H157419   8.307   8.913   0.157
19178TIP3    H257420   8.458   8.901   0.164
19179TIP3   OH257421   7.778   8.997   0.108
19179TIP3    H157422   7.689   8.994   0.072
19179TIP3    H257423   7.811   8.907   0.099
19180TIP3   OH257424   4.763   4.381   7.804
19180TIP3    H157425   4.858   4.392   7.795
19180TIP3    H257426   4.728   4.399   7.716
19181TIP3   OH257427   8.823   9.001   0.311
19181TIP3    H157428   8.804   9.018   0.403
19181TIP3    H257429   8.757   8.937   0.284
19182TIP3   OH257430   4.651   4.401   7.553
19182TIP3    H157431   4.593   4.349   7.497
19182TIP3    H257432   4.704   4.452   7.492
19183TIP3   OH257433   2.491   1.455   0.519
19183TIP3    H157434   2.488   1.472   0.425
19183TIP3    H257435   2.570   1.500   0.549
19184TIP3   OH257436   1.439   0.579   0.940
19184TIP3    H157437   1.518   0.596   0.991
19184TIP3    H257438   1.368   0.588   1.004
19185TIP3   OH257439   1.899   0.053   0.205
19185TIP3    H157440   1.960  -0.002   0.157
19185TIP3    H257441   1.893   0.012   0.292
19186TIP3   OH257442   7.935   8.758   0.086
19186TIP3    H157443   7.916   8.683   0.142
19186TIP3    H257444   7.949   8.720  -0.001
19187TIP3   OH257445   8.404   9.192   0.464
19187TIP3    H157446   8.315   9.218   0.491
19187TIP3    H257447   8.461   9.240   0.523
19188TIP3   OH257448   4.874   4.913   7.591
19188TIP3    H157449   4.793   4.869   7.564
19188TIP3    H257450   4.852   4.956   7.674
19189TIP3   OH257451   2.494   0.557   0.193
19189TIP3    H157452   2.530   0.603   0.117
19189TIP3    H257453   2.417   0.512   0.159
19190TIP3   OH257454   5.336   4.235   7.495
19190TIP3    H157455   5.243   4.212   7.492
19190TIP3    H257456   5.336   4.330   7.509
19191TIP3   OH257457   2.064   0.710   0.574
19191TIP3    H157458   2.060   0.676   0.663
19191TIP3    H257459   2.000   0.781   0.573
19192TIP3   OH257460   5.391   4.500   7.566
19192TIP3    H157461   5.486   4.503   7.575
19192TIP3    H257462   5.369   4.576   7.513
19193TIP3   OH257463   1.290   0.322   0.234
19193TIP3    H157464   1.328   0.300   0.149
19193TIP3    H257465   1.354   0.289   0.297
19194TIP3   OH257466   4.993   5.106   7.437
19194TIP3    H157467   4.930   5.178   7.436
19194TIP3    H257468   4.948   5.035   7.484
19195TIP3   OH257469   1.182   0.258   0.875
19195TIP3    H157470   1.187   0.258   0.971
19195TIP3    H257471   1.100   0.212   0.856
19196TIP3   OH257472   1.917   0.385   0.889
19196TIP3    H157473   1.846   0.325   0.866
19196TIP3    H257474   1.996   0.339   0.862
19197TIP3   OH257475   5.805   4.587   7.377
19197TIP3    H157476   5.748   4.541   7.314
19197TIP3    H257477   5.810   4.676   7.344
19198TIP3   OH257478   2.779   0.821   0.463
19198TIP3    H157479   2.684   0.811   0.454
19198TIP3    H257480   2.813   0.799   0.376
19199TIP3   OH257481   5.545   5.390   7.309
19199TIP3    H157482   5.519   5.311   7.356
19199TIP3    H257483   5.571   5.359   7.222
19200TIP3   OH257484   2.263   0.416   0.085
19200TIP3    H157485   2.176   0.392   0.116
19200TIP3    H257486   2.300   0.335   0.050
19201TIP3   OH257487   4.687   5.258   7.918
19201TIP3    H157488   4.683   5.340   7.869
19201TIP3    H257489   4.595   5.229   7.924
19202TIP3   OH257490   4.804   5.024   7.828
19202TIP3    H157491   4.774   5.113   7.850
19202TIP3    H257492   4.765   4.969   7.896
19203TIP3   OH257493   1.706   0.986   0.357
19203TIP3    H157494   1.758   1.055   0.314
19203TIP3    H257495   1.767   0.948   0.421
19204TIP3   OH257496   4.625   5.493   7.794
19204TIP3    H157497   4.529   5.500   7.801
19204TIP3    H257498   4.654   5.583   7.779
19205TIP3   OH257499   2.054   0.659   0.303
19205TIP3    H157500   2.058   0.669   0.398
19205TIP3    H257501   2.124   0.596   0.283
19206TIP3   OH257502   5.326   5.141   7.206
19206TIP3    H157503   5.364   5.126   7.292
19206TIP3    H257504   5.241   5.097   7.209
19207TIP3   OH257505   5.622   5.607   7.003
19207TIP3    H157506   5.629   5.661   6.924
19207TIP3    H257507   5.554   5.650   7.055
19208TIP3   OH257508   7.943   9.021   0.858
19208TIP3    H157509   7.850   9.031   0.836
19208TIP3    H257510   7.943   8.987   0.947
19209TIP3   OH257511   5.490   5.103   7.434
19209TIP3    H157512   5.469   5.026   7.487
19209TIP3    H257513   5.583   5.094   7.415
19210TIP3   OH257514   1.130   0.867   0.522
19210TIP3    H157515   1.182   0.806   0.573
19210TIP3    H257516   1.139   0.951   0.568
19211TIP3   OH257517   4.738   5.073   7.211
19211TIP3    H157518   4.720   4.981   7.188
19211TIP3    H257519   4.677   5.092   7.282
19212TIP3   OH257520   4.587   5.149   7.432
19212TIP3    H157521   4.668   5.190   7.461
19212TIP3    H257522   4.535   5.220   7.395
19213TIP3   OH257523   4.356   4.839   7.713
19213TIP3    H157524   4.285   4.881   7.761
19213TIP3    H257525   4.366   4.891   7.633
19214TIP3   OH257526   8.766   9.068   0.573
19214TIP3    H157527   8.846   9.111   0.604
19214TIP3    H257528   8.758   8.989   0.628
19215TIP3   OH257529   5.395   4.185   7.764
19215TIP3    H157530   5.375   4.202   7.672
19215TIP3    H257531   5.439   4.264   7.794
19216TIP3   OH257532   4.813   5.322   7.450
19216TIP3    H157533   4.743   5.374   7.490
19216TIP3    H257534   4.845   5.377   7.379
19217TIP3   OH257535   5.042   4.386   7.854
19217TIP3    H157536   5.105   4.454   7.828
19217TIP3    H257537   5.066   4.364   7.944
19218TIP3   OH257538   2.073   0.061   0.623
19218TIP3    H157539   2.095   0.101   0.707
19218TIP3    H257540   2.121  -0.022   0.622
19219TIP3   OH257541   5.208   4.081   7.940
19219TIP3    H157542   5.186   4.159   7.991
19219TIP3    H257543   5.278   4.110   7.881
19220TIP3   OH257544   4.722   4.108   7.752
19220TIP3    H157545   4.713   4.200   7.778
19220TIP3    H257546   4.815   4.090   7.758
19221TIP3   OH257547   9.225   9.187   0.616
19221TIP3    H157548   9.132   9.200   0.631
19221TIP3    H257549   9.229   9.125   0.544
19222TIP3   OH257550   2.357   0.162  -0.001
19222TIP3    H157551   2.282   0.103   0.008
19222TIP3    H257552   2.425   0.122   0.053
19223TIP3   OH257553   4.351   5.002   7.482
19223TIP3    H157554   4.415   5.073   7.479
19223TIP3    H257555   4.385   4.937   7.421
19224TIP3   OH257556   4.164   4.355   7.610
19224TIP3    H157557   4.247   4.388   7.575
19224TIP3    H257558   4.188   4.282   7.666
19225TIP3   OH257559   5.595   5.762   7.932
19225TIP3    H157560   5.558   5.831   7.876
19225TIP3    H257561   5.689   5.776   7.928
19226TIP3   OH257562   7.942   8.637   0.473
19226TIP3    H157563   7.923   8.599   0.388
19226TIP3    H257564   7.929   8.565   0.535
19227TIP3   OH257565   4.191   5.258   7.884
19227TIP3    H157566   4.152   5.296   7.962
19227TIP3    H257567   4.144   5.299   7.811
19228TIP3   OH257568   1.128   1.172   0.944
19228TIP3    H157569   1.204   1.171   1.002
19228TIP3    H257570   1.099   1.081   0.941
19229TIP3   OH257571   1.590   1.104   0.967
19229TIP3    H157572   1.670   1.059   0.991
19229TIP3    H257573   1.548   1.046   0.904
19230TIP3   OH257574   4.824   5.310   7.103
19230TIP3    H157575   4.785   5.235   7.148
19230TIP3    H257576   4.901   5.274   7.059
19231TIP3   OH257577   2.225   1.062   0.699
19231TIP3    H157578   2.213   0.987   0.757
19231TIP3    H257579   2.308   1.101   0.727
19232TIP3   OH257580   5.264   5.346   7.030
19232TIP3    H157581   5.302   5.282   7.091
19232TIP3    H257582   5.319   5.339   6.952
19233TIP3   OH257583   1.229   0.582   1.124
19233TIP3    H157584   1.245   0.488   1.133
19233TIP3    H257585   1.144   0.589   1.081
19234TIP3   OH257586   4.474   4.805   7.335
19234TIP3    H157587   4.527   4.784   7.413
19234TIP3    H257588   4.538   4.815   7.265
19235TIP3   OH257589   1.850   0.659   0.911
19235TIP3    H157590   1.802   0.679   0.831
19235TIP3    H257591   1.883   0.570   0.897
19236TIP3   OH257592   5.077   5.023   7.181
19236TIP3    H157593   5.032   5.044   7.262
19236TIP3    H257594   5.046   4.936   7.158
19237TIP3   OH257595   2.329   0.643   0.530
19237TIP3    H157596   2.382   0.707   0.482
19237TIP3    H257597   2.243   0.685   0.539
19238TIP3   OH257598   1.320   0.320   1.129
19238TIP3    H157599   1.389   0.269   1.086
19238TIP3    H257600   1.355   0.338   1.216
19239TIP3   OH257601   4.657   4.744   7.538
19239TIP3    H157602   4.639   4.714   7.627
19239TIP3    H257603   4.706   4.672   7.498
19240TIP3   OH257604   1.713   0.210   0.801
19240TIP3    H157605   1.626   0.248   0.810
19240TIP3    H257606   1.740   0.232   0.712
19241TIP3   OH257607   4.799   4.557   7.382
19241TIP3    H157608   4.768   4.558   7.292
19241TIP3    H257609   4.893   4.568   7.376
19242TIP3   OH257610   2.214   0.605   0.877
19242TIP3    H157611   2.285   0.563   0.827
19242TIP3    H257612   2.205   0.551   0.955
19243TIP3   OH257613   5.593   4.843   7.068
19243TIP3    H157614   5.581   4.801   6.983
19243TIP3    H257615   5.572   4.935   7.052
19244TIP3   OH257616   8.349   9.214   0.900
19244TIP3    H157617   8.349   9.143   0.835
19244TIP3    H257618   8.313   9.289   0.853
19245TIP3   OH257619   8.358   9.019   0.695
19245TIP3    H157620   8.385   9.051   0.609
19245TIP3    H257621   8.268   8.987   0.682
19246TIP3   OH257622   1.816   0.285   0.562
19246TIP3    H157623   1.906   0.296   0.530
19246TIP3    H257624   1.765   0.351   0.513
19247TIP3   OH257625   2.409   0.256   0.946
19247TIP3    H157626   2.431   0.163   0.955
19247TIP3    H257627   2.492   0.298   0.923
19248TIP3   OH257628   2.477   0.503   0.702
19248TIP3    H157629   2.419   0.555   0.645
19248TIP3    H257630   2.565   0.520   0.669
19249TIP3   OH257631   1.712   0.073   1.143
19249TIP3    H157632   1.641   0.013   1.167
19249TIP3    H257633   1.738   0.045   1.055
19250TIP3   OH257634   8.481   8.790   0.799
19250TIP3    H157635   8.440   8.870   0.768
19250TIP3    H257636   8.416   8.722   0.785
19251TIP3   OH257637   8.600   9.251   1.009
19251TIP3    H157638   8.589   9.237   1.104
19251TIP3    H257639   8.514   9.229   0.972
19252TIP3   OH257640   8.849   9.216   0.885
19252TIP3    H157641   8.769   9.209   0.937
19252TIP3    H257642   8.917   9.180   0.941
19253TIP3   OH257643   9.083   9.166   1.026
19253TIP3    H157644   9.098   9.072   1.035
19253TIP3    H257645   9.079   9.198   1.117
19254TIP3   OH257646   8.082   9.106   1.218
19254TIP3    H157647   8.081   9.019   1.178
19254TIP3    H257648   8.119   9.092   1.305
19255TIP3   OH257649   8.543   8.762   1.065
19255TIP3    H157650   8.609   8.693   1.059
19255TIP3    H257651   8.513   8.774   0.975
19256TIP3   OH257652   8.638   8.978   1.204
19256TIP3    H157653   8.607   8.905   1.151
19256TIP3    H257654   8.563   9.036   1.212
19257TIP3   OH257655   4.081   4.988   7.529
19257TIP3    H157656   4.172   5.012   7.512
19257TIP3    H257657   4.065   4.914   7.471
19258TIP3   OH257658   3.988   5.569   7.965
19258TIP3    H157659   3.925   5.516   7.917
19258TIP3    H257660   4.034   5.507   8.022
19259TIP3   OH257661   0.867   0.779   0.128
19259TIP3    H157662   0.858   0.711   0.195
19259TIP3    H257663   0.922   0.846   0.169
19260TIP3   OH257664   5.857   5.833   7.920
19260TIP3    H157665   5.889   5.862   8.005
19260TIP3    H257666   5.928   5.855   7.859
19261TIP3   OH257667   2.627   1.230   0.204
19261TIP3    H157668   2.582   1.146   0.196
19261TIP3    H257669   2.699   1.213   0.265
19262TIP3   OH257670   2.664   0.906   0.794
19262TIP3    H157671   2.590   0.916   0.853
19262TIP3    H257672   2.704   0.993   0.790
19263TIP3   OH257673   5.764   5.058   7.402
19263TIP3    H157674   5.823   5.126   7.368
19263TIP3    H257675   5.813   5.017   7.473
19264TIP3   OH257676   5.897   4.914   7.600
19264TIP3    H157677   5.831   4.872   7.655
19264TIP3    H257678   5.963   4.947   7.661
19265TIP3   OH257679   5.918   5.308   8.006
19265TIP3    H157680   5.982   5.240   7.986
19265TIP3    H257681   5.948   5.385   7.958
19266TIP3   OH257682   2.477   0.994   0.219
19266TIP3    H157683   2.425   1.031   0.290
19266TIP3    H257684   2.412   0.959   0.158
19267TIP3   OH257685   5.800   4.830   7.248
19267TIP3    H157686   5.729   4.828   7.183
19267TIP3    H257687   5.783   4.909   7.300
19268TIP3   OH257688   5.652   4.474   7.179
19268TIP3    H157689   5.606   4.507   7.102
19268TIP3    H257690   5.647   4.379   7.171
19269TIP3   OH257691   5.689   4.772   7.730
19269TIP3    H157692   5.695   4.678   7.713
19269TIP3    H257693   5.672   4.779   7.823
19270TIP3   OH257694   1.042   0.225   0.501
19270TIP3    H157695   1.030   0.187   0.414
19270TIP3    H257696   1.136   0.214   0.519
19271TIP3   OH257697   2.724   0.568   0.597
19271TIP3    H157698   2.787   0.499   0.579
19271TIP3    H257699   2.749   0.640   0.539
19272TIP3   OH257700   2.888   0.350   0.584
19272TIP3    H157701   2.813   0.309   0.627
19272TIP3    H257702   2.961   0.292   0.604
19273TIP3   OH257703   5.616   4.202   7.148
19273TIP3    H157704   5.682   4.176   7.212
19273TIP3    H257705   5.535   4.164   7.181
19274TIP3   OH257706   5.685   4.496   7.619
19274TIP3    H157707   5.730   4.412   7.632
19274TIP3    H257708   5.726   4.532   7.540
19275TIP3   OH257709   2.571   0.043   0.140
19275TIP3    H157710   2.652   0.060   0.092
19275TIP3    H257711   2.587   0.079   0.227
19276TIP3   OH257712   2.647   0.185   0.371
19276TIP3    H157713   2.574   0.212   0.427
19276TIP3    H257714   2.678   0.267   0.332
19277TIP3   OH257715   7.834   9.221   1.165
19277TIP3    H157716   7.924   9.210   1.195
19277TIP3    H257717   7.807   9.134   1.136
19278TIP3   OH257718   9.642   9.026   0.907
19278TIP3    H157719   9.709   8.971   0.866
19278TIP3    H257720   9.602   9.074   0.834
19279TIP3   OH257721   5.799   4.246   7.673
19279TIP3    H157722   5.844   4.231   7.756
19279TIP3    H257723   5.737   4.174   7.666
19280TIP3   OH257724   7.764   8.845   0.460
19280TIP3    H157725   7.820   8.769   0.471
19280TIP3    H257726   7.824   8.918   0.448
19281TIP3   OH257727   7.552   9.129   0.551
19281TIP3    H157728   7.602   9.119   0.469
19281TIP3    H257729   7.603   9.193   0.602
19282TIP3   OH257730   9.488   9.135   0.708
19282TIP3    H157731   9.403   9.174   0.728
19282TIP3    H257732   9.467   9.058   0.655
19283TIP3   OH257733   5.842   4.156   7.307
19283TIP3    H157734   5.891   4.095   7.252
19283TIP3    H257735   5.898   4.233   7.313
19284TIP3   OH257736   5.452   5.726   7.584
19284TIP3    H157737   5.486   5.699   7.499
19284TIP3    H257738   5.522   5.778   7.623
19285TIP3   OH257739   7.803   8.670   0.799
19285TIP3    H157740   7.771   8.688   0.887
19285TIP3    H257741   7.742   8.715   0.741
19286TIP3   OH257742   1.267   0.889   0.970
19286TIP3    H157743   1.173   0.877   0.954
19286TIP3    H257744   1.277   0.875   1.064
19287TIP3   OH257745   1.473   0.936   0.503
19287TIP3    H157746   1.418   1.009   0.473
19287TIP3    H257747   1.557   0.950   0.459
19288TIP3   OH257748   1.942   1.171   0.646
19288TIP3    H157749   1.949   1.155   0.740
19288TIP3    H257750   2.032   1.163   0.614
19289TIP3   OH257751   9.404   8.884   0.607
19289TIP3    H157752   9.315   8.870   0.574
19289TIP3    H257753   9.446   8.798   0.601
19290TIP3   OH257754   1.134   1.187   0.558
19290TIP3    H157755   1.042   1.203   0.538
19290TIP3    H257756   1.156   1.250   0.626
19291TIP3   OH257757   1.361   1.169   0.405
19291TIP3    H157758   1.278   1.174   0.453
19291TIP3    H257759   1.338   1.191   0.314
19292TIP3   OH257760   1.824   1.190   0.177
19292TIP3    H157761   1.737   1.201   0.137
19292TIP3    H257762   1.832   1.265   0.236
19293TIP3   OH257763   2.135   1.206   0.113
19293TIP3    H157764   2.164   1.290   0.151
19293TIP3    H257765   2.208   1.180   0.057
19294TIP3   OH257766   1.045   0.957   0.272
19294TIP3    H157767   1.072   0.931   0.360
19294TIP3    H257768   1.115   0.925   0.215
19295TIP3   OH257769   1.248   0.850   0.128
19295TIP3    H157770   1.261   0.765   0.170
19295TIP3    H257771   1.336   0.887   0.122
19296TIP3   OH257772   1.528   0.934   0.148
19296TIP3    H157773   1.540   0.840   0.135
19296TIP3    H257774   1.576   0.953   0.229
19297TIP3   OH257775   8.611   8.816   0.244
19297TIP3    H157776   8.568   8.745   0.292
19297TIP3    H257777   8.679   8.772   0.192
19298TIP3   OH257778   9.111   8.739   0.134
19298TIP3    H157779   9.145   8.788   0.058
19298TIP3    H257780   9.017   8.754   0.131
19299TIP3   OH257781   5.956   4.194   7.895
19299TIP3    H157782   6.025   4.132   7.870
19299TIP3    H257783   5.996   4.280   7.882
19300TIP3   OH257784   7.888   8.528   0.231
19300TIP3    H157785   7.799   8.519   0.198
19300TIP3    H257786   7.924   8.439   0.228
19301TIP3   OH257787   4.305   3.807   7.820
19301TIP3    H157788   4.383   3.839   7.775
19301TIP3    H257789   4.317   3.834   7.911
19302TIP3   OH257790   8.330   8.559   0.135
19302TIP3    H157791   8.378   8.605   0.067
19302TIP3    H257792   8.372   8.586   0.217
19303TIP3   OH257793   8.825   8.698   0.112
19303TIP3    H157794   8.839   8.662   0.024
19303TIP3    H257795   8.831   8.623   0.171
19304TIP3   OH257796   5.615   4.034   7.680
19304TIP3    H157797   5.535   4.080   7.706
19304TIP3    H257798   5.606   3.947   7.718
19305TIP3   OH257799   4.062   5.373   7.671
19305TIP3    H157800   3.975   5.343   7.644
19305TIP3    H257801   4.070   5.460   7.631
19306TIP3   OH257802   4.513   3.939   7.661
19306TIP3    H157803   4.558   3.876   7.605
19306TIP3    H257804   4.584   3.991   7.700
19307TIP3   OH257805   4.997   4.134   7.754
19307TIP3    H157806   5.055   4.081   7.808
19307TIP3    H257807   5.012   4.224   7.784
19308TIP3   OH257808   4.881   5.531   7.272
19308TIP3    H157809   4.958   5.548   7.219
19308TIP3    H257810   4.821   5.486   7.213
19309TIP3   OH257811   5.579   5.659   7.350
19309TIP3    H157812   5.573   5.564   7.339
19309TIP3    H257813   5.538   5.695   7.271
19310TIP3   OH257814   8.087   8.840   1.155
19310TIP3    H157815   8.070   8.758   1.108
19310TIP3    H257816   8.179   8.834   1.180
19311TIP3   OH257817   8.342   8.824   1.256
19311TIP3    H157818   8.414   8.794   1.201
19311TIP3    H257819   8.328   8.754   1.319
19312TIP3   OH257820   4.142   5.278   7.360
19312TIP3    H157821   4.133   5.301   7.452
19312TIP3    H257822   4.230   5.307   7.336
19313TIP3   OH257823   9.148   8.897   1.030
19313TIP3    H157824   9.165   8.868   1.120
19313TIP3    H257825   9.233   8.892   0.987
19314TIP3   OH257826   2.530   1.180   0.526
19314TIP3    H157827   2.500   1.152   0.612
19314TIP3    H257828   2.511   1.274   0.523
19315TIP3   OH257829   7.075   5.200   7.276
19315TIP3    H157830   7.043   5.287   7.252
19315TIP3    H257831   7.005   5.141   7.248
19316TIP3   OH257832   7.065   5.189   7.703
19316TIP3    H157833   7.121   5.173   7.779
19316TIP3    H257834   7.023   5.105   7.686
19317TIP3   OH257835   3.099   0.431   0.051
19317TIP3    H157836   3.138   0.377   0.120
19317TIP3    H257837   3.172   0.454  -0.006
19318TIP3   OH257838   7.336   5.497   7.374
19318TIP3    H157839   7.326   5.431   7.442
19318TIP3    H257840   7.357   5.577   7.421
19319TIP3   OH257841   6.347   5.473   7.739
19319TIP3    H157842   6.335   5.378   7.737
19319TIP3    H257843   6.442   5.485   7.731
19320TIP3   OH257844   6.044   4.685   7.513
19320TIP3    H157845   6.005   4.769   7.537
19320TIP3    H257846   5.972   4.636   7.474
19321TIP3   OH257847   6.124   4.998   7.749
19321TIP3    H157848   6.173   4.920   7.772
19321TIP3    H257849   6.190   5.061   7.722
19322TIP3   OH257850   7.009   5.915   7.404
19322TIP3    H157851   7.033   5.856   7.333
19322TIP3    H257852   7.026   5.865   7.484
19323TIP3   OH257853   6.875   5.410   7.710
19323TIP3    H157854   6.921   5.330   7.683
19323TIP3    H257855   6.945   5.469   7.738
19324TIP3   OH257856   7.915   4.739   7.713
19324TIP3    H157857   7.931   4.825   7.754
19324TIP3    H257858   7.947   4.749   7.624
19325TIP3   OH257859   7.282   4.898   7.739
19325TIP3    H157860   7.316   4.814   7.768
19325TIP3    H257861   7.246   4.882   7.652
19326TIP3   OH257862   6.640   4.557   7.700
19326TIP3    H157863   6.619   4.629   7.642
19326TIP3    H257864   6.585   4.485   7.669
19327TIP3   OH257865   7.337   4.660   7.336
19327TIP3    H157866   7.399   4.653   7.408
19327TIP3    H257867   7.388   4.694   7.263
19328TIP3   OH257868   6.265   4.773   7.830
19328TIP3    H157869   6.348   4.754   7.872
19328TIP3    H257870   6.267   4.723   7.749
19329TIP3   OH257871   6.681   4.973   7.650
19329TIP3    H157872   6.776   4.959   7.655
19329TIP3    H257873   6.646   4.891   7.616
19330TIP3   OH257874   7.968   4.960   7.883
19330TIP3    H157875   7.878   4.991   7.878
19330TIP3    H257876   8.001   4.994   7.966
19331TIP3   OH257877   0.089   9.181   0.149
19331TIP3    H157878   0.038   9.217   0.076
19331TIP3    H257879   0.033   9.196   0.226
19332TIP3   OH257880   6.967   5.418   7.141
19332TIP3    H157881   6.929   5.388   7.058
19332TIP3    H257882   6.916   5.495   7.165
19333TIP3   OH257883   6.714   5.335   7.922
19333TIP3    H157884   6.660   5.408   7.953
19333TIP3    H257885   6.764   5.371   7.850
19334TIP3   OH257886   7.493   4.684   7.558
19334TIP3    H157887   7.451   4.663   7.641
19334TIP3    H257888   7.551   4.758   7.578
19335TIP3   OH257889   6.511   4.668   7.920
19335TIP3    H157890   6.566   4.743   7.943
19335TIP3    H257891   6.558   4.625   7.849
19336TIP3   OH257892   3.289   0.922   0.020
19336TIP3    H157893   3.278   1.012  -0.011
19336TIP3    H257894   3.210   0.905   0.071
19337TIP3   OH257895   5.936   5.244   7.278
19337TIP3    H157896   5.904   5.260   7.189
19337TIP3    H257897   5.958   5.331   7.312
19338TIP3   OH257898   7.370   5.743   7.515
19338TIP3    H157899   7.282   5.740   7.552
19338TIP3    H257900   7.374   5.826   7.468
19339TIP3   OH257901   7.700   4.665   7.880
19339TIP3    H157902   7.618   4.671   7.831
19339TIP3    H257903   7.768   4.679   7.814
19340TIP3   OH257904   6.965   4.251   7.885
19340TIP3    H157905   6.956   4.159   7.908
19340TIP3    H257906   6.888   4.293   7.923
19341TIP3   OH257907   7.089   5.768   7.185
19341TIP3    H157908   7.140   5.689   7.166
19341TIP3    H257909   7.140   5.840   7.149
19342TIP3   OH257910   7.222   5.536   7.126
19342TIP3    H157911   7.145   5.480   7.131
19342TIP3    H257912   7.271   5.516   7.205
19343TIP3   OH257913   7.615   5.612   7.860
19343TIP3    H157914   7.590   5.542   7.800
19343TIP3    H257915   7.605   5.692   7.808
19344TIP3   OH257916   6.905   5.038   7.123
19344TIP3    H157917   6.821   5.080   7.106
19344TIP3    H257918   6.951   5.041   7.039
19345TIP3   OH257919   6.877   4.846   6.816
19345TIP3    H157920   6.944   4.894   6.865
19345TIP3    H257921   6.925   4.775   6.772
19346TIP3   OH257922   7.787   5.295   7.724
19346TIP3    H157923   7.701   5.337   7.719
19346TIP3    H257924   7.825   5.307   7.637
19347TIP3   OH257925   7.262   5.124   7.091
19347TIP3    H157926   7.208   5.155   7.164
19347TIP3    H257927   7.345   5.100   7.132
19348TIP3   OH257928   4.218   0.531   0.026
19348TIP3    H157929   4.213   0.615   0.071
19348TIP3    H257930   4.136   0.525  -0.024
19349TIP3   OH257931   6.486   5.106   7.494
19349TIP3    H157932   6.451   5.044   7.429
19349TIP3    H257933   6.558   5.059   7.535
19350TIP3   OH257934   6.615   5.524   7.642
19350TIP3    H157935   6.594   5.514   7.549
19350TIP3    H257936   6.703   5.489   7.652
19351TIP3   OH257937   6.576   5.103   7.871
19351TIP3    H157938   6.616   5.067   7.792
19351TIP3    H257939   6.626   5.183   7.888
19352TIP3   OH257940   7.126   5.746   7.642
19352TIP3    H157941   7.119   5.823   7.698
19352TIP3    H257942   7.115   5.672   7.701
19353TIP3   OH257943   3.487   1.011   0.193
19353TIP3    H157944   3.429   1.072   0.239
19353TIP3    H257945   3.429   0.963   0.134
19354TIP3   OH257946   7.103   4.989   6.911
19354TIP3    H157947   7.159   5.042   6.968
19354TIP3    H257948   7.133   5.010   6.823
19355TIP3   OH257949   3.246   0.576   0.338
19355TIP3    H157950   3.243   0.671   0.353
19355TIP3    H257951   3.154   0.551   0.328
19356TIP3   OH257952   6.835   5.660   7.174
19356TIP3    H157953   6.919   5.705   7.188
19356TIP3    H257954   6.781   5.724   7.127
19357TIP3   OH257955   3.276   1.178   0.266
19357TIP3    H157956   3.256   1.190   0.173
19357TIP3    H257957   3.191   1.167   0.307
19358TIP3   OH257958   7.597   4.214   6.976
19358TIP3    H157959   7.521   4.234   7.032
19358TIP3    H257960   7.606   4.291   6.920
19359TIP3   OH257961   6.363   4.946   7.293
19359TIP3    H157962   6.283   4.992   7.265
19359TIP3    H257963   6.334   4.856   7.309
19360TIP3   OH257964   7.427   5.603   6.527
19360TIP3    H157965   7.422   5.698   6.516
19360TIP3    H257966   7.513   5.579   6.492
19361TIP3   OH257967   2.871   0.731   0.222
19361TIP3    H157968   2.811   0.701   0.153
19361TIP3    H257969   2.912   0.651   0.254
19362TIP3   OH257970   6.050   5.522   7.871
19362TIP3    H157971   6.136   5.503   7.832
19362TIP3    H257972   6.066   5.598   7.927
19363TIP3   OH257973   7.837   5.987   7.913
19363TIP3    H157974   7.840   5.895   7.937
19363TIP3    H257975   7.754   6.019   7.948
19364TIP3   OH257976   3.672   1.150   0.045
19364TIP3    H157977   3.656   1.241   0.070
19364TIP3    H257978   3.608   1.100   0.096
19365TIP3   OH257979   6.731   5.875   7.012
19365TIP3    H157980   6.689   5.861   6.927
19365TIP3    H257981   6.699   5.960   7.042
19366TIP3   OH257982   6.158   5.739   7.387
19366TIP3    H157983   6.204   5.730   7.471
19366TIP3    H257984   6.112   5.656   7.376
19367TIP3   OH257985   6.932   5.805   6.631
19367TIP3    H157986   6.985   5.732   6.600
19367TIP3    H257987   6.966   5.824   6.718
19368TIP3   OH257988   6.985   5.860   6.898
19368TIP3    H157989   6.904   5.857   6.949
19368TIP3    H257990   7.055   5.852   6.964
19369TIP3   OH257991   4.461   0.482   0.169
19369TIP3    H157992   4.378   0.497   0.124
19369TIP3    H257993   4.479   0.389   0.156
19370TIP3   OH257994   3.068   0.923   0.188
19370TIP3    H157995   3.121   0.911   0.268
19370TIP3    H257996   2.997   0.860   0.196
19371TIP3   OH257997   0.192   8.963   0.007
19371TIP3    H157998   0.108   8.930  -0.024
19371TIP3    H257999   0.170   9.045   0.052
19372TIP3   OH258000   0.720   9.092   0.202
19372TIP3    H158001   0.790   9.068   0.263
19372TIP3    H258002   0.639   9.074   0.249
19373TIP3   OH258003   4.223   0.268   0.126
19373TIP3    H158004   4.179   0.264   0.211
19373TIP3    H258005   4.206   0.357   0.094
19374TIP3   OH258006   7.170   5.055   6.647
19374TIP3    H158007   7.123   5.024   6.570
19374TIP3    H258008   7.162   5.150   6.644
19375TIP3   OH258009   6.876   4.391   6.978
19375TIP3    H158010   6.840   4.398   7.067
19375TIP3    H258011   6.841   4.308   6.945
19376TIP3   OH258012   3.396   0.260   0.011
19376TIP3    H158013   3.354   0.267   0.097
19376TIP3    H258014   3.372   0.341  -0.033
19377TIP3   OH258015   6.543   4.758   7.540
19377TIP3    H158016   6.454   4.733   7.565
19377TIP3    H258017   6.553   4.726   7.451
19378TIP3   OH258018   7.023   4.832   7.264
19378TIP3    H158019   6.977   4.906   7.223
19378TIP3    H258020   7.082   4.800   7.197
19379TIP3   OH258021   3.946   0.470   0.323
19379TIP3    H158022   3.918   0.406   0.388
19379TIP3    H258023   4.040   0.479   0.337
19380TIP3   OH258024   7.190   4.845   7.488
19380TIP3    H158025   7.122   4.865   7.423
19380TIP3    H258026   7.239   4.772   7.449
19381TIP3   OH258027   3.231   0.267   0.235
19381TIP3    H158028   3.285   0.319   0.295
19381TIP3    H258029   3.214   0.185   0.283
19382TIP3   OH258030   6.544   4.368   6.956
19382TIP3    H158031   6.536   4.371   7.051
19382TIP3    H258032   6.465   4.411   6.924
19383TIP3   OH258033   6.092   4.414   7.819
19383TIP3    H158034   6.165   4.449   7.871
19383TIP3    H258035   6.131   4.392   7.735
19384TIP3   OH258036   5.994   4.389   7.323
19384TIP3    H158037   6.040   4.425   7.247
19384TIP3    H258038   5.930   4.457   7.346
19385TIP3   OH258039   7.233   5.099   7.912
19385TIP3    H158040   7.257   5.033   7.848
19385TIP3    H258041   7.188   5.050   7.981
19386TIP3   OH258042   6.910   4.547   7.589
19386TIP3    H158043   6.832   4.545   7.646
19386TIP3    H258044   6.983   4.537   7.650
19387TIP3   OH258045   6.304   4.632   7.598
19387TIP3    H158046   6.216   4.636   7.559
19387TIP3    H258047   6.332   4.542   7.583
19388TIP3   OH258048   6.557   4.637   7.294
19388TIP3    H158049   6.651   4.646   7.285
19388TIP3    H258050   6.523   4.654   7.206
19389TIP3   OH258051   7.355   4.637   7.796
19389TIP3    H158052   7.337   4.654   7.889
19389TIP3    H258053   7.288   4.573   7.770
19390TIP3   OH258054   6.447   4.661   7.043
19390TIP3    H158055   6.385   4.610   6.991
19390TIP3    H258056   6.502   4.705   6.978
19391TIP3   OH258057   7.530   6.345   7.928
19391TIP3    H158058   7.527   6.391   7.844
19391TIP3    H258059   7.613   6.372   7.967
19392TIP3   OH258060   3.216   0.843   0.421
19392TIP3    H158061   3.298   0.859   0.467
19392TIP3    H258062   3.149   0.847   0.489
19393TIP3   OH258063   6.955   4.920   7.695
19393TIP3    H158064   7.021   4.872   7.645
19393TIP3    H258065   6.953   4.876   7.780
19394TIP3   OH258066   6.446   4.383   7.586
19394TIP3    H158067   6.418   4.308   7.639
19394TIP3    H258068   6.470   4.346   7.501
19395TIP3   OH258069   6.927   4.817   7.955
19395TIP3    H158070   6.841   4.849   7.982
19395TIP3    H258071   6.988   4.867   8.010
19396TIP3   OH258072   6.664   5.168   7.073
19396TIP3    H158073   6.588   5.115   7.048
19396TIP3    H258074   6.637   5.211   7.155
19397TIP3   OH258075   7.550   5.424   7.673
19397TIP3    H158076   7.587   5.475   7.601
19397TIP3    H258077   7.471   5.385   7.637
19398TIP3   OH258078   7.129   4.493   6.980
19398TIP3    H158079   7.036   4.472   6.978
19398TIP3    H258080   7.132   4.588   6.994
19399TIP3   OH258081   3.803   0.883   0.089
19399TIP3    H158082   3.864   0.870   0.162
19399TIP3    H258083   3.772   0.973   0.100
19400TIP3   OH258084   7.188   4.757   7.050
19400TIP3    H158085   7.283   4.759   7.064
19400TIP3    H258086   7.171   4.834   6.995
19401TIP3   OH258087   6.347   5.186   7.721
19401TIP3    H158088   6.387   5.168   7.635
19401TIP3    H258089   6.414   5.158   7.784
19402TIP3   OH258090   6.816   5.332   6.918
19402TIP3    H158091   6.768   5.414   6.914
19402TIP3    H258092   6.761   5.274   6.971
19403TIP3   OH258093   2.970   0.511   0.361
19403TIP3    H158094   2.985   0.484   0.452
19403TIP3    H258095   2.898   0.456   0.331
19404TIP3   OH258096   3.720   0.631   0.360
19404TIP3    H158097   3.663   0.600   0.289
19404TIP3    H258098   3.804   0.590   0.343
19405TIP3   OH258099   7.204   5.798   7.962
19405TIP3    H158100   7.110   5.780   7.964
19405TIP3    H258101   7.222   5.839   8.047
19406TIP3   OH258102   7.602   4.848   6.871
19406TIP3    H158103   7.543   4.801   6.812
19406TIP3    H258104   7.609   4.936   6.834
19407TIP3   OH258105   7.854   5.717   7.954
19407TIP3    H158106   7.763   5.690   7.966
19407TIP3    H258107   7.877   5.688   7.866
19408TIP3   OH258108   7.336   5.665   6.796
19408TIP3    H158109   7.316   5.596   6.859
19408TIP3    H258110   7.358   5.619   6.715
19409TIP3   OH258111   7.322   5.293   7.573
19409TIP3    H158112   7.232   5.272   7.598
19409TIP3    H258113   7.356   5.212   7.537
19410TIP3   OH258114   6.485   5.533   7.393
19410TIP3    H158115   6.487   5.609   7.336
19410TIP3    H258116   6.392   5.522   7.414
19411TIP3   OH258117   6.038   4.816   7.107
19411TIP3    H158118   6.082   4.898   7.129
19411TIP3    H258119   5.958   4.817   7.159
19412TIP3   OH258120   6.562   5.286   7.294
19412TIP3    H158121   6.551   5.376   7.325
19412TIP3    H258122   6.538   5.231   7.368
19413TIP3   OH258123   6.759   5.851   7.841
19413TIP3    H158124   6.796   5.923   7.790
19413TIP3    H258125   6.834   5.816   7.891
19414TIP3   OH258126   6.396   5.754   7.243
19414TIP3    H158127   6.309   5.764   7.282
19414TIP3    H258128   6.434   5.842   7.247
19415TIP3   OH258129   7.110   5.521   7.816
19415TIP3    H158130   7.094   5.512   7.910
19415TIP3    H258131   7.194   5.478   7.802
19416TIP3   OH258132   7.127   5.349   6.662
19416TIP3    H158133   7.169   5.341   6.748
19416TIP3    H258134   7.034   5.333   6.680
19417TIP3   OH258135   7.377   5.985   7.838
19417TIP3    H158136   7.300   5.934   7.862
19417TIP3    H258137   7.344   6.050   7.776
19418TIP3   OH258138   7.434   5.884   6.504
19418TIP3    H158139   7.478   5.963   6.472
19418TIP3    H258140   7.351   5.916   6.540
19419TIP3   OH258141   9.717   9.255   0.356
19419TIP3    H158142   9.622   9.265   0.361
19419TIP3    H258143   9.739   9.197   0.430
19420TIP3   OH258144   7.292   5.295   6.873
19420TIP3    H158145   7.276   5.248   6.954
19420TIP3    H258146   7.386   5.309   6.871
19421TIP3   OH258147   2.910   1.125   0.011
19421TIP3    H158148   2.968   1.072   0.066
19421TIP3    H258149   2.922   1.215   0.041
19422TIP3   OH258150   6.462   5.360   6.704
19422TIP3    H158151   6.472   5.268   6.678
19422TIP3    H258152   6.448   5.357   6.798
19423TIP3   OH258153   6.402   5.377   6.977
19423TIP3    H158154   6.466   5.352   7.043
19423TIP3    H258155   6.400   5.472   6.980
19424TIP3   OH258156   6.134   5.066   7.188
19424TIP3    H158157   6.070   5.115   7.239
19424TIP3    H258158   6.155   5.124   7.114
19425TIP3   OH258159   4.028   0.082   0.056
19425TIP3    H158160   4.108   0.123   0.089
19425TIP3    H258161   4.016   0.004   0.110
19426TIP3   OH258162   7.189   4.441   7.248
19426TIP3    H158163   7.170   4.460   7.156
19426TIP3    H258164   7.234   4.520   7.280
19427TIP3   OH258165   6.668   5.558   6.909
19427TIP3    H158166   6.585   5.584   6.949
19427TIP3    H258167   6.697   5.635   6.860
19428TIP3   OH258168   6.836   4.644   7.339
19428TIP3    H158169   6.898   4.711   7.313
19428TIP3    H258170   6.861   4.622   7.429
19429TIP3   OH258171   3.865   0.310   0.103
19429TIP3    H158172   3.892   0.353   0.184
19429TIP3    H258173   3.917   0.230   0.099
19430TIP3   OH258174   7.003   4.336   7.425
19430TIP3    H158175   6.981   4.413   7.477
19430TIP3    H258176   7.074   4.365   7.367
19431TIP3   OH258177   6.420   5.649   6.991
19431TIP3    H158178   6.403   5.720   6.930
19431TIP3    H258179   6.411   5.689   7.078
19432TIP3   OH258180   6.516   4.363   7.235
19432TIP3    H158181   6.504   4.453   7.264
19432TIP3    H258182   6.610   4.347   7.241
19433TIP3   OH258183   4.486   0.209   0.103
19433TIP3    H158184   4.393   0.216   0.121
19433TIP3    H258185   4.491   0.155   0.024
19434TIP3   OH258186   7.417   5.036   7.489
19434TIP3    H158187   7.341   4.979   7.501
19434TIP3    H258188   7.485   4.998   7.544
19435TIP3   OH258189   6.160   5.241   6.970
19435TIP3    H158190   6.231   5.305   6.978
19435TIP3    H258191   6.191   5.179   6.905
19436TIP3   OH258192   6.063   4.538   7.103
19436TIP3    H158193   6.075   4.633   7.111
19436TIP3    H258194   6.008   4.527   7.026
19437TIP3   OH258195   7.393   6.003   7.418
19437TIP3    H158196   7.349   6.054   7.349
19437TIP3    H258197   7.486   6.020   7.404
19438TIP3   OH258198   6.462   4.258   7.973
19438TIP3    H158199   6.433   4.225   7.888
19438TIP3    H258200   6.454   4.183   8.032
19439TIP3   OH258201   5.982   5.516   7.360
19439TIP3    H158202   5.940   5.552   7.438
19439TIP3    H258203   5.939   5.559   7.286
19440TIP3   OH258204   2.929   1.432   0.437
19440TIP3    H158205   3.008   1.446   0.489
19440TIP3    H258206   2.931   1.339   0.415
19441TIP3   OH258207   3.383   1.335   0.463
19441TIP3    H158208   3.468   1.293   0.480
19441TIP3    H258209   3.348   1.289   0.388
19442TIP3   OH258210   6.613   5.564   6.593
19442TIP3    H158211   6.568   5.494   6.639
19442TIP3    H258212   6.688   5.521   6.552
19443TIP3   OH258213   3.973   1.274   0.212
19443TIP3    H158214   3.990   1.198   0.268
19443TIP3    H258215   4.050   1.330   0.223
19444TIP3   OH258216   7.065   5.588   6.518
19444TIP3    H158217   7.106   5.519   6.569
19444TIP3    H258218   7.120   5.596   6.440
19445TIP3   OH258219   3.013   0.832   0.612
19445TIP3    H158220   3.039   0.741   0.623
19445TIP3    H258221   2.926   0.827   0.572
19446TIP3   OH258222   6.281   5.053   6.813
19446TIP3    H158223   6.332   5.028   6.891
19446TIP3    H258224   6.347   5.067   6.745
19447TIP3   OH258225   3.640   0.900   0.395
19447TIP3    H158226   3.599   0.923   0.312
19447TIP3    H258227   3.681   0.815   0.378
19448TIP3   OH258228   6.859   5.273   6.654
19448TIP3    H158229   6.834   5.286   6.746
19448TIP3    H258230   6.836   5.182   6.636
19449TIP3   OH258231   7.374   5.579   7.998
19449TIP3    H158232   7.457   5.605   7.959
19449TIP3    H258233   7.314   5.651   7.980
19450TIP3   OH258234   3.134   0.582   0.617
19450TIP3    H158235   3.209   0.565   0.560
19450TIP3    H258236   3.172   0.593   0.704
19451TIP3   OH258237   6.453   4.994   7.026
19451TIP3    H158238   6.433   4.965   7.115
19451TIP3    H258239   6.503   4.923   6.987
19452TIP3   OH258240   3.470   0.430   0.267
19452TIP3    H158241   3.402   0.493   0.293
19452TIP3    H258242   3.519   0.475   0.198
19453TIP3   OH258243   6.601   4.814   6.873
19453TIP3    H158244   6.572   4.818   6.782
19453TIP3    H258245   6.697   4.821   6.867
19454TIP3   OH258246   3.998   0.796   0.337
19454TIP3    H158247   4.073   0.763   0.286
19454TIP3    H258248   3.991   0.736   0.411
19455TIP3   OH258249   7.455   5.092   6.467
19455TIP3    H158250   7.378   5.048   6.503
19455TIP3    H258251   7.431   5.185   6.467
19456TIP3   OH258252   3.605   0.225   0.390
19456TIP3    H158253   3.612   0.153   0.327
19456TIP3    H258254   3.564   0.296   0.340
19457TIP3   OH258255   3.613   0.029   0.186
19457TIP3    H158256   3.642   0.063   0.102
19457TIP3    H258257   3.523   0.001   0.171
19458TIP3   OH258258   3.618   0.578   0.091
19458TIP3    H158259   3.706   0.601   0.061
19458TIP3    H258260   3.559   0.627   0.033
19459TIP3   OH258261   4.216   0.502   0.418
19459TIP3    H158262   4.261   0.418   0.424
19459TIP3    H258263   4.286   0.567   0.416
19460TIP3   OH258264   4.226   0.776   0.157
19460TIP3    H158265   4.172   0.840   0.110
19460TIP3    H258266   4.315   0.791   0.126
19461TIP3   OH258267   3.486   0.304   0.631
19461TIP3    H158268   3.419   0.238   0.650
19461TIP3    H258269   3.518   0.282   0.543
19462TIP3   OH258270   0.463   9.038   0.292
19462TIP3    H158271   0.422   9.118   0.257
19462TIP3    H258272   0.397   8.970   0.277
19463TIP3   OH258273   3.860   0.271   0.493
19463TIP3    H158274   3.851   0.259   0.588
19463TIP3    H258275   3.773   0.249   0.458
19464TIP3   OH258276   4.102   0.219   0.361
19464TIP3    H158277   4.026   0.218   0.419
19464TIP3    H258278   4.175   0.188   0.415
19465TIP3   OH258279   4.343   0.171   0.492
19465TIP3    H158280   4.356   0.076   0.501
19465TIP3    H258281   4.335   0.202   0.582
19466TIP3   OH258282   3.321   0.088   0.696
19466TIP3    H158283   3.328   0.000   0.658
19466TIP3    H258284   3.359   0.078   0.783
19467TIP3   OH258285   0.524   9.015   0.557
19467TIP3    H158286   0.596   8.952   0.553
19467TIP3    H258287   0.497   9.027   0.466
19468TIP3   OH258288   0.627   9.226   0.700
19468TIP3    H158289   0.595   9.154   0.646
19468TIP3    H258290   0.555   9.288   0.702
19469TIP3   OH258291   6.419   5.855   6.806
19469TIP3    H158292   6.510   5.838   6.782
19469TIP3    H258293   6.383   5.901   6.731
19470TIP3   OH258294   5.887   5.241   6.989
19470TIP3    H158295   5.982   5.252   6.983
19470TIP3    H258296   5.870   5.157   6.947
19471TIP3   OH258297   5.778   5.820   7.455
19471TIP3    H158298   5.720   5.763   7.404
19471TIP3    H258299   5.828   5.760   7.511
19472TIP3   OH258300   5.931   5.655   7.619
19472TIP3    H158301   5.928   5.587   7.686
19472TIP3    H258302   5.983   5.725   7.658
19473TIP3   OH258303   7.663   6.053   7.401
19473TIP3    H158304   7.690   6.067   7.492
19473TIP3    H258305   7.730   6.097   7.349
19474TIP3   OH258306   7.735   6.043   7.662
19474TIP3    H158307   7.677   5.968   7.672
19474TIP3    H258308   7.784   6.046   7.744
19475TIP3   OH258309   4.393   1.099   0.195
19475TIP3    H158310   4.336   1.112   0.271
19475TIP3    H258311   4.438   1.183   0.185
19476TIP3   OH258312   7.573   5.310   6.873
19476TIP3    H158313   7.630   5.384   6.850
19476TIP3    H258314   7.615   5.272   6.951
19477TIP3   OH258315   7.695   5.169   7.081
19477TIP3    H158316   7.629   5.133   7.140
19477TIP3    H258317   7.761   5.208   7.139
19478TIP3   OH258318   7.738   5.565   7.519
19478TIP3    H158319   7.790   5.499   7.475
19478TIP3    H258320   7.743   5.642   7.463
19479TIP3   OH258321   7.557   5.831   7.703
19479TIP3    H158322   7.494   5.886   7.749
19479TIP3    H258323   7.508   5.794   7.630
19480TIP3   OH258324   7.602   5.083   6.722
19480TIP3    H158325   7.545   5.093   6.646
19480TIP3    H258326   7.585   5.161   6.775
19481TIP3   OH258327   7.451   4.733   6.675
19481TIP3    H158328   7.462   4.769   6.587
19481TIP3    H258329   7.433   4.640   6.661
19482TIP3   OH258330   7.491   5.030   7.221
19482TIP3    H158331   7.497   4.936   7.208
19482TIP3    H258332   7.472   5.041   7.315
19483TIP3   OH258333   6.105   5.106   8.001
19483TIP3    H158334   6.095   5.066   7.914
19483TIP3    H258335   6.198   5.096   8.022
19484TIP3   OH258336   4.478   0.811   0.058
19484TIP3    H158337   4.551   0.752   0.038
19484TIP3    H258338   4.467   0.862  -0.022
19485TIP3   OH258339   4.674   0.615   0.060
19485TIP3    H158340   4.603   0.569   0.103
19485TIP3    H258341   4.753   0.570   0.090
19486TIP3   OH258342   7.410   4.462   6.631
19486TIP3    H158343   7.477   4.437   6.695
19486TIP3    H258344   7.329   4.423   6.664
19487TIP3   OH258345   7.477   4.751   7.107
19487TIP3    H158346   7.522   4.668   7.118
19487TIP3    H258347   7.520   4.792   7.032
19488TIP3   OH258348   7.633   4.915   7.628
19488TIP3    H158349   7.714   4.933   7.579
19488TIP3    H258350   7.649   4.954   7.714
19489TIP3   OH258351   7.706   5.065   7.854
19489TIP3    H158352   7.630   5.093   7.906
19489TIP3    H258353   7.737   5.145   7.812
19490TIP3   OH258354   3.058   0.141   0.633
19490TIP3    H158355   3.152   0.137   0.651
19490TIP3    H258356   3.024   0.060   0.670
19491TIP3   OH258357   4.903   0.048   0.392
19491TIP3    H158358   4.963  -0.013   0.350
19491TIP3    H258359   4.863   0.097   0.320
19492TIP3   OH258360   7.593   4.503   7.153
19492TIP3    H158361   7.641   4.490   7.235
19492TIP3    H258362   7.532   4.429   7.149
19493TIP3   OH258363   6.302   4.485   7.990
19493TIP3    H158364   6.354   4.405   7.996
19493TIP3    H258365   6.366   4.554   7.969
19494TIP3   OH258366   2.817   0.130   0.044
19494TIP3    H158367   2.865   0.122  -0.038
19494TIP3    H258368   2.867   0.192   0.097
19495TIP3   OH258369   4.751   0.160   0.193
19495TIP3    H158370   4.662   0.194   0.205
19495TIP3    H258371   4.739   0.079   0.143
19496TIP3   OH258372   7.633   4.416   6.791
19496TIP3    H158373   7.683   4.355   6.737
19496TIP3    H258374   7.690   4.493   6.798
19497TIP3   OH258375   6.071   4.263   7.553
19497TIP3    H158376   5.985   4.248   7.593
19497TIP3    H258377   6.051   4.315   7.474
19498TIP3   OH258378   7.211   5.971   7.057
19498TIP3    H158379   7.273   5.967   6.985
19498TIP3    H258380   7.244   6.040   7.114
19499TIP3   OH258381   9.565   8.943   0.380
19499TIP3    H158382   9.510   8.927   0.457
19499TIP3    H258383   9.507   8.987   0.318
19500TIP3   OH258384   3.045   1.163   0.426
19500TIP3    H158385   2.955   1.131   0.423
19500TIP3    H258386   3.074   1.145   0.516
19501TIP3   OH258387   6.531   5.817   7.988
19501TIP3    H158388   6.478   5.888   7.952
19501TIP3    H258389   6.616   5.827   7.946
19502TIP3   OH258390   3.620   1.416   0.107
19502TIP3    H158391   3.658   1.410   0.195
19502TIP3    H258392   3.685   1.465   0.057
19503TIP3   OH258393   7.076   6.170   7.970
19503TIP3    H158394   7.106   6.115   7.898
19503TIP3    H258395   7.156   6.207   8.008
19504TIP3   OH258396   1.426   9.143   0.102
19504TIP3    H158397   1.336   9.120   0.079
19504TIP3    H258398   1.475   9.062   0.091
19505TIP3   OH258399   2.919   1.410   0.040
19505TIP3    H158400   2.831   1.437   0.012
19505TIP3    H258401   2.946   1.478   0.102
19506TIP3   OH258402   6.408   6.034   7.876
19506TIP3    H158403   6.326   6.040   7.925
19506TIP3    H258404   6.389   6.074   7.792
19507TIP3   OH258405   6.833   6.058   7.675
19507TIP3    H158406   6.766   6.065   7.607
19507TIP3    H258407   6.837   6.145   7.714
19508TIP3   OH258408   7.095   6.006   7.740
19508TIP3    H158409   7.007   6.021   7.705
19508TIP3    H258410   7.152   6.060   7.687
19509TIP3   OH258411   7.295   6.154   7.629
19509TIP3    H158412   7.297   6.245   7.597
19509TIP3    H258413   7.332   6.103   7.557
19510TIP3   OH258414   6.100   5.837   7.760
19510TIP3    H158415   6.127   5.813   7.849
19510TIP3    H258416   6.173   5.807   7.704
19511TIP3   OH258417   6.303   5.719   7.621
19511TIP3    H158418   6.316   5.634   7.664
19511TIP3    H258419   6.389   5.761   7.624
19512TIP3   OH258420   6.569   5.804   7.643
19512TIP3    H158421   6.591   5.712   7.629
19512TIP3    H258422   6.625   5.832   7.716
19513TIP3   OH258423   7.135   4.454   7.728
19513TIP3    H158424   7.100   4.381   7.778
19513TIP3    H258425   7.202   4.415   7.672
19514TIP3   OH258426   7.636   4.374   7.601
19514TIP3    H158427   7.678   4.422   7.530
19514TIP3    H258428   7.547   4.409   7.605
19515TIP3   OH258429   7.756   4.459   7.370
19515TIP3    H158430   7.824   4.396   7.348
19515TIP3    H258431   7.798   4.544   7.358
19516TIP3   OH258432   6.375   4.156   7.731
19516TIP3    H158433   6.286   4.121   7.741
19516TIP3    H258434   6.430   4.078   7.721
19517TIP3   OH258435   6.193   4.068   7.382
19517TIP3    H158436   6.221   4.117   7.305
19517TIP3    H258437   6.160   4.135   7.442
19518TIP3   OH258438   6.857   4.196   7.624
19518TIP3    H158439   6.907   4.241   7.555
19518TIP3    H258440   6.900   4.223   7.705
19519TIP3   OH258441   7.344   4.345   7.584
19519TIP3    H158442   7.373   4.310   7.500
19519TIP3    H258443   7.350   4.271   7.645
19520TIP3   OH258444   7.409   4.291   7.164
19520TIP3    H158445   7.330   4.337   7.190
19520TIP3    H258446   7.401   4.204   7.203
19521TIP3   OH258447   5.862   5.642   7.147
19521TIP3    H158448   5.781   5.611   7.106
19521TIP3    H258449   5.871   5.732   7.116
19522TIP3   OH258450   6.305   4.196   7.144
19522TIP3    H158451   6.351   4.133   7.089
19522TIP3    H258452   6.374   4.251   7.181
19523TIP3   OH258453   6.791   4.391   7.242
19523TIP3    H158454   6.850   4.338   7.295
19523TIP3    H258455   6.806   4.481   7.272
19524TIP3   OH258456   6.678   5.786   6.740
19524TIP3    H158457   6.761   5.812   6.702
19524TIP3    H258458   6.646   5.716   6.683
19525TIP3   OH258459   7.370   5.935   6.832
19525TIP3    H158460   7.363   5.840   6.824
19525TIP3    H258461   7.327   5.969   6.753
19526TIP3   OH258462   0.073   9.060   0.607
19526TIP3    H158463   0.039   8.993   0.667
19526TIP3    H258464   0.165   9.068   0.631
19527TIP3   OH258465   0.317   9.066   0.735
19527TIP3    H158466   0.392   9.046   0.680
19527TIP3    H258467   0.315   8.996   0.800
19528TIP3   OH258468   5.986   5.627   6.796
19528TIP3    H158469   5.992   5.642   6.891
19528TIP3    H258470   6.066   5.580   6.774
19529TIP3   OH258471   1.138   9.142   0.508
19529TIP3    H158472   1.154   9.113   0.597
19529TIP3    H258473   1.224   9.140   0.466
19530TIP3   OH258474   7.585   6.082   7.986
19530TIP3    H158475   7.517   6.028   7.946
19530TIP3    H258476   7.567   6.171   7.956
19531TIP3   OH258477   8.894   5.496   6.770
19531TIP3    H158478   8.846   5.567   6.727
19531TIP3    H258479   8.835   5.421   6.766
19532TIP3   OH258480   8.821   5.447   7.227
19532TIP3    H158481   8.896   5.420   7.280
19532TIP3    H258482   8.784   5.365   7.194
19533TIP3   OH258483   8.166   5.305   7.533
19533TIP3    H158484   8.206   5.249   7.600
19533TIP3    H258485   8.238   5.329   7.476
19534TIP3   OH258486   9.069   5.713   6.909
19534TIP3    H158487   9.032   5.625   6.906
19534TIP3    H258488   9.064   5.744   6.818
19535TIP3   OH258489   8.151   5.737   7.223
19535TIP3    H158490   8.130   5.643   7.222
19535TIP3    H258491   8.243   5.741   7.199
19536TIP3   OH258492   7.844   4.943   7.000
19536TIP3    H158493   7.807   5.027   7.026
19536TIP3    H258494   7.769   4.893   6.965
19537TIP3   OH258495   7.923   5.255   7.223
19537TIP3    H158496   7.975   5.179   7.248
19537TIP3    H258497   7.987   5.322   7.201
19538TIP3   OH258498   8.779   6.204   6.869
19538TIP3    H158499   8.813   6.131   6.817
19538TIP3    H258500   8.768   6.168   6.957
19539TIP3   OH258501   8.652   5.670   7.182
19539TIP3    H158502   8.692   5.584   7.172
19539TIP3    H258503   8.723   5.727   7.212
19540TIP3   OH258504   9.664   5.001   7.237
19540TIP3    H158505   9.687   5.087   7.271
19540TIP3    H258506   9.684   5.006   7.143
19541TIP3   OH258507   9.089   5.160   7.211
19541TIP3    H158508   9.128   5.080   7.246
19541TIP3    H258509   9.037   5.132   7.136
19542TIP3   OH258510   8.438   4.813   7.186
19542TIP3    H158511   8.416   4.885   7.128
19542TIP3    H258512   8.382   4.741   7.157
19543TIP3   OH258513   9.130   4.920   6.830
19543TIP3    H158514   9.195   4.913   6.901
19543TIP3    H258515   9.179   4.959   6.757
19544TIP3   OH258516   8.063   5.033   7.316
19544TIP3    H158517   8.146   5.014   7.360
19544TIP3    H258518   8.066   4.981   7.235
19545TIP3   OH258519   8.479   5.225   7.136
19545TIP3    H158520   8.574   5.208   7.141
19545TIP3    H258521   8.443   5.144   7.100
19546TIP3   OH258522   9.735   5.226   7.386
19546TIP3    H158523   9.646   5.262   7.379
19546TIP3    H258524   9.769   5.262   7.468
19547TIP3   OH258525   8.418   4.822   7.639
19547TIP3    H158526   8.368   4.856   7.565
19547TIP3    H258527   8.362   4.836   7.715
19548TIP3   OH258528   8.767   5.682   6.612
19548TIP3    H158529   8.723   5.647   6.535
19548TIP3    H258530   8.709   5.751   6.644
19549TIP3   OH258531   8.503   5.595   7.401
19549TIP3    H158532   8.449   5.665   7.439
19549TIP3    H258533   8.544   5.634   7.324
19550TIP3   OH258534   9.293   4.930   7.048
19550TIP3    H158535   9.256   4.916   7.135
19550TIP3    H258536   9.352   5.005   7.058
19551TIP3   OH258537   8.310   4.926   7.407
19551TIP3    H158538   8.366   5.001   7.429
19551TIP3    H258539   8.356   4.882   7.335
19552TIP3   OH258540   8.354   5.798   7.510
19552TIP3    H158541   8.340   5.887   7.477
19552TIP3    H258542   8.273   5.778   7.558
19553TIP3   OH258543   7.742   5.512   6.770
19553TIP3    H158544   7.683   5.580   6.738
19553TIP3    H258545   7.825   5.558   6.785
19554TIP3   OH258546   9.187   6.015   7.001
19554TIP3    H158547   9.108   6.054   7.037
19554TIP3    H258548   9.217   6.079   6.936
19555TIP3   OH258549   9.477   4.870   7.392
19555TIP3    H158550   9.390   4.884   7.355
19555TIP3    H258551   9.537   4.907   7.326
19556TIP3   OH258552   8.758   4.510   7.374
19556TIP3    H158553   8.751   4.418   7.399
19556TIP3    H258554   8.680   4.551   7.412
19557TIP3   OH258555   8.887   6.026   6.689
19557TIP3    H158556   8.936   5.945   6.680
19557TIP3    H258557   8.940   6.092   6.643
19558TIP3   OH258558   9.017   5.786   6.646
19558TIP3    H158559   8.930   5.748   6.634
19558TIP3    H258560   9.067   5.755   6.571
19559TIP3   OH258561   9.362   5.867   7.233
19559TIP3    H158562   9.453   5.842   7.220
19559TIP3    H258563   9.364   5.962   7.241
19560TIP3   OH258564   8.721   5.312   6.630
19560TIP3    H158565   8.635   5.350   6.616
19560TIP3    H258566   8.759   5.303   6.542
19561TIP3   OH258567   8.668   5.111   6.292
19561TIP3    H158568   8.732   5.157   6.347
19561TIP3    H258569   8.719   5.043   6.248
19562TIP3   OH258570   9.565   5.535   7.209
19562TIP3    H158571   9.551   5.623   7.245
19562TIP3    H258572   9.589   5.550   7.118
19563TIP3   OH258573   9.056   5.407   6.563
19563TIP3    H158574   9.007   5.437   6.639
19563TIP3    H258575   9.134   5.366   6.599
19564TIP3   OH258576   9.273   5.402   7.518
19564TIP3    H158577   9.280   5.489   7.557
19564TIP3    H258578   9.190   5.404   7.470
19565TIP3   OH258579   8.281   5.360   6.986
19565TIP3    H158580   8.246   5.304   6.917
19565TIP3    H258581   8.354   5.311   7.023
19566TIP3   OH258582   8.402   5.787   7.107
19566TIP3    H158583   8.371   5.772   7.017
19566TIP3    H258584   8.487   5.743   7.111
19567TIP3   OH258585   8.375   5.356   7.356
19567TIP3    H158586   8.414   5.320   7.276
19567TIP3    H258587   8.422   5.439   7.370
19568TIP3   OH258588   8.975   5.931   7.144
19568TIP3    H158589   8.935   6.016   7.164
19568TIP3    H258590   8.940   5.872   7.211
19569TIP3   OH258591   8.551   5.901   7.674
19569TIP3    H158592   8.490   5.961   7.717
19569TIP3    H258593   8.495   5.848   7.616
19570TIP3   OH258594   8.891   5.247   6.409
19570TIP3    H158595   8.949   5.308   6.455
19570TIP3    H258596   8.917   5.254   6.317
19571TIP3   OH258597   8.307   5.427   7.815
19571TIP3    H158598   8.315   5.522   7.825
19571TIP3    H258599   8.214   5.412   7.802
19572TIP3   OH258600   8.633   5.911   6.678
19572TIP3    H158601   8.710   5.968   6.685
19572TIP3    H258602   8.570   5.961   6.627
19573TIP3   OH258603   8.333   6.052   7.755
19573TIP3    H158604   8.313   6.064   7.662
19573TIP3    H258605   8.249   6.034   7.796
19574TIP3   OH258606   9.363   4.473   6.470
19574TIP3    H158607   9.291   4.495   6.528
19574TIP3    H258608   9.382   4.555   6.423
19575TIP3   OH258609   8.158   5.207   6.781
19575TIP3    H158610   8.083   5.259   6.752
19575TIP3    H258611   8.121   5.120   6.800
19576TIP3   OH258612   7.933   5.611   7.716
19576TIP3    H158613   7.865   5.594   7.651
19576TIP3    H258614   7.969   5.524   7.736
19577TIP3   OH258615   7.785   5.801   7.378
19577TIP3    H158616   7.871   5.836   7.399
19577TIP3    H258617   7.725   5.875   7.390
19578TIP3   OH258618   8.757   6.009   7.527
19578TIP3    H158619   8.766   6.102   7.548
19578TIP3    H258620   8.684   5.979   7.580
19579TIP3   OH258621   8.519   6.149   6.500
19579TIP3    H158622   8.445   6.115   6.451
19579TIP3    H258623   8.490   6.235   6.531
19580TIP3   OH258624   7.964   5.967   6.849
19580TIP3    H158625   7.998   5.960   6.938
19580TIP3    H258626   7.962   5.877   6.817
19581TIP3   OH258627   8.736   6.037   6.132
19581TIP3    H158628   8.780   5.953   6.144
19581TIP3    H258629   8.750   6.084   6.214
19582TIP3   OH258630   8.771   6.124   6.391
19582TIP3    H158631   8.685   6.125   6.434
19582TIP3    H258632   8.833   6.110   6.462
19583TIP3   OH258633   9.530   5.376   7.648
19583TIP3    H158634   9.446   5.388   7.605
19583TIP3    H258635   9.545   5.281   7.646
19584TIP3   OH258636   8.131   5.798   7.674
19584TIP3    H158637   8.183   5.788   7.754
19584TIP3    H258638   8.059   5.736   7.684
19585TIP3   OH258639   8.522   4.603   7.497
19585TIP3    H158640   8.438   4.568   7.467
19585TIP3    H258641   8.499   4.683   7.544
19586TIP3   OH258642   9.062   4.729   7.697
19586TIP3    H158643   9.132   4.699   7.755
19586TIP3    H258644   8.982   4.709   7.744
19587TIP3   OH258645   9.276   5.143   7.620
19587TIP3    H158646   9.245   5.150   7.710
19587TIP3    H258647   9.266   5.231   7.584
19588TIP3   OH258648   8.967   5.260   6.149
19588TIP3    H158649   8.918   5.244   6.068
19588TIP3    H258650   9.045   5.308   6.122
19589TIP3   OH258651   8.671   4.645   6.464
19589TIP3    H158652   8.635   4.652   6.553
19589TIP3    H258653   8.637   4.563   6.431
19590TIP3   OH258654   8.463   5.137   7.503
19590TIP3    H158655   8.417   5.141   7.587
19590TIP3    H258656   8.439   5.218   7.458
19591TIP3   OH258657   8.341   5.012   7.025
19591TIP3    H158658   8.252   4.989   7.050
19591TIP3    H258659   8.349   4.981   6.935
19592TIP3   OH258660   8.817   5.086   6.752
19592TIP3    H158661   8.779   5.166   6.716
19592TIP3    H258662   8.875   5.055   6.684
19593TIP3   OH258663   8.989   5.352   7.813
19593TIP3    H158664   8.973   5.285   7.880
19593TIP3    H258665   9.078   5.383   7.830
19594TIP3   OH258666   8.955   5.074   6.991
19594TIP3    H158667   8.897   5.095   6.918
19594TIP3    H258668   9.020   5.015   6.953
19595TIP3   OH258669   8.299   5.145   7.724
19595TIP3    H158670   8.305   5.211   7.793
19595TIP3    H258671   8.280   5.064   7.770
19596TIP3   OH258672   8.340   4.623   6.442
19596TIP3    H158673   8.333   4.628   6.537
19596TIP3    H258674   8.262   4.668   6.410
19597TIP3   OH258675   7.896   4.678   7.298
19597TIP3    H158676   7.965   4.711   7.356
19597TIP3    H258677   7.942   4.657   7.217
19598TIP3   OH258678   7.787   4.649   6.808
19598TIP3    H158679   7.832   4.687   6.732
19598TIP3    H258680   7.726   4.717   6.835
19599TIP3   OH258681   9.028   5.358   7.387
19599TIP3    H158682   9.057   5.293   7.323
19599TIP3    H258683   8.986   5.307   7.456
19600TIP3   OH258684   8.705   4.802   7.078
19600TIP3    H158685   8.627   4.803   7.134
19600TIP3    H258686   8.778   4.798   7.140
19601TIP3   OH258687   8.102   4.890   7.085
19601TIP3    H158688   8.014   4.895   7.047
19601TIP3    H258689   8.130   4.800   7.070
19602TIP3   OH258690   8.353   4.891   6.778
19602TIP3    H158691   8.448   4.901   6.770
19602TIP3    H258692   8.320   4.910   6.690
19603TIP3   OH258693   9.156   4.898   7.292
19603TIP3    H158694   9.130   4.918   7.382
19603TIP3    H258695   9.089   4.837   7.261
19604TIP3   OH258696   8.248   4.916   6.525
19604TIP3    H158697   8.184   4.867   6.473
19604TIP3    H258698   8.299   4.964   6.460
19605TIP3   OH258699   8.302   5.692   7.898
19605TIP3    H158700   8.379   5.712   7.952
19605TIP3    H258701   8.230   5.686   7.961
19606TIP3   OH258702   8.751   5.172   7.178
19606TIP3    H158703   8.816   5.126   7.124
19606TIP3    H258704   8.752   5.125   7.261
19607TIP3   OH258705   8.242   4.640   7.073
19607TIP3    H158706   8.216   4.565   7.126
19607TIP3    H258707   8.264   4.604   6.987
19608TIP3   OH258708   8.725   5.073   7.441
19608TIP3    H158709   8.638   5.106   7.464
19608TIP3    H258710   8.785   5.128   7.491
19609TIP3   OH258711   8.475   5.426   6.572
19609TIP3    H158712   8.395   5.381   6.545
19609TIP3    H258713   8.451   5.471   6.653
19610TIP3   OH258714   8.924   4.747   6.475
19610TIP3    H158715   8.831   4.727   6.469
19610TIP3    H258716   8.927   4.843   6.484
19611TIP3   OH258717   8.879   5.755   7.574
19611TIP3    H158718   8.933   5.753   7.654
19611TIP3    H258719   8.840   5.842   7.574
19612TIP3   OH258720   8.979   5.013   6.536
19612TIP3    H158721   9.074   5.016   6.548
19612TIP3    H258722   8.960   5.091   6.483
19613TIP3   OH258723   8.141   5.440   7.209
19613TIP3    H158724   8.179   5.427   7.122
19613TIP3    H258725   8.210   5.415   7.270
19614TIP3   OH258726   8.604   5.597   6.401
19614TIP3    H158727   8.557   5.680   6.406
19614TIP3    H258728   8.554   5.537   6.455
19615TIP3   OH258729   8.031   5.373   7.835
19615TIP3    H158730   8.038   5.339   7.925
19615TIP3    H258731   7.955   5.329   7.798
19616TIP3   OH258732   8.766   5.509   7.859
19616TIP3    H158733   8.695   5.451   7.832
19616TIP3    H258734   8.845   5.467   7.824
19617TIP3   OH258735   9.026   6.034   7.436
19617TIP3    H158736   8.933   6.022   7.457
19617TIP3    H258737   9.064   6.069   7.516
19618TIP3   OH258738   9.389   5.101   6.354
19618TIP3    H158739   9.337   5.055   6.288
19618TIP3    H258740   9.390   5.192   6.326
19619TIP3   OH258741   9.651   5.961   7.443
19619TIP3    H158742   9.581   6.026   7.449
19619TIP3    H258743   9.644   5.927   7.354
19620TIP3   OH258744   9.151   5.881   6.262
19620TIP3    H158745   9.109   5.815   6.318
19620TIP3    H258746   9.228   5.838   6.226
19621TIP3   OH258747   8.273   5.781   6.860
19621TIP3    H158748   8.272   5.862   6.810
19621TIP3    H258749   8.189   5.739   6.840
19622TIP3   OH258750   7.846   5.079   6.593
19622TIP3    H158751   7.889   5.162   6.611
19622TIP3    H258752   7.770   5.078   6.651
19623TIP3   OH258753   8.397   5.539   6.806
19623TIP3    H158754   8.362   5.628   6.817
19623TIP3    H258755   8.352   5.487   6.872
19624TIP3   OH258756   8.560   6.104   7.332
19624TIP3    H158757   8.594   6.179   7.284
19624TIP3    H258758   8.636   6.068   7.378
19625TIP3   OH258759   8.201   6.017   6.716
19625TIP3    H158760   8.115   6.009   6.756
19625TIP3    H258761   8.227   6.108   6.729
19626TIP3   OH258762   8.901   5.726   7.302
19626TIP3    H158763   8.903   5.735   7.397
19626TIP3    H258764   8.902   5.631   7.287
19627TIP3   OH258765   9.125   6.286   7.342
19627TIP3    H158766   9.069   6.210   7.354
19627TIP3    H258767   9.098   6.324   7.259
19628TIP3   OH258768   9.137   6.074   5.925
19628TIP3    H158769   9.167   6.147   5.870
19628TIP3    H258770   9.102   6.115   6.004
19629TIP3   OH258771   8.238   4.894   7.842
19629TIP3    H158772   8.144   4.911   7.844
19629TIP3    H258773   8.250   4.821   7.902
19630TIP3   OH258774   9.105   5.648   6.420
19630TIP3    H158775   9.066   5.567   6.455
19630TIP3    H258776   9.195   5.624   6.399
19631TIP3   OH258777   7.991   5.981   7.491
19631TIP3    H158778   8.046   5.923   7.544
19631TIP3    H258779   7.974   6.056   7.548
19632TIP3   OH258780   8.234   5.618   6.209
19632TIP3    H158781   8.252   5.528   6.182
19632TIP3    H258782   8.229   5.613   6.305
19633TIP3   OH258783   8.191   5.642   6.479
19633TIP3    H158784   8.160   5.628   6.569
19633TIP3    H258785   8.198   5.738   6.472
19634TIP3   OH258786   7.934   5.331   6.663
19634TIP3    H158787   7.874   5.382   6.717
19634TIP3    H258788   7.971   5.394   6.601
19635TIP3   OH258789   9.084   4.960   7.551
19635TIP3    H158790   9.163   5.004   7.581
19635TIP3    H258791   9.077   4.881   7.604
19636TIP3   OH258792   8.977   4.704   6.745
19636TIP3    H158793   8.959   4.722   6.652
19636TIP3    H258794   9.023   4.782   6.775
19637TIP3   OH258795   8.478   5.837   6.406
19637TIP3    H158796   8.390   5.846   6.441
19637TIP3    H258797   8.484   5.905   6.339
19638TIP3   OH258798   8.632   4.897   6.826
19638TIP3    H158799   8.694   4.965   6.799
19638TIP3    H258800   8.657   4.877   6.916
19639TIP3   OH258801   8.929   5.196   7.584
19639TIP3    H158802   8.949   5.239   7.667
19639TIP3    H258803   8.978   5.114   7.587
19640TIP3   OH258804   8.794   4.593   6.916
19640TIP3    H158805   8.769   4.669   6.968
19640TIP3    H258806   8.863   4.625   6.858
19641TIP3   OH258807   8.222   5.915   6.463
19641TIP3    H158808   8.197   5.989   6.406
19641TIP3    H258809   8.207   5.947   6.552
19642TIP3   OH258810   8.310   4.617   6.721
19642TIP3    H158811   8.299   4.708   6.749
19642TIP3    H258812   8.404   4.602   6.728
19643TIP3   OH258813   9.543   5.099   7.596
19643TIP3    H158814   9.448   5.099   7.612
19643TIP3    H258815   9.553   5.054   7.512
19644TIP3   OH258816   9.221   5.271   6.959
19644TIP3    H158817   9.147   5.260   7.018
19644TIP3    H258818   9.297   5.239   7.008
19645TIP3   OH258819   7.920   5.566   6.466
19645TIP3    H158820   7.929   5.616   6.547
19645TIP3    H258821   8.005   5.574   6.423
19646TIP3   OH258822   7.862   4.800   6.591
19646TIP3    H158823   7.878   4.894   6.600
19646TIP3    H258824   7.840   4.787   6.499
19647TIP3   OH258825   9.191   6.264   6.892
19647TIP3    H158826   9.140   6.310   6.825
19647TIP3    H258827   9.281   6.295   6.878
19648TIP3   OH258828   8.260   4.517   7.459
19648TIP3    H158829   8.231   4.482   7.375
19648TIP3    H258830   8.254   4.443   7.520
19649TIP3   OH258831   7.987   6.275   7.837
19649TIP3    H158832   8.060   6.311   7.889
19649TIP3    H258833   7.992   6.181   7.852
19650TIP3   OH258834   8.456   6.129   7.982
19650TIP3    H158835   8.537   6.168   7.950
19650TIP3    H258836   8.409   6.102   7.904
19651TIP3   OH258837   8.422   5.772   6.087
19651TIP3    H158838   8.347   5.733   6.132
19651TIP3    H258839   8.490   5.705   6.091
19652TIP3   OH258840   9.109   6.130   7.675
19652TIP3    H158841   9.115   6.067   7.747
19652TIP3    H258842   9.060   6.204   7.711
19653TIP3   OH258843   4.825   1.015   0.065
19653TIP3    H158844   4.828   0.920   0.067
19653TIP3    H258845   4.738   1.036   0.031
19654TIP3   OH258846   8.082   5.308   6.307
19654TIP3    H158847   8.130   5.298   6.389
19654TIP3    H258848   8.149   5.327   6.241
19655TIP3   OH258849   8.708   5.784   7.868
19655TIP3    H158850   8.660   5.810   7.789
19655TIP3    H258851   8.738   5.695   7.850
19656TIP3   OH258852   8.602   5.560   6.126
19656TIP3    H158853   8.610   5.567   6.221
19656TIP3    H258854   8.601   5.466   6.109
19657TIP3   OH258855   9.198   5.809   7.451
19657TIP3    H158856   9.257   5.824   7.377
19657TIP3    H258857   9.135   5.881   7.446
19658TIP3   OH258858   4.945   0.758   0.079
19658TIP3    H158859   5.012   0.769   0.011
19658TIP3    H258860   4.987   0.791   0.159
19659TIP3   OH258861   8.257   5.258   6.518
19659TIP3    H158862   8.237   5.227   6.606
19659TIP3    H258863   8.302   5.185   6.477
19660TIP3   OH258864   8.568   5.331   7.768
19660TIP3    H158865   8.479   5.366   7.776
19660TIP3    H258866   8.597   5.359   7.682
19661TIP3   OH258867   8.392   5.073   6.350
19661TIP3    H158868   8.362   5.081   6.260
19661TIP3    H258869   8.487   5.083   6.344
19662TIP3   OH258870   9.063   5.705   7.874
19662TIP3    H158871   9.159   5.705   7.875
19662TIP3    H258872   9.038   5.638   7.937
19663TIP3   OH258873   9.185   5.379   6.024
19663TIP3    H158874   9.150   5.336   5.947
19663TIP3    H258875   9.247   5.443   5.991
19664TIP3   OH258876   8.677   5.100   7.871
19664TIP3    H158877   8.678   5.030   7.806
19664TIP3    H258878   8.641   5.176   7.824
19665TIP3   OH258879   8.679   4.904   7.670
19665TIP3    H158880   8.704   4.940   7.585
19665TIP3    H258881   8.587   4.877   7.658
19666TIP3   OH258882   8.674   5.431   7.541
19666TIP3    H158883   8.763   5.462   7.524
19666TIP3    H258884   8.618   5.491   7.491
19667TIP3   OH258885   9.316   5.371   8.004
19667TIP3    H158886   9.312   5.296   7.944
19667TIP3    H258887   9.394   5.420   7.976
19668TIP3   OH258888   9.324   5.645   7.629
19668TIP3    H158889   9.270   5.705   7.578
19668TIP3    H258890   9.414   5.676   7.613
19669TIP3   OH258891   5.285   0.553   0.107
19669TIP3    H158892   5.216   0.488   0.125
19669TIP3    H258893   5.317   0.529   0.020
19670TIP3   OH258894   8.798   4.673   7.775
19670TIP3    H158895   8.758   4.753   7.740
19670TIP3    H258896   8.732   4.606   7.763
19671TIP3   OH258897   8.928   5.144   7.983
19671TIP3    H158898   8.913   5.131   8.077
19671TIP3    H258899   8.844   5.121   7.942
19672TIP3   OH258900   9.189   5.140   7.876
19672TIP3    H158901   9.106   5.123   7.920
19672TIP3    H258902   9.254   5.091   7.926
19673TIP3   OH258903   6.137   0.425   0.015
19673TIP3    H158904   6.154   0.331   0.013
19673TIP3    H258905   6.133   0.447   0.108
19674TIP3   OH258906   5.116   0.339   0.176
19674TIP3    H158907   5.117   0.250   0.139
19674TIP3    H258908   5.157   0.330   0.262
19675TIP3   OH258909   5.598   0.028   0.037
19675TIP3    H158910   5.667  -0.038   0.031
19675TIP3    H258911   5.567   0.039  -0.054
19676TIP3   OH258912   5.686   0.242   0.183
19676TIP3    H158913   5.658   0.170   0.127
19676TIP3    H258914   5.614   0.305   0.180
19677TIP3   OH258915   8.231   6.135   6.286
19677TIP3    H158916   8.311   6.098   6.250
19677TIP3    H258917   8.188   6.179   6.212
19678TIP3   OH258918   7.665   5.488   6.441
19678TIP3    H158919   7.752   5.528   6.449
19678TIP3    H258920   7.666   5.417   6.505
19679TIP3   OH258921   7.584   6.082   6.922
19679TIP3    H158922   7.516   6.026   6.884
19679TIP3    H258923   7.627   6.025   6.986
19680TIP3   OH258924   7.715   5.935   7.111
19680TIP3    H158925   7.716   5.852   7.159
19680TIP3    H258926   7.777   5.991   7.159
19681TIP3   OH258927   9.449   6.348   6.872
19681TIP3    H158928   9.490   6.337   6.958
19681TIP3    H258929   9.494   6.285   6.815
19682TIP3   OH258930   9.502   6.351   7.149
19682TIP3    H158931   9.457   6.275   7.185
19682TIP3    H258932   9.519   6.407   7.225
19683TIP3   OH258933   9.363   5.578   6.368
19683TIP3    H158934   9.427   5.643   6.339
19683TIP3    H258935   9.405   5.533   6.441
19684TIP3   OH258936   9.469   5.426   6.568
19684TIP3    H158937   9.402   5.383   6.622
19684TIP3    H258938   9.529   5.466   6.631
19685TIP3   OH258939   9.339   6.143   7.233
19685TIP3    H158940   9.277   6.189   7.290
19685TIP3    H258941   9.289   6.124   7.154
19686TIP3   OH258942   9.368   5.342   6.229
19686TIP3    H158943   9.295   5.343   6.166
19686TIP3    H258944   9.359   5.424   6.278
19687TIP3   OH258945   9.248   5.002   6.146
19687TIP3    H158946   9.192   5.034   6.075
19687TIP3    H258947   9.236   4.908   6.147
19688TIP3   OH258948   9.268   5.279   6.690
19688TIP3    H158949   9.273   5.185   6.671
19688TIP3    H258950   9.253   5.283   6.785
19689TIP3   OH258951   7.902   5.340   7.482
19689TIP3    H158952   7.893   5.313   7.391
19689TIP3    H258953   7.996   5.338   7.499
19690TIP3   OH258954   9.577   5.731   7.584
19690TIP3    H158955   9.653   5.672   7.594
19690TIP3    H258956   9.614   5.811   7.548
19691TIP3   OH258957   9.757   5.516   7.591
19691TIP3    H158958   9.674   5.474   7.613
19691TIP3    H258959   9.824   5.450   7.610
19692TIP3   OH258960   9.193   4.738   6.147
19692TIP3    H158961   9.258   4.709   6.211
19692TIP3    H258962   9.114   4.689   6.170
19693TIP3   OH258963   9.262   5.010   6.589
19693TIP3    H158964   9.303   4.925   6.607
19693TIP3    H258965   9.308   5.042   6.511
19694TIP3   OH258966   9.428   5.168   7.109
19694TIP3    H158967   9.506   5.197   7.061
19694TIP3    H258968   9.438   5.206   7.196
19695TIP3   OH258969   9.477   5.315   7.341
19695TIP3    H158970   9.402   5.345   7.393
19695TIP3    H258971   9.504   5.393   7.292
19696TIP3   OH258972   4.852   0.407   0.123
19696TIP3    H158973   4.947   0.396   0.131
19696TIP3    H258974   4.815   0.327   0.160
19697TIP3   OH258975   0.156   4.951   7.897
19697TIP3    H158976   0.215   4.883   7.864
19697TIP3    H258977   0.114   4.987   7.819
19698TIP3   OH258978   9.366   4.761   6.653
19698TIP3    H158979   9.408   4.745   6.738
19698TIP3    H258980   9.304   4.688   6.643
19699TIP3   OH258981   8.100   4.744   7.476
19699TIP3    H158982   8.152   4.664   7.483
19699TIP3    H258983   8.164   4.812   7.456
19700TIP3   OH258984   7.874   5.010   7.527
19700TIP3    H158985   7.928   4.998   7.448
19700TIP3    H258986   7.898   5.097   7.559
19701TIP3   OH258987   9.793   5.033   7.694
19701TIP3    H158988   9.707   5.075   7.696
19701TIP3    H258989   9.781   4.959   7.635
19702TIP3   OH258990   9.415   4.691   6.309
19702TIP3    H158991   9.453   4.629   6.247
19702TIP3    H258992   9.478   4.764   6.310
19703TIP3   OH258993   7.866   4.508   7.028
19703TIP3    H158994   7.783   4.499   7.074
19703TIP3    H258995   7.846   4.566   6.954
19704TIP3   OH258996   9.018   6.208   6.540
19704TIP3    H158997   9.084   6.197   6.471
19704TIP3    H258998   9.048   6.282   6.591
19705TIP3   OH258999   8.100   4.604   7.871
19705TIP3    H159000   8.046   4.574   7.944
19705TIP3    H259001   8.038   4.637   7.806
19706TIP3   OH259002   8.111   6.015   7.914
19706TIP3    H159003   8.021   5.984   7.902
19706TIP3    H259004   8.111   6.054   8.001
19707TIP3   OH259005   8.330   6.073   7.479
19707TIP3    H159006   8.275   6.143   7.444
19707TIP3    H259007   8.414   6.084   7.433
19708TIP3   OH259008   8.805   6.271   7.572
19708TIP3    H159009   8.840   6.275   7.661
19708TIP3    H259010   8.844   6.346   7.527
19709TIP3   OH259011   8.947   6.476   7.458
19709TIP3    H159012   9.021   6.424   7.426
19709TIP3    H259013   8.988   6.549   7.504
19710TIP3   OH259014   9.706   4.802   7.571
19710TIP3    H159015   9.619   4.809   7.531
19710TIP3    H259016   9.726   4.708   7.566
19711TIP3   OH259017   7.959   6.298   7.494
19711TIP3    H159018   7.863   6.296   7.494
19711TIP3    H259019   7.981   6.373   7.549
19712TIP3   OH259020   8.207   6.294   7.373
19712TIP3    H159021   8.120   6.292   7.414
19712TIP3    H259022   8.190   6.321   7.283
19713TIP3   OH259023   8.633   6.312   7.165
19713TIP3    H159024   8.556   6.325   7.111
19713TIP3    H259025   8.646   6.397   7.209
19714TIP3   OH259026   8.884   6.197   7.160
19714TIP3    H159027   8.796   6.233   7.170
19714TIP3    H259028   8.937   6.273   7.134
19715TIP3   OH259029   9.067   6.396   7.097
19715TIP3    H159030   9.079   6.489   7.078
19715TIP3    H259031   9.109   6.351   7.024
19716TIP3   OH259032   7.906   6.090   7.251
19716TIP3    H159033   7.940   6.066   7.337
19716TIP3    H259034   7.971   6.055   7.189
19717TIP3   OH259035   8.097   5.976   7.097
19717TIP3    H159036   8.107   5.890   7.138
19717TIP3    H259037   8.185   6.013   7.099
19718TIP3   OH259038   8.371   6.063   7.124
19718TIP3    H159039   8.384   5.970   7.107
19718TIP3    H259040   8.425   6.081   7.202
19719TIP3   OH259041   8.931   4.717   7.225
19719TIP3    H159042   8.890   4.646   7.274
19719TIP3    H259043   8.998   4.674   7.171
19720TIP3   OH259044   9.412   4.646   7.132
19720TIP3    H159045   9.448   4.689   7.054
19720TIP3    H259046   9.317   4.655   7.122
19721TIP3   OH259047   9.517   4.702   6.882
19721TIP3    H159048   9.595   4.662   6.844
19721TIP3    H259049   9.534   4.797   6.878
19722TIP3   OH259050   8.174   4.412   7.216
19722TIP3    H159051   8.085   4.379   7.225
19722TIP3    H259052   8.229   4.334   7.208
19723TIP3   OH259053   7.977   4.313   6.857
19723TIP3    H159054   8.011   4.364   6.783
19723TIP3    H259055   7.947   4.378   6.920
19724TIP3   OH259056   8.654   4.449   7.114
19724TIP3    H159057   8.701   4.498   7.047
19724TIP3    H259058   8.694   4.479   7.197
19725TIP3   OH259059   9.136   4.593   7.090
19725TIP3    H159060   9.151   4.560   7.001
19725TIP3    H259061   9.145   4.516   7.146
19726TIP3   OH259062   9.190   4.547   6.667
19726TIP3    H159063   9.110   4.593   6.692
19726TIP3    H259064   9.180   4.459   6.706
19727TIP3   OH259065   7.704   5.826   6.552
19727TIP3    H159066   7.611   5.851   6.556
19727TIP3    H259067   7.742   5.867   6.630
19728TIP3   OH259068   8.100   4.450   6.630
19728TIP3    H159069   8.147   4.388   6.573
19728TIP3    H259070   8.169   4.505   6.667
19729TIP3   OH259071   8.586   4.646   6.728
19729TIP3    H159072   8.644   4.593   6.783
19729TIP3    H259073   8.600   4.736   6.757
19730TIP3   OH259074   8.463   6.020   6.196
19730TIP3    H159075   8.549   6.046   6.164
19730TIP3    H259076   8.442   5.940   6.148
19731TIP3   OH259077   9.185   6.155   6.325
19731TIP3    H159078   9.175   6.061   6.309
19731TIP3    H259079   9.146   6.196   6.248
19732TIP3   OH259080   5.133   0.068   0.106
19732TIP3    H159081   5.099  -0.001   0.162
19732TIP3    H259082   5.226   0.075   0.128
19733TIP3   OH259083   5.388   0.077   0.212
19733TIP3    H159084   5.463   0.055   0.157
19733TIP3    H259085   5.381   0.003   0.273
19734TIP3   OH259086   7.767   5.858   6.285
19734TIP3    H159087   7.754   5.848   6.379
19734TIP3    H259088   7.854   5.820   6.268
19735TIP3   OH259089   6.203   0.159   0.003
19735TIP3    H159090   6.221   0.124   0.091
19735TIP3    H259091   6.289   0.161  -0.040
19736TIP3   OH259092   0.114   5.573   7.110
19736TIP3    H159093   0.157   5.520   7.177
19736TIP3    H259094   0.144   5.663   7.127
19737TIP3   OH259095   0.047   5.952   6.772
19737TIP3    H159096   0.021   5.868   6.809
19737TIP3    H259097   0.141   5.943   6.754
19738TIP3   OH259098   9.613   5.199   6.494
19738TIP3    H159099   9.575   5.284   6.517
19738TIP3    H259100   9.540   5.149   6.459
19739TIP3   OH259101   9.682   5.529   6.709
19739TIP3    H159102   9.731   5.448   6.727
19739TIP3    H259103   9.740   5.581   6.654
19740TIP3   OH259104   0.622   5.988   6.730
19740TIP3    H159105   0.609   5.907   6.681
19740TIP3    H259106   0.690   5.967   6.794
19741TIP3   OH259107   0.539   5.088   6.888
19741TIP3    H159108   0.503   5.157   6.832
19741TIP3    H259109   0.468   5.024   6.897
19742TIP3   OH259110   0.004   5.285   6.761
19742TIP3    H159111   0.070   5.252   6.822
19742TIP3    H259112   0.011   5.228   6.685
19743TIP3   OH259113   0.568   5.481   6.613
19743TIP3    H159114   0.646   5.536   6.606
19743TIP3    H259115   0.558   5.443   6.526
19744TIP3   OH259116   0.372   5.042   7.168
19744TIP3    H159117   0.326   4.984   7.107
19744TIP3    H259118   0.305   5.069   7.231
19745TIP3   OH259119   0.428   5.915   6.974
19745TIP3    H159120   0.378   5.944   7.050
19745TIP3    H259121   0.520   5.928   6.999
19746TIP3   OH259122   0.183   5.174   6.934
19746TIP3    H159123   0.233   5.256   6.938
19746TIP3    H259124   0.249   5.106   6.927
19747TIP3   OH259125   9.526   5.767   6.251
19747TIP3    H159126   9.483   5.789   6.169
19747TIP3    H259127   9.553   5.852   6.287
19748TIP3   OH259128   0.065   5.691   6.543
19748TIP3    H159129   0.059   5.650   6.457
19748TIP3    H259130   0.081   5.784   6.524
19749TIP3   OH259131   0.415   6.155   6.637
19749TIP3    H159132   0.424   6.160   6.541
19749TIP3    H259133   0.503   6.133   6.667
19750TIP3   OH259134   0.406   5.617   6.807
19750TIP3    H159135   0.458   5.584   6.733
19750TIP3    H259136   0.441   5.704   6.824
19751TIP3   OH259137   0.196   5.815   7.231
19751TIP3    H159138   0.287   5.804   7.257
19751TIP3    H259139   0.146   5.771   7.299
19752TIP3   OH259140   0.663   6.169   6.277
19752TIP3    H159141   0.723   6.239   6.301
19752TIP3    H259142   0.630   6.193   6.190
19753TIP3   OH259143   0.079   5.562   6.302
19753TIP3    H159144   0.009   5.555   6.237
19753TIP3    H259145   0.097   5.472   6.328
19754TIP3   OH259146   9.637   5.812   7.205
19754TIP3    H159147   9.654   5.786   7.115
19754TIP3    H259148   9.706   5.770   7.256
19755TIP3   OH259149   0.399   6.482   5.932
19755TIP3    H159150   0.344   6.429   5.991
19755TIP3    H259151   0.397   6.570   5.970
19756TIP3   OH259152   9.771   6.226   6.370
19756TIP3    H159153   9.764   6.239   6.465
19756TIP3    H259154   9.707   6.157   6.351
19757TIP3   OH259155   0.082   6.060   7.157
19757TIP3    H159156   0.067   6.089   7.248
19757TIP3    H259157   0.120   5.973   7.166
19758TIP3   OH259158   0.466   4.726   6.999
19758TIP3    H159159   0.471   4.740   7.093
19758TIP3    H259160   0.553   4.750   6.966
19759TIP3   OH259161   0.634   5.399   6.921
19759TIP3    H159162   0.582   5.348   6.983
19759TIP3    H259163   0.614   5.361   6.836
19760TIP3   OH259164   0.369   5.189   6.491
19760TIP3    H159165   0.284   5.229   6.470
19760TIP3    H259166   0.432   5.237   6.437
19761TIP3   OH259167   0.253   5.421   7.294
19761TIP3    H159168   0.348   5.422   7.279
19761TIP3    H259169   0.233   5.329   7.311
19762TIP3   OH259170   0.380   4.952   5.885
19762TIP3    H159171   0.377   4.867   5.928
19762TIP3    H259172   0.288   4.976   5.872
19763TIP3   OH259173   9.566   4.965   6.829
19763TIP3    H159174   9.642   4.991   6.881
19763TIP3    H259175   9.598   4.959   6.739
19764TIP3   OH259176   9.585   4.911   6.299
19764TIP3    H159177   9.639   4.944   6.228
19764TIP3    H259178   9.522   4.981   6.315
19765TIP3   OH259179   0.054   5.093   6.549
19765TIP3    H159180  -0.038   5.115   6.530
19765TIP3    H259181   0.056   4.997   6.551
19766TIP3   OH259182   0.307   5.209   6.203
19766TIP3    H159183   0.383   5.174   6.157
19766TIP3    H259184   0.238   5.211   6.137
19767TIP3   OH259185   0.088   5.234   6.046
19767TIP3    H159186   0.015   5.179   6.076
19767TIP3    H259187   0.082   5.231   5.950
19768TIP3   OH259188   0.355   4.738   6.484
19768TIP3    H159189   0.342   4.780   6.569
19768TIP3    H259190   0.345   4.808   6.420
19769TIP3   OH259191   0.469   5.753   6.045
19769TIP3    H159192   0.532   5.682   6.034
19769TIP3    H259193   0.432   5.739   6.133
19770TIP3   OH259194   0.130   5.681   6.811
19770TIP3    H159195   0.111   5.680   6.717
19770TIP3    H259196   0.225   5.666   6.816
19771TIP3   OH259197   9.806   5.655   7.361
19771TIP3    H159198   9.800   5.618   7.449
19771TIP3    H259199   9.792   5.581   7.302
19772TIP3   OH259200   0.189   5.987   6.357
19772TIP3    H159201   0.256   6.054   6.369
19772TIP3    H259202   0.107   6.035   6.354
19773TIP3   OH259203   9.587   5.324   6.066
19773TIP3    H159204   9.633   5.407   6.081
19773TIP3    H259205   9.513   5.326   6.126
19774TIP3   OH259206   0.389   5.798   6.308
19774TIP3    H159207   0.318   5.858   6.329
19774TIP3    H259208   0.369   5.719   6.357
19775TIP3   OH259209   0.192   6.305   6.216
19775TIP3    H159210   0.113   6.285   6.267
19775TIP3    H259211   0.202   6.400   6.223
19776TIP3   OH259212   0.195   5.149   7.345
19776TIP3    H159213   0.101   5.169   7.351
19776TIP3    H259214   0.213   5.098   7.424
19777TIP3   OH259215   9.782   6.197   6.935
19777TIP3    H159216   9.816   6.142   7.006
19777TIP3    H259217   9.778   6.285   6.973
19778TIP3   OH259218   0.094   5.860   5.629
19778TIP3    H159219   0.129   5.773   5.613
19778TIP3    H259220   0.098   5.871   5.724
19779TIP3   OH259221   0.095   5.923   5.903
19779TIP3    H159222   0.132   5.870   5.973
19779TIP3    H259223   0.122   6.012   5.923
19780TIP3   OH259224   9.679   5.583   6.114
19780TIP3    H159225   9.625   5.638   6.171
19780TIP3    H259226   9.699   5.638   6.039
19781TIP3   OH259227   0.443   6.018   5.858
19781TIP3    H159228   0.383   6.023   5.932
19781TIP3    H259229   0.447   6.108   5.824
19782TIP3   OH259230   0.163   6.188   5.957
19782TIP3    H159231   0.144   6.269   5.910
19782TIP3    H259232   0.176   6.215   6.048
19783TIP3   OH259233   0.370   4.762   6.069
19783TIP3    H159234   0.298   4.805   6.115
19783TIP3    H259235   0.439   4.752   6.135
19784TIP3   OH259236   9.664   5.777   5.876
19784TIP3    H159237   9.730   5.845   5.893
19784TIP3    H259238   9.709   5.712   5.823
19785TIP3   OH259239   9.670   5.062   6.077
19785TIP3    H159240   9.625   5.146   6.069
19785TIP3    H259241   9.633   5.008   6.007
19786TIP3   OH259242   0.095   4.740   7.008
19786TIP3    H159243   0.112   4.736   6.915
19786TIP3    H259244   0.140   4.664   7.044
19787TIP3   OH259245   9.579   6.025   6.343
19787TIP3    H159246   9.549   6.056   6.428
19787TIP3    H259247   9.525   6.073   6.280
19788TIP3   OH259248   0.486   6.105   5.500
19788TIP3    H159249   0.427   6.125   5.573
19788TIP3    H259250   0.530   6.025   5.527
19789TIP3   OH259251   0.026   5.598   5.748
19789TIP3    H159252   0.071   5.562   5.825
19789TIP3    H259253   0.092   5.595   5.679
19790TIP3   OH259254   0.171   5.492   5.956
19790TIP3    H159255   0.146   5.418   6.011
19790TIP3    H259256   0.263   5.476   5.935
19791TIP3   OH259257   0.528   5.500   7.303
19791TIP3    H159258   0.501   5.591   7.314
19791TIP3    H259259   0.542   5.491   7.208
19792TIP3   OH259260   0.379   5.251   5.918
19792TIP3    H159261   0.350   5.290   5.836
19792TIP3    H259262   0.474   5.241   5.907
19793TIP3   OH259263   0.568   5.222   7.366
19793TIP3    H159264   0.608   5.187   7.286
19793TIP3    H259265   0.542   5.311   7.342
19794TIP3   OH259266   0.646   5.035   7.165
19794TIP3    H159267   0.671   4.969   7.101
19794TIP3    H259268   0.551   5.033   7.166
19795TIP3   OH259269   0.372   5.247   7.656
19795TIP3    H159270   0.342   5.169   7.609
19795TIP3    H259271   0.442   5.216   7.713
19796TIP3   OH259272   0.143   6.409   5.809
19796TIP3    H159273   0.224   6.456   5.787
19796TIP3    H259274   0.081   6.478   5.832
19797TIP3   OH259275   9.417   5.762   5.994
19797TIP3    H159276   9.501   5.780   5.954
19797TIP3    H259277   9.392   5.676   5.962
19798TIP3   OH259278   9.388   6.326   6.433
19798TIP3    H159279   9.332   6.258   6.395
19798TIP3    H259280   9.437   6.280   6.502
19799TIP3   OH259281   9.675   5.638   6.973
19799TIP3    H159282   9.658   5.612   6.882
19799TIP3    H259283   9.768   5.623   6.986
19800TIP3   OH259284   0.096   5.281   7.620
19800TIP3    H159285   0.190   5.288   7.638
19800TIP3    H259286   0.070   5.196   7.655
19801TIP3   OH259287  -0.014   4.992   6.990
19801TIP3    H159288   0.032   4.908   7.000
19801TIP3    H259289   0.056   5.055   6.974
19802TIP3   OH259290   9.654   5.286   7.006
19802TIP3    H159291   9.689   5.279   6.917
19802TIP3    H259292   9.713   5.347   7.051
19803TIP3   OH259293   9.614   4.873   6.572
19803TIP3    H159294   9.532   4.826   6.586
19803TIP3    H259295   9.627   4.873   6.477
19804TIP3   OH259296   0.047   4.818   7.326
19804TIP3    H159297   0.019   4.824   7.417
19804TIP3    H259298  -0.009   4.880   7.279
19805TIP3   OH259299   0.109   6.215   6.643
19805TIP3    H159300   0.187   6.165   6.619
19805TIP3    H259301   0.136   6.306   6.638
19806TIP3   OH259302   0.305   6.407   6.615
19806TIP3    H159303   0.353   6.328   6.639
19806TIP3    H259304   0.368   6.459   6.566
19807TIP3   OH259305   0.144   4.677   6.745
19807TIP3    H159306   0.060   4.630   6.746
19807TIP3    H259307   0.209   4.610   6.766
19808TIP3   OH259308   9.698   4.552   6.349
19808TIP3    H159309   9.705   4.599   6.266
19808TIP3    H259310   9.743   4.608   6.413
19809TIP3   OH259311   9.447   6.138   6.127
19809TIP3    H159312   9.375   6.095   6.080
19809TIP3    H259313   9.442   6.229   6.098
19810TIP3   OH259314   0.016   4.727   6.169
19810TIP3    H159315   0.059   4.674   6.101
19810TIP3    H259316   0.064   4.707   6.249
19811TIP3   OH259317   0.467   6.273   5.776
19811TIP3    H159318   0.453   6.351   5.828
19811TIP3    H259319   0.487   6.306   5.688
19812TIP3   OH259320   0.280   4.997   7.561
19812TIP3    H159321   0.272   4.929   7.628
19812TIP3    H259322   0.364   4.979   7.519
19813TIP3   OH259323   0.538   5.037   7.741
19813TIP3    H159324   0.547   4.978   7.667
19813TIP3    H259325   0.566   4.986   7.817
19814TIP3   OH259326   9.544   6.164   5.809
19814TIP3    H159327   9.562   6.178   5.902
19814TIP3    H259328   9.625   6.128   5.774
19815TIP3   OH259329   7.868   1.611   0.461
19815TIP3    H159330   7.834   1.696   0.432
19815TIP3    H259331   7.800   1.549   0.436
19816TIP3   OH259332   7.873   1.565   0.852
19816TIP3    H159333   7.921   1.548   0.933
19816TIP3    H259334   7.827   1.483   0.834
19817TIP3   OH259335   8.116   1.843   0.490
19817TIP3    H159336   8.093   1.779   0.558
19817TIP3    H259337   8.156   1.916   0.538
19818TIP3   OH259338   7.725   2.323   0.464
19818TIP3    H159339   7.770   2.244   0.433
19818TIP3    H259340   7.659   2.290   0.525
19819TIP3   OH259341   7.685   1.769   0.865
19819TIP3    H159342   7.745   1.695   0.860
19819TIP3    H259343   7.720   1.833   0.804
19820TIP3   OH259344   8.686   1.150   0.884
19820TIP3    H159345   8.712   1.227   0.934
19820TIP3    H259346   8.705   1.172   0.793
19821TIP3   OH259347   8.071   1.287   0.904
19821TIP3    H159348   8.115   1.206   0.927
19821TIP3    H259349   8.034   1.271   0.817
19822TIP3   OH259350   7.473   0.990   0.862
19822TIP3    H159351   7.427   1.067   0.831
19822TIP3    H259352   7.417   0.916   0.837
19823TIP3   OH259353   8.126   1.078   0.500
19823TIP3    H159354   8.187   1.071   0.574
19823TIP3    H259355   8.179   1.115   0.429
19824TIP3   OH259356   7.501   1.410   0.762
19824TIP3    H159357   7.588   1.375   0.777
19824TIP3    H259358   7.448   1.333   0.740
19825TIP3   OH259359   8.762   1.350   1.059
19825TIP3    H159360   8.677   1.393   1.050
19825TIP3    H259361   8.767   1.326   1.152
19826TIP3   OH259362   7.726   1.807   0.334
19826TIP3    H159363   7.702   1.785   0.244
19826TIP3    H259364   7.675   1.885   0.354
19827TIP3   OH259365   8.280   1.099   0.723
19827TIP3    H159366   8.251   1.067   0.808
19827TIP3    H259367   8.339   1.171   0.743
19828TIP3   OH259368   8.201   2.059   0.639
19828TIP3    H159369   8.221   2.078   0.731
19828TIP3    H259370   8.127   2.116   0.618
19829TIP3   OH259371   8.474   1.060   1.053
19829TIP3    H159372   8.390   1.068   1.007
19829TIP3    H259373   8.540   1.083   0.988
19830TIP3   OH259374   7.768   0.688   1.019
19830TIP3    H159375   7.758   0.597   1.046
19830TIP3    H259376   7.700   0.735   1.067
19831TIP3   OH259377   7.895   2.139   0.351
19831TIP3    H159378   7.934   2.056   0.323
19831TIP3    H259379   7.943   2.206   0.302
19832TIP3   OH259380   8.034   1.933   0.246
19832TIP3    H159381   8.034   1.859   0.185
19832TIP3    H259382   8.068   1.896   0.328
19833TIP3   OH259383   8.430   1.986   1.011
19833TIP3    H159384   8.401   1.917   0.951
19833TIP3    H259385   8.401   2.067   0.969
19834TIP3   OH259386   7.689   1.462   0.305
19834TIP3    H159387   7.605   1.506   0.292
19834TIP3    H259388   7.732   1.465   0.219
19835TIP3   OH259389   7.659   1.265   0.000
19835TIP3    H159390   7.723   1.318   0.049
19835TIP3    H259391   7.711   1.197  -0.042
19836TIP3   OH259392   8.580   1.693   0.890
19836TIP3    H159393   8.491   1.730   0.886
19836TIP3    H259394   8.621   1.722   0.808
19837TIP3   OH259395   8.050   1.541   0.268
19837TIP3    H159396   7.996   1.569   0.341
19837TIP3    H259397   8.133   1.515   0.307
19838TIP3   OH259398   8.248   1.476   1.199
19838TIP3    H159399   8.281   1.560   1.168
19838TIP3    H259400   8.157   1.473   1.171
19839TIP3   OH259401   7.453   1.485   1.022
19839TIP3    H159402   7.469   1.472   0.929
19839TIP3    H259403   7.535   1.521   1.055
19840TIP3   OH259404   8.043   2.141   0.862
19840TIP3    H159405   8.014   2.172   0.777
19840TIP3    H259406   8.019   2.048   0.863
19841TIP3   OH259407   7.877   1.411   0.096
19841TIP3    H159408   7.937   1.467   0.145
19841TIP3    H259409   7.908   1.416   0.006
19842TIP3   OH259410   7.625   2.060   0.379
19842TIP3    H159411   7.719   2.071   0.366
19842TIP3    H259412   7.585   2.107   0.307
19843TIP3   OH259413   8.389   0.641   0.151
19843TIP3    H159414   8.312   0.661   0.205
19843TIP3    H259415   8.397   0.716   0.092
19844TIP3   OH259416   1.675   6.630   7.704
19844TIP3    H159417   1.668   6.722   7.679
19844TIP3    H259418   1.766   6.606   7.687
19845TIP3   OH259419   8.664   2.395   1.015
19845TIP3    H159420   8.646   2.348   0.933
19845TIP3    H259421   8.578   2.426   1.044
19846TIP3   OH259422   7.688   2.202   1.342
19846TIP3    H159423   7.740   2.280   1.322
19846TIP3    H259424   7.646   2.179   1.259
19847TIP3   OH259425   7.521   2.219   0.181
19847TIP3    H159426   7.496   2.238   0.091
19847TIP3    H259427   7.465   2.276   0.234
19848TIP3   OH259428   1.174   6.849   7.804
19848TIP3    H159429   1.226   6.777   7.768
19848TIP3    H259430   1.208   6.862   7.892
19849TIP3   OH259431   7.773   2.279   0.064
19849TIP3    H159432   7.701   2.257   0.123
19849TIP3    H259433   7.850   2.285   0.121
19850TIP3   OH259434   8.503   1.499   1.330
19850TIP3    H159435   8.408   1.507   1.316
19850TIP3    H259436   8.522   1.407   1.316
19851TIP3   OH259437   7.573   0.790   1.177
19851TIP3    H159438   7.480   0.810   1.166
19851TIP3    H259439   7.606   0.861   1.232
19852TIP3   OH259440   7.940   0.914   1.358
19852TIP3    H159441   7.943   0.888   1.450
19852TIP3    H259442   7.850   0.943   1.344
19853TIP3   OH259443   8.258   1.274   1.391
19853TIP3    H159444   8.254   1.314   1.478
19853TIP3    H259445   8.251   1.348   1.331
19854TIP3   OH259446   1.428   6.003   7.837
19854TIP3    H159447   1.375   6.010   7.758
19854TIP3    H259448   1.508   6.052   7.816
19855TIP3   OH259449   7.663   0.816   0.154
19855TIP3    H159450   7.627   0.819   0.243
19855TIP3    H259451   7.628   0.735   0.117
19856TIP3   OH259452   7.415   1.273   1.193
19856TIP3    H159453   7.322   1.279   1.216
19856TIP3    H259454   7.429   1.343   1.130
19857TIP3   OH259455   7.333   1.186   0.720
19857TIP3    H159456   7.240   1.206   0.732
19857TIP3    H259457   7.337   1.134   0.640
19858TIP3   OH259458   7.806   1.251   0.432
19858TIP3    H159459   7.759   1.325   0.392
19858TIP3    H259460   7.864   1.220   0.362
19859TIP3   OH259461   7.975   1.252   0.652
19859TIP3    H159462   7.905   1.276   0.591
19859TIP3    H259463   8.023   1.182   0.608
19860TIP3   OH259464   7.316   0.780   0.109
19860TIP3    H159465   7.293   0.782   0.202
19860TIP3    H259466   7.232   0.772   0.064
19861TIP3   OH259467   7.983   1.462   1.087
19861TIP3    H159468   8.017   1.398   1.026
19861TIP3    H259469   7.950   1.410   1.160
19862TIP3   OH259470   7.727   0.988   0.758
19862TIP3    H159471   7.646   0.988   0.809
19862TIP3    H259472   7.796   0.972   0.822
19863TIP3   OH259473   7.345   1.046   0.484
19863TIP3    H159474   7.440   1.059   0.479
19863TIP3    H259475   7.313   1.075   0.398
19864TIP3   OH259476   8.174   1.041   0.978
19864TIP3    H159477   8.157   1.063   1.069
19864TIP3    H259478   8.104   0.980   0.954
19865TIP3   OH259479   7.239   1.107   0.239
19865TIP3    H159480   7.169   1.061   0.192
19865TIP3    H259481   7.298   1.138   0.170
19866TIP3   OH259482   8.412   2.755   1.283
19866TIP3    H159483   8.361   2.819   1.233
19866TIP3    H259484   8.409   2.787   1.373
19867TIP3   OH259485   7.746   1.313   0.853
19867TIP3    H159486   7.805   1.252   0.808
19867TIP3    H259487   7.728   1.271   0.937
19868TIP3   OH259488   7.314   0.795   0.745
19868TIP3    H159489   7.232   0.753   0.721
19868TIP3    H259490   7.379   0.755   0.687
19869TIP3   OH259491   7.688   1.216   1.112
19869TIP3    H159492   7.602   1.244   1.143
19869TIP3    H259493   7.750   1.257   1.172
19870TIP3   OH259494   7.450   1.597   0.261
19870TIP3    H159495   7.379   1.535   0.250
19870TIP3    H259496   7.434   1.638   0.346
19871TIP3   OH259497   8.346   1.827   0.801
19871TIP3    H159498   8.369   1.889   0.732
19871TIP3    H259499   8.266   1.785   0.771
19872TIP3   OH259500   7.915   0.918   0.148
19872TIP3    H159501   7.822   0.895   0.148
19872TIP3    H259502   7.917   1.012   0.164
19873TIP3   OH259503   7.808   1.846   1.325
19873TIP3    H159504   7.844   1.808   1.405
19873TIP3    H259505   7.856   1.927   1.312
19874TIP3   OH259506   7.975   1.180   0.219
19874TIP3    H159507   8.069   1.185   0.232
19874TIP3    H259508   7.953   1.259   0.170
19875TIP3   OH259509   7.603   1.741   0.090
19875TIP3    H159510   7.554   1.822   0.081
19875TIP3    H259511   7.547   1.685   0.143
19876TIP3   OH259512   7.920   2.310   1.036
19876TIP3    H159513   7.848   2.247   1.041
19876TIP3    H259514   7.983   2.269   0.976
19877TIP3   OH259515   8.393   1.261   0.031
19877TIP3    H159516   8.336   1.215  -0.030
19877TIP3    H259517   8.392   1.352   0.002
19878TIP3   OH259518   8.668   2.091   1.135
19878TIP3    H159519   8.575   2.107   1.149
19878TIP3    H259520   8.676   2.072   1.042
19879TIP3   OH259521   1.596   6.705   7.968
19879TIP3    H159522   1.566   6.641   8.032
19879TIP3    H259523   1.610   6.655   7.888
19880TIP3   OH259524   8.096   1.681   0.722
19880TIP3    H159525   8.011   1.644   0.748
19880TIP3    H259526   8.147   1.605   0.694
19881TIP3   OH259527   7.434   1.695   0.517
19881TIP3    H159528   7.499   1.761   0.540
19881TIP3    H259529   7.435   1.634   0.590
19882TIP3   OH259530   7.982   1.876   0.884
19882TIP3    H159531   7.971   1.821   0.961
19882TIP3    H259532   8.028   1.820   0.821
19883TIP3   OH259533   1.375   6.435   7.860
19883TIP3    H159534   1.418   6.404   7.940
19883TIP3    H259535   1.291   6.391   7.859
19884TIP3   OH259536   8.212   2.393   1.024
19884TIP3    H159537   8.164   2.434   1.095
19884TIP3    H259538   8.190   2.445   0.947
19885TIP3   OH259539   1.680   6.897   7.641
19885TIP3    H159540   1.696   6.949   7.563
19885TIP3    H259541   1.611   6.944   7.688
19886TIP3   OH259542   8.069   1.725   0.067
19886TIP3    H159543   8.058   1.658   0.135
19886TIP3    H259544   8.164   1.731   0.054
19887TIP3   OH259545   0.793   6.366   7.881
19887TIP3    H159546   0.779   6.280   7.842
19887TIP3    H259547   0.779   6.352   7.974
19888TIP3   OH259548   8.101   1.106   1.237
19888TIP3    H159549   8.163   1.145   1.298
19888TIP3    H259550   8.062   1.033   1.284
19889TIP3   OH259551   7.977   0.863   0.414
19889TIP3    H159552   7.956   0.882   0.323
19889TIP3    H259553   8.022   0.942   0.445
19890TIP3   OH259554   7.456   1.967   0.075
19890TIP3    H159555   7.464   2.050   0.121
19890TIP3    H259556   7.438   1.991  -0.016
19891TIP3   OH259557   7.622   1.065   0.514
19891TIP3    H159558   7.681   1.133   0.481
19891TIP3    H259559   7.654   1.047   0.602
19892TIP3   OH259560   7.890   1.291   1.282
19892TIP3    H159561   7.884   1.318   1.373
19892TIP3    H259562   7.961   1.227   1.279
19893TIP3   OH259563   7.792   0.771   0.594
19893TIP3    H159564   7.777   0.848   0.649
19893TIP3    H259565   7.862   0.797   0.534
19894TIP3   OH259566   7.304   0.778   0.389
19894TIP3    H159567   7.288   0.862   0.432
19894TIP3    H259568   7.399   0.766   0.392
19895TIP3   OH259569   8.515   1.230   1.277
19895TIP3    H159570   8.437   1.215   1.330
19895TIP3    H259571   8.505   1.173   1.201
19896TIP3   OH259572   8.206   1.436   0.654
19896TIP3    H159573   8.130   1.379   0.669
19896TIP3    H259574   8.275   1.399   0.709
19897TIP3   OH259575   8.177   2.446   0.545
19897TIP3    H159576   8.088   2.452   0.511
19897TIP3    H259577   8.232   2.480   0.474
19898TIP3   OH259578   0.875   6.607   7.788
19898TIP3    H159579   0.837   6.524   7.817
19898TIP3    H259580   0.950   6.581   7.734
19899TIP3   OH259581   8.175   2.245   1.417
19899TIP3    H159582   8.127   2.267   1.497
19899TIP3    H259583   8.146   2.310   1.353
19900TIP3   OH259584   1.313   6.644   7.689
19900TIP3    H159585   1.354   6.581   7.749
19900TIP3    H259586   1.369   6.643   7.611
19901TIP3   OH259587   7.644   1.730   1.566
19901TIP3    H159588   7.607   1.808   1.524
19901TIP3    H259589   7.712   1.764   1.625
19902TIP3   OH259590   1.131   6.310   7.827
19902TIP3    H159591   1.099   6.322   7.917
19902TIP3    H259592   1.106   6.221   7.804
19903TIP3   OH259593   8.180   1.878   1.210
19903TIP3    H159594   8.203   1.969   1.191
19903TIP3    H259595   8.085   1.874   1.196
19904TIP3   OH259596   7.269   1.398   0.228
19904TIP3    H159597   7.225   1.328   0.277
19904TIP3    H259598   7.311   1.352   0.155
19905TIP3   OH259599   7.592   1.437   1.396
19905TIP3    H159600   7.507   1.469   1.426
19905TIP3    H259601   7.606   1.480   1.311
19906TIP3   OH259602   7.388   1.228   0.044
19906TIP3    H159603   7.359   1.228  -0.047
19906TIP3    H259604   7.483   1.237   0.039
19907TIP3   OH259605   8.169   1.984   1.551
19907TIP3    H159606   8.235   1.991   1.482
19907TIP3    H259607   8.212   1.935   1.621
19908TIP3   OH259608   1.641   6.140   7.722
19908TIP3    H159609   1.626   6.099   7.637
19908TIP3    H259610   1.619   6.232   7.708
19909TIP3   OH259611   7.683   1.008   1.307
19909TIP3    H159612   7.692   1.065   1.230
19909TIP3    H259613   7.628   1.058   1.367
19910TIP3   OH259614   7.692   1.563   1.157
19910TIP3    H159615   7.777   1.546   1.115
19910TIP3    H259616   7.710   1.631   1.222
19911TIP3   OH259617   8.283   1.706   1.403
19911TIP3    H159618   8.239   1.765   1.341
19911TIP3    H259619   8.373   1.699   1.371
19912TIP3   OH259620   8.446   2.525   0.496
19912TIP3    H159621   8.455   2.433   0.520
19912TIP3    H259622   8.528   2.545   0.450
19913TIP3   OH259623   8.425   2.481   0.836
19913TIP3    H159624   8.357   2.492   0.769
19913TIP3    H259625   8.507   2.482   0.788
19914TIP3   OH259626   8.637   2.164   1.499
19914TIP3    H159627   8.544   2.177   1.516
19914TIP3    H259628   8.658   2.226   1.428
19915TIP3   OH259629   8.346   1.729   0.061
19915TIP3    H159630   8.399   1.802   0.030
19915TIP3    H259631   8.394   1.694   0.135
19916TIP3   OH259632   8.484   1.590   0.260
19916TIP3    H159633   8.417   1.551   0.316
19916TIP3    H259634   8.547   1.629   0.321
19917TIP3   OH259635   8.521   2.005   0.641
19917TIP3    H159636   8.574   1.926   0.635
19917TIP3    H259637   8.562   2.066   0.580
19918TIP3   OH259638   8.331   2.196   0.870
19918TIP3    H159639   8.302   2.267   0.926
19918TIP3    H259640   8.354   2.237   0.787
19919TIP3   OH259641   1.842   6.124   7.908
19919TIP3    H159642   1.772   6.126   7.844
19919TIP3    H259643   1.828   6.202   7.962
19920TIP3   OH259644   1.708   5.771   7.835
19920TIP3    H159645   1.659   5.806   7.760
19920TIP3    H259646   1.701   5.676   7.825
19921TIP3   OH259647   8.281   1.444   0.389
19921TIP3    H159648   8.284   1.350   0.369
19921TIP3    H259649   8.261   1.448   0.482
19922TIP3   OH259650   8.577   1.837   1.232
19922TIP3    H159651   8.645   1.775   1.256
19922TIP3    H259652   8.623   1.906   1.184
19923TIP3   OH259653   8.731   1.648   1.344
19923TIP3    H159654   8.655   1.590   1.340
19923TIP3    H259655   8.806   1.590   1.327
19924TIP3   OH259656   1.671   5.499   7.803
19924TIP3    H159657   1.734   5.473   7.869
19924TIP3    H259658   1.587   5.464   7.834
19925TIP3   OH259659   8.268   1.176   0.273
19925TIP3    H159660   8.311   1.092   0.288
19925TIP3    H259661   8.310   1.210   0.194
19926TIP3   OH259662   8.421   1.326   0.793
19926TIP3    H159663   8.501   1.345   0.743
19926TIP3    H259664   8.438   1.360   0.880
19927TIP3   OH259665   8.513   1.460   1.018
19927TIP3    H159666   8.446   1.480   1.084
19927TIP3    H259667   8.533   1.544   0.978
19928TIP3   OH259668   8.911   1.047   1.561
19928TIP3    H159669   8.988   1.010   1.518
19928TIP3    H259670   8.932   1.139   1.573
19929TIP3   OH259671   8.380   0.928   0.329
19929TIP3    H159672   8.424   0.915   0.413
19929TIP3    H259673   8.318   0.855   0.323
19930TIP3   OH259674   8.790   1.221   1.315
19930TIP3    H159675   8.697   1.230   1.335
19930TIP3    H259676   8.804   1.127   1.307
19931TIP3   OH259677   1.899   5.451   7.955
19931TIP3    H159678   1.951   5.387   7.905
19931TIP3    H259679   1.956   5.527   7.962
19932TIP3   OH259680   8.017   2.336   0.206
19932TIP3    H159681   8.062   2.330   0.122
19932TIP3    H259682   8.067   2.400   0.256
19933TIP3   OH259683   7.786   2.459   1.287
19933TIP3    H159684   7.736   2.460   1.368
19933TIP3    H259685   7.829   2.544   1.283
19934TIP3   OH259686   7.884   2.713   1.267
19934TIP3    H159687   7.928   2.689   1.186
19934TIP3    H259688   7.954   2.744   1.324
19935TIP3   OH259689   8.712   0.950   1.249
19935TIP3    H159690   8.624   0.933   1.217
19935TIP3    H259691   8.755   0.864   1.247
19936TIP3   OH259692   7.503   2.338   0.875
19936TIP3    H159693   7.422   2.387   0.860
19936TIP3    H259694   7.553   2.392   0.937
19937TIP3   OH259695   7.826   2.432   0.769
19937TIP3    H159696   7.783   2.443   0.854
19937TIP3    H259697   7.867   2.516   0.751
19938TIP3   OH259698   8.137   2.528   0.802
19938TIP3    H159699   8.064   2.591   0.795
19938TIP3    H259700   8.149   2.496   0.712
19939TIP3   OH259701   7.943   0.885   0.901
19939TIP3    H159702   7.895   0.812   0.940
19939TIP3    H259703   8.004   0.844   0.840
19940TIP3   OH259704   8.417   0.802   0.786
19940TIP3    H159705   8.455   0.850   0.713
19940TIP3    H259706   8.323   0.819   0.780
19941TIP3   OH259707   8.534   0.879   0.552
19941TIP3    H159708   8.603   0.817   0.529
19941TIP3    H259709   8.574   0.965   0.541
19942TIP3   OH259710   7.624   0.642   0.778
19942TIP3    H159711   7.681   0.681   0.712
19942TIP3    H259712   7.668   0.662   0.861
19943TIP3   OH259713   8.139   0.771   0.743
19943TIP3    H159714   8.158   0.730   0.659
19943TIP3    H259715   8.136   0.699   0.805
19944TIP3   OH259716   8.199   0.715   0.337
19944TIP3    H159717   8.118   0.761   0.360
19944TIP3    H259718   8.189   0.628   0.376
19945TIP3   OH259719   7.163   0.526   0.366
19945TIP3    H159720   7.185   0.499   0.276
19945TIP3    H259721   7.208   0.609   0.378
19946TIP3   OH259722   7.577   0.813   0.416
19946TIP3    H159723   7.639   0.764   0.469
19946TIP3    H259724   7.589   0.904   0.444
19947TIP3   OH259725   0.920   6.851   7.920
19947TIP3    H159726   1.000   6.874   7.872
19947TIP3    H259727   0.877   6.785   7.866
19948TIP3   OH259728   1.639   6.972   7.978
19948TIP3    H159729   1.632   6.877   7.968
19948TIP3    H259730   1.594   7.007   7.900
19949TIP3   OH259731   8.436   2.508   1.130
19949TIP3    H159732   8.367   2.466   1.078
19949TIP3    H259733   8.388   2.567   1.188
19950TIP3   OH259734   3.123   6.501   7.938
19950TIP3    H159735   3.090   6.588   7.913
19950TIP3    H259736   3.053   6.441   7.912
19951TIP3   OH259737   9.649   1.872   0.366
19951TIP3    H159738   9.703   1.855   0.443
19951TIP3    H259739   9.605   1.789   0.350
19952TIP3   OH259740   8.948   1.732   0.722
19952TIP3    H159741   8.986   1.679   0.791
19952TIP3    H259742   9.023   1.770   0.677
19953TIP3   OH259743   0.120   2.183   0.039
19953TIP3    H159744   0.109   2.116   0.106
19953TIP3    H259745   0.141   2.263   0.087
19954TIP3   OH259746   8.929   2.140   0.393
19954TIP3    H159747   8.919   2.045   0.394
19954TIP3    H259748   9.023   2.155   0.397
19955TIP3   OH259749   8.628   1.366   0.166
19955TIP3    H159750   8.590   1.448   0.197
19955TIP3    H259751   8.554   1.316   0.133
19956TIP3   OH259752   8.709   1.681   0.406
19956TIP3    H159753   8.758   1.602   0.430
19956TIP3    H259754   8.776   1.745   0.385
19957TIP3   OH259755   9.580   2.611   0.052
19957TIP3    H159756   9.605   2.544  -0.011
19957TIP3    H259757   9.581   2.566   0.137
19958TIP3   OH259758   9.461   2.095   0.367
19958TIP3    H159759   9.507   2.015   0.343
19958TIP3    H259760   9.530   2.153   0.400
19959TIP3   OH259761   0.692   1.412   0.385
19959TIP3    H159762   0.707   1.497   0.426
19959TIP3    H259763   0.715   1.426   0.293
19960TIP3   OH259764   0.061   1.579   0.404
19960TIP3    H159765   0.094   1.494   0.433
19960TIP3    H259766   0.028   1.562   0.315
19961TIP3   OH259767   9.221   1.243   0.363
19961TIP3    H159768   9.199   1.313   0.301
19961TIP3    H259769   9.166   1.169   0.336
19962TIP3   OH259770   3.384   5.961   7.999
19962TIP3    H159771   3.446   5.954   8.071
19962TIP3    H259772   3.436   5.994   7.925
19963TIP3   OH259773   8.849   1.457   0.486
19963TIP3    H159774   8.930   1.437   0.531
19963TIP3    H259775   8.851   1.403   0.407
19964TIP3   OH259776   9.263   1.652   0.302
19964TIP3    H159777   9.357   1.638   0.312
19964TIP3    H259778   9.230   1.569   0.269
19965TIP3   OH259779   0.746   1.639   0.541
19965TIP3    H159780   0.655   1.668   0.542
19965TIP3    H259781   0.782   1.671   0.623
19966TIP3   OH259782   9.204   1.242   0.811
19966TIP3    H159783   9.151   1.279   0.740
19966TIP3    H259784   9.151   1.255   0.890
19967TIP3   OH259785   3.018   6.720   7.803
19967TIP3    H159786   2.981   6.691   7.719
19967TIP3    H259787   2.964   6.796   7.827
19968TIP3   OH259788   9.296   2.017   0.575
19968TIP3    H159789   9.245   2.088   0.612
19968TIP3    H259790   9.347   2.057   0.504
19969TIP3   OH259791   0.272   1.367   0.220
19969TIP3    H159792   0.230   1.343   0.303
19969TIP3    H259793   0.328   1.441   0.242
19970TIP3   OH259794   9.092   1.354   0.583
19970TIP3    H159795   9.146   1.428   0.609
19970TIP3    H259796   9.142   1.311   0.513
19971TIP3   OH259797   9.144   2.220   0.681
19971TIP3    H159798   9.131   2.312   0.658
19971TIP3    H259799   9.069   2.198   0.737
19972TIP3   OH259800   1.976   6.541   7.941
19972TIP3    H159801   1.942   6.561   7.855
19972TIP3    H259802   2.002   6.626   7.977
19973TIP3   OH259803   0.153   2.433   0.175
19973TIP3    H159804   0.067   2.423   0.214
19973TIP3    H259805   0.150   2.517   0.130
19974TIP3   OH259806   0.490   1.302   0.550
19974TIP3    H159807   0.406   1.322   0.507
19974TIP3    H259808   0.556   1.329   0.486
19975TIP3   OH259809   9.542   0.936   0.544
19975TIP3    H159810   9.537   0.844   0.570
19975TIP3    H259811   9.465   0.977   0.583
19976TIP3   OH259812   3.130   7.076   7.838
19976TIP3    H159813   3.183   6.997   7.827
19976TIP3    H259814   3.188   7.147   7.808
19977TIP3   OH259815   3.269   6.846   7.795
19977TIP3    H159816   3.195   6.785   7.796
19977TIP3    H259817   3.320   6.824   7.873
19978TIP3   OH259818   0.394   2.315   0.520
19978TIP3    H159819   0.374   2.240   0.464
19978TIP3    H259820   0.378   2.392   0.465
19979TIP3   OH259821   2.951   6.336   7.791
19979TIP3    H159822   2.869   6.379   7.767
19979TIP3    H259823   3.001   6.331   7.710
19980TIP3   OH259824   2.925   6.152   7.476
19980TIP3    H159825   2.992   6.197   7.527
19980TIP3    H259826   2.970   6.079   7.435
19981TIP3   OH259827   0.567   1.976   0.383
19981TIP3    H159828   0.483   2.021   0.383
19981TIP3    H259829   0.601   1.989   0.294
19982TIP3   OH259830   3.312   6.433   7.752
19982TIP3    H159831   3.257   6.461   7.825
19982TIP3    H259832   3.394   6.405   7.793
19983TIP3   OH259833   0.268   1.837   0.700
19983TIP3    H159834   0.264   1.920   0.747
19983TIP3    H259835   0.186   1.834   0.651
19984TIP3   OH259836   9.072   1.790   0.150
19984TIP3    H159837   9.037   1.726   0.089
19984TIP3    H259838   9.144   1.745   0.194
19985TIP3   OH259839   9.201   2.205   0.300
19985TIP3    H159840   9.182   2.191   0.207
19985TIP3    H259841   9.289   2.169   0.312
19986TIP3   OH259842   9.162   1.783   0.529
19986TIP3    H159843   9.203   1.746   0.451
19986TIP3    H259844   9.211   1.864   0.545
19987TIP3   OH259845   9.716   2.418   0.307
19987TIP3    H159846   9.704   2.499   0.355
19987TIP3    H259847   9.701   2.349   0.372
19988TIP3   OH259848   9.342   2.314   0.854
19988TIP3    H159849   9.285   2.374   0.902
19988TIP3    H259850   9.282   2.266   0.797
19989TIP3   OH259851   3.143   6.290   7.588
19989TIP3    H159852   3.204   6.348   7.633
19989TIP3    H259853   3.172   6.292   7.496
19990TIP3   OH259854   9.108   1.880   0.962
19990TIP3    H159855   9.113   1.969   0.997
19990TIP3    H259856   9.016   1.856   0.971
19991TIP3   OH259857   2.881   6.959   7.833
19991TIP3    H159858   2.963   7.007   7.845
19991TIP3    H259859   2.823   7.022   7.792
19992TIP3   OH259860   9.142   2.483   0.946
19992TIP3    H159861   9.116   2.493   0.854
19992TIP3    H259862   9.063   2.454   0.991
19993TIP3   OH259863   3.640   5.517   7.643
19993TIP3    H159864   3.565   5.539   7.697
19993TIP3    H259865   3.652   5.593   7.585
19994TIP3   OH259866   2.397   6.250   7.955
19994TIP3    H159867   2.322   6.301   7.927
19994TIP3    H259868   2.360   6.180   8.009
19995TIP3   OH259869   3.469   6.886   7.209
19995TIP3    H159870   3.461   6.978   7.184
19995TIP3    H259871   3.557   6.861   7.183
19996TIP3   OH259872   8.735   2.003   0.875
19996TIP3    H159873   8.686   1.953   0.809
19996TIP3    H259874   8.778   1.937   0.928
19997TIP3   OH259875   8.664   2.193   0.486
19997TIP3    H159876   8.748   2.169   0.447
19997TIP3    H259877   8.686   2.260   0.551
19998TIP3   OH259878   0.627   2.685   0.591
19998TIP3    H159879   0.632   2.590   0.602
19998TIP3    H259880   0.547   2.710   0.638
19999TIP3   OH259881   9.531   2.453   0.714
19999TIP3    H159882   9.525   2.545   0.740
19999TIP3    H259883   9.462   2.409   0.763
20000TIP3   OH259884   2.777   7.180   7.675
20000TIP3    H159885   2.734   7.163   7.591
20000TIP3    H259886   2.739   7.262   7.705
20001TIP3   OH259887   8.751   2.407   0.032
20001TIP3    H159888   8.797   2.396   0.115
20001TIP3    H259889   8.699   2.327   0.023
20002TIP3   OH259890   2.980   7.116   7.296
20002TIP3    H159891   3.024   7.038   7.263
20002TIP3    H259892   3.015   7.128   7.385
20003TIP3   OH259893   3.029   7.155   7.568
20003TIP3    H159894   2.944   7.158   7.611
20003TIP3    H259895   3.089   7.121   7.635
20004TIP3   OH259896   0.519   1.787   0.849
20004TIP3    H159897   0.432   1.796   0.809
20004TIP3    H259898   0.535   1.693   0.850
20005TIP3   OH259899   8.936   2.202   0.856
20005TIP3    H159900   8.983   2.193   0.939
20005TIP3    H259901   8.863   2.140   0.863
20006TIP3   OH259902   9.306   1.026   0.668
20006TIP3    H159903   9.222   0.993   0.636
20006TIP3    H259904   9.284   1.106   0.716
20007TIP3   OH259905   0.048   1.154   0.870
20007TIP3    H159906   0.118   1.131   0.930
20007TIP3    H259907  -0.033   1.136   0.918
20008TIP3   OH259908   0.268   1.572   0.790
20008TIP3    H159909   0.228   1.566   0.876
20008TIP3    H259910   0.253   1.663   0.762
20009TIP3   OH259911   3.215   6.259   7.323
20009TIP3    H159912   3.169   6.262   7.239
20009TIP3    H259913   3.296   6.307   7.308
20010TIP3   OH259914   2.901   5.704   7.638
20010TIP3    H159915   2.885   5.706   7.732
20010TIP3    H259916   2.867   5.620   7.609
20011TIP3   OH259917   9.240   1.565   0.681
20011TIP3    H159918   9.196   1.570   0.766
20011TIP3    H259919   9.216   1.645   0.636
20012TIP3   OH259920   9.123   1.435   0.189
20012TIP3    H159921   9.036   1.406   0.216
20012TIP3    H259922   9.132   1.406   0.098
20013TIP3   OH259923   3.071   6.131   7.931
20013TIP3    H159924   3.026   6.205   7.890
20013TIP3    H259925   3.130   6.099   7.863
20014TIP3   OH259926  -0.006   1.782   0.998
20014TIP3    H159927  -0.034   1.715   1.060
20014TIP3    H259928   0.086   1.798   1.020
20015TIP3   OH259929   9.774   1.527   0.150
20015TIP3    H159930   9.704   1.547   0.087
20015TIP3    H259931   9.822   1.454   0.111
20016TIP3   OH259932   9.084   1.569   0.908
20016TIP3    H159933   9.110   1.625   0.981
20016TIP3    H259934   9.066   1.484   0.949
20017TIP3   OH259935   2.533   5.701   7.623
20017TIP3    H159936   2.556   5.686   7.715
20017TIP3    H259937   2.454   5.648   7.610
20018TIP3   OH259938   8.666   1.101   0.475
20018TIP3    H159939   8.742   1.132   0.524
20018TIP3    H259940   8.703   1.071   0.392
20019TIP3   OH259941   2.053   5.687   7.973
20019TIP3    H159942   2.110   5.724   7.906
20019TIP3    H259943   1.990   5.756   7.993
20020TIP3   OH259944   0.017   1.783   0.577
20020TIP3    H159945   0.040   1.715   0.514
20020TIP3    H259946  -0.027   1.735   0.648
20021TIP3   OH259947   9.493   1.229   0.262
20021TIP3    H159948   9.415   1.228   0.318
20021TIP3    H259949   9.566   1.216   0.323
20022TIP3   OH259950   8.886   1.312   0.252
20022TIP3    H159951   8.797   1.316   0.218
20022TIP3    H259952   8.910   1.220   0.247
20023TIP3   OH259953   2.631   5.949   7.934
20023TIP3    H159954   2.722   5.942   7.964
20023TIP3    H259955   2.636   6.005   7.856
20024TIP3   OH259956   0.133   1.315   0.458
20024TIP3    H159957   0.116   1.333   0.550
20024TIP3    H259958   0.066   1.251   0.433
20025TIP3   OH259959   2.439   5.964   7.606
20025TIP3    H159960   2.381   5.961   7.682
20025TIP3    H259961   2.494   5.886   7.614
20026TIP3   OH259962   0.343   3.024   0.680
20026TIP3    H159963   0.340   3.040   0.586
20026TIP3    H259964   0.421   3.071   0.710
20027TIP3   OH259965   9.090   2.128   1.089
20027TIP3    H159966   9.171   2.151   1.135
20027TIP3    H259967   9.024   2.121   1.158
20028TIP3   OH259968   9.534   1.602   0.359
20028TIP3    H159969   9.605   1.554   0.316
20028TIP3    H259970   9.531   1.566   0.447
20029TIP3   OH259971   9.031   1.062   0.251
20029TIP3    H159972   8.997   0.991   0.305
20029TIP3    H259973   9.068   1.019   0.174
20030TIP3   OH259974   9.508   1.511   0.623
20030TIP3    H159975   9.421   1.543   0.649
20030TIP3    H259976   9.569   1.562   0.677
20031TIP3   OH259977   2.715   6.468   7.725
20031TIP3    H159978   2.643   6.410   7.700
20031TIP3    H259979   2.684   6.513   7.803
20032TIP3   OH259980   0.332   2.114   0.341
20032TIP3    H159981   0.368   2.163   0.267
20032TIP3    H259982   0.254   2.072   0.307
20033TIP3   OH259983   3.164   5.795   7.646
20033TIP3    H159984   3.069   5.780   7.639
20033TIP3    H259985   3.172   5.889   7.658
20034TIP3   OH259986   9.655   2.193   0.760
20034TIP3    H159987   9.703   2.184   0.842
20034TIP3    H259988   9.614   2.280   0.765
20035TIP3   OH259989   3.235   6.056   7.715
20035TIP3    H159990   3.330   6.058   7.726
20035TIP3    H259991   3.216   6.135   7.664
20036TIP3   OH259992   8.932   1.857   0.382
20036TIP3    H159993   8.973   1.844   0.296
20036TIP3    H259994   8.998   1.829   0.445
20037TIP3   OH259995   2.875   6.639   7.573
20037TIP3    H159996   2.825   6.721   7.571
20037TIP3    H259997   2.822   6.579   7.625
20038TIP3   OH259998   8.847   1.813   1.044
20038TIP3    H159999   8.893   1.808   1.128
20038TIP3    H260000   8.791   1.735   1.043
20039TIP3   OH260001   9.558   1.930   1.036
20039TIP3    H160002   9.490   1.869   1.008
20039TIP3    H260003   9.640   1.888   1.008
20040TIP3   OH260004   9.801   2.485   0.642
20040TIP3    H160005   9.706   2.468   0.646
20040TIP3    H260006   9.822   2.520   0.729
20041TIP3   OH260007   3.643   6.143   7.530
20041TIP3    H160008   3.586   6.097   7.468
20041TIP3    H260009   3.651   6.232   7.494
20042TIP3   OH260010   0.638   2.407   0.608
20042TIP3    H160011   0.544   2.388   0.606
20042TIP3    H260012   0.670   2.372   0.525
20043TIP3   OH260013   3.393   6.967   7.473
20043TIP3    H160014   3.369   6.899   7.536
20043TIP3    H260015   3.414   6.919   7.393
20044TIP3   OH260016   0.105   1.978   0.237
20044TIP3    H160017   0.016   1.957   0.264
20044TIP3    H260018   0.139   1.896   0.201
20045TIP3   OH260019   9.065   2.212   0.050
20045TIP3    H160020   9.064   2.285  -0.012
20045TIP3    H260021   8.985   2.223   0.102
20046TIP3   OH260022   2.084   6.110   7.783
20046TIP3    H160023   2.124   6.195   7.800
20046TIP3    H260024   2.002   6.112   7.833
20047TIP3   OH260025   2.595   6.587   7.939
20047TIP3    H160026   2.584   6.676   7.972
20047TIP3    H260027   2.579   6.532   8.016
20048TIP3   OH260028   9.346   2.532   0.510
20048TIP3    H160029   9.380   2.607   0.460
20048TIP3    H260030   9.422   2.499   0.559
20049TIP3   OH260031   2.453   7.050   7.895
20049TIP3    H160032   2.365   7.055   7.932
20049TIP3    H260033   2.487   7.139   7.902
20050TIP3   OH260034   9.693   2.201   0.486
20050TIP3    H160035   9.678   2.197   0.580
20050TIP3    H260036   9.774   2.152   0.472
20051TIP3   OH260037   3.142   6.695   7.379
20051TIP3    H160038   3.213   6.668   7.437
20051TIP3    H260039   3.063   6.682   7.431
20052TIP3   OH260040   0.151   2.691   0.526
20052TIP3    H160041   0.084   2.627   0.547
20052TIP3    H260042   0.114   2.742   0.454
20053TIP3   OH260043   3.459   7.159   7.155
20053TIP3    H160044   3.465   7.213   7.076
20053TIP3    H260045   3.393   7.202   7.209
20054TIP3   OH260046   9.038   1.314   1.022
20054TIP3    H160047   8.943   1.323   1.031
20054TIP3    H260048   9.064   1.258   1.096
20055TIP3   OH260049   3.343   6.611   7.541
20055TIP3    H160050   3.327   6.559   7.619
20055TIP3    H260051   3.438   6.619   7.535
20056TIP3   OH260052   8.801   2.402   0.626
20056TIP3    H160053   8.845   2.346   0.691
20056TIP3    H260054   8.749   2.463   0.678
20057TIP3   OH260055   2.527   6.678   7.370
20057TIP3    H160056   2.608   6.630   7.351
20057TIP3    H260057   2.514   6.668   7.464
20058TIP3   OH260058   2.459   6.668   7.641
20058TIP3    H160059   2.506   6.646   7.722
20058TIP3    H260060   2.453   6.763   7.642
20059TIP3   OH260061   2.173   6.369   7.847
20059TIP3    H160062   2.108   6.416   7.899
20059TIP3    H260063   2.192   6.427   7.773
20060TIP3   OH260064   0.079   1.381   0.718
20060TIP3    H160065   0.155   1.428   0.753
20060TIP3    H260066   0.069   1.306   0.776
20061TIP3   OH260067   3.232   5.744   7.913
20061TIP3    H160068   3.211   5.762   7.821
20061TIP3    H260069   3.278   5.823   7.943
20062TIP3   OH260070   2.721   6.861   7.561
20062TIP3    H160071   2.636   6.881   7.601
20062TIP3    H260072   2.745   6.942   7.515
20063TIP3   OH260073   9.424   1.324   0.016
20063TIP3    H160074   9.487   1.391  -0.012
20063TIP3    H260075   9.449   1.302   0.105
20064TIP3   OH260076   9.717   1.618   0.775
20064TIP3    H160077   9.743   1.661   0.856
20064TIP3    H260078   9.767   1.536   0.775
20065TIP3   OH260079   9.589   1.018   0.095
20065TIP3    H160080   9.570   1.094   0.150
20065TIP3    H260081   9.658   1.048   0.036
20066TIP3   OH260082   2.470   6.940   7.646
20066TIP3    H160083   2.447   7.010   7.585
20066TIP3    H260084   2.462   6.980   7.733
20067TIP3   OH260085   2.579   5.672   7.894
20067TIP3    H160086   2.574   5.762   7.923
20067TIP3    H260087   2.671   5.649   7.901
20068TIP3   OH260088   0.527   1.503   0.750
20068TIP3    H160089   0.435   1.521   0.768
20068TIP3    H260090   0.526   1.436   0.682
20069TIP3   OH260091   0.196   1.719   0.151
20069TIP3    H160092   0.119   1.662   0.163
20069TIP3    H260093   0.263   1.680   0.207
20070TIP3   OH260094   2.205   6.541   7.632
20070TIP3    H160095   2.272   6.609   7.640
20070TIP3    H260096   2.237   6.485   7.561
20071TIP3   OH260097   2.145   5.841   7.753
20071TIP3    H160098   2.122   5.932   7.770
20071TIP3    H260099   2.069   5.805   7.707
20072TIP3   OH260100   0.174   2.701   0.089
20072TIP3    H160101   0.136   2.752   0.018
20072TIP3    H260102   0.269   2.710   0.078
20073TIP3   OH260103   9.045   0.944   0.624
20073TIP3    H160104   9.013   0.910   0.540
20073TIP3    H260105   9.036   0.871   0.684
20074TIP3   OH260106   8.572   2.185   0.015
20074TIP3    H160107   8.534   2.225   0.093
20074TIP3    H260108   8.525   2.225  -0.058
20075TIP3   OH260109   8.847   2.690   1.078
20075TIP3    H160110   8.879   2.723   1.162
20075TIP3    H260111   8.875   2.598   1.076
20076TIP3   OH260112   9.209   2.673   1.140
20076TIP3    H160113   9.299   2.654   1.168
20076TIP3    H260114   9.190   2.605   1.075
20077TIP3   OH260115   2.657   6.891   7.248
20077TIP3    H160116   2.609   6.823   7.296
20077TIP3    H260117   2.729   6.844   7.205
20078TIP3   OH260118   0.058   2.581   0.892
20078TIP3    H160119   0.073   2.514   0.958
20078TIP3    H260120   0.130   2.644   0.905
20079TIP3   OH260121   3.093   6.890   7.187
20079TIP3    H160122   3.131   6.829   7.250
20079TIP3    H260123   3.152   6.885   7.112
20080TIP3   OH260124   8.900   2.115   1.287
20080TIP3    H160125   8.886   2.046   1.351
20080TIP3    H260126   8.818   2.117   1.237
20081TIP3   OH260127   2.345   6.374   7.461
20081TIP3    H160128   2.401   6.351   7.535
20081TIP3    H260129   2.402   6.423   7.402
20082TIP3   OH260130   9.501   2.205   1.051
20082TIP3    H160131   9.453   2.227   0.971
20082TIP3    H260132   9.532   2.116   1.037
20083TIP3   OH260133   2.787   6.574   7.318
20083TIP3    H160134   2.828   6.588   7.404
20083TIP3    H260135   2.810   6.484   7.296
20084TIP3   OH260136   0.167   2.259   0.670
20084TIP3    H160137   0.245   2.288   0.623
20084TIP3    H260138   0.104   2.330   0.657
20085TIP3   OH260139   9.024   1.812   1.262
20085TIP3    H160140   9.117   1.809   1.238
20085TIP3    H260141   9.023   1.863   1.344
20086TIP3   OH260142   2.499   6.284   7.689
20086TIP3    H160143   2.469   6.281   7.780
20086TIP3    H260144   2.514   6.192   7.667
20087TIP3   OH260145   9.353   1.757   0.934
20087TIP3    H160146   9.269   1.803   0.941
20087TIP3    H260147   9.388   1.785   0.850
20088TIP3   OH260148   0.045   2.141   1.030
20088TIP3    H160149   0.114   2.104   0.975
20088TIP3    H260150   0.041   2.084   1.106
20089TIP3   OH260151   3.429   6.402   7.219
20089TIP3    H160152   3.420   6.363   7.132
20089TIP3    H260153   3.401   6.493   7.207
20090TIP3   OH260154   9.455   1.530   1.048
20090TIP3    H160155   9.457   1.457   0.985
20090TIP3    H260156   9.419   1.603   0.998
20091TIP3   OH260157   9.461   1.331   0.846
20091TIP3    H160158   9.487   1.370   0.763
20091TIP3    H260159   9.371   1.303   0.832
20092TIP3   OH260160   9.471   1.854   0.711
20092TIP3    H160161   9.557   1.895   0.706
20092TIP3    H260162   9.413   1.914   0.664
20093TIP3   OH260163   0.258   1.816   1.104
20093TIP3    H160164   0.304   1.733   1.115
20093TIP3    H260165   0.328   1.881   1.098
20094TIP3   OH260166   0.287   2.082   0.838
20094TIP3    H160167   0.233   2.143   0.787
20094TIP3    H260168   0.376   2.097   0.807
20095TIP3   OH260169   9.337   1.630   1.283
20095TIP3    H160170   9.273   1.563   1.306
20095TIP3    H260171   9.373   1.601   1.200
20096TIP3   OH260172   9.582   1.098   0.943
20096TIP3    H160173   9.541   1.179   0.912
20096TIP3    H260174   9.515   1.031   0.933
20097TIP3   OH260175   9.707   1.575   1.152
20097TIP3    H160176   9.694   1.565   1.247
20097TIP3    H260177   9.622   1.552   1.114
20098TIP3   OH260178   0.150   1.521   1.026
20098TIP3    H160179   0.072   1.523   1.081
20098TIP3    H260180   0.221   1.498   1.085
20099TIP3   OH260181   0.390   1.491   1.169
20099TIP3    H160182   0.404   1.397   1.179
20099TIP3    H260183   0.386   1.524   1.259
20100TIP3   OH260184   9.187   1.401   1.334
20100TIP3    H160185   9.190   1.314   1.294
20100TIP3    H260186   9.231   1.390   1.418
20101TIP3   OH260187   9.654   1.081   1.205
20101TIP3    H160188   9.723   1.015   1.202
20101TIP3    H260189   9.623   1.088   1.115
20102TIP3   OH260190   9.744   1.303   1.341
20102TIP3    H160191   9.713   1.230   1.287
20102TIP3    H260192   9.670   1.364   1.344
20103TIP3   OH260193   2.462   7.153   7.468
20103TIP3    H160194   2.555   7.144   7.446
20103TIP3    H260195   2.423   7.198   7.393
20104TIP3   OH260196   1.932   6.545   7.652
20104TIP3    H160197   2.026   6.557   7.648
20104TIP3    H260198   1.917   6.461   7.609
20105TIP3   OH260199   8.398   2.485   0.065
20105TIP3    H160200   8.319   2.448   0.026
20105TIP3    H260201   8.424   2.421   0.132
20106TIP3   OH260202   8.526   2.320   0.259
20106TIP3    H160203   8.540   2.253   0.326
20106TIP3    H260204   8.576   2.396   0.290
20107TIP3   OH260205   0.448   2.742   0.087
20107TIP3    H160206   0.467   2.763   0.178
20107TIP3    H260207   0.505   2.800   0.036
20108TIP3   OH260208   0.476   2.764   0.364
20108TIP3    H160209   0.426   2.682   0.362
20108TIP3    H260210   0.542   2.750   0.432
20109TIP3   OH260211   0.520   2.476   0.926
20109TIP3    H160212   0.447   2.483   0.988
20109TIP3    H260213   0.565   2.560   0.933
20110TIP3   OH260214   3.620   6.612   7.543
20110TIP3    H160215   3.677   6.683   7.516
20110TIP3    H260216   3.663   6.573   7.620
20111TIP3   OH260217   3.738   6.468   7.749
20111TIP3    H160218   3.671   6.430   7.805
20111TIP3    H260219   3.804   6.503   7.809
20112TIP3   OH260220   0.515   2.253   0.180
20112TIP3    H160221   0.568   2.185   0.139
20112TIP3    H260222   0.517   2.326   0.118
20113TIP3   OH260223   0.323   2.535   0.371
20113TIP3    H160224   0.257   2.580   0.424
20113TIP3    H260225   0.273   2.495   0.299
20114TIP3   OH260226   3.641   6.383   7.393
20114TIP3    H160227   3.566   6.384   7.333
20114TIP3    H260228   3.630   6.462   7.446
20115TIP3   OH260229   3.485   6.028   7.337
20115TIP3    H160230   3.446   6.064   7.257
20115TIP3    H260231   3.484   5.933   7.324
20116TIP3   OH260232   3.535   6.329   7.885
20116TIP3    H160233   3.540   6.234   7.871
20116TIP3    H260234   3.515   6.338   7.978
20117TIP3   OH260235   8.691   1.790   0.658
20117TIP3    H160236   8.681   1.750   0.572
20117TIP3    H260237   8.783   1.776   0.680
20118TIP3   OH260238   0.544   2.127   0.742
20118TIP3    H160239   0.612   2.062   0.728
20118TIP3    H260240   0.555   2.190   0.671
20119TIP3   OH260241   0.726   1.920   0.732
20119TIP3    H160242   0.652   1.876   0.773
20119TIP3    H260243   0.801   1.864   0.752
20120TIP3   OH260244   3.460   5.754   7.300
20120TIP3    H160245   3.524   5.734   7.368
20120TIP3    H260246   3.377   5.720   7.334
20121TIP3   OH260247   3.524   6.051   7.770
20121TIP3    H160248   3.571   5.968   7.783
20121TIP3    H260249   3.565   6.089   7.692
20122TIP3   OH260250   0.410   1.598   0.292
20122TIP3    H160251   0.492   1.614   0.244
20122TIP3    H260252   0.425   1.638   0.377
20123TIP3   OH260253   0.483   1.748   0.518
20123TIP3    H160254   0.413   1.776   0.576
20123TIP3    H260255   0.514   1.829   0.476
20124TIP3   OH260256   8.923   1.461   1.316
20124TIP3    H160257   9.017   1.448   1.321
20124TIP3    H260258   8.886   1.374   1.329
20125TIP3   OH260259   0.938   1.342   1.049
20125TIP3    H160260   1.007   1.284   1.017
20125TIP3    H260261   0.910   1.391   0.972
20126TIP3   OH260262   3.640   5.802   7.823
20126TIP3    H160263   3.686   5.788   7.906
20126TIP3    H260264   3.578   5.730   7.818
20127TIP3   OH260265   8.883   1.167   0.632
20127TIP3    H160266   8.936   1.088   0.644
20127TIP3    H260267   8.948   1.238   0.623
20128TIP3   OH260268   8.665   1.417   0.700
20128TIP3    H160269   8.720   1.420   0.622
20128TIP3    H260270   8.697   1.489   0.755
20129TIP3   OH260271   0.794   1.480   0.864
20129TIP3    H160272   0.731   1.518   0.926
20129TIP3    H260273   0.740   1.425   0.807
20130TIP3   OH260274   3.683   5.716   7.458
20130TIP3    H160275   3.731   5.655   7.401
20130TIP3    H260276   3.740   5.792   7.465
20131TIP3   OH260277   8.646   0.959   0.217
20131TIP3    H160278   8.560   0.941   0.255
20131TIP3    H260279   8.627   1.003   0.134
20132TIP3   OH260280   3.272   7.276   7.729
20132TIP3    H160281   3.332   7.268   7.654
20132TIP3    H260282   3.311   7.345   7.783
20133TIP3   OH260283   8.878   1.008   1.028
20133TIP3    H160284   8.824   0.992   1.105
20133TIP3    H260285   8.818   1.046   0.964
20134TIP3   OH260286   8.920   2.424   1.099
20134TIP3    H160287   8.833   2.402   1.064
20134TIP3    H260288   8.918   2.390   1.189
20135TIP3   OH260289   9.120   2.493   0.663
20135TIP3    H160290   9.058   2.553   0.621
20135TIP3    H260291   9.203   2.510   0.618
20136TIP3   OH260292   9.528   2.719   0.780
20136TIP3    H160293   9.559   2.714   0.871
20136TIP3    H260294   9.592   2.775   0.736
20137TIP3   OH260295   9.717   2.880   0.664
20137TIP3    H160296   9.784   2.826   0.621
20137TIP3    H260297   9.766   2.938   0.721
20138TIP3   OH260298   0.704   1.213   0.756
20138TIP3    H160299   0.617   1.204   0.716
20138TIP3    H260300   0.742   1.125   0.750
20139TIP3   OH260301   8.885   2.743   0.686
20139TIP3    H160302   8.806   2.691   0.698
20139TIP3    H260303   8.897   2.788   0.770
20140TIP3   OH260304   9.059   2.714   0.487
20140TIP3    H160305   8.991   2.729   0.552
20140TIP3    H260306   9.020   2.743   0.404
20141TIP3   OH260307   9.424   2.743   0.346
20141TIP3    H160308   9.354   2.754   0.282
20141TIP3    H260309   9.435   2.830   0.385
20142TIP3   OH260310   9.686   2.678   0.392
20142TIP3    H160311   9.594   2.699   0.377
20142TIP3    H260312   9.735   2.750   0.351
20143TIP3   OH260313   0.089   2.853   0.303
20143TIP3    H160314   0.077   2.940   0.264
20143TIP3    H260315   0.116   2.797   0.230
20144TIP3   OH260316   8.700   2.506   0.386
20144TIP3    H160317   8.734   2.485   0.473
20144TIP3    H260318   8.771   2.482   0.327
20145TIP3   OH260319   8.907   2.381   0.256
20145TIP3    H160320   8.912   2.305   0.313
20145TIP3    H260321   8.990   2.426   0.268
20146TIP3   OH260322   9.164   2.485   0.297
20146TIP3    H160323   9.190   2.393   0.293
20146TIP3    H260324   9.204   2.518   0.377
20147TIP3   OH260325   9.718   1.129   0.393
20147TIP3    H160326   9.678   1.057   0.442
20147TIP3    H260327   9.787   1.086   0.342
20148TIP3   OH260328   0.420   1.058   0.283
20148TIP3    H160329   0.455   1.107   0.208
20148TIP3    H260330   0.326   1.078   0.282
20149TIP3   OH260331   0.531   1.133   0.043
20149TIP3    H160332   0.599   1.071   0.019
20149TIP3    H260333   0.571   1.219   0.029
20150TIP3   OH260334   8.949   0.837   0.389
20150TIP3    H160335   8.861   0.801   0.402
20150TIP3    H260336   9.006   0.760   0.382
20151TIP3   OH260337   8.767   0.756   0.062
20151TIP3    H160338   8.796   0.804  -0.016
20151TIP3    H260339   8.735   0.824   0.121
20152TIP3   OH260340   9.430   0.882   0.286
20152TIP3    H160341   9.485   0.924   0.219
20152TIP3    H260342   9.471   0.905   0.369
20153TIP3   OH260343   0.133   1.012   0.262
20153TIP3    H160344   0.155   0.975   0.176
20153TIP3    H260345   0.140   0.939   0.322
20154TIP3   OH260346   3.453   5.593   7.830
20154TIP3    H160347   3.373   5.639   7.857
20154TIP3    H260348   3.444   5.506   7.867
20155TIP3   OH260349   1.916   6.912   7.797
20155TIP3    H160350   1.832   6.888   7.756
20155TIP3    H260351   1.933   7.001   7.765
20156TIP3   OH260352   2.365   5.504   7.814
20156TIP3    H160353   2.405   5.425   7.779
20156TIP3    H260354   2.437   5.550   7.858
20157TIP3   OH260355   2.853   5.695   7.908
20157TIP3    H160356   2.908   5.637   7.960
20157TIP3    H260357   2.871   5.783   7.943
20158TIP3   OH260358   2.726   7.101   7.406
20158TIP3    H160359   2.810   7.128   7.368
20158TIP3    H260360   2.692   7.036   7.344
20159TIP3   OH260361   3.430   7.237   7.503
20159TIP3    H160362   3.423   7.142   7.498
20159TIP3    H260363   3.385   7.269   7.425
20160TIP3   OH260364   9.187   1.134   1.249
20160TIP3    H160365   9.147   1.073   1.311
20160TIP3    H260366   9.280   1.136   1.275
20161TIP3   OH260367   9.436   1.120   1.369
20161TIP3    H160368   9.515   1.106   1.317
20161TIP3    H260369   9.434   1.046   1.430
20162TIP3   OH260370   2.020   6.930   7.445
20162TIP3    H160371   2.012   6.964   7.534
20162TIP3    H260372   2.103   6.883   7.445
20163TIP3   OH260373   0.454   1.220   1.185
20163TIP3    H160374   0.473   1.190   1.274
20163TIP3    H260375   0.538   1.216   1.140
20164TIP3   OH260376   0.376   2.750   0.684
20164TIP3    H160377   0.299   2.720   0.635
20164TIP3    H260378   0.363   2.844   0.693
20165TIP3   OH260379   4.921   6.761   7.421
20165TIP3    H160380   4.883   6.846   7.400
20165TIP3    H260381   4.853   6.698   7.399
20166TIP3   OH260382   4.856   6.740   7.909
20166TIP3    H160383   4.944   6.723   7.942
20166TIP3    H260384   4.827   6.656   7.873
20167TIP3   OH260385   0.943   1.987   0.192
20167TIP3    H160386   0.981   1.936   0.263
20167TIP3    H260387   1.017   2.010   0.136
20168TIP3   OH260388   5.177   7.071   7.507
20168TIP3    H160389   5.108   7.034   7.562
20168TIP3    H260390   5.208   7.148   7.555
20169TIP3   OH260391   4.202   7.039   7.880
20169TIP3    H160392   4.184   6.945   7.887
20169TIP3    H260393   4.297   7.045   7.870
20170TIP3   OH260394   3.887   6.242   7.665
20170TIP3    H160395   3.846   6.325   7.689
20170TIP3    H260396   3.816   6.192   7.625
20171TIP3   OH260397   3.968   6.551   7.890
20171TIP3    H160398   4.018   6.474   7.916
20171TIP3    H260399   4.034   6.614   7.863
20172TIP3   OH260400   4.841   7.483   7.534
20172TIP3    H160401   4.866   7.421   7.466
20172TIP3    H260402   4.839   7.432   7.614
20173TIP3   OH260403   4.707   6.974   7.860
20173TIP3    H160404   4.747   6.887   7.856
20173TIP3    H260405   4.779   7.033   7.884
20174TIP3   OH260406   5.732   6.268   7.860
20174TIP3    H160407   5.751   6.345   7.913
20174TIP3    H260408   5.782   6.281   7.780
20175TIP3   OH260409   5.181   6.465   7.854
20175TIP3    H160410   5.191   6.376   7.889
20175TIP3    H260411   5.118   6.455   7.782
20176TIP3   OH260412   4.485   6.114   7.845
20176TIP3    H160413   4.461   6.186   7.787
20176TIP3    H260414   4.430   6.041   7.817
20177TIP3   OH260415   5.189   6.235   7.498
20177TIP3    H160416   5.261   6.230   7.561
20177TIP3    H260417   5.230   6.261   7.416
20178TIP3   OH260418   4.108   6.329   7.980
20178TIP3    H160419   4.191   6.309   8.023
20178TIP3    H260420   4.110   6.278   7.899
20179TIP3   OH260421   4.525   6.526   7.796
20179TIP3    H160422   4.619   6.509   7.800
20179TIP3    H260423   4.488   6.446   7.761
20180TIP3   OH260424   2.534   1.849   0.035
20180TIP3    H160425   2.514   1.933   0.078
20180TIP3    H260426   2.628   1.838   0.048
20181TIP3   OH260427   1.196   1.498   0.300
20181TIP3    H160428   1.146   1.531   0.225
20181TIP3    H260429   1.139   1.513   0.375
20182TIP3   OH260430   4.781   6.970   7.314
20182TIP3    H160431   4.754   6.948   7.224
20182TIP3    H260432   4.737   7.053   7.332
20183TIP3   OH260433   1.279   2.275   0.068
20183TIP3    H160434   1.226   2.346   0.104
20183TIP3    H260435   1.328   2.315  -0.004
20184TIP3   OH260436   5.374   6.235   7.711
20184TIP3    H160437   5.319   6.210   7.785
20184TIP3    H260438   5.448   6.173   7.714
20185TIP3   OH260439   1.090   1.604   0.067
20185TIP3    H160440   1.145   1.679   0.090
20185TIP3    H260441   1.136   1.562  -0.006
20186TIP3   OH260442   1.131   2.483   0.172
20186TIP3    H160443   1.117   2.573   0.143
20186TIP3    H260444   1.053   2.462   0.223
20187TIP3   OH260445   3.786   6.806   7.428
20187TIP3    H160446   3.750   6.824   7.341
20187TIP3    H260447   3.808   6.893   7.462
20188TIP3   OH260448   5.218   7.308   7.656
20188TIP3    H160449   5.132   7.300   7.698
20188TIP3    H260450   5.214   7.391   7.610
20189TIP3   OH260451   2.300   1.523   0.050
20189TIP3    H160452   2.210   1.529   0.018
20189TIP3    H260453   2.354   1.552  -0.024
20190TIP3   OH260454   1.559   1.196   0.043
20190TIP3    H160455   1.546   1.103   0.061
20190TIP3    H260456   1.482   1.239   0.078
20191TIP3   OH260457   4.927   7.332   7.315
20191TIP3    H160458   4.978   7.253   7.298
20191TIP3    H260459   4.985   7.404   7.290
20192TIP3   OH260460   5.084   7.120   7.251
20192TIP3    H160461   5.089   7.042   7.196
20192TIP3    H260462   5.125   7.095   7.334
20193TIP3   OH260463   5.449   7.188   7.938
20193TIP3    H160464   5.483   7.151   7.856
20193TIP3    H260465   5.422   7.277   7.915
20194TIP3   OH260466   4.744   6.595   7.281
20194TIP3    H160467   4.661   6.638   7.264
20194TIP3    H260468   4.788   6.592   7.197
20195TIP3   OH260469   4.715   6.402   6.962
20195TIP3    H160470   4.780   6.451   7.012
20195TIP3    H260471   4.765   6.331   6.921
20196TIP3   OH260472   5.567   6.829   7.773
20196TIP3    H160473   5.510   6.906   7.779
20196TIP3    H260474   5.646   6.862   7.730
20197TIP3   OH260475   5.106   6.687   7.234
20197TIP3    H160476   5.050   6.716   7.306
20197TIP3    H260477   5.186   6.657   7.276
20198TIP3   OH260478   2.059   2.089   0.187
20198TIP3    H160479   2.057   2.176   0.227
20198TIP3    H260480   1.981   2.086   0.132
20199TIP3   OH260481   4.327   6.662   7.644
20199TIP3    H160482   4.290   6.602   7.580
20199TIP3    H260483   4.399   6.613   7.683
20200TIP3   OH260484   4.462   7.092   7.784
20200TIP3    H160485   4.439   7.076   7.692
20200TIP3    H260486   4.548   7.051   7.795
20201TIP3   OH260487   4.422   6.655   8.019
20201TIP3    H160488   4.462   6.620   7.939
20201TIP3    H260489   4.469   6.738   8.034
20202TIP3   OH260490   4.985   7.292   7.794
20202TIP3    H160491   4.967   7.373   7.840
20202TIP3    H260492   4.967   7.223   7.858
20203TIP3   OH260493   1.331   2.576   0.342
20203TIP3    H160494   1.269   2.633   0.388
20203TIP3    H260495   1.275   2.525   0.282
20204TIP3   OH260496   4.932   6.546   7.072
20204TIP3    H160497   4.992   6.603   7.119
20204TIP3    H260498   4.958   6.553   6.980
20205TIP3   OH260499   1.084   2.115   0.485
20205TIP3    H160500   1.090   2.208   0.509
20205TIP3    H260501   0.990   2.098   0.479
20206TIP3   OH260502   4.672   7.227   7.333
20206TIP3    H160503   4.759   7.266   7.333
20206TIP3    H260504   4.619   7.286   7.280
20207TIP3   OH260505   1.123   2.734   0.430
20207TIP3    H160506   1.095   2.746   0.340
20207TIP3    H260507   1.042   2.718   0.479
20208TIP3   OH260508   5.444   5.771   7.136
20208TIP3    H160509   5.367   5.793   7.188
20208TIP3    H260510   5.456   5.845   7.077
20209TIP3   OH260511   4.201   6.503   7.445
20209TIP3    H160512   4.122   6.546   7.414
20209TIP3    H260513   4.176   6.412   7.459
20210TIP3   OH260514   5.269   7.148   6.686
20210TIP3    H160515   5.264   7.241   6.662
20210TIP3    H260516   5.359   7.123   6.666
20211TIP3   OH260517   0.718   2.289   0.375
20211TIP3    H160518   0.647   2.272   0.313
20211TIP3    H260519   0.751   2.203   0.399
20212TIP3   OH260520   0.559   2.489   0.028
20212TIP3    H160521   0.650   2.513   0.049
20212TIP3    H260522   0.507   2.564   0.057
20213TIP3   OH260523   2.388   2.906   0.078
20213TIP3    H160524   2.388   2.813   0.100
20213TIP3    H260525   2.310   2.941   0.122
20214TIP3   OH260526   1.522   2.718   0.205
20214TIP3    H160527   1.512   2.810   0.231
20214TIP3    H260528   1.452   2.672   0.252
20215TIP3   OH260529   4.570   7.437   7.158
20215TIP3    H160530   4.527   7.414   7.075
20215TIP3    H260531   4.530   7.520   7.183
20216TIP3   OH260532   4.002   7.301   7.537
20216TIP3    H160533   4.046   7.291   7.621
20216TIP3    H260534   3.952   7.221   7.526
20217TIP3   OH260535   4.771   7.371   6.784
20217TIP3    H160536   4.820   7.297   6.749
20217TIP3    H260537   4.807   7.385   6.871
20218TIP3   OH260538   4.824   7.415   7.053
20218TIP3    H160539   4.738   7.418   7.095
20218TIP3    H260540   4.882   7.375   7.119
20219TIP3   OH260541   2.283   2.061   0.370
20219TIP3    H160542   2.201   2.065   0.320
20219TIP3    H260543   2.310   1.970   0.364
20220TIP3   OH260544   0.913   2.481   0.341
20220TIP3    H160545   0.965   2.468   0.420
20220TIP3    H260546   0.842   2.416   0.348
20221TIP3   OH260547   1.310   1.284   0.156
20221TIP3    H160548   1.228   1.247   0.122
20221TIP3    H260549   1.282   1.362   0.204
20222TIP3   OH260550   1.832   1.395   0.366
20222TIP3    H160551   1.878   1.391   0.450
20222TIP3    H260552   1.739   1.385   0.389
20223TIP3   OH260553   2.066   1.818   0.257
20223TIP3    H160554   2.027   1.812   0.344
20223TIP3    H260555   2.052   1.909   0.231
20224TIP3   OH260556   5.009   6.549   6.812
20224TIP3    H160557   4.964   6.539   6.728
20224TIP3    H260558   5.094   6.587   6.789
20225TIP3   OH260559   4.729   5.962   7.134
20225TIP3    H160560   4.674   5.957   7.212
20225TIP3    H260561   4.700   5.888   7.080
20226TIP3   OH260562   1.242   1.816   0.166
20226TIP3    H160563   1.194   1.822   0.249
20226TIP3    H260564   1.219   1.897   0.119
20227TIP3   OH260565   4.386   6.314   7.685
20227TIP3    H160566   4.297   6.289   7.710
20227TIP3    H260567   4.395   6.284   7.595
20228TIP3   OH260568   4.863   6.387   7.416
20228TIP3    H160569   4.816   6.461   7.377
20228TIP3    H260570   4.923   6.358   7.347
20229TIP3   OH260571   1.788   2.033   0.496
20229TIP3    H160572   1.761   1.962   0.554
20229TIP3    H260573   1.881   2.046   0.516
20230TIP3   OH260574   5.004   6.381   7.655
20230TIP3    H160575   4.944   6.406   7.585
20230TIP3    H260576   5.065   6.319   7.615
20231TIP3   OH260577   1.079   1.834   0.386
20231TIP3    H160578   1.081   1.901   0.455
20231TIP3    H260579   1.058   1.753   0.431
20232TIP3   OH260580   4.410   5.917   7.095
20232TIP3    H160581   4.364   5.926   7.178
20232TIP3    H260582   4.342   5.892   7.032
20233TIP3   OH260583   3.936   5.970   7.966
20233TIP3    H160584   4.009   6.004   8.018
20233TIP3    H260585   3.975   5.946   7.882
20234TIP3   OH260586   3.834   5.948   7.480
20234TIP3    H160587   3.881   5.983   7.404
20234TIP3    H260588   3.769   6.015   7.501
20235TIP3   OH260589   1.829   2.033   0.037
20235TIP3    H160590   1.860   1.969  -0.028
20235TIP3    H260591   1.786   1.979   0.104
20236TIP3   OH260592   4.752   6.106   7.742
20236TIP3    H160593   4.672   6.105   7.794
20236TIP3    H260594   4.823   6.102   7.806
20237TIP3   OH260595   4.147   6.190   7.747
20237TIP3    H160596   4.059   6.195   7.709
20237TIP3    H260597   4.174   6.100   7.731
20238TIP3   OH260598   4.397   6.200   7.436
20238TIP3    H160599   4.492   6.201   7.425
20238TIP3    H260600   4.362   6.212   7.348
20239TIP3   OH260601   5.191   6.202   7.940
20239TIP3    H160602   5.173   6.218   8.033
20239TIP3    H260603   5.122   6.142   7.913
20240TIP3   OH260604   4.288   6.218   7.185
20240TIP3    H160605   4.224   6.169   7.134
20240TIP3    H260606   4.344   6.261   7.120
20241TIP3   OH260607   2.090   3.265   0.142
20241TIP3    H160608   2.083   3.281   0.048
20241TIP3    H260609   2.173   3.306   0.167
20242TIP3   OH260610   1.074   2.389   0.572
20242TIP3    H160611   1.153   2.411   0.621
20242TIP3    H260612   1.003   2.397   0.636
20243TIP3   OH260613   4.799   6.470   7.844
20243TIP3    H160614   4.865   6.426   7.789
20243TIP3    H260615   4.799   6.420   7.925
20244TIP3   OH260616   4.290   5.941   7.734
20244TIP3    H160617   4.261   5.866   7.786
20244TIP3    H260618   4.307   5.905   7.647
20245TIP3   OH260619   1.507   1.757   0.110
20245TIP3    H160620   1.418   1.789   0.129
20245TIP3    H260621   1.565   1.817   0.157
20246TIP3   OH260622   4.504   6.726   7.224
20246TIP3    H160623   4.430   6.672   7.199
20246TIP3    H260624   4.476   6.769   7.305
20247TIP3   OH260625   4.982   6.051   7.143
20247TIP3    H160626   4.889   6.028   7.138
20247TIP3    H260627   4.983   6.147   7.149
20248TIP3   OH260628   1.653   2.465   0.240
20248TIP3    H160629   1.689   2.454   0.328
20248TIP3    H260630   1.607   2.549   0.243
20249TIP3   OH260631   5.033   6.319   7.203
20249TIP3    H160632   5.128   6.323   7.204
20249TIP3    H260633   5.006   6.393   7.147
20250TIP3   OH260634   4.195   6.750   7.871
20250TIP3    H160635   4.233   6.730   7.786
20250TIP3    H260636   4.260   6.718   7.934
20251TIP3   OH260637   4.658   6.890   7.069
20251TIP3    H160638   4.609   6.972   7.066
20251TIP3    H260639   4.603   6.831   7.121
20252TIP3   OH260640   0.809   2.051   0.501
20252TIP3    H160641   0.805   2.023   0.592
20252TIP3    H260642   0.734   2.008   0.459
20253TIP3   OH260643   1.572   2.205   0.511
20253TIP3    H160644   1.492   2.155   0.498
20253TIP3    H260645   1.642   2.143   0.495
20254TIP3   OH260646   1.795   2.736   0.123
20254TIP3    H160647   1.701   2.720   0.130
20254TIP3    H260648   1.820   2.774   0.207
20255TIP3   OH260649   5.440   6.404   7.014
20255TIP3    H160650   5.381   6.360   6.952
20255TIP3    H260651   5.449   6.493   6.978
20256TIP3   OH260652   2.405   2.623   0.087
20256TIP3    H160653   2.314   2.613   0.058
20256TIP3    H260654   2.458   2.607   0.009
20257TIP3   OH260655   5.185   7.220   6.944
20257TIP3    H160656   5.157   7.146   6.999
20257TIP3    H260657   5.208   7.179   6.860
20258TIP3   OH260658   4.321   7.090   7.541
20258TIP3    H160659   4.318   7.166   7.483
20258TIP3    H260660   4.230   7.079   7.569
20259TIP3   OH260661   3.869   6.373   7.239
20259TIP3    H160662   3.915   6.452   7.265
20259TIP3    H260663   3.792   6.370   7.296
20260TIP3   OH260664   4.399   6.844   7.444
20260TIP3    H160665   4.386   6.933   7.476
20260TIP3    H260666   4.376   6.788   7.518
20261TIP3   OH260667   4.603   7.413   8.000
20261TIP3    H160668   4.639   7.486   7.949
20261TIP3    H260669   4.679   7.378   8.048
20262TIP3   OH260670   4.237   7.316   7.393
20262TIP3    H160671   4.150   7.321   7.433
20262TIP3    H260672   4.271   7.406   7.398
20263TIP3   OH260673   4.945   7.075   7.968
20263TIP3    H160674   4.937   7.078   8.063
20263TIP3    H260675   5.003   7.001   7.951
20264TIP3   OH260676   4.957   6.958   6.847
20264TIP3    H160677   4.999   6.939   6.932
20264TIP3    H260678   4.874   6.910   6.850
20265TIP3   OH260679   5.195   7.580   8.008
20265TIP3    H160680   5.126   7.515   8.018
20265TIP3    H260681   5.166   7.635   7.934
20266TIP3   OH260682   5.261   7.420   6.642
20266TIP3    H160683   5.273   7.476   6.565
20266TIP3    H260684   5.193   7.463   6.693
20267TIP3   OH260685   1.020   1.582   0.500
20267TIP3    H160686   0.925   1.592   0.502
20267TIP3    H260687   1.041   1.537   0.582
20268TIP3   OH260688   5.129   6.908   7.068
20268TIP3    H160689   5.111   6.832   7.122
20268TIP3    H260690   5.222   6.902   7.047
20269TIP3   OH260691   0.767   2.676   0.158
20269TIP3    H160692   0.818   2.614   0.209
20269TIP3    H260693   0.777   2.759   0.205
20270TIP3   OH260694   4.299   6.922   6.858
20270TIP3    H160695   4.310   6.831   6.829
20270TIP3    H260696   4.286   6.916   6.952
20271TIP3   OH260697   4.242   6.936   7.130
20271TIP3    H160698   4.305   6.909   7.197
20271TIP3    H260699   4.243   7.032   7.135
20272TIP3   OH260700   3.973   6.619   7.333
20272TIP3    H160701   3.911   6.669   7.386
20272TIP3    H260702   3.995   6.677   7.260
20273TIP3   OH260703   1.867   1.628   0.207
20273TIP3    H160704   1.947   1.672   0.237
20273TIP3    H260705   1.857   1.553   0.266
20274TIP3   OH260706   5.039   6.008   7.411
20274TIP3    H160707   5.015   6.023   7.319
20274TIP3    H260708   5.079   6.090   7.439
20275TIP3   OH260709   4.513   7.118   7.063
20275TIP3    H160710   4.429   7.144   7.101
20275TIP3    H260711   4.537   7.191   7.006
20276TIP3   OH260712   4.679   6.194   7.487
20276TIP3    H160713   4.740   6.262   7.459
20276TIP3    H260714   4.703   6.177   7.578
20277TIP3   OH260715   1.726   1.881   0.243
20277TIP3    H160716   1.743   1.920   0.328
20277TIP3    H260717   1.765   1.793   0.248
20278TIP3   OH260718   4.845   5.899   7.576
20278TIP3    H160719   4.817   5.977   7.624
20278TIP3    H260720   4.913   5.930   7.517
20279TIP3   OH260721   4.265   7.210   7.142
20279TIP3    H160722   4.246   7.282   7.082
20279TIP3    H260723   4.254   7.248   7.229
20280TIP3   OH260724   4.340   5.923   7.374
20280TIP3    H160725   4.332   6.014   7.400
20280TIP3    H260726   4.434   5.905   7.376
20281TIP3   OH260727   2.340   1.810   0.260
20281TIP3    H160728   2.248   1.787   0.254
20281TIP3    H260729   2.377   1.788   0.175
20282TIP3   OH260730   3.999   6.801   7.119
20282TIP3    H160731   4.071   6.863   7.130
20282TIP3    H260732   4.031   6.738   7.054
20283TIP3   OH260733   3.913   6.096   7.264
20283TIP3    H160734   3.913   6.191   7.256
20283TIP3    H260735   3.936   6.064   7.177
20284TIP3   OH260736   5.235   7.573   7.579
20284TIP3    H160737   5.193   7.627   7.512
20284TIP3    H260738   5.329   7.587   7.566
20285TIP3   OH260739   1.047   1.195   0.118
20285TIP3    H160740   1.015   1.163   0.033
20285TIP3    H260741   1.036   1.120   0.177
20286TIP3   OH260742   3.826   7.081   7.507
20286TIP3    H160743   3.778   7.114   7.582
20286TIP3    H260744   3.782   7.120   7.431
20287TIP3   OH260745   0.760   2.985   0.576
20287TIP3    H160746   0.842   2.987   0.625
20287TIP3    H260747   0.734   2.893   0.577
20288TIP3   OH260748   1.230   2.892   0.629
20288TIP3    H160749   1.322   2.869   0.632
20288TIP3    H260750   1.194   2.840   0.557
20289TIP3   OH260751   4.454   7.120   6.745
20289TIP3    H160752   4.406   7.051   6.790
20289TIP3    H260753   4.528   7.076   6.704
20290TIP3   OH260754   1.851   2.840   0.373
20290TIP3    H160755   1.863   2.769   0.436
20290TIP3    H260756   1.924   2.900   0.391
20291TIP3   OH260757   4.896   7.158   6.667
20291TIP3    H160758   4.933   7.095   6.729
20291TIP3    H260759   4.952   7.152   6.590
20292TIP3   OH260760   0.868   2.398   0.762
20292TIP3    H160761   0.890   2.305   0.776
20292TIP3    H260762   0.781   2.396   0.723
20293TIP3   OH260763   4.121   6.614   6.962
20293TIP3    H160764   4.171   6.585   7.039
20293TIP3    H260765   4.187   6.629   6.895
20294TIP3   OH260766   1.490   2.472   0.540
20294TIP3    H160767   1.441   2.494   0.461
20294TIP3    H260768   1.522   2.383   0.525
20295TIP3   OH260769   4.707   6.833   6.806
20295TIP3    H160770   4.681   6.842   6.897
20295TIP3    H260771   4.689   6.741   6.785
20296TIP3   OH260772   1.980   2.514   0.128
20296TIP3    H160773   2.044   2.532   0.059
20296TIP3    H260774   1.914   2.583   0.118
20297TIP3   OH260775   0.981   2.148   0.783
20297TIP3    H160776   1.043   2.086   0.743
20297TIP3    H260777   1.014   2.160   0.872
20298TIP3   OH260778   4.293   6.551   7.175
20298TIP3    H160779   4.274   6.519   7.263
20298TIP3    H260780   4.342   6.480   7.133
20299TIP3   OH260781   1.353   2.029   0.441
20299TIP3    H160782   1.263   2.059   0.450
20299TIP3    H260783   1.377   2.052   0.351
20300TIP3   OH260784   4.439   6.374   7.015
20300TIP3    H160785   4.410   6.379   6.924
20300TIP3    H260786   4.535   6.379   7.010
20301TIP3   OH260787   1.819   2.385   0.508
20301TIP3    H160788   1.888   2.338   0.462
20301TIP3    H260789   1.754   2.318   0.528
20302TIP3   OH260790   5.236   6.660   6.696
20302TIP3    H160791   5.223   6.617   6.611
20302TIP3    H260792   5.210   6.751   6.682
20303TIP3   OH260793   1.467   1.791   0.525
20303TIP3    H160794   1.457   1.721   0.460
20303TIP3    H260795   1.425   1.867   0.485
20304TIP3   OH260796   1.455   1.584   0.333
20304TIP3    H160797   1.480   1.621   0.249
20304TIP3    H260798   1.364   1.557   0.322
20305TIP3   OH260799   1.448   2.101   0.196
20305TIP3    H160800   1.532   2.113   0.151
20305TIP3    H260801   1.390   2.165   0.155
20306TIP3   OH260802   2.051   2.071   0.606
20306TIP3    H160803   2.114   1.999   0.598
20306TIP3    H260804   2.103   2.150   0.596
20307TIP3   OH260805   2.083   2.339   0.309
20307TIP3    H160806   2.033   2.402   0.257
20307TIP3    H260807   2.174   2.352   0.281
20308TIP3   OH260808   1.340   1.857   0.767
20308TIP3    H160809   1.267   1.799   0.788
20308TIP3    H260810   1.367   1.830   0.679
20309TIP3   OH260811   1.570   1.350   0.439
20309TIP3    H160812   1.527   1.430   0.409
20309TIP3    H260813   1.504   1.282   0.432
20310TIP3   OH260814   1.710   1.810   0.647
20310TIP3    H160815   1.709   1.736   0.709
20310TIP3    H260816   1.624   1.808   0.606
20311TIP3   OH260817   1.944   1.775   0.493
20311TIP3    H160818   1.867   1.775   0.550
20311TIP3    H260819   2.017   1.759   0.553
20312TIP3   OH260820   2.157   1.748   0.662
20312TIP3    H160821   2.187   1.657   0.668
20312TIP3    H260822   2.154   1.779   0.753
20313TIP3   OH260823   1.163   1.648   0.830
20313TIP3    H160824   1.167   1.557   0.802
20313TIP3    H260825   1.200   1.648   0.918
20314TIP3   OH260826   1.727   1.361   0.671
20314TIP3    H160827   1.789   1.288   0.665
20314TIP3    H260828   1.665   1.345   0.600
20315TIP3   OH260829   1.702   1.586   0.823
20315TIP3    H160830   1.722   1.509   0.770
20315TIP3    H260831   1.610   1.575   0.849
20316TIP3   OH260832   4.266   7.424   6.963
20316TIP3    H160833   4.354   7.399   6.934
20316TIP3    H260834   4.226   7.465   6.886
20317TIP3   OH260835   3.725   6.801   7.137
20317TIP3    H160836   3.820   6.812   7.133
20317TIP3    H260837   3.709   6.716   7.097
20318TIP3   OH260838   3.626   7.401   7.604
20318TIP3    H160839   3.562   7.347   7.558
20318TIP3    H260840   3.671   7.341   7.663
20319TIP3   OH260841   3.772   7.227   7.765
20319TIP3    H160842   3.762   7.154   7.827
20319TIP3    H260843   3.827   7.290   7.811
20320TIP3   OH260844   5.499   7.638   7.563
20320TIP3    H160845   5.535   7.659   7.649
20320TIP3    H260846   5.565   7.667   7.501
20321TIP3   OH260847   5.533   7.653   7.849
20321TIP3    H160848   5.481   7.574   7.838
20321TIP3    H260849   5.599   7.630   7.915
20322TIP3   OH260850   2.300   2.721   0.402
20322TIP3    H160851   2.223   2.728   0.458
20322TIP3    H260852   2.344   2.805   0.410
20323TIP3   OH260853   5.404   6.869   7.038
20323TIP3    H160854   5.462   6.937   7.006
20323TIP3    H260855   5.451   6.829   7.111
20324TIP3   OH260856   5.533   6.725   7.242
20324TIP3    H160857   5.468   6.686   7.300
20324TIP3    H260858   5.599   6.762   7.301
20325TIP3   OH260859   5.574   7.124   7.692
20325TIP3    H160860   5.632   7.062   7.647
20325TIP3    H260861   5.568   7.199   7.633
20326TIP3   OH260862   5.371   7.432   7.852
20326TIP3    H160863   5.304   7.476   7.903
20326TIP3    H260864   5.325   7.394   7.778
20327TIP3   OH260865   5.441   6.645   6.879
20327TIP3    H160866   5.371   6.643   6.814
20327TIP3    H260867   5.423   6.723   6.931
20328TIP3   OH260868   5.279   6.294   6.825
20328TIP3    H160869   5.233   6.327   6.748
20328TIP3    H260870   5.275   6.199   6.817
20329TIP3   OH260871   5.325   6.570   7.370
20329TIP3    H160872   5.332   6.482   7.332
20329TIP3    H260873   5.303   6.555   7.462
20330TIP3   OH260874   0.680   2.033   0.141
20330TIP3    H160875   0.670   1.998   0.052
20330TIP3    H260876   0.774   2.026   0.159
20331TIP3   OH260877   2.344   2.377   0.218
20331TIP3    H160878   2.410   2.311   0.198
20331TIP3    H260879   2.368   2.453   0.165
20332TIP3   OH260880   2.487   2.136   0.201
20332TIP3    H160881   2.421   2.116   0.268
20332TIP3    H260882   2.567   2.094   0.234
20333TIP3   OH260883   5.251   6.023   6.801
20333TIP3    H160884   5.317   5.991   6.862
20333TIP3    H260885   5.170   5.982   6.830
20334TIP3   OH260886   5.325   6.310   7.254
20334TIP3    H160887   5.368   6.227   7.269
20334TIP3    H260888   5.364   6.343   7.173
20335TIP3   OH260889   5.445   6.508   7.767
20335TIP3    H160890   5.453   6.420   7.730
20335TIP3    H260891   5.355   6.511   7.800
20336TIP3   OH260892   2.285   2.045   0.004
20336TIP3    H160893   2.209   2.032   0.061
20336TIP3    H260894   2.333   2.117   0.044
20337TIP3   OH260895   0.902   1.713   0.771
20337TIP3    H160896   0.995   1.712   0.794
20337TIP3    H260897   0.866   1.635   0.813
20338TIP3   OH260898   2.736   1.598   0.541
20338TIP3    H160899   2.804   1.540   0.506
20338TIP3    H260900   2.703   1.646   0.465
20339TIP3   OH260901   5.437   6.063   7.317
20339TIP3    H160902   5.484   6.043   7.398
20339TIP3    H260903   5.376   5.990   7.307
20340TIP3   OH260904   0.882   1.419   0.131
20340TIP3    H160905   0.935   1.340   0.139
20340TIP3    H260906   0.944   1.489   0.112
20341TIP3   OH260907   0.656   1.681   0.193
20341TIP3    H160908   0.707   1.674   0.113
20341TIP3    H260909   0.690   1.759   0.237
20342TIP3   OH260910   2.586   1.718   0.348
20342TIP3    H160911   2.501   1.759   0.357
20342TIP3    H260912   2.570   1.639   0.296
20343TIP3   OH260913   5.484   5.968   6.950
20343TIP3    H160914   5.531   5.910   6.891
20343TIP3    H260915   5.536   6.048   6.952
20344TIP3   OH260916   3.912   5.811   7.702
20344TIP3    H160917   3.826   5.799   7.743
20344TIP3    H260918   3.895   5.865   7.626
20345TIP3   OH260919   5.070   7.540   7.220
20345TIP3    H160920   5.122   7.524   7.142
20345TIP3    H260921   5.115   7.612   7.265
20346TIP3   OH260922   0.871   1.256   0.530
20346TIP3    H160923   0.820   1.251   0.611
20346TIP3    H260924   0.814   1.302   0.469
20347TIP3   OH260925   0.903   2.702   0.598
20347TIP3    H160926   0.810   2.688   0.586
20347TIP3    H260927   0.916   2.693   0.693
20348TIP3   OH260928   1.107   2.761   0.147
20348TIP3    H160929   1.056   2.834   0.112
20348TIP3    H260930   1.192   2.769   0.103
20349TIP3   OH260931   1.501   2.984   0.278
20349TIP3    H160932   1.539   2.978   0.365
20349TIP3    H260933   1.564   3.035   0.227
20350TIP3   OH260934   1.698   3.129   0.152
20350TIP3    H160935   1.761   3.082   0.097
20350TIP3    H260936   1.752   3.176   0.215
20351TIP3   OH260937   2.507   1.480   0.233
20351TIP3    H160938   2.429   1.483   0.177
20351TIP3    H260939   2.542   1.391   0.220
20352TIP3   OH260940   0.765   3.003   0.180
20352TIP3    H160941   0.672   3.017   0.165
20352TIP3    H260942   0.787   3.063   0.251
20353TIP3   OH260943   0.997   2.991   0.034
20353TIP3    H160944   0.915   2.994   0.084
20353TIP3    H260945   0.973   3.018  -0.054
20354TIP3   OH260946   4.677   7.623   7.834
20354TIP3    H160947   4.603   7.635   7.775
20354TIP3    H260948   4.689   7.708   7.876
20355TIP3   OH260949   4.941   7.554   7.873
20355TIP3    H160950   4.849   7.575   7.857
20355TIP3    H260951   4.989   7.622   7.826
20356TIP3   OH260952   5.141   7.734   7.780
20356TIP3    H160953   5.136   7.821   7.740
20356TIP3    H260954   5.173   7.677   7.710
20357TIP3   OH260955   3.950   7.399   7.912
20357TIP3    H160956   3.974   7.372   8.001
20357TIP3    H260957   4.020   7.366   7.857
20358TIP3   OH260958   4.150   7.283   7.769
20358TIP3    H160959   4.159   7.197   7.812
20358TIP3    H260960   4.237   7.322   7.774
20359TIP3   OH260961   4.418   7.367   7.796
20359TIP3    H160962   4.436   7.275   7.778
20359TIP3    H260963   4.472   7.389   7.872
20360TIP3   OH260964   4.986   6.012   7.885
20360TIP3    H160965   4.941   5.944   7.935
20360TIP3    H260966   5.048   5.964   7.830
20361TIP3   OH260967   5.469   5.959   7.780
20361TIP3    H160968   5.511   5.974   7.695
20361TIP3    H260969   5.378   5.938   7.758
20362TIP3   OH260970   5.595   6.007   7.542
20362TIP3    H160971   5.660   5.944   7.512
20362TIP3    H260972   5.636   6.092   7.528
20363TIP3   OH260973   4.214   5.716   7.881
20363TIP3    H160974   4.126   5.682   7.891
20363TIP3    H260975   4.269   5.638   7.870
20364TIP3   OH260976   4.008   5.605   7.525
20364TIP3    H160977   4.047   5.650   7.451
20364TIP3    H260978   3.985   5.675   7.587
20365TIP3   OH260979   4.707   5.755   7.776
20365TIP3    H160980   4.748   5.803   7.704
20365TIP3    H260981   4.744   5.794   7.855
20366TIP3   OH260982   5.195   5.879   7.745
20366TIP3    H160983   5.190   5.853   7.652
20366TIP3    H260984   5.201   5.796   7.792
20367TIP3   OH260985   5.254   5.852   7.319
20367TIP3    H160986   5.173   5.898   7.342
20367TIP3    H260987   5.240   5.763   7.352
20368TIP3   OH260988   3.706   7.194   7.286
20368TIP3    H160989   3.623   7.163   7.251
20368TIP3    H260990   3.712   7.285   7.256
20369TIP3   OH260991   4.132   5.742   7.305
20369TIP3    H160992   4.179   5.674   7.255
20369TIP3    H260993   4.200   5.802   7.334
20370TIP3   OH260994   4.618   5.943   7.393
20370TIP3    H160995   4.679   5.888   7.441
20370TIP3    H260996   4.639   6.033   7.421
20371TIP3   OH260997   4.518   7.342   6.890
20371TIP3    H160998   4.601   7.369   6.851
20371TIP3    H260999   4.486   7.272   6.833
20372TIP3   OH261000   5.216   7.487   6.990
20372TIP3    H161001   5.211   7.391   6.981
20372TIP3    H261002   5.175   7.521   6.911
20373TIP3   OH261003   1.195   1.374   0.767
20373TIP3    H161004   1.156   1.308   0.825
20373TIP3    H261005   1.286   1.380   0.795
20374TIP3   OH261006   1.446   1.368   0.905
20374TIP3    H161007   1.520   1.316   0.872
20374TIP3    H261008   1.408   1.315   0.975
20375TIP3   OH261009   3.830   7.187   6.947
20375TIP3    H161010   3.831   7.191   7.043
20375TIP3    H261011   3.910   7.139   6.924
20376TIP3   OH261012   2.266   1.502   0.679
20376TIP3    H161013   2.275   1.449   0.758
20376TIP3    H261014   2.340   1.477   0.625
20377TIP3   OH261015   2.145   2.998   0.173
20377TIP3    H161016   2.074   2.964   0.119
20377TIP3    H261017   2.134   3.094   0.170
20378TIP3   OH261018   6.712   7.017   6.912
20378TIP3    H161019   6.680   7.103   6.885
20378TIP3    H261020   6.642   6.957   6.886
20379TIP3   OH261021   6.686   7.010   7.326
20379TIP3    H161022   6.732   6.991   7.407
20379TIP3    H261023   6.643   6.928   7.302
20380TIP3   OH261024   6.036   6.878   7.706
20380TIP3    H161025   6.082   6.807   7.750
20380TIP3    H261026   6.090   6.897   7.629
20381TIP3   OH261027   6.973   7.311   7.007
20381TIP3    H161028   6.960   7.249   7.079
20381TIP3    H261029   6.991   7.395   7.050
20382TIP3   OH261030   5.988   7.288   7.373
20382TIP3    H161031   5.972   7.194   7.368
20382TIP3    H261032   6.082   7.298   7.363
20383TIP3   OH261033   5.673   6.491   7.160
20383TIP3    H161034   5.637   6.577   7.182
20383TIP3    H261035   5.603   6.448   7.111
20384TIP3   OH261036   5.765   6.814   7.386
20384TIP3    H161037   5.818   6.737   7.405
20384TIP3    H261038   5.827   6.877   7.350
20385TIP3   OH261039   6.661   7.731   7.043
20385TIP3    H161040   6.676   7.670   6.971
20385TIP3    H261041   6.685   7.682   7.122
20386TIP3   OH261042   6.508   7.231   7.336
20386TIP3    H161043   6.552   7.150   7.310
20386TIP3    H261044   6.579   7.292   7.355
20387TIP3   OH261045   7.494   6.525   7.338
20387TIP3    H161046   7.537   6.596   7.387
20387TIP3    H261047   7.533   6.529   7.251
20388TIP3   OH261048   6.888   6.716   7.374
20388TIP3    H161049   6.928   6.633   7.400
20388TIP3    H261050   6.873   6.706   7.280
20389TIP3   OH261051   6.267   6.378   7.354
20389TIP3    H161052   6.249   6.451   7.295
20389TIP3    H261053   6.212   6.307   7.321
20390TIP3   OH261054   6.979   6.471   6.970
20390TIP3    H161055   7.042   6.462   7.042
20390TIP3    H261056   7.031   6.505   6.897
20391TIP3   OH261057   5.907   6.590   7.472
20391TIP3    H161058   5.990   6.569   7.514
20391TIP3    H261059   5.909   6.540   7.390
20392TIP3   OH261060   6.307   6.790   7.282
20392TIP3    H161061   6.401   6.776   7.293
20392TIP3    H261062   6.274   6.705   7.250
20393TIP3   OH261063   7.594   6.746   7.479
20393TIP3    H161064   7.509   6.790   7.488
20393TIP3    H261065   7.601   6.691   7.557
20394TIP3   OH261066   6.607   7.235   6.775
20394TIP3    H161067   6.568   7.203   6.693
20394TIP3    H261068   6.553   7.310   6.799
20395TIP3   OH261069   6.361   7.146   7.554
20395TIP3    H161070   6.305   7.217   7.584
20395TIP3    H261071   6.408   7.183   7.479
20396TIP3   OH261072   7.138   6.488   7.191
20396TIP3    H161073   7.089   6.475   7.272
20396TIP3    H261074   7.194   6.564   7.209
20397TIP3   OH261075   6.137   6.478   7.588
20397TIP3    H161076   6.196   6.479   7.663
20397TIP3    H261077   6.191   6.447   7.516
20398TIP3   OH261078   6.197   7.351   7.643
20398TIP3    H161079   6.192   7.441   7.610
20398TIP3    H261080   6.112   7.335   7.683
20399TIP3   OH261081   5.575   7.056   6.918
20399TIP3    H161082   5.544   7.071   6.829
20399TIP3    H261083   5.597   7.143   6.951
20400TIP3   OH261084   6.997   7.566   7.127
20400TIP3    H161085   6.913   7.565   7.173
20400TIP3    H261086   7.004   7.655   7.092
20401TIP3   OH261087   7.301   6.397   7.495
20401TIP3    H161088   7.237   6.468   7.497
20401TIP3    H261089   7.376   6.434   7.447
20402TIP3   OH261090   6.594   6.068   7.520
20402TIP3    H161091   6.582   5.977   7.548
20402TIP3    H261092   6.520   6.115   7.560
20403TIP3   OH261093   6.720   7.593   6.808
20403TIP3    H161094   6.774   7.514   6.796
20403TIP3    H261095   6.777   7.665   6.780
20404TIP3   OH261096   6.857   7.362   6.763
20404TIP3    H161097   6.783   7.302   6.763
20404TIP3    H261098   6.908   7.338   6.840
20405TIP3   OH261099   7.278   7.457   7.473
20405TIP3    H161100   7.238   7.381   7.430
20405TIP3    H261101   7.252   7.532   7.419
20406TIP3   OH261102   6.538   6.852   6.767
20406TIP3    H161103   6.455   6.895   6.745
20406TIP3    H261104   6.586   6.851   6.684
20407TIP3   OH261105   6.504   6.663   6.456
20407TIP3    H161106   6.569   6.712   6.507
20407TIP3    H261107   6.554   6.593   6.414
20408TIP3   OH261108   7.416   7.103   7.350
20408TIP3    H161109   7.334   7.151   7.351
20408TIP3    H261110   7.448   7.110   7.261
20409TIP3   OH261111   6.899   6.941   6.726
20409TIP3    H161112   6.845   6.971   6.799
20409TIP3    H261113   6.982   6.917   6.765
20410TIP3   OH261114   7.091   6.914   7.602
20410TIP3    H161115   7.120   7.005   7.611
20410TIP3    H261116   6.998   6.920   7.580
20411TIP3   OH261117   6.117   6.922   7.123
20411TIP3    H161118   6.086   6.858   7.059
20411TIP3    H261119   6.188   6.877   7.169
20412TIP3   OH261120   6.251   7.342   7.277
20412TIP3    H161121   6.230   7.329   7.184
20412TIP3    H261122   6.339   7.305   7.286
20413TIP3   OH261123   6.196   6.933   7.492
20413TIP3    H161124   6.241   6.879   7.427
20413TIP3    H261125   6.260   7.001   7.515
20414TIP3   OH261126   6.759   7.581   7.263
20414TIP3    H161127   6.771   7.653   7.325
20414TIP3    H261128   6.752   7.503   7.319
20415TIP3   OH261129   6.390   7.434   7.826
20415TIP3    H161130   6.328   7.492   7.871
20415TIP3    H261131   6.336   7.387   7.762
20416TIP3   OH261132   6.727   6.804   6.560
20416TIP3    H161133   6.788   6.861   6.607
20416TIP3    H261134   6.757   6.806   6.469
20417TIP3   OH261135   6.149   7.031   7.921
20417TIP3    H161136   6.125   7.122   7.937
20417TIP3    H261137   6.095   7.004   7.847
20418TIP3   OH261138   6.471   7.475   6.811
20418TIP3    H161139   6.553   7.522   6.822
20418TIP3    H261140   6.415   7.536   6.763
20419TIP3   OH261141   6.163   7.591   7.887
20419TIP3    H161142   6.164   7.610   7.793
20419TIP3    H261143   6.072   7.571   7.907
20420TIP3   OH261144   7.227   6.032   6.613
20420TIP3    H161145   7.153   6.055   6.669
20420TIP3    H261146   7.239   6.108   6.556
20421TIP3   OH261147   6.001   6.756   6.925
20421TIP3    H161148   5.920   6.800   6.898
20421TIP3    H261149   5.976   6.665   6.936
20422TIP3   OH261150   7.063   7.405   6.176
20422TIP3    H161151   7.056   7.498   6.156
20422TIP3    H261152   7.152   7.382   6.150
20423TIP3   OH261153   5.792   7.156   7.862
20423TIP3    H161154   5.723   7.142   7.797
20423TIP3    H261155   5.811   7.068   7.895
20424TIP3   OH261156   5.656   7.337   7.520
20424TIP3    H161157   5.741   7.315   7.481
20424TIP3    H261158   5.672   7.417   7.570
20425TIP3   OH261159   7.481   7.819   7.527
20425TIP3    H161160   7.496   7.726   7.544
20425TIP3    H261161   7.404   7.841   7.579
20426TIP3   OH261162   6.570   7.588   7.679
20426TIP3    H161163   6.553   7.679   7.702
20426TIP3    H261164   6.510   7.537   7.735
20427TIP3   OH261165   6.363   7.690   6.645
20427TIP3    H161166   6.321   7.672   6.561
20427TIP3    H261167   6.327   7.775   6.672
20428TIP3   OH261168   5.798   7.552   7.025
20428TIP3    H161169   5.844   7.542   7.108
20428TIP3    H261170   5.750   7.469   7.014
20429TIP3   OH261171   6.566   7.628   6.271
20429TIP3    H161172   6.616   7.554   6.236
20429TIP3    H261173   6.601   7.642   6.359
20430TIP3   OH261174   6.618   7.670   6.541
20430TIP3    H161175   6.532   7.673   6.584
20430TIP3    H261176   6.676   7.633   6.608
20431TIP3   OH261177   7.380   6.985   7.788
20431TIP3    H161178   7.307   7.020   7.736
20431TIP3    H261179   7.378   6.891   7.773
20432TIP3   OH261180   5.962   7.357   7.791
20432TIP3    H161181   6.013   7.358   7.872
20432TIP3    H261182   5.898   7.287   7.802
20433TIP3   OH261183   6.364   6.177   7.646
20433TIP3    H161184   6.273   6.164   7.621
20433TIP3    H261185   6.365   6.264   7.687
20434TIP3   OH261186   6.860   6.280   7.832
20434TIP3    H161187   6.925   6.252   7.896
20434TIP3    H261188   6.776   6.273   7.879
20435TIP3   OH261189   7.116   6.660   7.716
20435TIP3    H161190   7.087   6.674   7.806
20435TIP3    H261191   7.110   6.746   7.674
20436TIP3   OH261192   6.808   6.773   6.298
20436TIP3    H161193   6.761   6.779   6.214
20436TIP3    H261194   6.889   6.822   6.283
20437TIP3   OH261195   6.516   6.200   6.619
20437TIP3    H161196   6.480   6.207   6.707
20437TIP3    H261197   6.480   6.119   6.584
20438TIP3   OH261198   6.177   6.568   7.177
20438TIP3    H161199   6.087   6.543   7.200
20438TIP3    H261200   6.189   6.536   7.088
20439TIP3   OH261201   6.657   6.644   6.902
20439TIP3    H161202   6.612   6.718   6.862
20439TIP3    H261203   6.716   6.613   6.833
20440TIP3   OH261204   6.880   6.906   7.965
20440TIP3    H161205   6.843   6.838   8.021
20440TIP3    H261206   6.967   6.874   7.943
20441TIP3   OH261207   6.842   6.669   7.110
20441TIP3    H161208   6.766   6.682   7.052
20441TIP3    H261209   6.887   6.593   7.074
20442TIP3   OH261210   6.183   6.180   6.592
20442TIP3    H161211   6.174   6.186   6.687
20442TIP3    H261212   6.104   6.222   6.558
20443TIP3   OH261213   5.725   6.232   7.474
20443TIP3    H161214   5.798   6.269   7.523
20443TIP3    H261215   5.759   6.223   7.384
20444TIP3   OH261216   5.629   6.206   6.960
20444TIP3    H161217   5.677   6.240   6.885
20444TIP3    H261218   5.564   6.273   6.980
20445TIP3   OH261219   6.806   6.901   7.552
20445TIP3    H161220   6.835   6.839   7.485
20445TIP3    H261221   6.788   6.847   7.629
20446TIP3   OH261222   6.534   6.362   7.227
20446TIP3    H161223   6.460   6.364   7.287
20446TIP3    H261224   6.610   6.351   7.283
20447TIP3   OH261225   5.936   6.446   7.237
20447TIP3    H161226   5.848   6.448   7.199
20447TIP3    H261227   5.968   6.357   7.222
20448TIP3   OH261228   6.191   6.450   6.928
20448TIP3    H161229   6.286   6.460   6.922
20448TIP3    H261230   6.159   6.467   6.839
20449TIP3   OH261231   6.971   6.454   7.411
20449TIP3    H161232   6.954   6.463   7.504
20449TIP3    H261233   6.906   6.390   7.381
20450TIP3   OH261234   6.084   6.474   6.676
20450TIP3    H161235   6.022   6.422   6.625
20450TIP3    H261236   6.137   6.520   6.611
20451TIP3   OH261237   7.189   8.125   7.647
20451TIP3    H161238   7.186   8.131   7.551
20451TIP3    H261239   7.271   8.168   7.671
20452TIP3   OH261240   2.825   2.666   0.027
20452TIP3    H161241   2.905   2.657   0.079
20452TIP3    H261242   2.755   2.668   0.092
20453TIP3   OH261243   6.575   6.743   7.342
20453TIP3    H161244   6.650   6.692   7.311
20453TIP3    H261245   6.559   6.712   7.431
20454TIP3   OH261246   6.081   6.200   7.228
20454TIP3    H161247   6.054   6.125   7.280
20454TIP3    H261248   6.114   6.162   7.146
20455TIP3   OH261249   6.539   6.648   7.600
20455TIP3    H161250   6.483   6.590   7.652
20455TIP3    H261251   6.610   6.673   7.658
20456TIP3   OH261252   6.299   6.984   6.707
20456TIP3    H161253   6.224   6.930   6.681
20456TIP3    H261254   6.272   7.026   6.788
20457TIP3   OH261255   7.182   7.248   7.317
20457TIP3    H161256   7.221   7.297   7.244
20457TIP3    H261257   7.103   7.209   7.281
20458TIP3   OH261258   6.767   6.308   6.615
20458TIP3    H161259   6.674   6.286   6.615
20458TIP3    H261260   6.769   6.403   6.631
20459TIP3   OH261261   6.757   7.388   7.684
20459TIP3    H161262   6.746   7.364   7.777
20459TIP3    H261263   6.698   7.462   7.671
20460TIP3   OH261264   6.825   6.572   6.688
20460TIP3    H161265   6.920   6.574   6.700
20460TIP3    H261266   6.805   6.651   6.638
20461TIP3   OH261267   5.975   7.004   7.345
20461TIP3    H161268   6.012   6.986   7.259
20461TIP3    H261269   6.045   6.981   7.407
20462TIP3   OH261270   6.455   7.147   6.554
20462TIP3    H161271   6.405   7.229   6.551
20462TIP3    H261272   6.399   7.088   6.606
20463TIP3   OH261273   2.566   2.307   0.004
20463TIP3    H161274   2.644   2.342   0.047
20463TIP3    H261275   2.542   2.231   0.056
20464TIP3   OH261276   6.639   7.049   7.945
20464TIP3    H161277   6.601   7.027   7.861
20464TIP3    H261278   6.731   7.022   7.939
20465TIP3   OH261279   7.240   6.655   6.500
20465TIP3    H161280   7.184   6.609   6.438
20465TIP3    H261281   7.243   6.745   6.467
20466TIP3   OH261282   7.505   7.553   7.582
20466TIP3    H161283   7.416   7.521   7.569
20466TIP3    H261284   7.553   7.522   7.506
20467TIP3   OH261285   6.978   7.475   6.442
20467TIP3    H161286   6.952   7.406   6.503
20467TIP3    H261287   6.998   7.429   6.361
20468TIP3   OH261288   6.948   7.116   7.216
20468TIP3    H161289   6.857   7.091   7.232
20468TIP3    H261290   6.989   7.037   7.179
20469TIP3   OH261291   6.121   7.348   7.029
20469TIP3    H161292   6.123   7.425   6.972
20469TIP3    H261293   6.028   7.330   7.041
20470TIP3   OH261294   5.676   6.627   6.733
20470TIP3    H161295   5.720   6.709   6.756
20470TIP3    H261296   5.595   6.629   6.784
20471TIP3   OH261297   6.198   7.103   6.926
20471TIP3    H161298   6.189   7.192   6.961
20471TIP3    H261299   6.173   7.046   7.000
20472TIP3   OH261300   6.408   7.676   7.462
20472TIP3    H161301   6.446   7.749   7.412
20472TIP3    H261302   6.483   7.636   7.506
20473TIP3   OH261303   6.033   7.570   6.880
20473TIP3    H161304   5.946   7.577   6.919
20473TIP3    H261305   6.068   7.659   6.883
20474TIP3   OH261306   6.752   7.343   7.412
20474TIP3    H161307   6.755   7.349   7.507
20474TIP3    H261308   6.825   7.286   7.389
20475TIP3   OH261309   6.747   7.211   6.325
20475TIP3    H161310   6.798   7.182   6.400
20475TIP3    H261311   6.663   7.165   6.334
20476TIP3   OH261312   7.058   7.678   6.133
20476TIP3    H161313   7.081   7.740   6.065
20476TIP3    H261314   6.986   7.719   6.181
20477TIP3   OH261315   2.823   1.800   0.043
20477TIP3    H161316   2.889   1.817  -0.025
20477TIP3    H261317   2.860   1.727   0.093
20478TIP3   OH261318   6.924   7.122   6.514
20478TIP3    H161319   6.908   7.070   6.593
20478TIP3    H261320   7.019   7.131   6.510
20479TIP3   OH261321   5.805   7.549   7.644
20479TIP3    H161322   5.865   7.493   7.694
20479TIP3    H261323   5.825   7.638   7.675
20480TIP3   OH261324   6.095   7.176   6.344
20480TIP3    H161325   6.106   7.085   6.316
20480TIP3    H261326   6.083   7.171   6.439
20481TIP3   OH261327   6.038   7.192   6.617
20481TIP3    H161328   6.105   7.167   6.681
20481TIP3    H261329   6.038   7.288   6.620
20482TIP3   OH261330   5.771   6.877   6.823
20482TIP3    H161331   5.707   6.925   6.876
20482TIP3    H261332   5.792   6.936   6.751
20483TIP3   OH261333   6.905   6.494   7.671
20483TIP3    H161334   6.987   6.534   7.700
20483TIP3    H261335   6.892   6.420   7.730
20484TIP3   OH261336   6.822   6.258   6.886
20484TIP3    H161337   6.805   6.278   6.794
20484TIP3    H261338   6.869   6.336   6.918
20485TIP3   OH261339   6.305   7.373   6.547
20485TIP3    H161340   6.222   7.400   6.586
20485TIP3    H261341   6.332   7.447   6.494
20486TIP3   OH261342   6.468   6.457   6.975
20486TIP3    H161343   6.532   6.524   6.950
20486TIP3    H261344   6.490   6.436   7.066
20487TIP3   OH261345   6.764   6.719   7.751
20487TIP3    H161346   6.803   6.744   7.835
20487TIP3    H261347   6.808   6.637   7.728
20488TIP3   OH261348   6.639   6.150   7.063
20488TIP3    H161349   6.617   6.226   7.116
20488TIP3    H261350   6.711   6.179   7.007
20489TIP3   OH261351   6.058   7.465   6.628
20489TIP3    H161352   6.040   7.537   6.567
20489TIP3    H261353   6.049   7.504   6.715
20490TIP3   OH261354   6.152   6.176   6.871
20490TIP3    H161355   6.141   6.266   6.899
20490TIP3    H261356   6.247   6.160   6.878
20491TIP3   OH261357   7.382   6.718   7.760
20491TIP3    H161358   7.307   6.667   7.729
20491TIP3    H261359   7.457   6.661   7.748
20492TIP3   OH261360   7.047   6.865   7.123
20492TIP3    H161361   6.974   6.803   7.126
20492TIP3    H261362   7.117   6.821   7.172
20493TIP3   OH261363   5.796   7.057   6.609
20493TIP3    H161364   5.868   7.120   6.619
20493TIP3    H261365   5.827   6.995   6.543
20494TIP3   OH261366   5.708   6.350   6.743
20494TIP3    H161367   5.713   6.446   6.744
20494TIP3    H261368   5.687   6.328   6.652
20495TIP3   OH261369   7.031   7.836   7.065
20495TIP3    H161370   6.989   7.889   6.997
20495TIP3    H261371   7.125   7.846   7.049
20496TIP3   OH261372   6.093   6.084   7.618
20496TIP3    H161373   6.069   6.052   7.531
20496TIP3    H261374   6.092   6.007   7.674
20497TIP3   OH261375   5.622   7.330   6.998
20497TIP3    H161376   5.577   7.364   7.076
20497TIP3    H261377   5.578   7.372   6.924
20498TIP3   OH261378   2.545   3.204   0.003
20498TIP3    H161379   2.589   3.224   0.086
20498TIP3    H261380   2.567   3.112  -0.015
20499TIP3   OH261381   2.982   3.036   0.134
20499TIP3    H161382   3.076   3.048   0.126
20499TIP3    H261383   2.953   3.015   0.045
20500TIP3   OH261384   6.249   7.376   6.231
20500TIP3    H161385   6.203   7.306   6.277
20500TIP3    H261386   6.324   7.333   6.190
20501TIP3   OH261387   6.861   7.771   7.785
20501TIP3    H161388   6.784   7.721   7.759
20501TIP3    H261389   6.920   7.764   7.710
20502TIP3   OH261390   6.693   7.417   6.152
20502TIP3    H161391   6.727   7.353   6.215
20502TIP3    H261392   6.752   7.410   6.077
20503TIP3   OH261393   2.639   2.633   0.232
20503TIP3    H161394   2.673   2.543   0.226
20503TIP3    H261395   2.550   2.627   0.199
20504TIP3   OH261396   5.913   6.870   6.449
20504TIP3    H161397   5.964   6.843   6.526
20504TIP3    H261398   5.978   6.883   6.380
20505TIP3   OH261399   6.485   7.258   8.031
20505TIP3    H161400   6.469   7.314   7.954
20505TIP3    H261401   6.540   7.188   7.998
20506TIP3   OH261402   6.492   7.091   6.289
20506TIP3    H161403   6.469   7.100   6.381
20506TIP3    H261404   6.475   6.998   6.270
20507TIP3   OH261405   7.020   7.374   7.608
20507TIP3    H161406   7.039   7.459   7.569
20507TIP3    H261407   6.927   7.378   7.631
20508TIP3   OH261408   2.756   2.386   0.181
20508TIP3    H161409   2.838   2.373   0.134
20508TIP3    H261410   2.777   2.365   0.272
20509TIP3   OH261411   6.089   6.809   6.658
20509TIP3    H161412   6.072   6.778   6.747
20509TIP3    H261413   6.137   6.738   6.616
20510TIP3   OH261414   6.376   6.874   7.890
20510TIP3    H161415   6.303   6.935   7.904
20510TIP3    H261416   6.427   6.913   7.819
20511TIP3   OH261417   6.230   6.628   6.500
20511TIP3    H161418   6.202   6.633   6.408
20511TIP3    H261419   6.325   6.637   6.496
20512TIP3   OH261420   6.884   7.224   7.965
20512TIP3    H161421   6.968   7.236   7.921
20512TIP3    H261422   6.897   7.146   8.020
20513TIP3   OH261423   7.022   6.915   6.192
20513TIP3    H161424   7.011   6.875   6.106
20513TIP3    H261425   7.000   7.007   6.179
20514TIP3   OH261426   6.485   6.656   8.003
20514TIP3    H161427   6.452   6.581   7.954
20514TIP3    H261428   6.452   6.732   7.956
20515TIP3   OH261429   6.540   6.995   7.698
20515TIP3    H161430   6.608   6.966   7.637
20515TIP3    H261431   6.481   7.048   7.645
20516TIP3   OH261432   7.151   6.843   7.943
20516TIP3    H161433   7.140   6.806   8.030
20516TIP3    H261434   7.240   6.819   7.917
20517TIP3   OH261435   7.123   7.290   7.848
20517TIP3    H161436   7.091   7.345   7.777
20517TIP3    H261437   7.174   7.221   7.805
20518TIP3   OH261438   3.082   2.107   0.234
20518TIP3    H161439   3.026   2.030   0.247
20518TIP3    H261440   3.117   2.097   0.145
20519TIP3   OH261441   6.590   6.247   7.911
20519TIP3    H161442   6.532   6.319   7.884
20519TIP3    H261443   6.539   6.168   7.894
20520TIP3   OH261444   3.470   2.091   0.103
20520TIP3    H161445   3.460   2.046   0.188
20520TIP3    H261446   3.391   2.069   0.055
20521TIP3   OH261447   6.967   6.611   7.958
20521TIP3    H161448   6.900   6.612   8.027
20521TIP3    H261449   7.046   6.580   8.003
20522TIP3   OH261450   3.941   1.918   0.087
20522TIP3    H161451   3.967   1.827   0.075
20522TIP3    H261452   3.918   1.925   0.180
20523TIP3   OH261453   2.941   1.895   0.331
20523TIP3    H161454   2.935   1.817   0.277
20523TIP3    H261455   2.982   1.865   0.413
20524TIP3   OH261456   3.393   1.562   0.165
20524TIP3    H161457   3.464   1.499   0.151
20524TIP3    H261458   3.366   1.588   0.077
20525TIP3   OH261459   3.478   1.764   0.325
20525TIP3    H161460   3.451   1.694   0.267
20525TIP3    H261461   3.412   1.832   0.313
20526TIP3   OH261462   6.059   7.676   6.447
20526TIP3    H161463   6.147   7.653   6.419
20526TIP3    H261464   6.021   7.721   6.371
20527TIP3   OH261465   5.523   7.054   6.633
20527TIP3    H161466   5.618   7.066   6.625
20527TIP3    H261467   5.505   6.971   6.590
20528TIP3   OH261468   5.423   7.637   7.088
20528TIP3    H161469   5.359   7.584   7.041
20528TIP3    H261470   5.467   7.576   7.146
20529TIP3   OH261471   5.562   7.465   7.255
20529TIP3    H161472   5.546   7.400   7.324
20529TIP3    H261473   5.617   7.531   7.298
20530TIP3   OH261474   7.301   7.877   7.036
20530TIP3    H161475   7.327   7.899   7.126
20530TIP3    H261476   7.371   7.914   6.981
20531TIP3   OH261477   7.331   7.900   7.311
20531TIP3    H161478   7.283   7.818   7.304
20531TIP3    H261479   7.402   7.880   7.372
20532TIP3   OH261480   7.385   7.657   7.856
20532TIP3    H161481   7.293   7.640   7.838
20532TIP3    H261482   7.419   7.694   7.775
20533TIP3   OH261483   7.203   7.124   6.521
20533TIP3    H161484   7.259   7.196   6.493
20533TIP3    H261485   7.249   7.086   6.596
20534TIP3   OH261486   7.335   6.981   6.721
20534TIP3    H161487   7.268   6.946   6.779
20534TIP3    H261488   7.401   7.019   6.780
20535TIP3   OH261489   7.369   7.385   7.160
20535TIP3    H161490   7.425   7.318   7.121
20535TIP3    H261491   7.374   7.459   7.100
20536TIP3   OH261492   7.196   7.663   7.298
20536TIP3    H161493   7.133   7.679   7.369
20536TIP3    H261494   7.145   7.619   7.230
20537TIP3   OH261495   7.232   6.897   6.369
20537TIP3    H161496   7.160   6.898   6.306
20537TIP3    H261497   7.219   6.975   6.422
20538TIP3   OH261498   7.090   6.540   6.301
20538TIP3    H161499   7.043   6.578   6.226
20538TIP3    H261500   7.086   6.445   6.286
20539TIP3   OH261501   7.127   6.847   6.857
20539TIP3    H161502   7.133   6.752   6.848
20539TIP3    H261503   7.106   6.861   6.949
20540TIP3   OH261504   5.772   6.938   7.632
20540TIP3    H161505   5.768   6.902   7.544
20540TIP3    H261506   5.862   6.924   7.660
20541TIP3   OH261507   7.464   7.262   7.633
20541TIP3    H161508   7.532   7.198   7.653
20541TIP3    H261509   7.496   7.307   7.555
20542TIP3   OH261510   7.627   7.045   7.686
20542TIP3    H161511   7.539   7.019   7.715
20542TIP3    H261512   7.684   6.977   7.723
20543TIP3   OH261513   7.056   6.265   6.260
20543TIP3    H161514   7.119   6.246   6.330
20543TIP3    H261515   6.972   6.234   6.294
20544TIP3   OH261516   7.117   6.564   6.741
20544TIP3    H161517   7.163   6.482   6.754
20544TIP3    H261518   7.158   6.603   6.664
20545TIP3   OH261519   7.262   6.735   7.244
20545TIP3    H161520   7.342   6.753   7.195
20545TIP3    H261521   7.282   6.762   7.333
20546TIP3   OH261522   7.342   6.867   7.477
20546TIP3    H161523   7.257   6.881   7.519
20546TIP3    H261524   7.364   6.951   7.437
20547TIP3   OH261525   2.680   1.975   0.297
20547TIP3    H161526   2.775   1.966   0.299
20547TIP3    H261527   2.648   1.888   0.320
20548TIP3   OH261528   7.796   6.434   7.943
20548TIP3    H161529   7.857   6.366   7.913
20548TIP3    H261530   7.756   6.466   7.862
20549TIP3   OH261531   7.235   6.317   6.793
20549TIP3    H161532   7.281   6.302   6.875
20549TIP3    H261533   7.170   6.246   6.789
20550TIP3   OH261534   5.928   6.304   7.656
20550TIP3    H161535   5.981   6.224   7.654
20550TIP3    H261536   5.991   6.374   7.639
20551TIP3   OH261537   5.752   6.602   7.719
20551TIP3    H161538   5.773   6.594   7.626
20551TIP3    H261539   5.837   6.596   7.764
20552TIP3   OH261540   7.272   6.233   6.429
20552TIP3    H161541   7.320   6.169   6.377
20552TIP3    H261542   7.331   6.308   6.436
20553TIP3   OH261543   5.705   6.087   7.195
20553TIP3    H161544   5.618   6.071   7.231
20553TIP3    H261545   5.689   6.137   7.115
20554TIP3   OH261546   6.857   7.801   6.706
20554TIP3    H161547   6.914   7.788   6.630
20554TIP3    H261548   6.901   7.868   6.757
20555TIP3   OH261549   2.667   1.502  -0.004
20555TIP3    H161550   2.623   1.517   0.080
20555TIP3    H261551   2.609   1.543  -0.069
20556TIP3   OH261552   2.649   2.946   0.009
20556TIP3    H161553   2.560   2.913   0.025
20556TIP3    H261554   2.685   2.961   0.097
20557TIP3   OH261555   6.184   7.629   7.614
20557TIP3    H161556   6.130   7.701   7.582
20557TIP3    H261557   6.268   7.640   7.569
20558TIP3   OH261558   6.568   7.857   7.747
20558TIP3    H161559   6.618   7.841   7.827
20558TIP3    H261560   6.631   7.899   7.687
20559TIP3   OH261561   6.754   7.987   7.599
20559TIP3    H161562   6.785   7.929   7.530
20559TIP3    H261563   6.832   8.007   7.651
20560TIP3   OH261564   5.814   7.837   7.650
20560TIP3    H161565   5.726   7.858   7.620
20560TIP3    H261566   5.833   7.904   7.716
20561TIP3   OH261567   6.056   7.851   7.518
20561TIP3    H161568   5.969   7.847   7.559
20561TIP3    H261569   6.038   7.879   7.428
20562TIP3   OH261570   6.474   7.893   7.302
20562TIP3    H161571   6.397   7.901   7.245
20562TIP3    H261572   6.484   7.981   7.340
20563TIP3   OH261573   6.745   7.844   7.361
20563TIP3    H161574   6.663   7.860   7.314
20563TIP3    H261575   6.810   7.899   7.316
20564TIP3   OH261576   6.951   8.021   7.258
20564TIP3    H161577   6.944   8.099   7.204
20564TIP3    H261578   6.978   7.952   7.198
20565TIP3   OH261579   5.735   7.644   7.393
20565TIP3    H161580   5.760   7.619   7.482
20565TIP3    H261581   5.808   7.615   7.339
20566TIP3   OH261582   5.944   7.535   7.259
20566TIP3    H161583   5.956   7.449   7.300
20566TIP3    H261584   6.031   7.575   7.260
20567TIP3   OH261585   6.211   7.621   7.275
20567TIP3    H161586   6.230   7.528   7.261
20567TIP3    H261587   6.274   7.648   7.341
20568TIP3   OH261588   6.758   6.266   7.358
20568TIP3    H161589   6.721   6.201   7.417
20568TIP3    H261590   6.825   6.219   7.308
20569TIP3   OH261591   7.271   6.177   7.235
20569TIP3    H161592   7.318   6.220   7.164
20569TIP3    H261593   7.234   6.248   7.287
20570TIP3   OH261594   7.397   6.264   7.011
20570TIP3    H161595   7.466   6.204   6.983
20570TIP3    H261596   7.434   6.351   6.998
20571TIP3   OH261597   6.010   5.973   7.377
20571TIP3    H161598   5.921   5.939   7.382
20571TIP3    H261599   6.065   5.896   7.366
20572TIP3   OH261600   5.843   5.891   7.029
20572TIP3    H161601   5.867   5.936   6.948
20572TIP3    H261602   5.806   5.960   7.084
20573TIP3   OH261603   6.495   6.007   7.260
20573TIP3    H161604   6.543   6.054   7.192
20573TIP3    H261605   6.534   6.038   7.342
20574TIP3   OH261606   6.959   6.131   7.237
20574TIP3    H161607   7.033   6.129   7.176
20574TIP3    H261608   6.978   6.060   7.299
20575TIP3   OH261609   7.043   6.112   6.801
20575TIP3    H161610   6.966   6.159   6.831
20575TIP3    H261611   7.034   6.024   6.838
20576TIP3   OH261612   5.502   7.454   6.783
20576TIP3    H161613   5.421   7.421   6.745
20576TIP3    H261614   5.509   7.544   6.751
20577TIP3   OH261615   5.943   6.008   6.780
20577TIP3    H161616   5.988   5.946   6.723
20577TIP3    H261617   6.012   6.064   6.815
20578TIP3   OH261618   6.427   6.203   6.882
20578TIP3    H161619   6.489   6.153   6.935
20578TIP3    H261620   6.441   6.294   6.908
20579TIP3   OH261621   6.312   7.599   6.376
20579TIP3    H161622   6.396   7.625   6.338
20579TIP3    H261623   6.282   7.528   6.319
20580TIP3   OH261624   7.010   7.744   6.479
20580TIP3    H161625   7.004   7.649   6.472
20580TIP3    H261626   6.969   7.777   6.399
20581TIP3   OH261627   2.956   1.620   0.233
20581TIP3    H161628   2.926   1.557   0.299
20581TIP3    H261629   3.049   1.632   0.252
20582TIP3   OH261630   3.202   1.617   0.358
20582TIP3    H161631   3.271   1.593   0.296
20582TIP3    H261632   3.208   1.551   0.428
20583TIP3   OH261633   5.627   7.446   6.433
20583TIP3    H161634   5.631   7.454   6.528
20583TIP3    H261635   5.706   7.397   6.409
20584TIP3   OH261636   4.039   1.663   0.072
20584TIP3    H161637   4.080   1.656   0.158
20584TIP3    H261638   4.111   1.680   0.012
20585TIP3   OH261639   7.249   7.857   7.664
20585TIP3    H161640   7.183   7.801   7.622
20585TIP3    H261641   7.217   7.946   7.651
20586TIP3   OH261642   8.507   7.276   6.403
20586TIP3    H161643   8.476   7.361   6.372
20586TIP3    H261644   8.438   7.214   6.378
20587TIP3   OH261645   8.453   7.246   6.811
20587TIP3    H161646   8.495   7.230   6.895
20587TIP3    H261647   8.416   7.161   6.787
20588TIP3   OH261648   7.800   7.120   7.161
20588TIP3    H161649   7.833   7.066   7.234
20588TIP3    H261650   7.878   7.145   7.112
20589TIP3   OH261651   8.737   7.549   6.500
20589TIP3    H161652   8.716   7.474   6.555
20589TIP3    H261653   8.752   7.621   6.561
20590TIP3   OH261654   7.791   7.545   6.842
20590TIP3    H161655   7.771   7.453   6.857
20590TIP3    H261656   7.886   7.550   6.850
20591TIP3   OH261657   7.481   6.756   6.633
20591TIP3    H161658   7.443   6.839   6.661
20591TIP3    H261659   7.407   6.706   6.598
20592TIP3   OH261660   7.563   7.069   6.860
20592TIP3    H161661   7.613   6.993   6.889
20592TIP3    H261662   7.629   7.137   6.843
20593TIP3   OH261663   8.452   7.982   6.531
20593TIP3    H161664   8.471   7.923   6.458
20593TIP3    H261665   8.464   7.928   6.609
20594TIP3   OH261666   8.306   7.483   6.813
20594TIP3    H161667   8.342   7.396   6.797
20594TIP3    H261668   8.383   7.540   6.816
20595TIP3   OH261669   9.292   6.789   6.819
20595TIP3    H161670   9.333   6.875   6.827
20595TIP3    H261671   9.273   6.780   6.726
20596TIP3   OH261672   8.706   6.981   6.873
20596TIP3    H161673   8.742   6.897   6.904
20596TIP3    H261674   8.673   6.963   6.785
20597TIP3   OH261675   8.079   6.627   6.821
20597TIP3    H161676   8.052   6.699   6.764
20597TIP3    H261677   8.022   6.554   6.797
20598TIP3   OH261678   8.772   6.734   6.462
20598TIP3    H161679   8.835   6.719   6.532
20598TIP3    H261680   8.824   6.767   6.389
20599TIP3   OH261681   7.702   6.848   6.951
20599TIP3    H161682   7.784   6.826   6.996
20599TIP3    H261683   7.702   6.793   6.872
20600TIP3   OH261684   8.113   7.039   6.766
20600TIP3    H161685   8.206   7.019   6.772
20600TIP3    H261686   8.072   6.959   6.734
20601TIP3   OH261687   8.050   6.629   7.275
20601TIP3    H161688   7.998   6.665   7.204
20601TIP3    H261689   7.997   6.645   7.354
20602TIP3   OH261690   8.404   7.485   6.252
20602TIP3    H161691   8.362   7.455   6.171
20602TIP3    H261692   8.353   7.562   6.277
20603TIP3   OH261693   8.164   7.399   7.037
20603TIP3    H161694   8.102   7.463   7.073
20603TIP3    H261695   8.203   7.444   6.962
20604TIP3   OH261696   8.926   6.733   6.688
20604TIP3    H161697   8.878   6.718   6.770
20604TIP3    H261698   8.971   6.816   6.702
20605TIP3   OH261699   7.946   6.736   7.042
20605TIP3    H161700   8.000   6.811   7.067
20605TIP3    H261701   7.995   6.694   6.971
20606TIP3   OH261702   7.981   7.583   7.125
20606TIP3    H161703   7.980   7.676   7.099
20606TIP3    H261704   7.898   7.570   7.170
20607TIP3   OH261705   7.369   7.318   6.403
20607TIP3    H161706   7.332   7.340   6.318
20607TIP3    H261707   7.392   7.402   6.442
20608TIP3   OH261708   9.123   6.654   6.999
20608TIP3    H161709   9.036   6.684   6.972
20608TIP3    H261710   9.183   6.699   6.938
20609TIP3   OH261711   8.393   6.324   7.011
20609TIP3    H161712   8.384   6.232   7.034
20609TIP3    H261713   8.316   6.367   7.048
20610TIP3   OH261714   8.523   7.854   6.292
20610TIP3    H161715   8.576   7.775   6.278
20610TIP3    H261716   8.581   7.926   6.271
20611TIP3   OH261717   8.651   7.618   6.249
20611TIP3    H161718   8.575   7.560   6.239
20611TIP3    H261719   8.694   7.588   6.328
20612TIP3   OH261720   8.338   7.107   6.258
20612TIP3    H161721   8.255   7.149   6.236
20612TIP3    H261722   8.386   7.106   6.175
20613TIP3   OH261723   8.299   6.903   5.943
20613TIP3    H161724   8.356   6.955   6.000
20613TIP3    H261725   8.359   6.841   5.900
20614TIP3   OH261726   8.690   7.205   6.211
20614TIP3    H161727   8.637   7.234   6.285
20614TIP3    H261728   8.772   7.177   6.249
20615TIP3   OH261729   7.927   7.185   6.615
20615TIP3    H161730   7.885   7.123   6.556
20615TIP3    H261731   7.996   7.135   6.657
20616TIP3   OH261732   8.059   7.604   6.758
20616TIP3    H161733   8.033   7.589   6.667
20616TIP3    H261734   8.144   7.561   6.766
20617TIP3   OH261735   8.018   7.171   6.992
20617TIP3    H161736   8.055   7.135   6.911
20617TIP3    H261737   8.070   7.249   7.009
20618TIP3   OH261738   8.523   7.830   6.756
20618TIP3    H161739   8.598   7.874   6.796
20618TIP3    H261740   8.533   7.738   6.781
20619TIP3   OH261741   8.057   7.723   7.360
20619TIP3    H161742   8.019   7.805   7.328
20619TIP3    H261743   8.059   7.665   7.284
20620TIP3   OH261744   8.519   7.061   6.048
20620TIP3    H161745   8.580   7.117   6.095
20620TIP3    H261746   8.545   7.067   5.957
20621TIP3   OH261747   7.947   7.245   7.447
20621TIP3    H161748   7.961   7.336   7.474
20621TIP3    H261749   7.852   7.240   7.432
20622TIP3   OH261750   8.276   7.726   6.293
20622TIP3    H161751   8.354   7.780   6.305
20622TIP3    H261752   8.213   7.785   6.249
20623TIP3   OH261753   9.042   6.262   6.109
20623TIP3    H161754   8.969   6.291   6.163
20623TIP3    H261755   9.062   6.337   6.053
20624TIP3   OH261756   7.787   7.029   6.426
20624TIP3    H161757   7.706   7.073   6.399
20624TIP3    H261758   7.757   6.943   6.457
20625TIP3   OH261759   8.858   7.661   5.654
20625TIP3    H161760   8.851   7.755   5.639
20625TIP3    H261761   8.948   7.639   5.629
20626TIP3   OH261762   7.577   7.413   7.357
20626TIP3    H161763   7.502   7.403   7.299
20626TIP3    H261764   7.617   7.326   7.360
20627TIP3   OH261765   7.412   7.617   7.005
20627TIP3    H161766   7.499   7.649   7.030
20627TIP3    H261767   7.353   7.689   7.028
20628TIP3   OH261768   8.157   7.936   6.130
20628TIP3    H161769   8.112   7.923   6.046
20628TIP3    H261770   8.124   8.020   6.162
20629TIP3   OH261771   7.592   7.804   6.504
20629TIP3    H161772   7.639   7.797   6.587
20629TIP3    H261773   7.545   7.721   6.496
20630TIP3   OH261774   8.364   7.884   5.763
20630TIP3    H161775   8.414   7.810   5.726
20630TIP3    H261776   8.398   7.894   5.851
20631TIP3   OH261777   8.414   7.919   6.035
20631TIP3    H161778   8.324   7.926   6.069
20631TIP3    H261779   8.463   7.881   6.108
20632TIP3   OH261780   7.747   7.613   7.269
20632TIP3    H161781   7.761   7.665   7.347
20632TIP3    H261782   7.690   7.541   7.298
20633TIP3   OH261783   8.157   6.417   7.130
20633TIP3    H161784   8.074   6.380   7.099
20633TIP3    H261785   8.131   6.494   7.180
20634TIP3   OH261786   8.697   6.528   7.327
20634TIP3    H161787   8.770   6.507   7.385
20634TIP3    H261788   8.619   6.512   7.380
20635TIP3   OH261789   8.599   7.066   5.788
20635TIP3    H161790   8.559   7.054   5.702
20635TIP3    H261791   8.686   7.101   5.770
20636TIP3   OH261792   8.303   6.475   6.089
20636TIP3    H161793   8.272   6.480   6.179
20636TIP3    H261794   8.265   6.394   6.055
20637TIP3   OH261795   8.098   6.947   7.136
20637TIP3    H161796   8.052   6.952   7.220
20637TIP3    H261797   8.075   7.028   7.091
20638TIP3   OH261798   7.973   6.824   6.660
20638TIP3    H161799   7.885   6.798   6.687
20638TIP3    H261800   7.982   6.791   6.571
20639TIP3   OH261801   8.460   6.900   6.391
20639TIP3    H161802   8.414   6.974   6.352
20639TIP3    H261803   8.519   6.869   6.321
20640TIP3   OH261804   8.623   6.916   6.617
20640TIP3    H161805   8.555   6.934   6.552
20640TIP3    H261806   8.673   6.843   6.579
20641TIP3   OH261807   7.930   6.956   7.353
20641TIP3    H161808   7.946   7.022   7.421
20641TIP3    H261809   7.910   6.876   7.401
20642TIP3   OH261810   7.968   6.451   6.043
20642TIP3    H161811   7.957   6.448   6.138
20642TIP3    H261812   7.886   6.488   6.010
20643TIP3   OH261813   7.522   6.488   6.929
20643TIP3    H161814   7.597   6.519   6.980
20643TIP3    H261815   7.561   6.458   6.847
20644TIP3   OH261816   7.433   6.462   6.443
20644TIP3    H161817   7.480   6.498   6.367
20644TIP3    H261818   7.370   6.530   6.465
20645TIP3   OH261819   8.576   7.160   7.040
20645TIP3    H161820   8.632   7.111   6.980
20645TIP3    H261821   8.572   7.106   7.119
20646TIP3   OH261822   8.345   6.624   6.719
20646TIP3    H161823   8.264   6.622   6.770
20646TIP3    H261824   8.415   6.617   6.784
20647TIP3   OH261825   7.738   6.699   6.721
20647TIP3    H161826   7.649   6.705   6.685
20647TIP3    H261827   7.761   6.606   6.713
20648TIP3   OH261828   7.995   6.707   6.412
20648TIP3    H161829   8.090   6.715   6.409
20648TIP3    H261830   7.966   6.735   6.324
20649TIP3   OH261831   8.788   6.718   6.934
20649TIP3    H161832   8.782   6.733   7.028
20649TIP3    H261833   8.715   6.659   6.914
20650TIP3   OH261834   7.882   6.757   6.158
20650TIP3    H161835   7.805   6.702   6.141
20650TIP3    H261836   7.932   6.754   6.077
20651TIP3   OH261837   7.979   7.515   7.524
20651TIP3    H161838   8.000   7.593   7.473
20651TIP3    H261839   7.902   7.541   7.575
20652TIP3   OH261840   8.380   6.973   6.807
20652TIP3    H161841   8.451   6.926   6.762
20652TIP3    H261842   8.378   6.936   6.895
20653TIP3   OH261843   7.886   6.446   6.722
20653TIP3    H161844   7.859   6.370   6.774
20653TIP3    H261845   7.913   6.409   6.638
20654TIP3   OH261846   8.357   6.879   7.069
20654TIP3    H161847   8.272   6.912   7.098
20654TIP3    H261848   8.420   6.921   7.128
20655TIP3   OH261849   8.096   7.229   6.194
20655TIP3    H161850   8.025   7.168   6.175
20655TIP3    H261851   8.066   7.278   6.271
20656TIP3   OH261852   8.562   6.559   6.108
20656TIP3    H161853   8.469   6.544   6.097
20656TIP3    H261854   8.570   6.654   6.113
20657TIP3   OH261855   8.623   6.827   6.172
20657TIP3    H161856   8.718   6.831   6.181
20657TIP3    H261857   8.600   6.902   6.117
20658TIP3   OH261858   7.783   7.253   6.844
20658TIP3    H161859   7.826   7.241   6.760
20658TIP3    H261860   7.849   7.225   6.908
20659TIP3   OH261861   8.244   7.398   6.035
20659TIP3    H161862   8.197   7.481   6.032
20659TIP3    H261863   8.189   7.342   6.090
20660TIP3   OH261864   7.672   7.164   7.446
20660TIP3    H161865   7.676   7.117   7.530
20660TIP3    H261866   7.595   7.127   7.402
20661TIP3   OH261867   8.387   7.302   7.547
20661TIP3    H161868   8.322   7.257   7.494
20661TIP3    H261869   8.470   7.283   7.504
20662TIP3   OH261870   9.034   6.930   5.986
20662TIP3    H161871   8.965   6.890   5.933
20662TIP3    H261872   9.058   7.009   5.938
20663TIP3   OH261873   8.771   7.711   5.923
20663TIP3    H161874   8.745   7.638   5.980
20663TIP3    H261875   8.793   7.670   5.840
20664TIP3   OH261876   8.686   7.359   6.700
20664TIP3    H161877   8.603   7.315   6.716
20664TIP3    H261878   8.745   7.289   6.671
20665TIP3   OH261879   7.914   7.602   6.517
20665TIP3    H161880   7.905   7.678   6.458
20665TIP3    H261881   7.833   7.603   6.568
20666TIP3   OH261882   7.472   6.884   6.235
20666TIP3    H161883   7.514   6.968   6.257
20666TIP3    H261884   7.391   6.884   6.285
20667TIP3   OH261885   7.985   7.360   6.405
20667TIP3    H161886   7.973   7.449   6.437
20667TIP3    H261887   7.968   7.304   6.481
20668TIP3   OH261888   8.188   7.958   6.956
20668TIP3    H161889   8.205   8.053   6.951
20668TIP3    H261890   8.274   7.918   6.946
20669TIP3   OH261891   7.827   7.820   6.362
20669TIP3    H161892   7.740   7.824   6.401
20669TIP3    H261893   7.857   7.911   6.361
20670TIP3   OH261894   8.576   7.572   6.848
20670TIP3    H161895   8.594   7.546   6.939
20670TIP3    H261896   8.619   7.506   6.795
20671TIP3   OH261897   8.536   7.464   5.813
20671TIP3    H161898   8.591   7.440   5.888
20671TIP3    H261899   8.455   7.414   5.826
20672TIP3   OH261900   8.863   7.935   5.627
20672TIP3    H161901   8.911   8.009   5.591
20672TIP3    H261902   8.780   7.973   5.657
20673TIP3   OH261903   7.876   6.709   7.477
20673TIP3    H161904   7.780   6.715   7.479
20673TIP3    H261905   7.898   6.646   7.545
20674TIP3   OH261906   8.719   7.391   6.002
20674TIP3    H161907   8.701   7.338   6.080
20674TIP3    H261908   8.813   7.381   5.987
20675TIP3   OH261909   7.608   7.802   7.116
20675TIP3    H161910   7.666   7.741   7.163
20675TIP3    H261911   7.624   7.886   7.158
20676TIP3   OH261912   7.895   7.441   5.835
20676TIP3    H161913   7.904   7.349   5.808
20676TIP3    H261914   7.883   7.438   5.929
20677TIP3   OH261915   7.837   7.445   6.109
20677TIP3    H161916   7.890   7.424   6.186
20677TIP3    H261917   7.834   7.541   6.108
20678TIP3   OH261918   7.562   7.140   6.311
20678TIP3    H161919   7.497   7.187   6.364
20678TIP3    H261920   7.579   7.199   6.237
20679TIP3   OH261921   8.760   6.764   7.205
20679TIP3    H161922   8.825   6.795   7.268
20679TIP3    H261923   8.729   6.682   7.241
20680TIP3   OH261924   8.628   6.513   6.374
20680TIP3    H161925   8.602   6.531   6.284
20680TIP3    H261926   8.669   6.595   6.404
20681TIP3   OH261927   8.104   7.629   6.029
20681TIP3    H161928   8.020   7.653   6.068
20681TIP3    H261929   8.131   7.707   5.981
20682TIP3   OH261930   8.272   6.712   6.465
20682TIP3    H161931   8.335   6.779   6.439
20682TIP3    H261932   8.294   6.694   6.557
20683TIP3   OH261933   8.566   6.966   7.231
20683TIP3    H161934   8.566   6.978   7.326
20683TIP3    H261935   8.629   6.896   7.216
20684TIP3   OH261936   8.438   6.417   6.554
20684TIP3    H161937   8.414   6.494   6.604
20684TIP3    H261938   8.506   6.447   6.493
20685TIP3   OH261939   7.855   7.717   6.110
20685TIP3    H161940   7.835   7.788   6.050
20685TIP3    H261941   7.844   7.756   6.197
20686TIP3   OH261942   7.951   6.439   6.323
20686TIP3    H161943   7.937   6.523   6.366
20686TIP3    H261944   8.045   6.422   6.332
20687TIP3   OH261945   8.828   7.115   6.611
20687TIP3    H161946   8.753   7.056   6.618
20687TIP3    H261947   8.896   7.074   6.664
20688TIP3   OH261948   7.591   7.314   6.095
20688TIP3    H161949   7.661   7.379   6.104
20688TIP3    H261950   7.625   7.251   6.032
20689TIP3   OH261951   7.505   6.607   6.218
20689TIP3    H161952   7.502   6.702   6.227
20689TIP3    H261953   7.434   6.587   6.157
20690TIP3   OH261954   7.901   6.321   7.089
20690TIP3    H161955   7.875   6.282   7.006
20690TIP3    H261956   7.893   6.250   7.153
20691TIP3   OH261957   7.416   7.583   6.487
20691TIP3    H161958   7.379   7.621   6.566
20691TIP3    H261959   7.372   7.628   6.415
20692TIP3   OH261960   8.046   7.638   5.713
20692TIP3    H161961   8.000   7.571   5.763
20692TIP3    H261962   8.121   7.592   5.674
20693TIP3   OH261963   8.487   7.671   5.641
20693TIP3    H161964   8.520   7.606   5.703
20693TIP3    H261965   8.546   7.664   5.566
20694TIP3   OH261966   7.766   7.529   7.698
20694TIP3    H161967   7.778   7.437   7.718
20694TIP3    H261968   7.673   7.537   7.677
20695TIP3   OH261969   7.720   7.121   5.950
20695TIP3    H161970   7.773   7.094   6.025
20695TIP3    H261971   7.783   7.142   5.881
20696TIP3   OH261972   8.280   7.327   5.773
20696TIP3    H161973   8.258   7.345   5.864
20696TIP3    H261974   8.259   7.235   5.760
20697TIP3   OH261975   7.841   7.270   7.748
20697TIP3    H161976   7.857   7.202   7.683
20697TIP3    H261977   7.819   7.221   7.828
20698TIP3   OH261978   7.888   7.036   6.165
20698TIP3    H161979   7.859   7.057   6.254
20698TIP3    H261980   7.890   6.940   6.162
20699TIP3   OH261981   8.193   7.132   7.387
20699TIP3    H161982   8.111   7.180   7.400
20699TIP3    H261983   8.234   7.173   7.311
20700TIP3   OH261984   8.022   6.847   5.931
20700TIP3    H161985   7.993   6.937   5.947
20700TIP3    H261986   8.116   6.848   5.946
20701TIP3   OH261987   8.824   7.168   5.659
20701TIP3    H161988   8.808   7.129   5.573
20701TIP3    H261989   8.797   7.260   5.649
20702TIP3   OH261990   8.293   6.902   7.488
20702TIP3    H161991   8.301   6.828   7.428
20702TIP3    H261992   8.259   6.974   7.435
20703TIP3   OH261993   8.314   6.699   7.295
20703TIP3    H161994   8.336   6.736   7.209
20703TIP3    H261995   8.221   6.676   7.288
20704TIP3   OH261996   8.335   7.241   7.183
20704TIP3    H161997   8.416   7.232   7.133
20704TIP3    H261998   8.283   7.303   7.134
20705TIP3   OH261999   8.159   7.036   7.694
20705TIP3    H162000   8.107   6.960   7.721
20705TIP3    H262001   8.193   7.012   7.608
20706TIP3   OH262002   8.428   6.465   7.401
20706TIP3    H162003   8.390   6.547   7.368
20706TIP3    H262004   8.356   6.402   7.395
20707TIP3   OH262005   8.564   6.967   7.502
20707TIP3    H162006   8.606   6.903   7.559
20707TIP3    H262007   8.470   6.953   7.515
20708TIP3   OH262008   8.029   6.804   7.756
20708TIP3    H162009   8.069   6.733   7.706
20708TIP3    H262010   8.014   6.767   7.843
20709TIP3   OH262011   8.572   6.475   7.632
20709TIP3    H162012   8.588   6.389   7.671
20709TIP3    H262013   8.511   6.458   7.560
20710TIP3   OH262014   8.607   6.741   7.655
20710TIP3    H162015   8.600   6.648   7.636
20710TIP3    H262016   8.522   6.765   7.691
20711TIP3   OH262017   7.849   7.923   5.927
20711TIP3    H162018   7.940   7.909   5.902
20711TIP3    H262019   7.811   7.972   5.853
20712TIP3   OH262020   7.316   7.320   6.103
20712TIP3    H162021   7.411   7.329   6.104
20712TIP3    H262022   7.300   7.234   6.066
20713TIP3   OH262023   7.219   7.892   6.575
20713TIP3    H162024   7.153   7.840   6.530
20713TIP3    H262025   7.264   7.831   6.633
20714TIP3   OH262026   7.367   7.720   6.734
20714TIP3    H162027   7.359   7.652   6.802
20714TIP3    H262028   7.421   7.788   6.774
20715TIP3   OH262029   8.994   7.353   5.983
20715TIP3    H162030   9.050   7.428   5.961
20715TIP3    H262031   9.033   7.316   6.062
20716TIP3   OH262032   9.110   7.228   6.197
20716TIP3    H162033   9.043   7.192   6.255
20716TIP3    H262034   9.179   7.258   6.256
20717TIP3   OH262035   9.054   7.149   5.807
20717TIP3    H162036   8.974   7.142   5.755
20717TIP3    H262037   9.037   7.221   5.868
20718TIP3   OH262038   8.850   6.824   5.818
20718TIP3    H162039   8.810   6.843   5.733
20718TIP3    H262040   8.854   6.728   5.821
20719TIP3   OH262041   8.911   7.100   6.345
20719TIP3    H162042   8.917   7.006   6.332
20719TIP3    H262043   8.888   7.111   6.437
20720TIP3   OH262044   7.537   7.172   7.113
20720TIP3    H162045   7.525   7.135   7.026
20720TIP3    H262046   7.630   7.160   7.132
20721TIP3   OH262047   8.844   6.554   5.810
20721TIP3    H162048   8.916   6.511   5.856
20721TIP3    H262049   8.769   6.496   5.824
20722TIP3   OH262050   8.914   6.826   6.231
20722TIP3    H162051   8.961   6.744   6.241
20722TIP3    H262052   8.955   6.868   6.155
20723TIP3   OH262053   9.040   6.980   6.741
20723TIP3    H162054   9.125   6.997   6.701
20723TIP3    H262055   9.051   7.007   6.833
20724TIP3   OH262056   7.756   6.836   7.797
20724TIP3    H162057   7.849   6.830   7.774
20724TIP3    H262058   7.722   6.749   7.776
20725TIP3   OH262059   9.029   6.575   6.285
20725TIP3    H162060   9.076   6.557   6.366
20725TIP3    H262061   8.968   6.502   6.275
20726TIP3   OH262062   7.739   6.547   7.089
20726TIP3    H162063   7.791   6.468   7.101
20726TIP3    H262064   7.803   6.618   7.079
20727TIP3   OH262065   7.510   6.821   7.158
20727TIP3    H162066   7.567   6.827   7.082
20727TIP3    H262067   7.569   6.834   7.233
20728TIP3   OH262068   9.083   6.468   5.931
20728TIP3    H162069   9.133   6.417   5.867
20728TIP3    H262070   9.128   6.552   5.934
20729TIP3   OH262071   7.504   6.330   6.671
20729TIP3    H162072   7.418   6.319   6.712
20729TIP3    H262073   7.487   6.384   6.593
20730TIP3   OH262074   8.676   8.057   6.199
20730TIP3    H162075   8.699   8.023   6.113
20730TIP3    H262076   8.737   8.129   6.214
20731TIP3   OH262077   7.748   7.770   7.490
20731TIP3    H162078   7.661   7.808   7.494
20731TIP3    H262079   7.790   7.797   7.572
20732TIP3   OH262080   7.978   7.855   7.102
20732TIP3    H162081   7.908   7.912   7.071
20732TIP3    H262082   8.057   7.891   7.063
20733TIP3   OH262083   9.342   6.598   7.174
20733TIP3    H162084   9.265   6.625   7.123
20733TIP3    H262085   9.376   6.522   7.127
20734TIP3   OH262086   7.595   8.095   7.161
20734TIP3    H162087   7.510   8.137   7.150
20734TIP3    H262088   7.635   8.141   7.234
20735TIP3   OH262089   7.809   8.038   6.993
20735TIP3    H162090   7.731   8.066   7.042
20735TIP3    H262091   7.814   8.100   6.919
20736TIP3   OH262092   7.537   7.902   6.872
20736TIP3    H162093   7.563   7.876   6.960
20736TIP3    H262094   7.610   7.874   6.816
20737TIP3   OH262095   7.742   7.789   6.732
20737TIP3    H162096   7.752   7.706   6.779
20737TIP3    H262097   7.826   7.833   6.742
20738TIP3   OH262098   8.006   7.878   6.758
20738TIP3    H162099   8.029   7.785   6.753
20738TIP3    H262100   8.056   7.911   6.833
20739TIP3   OH262101   8.567   6.540   6.873
20739TIP3    H162102   8.526   6.466   6.918
20739TIP3    H262103   8.632   6.500   6.816
20740TIP3   OH262104   9.058   6.423   6.716
20740TIP3    H162105   9.105   6.474   6.649
20740TIP3    H262106   8.974   6.467   6.726
20741TIP3   OH262107   9.195   6.514   6.498
20741TIP3    H162108   9.264   6.451   6.479
20741TIP3    H262109   9.235   6.599   6.482
20742TIP3   OH262110   7.822   6.206   6.851
20742TIP3    H162111   7.731   6.176   6.862
20742TIP3    H262112   7.873   6.126   6.840
20743TIP3   OH262113   7.563   6.129   6.466
20743TIP3    H162114   7.621   6.173   6.404
20743TIP3    H262115   7.560   6.188   6.542
20744TIP3   OH262116   8.285   6.276   6.748
20744TIP3    H162117   8.336   6.324   6.683
20744TIP3    H262118   8.324   6.300   6.832
20745TIP3   OH262119   8.768   6.430   6.722
20745TIP3    H162120   8.768   6.397   6.632
20745TIP3    H262121   8.777   6.352   6.776
20746TIP3   OH262122   8.848   6.363   6.282
20746TIP3    H162123   8.770   6.414   6.304
20746TIP3    H262124   8.833   6.278   6.323
20747TIP3   OH262125   7.300   7.708   6.271
20747TIP3    H162126   7.217   7.674   6.238
20747TIP3    H262127   7.305   7.797   6.238
20748TIP3   OH262128   7.739   6.257   6.267
20748TIP3    H162129   7.784   6.189   6.217
20748TIP3    H262130   7.809   6.315   6.295
20749TIP3   OH262131   8.226   6.465   6.355
20749TIP3    H162132   8.279   6.405   6.408
20749TIP3    H262133   8.243   6.551   6.393
20750TIP3   OH262134   8.108   7.859   5.860
20750TIP3    H162135   8.191   7.887   5.823
20750TIP3    H262136   8.078   7.789   5.802
20751TIP3   OH262137   8.783   7.982   5.953
20751TIP3    H162138   8.784   7.886   5.949
20751TIP3    H262139   8.742   8.009   5.871
20752TIP3   OH262140   7.997   6.520   7.654
20752TIP3    H162141   7.947   6.476   7.723
20752TIP3    H262142   8.084   6.533   7.691
20753TIP3   OH262143   8.232   6.600   7.764
20753TIP3    H162144   8.288   6.678   7.758
20753TIP3    H262145   8.292   6.530   7.790
20754TIP3   OH262146   7.414   7.699   5.920
20754TIP3    H162147   7.416   7.712   6.014
20754TIP3    H262148   7.495   7.652   5.900
20755TIP3   OH262149   9.272   7.003   6.126
20755TIP3    H162150   9.236   7.088   6.153
20755TIP3    H262151   9.200   6.960   6.081
20756TIP3   OH262152   9.338   7.285   6.336
20756TIP3    H162153   9.387   7.212   6.375
20756TIP3    H262154   9.406   7.343   6.302
20757TIP3   OH262155   0.083   6.846   6.279
20757TIP3    H162156   0.071   6.937   6.251
20757TIP3    H262157   0.006   6.800   6.246
20758TIP3   OH262158   9.491   7.078   6.436
20758TIP3    H162159   9.557   7.038   6.492
20758TIP3    H262160   9.503   7.036   6.351
20759TIP3   OH262161   9.158   7.549   5.882
20759TIP3    H162162   9.122   7.576   5.797
20759TIP3    H262163   9.185   7.631   5.924
20760TIP3   OH262164   0.287   7.376   5.633
20760TIP3    H162165   0.222   7.446   5.646
20760TIP3    H262166   0.366   7.408   5.677
20761TIP3   OH262167   0.274   7.150   5.476
20761TIP3    H162168   0.288   7.230   5.527
20761TIP3    H262169   0.320   7.082   5.525
20762TIP3   OH262170   9.587   7.277   5.880
20762TIP3    H162171   9.496   7.301   5.866
20762TIP3    H262172   9.583   7.208   5.947
20763TIP3   OH262173   0.253   6.641   5.686
20763TIP3    H162174   0.186   6.664   5.750
20763TIP3    H262175   0.205   6.612   5.610
20764TIP3   OH262176   9.779   7.074   6.144
20764TIP3    H162177   9.692   7.041   6.165
20764TIP3    H262178   9.790   7.054   6.051
20765TIP3   OH262179   9.765   6.743   5.561
20765TIP3    H162180   9.769   6.731   5.656
20765TIP3    H262181   9.678   6.780   5.546
20766TIP3   OH262182   9.316   6.741   6.417
20766TIP3    H162183   9.398   6.777   6.452
20766TIP3    H262184   9.339   6.713   6.328
20767TIP3   OH262185   9.207   6.717   5.940
20767TIP3    H162186   9.255   6.753   5.866
20767TIP3    H262187   9.143   6.785   5.961
20768TIP3   OH262188   9.536   6.950   6.197
20768TIP3    H162189   9.447   6.952   6.160
20768TIP3    H262190   9.568   6.863   6.175
20769TIP3   OH262191   9.779   6.987   5.882
20769TIP3    H162192   9.791   6.892   5.887
20769TIP3    H262193   9.715   6.999   5.811
20770TIP3   OH262194   9.614   7.013   5.652
20770TIP3    H162195   9.570   6.952   5.592
20770TIP3    H262196   9.688   7.046   5.602
20771TIP3   OH262197   9.672   6.710   6.157
20771TIP3    H162198   9.659   6.624   6.198
20771TIP3    H262199   9.711   6.690   6.072
20772TIP3   OH262200   0.044   7.533   5.700
20772TIP3    H162201  -0.007   7.458   5.669
20772TIP3    H262202   0.047   7.521   5.795
20773TIP3   OH262203   0.652   6.876   5.566
20773TIP3    H162204   0.621   6.804   5.622
20773TIP3    H262205   0.635   6.955   5.617
20774TIP3   OH262206   9.266   7.171   5.618
20774TIP3    H162207   9.302   7.235   5.681
20774TIP3    H262208   9.192   7.132   5.665
20775TIP3   OH262209   9.737   7.661   5.329
20775TIP3    H162210   9.703   7.576   5.302
20775TIP3    H262211   9.697   7.678   5.414
20776TIP3   OH262212   9.643   7.692   5.587
20776TIP3    H162213   9.715   7.642   5.626
20776TIP3    H262214   9.649   7.779   5.628
20777TIP3   OH262215   9.348   7.381   5.776
20777TIP3    H162216   9.284   7.424   5.832
20777TIP3    H262217   9.378   7.449   5.716
20778TIP3   OH262218   0.698   6.922   5.855
20778TIP3    H162219   0.670   6.837   5.889
20778TIP3    H262220   0.697   6.979   5.932
20779TIP3   OH262221   0.424   6.708   6.083
20779TIP3    H162222   0.404   6.801   6.091
20779TIP3    H262223   0.516   6.705   6.055
20780TIP3   OH262224   9.395   7.559   5.563
20780TIP3    H162225   9.467   7.620   5.574
20780TIP3    H262226   9.428   7.493   5.502
20781TIP3   OH262227   9.295   6.858   5.721
20781TIP3    H162228   9.354   6.930   5.700
20781TIP3    H262229   9.314   6.791   5.655
20782TIP3   OH262230   9.708   6.596   6.564
20782TIP3    H162231   9.684   6.556   6.480
20782TIP3    H262232   9.639   6.567   6.625
20783TIP3   OH262233   9.220   7.802   5.961
20783TIP3    H162234   9.205   7.856   6.039
20783TIP3    H262235   9.192   7.858   5.888
20784TIP3   OH262236   0.065   7.872   5.195
20784TIP3    H162237   0.022   7.805   5.247
20784TIP3    H262238   0.147   7.831   5.166
20785TIP3   OH262239   9.487   7.307   5.447
20785TIP3    H162240   9.550   7.310   5.519
20785TIP3    H262241   9.535   7.340   5.371
20786TIP3   OH262242   0.203   7.599   5.280
20786TIP3    H162243   0.116   7.621   5.314
20786TIP3    H262244   0.199   7.504   5.267
20787TIP3   OH262245   9.686   7.322   5.633
20787TIP3    H162246   9.658   7.296   5.721
20787TIP3    H262247   9.735   7.248   5.600
20788TIP3   OH262248   0.003   7.120   5.488
20788TIP3    H162249  -0.025   7.127   5.397
20788TIP3    H262250   0.099   7.122   5.484
20789TIP3   OH262251   7.212   7.158   7.624
20789TIP3    H162252   7.299   7.196   7.614
20789TIP3    H262253   7.152   7.224   7.589
20790TIP3   OH262254   9.117   7.571   5.599
20790TIP3    H162255   9.211   7.583   5.587
20790TIP3    H262256   9.102   7.479   5.579
20791TIP3   OH262257   8.890   8.203   6.074
20791TIP3    H162258   8.866   8.124   6.027
20791TIP3    H262259   8.985   8.198   6.084
20792TIP3   OH262260   9.532   6.813   6.578
20792TIP3    H162261   9.507   6.741   6.637
20792TIP3    H262262   9.620   6.791   6.550
20793TIP3   OH262263   9.296   7.038   6.652
20793TIP3    H162264   9.351   6.998   6.585
20793TIP3    H262265   9.309   7.132   6.641
20794TIP3   OH262266   9.290   6.590   6.167
20794TIP3    H162267   9.202   6.577   6.203
20794TIP3    H262268   9.276   6.641   6.088
20795TIP3   OH262269   9.478   6.589   6.740
20795TIP3    H162270   9.469   6.499   6.773
20795TIP3    H262271   9.426   6.642   6.801
20796TIP3   OH262272   9.615   6.472   6.329
20796TIP3    H162273   9.528   6.438   6.350
20796TIP3    H262274   9.671   6.394   6.326
20797TIP3   OH262275   9.417   6.388   6.016
20797TIP3    H162276   9.448   6.438   5.941
20797TIP3    H262277   9.383   6.453   6.077
20798TIP3   OH262278   0.219   6.580   6.231
20798TIP3    H162279   0.290   6.623   6.183
20798TIP3    H262280   0.169   6.652   6.269
20799TIP3   OH262281   9.113   7.953   5.758
20799TIP3    H162282   9.028   7.913   5.739
20799TIP3    H262283   9.109   8.040   5.718
20800TIP3   OH262284   9.515   6.539   5.795
20800TIP3    H162285   9.551   6.476   5.732
20800TIP3    H262286   9.591   6.588   5.826
20801TIP3   OH262287   9.174   7.898   5.416
20801TIP3    H162288   9.179   7.940   5.503
20801TIP3    H262289   9.265   7.890   5.388
20802TIP3   OH262290   8.238   2.942   0.403
20802TIP3    H162291   8.292   2.981   0.472
20802TIP3    H262292   8.269   2.981   0.322
20803TIP3   OH262293   7.629   3.172   0.612
20803TIP3    H162294   7.685   3.095   0.619
20803TIP3    H262295   7.580   3.159   0.531
20804TIP3   OH262296   7.723   3.031   0.146
20804TIP3    H162297   7.798   2.990   0.188
20804TIP3    H262298   7.692   2.966   0.082
20805TIP3   OH262299   8.366   3.300   0.830
20805TIP3    H162300   8.371   3.387   0.790
20805TIP3    H262301   8.445   3.255   0.800
20806TIP3   OH262302   7.903   2.902   0.326
20806TIP3    H162303   7.951   2.862   0.398
20806TIP3    H262304   7.963   2.970   0.293
20807TIP3   OH262305   8.083   2.918   0.693
20807TIP3    H162306   8.077   2.863   0.614
20807TIP3    H262307   8.110   3.003   0.660
20808TIP3   OH262308   0.683   6.680   6.005
20808TIP3    H162309   0.707   6.588   5.992
20808TIP3    H262310   0.746   6.712   6.071
20809TIP3   OH262311   8.207   3.523   0.421
20809TIP3    H162312   8.289   3.521   0.471
20809TIP3    H262313   8.226   3.578   0.345
20810TIP3   OH262314   1.136   7.995   7.865
20810TIP3    H162315   1.087   7.966   7.942
20810TIP3    H262316   1.226   7.970   7.883
20811TIP3   OH262317   1.027   7.778   7.703
20811TIP3    H162318   1.063   7.848   7.759
20811TIP3    H262319   1.019   7.818   7.617
20812TIP3   OH262320   1.502   7.067   7.756
20812TIP3    H162321   1.427   7.087   7.811
20812TIP3    H262322   1.517   7.146   7.705
20813TIP3   OH262323   1.315   8.447   7.347
20813TIP3    H162324   1.310   8.539   7.320
20813TIP3    H262325   1.403   8.419   7.320
20814TIP3   OH262326   7.653   2.767   1.122
20814TIP3    H162327   7.718   2.726   1.180
20814TIP3    H262328   7.581   2.704   1.119
20815TIP3   OH262329   1.033   7.867   7.447
20815TIP3    H162330   1.005   7.826   7.365
20815TIP3    H262331   1.120   7.903   7.428
20816TIP3   OH262332   7.551   3.070   0.360
20816TIP3    H162333   7.472   3.097   0.312
20816TIP3    H262334   7.622   3.085   0.298
20817TIP3   OH262335   7.752   2.925   0.600
20817TIP3    H162336   7.734   2.880   0.683
20817TIP3    H262337   7.710   2.871   0.533
20818TIP3   OH262338   1.523   7.711   7.657
20818TIP3    H162339   1.471   7.662   7.594
20818TIP3    H262340   1.516   7.802   7.628
20819TIP3   OH262341   1.226   8.483   7.609
20819TIP3    H162342   1.198   8.399   7.647
20819TIP3    H262343   1.258   8.460   7.522
20820TIP3   OH262344   1.313   8.718   7.298
20820TIP3    H162345   1.295   8.792   7.240
20820TIP3    H262346   1.284   8.747   7.384
20821TIP3   OH262347   1.176   8.212   7.670
20821TIP3    H162348   1.140   8.148   7.731
20821TIP3    H262349   1.271   8.199   7.675
20822TIP3   OH262350   7.702   2.844   0.858
20822TIP3    H162351   7.694   2.936   0.884
20822TIP3    H262352   7.677   2.795   0.936
20823TIP3   OH262353   8.174   3.052   0.916
20823TIP3    H162354   8.104   3.054   0.981
20823TIP3    H262355   8.150   2.981   0.857
20824TIP3   OH262356   7.808   3.291   0.285
20824TIP3    H162357   7.742   3.304   0.216
20824TIP3    H262358   7.870   3.228   0.247
20825TIP3   OH262359   1.272   7.976   7.359
20825TIP3    H162360   1.266   7.941   7.270
20825TIP3    H262361   1.235   8.064   7.351
20826TIP3   OH262362   1.450   8.183   7.680
20826TIP3    H162363   1.507   8.252   7.645
20826TIP3    H262364   1.502   8.141   7.748
20827TIP3   OH262365   1.590   8.025   7.853
20827TIP3    H162366   1.509   7.981   7.876
20827TIP3    H262367   1.624   8.057   7.937
20828TIP3   OH262368   1.482   7.953   7.532
20828TIP3    H162369   1.408   7.949   7.471
20828TIP3    H262370   1.466   8.031   7.584
20829TIP3   OH262371   1.390   7.591   7.458
20829TIP3    H162372   1.322   7.624   7.399
20829TIP3    H262373   1.369   7.498   7.468
20830TIP3   OH262374   1.372   7.893   7.964
20830TIP3    H162375   1.380   7.797   7.962
20830TIP3    H262376   1.426   7.920   8.038
20831TIP3   OH262377   1.335   7.320   7.473
20831TIP3    H162378   1.413   7.302   7.525
20831TIP3    H262379   1.263   7.317   7.537
20832TIP3   OH262380   1.449   7.630   7.912
20832TIP3    H162381   1.453   7.535   7.908
20832TIP3    H262382   1.456   7.658   7.821
20833TIP3   OH262383   8.126   3.253   0.383
20833TIP3    H162384   8.218   3.239   0.407
20833TIP3    H262385   8.112   3.347   0.394
20834TIP3   OH262386   8.675   2.931   1.124
20834TIP3    H162387   8.670   2.838   1.102
20834TIP3    H262388   8.598   2.970   1.083
20835TIP3   OH262389   1.468   7.358   7.860
20835TIP3    H162390   1.451   7.294   7.929
20835TIP3    H262391   1.390   7.356   7.805
20836TIP3   OH262392   8.461   3.011   0.969
20836TIP3    H162393   8.401   3.085   0.981
20836TIP3    H262394   8.404   2.939   0.943
20837TIP3   OH262395   1.576   7.272   7.584
20837TIP3    H162396   1.623   7.211   7.527
20837TIP3    H262397   1.630   7.351   7.585
20838TIP3   OH262398   8.339   2.781   0.894
20838TIP3    H162399   8.315   2.750   0.806
20838TIP3    H262400   8.422   2.735   0.913
20839TIP3   OH262401   7.474   2.751   0.617
20839TIP3    H162402   7.479   2.656   0.623
20839TIP3    H262403   7.503   2.770   0.527
20840TIP3   OH262404   8.194   2.546   0.285
20840TIP3    H162405   8.278   2.591   0.277
20840TIP3    H262406   8.134   2.596   0.228
20841TIP3   OH262407   8.400   2.714   0.217
20841TIP3    H162408   8.410   2.644   0.153
20841TIP3    H262409   8.348   2.781   0.172
20842TIP3   OH262410   7.592   2.505   0.313
20842TIP3    H162411   7.649   2.558   0.258
20842TIP3    H262412   7.652   2.450   0.363
20843TIP3   OH262413   1.311   7.136   7.941
20843TIP3    H162414   1.246   7.177   7.884
20843TIP3    H262415   1.267   7.060   7.978
20844TIP3   OH262416   1.248   8.752   7.562
20844TIP3    H162417   1.237   8.660   7.587
20844TIP3    H262418   1.223   8.801   7.640
20845TIP3   OH262419   2.761   8.316   7.576
20845TIP3    H162420   2.730   8.403   7.550
20845TIP3    H262421   2.690   8.257   7.553
20846TIP3   OH262422   9.291   3.672  -0.012
20846TIP3    H162423   9.342   3.655   0.067
20846TIP3    H262424   9.247   3.588  -0.030
20847TIP3   OH262425   8.611   3.542   0.271
20847TIP3    H162426   8.635   3.493   0.349
20847TIP3    H262427   8.694   3.562   0.229
20848TIP3   OH262428   3.037   8.598   7.673
20848TIP3    H162429   3.014   8.535   7.742
20848TIP3    H262430   3.055   8.679   7.719
20849TIP3   OH262431   8.657   3.981   0.085
20849TIP3    H162432   8.628   3.890   0.072
20849TIP3    H262433   8.732   3.991   0.027
20850TIP3   OH262434   1.730   7.780   7.835
20850TIP3    H162435   1.698   7.870   7.848
20850TIP3    H262436   1.661   7.738   7.783
20851TIP3   OH262437   1.844   8.149   7.976
20851TIP3    H162438   1.909   8.079   7.986
20851TIP3    H262439   1.846   8.170   7.883
20852TIP3   OH262440   2.668   9.041   7.710
20852TIP3    H162441   2.712   8.982   7.649
20852TIP3    H262442   2.587   8.995   7.733
20853TIP3   OH262443   9.120   3.893  -0.000
20853TIP3    H162444   9.164   3.813  -0.028
20853TIP3    H262445   9.189   3.947   0.038
20854TIP3   OH262446   0.302   3.226   0.044
20854TIP3    H162447   0.329   3.299   0.100
20854TIP3    H262448   0.289   3.265  -0.042
20855TIP3   OH262449   9.508   3.398   0.037
20855TIP3    H162450   9.537   3.312   0.069
20855TIP3    H262451   9.466   3.379  -0.047
20856TIP3   OH262452   2.346   7.660   7.968
20856TIP3    H162453   2.318   7.734   7.914
20856TIP3    H262454   2.286   7.589   7.946
20857TIP3   OH262455   3.023   7.775   7.639
20857TIP3    H162456   3.086   7.769   7.710
20857TIP3    H262457   3.073   7.810   7.565
20858TIP3   OH262458   8.563   3.333   0.038
20858TIP3    H162459   8.636   3.302   0.091
20858TIP3    H262460   8.543   3.259  -0.020
20859TIP3   OH262461   2.379   8.085   7.919
20859TIP3    H162462   2.472   8.066   7.930
20859TIP3    H262463   2.340   8.002   7.890
20860TIP3   OH262464   0.384   3.451   0.182
20860TIP3    H162465   0.295   3.486   0.180
20860TIP3    H262466   0.423   3.487   0.261
20861TIP3   OH262467   8.867   3.036   0.447
20861TIP3    H162468   8.775   3.041   0.424
20861TIP3    H262469   8.869   3.052   0.542
20862TIP3   OH262470   2.658   8.533   7.440
20862TIP3    H162471   2.614   8.501   7.361
20862TIP3    H262472   2.607   8.611   7.465
20863TIP3   OH262473   8.929   3.851   0.197
20863TIP3    H162474   8.850   3.904   0.181
20863TIP3    H262475   8.990   3.877   0.128
20864TIP3   OH262476   3.181   7.796   7.861
20864TIP3    H162477   3.135   7.774   7.942
20864TIP3    H262478   3.230   7.876   7.883
20865TIP3   OH262479   8.759   3.182   0.172
20865TIP3    H162480   8.821   3.238   0.219
20865TIP3    H262481   8.813   3.131   0.112
20866TIP3   OH262482   1.625   8.360   7.562
20866TIP3    H162483   1.593   8.376   7.473
20866TIP3    H262484   1.646   8.447   7.596
20867TIP3   OH262485   3.076   8.841   7.808
20867TIP3    H162486   2.994   8.836   7.857
20867TIP3    H262487   3.067   8.922   7.757
20868TIP3   OH262488   0.094   3.104   0.187
20868TIP3    H162489   0.011   3.128   0.146
20868TIP3    H262490   0.161   3.136   0.126
20869TIP3   OH262491   9.199   2.744   0.170
20869TIP3    H162492   9.189   2.653   0.199
20869TIP3    H262493   9.119   2.788   0.201
20870TIP3   OH262494   2.780   8.918   7.480
20870TIP3    H162495   2.828   8.836   7.474
20870TIP3    H262496   2.842   8.985   7.452
20871TIP3   OH262497   2.898   8.676   7.447
20871TIP3    H162498   2.827   8.613   7.439
20871TIP3    H262499   2.954   8.641   7.516
20872TIP3   OH262500   0.044   4.108   0.145
20872TIP3    H162501   0.024   4.037   0.084
20872TIP3    H262502   0.022   4.188   0.098
20873TIP3   OH262503   2.584   8.155   7.432
20873TIP3    H162504   2.499   8.197   7.417
20873TIP3    H262505   2.626   8.155   7.346
20874TIP3   OH262506   2.550   7.963   7.117
20874TIP3    H162507   2.616   8.011   7.167
20874TIP3    H262508   2.599   7.895   7.071
20875TIP3   OH262509   3.490   8.410   7.987
20875TIP3    H162510   3.404   8.452   7.988
20875TIP3    H262511   3.523   8.424   7.898
20876TIP3   OH262512   2.942   8.246   7.384
20876TIP3    H162513   2.888   8.275   7.457
20876TIP3    H262514   3.024   8.218   7.424
20877TIP3   OH262515   9.699   3.652   0.314
20877TIP3    H162516   9.702   3.731   0.369
20877TIP3    H262517   9.613   3.655   0.273
20878TIP3   OH262518   2.163   8.210   7.790
20878TIP3    H162519   2.128   8.148   7.726
20878TIP3    H262520   2.239   8.166   7.828
20879TIP3   OH262521   2.341   8.625   7.925
20879TIP3    H162522   2.311   8.614   7.834
20879TIP3    H262523   2.428   8.587   7.927
20880TIP3   OH262524   8.861   3.583   0.162
20880TIP3    H162525   8.875   3.558   0.071
20880TIP3    H262526   8.879   3.677   0.165
20881TIP3   OH262527   2.854   8.833   7.961
20881TIP3    H162528   2.814   8.917   7.984
20881TIP3    H262529   2.823   8.772   8.028
20882TIP3   OH262530   2.772   8.102   7.221
20882TIP3    H162531   2.831   8.162   7.267
20882TIP3    H262532   2.802   8.105   7.130
20883TIP3   OH262533   2.537   8.778   7.481
20883TIP3    H162534   2.614   8.835   7.486
20883TIP3    H262535   2.473   8.829   7.432
20884TIP3   OH262536   3.285   7.329   7.285
20884TIP3    H162537   3.208   7.349   7.338
20884TIP3    H262538   3.294   7.405   7.227
20885TIP3   OH262539   2.040   8.050   7.591
20885TIP3    H162540   1.963   8.099   7.561
20885TIP3    H262541   2.008   7.960   7.601
20886TIP3   OH262542   3.110   8.701   6.836
20886TIP3    H162543   3.106   8.794   6.816
20886TIP3    H262544   3.200   8.676   6.815
20887TIP3   OH262545   0.263   4.494   0.206
20887TIP3    H162546   0.274   4.400   0.219
20887TIP3    H262547   0.188   4.517   0.260
20888TIP3   OH262548   2.417   8.978   7.312
20888TIP3    H162549   2.368   8.962   7.231
20888TIP3    H262550   2.380   9.060   7.346
20889TIP3   OH262551   1.863   8.805   7.677
20889TIP3    H162552   1.892   8.795   7.767
20889TIP3    H262553   1.795   8.740   7.665
20890TIP3   OH262554   2.617   8.920   6.943
20890TIP3    H162555   2.668   8.848   6.906
20890TIP3    H262556   2.651   8.930   7.032
20891TIP3   OH262557   2.671   8.956   7.213
20891TIP3    H162558   2.582   8.959   7.249
20891TIP3    H262559   2.724   8.919   7.284
20892TIP3   OH262560   0.160   3.588   0.478
20892TIP3    H162561   0.068   3.586   0.453
20892TIP3    H262562   0.180   3.498   0.504
20893TIP3   OH262563   8.960   2.845   0.268
20893TIP3    H162564   8.875   2.812   0.238
20893TIP3    H262565   8.939   2.920   0.323
20894TIP3   OH262566   9.502   2.961   0.502
20894TIP3    H162567   9.570   2.937   0.565
20894TIP3    H262568   9.420   2.947   0.549
20895TIP3   OH262569   9.731   3.403   0.429
20895TIP3    H162570   9.678   3.393   0.508
20895TIP3    H262571   9.697   3.482   0.387
20896TIP3   OH262572   2.854   8.077   6.960
20896TIP3    H162573   2.806   8.084   6.878
20896TIP3    H262574   2.937   8.123   6.943
20897TIP3   OH262575   2.564   7.496   7.281
20897TIP3    H162576   2.526   7.504   7.369
20897TIP3    H262577   2.524   7.417   7.245
20898TIP3   OH262578   8.922   3.360   0.303
20898TIP3    H162579   8.869   3.369   0.382
20898TIP3    H262580   8.907   3.441   0.255
20899TIP3   OH262581   2.243   7.866   7.821
20899TIP3    H162582   2.152   7.844   7.845
20899TIP3    H262583   2.252   7.834   7.731
20900TIP3   OH262584   2.710   7.952   7.566
20900TIP3    H162585   2.662   8.025   7.527
20900TIP3    H262586   2.766   7.919   7.495
20901TIP3   OH262587   9.437   3.604   0.625
20901TIP3    H162588   9.403   3.543   0.690
20901TIP3    H262589   9.526   3.623   0.654
20902TIP3   OH262590   2.873   7.959   7.790
20902TIP3    H162591   2.807   7.981   7.725
20902TIP3    H262592   2.921   7.885   7.752
20903TIP3   OH262593   8.718   3.399   0.484
20903TIP3    H162594   8.734   3.464   0.553
20903TIP3    H262595   8.683   3.323   0.531
20904TIP3   OH262596   2.230   7.484   7.258
20904TIP3    H162597   2.220   7.490   7.353
20904TIP3    H262598   2.151   7.526   7.223
20905TIP3   OH262599   8.244   2.871   0.051
20905TIP3    H162600   8.285   2.954   0.075
20905TIP3    H262601   8.276   2.853  -0.038
20906TIP3   OH262602   1.715   7.512   7.607
20906TIP3    H162603   1.750   7.548   7.525
20906TIP3    H262604   1.650   7.577   7.635
20907TIP3   OH262605   9.440   3.595   0.210
20907TIP3    H162606   9.471   3.528   0.149
20907TIP3    H262607   9.408   3.547   0.286
20908TIP3   OH262608   2.611   7.663   7.882
20908TIP3    H162609   2.528   7.660   7.930
20908TIP3    H262610   2.678   7.654   7.950
20909TIP3   OH262611   1.999   7.745   7.869
20909TIP3    H162612   1.905   7.743   7.852
20909TIP3    H262613   2.027   7.653   7.864
20910TIP3   OH262614   2.250   7.746   7.578
20910TIP3    H162615   2.344   7.760   7.564
20910TIP3    H262616   2.210   7.766   7.493
20911TIP3   OH262617   9.576   3.134   0.098
20911TIP3    H162618   9.564   3.152   0.192
20911TIP3    H262619   9.505   3.074   0.077
20912TIP3   OH262620   2.125   7.776   7.339
20912TIP3    H162621   2.063   7.725   7.287
20912TIP3    H262622   2.178   7.822   7.274
20913TIP3   OH262623   2.648   8.027   7.982
20913TIP3    H162624   2.711   7.977   7.930
20913TIP3    H262625   2.651   7.988   8.069
20914TIP3   OH262626   2.138   7.497   7.862
20914TIP3    H162627   2.115   7.420   7.914
20914TIP3    H262628   2.150   7.463   7.773
20915TIP3   OH262629   9.184   3.314   0.243
20915TIP3    H162630   9.095   3.337   0.271
20915TIP3    H262631   9.241   3.361   0.305
20916TIP3   OH262632   2.343   8.286   7.384
20916TIP3    H162633   2.269   8.232   7.357
20916TIP3    H262634   2.314   8.329   7.464
20917TIP3   OH262635   3.245   8.534   7.963
20917TIP3    H162636   3.271   8.587   7.888
20917TIP3    H262637   3.161   8.496   7.938
20918TIP3   OH262638   2.813   7.606   7.285
20918TIP3    H162639   2.721   7.582   7.281
20918TIP3    H262640   2.813   7.701   7.296
20919TIP3   OH262641   9.321   4.000   0.414
20919TIP3    H162642   9.396   3.990   0.473
20919TIP3    H262643   9.251   3.951   0.457
20920TIP3   OH262644   2.870   7.872   7.349
20920TIP3    H162645   2.965   7.876   7.358
20920TIP3    H262646   2.847   7.949   7.297
20921TIP3   OH262647   8.622   3.719   0.022
20921TIP3    H162648   8.640   3.681  -0.064
20921TIP3    H262649   8.579   3.648   0.071
20922TIP3   OH262650   2.498   8.444   7.225
20922TIP3    H162651   2.452   8.527   7.219
20922TIP3    H262652   2.441   8.388   7.278
20923TIP3   OH262653   9.205   3.803   0.581
20923TIP3    H162654   9.174   3.748   0.510
20923TIP3    H262655   9.283   3.759   0.614
20924TIP3   OH262656   9.438   4.233   0.317
20924TIP3    H162657   9.380   4.165   0.352
20924TIP3    H262658   9.403   4.315   0.351
20925TIP3   OH262659   3.272   7.953   7.166
20925TIP3    H162660   3.218   7.914   7.097
20925TIP3    H262661   3.290   8.042   7.135
20926TIP3   OH262662   0.276   4.220   0.235
20926TIP3    H162663   0.185   4.191   0.230
20926TIP3    H262664   0.316   4.188   0.153
20927TIP3   OH262665   3.025   8.759   7.100
20927TIP3    H162666   2.994   8.685   7.152
20927TIP3    H262667   3.045   8.721   7.014
20928TIP3   OH262668   3.006   8.404   7.877
20928TIP3    H162669   2.916   8.384   7.904
20928TIP3    H262670   3.038   8.323   7.837
20929TIP3   OH262671   2.161   8.650   7.705
20929TIP3    H162672   2.155   8.716   7.635
20929TIP3    H262673   2.091   8.674   7.766
20930TIP3   OH262674   1.725   7.929   7.409
20930TIP3    H162675   1.768   8.012   7.430
20930TIP3    H262676   1.641   7.934   7.455
20931TIP3   OH262677   2.233   8.405   7.601
20931TIP3    H162678   2.211   8.492   7.635
20931TIP3    H262679   2.208   8.345   7.672
20932TIP3   OH262680   2.088   8.859   7.534
20932TIP3    H162681   2.001   8.852   7.574
20932TIP3    H262682   2.108   8.952   7.537
20933TIP3   OH262683   9.342   3.991   0.133
20933TIP3    H162684   9.333   3.994   0.228
20933TIP3    H262685   9.429   3.956   0.118
20934TIP3   OH262686   2.798   8.511   6.984
20934TIP3    H162687   2.847   8.485   7.061
20934TIP3    H262688   2.714   8.465   6.992
20935TIP3   OH262689   9.577   4.498   0.110
20935TIP3    H162690   9.487   4.466   0.119
20935TIP3    H262691   9.570   4.573   0.051
20936TIP3   OH262692   3.114   8.973   6.800
20936TIP3    H162693   3.150   9.042   6.745
20936TIP3    H262694   3.033   9.010   6.835
20937TIP3   OH262695   8.868   3.100   0.719
20937TIP3    H162696   8.883   3.181   0.769
20937TIP3    H262697   8.904   3.031   0.775
20938TIP3   OH262698   2.976   8.435   7.180
20938TIP3    H162699   2.953   8.380   7.255
20938TIP3    H262700   3.071   8.434   7.178
20939TIP3   OH262701   2.148   8.473   7.005
20939TIP3    H162702   2.157   8.382   6.977
20939TIP3    H262703   2.132   8.467   7.099
20940TIP3   OH262704   2.086   8.485   7.276
20940TIP3    H162705   2.142   8.460   7.350
20940TIP3    H262706   2.085   8.581   7.279
20941TIP3   OH262707   1.822   8.181   7.483
20941TIP3    H162708   1.755   8.230   7.531
20941TIP3    H262709   1.843   8.236   7.408
20942TIP3   OH262710   9.540   3.193   0.362
20942TIP3    H162711   9.610   3.238   0.409
20942TIP3    H262712   9.523   3.114   0.414
20943TIP3   OH262713   2.877   7.556   7.550
20943TIP3    H162714   2.854   7.575   7.460
20943TIP3    H262715   2.918   7.636   7.582
20944TIP3   OH262716   2.360   8.675   7.214
20944TIP3    H162717   2.273   8.696   7.249
20944TIP3    H262718   2.381   8.749   7.157
20945TIP3   OH262719   2.530   7.756   7.633
20945TIP3    H162720   2.589   7.827   7.608
20945TIP3    H262721   2.554   7.735   7.723
20946TIP3   OH262722   9.367   3.431   0.416
20946TIP3    H162723   9.384   3.485   0.493
20946TIP3    H262724   9.419   3.351   0.431
20947TIP3   OH262725   2.691   7.450   7.724
20947TIP3    H162726   2.669   7.528   7.776
20947TIP3    H262727   2.759   7.480   7.664
20948TIP3   OH262728   2.106   8.757   7.283
20948TIP3    H162729   2.083   8.829   7.224
20948TIP3    H262730   2.097   8.793   7.371
20949TIP3   OH262731   2.201   7.474   7.539
20949TIP3    H162732   2.191   7.567   7.562
20949TIP3    H262733   2.295   7.458   7.545
20950TIP3   OH262734   0.174   3.288   0.382
20950TIP3    H162735   0.090   3.328   0.402
20950TIP3    H262736   0.153   3.218   0.321
20951TIP3   OH262737   3.096   8.148   7.779
20951TIP3    H162738   3.017   8.095   7.795
20951TIP3    H262739   3.161   8.112   7.839
20952TIP3   OH262740   1.841   8.357   7.265
20952TIP3    H162741   1.913   8.419   7.274
20952TIP3    H262742   1.872   8.294   7.199
20953TIP3   OH262743   1.743   7.653   7.375
20953TIP3    H162744   1.750   7.747   7.391
20953TIP3    H262745   1.658   7.642   7.334
20954TIP3   OH262746   3.078   9.097   7.696
20954TIP3    H162747   3.038   9.163   7.639
20954TIP3    H262748   3.172   9.113   7.690
20955TIP3   OH262749   8.699   2.767   0.237
20955TIP3    H162750   8.656   2.731   0.159
20955TIP3    H262751   8.673   2.708   0.307
20956TIP3   OH262752   1.649   8.628   7.633
20956TIP3    H162753   1.575   8.652   7.688
20956TIP3    H262754   1.631   8.669   7.548
20957TIP3   OH262755   2.300   8.676   6.898
20957TIP3    H162756   2.252   8.606   6.942
20957TIP3    H262757   2.375   8.632   6.857
20958TIP3   OH262758   2.741   8.716   6.812
20958TIP3    H162759   2.777   8.651   6.873
20958TIP3    H262760   2.798   8.711   6.735
20959TIP3   OH262761   1.966   8.168   7.112
20959TIP3    H162762   2.016   8.145   7.191
20959TIP3    H262763   2.033   8.182   7.045
20960TIP3   OH262764   2.548   8.389   6.961
20960TIP3    H162765   2.521   8.399   7.052
20960TIP3    H262766   2.525   8.299   6.939
20961TIP3   OH262767   9.622   4.030   0.289
20961TIP3    H162768   9.696   4.065   0.240
20961TIP3    H262769   9.561   4.104   0.295
20962TIP3   OH262770   2.136   8.111   7.328
20962TIP3    H162771   2.113   8.077   7.415
20962TIP3    H262772   2.184   8.039   7.287
20963TIP3   OH262773   9.023   3.523   0.542
20963TIP3    H162774   8.944   3.568   0.571
20963TIP3    H262775   9.055   3.574   0.468
20964TIP3   OH262776   2.279   7.930   7.173
20964TIP3    H162777   2.249   7.933   7.082
20964TIP3    H262778   2.374   7.939   7.166
20965TIP3   OH262779   9.507   3.946   0.610
20965TIP3    H162780   9.592   3.912   0.583
20965TIP3    H262781   9.496   3.914   0.700
20966TIP3   OH262782   3.075   8.210   6.853
20966TIP3    H162783   3.061   8.170   6.767
20966TIP3    H262784   3.052   8.302   6.840
20967TIP3   OH262785   9.112   3.308   0.681
20967TIP3    H162786   9.123   3.239   0.615
20967TIP3    H262787   9.083   3.384   0.630
20968TIP3   OH262788   9.127   3.130   0.456
20968TIP3    H162789   9.157   3.174   0.377
20968TIP3    H262790   9.035   3.109   0.439
20969TIP3   OH262791   9.114   3.694   0.343
20969TIP3    H162792   9.186   3.688   0.280
20969TIP3    H262793   9.048   3.747   0.298
20970TIP3   OH262794   9.700   3.624   0.748
20970TIP3    H162795   9.737   3.539   0.772
20970TIP3    H262796   9.776   3.683   0.745
20971TIP3   OH262797   9.747   3.880   0.476
20971TIP3    H162798   9.691   3.934   0.419
20971TIP3    H262799   9.836   3.900   0.448
20972TIP3   OH262800   8.988   3.398   0.916
20972TIP3    H162801   8.963   3.316   0.959
20972TIP3    H262802   9.039   3.370   0.840
20973TIP3   OH262803   9.240   2.905   0.568
20973TIP3    H162804   9.198   2.983   0.530
20973TIP3    H262805   9.184   2.832   0.540
20974TIP3   OH262806   9.354   3.399   0.785
20974TIP3    H162807   9.357   3.372   0.877
20974TIP3    H262808   9.271   3.363   0.752
20975TIP3   OH262809   9.586   3.325   0.642
20975TIP3    H162810   9.511   3.335   0.701
20975TIP3    H262811   9.658   3.298   0.700
20976TIP3   OH262812   0.031   3.287   0.780
20976TIP3    H162813   0.045   3.194   0.794
20976TIP3    H262814   0.025   3.324   0.868
20977TIP3   OH262815   8.901   3.162   1.039
20977TIP3    H162816   8.894   3.069   1.016
20977TIP3    H262817   8.931   3.161   1.130
20978TIP3   OH262818   9.322   2.894   0.825
20978TIP3    H162819   9.386   2.823   0.818
20978TIP3    H262820   9.284   2.900   0.737
20979TIP3   OH262821   9.425   3.134   0.915
20979TIP3    H162822   9.397   3.047   0.885
20979TIP3    H262823   9.348   3.170   0.959
20980TIP3   OH262824   2.100   8.968   7.106
20980TIP3    H162825   2.192   8.953   7.084
20980TIP3    H262826   2.061   9.001   7.025
20981TIP3   OH262827   1.569   8.361   7.277
20981TIP3    H162828   1.664   8.371   7.275
20981TIP3    H262829   1.553   8.275   7.238
20982TIP3   OH262830   3.341   9.169   7.704
20982TIP3    H162831   3.360   9.175   7.798
20982TIP3    H262832   3.372   9.251   7.667
20983TIP3   OH262833   3.388   9.178   7.971
20983TIP3    H162834   3.335   9.100   7.987
20983TIP3    H262835   3.458   9.174   8.037
20984TIP3   OH262836   0.104   4.279   0.568
20984TIP3    H162837   0.010   4.288   0.557
20984TIP3    H262838   0.139   4.368   0.554
20985TIP3   OH262839   3.257   8.413   7.194
20985TIP3    H162840   3.308   8.487   7.160
20985TIP3    H262841   3.307   8.384   7.271
20986TIP3   OH262842   3.384   8.284   7.430
20986TIP3    H162843   3.306   8.231   7.448
20986TIP3    H262844   3.380   8.356   7.493
20987TIP3   OH262845   3.436   8.678   7.809
20987TIP3    H162846   3.493   8.621   7.757
20987TIP3    H262847   3.433   8.760   7.760
20988TIP3   OH262848   3.233   8.951   8.011
20988TIP3    H162849   3.165   9.004   8.053
20988TIP3    H262850   3.188   8.911   7.936
20989TIP3   OH262851   3.288   8.196   7.029
20989TIP3    H162852   3.215   8.194   6.966
20989TIP3    H262853   3.270   8.272   7.084
20990TIP3   OH262854   3.131   7.847   6.958
20990TIP3    H162855   3.080   7.880   6.884
20990TIP3    H262856   3.125   7.751   6.951
20991TIP3   OH262857   3.166   8.136   7.512
20991TIP3    H162858   3.164   8.042   7.494
20991TIP3    H262859   3.143   8.144   7.604
20992TIP3   OH262860   8.359   3.642   0.228
20992TIP3    H162861   8.343   3.619   0.137
20992TIP3    H262862   8.449   3.612   0.245
20993TIP3   OH262863   0.197   3.947   0.382
20993TIP3    H162864   0.259   3.875   0.370
20993TIP3    H262865   0.188   3.986   0.295
20994TIP3   OH262866   0.362   3.729   0.365
20994TIP3    H162867   0.289   3.684   0.408
20994TIP3    H262868   0.439   3.677   0.388
20995TIP3   OH262869   3.098   7.573   6.939
20995TIP3    H162870   3.161   7.549   7.008
20995TIP3    H262871   3.014   7.539   6.971
20996TIP3   OH262872   3.163   7.866   7.408
20996TIP3    H162873   3.206   7.782   7.418
20996TIP3    H262874   3.201   7.903   7.328
20997TIP3   OH262875   3.312   8.034   7.925
20997TIP3    H162876   3.397   8.040   7.882
20997TIP3    H262877   3.324   8.077   8.009
20998TIP3   OH262878   0.125   3.569   0.143
20998TIP3    H162879   0.055   3.595   0.203
20998TIP3    H262880   0.153   3.650   0.101
20999TIP3   OH262881   8.660   3.233   0.926
20999TIP3    H162882   8.741   3.212   0.972
20999TIP3    H262883   8.592   3.232   0.994
21000TIP3   OH262884   0.586   3.168   0.686
21000TIP3    H162885   0.649   3.105   0.651
21000TIP3    H262886   0.549   3.210   0.608
21001TIP3   OH262887   3.277   7.616   7.458
21001TIP3    H162888   3.321   7.608   7.543
21001TIP3    H262889   3.216   7.543   7.455
21002TIP3   OH262890   8.608   3.013   0.323
21002TIP3    H162891   8.635   2.927   0.291
21002TIP3    H262892   8.654   3.075   0.267
21003TIP3   OH262893   8.358   3.337   0.217
21003TIP3    H162894   8.432   3.356   0.160
21003TIP3    H262895   8.381   3.376   0.301
21004TIP3   OH262896   0.425   3.295   0.504
21004TIP3    H162897   0.374   3.334   0.575
21004TIP3    H262898   0.360   3.262   0.442
21005TIP3   OH262899   3.325   7.530   7.100
21005TIP3    H162900   3.375   7.471   7.044
21005TIP3    H262901   3.377   7.610   7.103
21006TIP3   OH262902   1.762   7.343   7.813
21006TIP3    H162903   1.670   7.324   7.831
21006TIP3    H262904   1.759   7.406   7.741
21007TIP3   OH262905   2.936   9.114   7.365
21007TIP3    H162906   2.971   9.073   7.286
21007TIP3    H262907   2.981   9.198   7.371
21008TIP3   OH262908   8.600   2.784   0.532
21008TIP3    H162909   8.619   2.847   0.601
21008TIP3    H262910   8.533   2.826   0.478
21009TIP3   OH262911   0.343   3.004   0.394
21009TIP3    H162912   0.251   2.983   0.373
21009TIP3    H262913   0.388   2.920   0.389
21010TIP3   OH262914   2.781   9.103   7.965
21010TIP3    H162915   2.733   9.089   7.884
21010TIP3    H262916   2.839   9.177   7.946
21011TIP3   OH262917   6.254   0.035   7.887
21011TIP3    H162918   6.252   0.112   7.830
21011TIP3    H262919   6.289  -0.035   7.832
21012TIP3   OH262920   2.000   8.781   7.918
21012TIP3    H162921   2.025   8.716   7.983
21012TIP3    H262922   1.977   8.859   7.969
21013TIP3   OH262923   2.283   8.899   7.881
21013TIP3    H162924   2.316   8.814   7.911
21013TIP3    H262925   2.195   8.880   7.849
21014TIP3   OH262926   9.362   2.950   0.035
21014TIP3    H162927   9.319   2.878   0.081
21014TIP3    H262928   9.430   2.908  -0.017
21015TIP3   OH262929   3.329   7.488   7.900
21015TIP3    H162930   3.362   7.548   7.834
21015TIP3    H262931   3.237   7.511   7.910
21016TIP3   OH262932   3.447   7.604   7.676
21016TIP3    H162933   3.515   7.540   7.654
21016TIP3    H262934   3.486   7.689   7.653
21017TIP3   OH262935   2.081   7.263   7.998
21017TIP3    H162936   1.994   7.223   7.995
21017TIP3    H262937   2.141   7.189   8.000
21018TIP3   OH262938   1.918   7.154   7.662
21018TIP3    H162939   1.938   7.207   7.585
21018TIP3    H262940   1.870   7.213   7.720
21019TIP3   OH262941   2.550   7.304   7.918
21019TIP3    H162942   2.593   7.356   7.850
21019TIP3    H262943   2.591   7.332   8.000
21020TIP3   OH262944   3.040   7.455   7.899
21020TIP3    H162945   3.045   7.417   7.812
21020TIP3    H262946   3.045   7.380   7.958
21021TIP3   OH262947   3.095   7.405   7.470
21021TIP3    H162948   3.015   7.452   7.493
21021TIP3    H262949   3.083   7.318   7.507
21022TIP3   OH262950   1.575   8.740   7.392
21022TIP3    H162951   1.488   8.712   7.363
21022TIP3    H262952   1.575   8.835   7.381
21023TIP3   OH262953   2.000   7.304   7.438
21023TIP3    H162954   2.047   7.248   7.377
21023TIP3    H262955   2.067   7.361   7.475
21024TIP3   OH262956   2.477   7.502   7.544
21024TIP3    H162957   2.536   7.452   7.599
21024TIP3    H262958   2.490   7.593   7.570
21025TIP3   OH262959   2.359   8.900   7.040
21025TIP3    H162960   2.444   8.926   7.003
21025TIP3    H262961   2.328   8.830   6.984
21026TIP3   OH262962   3.054   9.028   7.131
21026TIP3    H162963   3.049   8.933   7.125
21026TIP3    H262964   3.010   9.059   7.051
21027TIP3   OH262965   8.903   2.901   0.913
21027TIP3    H162966   8.863   2.838   0.973
21027TIP3    H262967   8.994   2.909   0.943
21028TIP3   OH262968   9.146   2.915   1.029
21028TIP3    H162969   9.213   2.922   0.960
21028TIP3    H262970   9.169   2.836   1.077
21029TIP3   OH262971   1.658   8.732   7.102
21029TIP3    H162972   1.652   8.736   7.198
21029TIP3    H262973   1.742   8.689   7.085
21030TIP3   OH262974   0.099   3.023   0.816
21030TIP3    H162975   0.112   2.998   0.908
21030TIP3    H262976   0.186   3.019   0.778
21031TIP3   OH262977   4.552   8.567   7.069
21031TIP3    H162978   4.524   8.655   7.041
21031TIP3    H262979   4.482   8.509   7.039
21032TIP3   OH262980   4.551   8.567   7.483
21032TIP3    H162981   4.600   8.546   7.563
21032TIP3    H262982   4.508   8.485   7.460
21033TIP3   OH262983   3.844   8.414   7.872
21033TIP3    H162984   3.869   8.350   7.938
21033TIP3    H262985   3.893   8.493   7.895
21034TIP3   OH262986   4.825   8.865   7.159
21034TIP3    H162987   4.807   8.800   7.227
21034TIP3    H262988   4.846   8.945   7.208
21035TIP3   OH262989   3.849   8.835   7.516
21035TIP3    H162990   3.833   8.742   7.536
21035TIP3    H262991   3.944   8.842   7.508
21036TIP3   OH262992   3.607   8.109   7.467
21036TIP3    H162993   3.534   8.167   7.445
21036TIP3    H262994   3.565   8.026   7.490
21037TIP3   OH262995   7.737   0.065   7.165
21037TIP3    H162996   7.770  -0.006   7.109
21037TIP3    H262997   7.722   0.023   7.250
21038TIP3   OH262998   4.363   8.779   7.493
21038TIP3    H162999   4.413   8.702   7.468
21038TIP3    H263000   4.428   8.841   7.526
21039TIP3   OH263001   5.379   8.093   7.490
21039TIP3    H163002   5.396   8.176   7.533
21039TIP3    H263003   5.413   8.104   7.401
21040TIP3   OH263004   4.759   8.256   7.529
21040TIP3    H163005   4.804   8.176   7.555
21040TIP3    H263006   4.732   8.240   7.438
21041TIP3   OH263007   4.123   7.944   7.473
21041TIP3    H163008   4.105   7.970   7.383
21041TIP3    H263009   4.091   7.854   7.479
21042TIP3   OH263010   4.817   8.032   7.121
21042TIP3    H163011   4.882   8.026   7.191
21042TIP3    H263012   4.866   8.065   7.046
21043TIP3   OH263013   4.181   8.330   7.410
21043TIP3    H163014   4.274   8.344   7.425
21043TIP3    H263015   4.173   8.236   7.393
21044TIP3   OH263016   5.437   8.311   7.648
21044TIP3    H163017   5.350   8.350   7.645
21044TIP3    H263018   5.477   8.347   7.726
21045TIP3   OH263019   4.093   7.969   7.907
21045TIP3    H163020   4.085   8.058   7.873
21045TIP3    H263021   4.035   7.968   7.984
21046TIP3   OH263022   4.455   8.783   6.925
21046TIP3    H163023   4.413   8.754   6.845
21046TIP3    H263024   4.404   8.859   6.953
21047TIP3   OH263025   4.190   8.702   7.698
21047TIP3    H163026   4.134   8.772   7.733
21047TIP3    H263027   4.238   8.744   7.627
21048TIP3   OH263028   4.978   8.054   7.338
21048TIP3    H163029   4.946   8.031   7.425
21048TIP3    H263030   5.036   8.129   7.353
21049TIP3   OH263031   3.936   8.106   7.602
21049TIP3    H163032   3.973   8.160   7.672
21049TIP3    H263033   4.010   8.052   7.573
21050TIP3   OH263034   4.033   8.903   7.805
21050TIP3    H163035   4.027   8.994   7.776
21050TIP3    H263036   3.953   8.889   7.857
21051TIP3   OH263037   3.414   8.608   7.070
21051TIP3    H163038   3.380   8.627   6.983
21051TIP3    H263039   3.434   8.695   7.107
21052TIP3   OH263040   4.865   9.105   7.303
21052TIP3    H163041   4.778   9.096   7.342
21052TIP3    H263042   4.862   9.187   7.254
21053TIP3   OH263043   5.182   7.996   7.670
21053TIP3    H163044   5.096   8.012   7.632
21053TIP3    H263045   5.244   8.019   7.600
21054TIP3   OH263046   4.436   7.625   7.677
21054TIP3    H163047   4.429   7.534   7.704
21054TIP3    H263048   4.358   7.667   7.714
21055TIP3   OH263049   4.568   9.143   6.961
21055TIP3    H163050   4.621   9.064   6.950
21055TIP3    H263051   4.624   9.215   6.932
21056TIP3   OH263052   4.711   8.917   6.913
21056TIP3    H163053   4.642   8.851   6.907
21056TIP3    H263054   4.760   8.893   6.991
21057TIP3   OH263055   5.112   8.999   7.635
21057TIP3    H163056   5.084   8.930   7.575
21057TIP3    H263057   5.093   9.080   7.588
21058TIP3   OH263058   4.378   8.409   6.918
21058TIP3    H163059   4.295   8.454   6.900
21058TIP3    H263060   4.423   8.409   6.834
21059TIP3   OH263061   4.349   8.217   6.604
21059TIP3    H163062   4.415   8.266   6.653
21059TIP3    H263063   4.398   8.150   6.557
21060TIP3   OH263064   5.243   8.657   7.484
21060TIP3    H163065   5.161   8.705   7.480
21060TIP3    H263066   5.284   8.673   7.399
21061TIP3   OH263067   4.736   8.500   6.877
21061TIP3    H163068   4.683   8.527   6.952
21061TIP3    H263069   4.820   8.474   6.916
21062TIP3   OH263070   4.954   8.504   7.785
21062TIP3    H163071   4.957   8.592   7.821
21062TIP3    H263072   4.868   8.497   7.744
21063TIP3   OH263073   3.950   8.454   7.302
21063TIP3    H163074   3.919   8.403   7.227
21063TIP3    H263075   4.035   8.415   7.324
21064TIP3   OH263076   4.111   8.878   7.426
21064TIP3    H163077   4.090   8.874   7.333
21064TIP3    H263078   4.201   8.847   7.432
21065TIP3   OH263079   4.081   8.456   7.642
21065TIP3    H163080   4.121   8.429   7.559
21065TIP3    H263081   4.121   8.541   7.662
21066TIP3   OH263082   4.629   9.095   7.432
21066TIP3    H163083   4.604   9.178   7.472
21066TIP3    H263084   4.608   9.029   7.498
21067TIP3   OH263085   4.234   8.990   7.974
21067TIP3    H163086   4.181   9.053   8.022
21067TIP3    H263087   4.173   8.945   7.916
21068TIP3   OH263088   4.568   8.359   6.710
21068TIP3    H163089   4.627   8.418   6.757
21068TIP3    H263090   4.597   8.364   6.619
21069TIP3   OH263091   0.713   3.943   0.083
21069TIP3    H163092   0.719   4.033   0.113
21069TIP3    H263093   0.625   3.915   0.110
21070TIP3   OH263094   4.321   9.021   6.969
21070TIP3    H163095   4.402   9.071   6.976
21070TIP3    H263096   4.262   9.077   6.918
21071TIP3   OH263097   0.778   4.540   0.069
21071TIP3    H163098   0.750   4.555  -0.021
21071TIP3    H263099   0.696   4.525   0.117
21072TIP3   OH263100   5.080   7.586   6.770
21072TIP3    H163101   5.004   7.608   6.823
21072TIP3    H263102   5.091   7.661   6.711
21073TIP3   OH263103   3.834   8.307   7.086
21073TIP3    H163104   3.764   8.366   7.057
21073TIP3    H263105   3.801   8.219   7.065
21074TIP3   OH263106   4.907   8.962   6.322
21074TIP3    H163107   4.904   9.055   6.300
21074TIP3    H263108   4.997   8.936   6.300
21075TIP3   OH263109   3.629   8.720   8.008
21075TIP3    H163110   3.560   8.701   7.945
21075TIP3    H263111   3.658   8.634   8.039
21076TIP3   OH263112   3.468   8.924   7.677
21076TIP3    H163113   3.552   8.959   7.705
21076TIP3    H263114   3.407   8.997   7.687
21077TIP3   OH263115   8.587   0.134   7.692
21077TIP3    H163116   8.606   0.041   7.702
21077TIP3    H263117   8.500   0.146   7.731
21078TIP3   OH263118   4.428   9.107   7.821
21078TIP3    H163119   4.421   9.202   7.828
21078TIP3    H263120   4.357   9.074   7.874
21079TIP3   OH263121   7.479  -0.019   6.800
21079TIP3    H163122   7.431  -0.023   6.717
21079TIP3    H263123   7.452   0.064   6.839
21080TIP3   OH263124   3.638   9.090   7.169
21080TIP3    H163125   3.683   9.084   7.253
21080TIP3    H263126   3.590   9.007   7.162
21081TIP3   OH263127   4.410   9.176   6.428
21081TIP3    H163128   4.462   9.104   6.393
21081TIP3    H263129   4.443   9.187   6.517
21082TIP3   OH263130   4.466   9.210   6.696
21082TIP3    H163131   4.379   9.210   6.736
21082TIP3    H263132   4.524   9.176   6.764
21083TIP3   OH263133   5.210   8.476   7.937
21083TIP3    H163134   5.118   8.493   7.915
21083TIP3    H263135   5.219   8.381   7.932
21084TIP3   OH263136   0.549   4.298  -0.028
21084TIP3    H163137   0.600   4.285   0.052
21084TIP3    H263138   0.479   4.232  -0.022
21085TIP3   OH263139   4.191   7.729   7.794
21085TIP3    H163140   4.107   7.690   7.771
21085TIP3    H263141   4.169   7.816   7.828
21086TIP3   OH263142   1.478   3.217  -0.004
21086TIP3    H163143   1.548   3.192   0.057
21086TIP3    H263144   1.397   3.203   0.045
21087TIP3   OH263145   4.971   8.262   7.915
21087TIP3    H163146   4.916   8.260   7.993
21087TIP3    H263147   4.951   8.345   7.873
21088TIP3   OH263148   4.646   8.341   6.448
21088TIP3    H163149   4.600   8.344   6.364
21088TIP3    H263150   4.729   8.386   6.431
21089TIP3   OH263151   4.355   7.760   6.770
21089TIP3    H163152   4.316   7.768   6.857
21089TIP3    H263153   4.320   7.678   6.735
21090TIP3   OH263154   4.086   8.232   7.801
21090TIP3    H163155   4.055   8.255   7.889
21090TIP3    H263156   4.085   8.315   7.753
21091TIP3   OH263157   3.882   8.028   7.320
21091TIP3    H163158   3.886   7.933   7.328
21091TIP3    H263159   3.922   8.048   7.236
21092TIP3   OH263160   4.499   8.201   7.052
21092TIP3    H163161   4.454   8.276   7.011
21092TIP3    H263162   4.559   8.170   6.984
21093TIP3   OH263163   1.412   3.841   0.113
21093TIP3    H163164   1.387   3.778   0.181
21093TIP3    H263165   1.502   3.866   0.136
21094TIP3   OH263166   4.673   8.216   7.273
21094TIP3    H163167   4.603   8.237   7.210
21094TIP3    H263168   4.720   8.144   7.231
21095TIP3   OH263169   0.708   3.628   0.049
21095TIP3    H163170   0.747   3.682   0.117
21095TIP3    H263171   0.689   3.544   0.093
21096TIP3   OH263172   4.025   7.740   6.743
21096TIP3    H163173   4.014   7.744   6.838
21096TIP3    H263174   3.946   7.782   6.708
21097TIP3   OH263175   3.585   7.833   7.553
21097TIP3    H163176   3.661   7.831   7.610
21097TIP3    H263177   3.602   7.765   7.488
21098TIP3   OH263178   3.473   7.768   7.118
21098TIP3    H163179   3.514   7.805   7.040
21098TIP3    H263180   3.408   7.833   7.143
21099TIP3   OH263181   4.695   8.460   7.695
21099TIP3    H163182   4.720   8.391   7.634
21099TIP3    H263183   4.656   8.413   7.768
21100TIP3   OH263184   4.395   7.929   7.380
21100TIP3    H163185   4.321   7.934   7.441
21100TIP3    H263186   4.470   7.910   7.436
21101TIP3   OH263187   4.029   8.014   7.090
21101TIP3    H163188   4.124   8.028   7.087
21101TIP3    H263189   3.999   8.031   7.001
21102TIP3   OH263190   4.864   8.001   7.585
21102TIP3    H163191   4.840   8.020   7.676
21102TIP3    H263192   4.804   7.933   7.557
21103TIP3   OH263193   3.925   8.035   6.837
21103TIP3    H163194   3.863   7.984   6.785
21103TIP3    H263195   3.981   8.079   6.772
21104TIP3   OH263196   8.198   0.520   7.773
21104TIP3    H163197   8.216   0.518   7.679
21104TIP3    H263198   8.278   0.488   7.814
21105TIP3   OH263199   0.692   4.197   0.196
21105TIP3    H163200   0.772   4.221   0.244
21105TIP3    H263201   0.624   4.193   0.263
21106TIP3   OH263202   4.446   8.299   7.481
21106TIP3    H163203   4.518   8.253   7.439
21106TIP3    H263204   4.440   8.260   7.569
21107TIP3   OH263205   3.938   7.755   7.359
21107TIP3    H163206   3.905   7.685   7.415
21107TIP3    H263207   3.962   7.711   7.277
21108TIP3   OH263208   4.398   8.206   7.748
21108TIP3    H163209   4.319   8.253   7.775
21108TIP3    H263210   4.468   8.246   7.799
21109TIP3   OH263211   4.137   8.545   6.871
21109TIP3    H163212   4.063   8.492   6.843
21109TIP3    H263213   4.110   8.582   6.955
21110TIP3   OH263214   5.019   8.813   7.457
21110TIP3    H163215   5.054   8.861   7.381
21110TIP3    H263216   4.941   8.769   7.424
21111TIP3   OH263217   4.608   7.861   6.774
21111TIP3    H163218   4.515   7.841   6.768
21111TIP3    H263219   4.612   7.957   6.782
21112TIP3   OH263220   4.561   8.867   7.881
21112TIP3    H163221   4.601   8.868   7.968
21112TIP3    H263222   4.514   8.951   7.875
21113TIP3   OH263223   4.666   8.129   6.838
21113TIP3    H163224   4.762   8.132   6.846
21113TIP3    H263225   4.644   8.205   6.785
21114TIP3   OH263226   3.835   8.551   7.541
21114TIP3    H163227   3.860   8.530   7.451
21114TIP3    H263228   3.908   8.518   7.594
21115TIP3   OH263229   4.293   8.700   6.709
21115TIP3    H163230   4.245   8.783   6.703
21115TIP3    H263231   4.237   8.645   6.764
21116TIP3   OH263232   0.446   3.868   0.140
21116TIP3    H163233   0.443   3.833   0.229
21116TIP3    H263234   0.377   3.820   0.093
21117TIP3   OH263235   1.179   3.989   0.134
21117TIP3    H163236   1.117   3.928   0.094
21117TIP3    H263237   1.265   3.952   0.117
21118TIP3   OH263238   4.692   9.172   7.750
21118TIP3    H163239   4.601   9.143   7.747
21118TIP3    H263240   4.699   9.221   7.832
21119TIP3   OH263241   5.078   8.218   6.654
21119TIP3    H163242   5.020   8.173   6.592
21119TIP3    H263243   5.086   8.307   6.620
21120TIP3   OH263244   5.371   9.083   7.710
21120TIP3    H163245   5.279   9.067   7.734
21120TIP3    H263246   5.375   9.064   7.616
21121TIP3   OH263247   4.822   9.026   6.587
21121TIP3    H163248   4.795   8.956   6.647
21121TIP3    H263249   4.841   8.982   6.505
21122TIP3   OH263250   4.799   8.666   7.362
21122TIP3    H163251   4.709   8.644   7.385
21122TIP3    H263252   4.835   8.586   7.324
21123TIP3   OH263253   3.961   8.893   7.188
21123TIP3    H163254   3.956   8.964   7.125
21123TIP3    H263255   3.885   8.906   7.245
21124TIP3   OH263256   3.531   8.191   6.899
21124TIP3    H163257   3.567   8.278   6.918
21124TIP3    H263258   3.447   8.190   6.945
21125TIP3   OH263259   4.035   8.643   7.103
21125TIP3    H163260   4.017   8.734   7.125
21125TIP3    H263261   4.004   8.593   7.178
21126TIP3   OH263262   4.242   9.217   7.621
21126TIP3    H163263   4.271   9.300   7.582
21126TIP3    H263264   4.320   9.182   7.664
21127TIP3   OH263265   3.874   9.105   7.030
21127TIP3    H163266   3.786   9.109   7.068
21127TIP3    H263267   3.911   9.192   7.045
21128TIP3   OH263268   4.595   8.883   7.608
21128TIP3    H163269   4.585   8.874   7.703
21128TIP3    H263270   4.663   8.819   7.586
21129TIP3   OH263271   4.592   8.769   6.474
21129TIP3    H163272   4.640   8.743   6.553
21129TIP3    H263273   4.509   8.722   6.480
21130TIP3   OH263274   8.101   0.150   7.648
21130TIP3    H163275   8.033   0.085   7.662
21130TIP3    H263276   8.073   0.197   7.569
21131TIP3   OH263277   8.182  -0.004   6.281
21131TIP3    H163278   8.230   0.070   6.245
21131TIP3    H263279   8.100   0.034   6.313
21132TIP3   OH263280   0.660   3.370   0.138
21132TIP3    H163281   0.565   3.380   0.149
21132TIP3    H263282   0.687   3.311   0.208
21133TIP3   OH263283   4.760   8.690   6.674
21133TIP3    H163284   4.745   8.632   6.750
21133TIP3    H263285   4.856   8.696   6.668
21134TIP3   OH263286   3.671   9.096   7.781
21134TIP3    H163287   3.728   9.048   7.842
21134TIP3    H263288   3.679   9.187   7.807
21135TIP3   OH263289   3.942   8.730   6.490
21135TIP3    H163290   3.951   8.639   6.463
21135TIP3    H263291   3.926   8.726   6.584
21136TIP3   OH263292   3.880   8.751   6.761
21136TIP3    H163293   3.947   8.728   6.825
21136TIP3    H263294   3.876   8.846   6.762
21137TIP3   OH263295   3.619   8.445   6.977
21137TIP3    H163296   3.552   8.492   7.027
21137TIP3    H263297   3.638   8.502   6.902
21138TIP3   OH263298   4.788   8.058   7.840
21138TIP3    H163299   4.855   8.110   7.884
21138TIP3    H263300   4.770   7.985   7.899
21139TIP3   OH263301   4.668   7.812   7.040
21139TIP3    H163302   4.647   7.828   6.948
21139TIP3    H263303   4.713   7.892   7.069
21140TIP3   OH263304   4.147   8.927   6.698
21140TIP3    H163305   4.063   8.956   6.733
21140TIP3    H263306   4.178   9.002   6.646
21141TIP3   OH263307   4.308   8.022   7.136
21141TIP3    H163308   4.371   8.086   7.102
21141TIP3    H263309   4.344   7.998   7.222
21142TIP3   OH263310   4.612   8.295   7.900
21142TIP3    H163311   4.635   8.346   7.977
21142TIP3    H263312   4.665   8.216   7.907
21143TIP3   OH263313   4.481   7.710   7.215
21143TIP3    H163314   4.463   7.788   7.268
21143TIP3    H263315   4.551   7.738   7.156
21144TIP3   OH263316   3.900   9.025   6.772
21144TIP3    H163317   3.881   9.103   6.720
21144TIP3    H263318   3.890   9.053   6.863
21145TIP3   OH263319   3.994   7.738   7.023
21145TIP3    H163320   3.981   7.829   7.047
21145TIP3    H263321   4.088   7.724   7.028
21146TIP3   OH263322   5.229   8.193   7.879
21146TIP3    H163323   5.137   8.206   7.900
21146TIP3    H263324   5.229   8.133   7.805
21147TIP3   OH263325   4.892   8.410   7.275
21147TIP3    H163326   4.817   8.351   7.285
21147TIP3    H263327   4.962   8.369   7.326
21148TIP3   OH263328   3.637   8.615   6.757
21148TIP3    H163329   3.708   8.679   6.763
21148TIP3    H263330   3.667   8.553   6.690
21149TIP3   OH263331   3.542   7.912   6.894
21149TIP3    H163332   3.555   8.007   6.901
21149TIP3    H263333   3.484   7.901   6.819
21150TIP3   OH263334   8.141   0.126   7.211
21150TIP3    H163335   8.095   0.180   7.146
21150TIP3    H263336   8.234   0.145   7.195
21151TIP3   OH263337   3.929   7.639   7.762
21151TIP3    H163338   3.904   7.602   7.678
21151TIP3    H263339   3.925   7.565   7.823
21152TIP3   OH263340   3.458   8.872   7.158
21152TIP3    H163341   3.425   8.912   7.239
21152TIP3    H263342   3.416   8.921   7.088
21153TIP3   OH263343   0.396   4.745   0.201
21153TIP3    H163344   0.483   4.710   0.223
21153TIP3    H263345   0.338   4.669   0.202
21154TIP3   OH263346   0.844   4.758   0.230
21154TIP3    H163347   0.922   4.746   0.284
21154TIP3    H263348   0.837   4.676   0.180
21155TIP3   OH263349   4.097   8.933   6.383
21155TIP3    H163350   4.049   8.863   6.427
21155TIP3    H263351   4.171   8.889   6.343
21156TIP3   OH263352   1.451   4.669  -0.006
21156TIP3    H163353   1.420   4.594   0.045
21156TIP3    H263354   1.435   4.745   0.050
21157TIP3   OH263355   4.539   8.973   6.300
21157TIP3    H163356   4.573   8.908   6.362
21157TIP3    H263357   4.596   8.966   6.224
21158TIP3   OH263358   0.499   4.163   0.391
21158TIP3    H163359   0.519   4.070   0.397
21158TIP3    H263360   0.412   4.167   0.351
21159TIP3   OH263361   3.759   8.426   6.601
21159TIP3    H163362   3.811   8.403   6.678
21159TIP3    H263363   3.823   8.439   6.532
21160TIP3   OH263364   1.106   4.254   0.177
21160TIP3    H163365   1.066   4.281   0.094
21160TIP3    H263366   1.141   4.167   0.160
21161TIP3   OH263367   4.343   8.645   6.445
21161TIP3    H163368   4.317   8.655   6.536
21161TIP3    H263369   4.321   8.555   6.423
21162TIP3   OH263370   4.882   8.979   7.794
21162TIP3    H163371   4.952   8.993   7.729
21162TIP3    H263372   4.809   9.033   7.763
21163TIP3   OH263373   0.633   3.915   0.403
21163TIP3    H163374   0.718   3.885   0.372
21163TIP3    H263375   0.648   3.942   0.494
21164TIP3   OH263376   3.933   8.366   6.812
21164TIP3    H163377   3.915   8.330   6.899
21164TIP3    H263378   3.984   8.298   6.768
21165TIP3   OH263379   0.960   3.812   0.040
21165TIP3    H163380   0.880   3.863   0.052
21165TIP3    H263381   0.999   3.848  -0.040
21166TIP3   OH263382   4.078   8.184   6.662
21166TIP3    H163383   4.047   8.187   6.571
21166TIP3    H263384   4.173   8.192   6.655
21167TIP3   OH263385   1.486   4.200   0.194
21167TIP3    H163386   1.579   4.181   0.181
21167TIP3    H263387   1.456   4.132   0.255
21168TIP3   OH263388   4.867   8.471   6.340
21168TIP3    H163389   4.855   8.430   6.254
21168TIP3    H263390   4.845   8.563   6.326
21169TIP3   OH263391   1.078   3.596   0.165
21169TIP3    H163392   1.086   3.525   0.103
21169TIP3    H263393   1.039   3.668   0.115
21170TIP3   OH263394   4.360   8.017   7.965
21170TIP3    H163395   4.391   8.058   7.885
21170TIP3    H263396   4.269   7.992   7.946
21171TIP3   OH263397   4.365   8.544   7.838
21171TIP3    H163398   4.450   8.588   7.836
21171TIP3    H263399   4.307   8.603   7.789
21172TIP3   OH263400   1.665   3.875   0.223
21172TIP3    H163401   1.711   3.804   0.268
21172TIP3    H263402   1.728   3.948   0.225
21173TIP3   OH263403   4.991   8.749   7.889
21173TIP3    H163404   4.936   8.823   7.861
21173TIP3    H263405   5.080   8.774   7.864
21174TIP3   OH263406   0.954   3.670   0.406
21174TIP3    H163407   0.891   3.601   0.427
21174TIP3    H263408   0.994   3.642   0.324
21175TIP3   OH263409   1.212   3.168   0.073
21175TIP3    H163410   1.173   3.248   0.038
21175TIP3    H263411   1.145   3.101   0.059
21176TIP3   OH263412   1.328   3.638   0.279
21176TIP3    H163413   1.311   3.626   0.372
21176TIP3    H263414   1.244   3.620   0.237
21177TIP3   OH263415   1.539   3.564   0.113
21177TIP3    H163416   1.475   3.578   0.182
21177TIP3    H263417   1.614   3.524   0.157
21178TIP3   OH263418   1.782   3.483   0.218
21178TIP3    H163419   1.810   3.400   0.256
21178TIP3    H263420   1.775   3.542   0.292
21179TIP3   OH263421   0.797   3.451   0.469
21179TIP3    H163422   0.799   3.362   0.434
21179TIP3    H263423   0.827   3.443   0.559
21180TIP3   OH263424   1.270   3.133   0.338
21180TIP3    H163425   1.341   3.069   0.331
21180TIP3    H263426   1.242   3.148   0.248
21181TIP3   OH263427   1.361   3.353   0.476
21181TIP3    H163428   1.325   3.281   0.424
21181TIP3    H263429   1.290   3.418   0.479
21182TIP3   OH263430   7.176   0.020   6.611
21182TIP3    H163431   7.261  -0.011   6.583
21182TIP3    H263432   7.130   0.042   6.530
21183TIP3   OH263433   3.365   8.610   6.780
21183TIP3    H163434   3.459   8.622   6.774
21183TIP3    H263435   3.348   8.526   6.738
21184TIP3   OH263436   3.261   9.179   7.235
21184TIP3    H163437   3.200   9.125   7.186
21184TIP3    H263438   3.307   9.117   7.292
21185TIP3   OH263439   3.413   9.016   7.401
21185TIP3    H163440   3.408   8.952   7.472
21185TIP3    H263441   3.464   9.088   7.437
21186TIP3   OH263442   8.406   0.196   7.197
21186TIP3    H163443   8.421   0.221   7.288
21186TIP3    H263444   8.443   0.268   7.146
21187TIP3   OH263445   8.417   0.219   7.476
21187TIP3    H163446   8.370   0.136   7.479
21187TIP3    H263447   8.496   0.204   7.529
21188TIP3   OH263448   5.214   9.198   7.953
21188TIP3    H163449   5.119   9.183   7.956
21188TIP3    H263450   5.223   9.292   7.944
21189TIP3   OH263451   5.039   8.683   6.671
21189TIP3    H163452   5.097   8.752   6.640
21189TIP3    H263453   5.085   8.644   6.746
21190TIP3   OH263454   5.167   8.538   6.871
21190TIP3    H163455   5.098   8.500   6.926
21190TIP3    H263456   5.231   8.572   6.933
21191TIP3   OH263457   5.200   8.943   7.289
21191TIP3    H163458   5.258   8.877   7.251
21191TIP3    H263459   5.205   9.017   7.228
21192TIP3   OH263460   5.014   9.220   7.506
21192TIP3    H163461   4.943   9.264   7.552
21192TIP3    H263462   4.972   9.177   7.432
21193TIP3   OH263463   5.077   8.457   6.518
21193TIP3    H163464   5.005   8.455   6.454
21193TIP3    H263465   5.060   8.536   6.570
21194TIP3   OH263466   4.921   8.109   6.460
21194TIP3    H163467   4.878   8.143   6.381
21194TIP3    H263468   4.914   8.014   6.451
21195TIP3   OH263469   4.964   8.400   7.006
21195TIP3    H163470   4.970   8.306   6.992
21195TIP3    H263471   4.944   8.410   7.100
21196TIP3   OH263472   3.628   8.492   7.727
21196TIP3    H163473   3.670   8.522   7.647
21196TIP3    H263474   3.699   8.459   7.781
21197TIP3   OH263475   5.248   8.817   7.825
21197TIP3    H163476   5.314   8.748   7.815
21197TIP3    H263477   5.242   8.858   7.739
21198TIP3   OH263478   5.415   8.598   7.806
21198TIP3    H163479   5.339   8.554   7.842
21198TIP3    H263480   5.489   8.542   7.832
21199TIP3   OH263481   4.887   7.839   6.433
21199TIP3    H163482   4.955   7.808   6.492
21199TIP3    H263483   4.807   7.795   6.463
21200TIP3   OH263484   4.958   8.123   6.894
21200TIP3    H163485   5.006   8.041   6.907
21200TIP3    H263486   4.999   8.162   6.816
21201TIP3   OH263487   5.110   8.287   7.403
21201TIP3    H163488   5.191   8.306   7.355
21201TIP3    H263489   5.126   8.324   7.490
21202TIP3   OH263490   5.183   8.430   7.629
21202TIP3    H163491   5.106   8.455   7.682
21202TIP3    H263492   5.206   8.511   7.583
21203TIP3   OH263493   0.540   3.525   0.409
21203TIP3    H163494   0.634   3.517   0.428
21203TIP3    H263495   0.501   3.448   0.450
21204TIP3   OH263496   2.354   3.350   0.133
21204TIP3    H163497   2.411   3.295   0.078
21204TIP3    H263498   2.329   3.423   0.076
21205TIP3   OH263499   5.076   7.875   6.949
21205TIP3    H163500   5.121   7.859   7.032
21205TIP3    H263501   5.014   7.802   6.941
21206TIP3   OH263502   3.790   7.883   7.741
21206TIP3    H163503   3.828   7.800   7.769
21206TIP3    H263504   3.866   7.941   7.731
21207TIP3   OH263505   3.579   8.050   7.847
21207TIP3    H163506   3.650   8.004   7.803
21207TIP3    H263507   3.620   8.130   7.881
21208TIP3   OH263508   5.487   8.142   7.957
21208TIP3    H163509   5.399   8.179   7.953
21208TIP3    H263510   5.479   8.058   7.911
21209TIP3   OH263511   5.117   7.784   6.583
21209TIP3    H163512   5.166   7.724   6.526
21209TIP3    H263513   5.172   7.863   6.587
21210TIP3   OH263514   3.546   7.639   7.346
21210TIP3    H163515   3.459   7.615   7.378
21210TIP3    H263516   3.530   7.690   7.267
21211TIP3   OH263517   7.980   0.099   6.849
21211TIP3    H163518   8.034   0.091   6.771
21211TIP3    H263519   8.022   0.169   6.899
21212TIP3   OH263520   0.498   3.068   0.167
21212TIP3    H163521   0.452   3.056   0.249
21212TIP3    H263522   0.434   3.112   0.110
21213TIP3   OH263523   0.549   4.503   0.221
21213TIP3    H163524   0.461   4.488   0.185
21213TIP3    H263525   0.541   4.484   0.314
21214TIP3   OH263526   4.027   9.178   7.787
21214TIP3    H163527   3.970   9.249   7.756
21214TIP3    H263528   4.107   9.188   7.736
21215TIP3   OH263529   7.688   0.136   7.821
21215TIP3    H163530   7.680   0.147   7.916
21215TIP3    H263531   7.752   0.203   7.795
21216TIP3   OH263532   7.872   0.332   7.766
21216TIP3    H163533   7.950   0.291   7.730
21216TIP3    H263534   7.904   0.389   7.836
21217TIP3   OH263535   5.406   7.896   7.859
21217TIP3    H163536   5.322   7.885   7.815
21217TIP3    H263537   5.446   7.809   7.857
21218TIP3   OH263538   6.939   0.136   7.808
21218TIP3    H163539   6.849   0.157   7.786
21218TIP3    H263540   6.961   0.197   7.879
21219TIP3   OH263541   7.181   0.161   7.677
21219TIP3    H163542   7.094   0.160   7.718
21219TIP3    H263543   7.164   0.193   7.588
21220TIP3   OH263544   7.583   0.200   7.473
21220TIP3    H163545   7.510   0.207   7.412
21220TIP3    H263546   7.593   0.289   7.509
21221TIP3   OH263547   7.839   0.111   7.508
21221TIP3    H163548   7.748   0.140   7.498
21221TIP3    H263549   7.890   0.179   7.464
21222TIP3   OH263550   8.041   0.279   7.416
21222TIP3    H163551   8.040   0.368   7.380
21222TIP3    H263552   8.071   0.224   7.343
21223TIP3   OH263553   3.588   9.198   7.526
21223TIP3    H163554   3.602   9.176   7.618
21223TIP3    H263555   3.662   9.160   7.480
21224TIP3   OH263556   3.788   9.069   7.396
21224TIP3    H163557   3.798   8.989   7.447
21224TIP3    H263558   3.872   9.114   7.404
21225TIP3   OH263559   4.044   9.149   7.436
21225TIP3    H163560   4.075   9.059   7.433
21225TIP3    H263561   4.105   9.192   7.497
21226TIP3   OH263562   4.605   7.817   7.517
21226TIP3    H163563   4.570   7.745   7.570
21226TIP3    H263564   4.678   7.778   7.469
21227TIP3   OH263565   5.115   7.754   7.414
21227TIP3    H163566   5.153   7.799   7.339
21227TIP3    H263567   5.022   7.773   7.409
21228TIP3   OH263568   5.230   7.817   7.173
21228TIP3    H163569   5.299   7.756   7.146
21228TIP3    H263570   5.269   7.904   7.160
21229TIP3   OH263571   3.856   7.536   7.515
21229TIP3    H163572   3.767   7.501   7.525
21229TIP3    H263573   3.911   7.459   7.507
21230TIP3   OH263574   3.684   7.446   7.177
21230TIP3    H163575   3.706   7.492   7.096
21230TIP3    H263576   3.644   7.513   7.233
21231TIP3   OH263577   4.331   7.574   7.414
21231TIP3    H163578   4.384   7.615   7.345
21231TIP3    H263579   4.376   7.596   7.495
21232TIP3   OH263580   4.830   7.716   7.393
21232TIP3    H163581   4.845   7.686   7.303
21232TIP3    H263582   4.838   7.637   7.446
21233TIP3   OH263583   4.891   7.664   6.954
21233TIP3    H163584   4.810   7.710   6.979
21233TIP3    H263585   4.881   7.577   6.992
21234TIP3   OH263586   3.346   9.009   6.951
21234TIP3    H163587   3.264   8.973   6.917
21234TIP3    H263588   3.358   9.091   6.902
21235TIP3   OH263589   3.785   7.567   6.932
21235TIP3    H163590   3.829   7.504   6.875
21235TIP3    H263591   3.855   7.622   6.966
21236TIP3   OH263592   4.267   7.768   7.034
21236TIP3    H163593   4.328   7.716   7.085
21236TIP3    H263594   4.283   7.858   7.063
21237TIP3   OH263595   4.151   9.158   6.526
21237TIP3    H163596   4.236   9.182   6.489
21237TIP3    H263597   4.120   9.086   6.471
21238TIP3   OH263598   8.118   0.056   6.612
21238TIP3    H163599   8.111  -0.039   6.609
21238TIP3    H263600   8.075   0.086   6.532
21239TIP3   OH263601   0.813   3.183   0.390
21239TIP3    H163602   0.776   3.119   0.450
21239TIP3    H263603   0.905   3.192   0.417
21240TIP3   OH263604   1.059   3.189   0.515
21240TIP3    H163605   1.135   3.163   0.463
21240TIP3    H263606   1.051   3.121   0.582
21241TIP3   OH263607   3.457   8.991   6.577
21241TIP3    H163608   3.461   9.023   6.667
21241TIP3    H263609   3.542   8.949   6.563
21242TIP3   OH263610   1.881   3.250   0.323
21242TIP3    H163611   1.908   3.234   0.413
21242TIP3    H263612   1.963   3.253   0.273
21243TIP3   OH263613   8.333   0.172   7.794
21243TIP3    H163614   8.252   0.161   7.744
21243TIP3    H263615   8.336   0.265   7.816
21244TIP3   OH263616   6.345   8.822   6.555
21244TIP3    H163617   6.310   8.909   6.536
21244TIP3    H263618   6.277   8.762   6.526
21245TIP3   OH263619   6.314   8.818   6.951
21245TIP3    H163620   6.350   8.798   7.037
21245TIP3    H263621   6.279   8.735   6.919
21246TIP3   OH263622   5.642   8.676   7.323
21246TIP3    H163623   5.680   8.627   7.396
21246TIP3    H263624   5.716   8.699   7.268
21247TIP3   OH263625   6.618   9.096   6.635
21247TIP3    H163626   6.599   9.035   6.706
21247TIP3    H263627   6.622   9.182   6.679
21248TIP3   OH263628   5.673   9.117   7.065
21248TIP3    H163629   5.642   9.028   7.047
21248TIP3    H263630   5.753   9.125   7.014
21249TIP3   OH263631   5.316   8.311   6.790
21249TIP3    H163632   5.277   8.396   6.814
21249TIP3    H263633   5.245   8.263   6.749
21250TIP3   OH263634   5.396   8.616   7.012
21250TIP3    H163635   5.445   8.539   7.040
21250TIP3    H263636   5.460   8.671   6.967
21251TIP3   OH263637   9.559   0.287   6.675
21251TIP3    H163638   9.577   0.230   6.600
21251TIP3    H263639   9.572   0.231   6.751
21252TIP3   OH263640   6.140   9.039   6.970
21252TIP3    H163641   6.184   8.960   6.939
21252TIP3    H263642   6.212   9.097   6.998
21253TIP3   OH263643   7.181   8.341   6.965
21253TIP3    H163644   7.190   8.432   6.991
21253TIP3    H263645   7.222   8.336   6.878
21254TIP3   OH263646   6.515   8.530   7.029
21254TIP3    H163647   6.562   8.452   7.056
21254TIP3    H263648   6.501   8.519   6.935
21255TIP3   OH263649   5.913   8.183   6.973
21255TIP3    H163650   5.893   8.257   6.915
21255TIP3    H263651   5.859   8.111   6.940
21256TIP3   OH263652   6.610   8.288   6.609
21256TIP3    H163653   6.675   8.275   6.677
21256TIP3    H263654   6.661   8.321   6.534
21257TIP3   OH263655   5.539   8.398   7.101
21257TIP3    H163656   5.622   8.379   7.145
21257TIP3    H263657   5.541   8.346   7.021
21258TIP3   OH263658   5.949   8.599   6.921
21258TIP3    H163659   6.044   8.583   6.922
21258TIP3    H263660   5.912   8.518   6.887
21259TIP3   OH263661   7.226   8.592   7.074
21259TIP3    H163662   7.138   8.631   7.076
21259TIP3    H263663   7.246   8.575   7.166
21260TIP3   OH263664   5.893   8.187   7.422
21260TIP3    H163665   5.839   8.223   7.351
21260TIP3    H263666   5.840   8.202   7.501
21261TIP3   OH263667   6.206   9.030   6.443
21261TIP3    H163668   6.185   9.013   6.351
21261TIP3    H263669   6.167   9.116   6.461
21262TIP3   OH263670   6.004   8.955   7.194
21262TIP3    H163671   5.957   9.028   7.234
21262TIP3    H263672   6.047   8.993   7.118
21263TIP3   OH263673   6.773   8.292   6.828
21263TIP3    H163674   6.721   8.282   6.907
21263TIP3    H263675   6.823   8.372   6.842
21264TIP3   OH263676   5.782   8.292   7.192
21264TIP3    H163677   5.837   8.367   7.214
21264TIP3    H263678   5.828   8.248   7.121
21265TIP3   OH263679   5.834   9.163   7.294
21265TIP3    H163680   5.825   9.257   7.280
21265TIP3    H263681   5.767   9.123   7.238
21266TIP3   OH263682   5.212   8.867   6.553
21266TIP3    H163683   5.179   8.888   6.465
21266TIP3    H263684   5.237   8.952   6.590
21267TIP3   OH263685   0.091   0.105   6.755
21267TIP3    H163686   0.009   0.106   6.804
21267TIP3    H263687   0.106   0.196   6.730
21268TIP3   OH263688   6.965   8.272   7.133
21268TIP3    H163689   6.884   8.292   7.085
21268TIP3    H263690   7.035   8.288   7.069
21269TIP3   OH263691   6.232   7.883   7.153
21269TIP3    H163692   6.227   7.791   7.178
21269TIP3    H263693   6.154   7.923   7.192
21270TIP3   OH263694   9.627   0.158   6.439
21270TIP3    H163695   9.679   0.078   6.428
21270TIP3    H263696   9.686   0.229   6.413
21271TIP3   OH263697   6.516   9.181   6.393
21271TIP3    H163698   6.521   9.109   6.330
21271TIP3    H263699   6.551   9.144   6.474
21272TIP3   OH263700   6.173   8.662   6.403
21272TIP3    H163701   6.091   8.709   6.384
21272TIP3    H263702   6.221   8.663   6.320
21273TIP3   OH263703   6.145   8.475   6.089
21273TIP3    H163704   6.210   8.523   6.140
21273TIP3    H263705   6.195   8.407   6.044
21274TIP3   OH263706   7.041   8.915   6.969
21274TIP3    H163707   6.977   8.986   6.979
21274TIP3    H263708   7.092   8.940   6.892
21275TIP3   OH263709   6.531   8.763   6.362
21275TIP3    H163710   6.476   8.787   6.437
21275TIP3    H263711   6.613   8.734   6.401
21276TIP3   OH263712   6.681   8.802   7.281
21276TIP3    H163713   6.770   8.803   7.314
21276TIP3    H263714   6.664   8.893   7.255
21277TIP3   OH263715   5.754   8.734   6.771
21277TIP3    H163716   5.719   8.674   6.705
21277TIP3    H263717   5.827   8.687   6.810
21278TIP3   OH263718   5.894   9.154   6.906
21278TIP3    H163719   5.869   9.141   6.815
21278TIP3    H263720   5.981   9.115   6.914
21279TIP3   OH263721   5.856   8.728   7.146
21279TIP3    H163722   5.892   8.691   7.065
21279TIP3    H263723   5.910   8.805   7.162
21280TIP3   OH263724   9.654   0.120   6.899
21280TIP3    H163725   9.647   0.197   6.955
21280TIP3    H263726   9.644   0.046   6.959
21281TIP3   OH263727   9.296   0.032   7.469
21281TIP3    H163728   9.231   0.083   7.518
21281TIP3    H263729   9.244  -0.025   7.413
21282TIP3   OH263730   6.364   8.617   6.197
21282TIP3    H163731   6.423   8.675   6.244
21282TIP3    H263732   6.393   8.622   6.106
21283TIP3   OH263733   9.373   0.050   6.459
21283TIP3    H163734   9.460   0.089   6.460
21283TIP3    H263735   9.320   0.109   6.405
21284TIP3   OH263736   9.059   0.164   7.552
21284TIP3    H163737   9.063   0.197   7.462
21284TIP3    H263738   9.013   0.080   7.545
21285TIP3   OH263739   6.874   7.842   6.256
21285TIP3    H163740   6.798   7.863   6.311
21285TIP3    H263741   6.884   7.918   6.199
21286TIP3   OH263742   5.636   8.574   6.569
21286TIP3    H163743   5.557   8.620   6.538
21286TIP3    H263744   5.608   8.483   6.579
21287TIP3   OH263745   6.701   9.217   5.809
21287TIP3    H163746   6.695   9.309   5.784
21287TIP3    H263747   6.790   9.191   5.785
21288TIP3   OH263748   5.413   9.017   7.454
21288TIP3    H163749   5.341   8.997   7.395
21288TIP3    H263750   5.448   8.932   7.481
21289TIP3   OH263751   5.255   9.186   7.157
21289TIP3    H163752   5.341   9.214   7.189
21289TIP3    H263753   5.198   9.261   7.174
21290TIP3   OH263754   9.476   0.191   7.331
21290TIP3    H163755   9.449   0.273   7.372
21290TIP3    H263756   9.425   0.123   7.377
21291TIP3   OH263757   9.271   0.249   6.284
21291TIP3    H163758   9.228   0.235   6.200
21291TIP3    H263759   9.242   0.336   6.312
21292TIP3   OH263760   8.709   0.108   6.671
21292TIP3    H163761   8.753   0.099   6.755
21292TIP3    H263762   8.659   0.026   6.661
21293TIP3   OH263763   9.474   0.198   5.908
21293TIP3    H163764   9.522   0.125   5.871
21293TIP3    H263765   9.509   0.209   5.996
21294TIP3   OH263766   9.524   0.231   6.179
21294TIP3    H163767   9.437   0.232   6.219
21294TIP3    H263768   9.581   0.192   6.245
21295TIP3   OH263769   6.945   8.779   7.368
21295TIP3    H163770   7.007   8.845   7.399
21295TIP3    H263771   6.963   8.702   7.421
21296TIP3   OH263772   5.994   7.970   7.278
21296TIP3    H163773   5.910   7.937   7.247
21296TIP3    H263774   5.973   8.051   7.325
21297TIP3   OH263775   6.542   8.107   7.472
21297TIP3    H163776   6.616   8.068   7.518
21297TIP3    H263777   6.464   8.074   7.518
21298TIP3   OH263778   6.749   8.538   7.376
21298TIP3    H163779   6.699   8.543   7.457
21298TIP3    H263780   6.721   8.614   7.325
21299TIP3   OH263781   6.442   8.604   5.936
21299TIP3    H163782   6.397   8.603   5.852
21299TIP3    H263783   6.526   8.646   5.917
21300TIP3   OH263784   6.149   8.018   6.253
21300TIP3    H163785   6.113   8.025   6.341
21300TIP3    H263786   6.115   7.935   6.220
21301TIP3   OH263787   5.934   8.501   7.283
21301TIP3    H163788   5.891   8.509   7.368
21301TIP3    H263789   5.914   8.584   7.238
21302TIP3   OH263790   5.813   8.384   6.814
21302TIP3    H163791   5.725   8.357   6.837
21302TIP3    H263792   5.825   8.353   6.724
21303TIP3   OH263793   6.297   8.459   6.540
21303TIP3    H163794   6.250   8.531   6.498
21303TIP3    H263795   6.356   8.427   6.471
21304TIP3   OH263796   6.520   8.800   7.589
21304TIP3    H163797   6.504   8.712   7.623
21304TIP3    H263798   6.606   8.823   7.622
21305TIP3   OH263799   6.465   8.475   6.761
21305TIP3    H163800   6.398   8.493   6.696
21305TIP3    H263801   6.514   8.401   6.725
21306TIP3   OH263802   5.783   8.521   7.514
21306TIP3    H163803   5.854   8.570   7.555
21306TIP3    H263804   5.771   8.444   7.570
21307TIP3   OH263805   5.818   7.996   6.231
21307TIP3    H163806   5.810   8.001   6.326
21307TIP3    H263807   5.740   8.040   6.197
21308TIP3   OH263808   5.361   8.039   7.096
21308TIP3    H163809   5.435   8.076   7.145
21308TIP3    H263810   5.397   8.021   7.009
21309TIP3   OH263811   5.266   8.019   6.597
21309TIP3    H163812   5.313   8.055   6.521
21309TIP3    H263813   5.202   8.087   6.619
21310TIP3   OH263814   6.416   8.730   7.193
21310TIP3    H163815   6.444   8.653   7.142
21310TIP3    H263816   6.495   8.755   7.242
21311TIP3   OH263817   6.183   8.174   6.862
21311TIP3    H163818   6.107   8.174   6.919
21311TIP3    H263819   6.258   8.164   6.921
21312TIP3   OH263820   5.576   8.257   6.871
21312TIP3    H163821   5.488   8.261   6.832
21312TIP3    H263822   5.605   8.167   6.854
21313TIP3   OH263823   5.830   8.266   6.567
21313TIP3    H163824   5.925   8.276   6.559
21313TIP3    H263825   5.797   8.283   6.478
21314TIP3   OH263826   6.620   8.268   7.056
21314TIP3    H163827   6.608   8.282   7.150
21314TIP3    H263828   6.553   8.204   7.032
21315TIP3   OH263829   5.721   8.290   6.316
21315TIP3    H163830   5.659   8.239   6.264
21315TIP3    H263831   5.776   8.335   6.252
21316TIP3   OH263832   6.219   8.540   6.950
21316TIP3    H163833   6.292   8.499   6.905
21316TIP3    H263834   6.219   8.502   7.038
21317TIP3   OH263835   5.720   8.010   6.856
21317TIP3    H163836   5.692   7.935   6.907
21317TIP3    H263837   5.745   7.973   6.771
21318TIP3   OH263838   6.193   8.439   7.210
21318TIP3    H163839   6.107   8.468   7.239
21318TIP3    H263840   6.254   8.473   7.276
21319TIP3   OH263841   5.935   8.799   6.344
21319TIP3    H163842   5.861   8.745   6.321
21319TIP3    H263843   5.910   8.840   6.427
21320TIP3   OH263844   6.760   9.062   7.012
21320TIP3    H163845   6.816   9.109   6.950
21320TIP3    H263846   6.704   9.008   6.957
21321TIP3   OH263847   6.403   8.120   6.257
21321TIP3    H163848   6.310   8.099   6.252
21321TIP3    H263849   6.406   8.215   6.268
21322TIP3   OH263850   6.365   9.119   7.360
21322TIP3    H163851   6.436   9.057   7.375
21322TIP3    H263852   6.409   9.204   7.355
21323TIP3   OH263853   6.462   8.385   6.324
21323TIP3    H163854   6.557   8.387   6.334
21323TIP3    H263855   6.441   8.462   6.272
21324TIP3   OH263856   5.644   8.847   6.999
21324TIP3    H163857   5.673   8.819   6.912
21324TIP3    H263858   5.703   8.802   7.060
21325TIP3   OH263859   6.094   8.958   6.190
21325TIP3    H163860   6.046   9.041   6.187
21325TIP3    H263861   6.039   8.900   6.243
21326TIP3   OH263862   5.451   8.788   7.607
21326TIP3    H163863   5.481   8.731   7.677
21326TIP3    H263864   5.386   8.736   7.559
21327TIP3   OH263865   6.263   8.885   7.571
21327TIP3    H163866   6.229   8.854   7.487
21327TIP3    H263867   6.354   8.856   7.573
21328TIP3   OH263868   9.742   0.129   7.296
21328TIP3    H163869   9.649   0.152   7.301
21328TIP3    H263870   9.780   0.197   7.240
21329TIP3   OH263871   6.871   8.473   6.139
21329TIP3    H163872   6.814   8.428   6.077
21329TIP3    H263873   6.879   8.561   6.104
21330TIP3   OH263874   0.089   0.037   6.071
21330TIP3    H163875   0.058  -0.039   6.119
21330TIP3    H263876   0.111   0.004   5.984
21331TIP3   OH263877   6.577   8.915   6.856
21331TIP3    H163878   6.486   8.891   6.870
21331TIP3    H263879   6.618   8.837   6.820
21332TIP3   OH263880   5.756   9.157   6.664
21332TIP3    H163881   5.760   9.235   6.609
21332TIP3    H263882   5.663   9.139   6.675
21333TIP3   OH263883   5.315   8.444   6.379
21333TIP3    H163884   5.359   8.526   6.401
21333TIP3    H263885   5.234   8.444   6.429
21334TIP3   OH263886   5.834   8.910   6.568
21334TIP3    H163887   5.824   9.000   6.599
21334TIP3    H263888   5.809   8.856   6.643
21335TIP3   OH263889   9.301   0.229   7.116
21335TIP3    H163890   9.333   0.305   7.066
21335TIP3    H263891   9.376   0.202   7.169
21336TIP3   OH263892   8.935   0.139   6.518
21336TIP3    H163893   8.850   0.144   6.562
21336TIP3    H263894   8.968   0.229   6.521
21337TIP3   OH263895   6.373   9.143   7.077
21337TIP3    H163896   6.361   9.132   7.171
21337TIP3    H263897   6.448   9.088   7.055
21338TIP3   OH263898   6.388   9.028   5.972
21338TIP3    H163899   6.429   9.011   6.057
21338TIP3    H263900   6.304   8.982   5.975
21339TIP3   OH263901   0.164   0.248   5.770
21339TIP3    H163902   0.197   0.312   5.707
21339TIP3    H263903   0.087   0.290   5.809
21340TIP3   OH263904   5.720   8.246   7.632
21340TIP3    H163905   5.626   8.259   7.625
21340TIP3    H263906   5.731   8.173   7.692
21341TIP3   OH263907   6.557   8.982   6.194
21341TIP3    H163908   6.537   8.907   6.250
21341TIP3    H263909   6.649   8.973   6.173
21342TIP3   OH263910   8.723   0.147   7.252
21342TIP3    H163911   8.812   0.114   7.266
21342TIP3    H263912   8.726   0.237   7.286
21343TIP3   OH263913   5.732   8.988   5.980
21343TIP3    H163914   5.744   8.897   5.953
21343TIP3    H263915   5.720   8.982   6.075
21344TIP3   OH263916   5.678   9.002   6.253
21344TIP3    H163917   5.746   8.975   6.314
21344TIP3    H263918   5.678   9.098   6.258
21345TIP3   OH263919   5.410   8.694   6.460
21345TIP3    H163920   5.344   8.741   6.511
21345TIP3    H263921   5.431   8.752   6.387
21346TIP3   OH263922   6.572   8.329   7.317
21346TIP3    H163923   6.647   8.379   7.348
21346TIP3    H263924   6.567   8.254   7.376
21347TIP3   OH263925   6.463   8.068   6.523
21347TIP3    H163926   6.443   8.086   6.431
21347TIP3    H263927   6.506   8.148   6.554
21348TIP3   OH263928   5.945   9.184   6.186
21348TIP3    H163929   5.863   9.211   6.226
21348TIP3    H263930   5.971   9.258   6.132
21349TIP3   OH263931   6.109   8.272   6.613
21349TIP3    H163932   6.172   8.339   6.586
21349TIP3    H263933   6.134   8.250   6.703
21350TIP3   OH263934   6.370   8.496   7.413
21350TIP3    H163935   6.414   8.538   7.487
21350TIP3    H263936   6.436   8.439   7.375
21351TIP3   OH263937   6.276   7.963   6.697
21351TIP3    H163938   6.255   8.040   6.750
21351TIP3    H263939   6.347   7.992   6.640
21352TIP3   OH263940   8.965   0.036   6.268
21352TIP3    H163941   8.949   0.111   6.210
21352TIP3    H263942   8.954   0.071   6.356
21353TIP3   OH263943   5.789   7.992   6.511
21353TIP3    H163944   5.777   8.083   6.538
21353TIP3    H263945   5.883   7.976   6.516
21354TIP3   OH263946   6.998   8.416   7.379
21354TIP3    H163947   6.913   8.460   7.378
21354TIP3    H263948   6.997   8.359   7.303
21355TIP3   OH263949   6.677   8.667   6.760
21355TIP3    H163950   6.603   8.607   6.766
21355TIP3    H263951   6.746   8.626   6.811
21356TIP3   OH263952   5.434   8.870   6.244
21356TIP3    H163953   5.507   8.932   6.253
21356TIP3    H263954   5.465   8.807   6.178
21357TIP3   OH263955   5.341   8.166   6.379
21357TIP3    H163956   5.351   8.261   6.386
21357TIP3    H263957   5.297   8.152   6.295
21358TIP3   OH263958   0.123   0.377   6.699
21358TIP3    H163959   0.075   0.438   6.643
21358TIP3    H263960   0.196   0.429   6.734
21359TIP3   OH263961   5.732   7.885   7.244
21359TIP3    H163962   5.704   7.854   7.158
21359TIP3    H263963   5.723   7.809   7.301
21360TIP3   OH263964   5.268   9.127   6.645
21360TIP3    H163965   5.228   9.163   6.724
21360TIP3    H263966   5.224   9.172   6.573
21361TIP3   OH263967   8.715   0.395   7.685
21361TIP3    H163968   8.802   0.364   7.710
21361TIP3    H263969   8.662   0.315   7.683
21362TIP3   OH263970   5.890   9.187   5.872
21362TIP3    H163971   5.841   9.117   5.916
21362TIP3    H263972   5.964   9.143   5.831
21363TIP3   OH263973   6.331   9.227   5.788
21363TIP3    H163974   6.368   9.164   5.850
21363TIP3    H263975   6.387   9.221   5.711
21364TIP3   OH263976   5.553   8.681   6.087
21364TIP3    H163977   5.604   8.656   6.164
21364TIP3    H263978   5.619   8.695   6.019
21365TIP3   OH263979   6.186   9.134   7.652
21365TIP3    H163980   6.148   9.182   7.578
21365TIP3    H263981   6.228   9.058   7.612
21366TIP3   OH263982   6.137   8.903   5.926
21366TIP3    H163983   6.112   8.912   6.018
21366TIP3    H263984   6.118   8.811   5.905
21367TIP3   OH263985   6.633   9.101   7.248
21367TIP3    H163986   6.689   9.093   7.171
21367TIP3    H263987   6.613   9.195   7.253
21368TIP3   OH263988   5.660   8.875   7.814
21368TIP3    H163989   5.743   8.839   7.783
21368TIP3    H263990   5.633   8.816   7.884
21369TIP3   OH263991   5.726   8.623   6.299
21369TIP3    H163992   5.709   8.592   6.388
21369TIP3    H263993   5.777   8.552   6.258
21370TIP3   OH263994   6.013   8.682   7.538
21370TIP3    H163995   6.047   8.735   7.610
21370TIP3    H263996   6.061   8.713   7.461
21371TIP3   OH263997   5.873   8.443   6.145
21371TIP3    H163998   5.843   8.446   6.053
21371TIP3    H263999   5.968   8.451   6.140
21372TIP3   OH264000   6.665   8.728   5.828
21372TIP3    H164001   6.652   8.686   5.743
21372TIP3    H264002   6.641   8.819   5.814
21373TIP3   OH264003   6.141   8.438   7.610
21373TIP3    H164004   6.169   8.368   7.551
21373TIP3    H264005   6.129   8.514   7.554
21374TIP3   OH264006   6.162   8.238   7.415
21374TIP3    H164007   6.182   8.284   7.333
21374TIP3    H264008   6.067   8.227   7.414
21375TIP3   OH264009   6.172   8.779   7.334
21375TIP3    H164010   6.251   8.755   7.285
21375TIP3    H264011   6.126   8.841   7.277
21376TIP3   OH264012   5.998   8.528   7.822
21376TIP3    H164013   5.944   8.452   7.847
21376TIP3    H264014   6.040   8.502   7.740
21377TIP3   OH264015   6.277   8.027   7.544
21377TIP3    H164016   6.240   8.100   7.495
21377TIP3    H264017   6.211   7.958   7.537
21378TIP3   OH264018   6.354   8.604   7.724
21378TIP3    H164019   6.418   8.576   7.790
21378TIP3    H264020   6.299   8.527   7.710
21379TIP3   OH264021   6.611   8.501   7.611
21379TIP3    H164022   6.557   8.449   7.670
21379TIP3    H264023   6.701   8.480   7.636
21380TIP3   OH264024   6.863   8.417   7.672
21380TIP3    H164025   6.923   8.386   7.604
21380TIP3    H264026   6.914   8.416   7.752
21381TIP3   OH264027   5.844   8.325   7.923
21381TIP3    H164028   5.870   8.243   7.881
21381TIP3    H264029   5.816   8.300   8.011
21382TIP3   OH264030   6.401   8.077   7.778
21382TIP3    H164031   6.455   7.999   7.778
21382TIP3    H264032   6.345   8.068   7.700
21383TIP3   OH264033   6.484   8.335   7.794
21383TIP3    H164034   6.475   8.242   7.776
21383TIP3    H264035   6.402   8.360   7.836
21384TIP3   OH264036   8.977   0.257   6.097
21384TIP3    H164037   9.062   0.227   6.065
21384TIP3    H264038   8.933   0.291   6.019
21385TIP3   OH264039   5.161   8.871   6.262
21385TIP3    H164040   5.256   8.881   6.258
21385TIP3    H264041   5.144   8.786   6.222
21386TIP3   OH264042   8.334   0.189   6.715
21386TIP3    H164043   8.268   0.139   6.666
21386TIP3    H264044   8.376   0.125   6.771
21387TIP3   OH264045   8.475   0.025   6.885
21387TIP3    H164046   8.472  -0.035   6.960
21387TIP3    H264047   8.522   0.102   6.918
21388TIP3   OH264048   6.827   8.940   6.158
21388TIP3    H164049   6.889   9.004   6.123
21388TIP3    H264050   6.875   8.899   6.231
21389TIP3   OH264051   6.957   8.796   6.355
21389TIP3    H164052   6.890   8.757   6.411
21389TIP3    H264053   7.024   8.827   6.416
21390TIP3   OH264054   6.934   9.156   6.823
21390TIP3    H164055   7.014   9.118   6.787
21390TIP3    H264056   6.889   9.193   6.748
21391TIP3   OH264057   6.873   8.714   6.006
21391TIP3    H164058   6.803   8.711   5.941
21391TIP3    H264059   6.854   8.791   6.058
21392TIP3   OH264060   6.716   8.362   5.943
21392TIP3    H164061   6.672   8.394   5.864
21392TIP3    H264062   6.712   8.267   5.935
21393TIP3   OH264063   6.755   8.659   6.492
21393TIP3    H164064   6.764   8.564   6.481
21393TIP3    H264065   6.735   8.671   6.585
21394TIP3   OH264066   5.381   8.732   7.260
21394TIP3    H164067   5.375   8.695   7.172
21394TIP3    H264068   5.474   8.723   7.283
21395TIP3   OH264069   6.685   8.090   5.915
21395TIP3    H164070   6.752   8.063   5.978
21395TIP3    H264071   6.604   8.050   5.946
21396TIP3   OH264072   6.752   8.379   6.379
21396TIP3    H164073   6.798   8.296   6.393
21396TIP3    H264074   6.793   8.417   6.302
21397TIP3   OH264075   6.887   8.536   6.889
21397TIP3    H164076   6.966   8.557   6.839
21397TIP3    H264077   6.901   8.580   6.973
21398TIP3   OH264078   6.971   8.691   7.103
21398TIP3    H164079   6.951   8.721   7.192
21398TIP3    H264080   6.990   8.771   7.054
21399TIP3   OH264081   5.582   8.389   7.869
21399TIP3    H164082   5.677   8.380   7.867
21399TIP3    H264083   5.552   8.316   7.923
21400TIP3   OH264084   6.869   8.131   6.433
21400TIP3    H164085   6.916   8.116   6.515
21400TIP3    H264086   6.808   8.058   6.428
21401TIP3   OH264087   5.572   8.111   7.264
21401TIP3    H164088   5.625   8.031   7.269
21401TIP3    H264089   5.634   8.180   7.243
21402TIP3   OH264090   5.354   8.378   7.312
21402TIP3    H164091   5.407   8.371   7.233
21402TIP3    H264092   5.392   8.451   7.361
21403TIP3   OH264093   7.318   8.383   7.573
21403TIP3    H164094   7.232   8.392   7.614
21403TIP3    H264095   7.304   8.324   7.500
21404TIP3   OH264096   6.911   8.042   6.071
21404TIP3    H164097   6.960   7.982   6.015
21404TIP3    H264098   6.966   8.120   6.075
21405TIP3   OH264099   5.345   7.896   6.828
21405TIP3    H164100   5.259   7.880   6.867
21405TIP3    H264101   5.326   7.946   6.749
21406TIP3   OH264102   9.764   0.370   6.339
21406TIP3    H164103   9.812   0.352   6.258
21406TIP3    H264104   9.820   0.431   6.386
21407TIP3   OH264105   5.563   7.940   7.626
21407TIP3    H164106   5.513   7.933   7.707
21407TIP3    H264107   5.504   7.984   7.565
21408TIP3   OH264108   8.881  -0.024   7.763
21408TIP3    H164109   8.832   0.029   7.701
21408TIP3    H264110   8.901   0.036   7.835
21409TIP3   OH264111   9.079   0.196   7.275
21409TIP3    H164112   9.025   0.267   7.240
21409TIP3    H264113   9.161   0.202   7.226
21410TIP3   OH264114   7.191   8.126   7.371
21410TIP3    H164115   7.102   8.103   7.344
21410TIP3    H264116   7.243   8.048   7.350
21411TIP3   OH264117   8.721   0.419   7.311
21411TIP3    H164118   8.631   0.440   7.286
21411TIP3    H264119   8.744   0.485   7.377
21412TIP3   OH264120   8.950   0.403   7.161
21412TIP3    H164121   8.867   0.419   7.205
21412TIP3    H264122   8.936   0.434   7.072
21413TIP3   OH264123   9.373   0.453   6.966
21413TIP3    H164124   9.328   0.466   6.883
21413TIP3    H264125   9.319   0.498   7.031
21414TIP3   OH264126   9.634   0.372   7.003
21414TIP3    H164127   9.544   0.405   6.995
21414TIP3    H264128   9.681   0.411   6.930
21415TIP3   OH264129   8.635   0.227   7.002
21415TIP3    H164130   8.649   0.204   7.093
21415TIP3    H264131   8.713   0.193   6.956
21416TIP3   OH264132   8.854   0.096   6.907
21416TIP3    H164133   8.872   0.021   6.964
21416TIP3    H264134   8.938   0.142   6.900
21417TIP3   OH264135   9.117   0.191   6.909
21417TIP3    H164136   9.139   0.100   6.889
21417TIP3    H264137   9.173   0.213   6.984
21418TIP3   OH264138   6.408   8.077   6.999
21418TIP3    H164139   6.366   8.008   7.050
21418TIP3    H264140   6.478   8.033   6.951
21419TIP3   OH264141   6.914   8.010   6.889
21419TIP3    H164142   6.954   8.056   6.815
21419TIP3    H264143   6.824   8.043   6.892
21420TIP3   OH264144   7.031   8.080   6.652
21420TIP3    H164145   7.099   8.016   6.629
21420TIP3    H264146   7.071   8.165   6.636
21421TIP3   OH264147   5.648   7.784   7.002
21421TIP3    H164148   5.559   7.749   7.011
21421TIP3    H264149   5.703   7.706   6.993
21422TIP3   OH264150   5.476   7.700   6.662
21422TIP3    H164151   5.501   7.747   6.582
21422TIP3    H264152   5.440   7.768   6.719
21423TIP3   OH264153   6.128   7.826   6.894
21423TIP3    H164154   6.177   7.869   6.825
21423TIP3    H264155   6.170   7.854   6.976
21424TIP3   OH264156   6.622   7.950   6.882
21424TIP3    H164157   6.656   7.914   6.800
21424TIP3    H264158   6.637   7.880   6.947
21425TIP3   OH264159   6.685   7.919   6.441
21425TIP3    H164160   6.605   7.966   6.468
21425TIP3    H264161   6.676   7.832   6.481
21426TIP3   OH264162   8.414   0.012   6.435
21426TIP3    H164163   8.332  -0.023   6.403
21426TIP3    H264164   8.421   0.099   6.394
21427TIP3   OH264165   5.580   7.823   6.419
21427TIP3    H164166   5.626   7.762   6.362
21427TIP3    H264167   5.649   7.879   6.454
21428TIP3   OH264168   6.063   8.020   6.517
21428TIP3    H164169   6.124   7.967   6.569
21428TIP3    H264170   6.079   8.110   6.545
21429TIP3   OH264171   9.221   0.170   6.014
21429TIP3    H164172   9.304   0.197   5.975
21429TIP3    H264173   9.190   0.099   5.957
21430TIP3   OH264174   0.102   0.308   6.106
21430TIP3    H164175   0.099   0.212   6.098
21430TIP3    H264176   0.063   0.340   6.025
21431TIP3   OH264177   5.834   8.043   7.838
21431TIP3    H164178   5.821   7.971   7.899
21431TIP3    H264179   5.927   8.063   7.845
21432TIP3   OH264180   6.088   8.137   7.873
21432TIP3    H164181   6.147   8.210   7.854
21432TIP3    H264182   6.146   8.064   7.895
21433TIP3   OH264183   8.523   0.010   6.066
21433TIP3    H164184   8.528   0.027   6.160
21433TIP3    H264185   8.605  -0.036   6.046
21434TIP3   OH264186   6.953   8.080   7.781
21434TIP3    H164187   6.972   8.029   7.860
21434TIP3    H264188   7.038   8.092   7.739
21435TIP3   OH264189   7.106   8.567   6.274
21435TIP3    H164190   7.069   8.652   6.298
21435TIP3    H264191   7.033   8.520   6.235
21436TIP3   OH264192   7.178   8.863   6.508
21436TIP3    H164193   7.218   8.782   6.538
21436TIP3    H264194   7.252   8.919   6.485
21437TIP3   OH264195   7.681   8.445   6.477
21437TIP3    H164196   7.665   8.512   6.411
21437TIP3    H264197   7.633   8.368   6.446
21438TIP3   OH264198   8.360   8.514   6.084
21438TIP3    H164199   8.360   8.574   6.158
21438TIP3    H264200   8.423   8.552   6.023
21439TIP3   OH264201   7.324   8.647   6.595
21439TIP3    H164202   7.407   8.629   6.638
21439TIP3    H264203   7.327   8.596   6.514
21440TIP3   OH264204   7.733   8.846   6.378
21440TIP3    H164205   7.826   8.824   6.372
21440TIP3    H264206   7.687   8.766   6.351
21441TIP3   OH264207   7.693   8.439   6.911
21441TIP3    H164208   7.647   8.486   6.842
21441TIP3    H264209   7.636   8.446   6.987
21442TIP3   OH264210   7.573   8.569   6.695
21442TIP3    H164211   7.629   8.645   6.705
21442TIP3    H264212   7.613   8.518   6.624
21443TIP3   OH264213   7.002   9.113   6.031
21443TIP3    H164214   6.971   9.128   5.942
21443TIP3    H264215   7.029   9.200   6.062
21444TIP3   OH264216   8.002   8.129   6.621
21444TIP3    H164217   8.011   8.040   6.656
21444TIP3    H264218   7.935   8.170   6.677
21445TIP3   OH264219   7.973   8.860   5.822
21445TIP3    H164220   7.904   8.925   5.837
21445TIP3    H264221   8.048   8.912   5.793
21446TIP3   OH264222   7.913   8.708   5.599
21446TIP3    H164223   7.944   8.746   5.681
21446TIP3    H264224   7.981   8.646   5.574
21447TIP3   OH264225   7.544   8.999   6.248
21447TIP3    H164226   7.511   8.940   6.181
21447TIP3    H264227   7.616   8.952   6.289
21448TIP3   OH264228   8.228   8.908   5.703
21448TIP3    H164229   8.298   8.971   5.688
21448TIP3    H264230   8.207   8.875   5.615
21449TIP3   OH264231   8.650   8.082   5.728
21449TIP3    H164232   8.582   8.104   5.791
21449TIP3    H264233   8.649   8.154   5.665
21450TIP3   OH264234   7.432   8.831   6.052
21450TIP3    H164235   7.352   8.873   6.023
21450TIP3    H264236   7.406   8.740   6.071
21451TIP3   OH264237   0.666   0.370   6.151
21451TIP3    H164238   0.624   0.378   6.237
21451TIP3    H264239   0.635   0.287   6.116
21452TIP3   OH264240   1.599   0.493   5.481
21452TIP3    H164241   1.635   0.405   5.499
21452TIP3    H264242   1.550   0.515   5.560
21453TIP3   OH264243   7.795   8.221   6.782
21453TIP3    H164244   7.708   8.197   6.749
21453TIP3    H264245   7.781   8.302   6.830
21454TIP3   OH264246   8.209   8.807   5.448
21454TIP3    H164247   8.159   8.821   5.367
21454TIP3    H264248   8.296   8.842   5.428
21455TIP3   OH264249   7.944   8.272   5.748
21455TIP3    H164250   7.911   8.275   5.838
21455TIP3    H264251   7.906   8.191   5.712
21456TIP3   OH264252   7.592   8.628   6.295
21456TIP3    H164253   7.504   8.601   6.320
21456TIP3    H264254   7.605   8.593   6.207
21457TIP3   OH264255   8.081   8.686   6.004
21457TIP3    H164256   8.036   8.752   5.950
21457TIP3    H264257   8.153   8.656   5.949
21458TIP3   OH264258   7.612   8.251   5.716
21458TIP3    H164259   7.604   8.253   5.811
21458TIP3    H264260   7.533   8.296   5.684
21459TIP3   OH264261   7.166   8.298   6.571
21459TIP3    H164262   7.238   8.333   6.623
21459TIP3    H264263   7.205   8.275   6.487
21460TIP3   OH264264   7.062   8.276   6.083
21460TIP3    H164265   7.108   8.311   6.006
21460TIP3    H264266   6.998   8.344   6.106
21461TIP3   OH264267   7.940   8.483   6.366
21461TIP3    H164268   7.867   8.458   6.424
21461TIP3    H264269   8.013   8.429   6.395
21462TIP3   OH264270   7.359   8.505   6.364
21462TIP3    H164271   7.273   8.511   6.323
21462TIP3    H264272   7.388   8.416   6.345
21463TIP3   OH264273   7.614   8.509   6.051
21463TIP3    H164274   7.709   8.522   6.045
21463TIP3    H264275   7.581   8.529   5.963
21464TIP3   OH264276   7.504   8.542   5.803
21464TIP3    H164277   7.443   8.489   5.751
21464TIP3    H264278   7.554   8.592   5.738
21465TIP3   OH264279   7.510   8.263   6.347
21465TIP3    H164280   7.483   8.186   6.398
21465TIP3    H264281   7.546   8.227   6.266
21466TIP3   OH264282   7.758   9.033   5.852
21466TIP3    H164283   7.677   8.989   5.826
21466TIP3    H264284   7.734   9.083   5.931
21467TIP3   OH264285   8.191   8.381   5.718
21467TIP3    H164286   8.098   8.361   5.727
21467TIP3    H264287   8.198   8.473   5.741
21468TIP3   OH264288   8.262   8.639   5.795
21468TIP3    H164289   8.354   8.622   5.815
21468TIP3    H264290   8.259   8.730   5.766
21469TIP3   OH264291   7.414   9.007   6.493
21469TIP3    H164292   7.442   9.023   6.403
21469TIP3    H264293   7.494   8.984   6.540
21470TIP3   OH264294   7.874   9.217   5.689
21470TIP3    H164295   7.831   9.295   5.721
21470TIP3    H264296   7.846   9.147   5.748
21471TIP3   OH264297   8.687   8.685   5.678
21471TIP3    H164298   8.634   8.626   5.625
21471TIP3    H264299   8.678   8.770   5.634
21472TIP3   OH264300   0.990   0.171   6.103
21472TIP3    H164301   0.982   0.258   6.064
21472TIP3    H264302   0.904   0.154   6.142
21473TIP3   OH264303   7.112   8.697   5.866
21473TIP3    H164304   7.156   8.779   5.888
21473TIP3    H264305   7.031   8.699   5.918
21474TIP3   OH264306   7.659   9.174   6.062
21474TIP3    H164307   7.627   9.263   6.076
21474TIP3    H264308   7.621   9.124   6.135
21475TIP3   OH264309   0.896   0.420   6.008
21475TIP3    H164310   0.814   0.412   6.057
21475TIP3    H264311   0.919   0.512   6.015
21476TIP3   OH264312   8.198   9.138   5.454
21476TIP3    H164313   8.190   9.173   5.542
21476TIP3    H264314   8.107   9.132   5.423
21477TIP3   OH264315   7.484   8.469   7.084
21477TIP3    H164316   7.410   8.529   7.075
21477TIP3    H264317   7.447   8.390   7.123
21478TIP3   OH264318   7.518   9.240   5.467
21478TIP3    H164319   7.540   9.151   5.438
21478TIP3    H264320   7.505   9.232   5.562
21479TIP3   OH264321   0.936   0.020   5.740
21479TIP3    H164322   1.005  -0.002   5.803
21479TIP3    H264323   0.929   0.115   5.745
21480TIP3   OH264324   7.206   8.947   5.945
21480TIP3    H164325   7.138   8.992   5.995
21480TIP3    H264326   7.226   9.006   5.873
21481TIP3   OH264327   8.246   8.293   5.978
21481TIP3    H164328   8.226   8.317   5.888
21481TIP3    H264329   8.280   8.373   6.018
21482TIP3   OH264330   1.200   0.196   5.763
21482TIP3    H164331   1.111   0.225   5.782
21482TIP3    H264332   1.235   0.264   5.704
21483TIP3   OH264333   7.887   8.524   6.101
21483TIP3    H164334   7.956   8.582   6.068
21483TIP3    H264335   7.906   8.515   6.194
21484TIP3   OH264336   8.080   8.202   6.180
21484TIP3    H164337   8.108   8.248   6.258
21484TIP3    H264338   8.140   8.233   6.111
21485TIP3   OH264339   0.939   0.293   5.766
21485TIP3    H164340   0.931   0.359   5.697
21485TIP3    H264341   0.918   0.340   5.847
21486TIP3   OH264342   7.586   8.237   5.994
21486TIP3    H164343   7.574   8.328   6.023
21486TIP3    H264344   7.680   8.222   6.004
21487TIP3   OH264345   7.227   9.127   5.732
21487TIP3    H164346   7.300   9.189   5.742
21487TIP3    H264347   7.257   9.064   5.667
21488TIP3   OH264348   7.134   8.420   5.862
21488TIP3    H164349   7.148   8.514   5.871
21488TIP3    H264350   7.083   8.411   5.781
21489TIP3   OH264351   7.533   8.143   6.729
21489TIP3    H164352   7.505   8.110   6.644
21489TIP3    H264353   7.527   8.067   6.787
21490TIP3   OH264354   0.518   0.137   6.109
21490TIP3    H164355   0.456   0.157   6.179
21490TIP3    H264356   0.481   0.180   6.032
21491TIP3   OH264357   1.167   0.185   5.381
21491TIP3    H164358   1.104   0.120   5.413
21491TIP3    H264359   1.253   0.150   5.406
21492TIP3   OH264360   1.692   0.233   5.416
21492TIP3    H164361   1.753   0.161   5.432
21492TIP3    H264362   1.732   0.284   5.345
21493TIP3   OH264363   7.349   8.938   5.580
21493TIP3    H164364   7.402   8.917   5.657
21493TIP3    H264365   7.412   8.949   5.509
21494TIP3   OH264366   7.807   9.119   5.434
21494TIP3    H164367   7.820   9.134   5.528
21494TIP3    H264368   7.810   9.024   5.425
21495TIP3   OH264369   7.527   8.888   5.791
21495TIP3    H164370   7.505   8.855   5.878
21495TIP3    H264371   7.566   8.813   5.747
21496TIP3   OH264372   7.642   8.698   5.627
21496TIP3    H164373   7.616   8.702   5.535
21496TIP3    H264374   7.737   8.697   5.626
21497TIP3   OH264375   8.432   8.938   5.366
21497TIP3    H164376   8.482   8.920   5.286
21497TIP3    H264377   8.392   9.023   5.351
21498TIP3   OH264378   0.934   0.494   5.574
21498TIP3    H164379   0.996   0.475   5.504
21498TIP3    H264380   0.854   0.523   5.529
21499TIP3   OH264381   6.954   9.124   5.749
21499TIP3    H164382   7.049   9.136   5.742
21499TIP3    H264383   6.937   9.040   5.706
21500TIP3   OH264384   0.303   0.468   6.199
21500TIP3    H164385   0.242   0.410   6.153
21500TIP3    H264386   0.363   0.408   6.244
21501TIP3   OH264387   0.478   0.331   6.368
21501TIP3    H164388   0.466   0.255   6.425
21501TIP3    H264389   0.479   0.406   6.429
21502TIP3   OH264390   8.651   8.902   5.523
21502TIP3    H164391   8.565   8.898   5.480
21502TIP3    H264392   8.670   8.996   5.529
21503TIP3   OH264393   8.511   8.600   5.489
21503TIP3    H164394   8.546   8.631   5.406
21503TIP3    H264395   8.479   8.512   5.470
21504TIP3   OH264396   7.160   9.021   6.732
21504TIP3    H164397   7.145   8.961   6.660
21504TIP3    H264398   7.249   9.053   6.718
21505TIP3   OH264399   8.454   8.348   5.392
21505TIP3    H164400   8.529   8.318   5.443
21505TIP3    H264401   8.380   8.296   5.423
21506TIP3   OH264402   8.534   8.581   5.881
21506TIP3    H164403   8.586   8.504   5.904
21506TIP3    H264404   8.588   8.629   5.819
21507TIP3   OH264405   8.693   8.354   5.939
21507TIP3    H164406   8.757   8.319   6.001
21507TIP3    H264407   8.622   8.289   5.939
21508TIP3   OH264408   7.370   8.365   6.748
21508TIP3    H164409   7.427   8.288   6.751
21508TIP3    H264410   7.431   8.439   6.745
21509TIP3   OH264411   7.127   8.627   6.792
21509TIP3    H164412   7.187   8.626   6.717
21509TIP3    H264413   7.181   8.657   6.865
21510TIP3   OH264414   8.679   8.287   5.543
21510TIP3    H164415   8.728   8.229   5.485
21510TIP3    H264416   8.746   8.327   5.599
21511TIP3   OH264417   7.140   8.143   6.308
21511TIP3    H164418   7.055   8.131   6.351
21511TIP3    H264419   7.121   8.197   6.232
21512TIP3   OH264420   7.350   8.231   7.157
21512TIP3    H164421   7.292   8.207   7.229
21512TIP3    H264422   7.291   8.254   7.085
21513TIP3   OH264423   8.134   8.297   6.436
21513TIP3    H164424   8.105   8.244   6.511
21513TIP3    H264425   8.227   8.275   6.426
21514TIP3   OH264426   7.444   8.036   6.490
21514TIP3    H164427   7.356   8.001   6.503
21514TIP3    H264428   7.499   7.959   6.480
21515TIP3   OH264429   7.263   7.948   6.140
21515TIP3    H164430   7.291   7.997   6.063
21515TIP3    H264431   7.229   8.014   6.200
21516TIP3   OH264432   7.901   8.081   6.364
21516TIP3    H164433   7.956   8.128   6.302
21516TIP3    H264434   7.936   8.106   6.450
21517TIP3   OH264435   8.385   8.201   6.381
21517TIP3    H164436   8.450   8.191   6.311
21517TIP3    H264437   8.405   8.130   6.442
21518TIP3   OH264438   8.487   8.164   5.934
21518TIP3    H164439   8.405   8.211   5.947
21518TIP3    H264440   8.473   8.079   5.976
21519TIP3   OH264441   0.404   0.270   5.906
21519TIP3    H164442   0.321   0.237   5.873
21519TIP3    H264443   0.409   0.360   5.873
21520TIP3   OH264444   7.374   8.076   5.904
21520TIP3    H164445   7.419   8.015   5.846
21520TIP3    H264446   7.443   8.131   5.940
21521TIP3   OH264447   7.862   8.267   6.013
21521TIP3    H164448   7.925   8.219   6.067
21521TIP3    H264449   7.870   8.358   6.041
21522TIP3   OH264450   1.255   0.373   5.567
21522TIP3    H164451   1.285   0.451   5.521
21522TIP3    H264452   1.216   0.319   5.498
21523TIP3   OH264453   0.516   0.255   5.558
21523TIP3    H164454   0.524   0.267   5.652
21523TIP3    H264455   0.598   0.214   5.532
21524TIP3   OH264456   9.539   8.548   5.230
21524TIP3    H164457   9.567   8.595   5.309
21524TIP3    H264458   9.446   8.530   5.244
21525TIP3   OH264459   8.973   8.607   5.646
21525TIP3    H164460   9.014   8.608   5.560
21525TIP3    H264461   8.884   8.639   5.631
21526TIP3   OH264462   9.069   8.657   5.381
21526TIP3    H164463   9.109   8.744   5.382
21526TIP3    H264464   8.975   8.675   5.376
21527TIP3   OH264465   8.876   8.360   5.724
21527TIP3    H164466   8.822   8.368   5.802
21527TIP3    H264467   8.918   8.445   5.715
21528TIP3   OH264468   9.032   8.166   5.602
21528TIP3    H164469   9.067   8.214   5.527
21528TIP3    H264470   8.982   8.231   5.650
21529TIP3   OH264471   9.133   8.306   5.384
21529TIP3    H164472   9.174   8.238   5.330
21529TIP3    H264473   9.189   8.382   5.372
21530TIP3   OH264474   1.178   9.132   7.198
21530TIP3    H164475   1.207   9.049   7.162
21530TIP3    H264476   1.235   9.147   7.274
21531TIP3   OH264477   6.539   0.411   7.661
21531TIP3    H164478   6.513   0.503   7.665
21531TIP3    H264479   6.577   0.402   7.574
21532TIP3   OH264480   5.924   0.330   7.301
21532TIP3    H164481   5.985   0.340   7.374
21532TIP3    H264482   5.978   0.341   7.223
21533TIP3   OH264483   6.100   0.385   7.507
21533TIP3    H164484   6.135   0.315   7.562
21533TIP3    H264485   6.176   0.439   7.485
21534TIP3   OH264486   5.408   0.504   6.899
21534TIP3    H164487   5.433   0.572   6.961
21534TIP3    H264488   5.467   0.517   6.824
21535TIP3   OH264489   2.905   9.115   6.910
21535TIP3    H164490   2.832   9.135   6.969
21535TIP3    H264491   2.914   9.193   6.855
21536TIP3   OH264492   5.458   0.041   6.930
21536TIP3    H164493   5.434   0.038   7.023
21536TIP3    H264494   5.422  -0.039   6.893
21537TIP3   OH264495   5.655   0.442   7.070
21537TIP3    H164496   5.648   0.525   7.022
21537TIP3    H264497   5.716   0.390   7.018
21538TIP3   OH264498   5.125   0.012   6.881
21538TIP3    H164499   5.097   0.042   6.968
21538TIP3    H264500   5.081   0.071   6.820
21539TIP3   OH264501   5.174   0.268   7.224
21539TIP3    H164502   5.263   0.298   7.209
21539TIP3    H264503   5.129   0.283   7.141
21540TIP3   OH264504   5.005   0.264   7.011
21540TIP3    H164505   4.912   0.256   7.030
21540TIP3    H264506   5.010   0.271   6.916
21541TIP3   OH264507   1.679   9.205   7.408
21541TIP3    H164508   1.696   9.274   7.472
21541TIP3    H264509   1.748   9.214   7.343
21542TIP3   OH264510   5.705   0.151   6.949
21542TIP3    H164511   5.618   0.110   6.946
21542TIP3    H264512   5.702   0.219   6.882
21543TIP3   OH264513   5.866   0.405   6.883
21543TIP3    H164514   5.934   0.366   6.938
21543TIP3    H264515   5.892   0.497   6.875
21544TIP3   OH264516   6.283   0.576   6.840
21544TIP3    H164517   6.234   0.496   6.824
21544TIP3    H264518   6.316   0.601   6.754
21545TIP3   OH264519   5.788   0.110   7.205
21545TIP3    H164520   5.761   0.134   7.116
21545TIP3    H264521   5.827   0.190   7.241
21546TIP3   OH264522   5.451   0.324   7.224
21546TIP3    H164523   5.533   0.343   7.179
21546TIP3    H264524   5.457   0.374   7.306
21547TIP3   OH264525   5.610   0.001   7.381
21547TIP3    H164526   5.639   0.042   7.462
21547TIP3    H264527   5.669   0.035   7.314
21548TIP3   OH264528   5.119   0.000   7.184
21548TIP3    H164529   5.128   0.094   7.202
21548TIP3    H264530   5.209  -0.033   7.184
21549TIP3   OH264531   5.140   0.529   6.869
21549TIP3    H164532   5.122   0.529   6.775
21549TIP3    H264533   5.233   0.508   6.875
21550TIP3   OH264534   6.162   0.380   6.706
21550TIP3    H164535   6.158   0.413   6.616
21550TIP3    H264536   6.111   0.299   6.704
21551TIP3   OH264537   5.966   0.755   7.191
21551TIP3    H164538   5.907   0.685   7.220
21551TIP3    H264539   5.972   0.814   7.266
21552TIP3   OH264540   5.978   0.178   6.634
21552TIP3    H164541   6.055   0.129   6.664
21552TIP3    H264542   5.905   0.118   6.647
21553TIP3   OH264543   6.065   0.357   7.068
21553TIP3    H164544   6.127   0.285   7.061
21553TIP3    H264545   6.119   0.434   7.082
21554TIP3   OH264546   6.221   0.136   7.089
21554TIP3    H164547   6.264   0.128   7.174
21554TIP3    H264548   6.151   0.071   7.092
21555TIP3   OH264549   6.216   0.083   6.736
21555TIP3    H164550   6.264   0.026   6.675
21555TIP3    H264551   6.284   0.134   6.780
21556TIP3   OH264552   5.718   0.111   7.604
21556TIP3    H164553   5.715   0.141   7.694
21556TIP3    H264554   5.811   0.100   7.584
21557TIP3   OH264555   6.236   0.099   7.589
21557TIP3    H164556   6.277   0.121   7.505
21557TIP3    H264557   6.146   0.077   7.567
21558TIP3   OH264558   6.353   0.124   7.336
21558TIP3    H164559   6.422   0.063   7.308
21558TIP3    H264560   6.386   0.210   7.311
21559TIP3   OH264561   1.533   8.998   7.308
21559TIP3    H164562   1.550   9.022   7.217
21559TIP3    H264563   1.574   9.067   7.360
21560TIP3   OH264564   2.145   9.126   7.541
21560TIP3    H164565   2.210   9.164   7.483
21560TIP3    H264566   2.142   9.185   7.616
21561TIP3   OH264567   2.709   9.257   7.540
21561TIP3    H164568   2.713   9.213   7.456
21561TIP3    H264569   2.695   9.187   7.604
21562TIP3   OH264570   2.737   9.201   7.111
21562TIP3    H164571   2.661   9.253   7.138
21562TIP3    H264572   2.722   9.115   7.150
21563TIP3   OH264573   1.636   9.105   7.066
21563TIP3    H164574   1.679   9.044   7.006
21563TIP3    H264575   1.708   9.149   7.111
21564TIP3   OH264576   5.403   0.051   7.197
21564TIP3    H164577   5.458   0.011   7.264
21564TIP3    H264578   5.411   0.145   7.213
21565TIP3   OH264579   6.491   0.632   7.038
21565TIP3    H164580   6.481   0.675   6.953
21565TIP3    H264581   6.407   0.588   7.052
21566TIP3   OH264582   8.275   0.662   7.165
21566TIP3    H164583   8.310   0.735   7.216
21566TIP3    H264584   8.321   0.667   7.081
21567TIP3   OH264585   7.666   0.807   7.171
21567TIP3    H164586   7.699   0.727   7.212
21567TIP3    H264587   7.652   0.783   7.080
21568TIP3   OH264588   7.033   0.445   7.175
21568TIP3    H164589   7.031   0.509   7.103
21568TIP3    H264590   6.986   0.369   7.140
21569TIP3   OH264591   7.733   0.580   6.749
21569TIP3    H164592   7.795   0.562   6.819
21569TIP3    H264593   7.786   0.581   6.669
21570TIP3   OH264594   6.627   0.687   7.270
21570TIP3    H164595   6.698   0.625   7.253
21570TIP3    H264596   6.565   0.672   7.199
21571TIP3   OH264597   7.142   0.986   7.013
21571TIP3    H164598   7.215   0.935   6.978
21571TIP3    H264599   7.064   0.945   6.976
21572TIP3   OH264600   8.402   0.868   7.295
21572TIP3    H164601   8.395   0.926   7.220
21572TIP3    H264602   8.424   0.926   7.369
21573TIP3   OH264603   6.982   0.473   7.605
21573TIP3    H164604   6.937   0.515   7.532
21573TIP3    H264605   6.912   0.452   7.667
21574TIP3   OH264606   7.872   0.567   6.978
21574TIP3    H164607   7.833   0.531   7.058
21574TIP3    H264608   7.931   0.636   7.008
21575TIP3   OH264609   6.883   0.576   7.367
21575TIP3    H164610   6.922   0.664   7.372
21575TIP3    H264611   6.936   0.531   7.302
21576TIP3   OH264612   8.076   0.532   7.315
21576TIP3    H164613   7.989   0.549   7.280
21576TIP3    H264614   8.136   0.575   7.254
21577TIP3   OH264615   7.360   0.225   7.312
21577TIP3    H164616   7.330   0.151   7.259
21577TIP3    H264617   7.281   0.256   7.357
21578TIP3   OH264618   7.287   0.691   6.433
21578TIP3    H164619   7.218   0.740   6.388
21578TIP3    H264620   7.340   0.654   6.362
21579TIP3   OH264621   7.979   1.172   7.305
21579TIP3    H164622   7.959   1.257   7.344
21579TIP3    H264623   7.899   1.147   7.259
21580TIP3   OH264624   7.977   0.147   6.387
21580TIP3    H164625   7.903   0.164   6.445
21580TIP3    H264626   7.987   0.228   6.336
21581TIP3   OH264627   8.129   1.055   7.567
21581TIP3    H164628   8.033   1.060   7.561
21581TIP3    H264629   8.148   0.962   7.577
21582TIP3   OH264630   7.115   0.285   7.440
21582TIP3    H164631   7.034   0.253   7.401
21582TIP3    H264632   7.090   0.364   7.487
21583TIP3   OH264633   7.643   0.422   7.635
21583TIP3    H164634   7.718   0.390   7.685
21583TIP3    H264635   7.566   0.387   7.682
21584TIP3   OH264636   7.896   0.800   7.596
21584TIP3    H164637   7.848   0.779   7.676
21584TIP3    H264638   7.867   0.888   7.573
21585TIP3   OH264639   7.255   0.320   6.399
21585TIP3    H164640   7.216   0.324   6.487
21585TIP3    H264641   7.221   0.239   6.362
21586TIP3   OH264642   7.003   0.825   7.405
21586TIP3    H164643   6.969   0.850   7.491
21586TIP3    H264644   7.003   0.906   7.355
21587TIP3   OH264645   7.000   0.578   6.942
21587TIP3    H164646   6.910   0.557   6.968
21587TIP3    H264647   7.001   0.569   6.847
21588TIP3   OH264648   7.419   0.707   6.677
21588TIP3    H164649   7.360   0.779   6.697
21588TIP3    H264650   7.400   0.685   6.586
21589TIP3   OH264651   7.590   0.733   6.918
21589TIP3    H164652   7.513   0.744   6.862
21589TIP3    H264653   7.639   0.662   6.877
21590TIP3   OH264654   6.892   0.276   6.453
21590TIP3    H164655   6.950   0.297   6.526
21590TIP3    H264656   6.875   0.360   6.410
21591TIP3   OH264657   6.499   0.331   7.225
21591TIP3    H164658   6.548   0.363   7.301
21591TIP3    H264659   6.547   0.363   7.149
21592TIP3   OH264660   7.675   0.961   7.415
21592TIP3    H164661   7.686   0.910   7.336
21592TIP3    H264662   7.588   0.937   7.448
21593TIP3   OH264663   7.274   0.418   7.031
21593TIP3    H164664   7.200   0.412   7.092
21593TIP3    H264665   7.326   0.492   7.063
21594TIP3   OH264666   6.743   0.523   7.054
21594TIP3    H164667   6.660   0.571   7.044
21594TIP3    H264668   6.737   0.452   6.990
21595TIP3   OH264669   7.028   0.597   6.671
21595TIP3    H164670   7.057   0.511   6.640
21595TIP3    H264671   6.958   0.622   6.610
21596TIP3   OH264672   7.776   0.548   7.243
21596TIP3    H164673   7.755   0.576   7.332
21596TIP3    H264674   7.708   0.485   7.220
21597TIP3   OH264675   7.377   0.658   7.089
21597TIP3    H164676   7.467   0.689   7.083
21597TIP3    H264677   7.337   0.712   7.158
21598TIP3   OH264678   6.916   0.255   7.010
21598TIP3    H164679   6.858   0.194   7.056
21598TIP3    H264680   6.868   0.277   6.930
21599TIP3   OH264681   7.275   0.706   7.496
21599TIP3    H164682   7.205   0.771   7.493
21599TIP3    H264683   7.354   0.757   7.518
21600TIP3   OH264684   7.516   0.403   6.446
21600TIP3    H164685   7.424   0.391   6.425
21600TIP3    H264686   7.535   0.494   6.422
21601TIP3   OH264687   7.632   0.655   6.384
21601TIP3    H164688   7.715   0.630   6.426
21601TIP3    H264689   7.646   0.746   6.357
21602TIP3   OH264690   8.113   0.821   6.293
21602TIP3    H164691   8.039   0.764   6.274
21602TIP3    H264692   8.075   0.896   6.339
21603TIP3   OH264693   7.695   0.643   7.485
21603TIP3    H164694   7.772   0.681   7.526
21603TIP3    H264695   7.675   0.566   7.538
21604TIP3   OH264696   7.590   0.349   6.703
21604TIP3    H164697   7.552   0.364   6.616
21604TIP3    H264698   7.627   0.434   6.728
21605TIP3   OH264699   7.293   0.470   6.758
21605TIP3    H164700   7.337   0.554   6.741
21605TIP3    H264701   7.277   0.471   6.852
21606TIP3   OH264702   7.502   0.825   7.604
21606TIP3    H164703   7.481   0.804   7.695
21606TIP3    H264704   7.568   0.760   7.579
21607TIP3   OH264705   7.421   0.233   6.890
21607TIP3    H164706   7.376   0.305   6.934
21607TIP3    H264707   7.474   0.276   6.822
21608TIP3   OH264708   8.159   0.780   7.538
21608TIP3    H164709   8.069   0.762   7.567
21608TIP3    H264710   8.152   0.794   7.444
21609TIP3   OH264711   7.820   0.902   6.908
21609TIP3    H164712   7.746   0.845   6.889
21609TIP3    H264713   7.884   0.846   6.952
21610TIP3   OH264714   6.441   0.385   6.430
21610TIP3    H164715   6.503   0.458   6.430
21610TIP3    H264716   6.475   0.324   6.495
21611TIP3   OH264717   6.855   0.196   7.384
21611TIP3    H164718   6.824   0.163   7.300
21611TIP3    H264719   6.850   0.120   7.443
21612TIP3   OH264720   7.043   0.769   6.321
21612TIP3    H164721   7.011   0.814   6.243
21612TIP3    H264722   6.968   0.766   6.381
21613TIP3   OH264723   7.330   0.763   7.825
21613TIP3    H164724   7.299   0.676   7.801
21613TIP3    H264725   7.257   0.821   7.804
21614TIP3   OH264726   7.236   0.532   7.694
21614TIP3    H164727   7.258   0.580   7.615
21614TIP3    H264728   7.145   0.505   7.682
21615TIP3   OH264729   7.404   0.323   7.741
21615TIP3    H164730   7.349   0.400   7.728
21615TIP3    H264731   7.346   0.249   7.721
21616TIP3   OH264732   7.749   0.758   7.813
21616TIP3    H164733   7.702   0.692   7.865
21616TIP3    H264734   7.786   0.817   7.879
21617TIP3   OH264735   1.454   5.375  -0.007
21617TIP3    H164736   1.447   5.284  -0.034
21617TIP3    H264737   1.390   5.383   0.064
21618TIP3   OH264738   7.506   0.353   7.996
21618TIP3    H164739   7.545   0.272   8.030
21618TIP3    H264740   7.476   0.330   7.908
21619TIP3   OH264741   1.095   5.219  -0.002
21619TIP3    H164742   1.056   5.132  -0.008
21619TIP3    H264743   1.022   5.277   0.019
21620TIP3   OH264744   7.922   0.655   6.220
21620TIP3    H164745   7.920   0.676   6.126
21620TIP3    H264746   7.883   0.568   6.225
21621TIP3   OH264747   7.797   1.089   6.662
21621TIP3    H164748   7.771   0.998   6.673
21621TIP3    H264749   7.807   1.123   6.751
21622TIP3   OH264750   8.221   1.319   7.608
21622TIP3    H164751   8.163   1.253   7.570
21622TIP3    H264752   8.245   1.375   7.534
21623TIP3   OH264753   7.775   0.436   6.118
21623TIP3    H164754   7.857   0.392   6.141
21623TIP3    H264755   7.707   0.372   6.136
21624TIP3   OH264756   7.869   0.607   6.518
21624TIP3    H164757   7.930   0.534   6.522
21624TIP3    H264758   7.923   0.685   6.531
21625TIP3   OH264759   8.014   0.781   7.063
21625TIP3    H164760   8.088   0.763   7.004
21625TIP3    H264761   8.055   0.796   7.148
21626TIP3   OH264762   8.096   0.903   7.296
21626TIP3    H164763   8.035   0.976   7.311
21626TIP3    H264764   8.181   0.945   7.284
21627TIP3   OH264765   8.588   0.620   7.812
21627TIP3    H164766   8.644   0.553   7.772
21627TIP3    H264767   8.532   0.651   7.741
21628TIP3   OH264768   8.020   0.390   6.589
21628TIP3    H164769   8.059   0.384   6.676
21628TIP3    H264770   7.950   0.324   6.590
21629TIP3   OH264771   6.678   0.401   7.423
21629TIP3    H164772   6.736   0.324   7.417
21629TIP3    H264773   6.737   0.476   7.409
21630TIP3   OH264774   6.540   0.677   7.530
21630TIP3    H164775   6.581   0.676   7.444
21630TIP3    H264776   6.526   0.770   7.549
21631TIP3   OH264777   8.405   0.700   7.619
21631TIP3    H164778   8.325   0.745   7.591
21631TIP3    H264779   8.399   0.613   7.578
21632TIP3   OH264780   8.024   0.362   6.218
21632TIP3    H164781   8.068   0.300   6.159
21632TIP3    H264782   8.089   0.431   6.232
21633TIP3   OH264783   6.435   0.188   6.874
21633TIP3    H164784   6.395   0.205   6.959
21633TIP3    H264785   6.504   0.254   6.865
21634TIP3   OH264786   6.675   0.200   7.770
21634TIP3    H164787   6.635   0.180   7.855
21634TIP3    H264788   6.624   0.274   7.736
21635TIP3   OH264789   8.296   0.470   7.503
21635TIP3    H164790   8.216   0.479   7.451
21635TIP3    H264791   8.320   0.377   7.495
21636TIP3   OH264792   7.561   0.389   7.191
21636TIP3    H164793   7.488   0.337   7.225
21636TIP3    H264794   7.598   0.336   7.120
21637TIP3   OH264795   8.024   0.304   7.044
21637TIP3    H164796   8.065   0.356   6.975
21637TIP3    H264797   7.930   0.319   7.031
21638TIP3   OH264798   8.168   0.378   6.822
21638TIP3    H164799   8.226   0.307   6.793
21638TIP3    H264800   8.218   0.458   6.807
21639TIP3   OH264801   6.756   0.081   7.154
21639TIP3    H164802   6.667   0.050   7.168
21639TIP3    H264803   6.808   0.000   7.147
21640TIP3   OH264804   6.570  -0.026   6.760
21640TIP3    H164805   6.599   0.018   6.680
21640TIP3    H264806   6.524   0.042   6.809
21641TIP3   OH264807   7.224   0.121   7.061
21641TIP3    H164808   7.297   0.152   7.007
21641TIP3    H264809   7.155   0.187   7.047
21642TIP3   OH264810   7.745   0.282   7.003
21642TIP3    H164811   7.722   0.246   6.917
21642TIP3    H264812   7.745   0.206   7.062
21643TIP3   OH264813   7.806   0.214   6.593
21643TIP3    H164814   7.729   0.263   6.622
21643TIP3    H264815   7.795   0.128   6.632
21644TIP3   OH264816   6.644   0.178   6.551
21644TIP3    H164817   6.729   0.183   6.509
21644TIP3    H264818   6.654   0.229   6.632
21645TIP3   OH264819   7.113   0.313   6.635
21645TIP3    H164820   7.120   0.222   6.663
21645TIP3    H264821   7.177   0.359   6.688
21646TIP3   OH264822   0.459   4.931   0.009
21646TIP3    H164823   0.424   4.880   0.082
21646TIP3    H264824   0.546   4.959   0.039
21647TIP3   OH264825   0.715   4.965   0.109
21647TIP3    H164826   0.792   4.986   0.055
21647TIP3    H264827   0.744   4.893   0.165
21648TIP3   OH264828   8.002   0.483   7.958
21648TIP3    H164829   8.045   0.446   8.035
21648TIP3    H264830   8.072   0.492   7.894
21649TIP3   OH264831   8.297   0.843   6.549
21649TIP3    H164832   8.305   0.894   6.468
21649TIP3    H264833   8.203   0.826   6.556
21650TIP3   OH264834   9.436   1.097   6.707
21650TIP3    H164835   9.484   1.015   6.692
21650TIP3    H264836   9.473   1.158   6.642
21651TIP3   OH264837   8.842   0.678   6.651
21651TIP3    H164838   8.837   0.749   6.587
21651TIP3    H264839   8.792   0.606   6.611
21652TIP3   OH264840   9.526   0.881   6.230
21652TIP3    H164841   9.586   0.868   6.304
21652TIP3    H264842   9.584   0.889   6.154
21653TIP3   OH264843   8.427   0.934   6.786
21653TIP3    H164844   8.505   0.879   6.783
21653TIP3    H264845   8.379   0.912   6.705
21654TIP3   OH264846   8.907   1.238   6.515
21654TIP3    H164847   8.990   1.200   6.484
21654TIP3    H264848   8.839   1.187   6.471
21655TIP3   OH264849   8.829   0.744   7.075
21655TIP3    H164850   8.769   0.766   7.004
21655TIP3    H264851   8.775   0.749   7.154
21656TIP3   OH264852   9.670   0.868   6.460
21656TIP3    H164853   9.625   0.851   6.543
21656TIP3    H264854   9.762   0.876   6.484
21657TIP3   OH264855   8.678   0.806   6.854
21657TIP3    H164856   8.724   0.890   6.850
21657TIP3    H264857   8.715   0.755   6.781
21658TIP3   OH264858   9.140   0.448   6.782
21658TIP3    H164859   9.137   0.357   6.811
21658TIP3    H264860   9.066   0.490   6.824
21659TIP3   OH264861   9.007   1.025   5.872
21659TIP3    H164862   9.033   1.087   5.940
21659TIP3    H264863   9.073   1.035   5.803
21660TIP3   OH264864   9.771   0.409   5.882
21660TIP3    H164865   9.694   0.430   5.935
21660TIP3    H264866   9.784   0.486   5.828
21661TIP3   OH264867   8.907   0.524   6.921
21661TIP3    H164868   8.823   0.510   6.877
21661TIP3    H264869   8.897   0.609   6.963
21662TIP3   OH264870   9.051   0.585   5.899
21662TIP3    H164871   9.018   0.578   5.989
21662TIP3    H264872   9.029   0.501   5.859
21663TIP3   OH264873   8.798   1.049   6.899
21663TIP3    H164874   8.756   1.048   6.985
21663TIP3    H264875   8.779   1.136   6.864
21664TIP3   OH264876   8.812   0.854   6.446
21664TIP3    H164877   8.722   0.858   6.480
21664TIP3    H264878   8.801   0.848   6.351
21665TIP3   OH264879   9.246   0.967   6.134
21665TIP3    H164880   9.191   1.043   6.113
21665TIP3    H264881   9.299   0.954   6.055
21666TIP3   OH264882   9.349   1.034   6.398
21666TIP3    H164883   9.301   1.006   6.320
21666TIP3    H264884   9.434   0.991   6.390
21667TIP3   OH264885   8.712   1.036   7.160
21667TIP3    H164886   8.645   1.086   7.207
21667TIP3    H264887   8.715   0.951   7.205
21668TIP3   OH264888   8.692   0.503   5.836
21668TIP3    H164889   8.667   0.583   5.884
21668TIP3    H264890   8.654   0.515   5.749
21669TIP3   OH264891   8.337   0.559   6.705
21669TIP3    H164892   8.291   0.641   6.688
21669TIP3    H264893   8.339   0.514   6.621
21670TIP3   OH264894   8.217   0.566   6.252
21670TIP3    H164895   8.232   0.578   6.158
21670TIP3    H264896   8.191   0.653   6.283
21671TIP3   OH264897   9.091   0.707   6.498
21671TIP3    H164898   9.016   0.681   6.552
21671TIP3    H264899   9.135   0.774   6.549
21672TIP3   OH264900   8.570   0.792   6.570
21672TIP3    H164901   8.477   0.800   6.548
21672TIP3    H264902   8.594   0.704   6.540
21673TIP3   OH264903   8.825   0.860   6.159
21673TIP3    H164904   8.908   0.813   6.171
21673TIP3    H264905   8.780   0.811   6.090
21674TIP3   OH264906   9.531   0.836   6.697
21674TIP3    H164907   9.566   0.806   6.781
21674TIP3    H264908   9.460   0.774   6.678
21675TIP3   OH264909   8.634   0.739   5.991
21675TIP3    H164910   8.550   0.775   6.020
21675TIP3    H264911   8.642   0.768   5.900
21676TIP3   OH264912   9.182   0.936   6.620
21676TIP3    H164913   9.273   0.966   6.616
21676TIP3    H264914   9.139   0.998   6.680
21677TIP3   OH264915   8.655   0.548   6.478
21677TIP3    H164916   8.619   0.469   6.517
21677TIP3    H264917   8.657   0.530   6.384
21678TIP3   OH264918   9.085   1.018   7.007
21678TIP3    H164919   8.993   0.997   7.018
21678TIP3    H264920   9.091   1.056   6.919
21679TIP3   OH264921   9.314   0.686   5.911
21679TIP3    H164922   9.220   0.674   5.899
21679TIP3    H264923   9.331   0.775   5.880
21680TIP3   OH264924   9.427   0.939   5.864
21680TIP3    H164925   9.508   0.925   5.914
21680TIP3    H264926   9.458   0.961   5.776
21681TIP3   OH264927   9.800   1.035   5.800
21681TIP3    H164928   9.734   1.043   5.731
21681TIP3    H264929   9.850   1.116   5.796
21682TIP3   OH264930   8.671   0.784   7.297
21682TIP3    H164931   8.576   0.792   7.300
21682TIP3    H264932   8.693   0.728   7.372
21683TIP3   OH264933   9.383   0.643   6.173
21683TIP3    H164934   9.356   0.658   6.082
21683TIP3    H264935   9.424   0.726   6.199
21684TIP3   OH264936   9.076   0.768   6.225
21684TIP3    H164937   9.143   0.831   6.199
21684TIP3    H264938   9.083   0.765   6.321
21685TIP3   OH264939   9.204   0.512   6.340
21685TIP3    H164940   9.174   0.585   6.394
21685TIP3    H264941   9.269   0.552   6.282
21686TIP3   OH264942   8.673   0.533   6.185
21686TIP3    H164943   8.653   0.609   6.130
21686TIP3    H264944   8.767   0.521   6.177
21687TIP3   OH264945   8.209   0.644   5.993
21687TIP3    H164946   8.144   0.708   5.966
21687TIP3    H264947   8.207   0.577   5.925
21688TIP3   OH264948   8.637   0.466   6.856
21688TIP3    H164949   8.605   0.438   6.770
21688TIP3    H264950   8.627   0.389   6.912
21689TIP3   OH264951   8.740   1.052   5.809
21689TIP3    H164952   8.739   1.033   5.715
21689TIP3    H264953   8.833   1.055   5.832
21690TIP3   OH264954   9.088   0.785   7.162
21690TIP3    H164955   9.112   0.867   7.119
21690TIP3    H264956   8.997   0.770   7.136
21691TIP3   OH264957   9.197   0.537   7.154
21691TIP3    H164958   9.171   0.628   7.164
21691TIP3    H264959   9.116   0.487   7.166
21692TIP3   OH264960   9.589   0.990   5.620
21692TIP3    H164961   9.622   1.022   5.536
21692TIP3    H264962   9.588   0.895   5.611
21693TIP3   OH264963   9.757   1.214   6.138
21693TIP3    H164964   9.666   1.191   6.118
21693TIP3    H264965   9.752   1.255   6.224
21694TIP3   OH264966   9.582   0.716   5.609
21694TIP3    H164967   9.664   0.678   5.641
21694TIP3    H264968   9.518   0.645   5.616
21695TIP3   OH264969   9.666   0.905   5.998
21695TIP3    H164970   9.717   0.825   6.012
21695TIP3    H264971   9.719   0.958   5.939
21696TIP3   OH264972   8.497   0.961   7.543
21696TIP3    H164973   8.591   0.981   7.543
21696TIP3    H264974   8.492   0.876   7.587
21697TIP3   OH264975   9.786   0.670   6.068
21697TIP3    H164976   9.828   0.664   6.154
21697TIP3    H264977   9.720   0.601   6.069
21698TIP3   OH264978   8.451   0.676   6.953
21698TIP3    H164979   8.463   0.597   6.900
21698TIP3    H264980   8.530   0.727   6.938
21699TIP3   OH264981   8.329   0.976   7.050
21699TIP3    H164982   8.374   0.963   6.966
21699TIP3    H264983   8.237   0.989   7.026
21700TIP3   OH264984   0.022   0.616   5.704
21700TIP3    H164985   0.065   0.551   5.648
21700TIP3    H264986   0.078   0.693   5.699
21701TIP3   OH264987   8.271   0.419   6.470
21701TIP3    H164988   8.184   0.399   6.503
21701TIP3    H264989   8.256   0.477   6.395
21702TIP3   OH264990   8.461   0.486   7.273
21702TIP3    H164991   8.415   0.486   7.357
21702TIP3    H264992   8.407   0.540   7.215
21703TIP3   OH264993   9.350   0.634   6.662
21703TIP3    H164994   9.276   0.576   6.682
21703TIP3    H264995   9.403   0.585   6.599
21704TIP3   OH264996   9.818   0.576   6.537
21704TIP3    H164997   9.852   0.622   6.461
21704TIP3    H264998   9.723   0.580   6.527
21705TIP3   OH264999   0.138   0.660   6.303
21705TIP3    H165000   0.197   0.591   6.273
21705TIP3    H265001   0.178   0.741   6.273
21706TIP3   OH265002   8.557   0.334   6.622
21706TIP3    H165003   8.468   0.303   6.637
21706TIP3    H265004   8.612   0.256   6.630
21707TIP3   OH265005   8.360   0.233   6.272
21707TIP3    H165006   8.395   0.283   6.198
21707TIP3    H265007   8.342   0.299   6.339
21708TIP3   OH265008   9.031   0.392   6.529
21708TIP3    H165009   9.089   0.429   6.462
21708TIP3    H265010   9.069   0.421   6.612
21709TIP3   OH265011   9.544   0.505   6.506
21709TIP3    H165012   9.566   0.464   6.422
21709TIP3    H265013   9.547   0.433   6.569
21710TIP3   OH265014   9.587   0.479   6.078
21710TIP3    H165015   9.513   0.531   6.108
21710TIP3    H265016   9.574   0.393   6.115
21711TIP3   OH265017   8.482   0.374   6.054
21711TIP3    H165018   8.533   0.327   5.989
21711TIP3    H265019   8.546   0.426   6.102
21712TIP3   OH265020   8.946   0.537   6.152
21712TIP3    H165021   8.980   0.451   6.176
21712TIP3    H265022   9.005   0.599   6.195
21713TIP3   OH265023   8.761   0.609   7.510
21713TIP3    H165024   8.741   0.539   7.572
21713TIP3    H265025   8.845   0.644   7.540
21714TIP3   OH265026   0.189   1.196   5.953
21714TIP3    H165027   0.142   1.267   5.997
21714TIP3    H265028   0.158   1.116   5.996
21715TIP3   OH265029   1.087   0.756   5.412
21715TIP3    H165030   1.123   0.724   5.495
21715TIP3    H265031   1.057   0.677   5.367
21716TIP3   OH265032   0.661   0.817   5.341
21716TIP3    H165033   0.660   0.815   5.437
21716TIP3    H265034   0.591   0.878   5.317
21717TIP3   OH265035   0.281   0.844   6.162
21717TIP3    H165036   0.373   0.873   6.165
21717TIP3    H265037   0.274   0.796   6.079
21718TIP3   OH265038   0.173   0.847   5.706
21718TIP3    H165039   0.218   0.893   5.635
21718TIP3    H265040   0.114   0.911   5.743
21719TIP3   OH265041   0.573   1.048   5.526
21719TIP3    H165042   0.494   1.078   5.481
21719TIP3    H265043   0.646   1.085   5.475
21720TIP3   OH265044   0.645   0.803   5.617
21720TIP3    H165045   0.602   0.888   5.610
21720TIP3    H265046   0.735   0.824   5.643
21721TIP3   OH265047   0.234   1.037   5.511
21721TIP3    H165048   0.294   1.107   5.486
21721TIP3    H265049   0.176   1.027   5.435
21722TIP3   OH265050   0.756   1.180   5.378
21722TIP3    H165051   0.712   1.207   5.297
21722TIP3    H265052   0.840   1.145   5.349
21723TIP3   OH265053   0.229   0.701   5.931
21723TIP3    H165054   0.140   0.683   5.960
21723TIP3    H265055   0.219   0.756   5.854
21724TIP3   OH265056   0.526   0.624   6.117
21724TIP3    H165057   0.437   0.589   6.124
21724TIP3    H265058   0.581   0.548   6.100
21725TIP3   OH265059   0.352   0.503   5.777
21725TIP3    H165060   0.376   0.551   5.698
21725TIP3    H265061   0.319   0.571   5.836
21726TIP3   OH265062   0.436   0.636   5.550
21726TIP3    H165063   0.475   0.574   5.488
21726TIP3    H265064   0.509   0.689   5.581
21727TIP3   OH265065   0.269   6.799   1.499
21727TIP3    H165066   0.275   6.894   1.488
21727TIP3    H265067   0.357   6.767   1.478
21728TIP3   OH265068   9.532   6.928   1.619
21728TIP3    H165069   9.603   6.868   1.594
21728TIP3    H265070   9.555   6.957   1.707
21729TIP3   OH265071   0.002   6.199   1.692
21729TIP3    H165072  -0.026   6.171   1.605
21729TIP3    H265073   0.092   6.168   1.700
21730TIP3   OH265074   0.182   6.846   1.758
21730TIP3    H165075   0.207   6.769   1.808
21730TIP3    H265076   0.227   6.836   1.673
21731TIP3   OH265077   0.289   7.072   1.513
21731TIP3    H165078   0.339   7.150   1.490
21731TIP3    H265079   0.206   7.105   1.547
21732TIP3   OH265080   9.378   6.633   1.660
21732TIP3    H165081   9.337   6.709   1.702
21732TIP3    H265082   9.316   6.562   1.674
21733TIP3   OH265083   9.752   6.781   1.533
21733TIP3    H165084   9.827   6.806   1.588
21733TIP3    H265085   9.782   6.796   1.443
21734TIP3   OH265086   0.325   6.329   1.541
21734TIP3    H165087   0.277   6.262   1.492
21734TIP3    H265088   0.265   6.403   1.546
21735TIP3   OH265089   0.226   7.115   1.832
21735TIP3    H165090   0.217   7.020   1.823
21735TIP3    H265091   0.174   7.151   1.761
21736TIP3   OH265092   1.076   6.809   1.210
21736TIP3    H165093   1.120   6.735   1.251
21736TIP3    H265094   1.064   6.872   1.281
21737TIP3   OH265095   1.019   7.019   1.374
21737TIP3    H165096   1.004   7.111   1.349
21737TIP3    H265097   1.049   7.024   1.465
21738TIP3   OH265098   0.789   6.731   1.369
21738TIP3    H165099   0.815   6.806   1.422
21738TIP3    H265100   0.787   6.764   1.279
21739TIP3   OH265101   1.210   6.999   1.062
21739TIP3    H165102   1.155   6.936   1.109
21739TIP3    H265103   1.299   6.982   1.095
21740TIP3   OH265104   1.015   7.286   1.302
21740TIP3    H165105   1.107   7.291   1.328
21740TIP3    H265106   1.011   7.333   1.218
21741TIP3   OH265107   0.518   6.699   1.429
21741TIP3    H165108   0.614   6.708   1.429
21741TIP3    H265109   0.504   6.605   1.414
21742TIP3   OH265110   0.427   7.271   1.928
21742TIP3    H165111   0.355   7.221   1.890
21742TIP3    H265112   0.387   7.320   2.000
21743TIP3   OH265113   0.563   7.037   1.580
21743TIP3    H165114   0.468   7.026   1.580
21743TIP3    H265115   0.576   7.130   1.601
21744TIP3   OH265116   1.321   7.248   1.144
21744TIP3    H165117   1.296   7.238   1.236
21744TIP3    H265118   1.266   7.185   1.098
21745TIP3   OH265119   0.577   7.062   1.299
21745TIP3    H165120   0.577   7.063   1.395
21745TIP3    H265121   0.659   7.018   1.275
21746TIP3   OH265122   7.999   8.427   1.643
21746TIP3    H165123   8.012   8.471   1.559
21746TIP3    H265124   8.068   8.361   1.646
21747TIP3   OH265125   7.899   8.726   1.673
21747TIP3    H165126   7.977   8.773   1.645
21747TIP3    H265127   7.872   8.770   1.754
21748TIP3   OH265128   7.807   5.390   0.425
21748TIP3    H165129   7.795   5.464   0.366
21748TIP3    H265130   7.721   5.349   0.429
21749TIP3   OH265131   9.651   8.472   1.988
21749TIP3    H165132   9.615   8.453   2.074
21749TIP3    H265133   9.741   8.500   2.006
21750TIP3   OH265134   9.275   8.947   2.028
21750TIP3    H165135   9.284   8.876   1.965
21750TIP3    H265136   9.333   8.923   2.101
21751TIP3   OH265137   9.178   8.348   1.824
21751TIP3    H165138   9.178   8.353   1.729
21751TIP3    H265139   9.159   8.437   1.853
21752TIP3   OH265140   9.350   8.758   1.839
21752TIP3    H165141   9.396   8.676   1.818
21752TIP3    H265142   9.408   8.827   1.805
21753TIP3   OH265143   9.494   8.538   1.767
21753TIP3    H165144   9.512   8.472   1.700
21753TIP3    H265145   9.550   8.514   1.841
21754TIP3   OH265146   9.169   8.014   1.761
21754TIP3    H165147   9.143   8.106   1.759
21754TIP3    H265148   9.235   8.006   1.692
21755TIP3   OH265149   9.172   7.832   1.466
21755TIP3    H165150   9.233   7.876   1.524
21755TIP3    H265151   9.226   7.775   1.411
21756TIP3   OH265152   9.531   8.134   1.751
21756TIP3    H165153   9.482   8.167   1.826
21756TIP3    H265154   9.611   8.098   1.788
21757TIP3   OH265155   9.386   7.970   1.584
21757TIP3    H165156   9.439   8.033   1.632
21757TIP3    H265157   9.410   7.983   1.492
21758TIP3   OH265158   9.110   8.621   1.842
21758TIP3    H165159   9.190   8.673   1.847
21758TIP3    H265160   9.054   8.670   1.782
21759TIP3   OH265161   0.070   7.209   1.624
21759TIP3    H165162  -0.001   7.238   1.681
21759TIP3    H265163   0.086   7.284   1.566
21760TIP3   OH265164   9.707   8.586   1.185
21760TIP3    H165165   9.701   8.678   1.161
21760TIP3    H265166   9.797   8.561   1.161
21761TIP3   OH265167   9.015   8.871   1.653
21761TIP3    H165168   8.970   8.855   1.570
21761TIP3    H265169   8.979   8.955   1.683
21762TIP3   OH265170   9.211   8.808   1.283
21762TIP3    H165171   9.260   8.733   1.250
21762TIP3    H265172   9.245   8.821   1.372
21763TIP3   OH265173   9.270   8.853   1.549
21763TIP3    H165174   9.187   8.849   1.597
21763TIP3    H265175   9.337   8.843   1.617
21764TIP3   OH265176   9.454   8.002   1.323
21764TIP3    H165177   9.405   7.982   1.243
21764TIP3    H265178   9.538   8.036   1.292
21765TIP3   OH265179   9.165   7.481   1.634
21765TIP3    H165180   9.129   7.545   1.695
21765TIP3    H265181   9.113   7.402   1.649
21766TIP3   OH265182   9.289   7.804   1.909
21766TIP3    H165183   9.237   7.871   1.865
21766TIP3    H265184   9.355   7.779   1.845
21767TIP3   OH265185   8.873   7.445   1.643
21767TIP3    H165186   8.823   7.399   1.710
21767TIP3    H265187   8.806   7.483   1.585
21768TIP3   OH265188   8.708   7.737   1.704
21768TIP3    H165189   8.689   7.670   1.638
21768TIP3    H265190   8.798   7.765   1.685
21769TIP3   OH265191   8.904   8.223   1.730
21769TIP3    H165192   8.852   8.143   1.715
21769TIP3    H265193   8.935   8.216   1.820
21770TIP3   OH265194   9.402   7.545   1.515
21770TIP3    H165195   9.318   7.523   1.555
21770TIP3    H265196   9.445   7.601   1.580
21771TIP3   OH265197   9.483   7.736   1.706
21771TIP3    H165198   9.578   7.744   1.718
21771TIP3    H265199   9.459   7.815   1.657
21772TIP3   OH265200   9.086   8.331   1.559
21772TIP3    H165201   9.054   8.421   1.555
21772TIP3    H265202   9.023   8.285   1.613
21773TIP3   OH265203   0.090   7.843   1.495
21773TIP3    H165204   0.031   7.798   1.434
21773TIP3    H265205   0.093   7.933   1.463
21774TIP3   OH265206   9.628   8.656   1.445
21774TIP3    H165207   9.591   8.583   1.495
21774TIP3    H265208   9.649   8.617   1.359
21775TIP3   OH265209   8.667   8.765   1.855
21775TIP3    H165210   8.640   8.741   1.943
21775TIP3    H265211   8.701   8.854   1.864
21776TIP3   OH265212   9.397   8.393   1.346
21776TIP3    H165213   9.437   8.373   1.431
21776TIP3    H265214   9.314   8.346   1.346
21777TIP3   OH265215   9.698   8.857   1.141
21777TIP3    H165216   9.709   8.915   1.066
21777TIP3    H265217   9.629   8.898   1.193
21778TIP3   OH265218   9.561   8.344   1.571
21778TIP3    H165219   9.544   8.269   1.627
21778TIP3    H265220   9.654   8.338   1.550
21779TIP3   OH265221   8.748   8.361   1.363
21779TIP3    H165222   8.758   8.272   1.329
21779TIP3    H265223   8.725   8.349   1.455
21780TIP3   OH265224   8.682   8.363   1.639
21780TIP3    H165225   8.766   8.332   1.672
21780TIP3    H265226   8.689   8.459   1.641
21781TIP3   OH265227   9.473   7.463   1.813
21781TIP3    H165228   9.402   7.409   1.779
21781TIP3    H265229   9.446   7.553   1.796
21782TIP3   OH265230   8.956   8.569   1.564
21782TIP3    H165231   8.866   8.586   1.591
21782TIP3    H265232   8.979   8.644   1.510
21783TIP3   OH265233   8.693   8.635   1.618
21783TIP3    H165234   8.674   8.703   1.554
21783TIP3    H265235   8.680   8.677   1.703
21784TIP3   OH265236   8.424   8.336   1.497
21784TIP3    H165237   8.491   8.398   1.526
21784TIP3    H265238   8.471   8.253   1.486
21785TIP3   OH265239   9.681   9.006   2.087
21785TIP3    H165240   9.635   9.047   2.013
21785TIP3    H265241   9.772   9.034   2.077
21786TIP3   OH265242   8.895   8.559   1.244
21786TIP3    H165243   8.851   8.489   1.293
21786TIP3    H265244   8.969   8.516   1.202
21787TIP3   OH265245   9.336   8.595   1.169
21787TIP3    H165246   9.372   8.531   1.231
21787TIP3    H265247   9.393   8.587   1.092
21788TIP3   OH265248   8.570   8.109   1.468
21788TIP3    H165249   8.611   8.085   1.551
21788TIP3    H265250   8.638   8.091   1.402
21789TIP3   OH265251   9.149   8.271   1.301
21789TIP3    H165252   9.118   8.282   1.391
21789TIP3    H265253   9.135   8.178   1.282
21790TIP3   OH265254   8.750   8.008   1.662
21790TIP3    H165255   8.699   7.939   1.704
21790TIP3    H265256   8.807   7.963   1.600
21791TIP3   OH265257   8.896   7.835   1.507
21791TIP3    H165258   8.883   7.844   1.412
21791TIP3    H265259   8.991   7.826   1.517
21792TIP3   OH265260   9.677   8.101   1.192
21792TIP3    H165261   9.660   8.057   1.109
21792TIP3    H265262   9.650   8.192   1.177
21793TIP3   OH265263   8.696   8.851   1.446
21793TIP3    H165264   8.788   8.836   1.423
21793TIP3    H265265   8.659   8.896   1.370
21794TIP3   OH265266   8.208   8.259   1.640
21794TIP3    H165267   8.290   8.295   1.606
21794TIP3    H265268   8.216   8.164   1.628
21795TIP3   OH265269   0.140   9.107   2.042
21795TIP3    H165270   0.145   9.195   2.080
21795TIP3    H265271   0.202   9.110   1.969
21796TIP3   OH265272   0.035   8.309   1.537
21796TIP3    H165273   0.094   8.377   1.505
21796TIP3    H265274   0.081   8.270   1.611
21797TIP3   OH265275   0.160   8.165   1.740
21797TIP3    H165276   0.092   8.125   1.796
21797TIP3    H265277   0.222   8.203   1.802
21798TIP3   OH265278   0.128   8.542   2.062
21798TIP3    H165279   0.206   8.495   2.092
21798TIP3    H265280   0.162   8.625   2.029
21799TIP3   OH265281   0.080   8.089   1.376
21799TIP3    H165282   0.010   8.087   1.310
21799TIP3    H265283   0.060   8.165   1.430
21800TIP3   OH265284   9.728   7.739   1.305
21800TIP3    H165285   9.669   7.769   1.236
21800TIP3    H265286   9.738   7.645   1.289
21801TIP3   OH265287   9.753   8.007   1.865
21801TIP3    H165288   9.757   7.923   1.819
21801TIP3    H265289   9.765   7.984   1.957
21802TIP3   OH265290   9.749   7.470   1.259
21802TIP3    H165291   9.809   7.450   1.331
21802TIP3    H265292   9.667   7.429   1.284
21803TIP3   OH265293   9.763   7.763   1.731
21803TIP3    H165294   9.803   7.679   1.756
21803TIP3    H265295   9.809   7.787   1.650
21804TIP3   OH265296   0.083   7.518   1.801
21804TIP3    H165297   0.126   7.520   1.887
21804TIP3    H265298   0.022   7.445   1.806
21805TIP3   OH265299   0.138   7.413   1.453
21805TIP3    H165300   0.179   7.351   1.392
21805TIP3    H265301   0.196   7.489   1.453
21806TIP3   OH265302   9.493   8.951   1.715
21806TIP3    H165303   9.556   8.949   1.643
21806TIP3    H265304   9.525   9.020   1.773
21807TIP3   OH265305   9.696   7.310   1.815
21807TIP3    H165306   9.619   7.366   1.805
21807TIP3    H265307   9.674   7.253   1.889
21808TIP3   OH265308   8.197   8.624   1.709
21808TIP3    H165309   8.110   8.588   1.724
21808TIP3    H265310   8.183   8.719   1.708
21809TIP3   OH265311   8.956   8.786   1.384
21809TIP3    H165312   9.040   8.811   1.346
21809TIP3    H265313   8.926   8.713   1.330
21810TIP3   OH265314   9.654   8.924   1.488
21810TIP3    H165315   9.650   8.829   1.480
21810TIP3    H265316   9.609   8.957   1.410
21811TIP3   OH265317   8.276   8.633   1.440
21811TIP3    H165318   8.264   8.621   1.535
21811TIP3    H265319   8.359   8.590   1.421
21812TIP3   OH265320   1.359   8.433   1.449
21812TIP3    H165321   1.337   8.525   1.430
21812TIP3    H265322   1.290   8.383   1.404
21813TIP3   OH265323   1.227   8.477   1.797
21813TIP3    H165324   1.284   8.483   1.874
21813TIP3    H265325   1.278   8.424   1.734
21814TIP3   OH265326   0.645   8.357   2.208
21814TIP3    H165327   0.721   8.374   2.265
21814TIP3    H265328   0.683   8.343   2.122
21815TIP3   OH265329   1.664   8.638   1.514
21815TIP3    H165330   1.602   8.611   1.583
21815TIP3    H265331   1.665   8.733   1.519
21816TIP3   OH265332   0.621   8.756   1.931
21816TIP3    H165333   0.592   8.666   1.916
21816TIP3    H265334   0.707   8.761   1.890
21817TIP3   OH265335   0.306   7.940   1.647
21817TIP3    H165336   0.268   8.023   1.676
21817TIP3    H265337   0.237   7.898   1.597
21818TIP3   OH265338   0.383   8.256   1.888
21818TIP3    H165339   0.431   8.177   1.911
21818TIP3    H265340   0.446   8.311   1.842
21819TIP3   OH265341   1.237   9.118   1.400
21819TIP3    H165342   1.304   9.051   1.392
21819TIP3    H265343   1.249   9.154   1.488
21820TIP3   OH265344   1.111   8.718   1.820
21820TIP3    H165345   1.153   8.637   1.793
21820TIP3    H265346   1.172   8.787   1.792
21821TIP3   OH265347   0.862   7.801   1.837
21821TIP3    H165348   0.839   7.879   1.788
21821TIP3    H265349   0.820   7.729   1.790
21822TIP3   OH265350   0.533   8.036   1.945
21822TIP3    H165351   0.602   8.006   2.005
21822TIP3    H265352   0.535   7.973   1.873
21823TIP3   OH265353   0.916   8.210   1.780
21823TIP3    H165354   1.009   8.192   1.767
21823TIP3    H265355   0.871   8.133   1.746
21824TIP3   OH265356   1.263   8.665   1.307
21824TIP3    H165357   1.232   8.632   1.222
21824TIP3    H265358   1.203   8.737   1.327
21825TIP3   OH265359   0.988   8.582   2.025
21825TIP3    H165360   0.918   8.643   2.049
21825TIP3    H265361   1.033   8.625   1.953
21826TIP3   OH265362   0.763   7.939   2.069
21826TIP3    H165363   0.820   8.009   2.099
21826TIP3    H265364   0.812   7.896   1.999
21827TIP3   OH265365   0.208   8.493   1.414
21827TIP3    H165366   0.175   8.510   1.326
21827TIP3    H265367   0.230   8.579   1.449
21828TIP3   OH265368   1.610   8.900   1.595
21828TIP3    H165369   1.535   8.896   1.536
21828TIP3    H265370   1.654   8.982   1.572
21829TIP3   OH265371   1.438   8.929   1.376
21829TIP3    H165372   1.411   8.845   1.339
21829TIP3    H265373   1.473   8.978   1.301
21830TIP3   OH265374   1.184   8.302   1.278
21830TIP3    H165375   1.099   8.340   1.255
21830TIP3    H265376   1.231   8.297   1.195
21831TIP3   OH265377   1.143   8.109   0.963
21831TIP3    H165378   1.208   8.157   1.013
21831TIP3    H265379   1.193   8.040   0.918
21832TIP3   OH265380   1.541   8.405   1.235
21832TIP3    H165381   1.494   8.417   1.317
21832TIP3    H265382   1.634   8.406   1.259
21833TIP3   OH265383   0.742   8.364   1.624
21833TIP3    H165384   0.707   8.302   1.561
21833TIP3    H265385   0.807   8.314   1.674
21834TIP3   OH265386   0.848   8.772   1.779
21834TIP3    H165387   0.824   8.758   1.688
21834TIP3    H265388   0.941   8.749   1.784
21835TIP3   OH265389   0.817   8.360   1.988
21835TIP3    H165390   0.854   8.301   1.922
21835TIP3    H265391   0.885   8.426   2.003
21836TIP3   OH265392   1.295   8.908   1.751
21836TIP3    H165393   1.304   8.980   1.689
21836TIP3    H265394   1.376   8.909   1.802
21837TIP3   OH265395   1.370   8.251   1.071
21837TIP3    H165396   1.430   8.312   1.113
21837TIP3    H265397   1.397   8.251   0.979
21838TIP3   OH265398   1.099   8.886   1.317
21838TIP3    H165399   1.119   8.976   1.342
21838TIP3    H265400   1.044   8.895   1.239
21839TIP3   OH265401   0.630   8.196   1.427
21839TIP3    H165402   0.551   8.242   1.398
21839TIP3    H265403   0.601   8.106   1.441
21840TIP3   OH265404   1.696   8.838   0.625
21840TIP3    H165405   1.695   8.934   0.628
21840TIP3    H265406   1.789   8.816   0.620
21841TIP3   OH265407   0.249   8.793   1.988
21841TIP3    H165408   0.342   8.798   2.009
21841TIP3    H265409   0.208   8.858   2.046
21842TIP3   OH265410   1.006   9.118   1.140
21842TIP3    H165411   0.968   9.099   1.055
21842TIP3    H265412   0.958   9.194   1.172
21843TIP3   OH265413   0.429   8.981   1.519
21843TIP3    H165414   0.474   8.971   1.603
21843TIP3    H265415   0.377   8.902   1.509
21844TIP3   OH265416   1.199   9.059   0.766
21844TIP3    H165417   1.249   8.986   0.728
21844TIP3    H265418   1.233   9.066   0.855
21845TIP3   OH265419   1.260   9.099   1.033
21845TIP3    H165420   1.181   9.093   1.087
21845TIP3    H265421   1.332   9.093   1.096
21846TIP3   OH265422   1.439   8.222   0.806
21846TIP3    H165423   1.389   8.223   0.724
21846TIP3    H265424   1.523   8.261   0.783
21847TIP3   OH265425   1.170   7.627   1.120
21847TIP3    H165426   1.144   7.627   1.212
21847TIP3    H265427   1.128   7.550   1.083
21848TIP3   OH265428   0.783   8.001   1.669
21848TIP3    H165429   0.695   7.971   1.691
21848TIP3    H265430   0.799   7.965   1.581
21849TIP3   OH265431   1.278   8.090   1.425
21849TIP3    H165432   1.239   8.167   1.383
21849TIP3    H265433   1.338   8.055   1.360
21850TIP3   OH265434   0.830   7.618   1.094
21850TIP3    H165435   0.822   7.619   1.189
21850TIP3    H265436   0.750   7.659   1.063
21851TIP3   OH265437   0.356   7.613   1.935
21851TIP3    H165438   0.405   7.695   1.930
21851TIP3    H265439   0.369   7.572   1.849
21852TIP3   OH265440   0.286   7.648   1.454
21852TIP3    H165441   0.329   7.680   1.375
21852TIP3    H265442   0.220   7.714   1.474
21853TIP3   OH265443   1.114   7.865   1.716
21853TIP3    H165444   1.042   7.824   1.765
21853TIP3    H265445   1.116   7.955   1.747
21854TIP3   OH265446   0.555   7.863   1.731
21854TIP3    H165447   0.469   7.876   1.692
21854TIP3    H265448   0.584   7.778   1.698
21855TIP3   OH265449   0.821   7.879   1.426
21855TIP3    H165450   0.915   7.892   1.414
21855TIP3    H265451   0.783   7.898   1.341
21856TIP3   OH265452   0.713   7.912   1.179
21856TIP3    H165453   0.656   7.857   1.125
21856TIP3    H265454   0.769   7.957   1.117
21857TIP3   OH265455   0.707   7.631   1.668
21857TIP3    H165456   0.668   7.550   1.701
21857TIP3    H265457   0.748   7.605   1.585
21858TIP3   OH265458   0.939   8.419   1.211
21858TIP3    H165459   0.864   8.365   1.185
21858TIP3    H265460   0.912   8.460   1.293
21859TIP3   OH265461   1.392   7.778   1.072
21859TIP3    H165462   1.306   7.740   1.090
21859TIP3    H265463   1.391   7.863   1.115
21860TIP3   OH265464   1.434   8.013   1.207
21860TIP3    H165465   1.515   8.023   1.257
21860TIP3    H265466   1.427   8.094   1.157
21861TIP3   OH265467   0.618   8.485   1.844
21861TIP3    H165468   0.649   8.458   1.758
21861TIP3    H265469   0.678   8.442   1.905
21862TIP3   OH265470   1.102   8.586   1.070
21862TIP3    H165471   1.056   8.670   1.069
21862TIP3    H265472   1.043   8.527   1.118
21863TIP3   OH265473   1.920   8.083   0.880
21863TIP3    H165474   1.838   8.036   0.868
21863TIP3    H265475   1.901   8.171   0.847
21864TIP3   OH265476   0.737   8.773   1.526
21864TIP3    H165477   0.738   8.851   1.470
21864TIP3    H265478   0.646   8.744   1.525
21865TIP3   OH265479   0.319   8.067   1.242
21865TIP3    H165480   0.362   8.150   1.263
21865TIP3    H265481   0.237   8.069   1.291
21866TIP3   OH265482   0.843   8.536   1.433
21866TIP3    H165483   0.826   8.625   1.464
21866TIP3    H265484   0.813   8.480   1.504
21867TIP3   OH265485   0.977   9.127   1.984
21867TIP3    H165486   1.024   9.210   1.975
21867TIP3    H265487   0.977   9.110   2.078
21868TIP3   OH265488   0.659   8.990   1.372
21868TIP3    H165489   0.571   8.994   1.411
21868TIP3    H265490   0.690   9.081   1.375
21869TIP3   OH265491   1.380   8.643   0.814
21869TIP3    H165492   1.421   8.634   0.900
21869TIP3    H265493   1.297   8.597   0.822
21870TIP3   OH265494   1.711   9.115   0.633
21870TIP3    H165495   1.726   9.170   0.556
21870TIP3    H265496   1.636   9.155   0.677
21871TIP3   OH265497   1.518   8.617   1.049
21871TIP3    H165498   1.521   8.556   1.123
21871TIP3    H265499   1.565   8.694   1.080
21872TIP3   OH265500   0.476   8.955   2.091
21872TIP3    H165501   0.544   8.894   2.061
21872TIP3    H265502   0.490   8.961   2.186
21873TIP3   OH265503   0.731   8.607   0.844
21873TIP3    H165504   0.741   8.517   0.813
21873TIP3    H265505   0.716   8.599   0.938
21874TIP3   OH265506   0.677   8.624   1.116
21874TIP3    H165507   0.744   8.601   1.180
21874TIP3    H265508   0.677   8.720   1.116
21875TIP3   OH265509   0.406   8.319   1.323
21875TIP3    H165510   0.340   8.367   1.373
21875TIP3    H265511   0.426   8.377   1.249
21876TIP3   OH265512   1.480   7.644   1.314
21876TIP3    H165513   1.455   7.705   1.244
21876TIP3    H265514   1.492   7.700   1.391
21877TIP3   OH265515   0.956   8.820   1.067
21877TIP3    H165516   0.865   8.839   1.090
21877TIP3    H265517   0.977   8.881   0.997
21878TIP3   OH265518   1.095   7.890   1.446
21878TIP3    H165519   1.157   7.961   1.430
21878TIP3    H265520   1.102   7.873   1.540
21879TIP3   OH265521   0.698   8.897   1.119
21879TIP3    H165522   0.678   8.970   1.060
21879TIP3    H265523   0.682   8.932   1.206
21880TIP3   OH265524   0.807   7.606   1.373
21880TIP3    H165525   0.799   7.699   1.398
21880TIP3    H265526   0.898   7.584   1.390
21881TIP3   OH265527   0.434   8.492   1.105
21881TIP3    H165528   0.507   8.554   1.115
21881TIP3    H265529   0.463   8.429   1.040
21882TIP3   OH265530   0.342   7.789   1.227
21882TIP3    H165531   0.354   7.884   1.238
21882TIP3    H265532   0.279   7.781   1.155
21883TIP3   OH265533   1.702   9.147   1.540
21883TIP3    H165534   1.645   9.192   1.477
21883TIP3    H265535   1.786   9.192   1.532
21884TIP3   OH265536   0.257   8.761   1.493
21884TIP3    H165537   0.214   8.797   1.570
21884TIP3    H265538   0.213   8.804   1.419
21885TIP3   OH265539   0.885   8.809   0.738
21885TIP3    H165540   0.836   8.737   0.777
21885TIP3    H265541   0.958   8.767   0.693
21886TIP3   OH265542   1.331   8.853   0.647
21886TIP3    H165543   1.365   8.786   0.707
21886TIP3    H265544   1.389   8.848   0.571
21887TIP3   OH265545   0.553   8.303   0.948
21887TIP3    H165546   0.604   8.279   1.025
21887TIP3    H265547   0.617   8.315   0.879
21888TIP3   OH265548   1.130   8.523   0.800
21888TIP3    H165549   1.110   8.531   0.894
21888TIP3    H265550   1.106   8.433   0.778
21889TIP3   OH265551   0.725   8.247   1.163
21889TIP3    H165552   0.704   8.216   1.251
21889TIP3    H265553   0.774   8.175   1.123
21890TIP3   OH265554   0.872   8.064   1.015
21890TIP3    H165555   0.843   8.064   0.924
21890TIP3    H265556   0.967   8.077   1.011
21891TIP3   OH265557   1.652   8.339   0.667
21891TIP3    H165558   1.634   8.302   0.581
21891TIP3    H265559   1.630   8.432   0.659
21892TIP3   OH265560   0.696   9.116   0.949
21892TIP3    H165561   0.784   9.094   0.920
21892TIP3    H265562   0.656   9.159   0.872
21893TIP3   OH265563   0.160   8.494   1.124
21893TIP3    H165564   0.255   8.504   1.119
21893TIP3    H265565   0.143   8.408   1.084
21894TIP3   OH265566   0.063   9.078   1.574
21894TIP3    H165567  -0.005   9.026   1.531
21894TIP3    H265568   0.107   9.015   1.632
21895TIP3   OH265569   0.206   8.907   1.736
21895TIP3    H165570   0.196   8.842   1.805
21895TIP3    H265571   0.258   8.977   1.775
21896TIP3   OH265572   5.212   0.037   1.518
21896TIP3    H165573   5.264   0.036   1.598
21896TIP3    H265574   5.245   0.112   1.469
21897TIP3   OH265575   1.810   8.557   0.977
21897TIP3    H165576   1.744   8.625   0.974
21897TIP3    H265577   1.798   8.514   1.062
21898TIP3   OH265578   1.851   8.428   1.225
21898TIP3    H165579   1.920   8.385   1.175
21898TIP3    H265580   1.895   8.499   1.272
21899TIP3   OH265581   1.879   8.346   0.817
21899TIP3    H165582   1.804   8.338   0.758
21899TIP3    H265583   1.857   8.419   0.874
21900TIP3   OH265584   1.674   7.985   0.803
21900TIP3    H165585   1.630   8.017   0.724
21900TIP3    H265586   1.682   7.891   0.790
21901TIP3   OH265587   0.380   8.419   2.117
21901TIP3    H165588   0.374   8.361   2.041
21901TIP3    H265589   0.467   8.401   2.152
21902TIP3   OH265590   1.683   7.712   0.765
21902TIP3    H165591   1.754   7.713   0.829
21902TIP3    H265592   1.609   7.676   0.812
21903TIP3   OH265593   0.337   7.505   1.680
21903TIP3    H165594   0.245   7.496   1.706
21903TIP3    H265595   0.334   7.561   1.602
21904TIP3   OH265596   1.486   9.133   1.188
21904TIP3    H165597   1.558   9.137   1.125
21904TIP3    H265598   1.509   9.199   1.254
21905TIP3   OH265599   3.911   0.020   2.036
21905TIP3    H165600   3.823  -0.017   2.030
21905TIP3    H265601   3.931   0.048   1.946
21906TIP3   OH265602   4.349   0.096   1.805
21906TIP3    H165603   4.271   0.074   1.754
21906TIP3    H265604   4.336   0.188   1.830
21907TIP3   OH265605   1.308   9.226   1.921
21907TIP3    H165606   1.227   9.265   1.889
21907TIP3    H265607   1.364   9.219   1.844
21908TIP3   OH265608   4.950   0.179   1.860
21908TIP3    H165609   4.859   0.210   1.857
21908TIP3    H265610   4.981   0.188   1.770
21909TIP3   OH265611   0.372   9.095   1.881
21909TIP3    H165612   0.392   9.056   1.966
21909TIP3    H265613   0.441   9.063   1.823
21910TIP3   OH265614   0.572   8.967   1.753
21910TIP3    H165615   0.582   8.890   1.809
21910TIP3    H265616   0.659   9.005   1.748
21911TIP3   OH265617   0.838   9.046   1.766
21911TIP3    H165618   0.855   8.952   1.762
21911TIP3    H265619   0.884   9.076   1.844
21912TIP3   OH265620   0.619   7.396   1.772
21912TIP3    H165621   0.538   7.363   1.810
21912TIP3    H265622   0.688   7.360   1.828
21913TIP3   OH265623   0.445   7.301   1.500
21913TIP3    H165624   0.488   7.351   1.431
21913TIP3    H265625   0.431   7.365   1.570
21914TIP3   OH265626   0.141   8.885   1.277
21914TIP3    H165627   0.058   8.854   1.242
21914TIP3    H265628   0.147   8.977   1.249
21915TIP3   OH265629   0.585   7.442   1.288
21915TIP3    H165630   0.629   7.381   1.228
21915TIP3    H265631   0.656   7.496   1.323
21916TIP3   OH265632   1.094   7.624   1.387
21916TIP3    H165633   1.156   7.594   1.453
21916TIP3    H265634   1.092   7.719   1.398
21917TIP3   OH265635   0.948   9.034   0.876
21917TIP3    H165636   1.029   9.061   0.834
21917TIP3    H265637   0.916   8.962   0.821
21918TIP3   OH265638   1.674   9.154   0.976
21918TIP3    H165639   1.685   9.060   0.990
21918TIP3    H265640   1.620   9.161   0.897
21919TIP3   OH265641   0.263   8.879   0.936
21919TIP3    H165642   0.264   8.883   1.032
21919TIP3    H265643   0.343   8.831   0.914
21920TIP3   OH265644   2.001   8.723   0.877
21920TIP3    H165645   1.945   8.648   0.896
21920TIP3    H265646   1.988   8.739   0.783
21921TIP3   OH265647   6.059   0.166   0.600
21921TIP3    H165648   6.008   0.137   0.524
21921TIP3    H265649   6.011   0.242   0.633
21922TIP3   OH265650   2.259   9.212   1.020
21922TIP3    H165651   2.340   9.170   1.050
21922TIP3    H265652   2.200   9.139   1.002
21923TIP3   OH265653   6.261   0.052   0.251
21923TIP3    H165654   6.315  -0.020   0.220
21923TIP3    H265655   6.296   0.074   0.337
21924TIP3   OH265656   6.309   0.097   0.523
21924TIP3    H165657   6.222   0.116   0.559
21924TIP3    H265658   6.348   0.035   0.585
21925TIP3   OH265659   2.779   8.810   0.529
21925TIP3    H165660   2.777   8.905   0.536
21925TIP3    H265661   2.852   8.784   0.586
21926TIP3   OH265662   2.489   9.070   1.040
21926TIP3    H165663   2.526   9.122   0.969
21926TIP3    H265664   2.529   8.984   1.031
21927TIP3   OH265665   2.140   8.311   0.733
21927TIP3    H165666   2.182   8.396   0.739
21927TIP3    H265667   2.051   8.326   0.766
21928TIP3   OH265668   5.733   0.053   0.848
21928TIP3    H165669   5.653   0.046   0.900
21928TIP3    H265670   5.757   0.145   0.853
21929TIP3   OH265671   6.692   0.085   0.101
21929TIP3    H165672   6.746   0.144   0.048
21929TIP3    H265673   6.631   0.143   0.147
21930TIP3   OH265674   2.515   8.866   0.324
21930TIP3    H165675   2.536   8.777   0.297
21930TIP3    H265676   2.506   8.861   0.419
21931TIP3   OH265677   2.472   8.887   0.596
21931TIP3    H165678   2.555   8.855   0.630
21931TIP3    H265679   2.478   8.982   0.605
21932TIP3   OH265680   2.225   8.571   0.761
21932TIP3    H165681   2.183   8.620   0.832
21932TIP3    H265682   2.231   8.634   0.689
21933TIP3   OH265683   2.754   9.079   0.552
21933TIP3    H165684   2.668   9.108   0.584
21933TIP3    H265685   2.779   9.145   0.488
21934TIP3   OH265686   2.498   9.162   0.612
21934TIP3    H165687   2.476   9.227   0.546
21934TIP3    H265688   2.486   9.207   0.695
21935TIP3   OH265689   2.226   8.768   0.565
21935TIP3    H165690   2.300   8.826   0.580
21935TIP3    H265691   2.257   8.706   0.499
21936TIP3   OH265692   2.113   8.042   0.669
21936TIP3    H165693   2.146   8.128   0.696
21936TIP3    H265694   2.048   8.019   0.736
21937TIP3   OH265695   2.045   9.019   1.013
21937TIP3    H165696   2.032   9.080   1.085
21937TIP3    H265697   2.018   9.068   0.935
21938TIP3   OH265698   2.681   9.055   0.213
21938TIP3    H165699   2.629   8.987   0.255
21938TIP3    H265700   2.758   9.010   0.179
21939TIP3   OH265701   3.151   9.086   0.153
21939TIP3    H165702   3.236   9.070   0.194
21939TIP3    H265703   3.171   9.100   0.060
21940TIP3   OH265704   2.338   8.562   0.426
21940TIP3    H165705   2.375   8.505   0.493
21940TIP3    H265706   2.411   8.577   0.366
21941TIP3   OH265707   2.815   8.783   0.255
21941TIP3    H165708   2.799   8.783   0.350
21941TIP3    H265709   2.804   8.691   0.229
21942TIP3   OH265710   5.756   0.128   0.426
21942TIP3    H165711   5.842   0.101   0.394
21942TIP3    H265712   5.714   0.170   0.351
21943TIP3   OH265713   1.959   8.751   0.605
21943TIP3    H165714   2.052   8.767   0.589
21943TIP3    H265715   1.941   8.668   0.562
21944TIP3   OH265716   5.182   0.045   1.015
21944TIP3    H165717   5.113  -0.006   0.973
21944TIP3    H265718   5.195   0.002   1.100
21945TIP3   OH265719   2.013   9.174   1.247
21945TIP3    H165720   1.966   9.146   1.326
21945TIP3    H265721   2.098   9.204   1.279
21946TIP3   OH265722   5.501   0.060   1.357
21946TIP3    H165723   5.500   0.087   1.448
21946TIP3    H265724   5.588   0.021   1.344
21947TIP3   OH265725   1.951   9.117   0.775
21947TIP3    H165726   1.869   9.089   0.734
21947TIP3    H265727   1.972   9.200   0.731
21948TIP3   OH265728   6.004   0.043   0.348
21948TIP3    H165729   6.089   0.065   0.310
21948TIP3    H265730   5.974  -0.032   0.298
21949TIP3   OH265731   2.047   9.132   0.410
21949TIP3    H165732   2.052   9.160   0.501
21949TIP3    H265733   2.128   9.084   0.395
21950TIP3   OH265734   0.847   0.849   1.850
21950TIP3    H165735   0.755   0.873   1.837
21950TIP3    H265736   0.879   0.911   1.915
21951TIP3   OH265737   0.517   0.197   1.584
21951TIP3    H165738   0.584   0.238   1.639
21951TIP3    H265739   0.518   0.105   1.610
21952TIP3   OH265740   0.700   0.314   1.756
21952TIP3    H165741   0.748   0.232   1.768
21952TIP3    H265742   0.739   0.354   1.678
21953TIP3   OH265743   1.013   0.906   1.329
21953TIP3    H165744   1.011   1.000   1.314
21953TIP3    H265745   1.102   0.879   1.306
21954TIP3   OH265746   0.341   1.211   1.789
21954TIP3    H165747   0.296   1.188   1.708
21954TIP3    H265748   0.297   1.291   1.819
21955TIP3   OH265749   0.526   1.125   1.437
21955TIP3    H165750   0.573   1.051   1.399
21955TIP3    H265751   0.564   1.135   1.525
21956TIP3   OH265752   0.596   1.166   1.704
21956TIP3    H165753   0.511   1.169   1.748
21956TIP3    H265754   0.660   1.179   1.774
21957TIP3   OH265755   0.772   0.360   1.494
21957TIP3    H165756   0.710   0.346   1.423
21957TIP3    H265757   0.856   0.375   1.450
21958TIP3   OH265758   0.390   0.627   1.696
21958TIP3    H165759   0.366   0.720   1.704
21958TIP3    H265760   0.308   0.580   1.715
21959TIP3   OH265761   1.252   0.198   1.651
21959TIP3    H165762   1.207   0.151   1.582
21959TIP3    H265763   1.238   0.291   1.631
21960TIP3   OH265764   0.957   0.968   1.606
21960TIP3    H165765   0.932   0.900   1.669
21960TIP3    H265766   0.965   0.922   1.523
21961TIP3   OH265767   0.692   0.680   1.461
21961TIP3    H165768   0.748   0.657   1.535
21961TIP3    H265769   0.613   0.628   1.474
21962TIP3   OH265770   1.034   1.189   1.301
21962TIP3    H165771   1.075   1.270   1.269
21962TIP3    H265772   0.951   1.217   1.340
21963TIP3   OH265773   0.862   0.625   1.667
21963TIP3    H165774   0.842   0.656   1.755
21963TIP3    H265775   0.957   0.623   1.663
21964TIP3   OH265776   0.053   0.713   1.493
21964TIP3    H165777   0.098   0.646   1.440
21964TIP3    H265778  -0.002   0.663   1.553
21965TIP3   OH265779   0.277   0.875   1.700
21965TIP3    H165780   0.183   0.880   1.717
21965TIP3    H265781   0.301   0.964   1.672
21966TIP3   OH265782   9.813   0.950   1.740
21966TIP3    H165783   9.795   1.022   1.679
21966TIP3    H265784   9.764   0.972   1.818
21967TIP3   OH265785   0.210   0.907   1.385
21967TIP3    H165786   0.161   0.845   1.439
21967TIP3    H265787   0.282   0.855   1.349
21968TIP3   OH265788   0.647   0.911   1.316
21968TIP3    H165789   0.681   0.839   1.370
21968TIP3    H265790   0.704   0.911   1.239
21969TIP3   OH265791   9.702   0.511   1.596
21969TIP3    H165792   9.706   0.476   1.685
21969TIP3    H265793   9.715   0.434   1.539
21970TIP3   OH265794   0.423   0.559   1.436
21970TIP3    H165795   0.415   0.584   1.528
21970TIP3    H265796   0.333   0.542   1.407
21971TIP3   OH265797   0.147   0.192   1.762
21971TIP3    H165798   0.095   0.111   1.762
21971TIP3    H265799   0.222   0.172   1.706
21972TIP3   OH265800   0.987   0.399   1.325
21972TIP3    H165801   1.000   0.347   1.246
21972TIP3    H265802   0.962   0.486   1.293
21973TIP3   OH265803  -0.002   1.170   1.577
21973TIP3    H165804   0.093   1.167   1.567
21973TIP3    H265805  -0.033   1.219   1.501
21974TIP3   OH265806   1.136   0.639   1.682
21974TIP3    H165807   1.198   0.704   1.649
21974TIP3    H265808   1.182   0.599   1.756
21975TIP3   OH265809   1.276   0.514   1.886
21975TIP3    H165810   1.236   0.499   1.972
21975TIP3    H265811   1.367   0.535   1.905
21976TIP3   OH265812   1.184   0.427   1.516
21976TIP3    H165813   1.111   0.412   1.456
21976TIP3    H265814   1.156   0.502   1.569
21977TIP3   OH265815   1.126   0.102   1.430
21977TIP3    H165816   1.089   0.123   1.345
21977TIP3    H265817   1.060   0.048   1.473
21978TIP3   OH265818   7.547   9.155   1.606
21978TIP3    H165819   7.638   9.127   1.604
21978TIP3    H265820   7.501   9.094   1.548
21979TIP3   OH265821   7.795   9.024   1.583
21979TIP3    H165822   7.838   8.968   1.518
21979TIP3    H265823   7.857   9.094   1.600
21980TIP3   OH265824   0.798   1.266   1.866
21980TIP3    H165825   0.856   1.256   1.791
21980TIP3    H265826   0.839   1.334   1.919
21981TIP3   OH265827   0.268   1.124   1.536
21981TIP3    H165828   0.354   1.145   1.500
21981TIP3    H265829   0.236   1.052   1.482
21982TIP3   OH265830   0.959   1.239   1.641
21982TIP3    H165831   0.962   1.144   1.630
21982TIP3    H265832   0.916   1.271   1.562
21983TIP3   OH265833   9.360   0.925   1.578
21983TIP3    H165834   9.373   0.978   1.657
21983TIP3    H265835   9.447   0.893   1.556
21984TIP3   OH265836   2.455   0.772   1.569
21984TIP3    H165837   2.424   0.859   1.541
21984TIP3    H265838   2.386   0.712   1.542
21985TIP3   OH265839   2.416   0.758   1.964
21985TIP3    H165840   2.460   0.739   2.047
21985TIP3    H265841   2.379   0.673   1.937
21986TIP3   OH265842   2.704   1.035   1.647
21986TIP3    H165843   2.693   0.970   1.717
21986TIP3    H265844   2.742   1.111   1.692
21987TIP3   OH265845   1.756   1.047   2.019
21987TIP3    H165846   1.737   0.953   2.025
21987TIP3    H265847   1.850   1.051   2.001
21988TIP3   OH265848   1.426   0.242   1.860
21988TIP3    H165849   1.410   0.335   1.876
21988TIP3    H265850   1.359   0.217   1.796
21989TIP3   OH265851   1.542   0.532   1.947
21989TIP3    H165852   1.608   0.464   1.956
21989TIP3    H265853   1.590   0.614   1.965
21990TIP3   OH265854   2.374   1.477   1.708
21990TIP3    H165855   2.423   1.426   1.645
21990TIP3    H265856   2.313   1.415   1.748
21991TIP3   OH265857   2.255   0.987   1.965
21991TIP3    H165858   2.289   0.899   1.949
21991TIP3    H265859   2.328   1.035   2.003
21992TIP3   OH265860   3.283   0.318   1.986
21992TIP3    H165861   3.256   0.410   1.990
21992TIP3    H265862   3.332   0.311   1.904
21993TIP3   OH265863   2.638   0.453   2.047
21993TIP3    H165864   2.680   0.372   2.073
21993TIP3    H265865   2.623   0.444   1.952
21994TIP3   OH265866   2.053   0.093   1.946
21994TIP3    H165867   2.021   0.182   1.928
21994TIP3    H265868   1.981   0.036   1.920
21995TIP3   OH265869   2.718   0.230   1.620
21995TIP3    H165870   2.784   0.222   1.689
21995TIP3    H265871   2.766   0.263   1.544
21996TIP3   OH265872   2.074   0.538   1.913
21996TIP3    H165873   2.168   0.521   1.912
21996TIP3    H265874   2.034   0.455   1.886
21997TIP3   OH265875   2.348   0.982   1.417
21997TIP3    H165876   2.308   0.953   1.336
21997TIP3    H265877   2.293   1.055   1.447
21998TIP3   OH265878   2.897   0.253   1.820
21998TIP3    H165879   2.947   0.200   1.883
21998TIP3    H265880   2.931   0.341   1.832
21999TIP3   OH265881   1.318   0.810   1.561
21999TIP3    H165882   1.286   0.835   1.474
21999TIP3    H265883   1.344   0.893   1.602
22000TIP3   OH265884   2.750   1.278   1.786
22000TIP3    H165885   2.661   1.277   1.822
22000TIP3    H265886   2.763   1.368   1.758
22001TIP3   OH265887   3.054   0.158   2.027
22001TIP3    H165888   3.013   0.188   2.108
22001TIP3    H265889   3.135   0.209   2.021
22002TIP3   OH265890   2.470   1.330   1.500
22002TIP3    H165891   2.517   1.249   1.482
22002TIP3    H265892   2.507   1.393   1.438
22003TIP3   OH265893   2.598   1.106   1.406
22003TIP3    H165894   2.521   1.050   1.401
22003TIP3    H265895   2.647   1.074   1.481
22004TIP3   OH265896   2.283   0.610   1.421
22004TIP3    H165897   2.201   0.653   1.399
22004TIP3    H265898   2.330   0.604   1.337
22005TIP3   OH265899   2.253   0.427   1.099
22005TIP3    H165900   2.319   0.471   1.151
22005TIP3    H265901   2.300   0.358   1.052
22006TIP3   OH265902   3.151   0.833   2.007
22006TIP3    H165903   3.060   0.862   2.020
22006TIP3    H265904   3.166   0.843   1.913
22007TIP3   OH265905   2.640   0.704   1.379
22007TIP3    H165906   2.588   0.732   1.454
22007TIP3    H265907   2.724   0.677   1.417
22008TIP3   OH265908   1.873   0.678   1.771
22008TIP3    H165909   1.835   0.614   1.711
22008TIP3    H265910   1.945   0.631   1.813
22009TIP3   OH265911   2.008   1.096   1.909
22009TIP3    H165912   1.992   1.072   1.817
22009TIP3    H265913   2.093   1.056   1.930
22010TIP3   OH265914   1.956   0.658   2.131
22010TIP3    H165915   1.999   0.615   2.057
22010TIP3    H265916   2.025   0.670   2.196
22011TIP3   OH265917   2.518   1.293   1.929
22011TIP3    H165918   2.463   1.356   1.976
22011TIP3    H265919   2.504   1.210   1.975
22012TIP3   OH265920   2.470   0.562   1.217
22012TIP3    H165921   2.530   0.618   1.266
22012TIP3    H265922   2.500   0.568   1.126
22013TIP3   OH265923   2.217   1.222   1.474
22013TIP3    H165924   2.300   1.267   1.489
22013TIP3    H265925   2.167   1.281   1.418
22014TIP3   OH265926   9.516   9.021   1.268
22014TIP3    H165927   9.439   9.042   1.321
22014TIP3    H265928   9.526   9.097   1.210
22015TIP3   OH265929   1.745   0.513   1.580
22015TIP3    H165930   1.664   0.558   1.552
22015TIP3    H265931   1.717   0.424   1.598
22016TIP3   OH265932   2.781   1.156   0.809
22016TIP3    H165933   2.788   1.250   0.796
22016TIP3    H265934   2.870   1.123   0.793
22017TIP3   OH265935   2.110   1.433   1.303
22017TIP3    H165936   2.050   1.412   1.232
22017TIP3    H265937   2.079   1.517   1.337
22018TIP3   OH265938   1.554   1.285   1.680
22018TIP3    H165939   1.585   1.288   1.771
22018TIP3    H265940   1.494   1.211   1.678
22019TIP3   OH265941   2.308   1.354   0.909
22019TIP3    H165942   2.369   1.289   0.876
22019TIP3    H265943   2.335   1.370   0.999
22020TIP3   OH265944   2.352   1.418   1.171
22020TIP3    H165945   2.273   1.411   1.225
22020TIP3    H265946   2.423   1.429   1.233
22021TIP3   OH265947   2.555   0.557   0.961
22021TIP3    H165948   2.518   0.538   0.875
22021TIP3    H265949   2.639   0.598   0.942
22022TIP3   OH265950   8.795   9.198   1.265
22022TIP3    H165951   8.758   9.204   1.353
22022TIP3    H265952   8.758   9.117   1.228
22023TIP3   OH265953   1.937   0.318   1.829
22023TIP3    H165954   1.849   0.293   1.858
22023TIP3    H265955   1.943   0.286   1.739
22024TIP3   OH265956   2.415   0.410   1.553
22024TIP3    H165957   2.365   0.481   1.513
22024TIP3    H265958   2.469   0.375   1.482
22025TIP3   OH265959   2.577   0.418   1.774
22025TIP3    H165960   2.517   0.435   1.701
22025TIP3    H265961   2.626   0.341   1.746
22026TIP3   OH265962   8.463   9.183   1.253
22026TIP3    H165963   8.452   9.188   1.348
22026TIP3    H265964   8.388   9.230   1.217
22027TIP3   OH265965   1.435  -0.005   1.625
22027TIP3    H165966   1.470   0.017   1.539
22027TIP3    H265967   1.379   0.069   1.648
22028TIP3   OH265968   2.560   0.679   2.183
22028TIP3    H165969   2.597   0.603   2.137
22028TIP3    H265970   2.582   0.664   2.275
22029TIP3   OH265971   2.310   0.116   1.858
22029TIP3    H165972   2.224   0.113   1.900
22029TIP3    H265973   2.372   0.096   1.928
22030TIP3   OH265974   1.698   0.203   1.882
22030TIP3    H165975   1.603   0.206   1.875
22030TIP3    H265976   1.721   0.111   1.869
22031TIP3   OH265977   1.948   0.208   1.578
22031TIP3    H165978   2.042   0.222   1.567
22031TIP3    H265979   1.910   0.230   1.492
22032TIP3   OH265980   2.726   0.195   2.083
22032TIP3    H165981   2.657   0.141   2.123
22032TIP3    H265982   2.756   0.144   2.008
22033TIP3   OH265983   1.832   0.240   1.333
22033TIP3    H165984   1.769   0.190   1.281
22033TIP3    H265985   1.888   0.283   1.269
22034TIP3   OH265986   2.349   0.486   1.935
22034TIP3    H165987   2.413   0.456   1.870
22034TIP3    H265988   2.381   0.450   2.018
22035TIP3   OH265989   8.378   9.185   1.829
22035TIP3    H165990   8.364   9.095   1.860
22035TIP3    H265991   8.392   9.176   1.735
22036TIP3   OH265992   2.052   0.745   1.351
22036TIP3    H165993   1.978   0.689   1.328
22036TIP3    H265994   2.023   0.790   1.431
22037TIP3   OH265995   2.897   0.932   2.005
22037TIP3    H165996   2.928   0.979   1.928
22037TIP3    H265997   2.810   0.900   1.979
22038TIP3   OH265998   2.513   0.063   1.265
22038TIP3    H165999   2.420   0.040   1.263
22038TIP3    H266000   2.513   0.158   1.278
22039TIP3   OH266001   2.570   0.327   1.336
22039TIP3    H166002   2.666   0.329   1.345
22039TIP3    H266003   2.550   0.405   1.284
22040TIP3   OH266004   1.738   0.761   2.000
22040TIP3    H166005   1.779   0.746   1.915
22040TIP3    H266006   1.802   0.730   2.063
22041TIP3   OH266007   2.201   0.905   1.183
22041TIP3    H166008   2.154   0.987   1.192
22041TIP3    H266009   2.151   0.842   1.235
22042TIP3   OH266010   2.978   0.408   1.152
22042TIP3    H166011   2.920   0.364   1.089
22042TIP3    H266012   2.986   0.498   1.118
22043TIP3   OH266013   2.693   1.197   1.093
22043TIP3    H166014   2.673   1.140   1.167
22043TIP3    H266015   2.730   1.139   1.027
22044TIP3   OH266016   2.662   0.855   1.874
22044TIP3    H166017   2.571   0.825   1.883
22044TIP3    H266018   2.708   0.782   1.833
22045TIP3   OH266019   1.850   1.103   1.667
22045TIP3    H166020   1.842   1.181   1.613
22045TIP3    H266021   1.767   1.099   1.715
22046TIP3   OH266022   1.415   0.391   1.378
22046TIP3    H166023   1.465   0.469   1.402
22046TIP3    H266024   1.334   0.398   1.428
22047TIP3   OH266025   1.936   0.861   1.567
22047TIP3    H166026   1.916   0.949   1.602
22047TIP3    H266027   1.917   0.802   1.640
22048TIP3   OH266028   2.138   1.449   2.101
22048TIP3    H166029   2.152   1.541   2.080
22048TIP3    H266030   2.100   1.450   2.189
22049TIP3   OH266031   1.766   1.335   1.522
22049TIP3    H166032   1.683   1.322   1.568
22049TIP3    H266033   1.783   1.429   1.528
22050TIP3   OH266034   2.515   1.052   2.061
22050TIP3    H166035   2.528   1.019   2.149
22050TIP3    H266036   2.567   0.995   2.005
22051TIP3   OH266037   2.471   0.958   0.990
22051TIP3    H166038   2.536   0.935   1.057
22051TIP3    H266039   2.388   0.927   1.026
22052TIP3   OH266040   2.803   1.428   0.783
22052TIP3    H166041   2.852   1.496   0.737
22052TIP3    H266042   2.720   1.471   0.807
22053TIP3   OH266043   2.661   0.886   1.169
22053TIP3    H166044   2.643   0.833   1.247
22053TIP3    H266045   2.757   0.887   1.162
22054TIP3   OH266046   1.808   0.924   1.008
22054TIP3    H166047   1.828   0.834   0.980
22054TIP3    H266048   1.803   0.918   1.103
22055TIP3   OH266049   1.782   0.950   1.283
22055TIP3    H166050   1.836   0.923   1.357
22055TIP3    H266051   1.786   1.045   1.284
22056TIP3   OH266052   1.517   0.633   1.474
22056TIP3    H166053   1.450   0.678   1.525
22056TIP3    H266054   1.536   0.694   1.402
22057TIP3   OH266055   2.574   0.011   1.530
22057TIP3    H166056   2.554   0.031   1.438
22057TIP3    H266057   2.616   0.091   1.563
22058TIP3   OH266058   2.061   1.134   1.204
22058TIP3    H166059   1.976   1.155   1.243
22058TIP3    H266060   2.077   1.206   1.142
22059TIP3   OH266061   2.227   0.216   1.614
22059TIP3    H166062   2.288   0.286   1.589
22059TIP3    H266063   2.254   0.192   1.702
22060TIP3   OH266064   8.926   9.141   1.702
22060TIP3    H166065   8.908   9.219   1.754
22060TIP3    H266066   8.996   9.167   1.643
22061TIP3   OH266067   1.811   1.226   1.276
22061TIP3    H166068   1.788   1.297   1.216
22061TIP3    H266069   1.793   1.261   1.363
22062TIP3   OH266070   8.436   9.177   1.543
22062TIP3    H166071   8.432   9.271   1.557
22062TIP3    H266072   8.530   9.157   1.539
22063TIP3   OH266073   2.779   0.618   1.774
22063TIP3    H166074   2.710   0.552   1.782
22063TIP3    H266075   2.854   0.579   1.820
22064TIP3   OH266076   1.541   0.814   1.261
22064TIP3    H166077   1.613   0.874   1.275
22064TIP3    H266078   1.574   0.751   1.196
22065TIP3   OH266079   1.446   0.116   1.381
22065TIP3    H166080   1.451   0.212   1.383
22065TIP3    H266081   1.358   0.098   1.347
22066TIP3   OH266082   2.793   1.546   1.732
22066TIP3    H166083   2.756   1.576   1.649
22066TIP3    H266084   2.887   1.566   1.725
22067TIP3   OH266085   1.369   1.071   1.653
22067TIP3    H166086   1.318   1.115   1.720
22067TIP3    H266087   1.340   1.109   1.570
22068TIP3   OH266088   1.991   1.095   0.902
22068TIP3    H166089   1.921   1.044   0.944
22068TIP3    H266090   2.064   1.034   0.895
22069TIP3   OH266091   2.481   1.160   0.808
22069TIP3    H166092   2.471   1.093   0.876
22069TIP3    H266093   2.574   1.182   0.809
22070TIP3   OH266094   1.665   0.625   1.108
22070TIP3    H166095   1.715   0.599   1.185
22070TIP3    H266096   1.731   0.635   1.039
22071TIP3   OH266097   2.175   0.879   0.908
22071TIP3    H166098   2.179   0.883   1.003
22071TIP3    H266099   2.184   0.785   0.888
22072TIP3   OH266100   1.841   0.568   1.317
22072TIP3    H166101   1.818   0.538   1.405
22072TIP3    H266102   1.888   0.494   1.278
22073TIP3   OH266103   1.983   0.387   1.159
22073TIP3    H166104   1.951   0.389   1.069
22073TIP3    H266105   2.078   0.397   1.151
22074TIP3   OH266106   2.780   0.668   0.845
22074TIP3    H166107   2.769   0.625   0.760
22074TIP3    H266108   2.747   0.757   0.831
22075TIP3   OH266109   1.810   1.443   1.095
22075TIP3    H166110   1.892   1.412   1.057
22075TIP3    H266111   1.761   1.477   1.021
22076TIP3   OH266112   1.267   0.817   1.264
22076TIP3    H166113   1.362   0.825   1.267
22076TIP3    H266114   1.252   0.729   1.229
22077TIP3   OH266115   1.222   1.339   1.632
22077TIP3    H166116   1.127   1.326   1.629
22077TIP3    H266117   1.246   1.321   1.723
22078TIP3   OH266118   1.293   1.248   1.880
22078TIP3    H166119   1.232   1.216   1.947
22078TIP3    H266120   1.351   1.307   1.928
22079TIP3   OH266121   3.059   1.608   1.765
22079TIP3    H166122   3.077   1.632   1.855
22079TIP3    H266123   3.128   1.546   1.742
22080TIP3   OH266124   2.934   0.875   1.169
22080TIP3    H166125   2.998   0.938   1.135
22080TIP3    H266126   2.978   0.835   1.243
22081TIP3   OH266127   3.060   0.727   1.360
22081TIP3    H166128   2.996   0.690   1.420
22081TIP3    H266129   3.132   0.756   1.416
22082TIP3   OH266130   3.009   1.043   1.785
22082TIP3    H166131   3.086   0.994   1.755
22082TIP3    H266132   3.044   1.128   1.812
22083TIP3   OH266133   2.816   1.253   2.069
22083TIP3    H166134   2.743   1.314   2.061
22083TIP3    H266135   2.826   1.215   1.981
22084TIP3   OH266136   2.985   0.649   1.021
22084TIP3    H166137   2.914   0.648   0.957
22084TIP3    H266138   2.967   0.726   1.075
22085TIP3   OH266139   2.826   0.300   0.953
22085TIP3    H166140   2.783   0.331   0.874
22085TIP3    H266141   2.820   0.204   0.948
22086TIP3   OH266142   2.864   0.598   1.509
22086TIP3    H166143   2.868   0.503   1.499
22086TIP3    H266144   2.840   0.611   1.601
22087TIP3   OH266145   2.792   0.029   0.927
22087TIP3    H166146   2.859   0.001   0.990
22087TIP3    H266147   2.711  -0.011   0.959
22088TIP3   OH266148   2.859   0.320   1.393
22088TIP3    H166149   2.905   0.238   1.406
22088TIP3    H266150   2.899   0.359   1.315
22089TIP3   OH266151   3.006   0.498   1.881
22089TIP3    H166152   3.091   0.513   1.841
22089TIP3    H266153   3.018   0.521   1.973
22090TIP3   OH266154   3.090   0.590   2.124
22090TIP3    H166155   3.072   0.608   2.216
22090TIP3    H266156   3.124   0.672   2.090
22091TIP3   OH266157   2.977   0.073   1.442
22091TIP3    H166158   3.022   0.057   1.524
22091TIP3    H266159   2.914   0.000   1.434
22092TIP3   OH266160   9.554   9.220   1.082
22092TIP3    H166161   9.603   9.160   1.026
22092TIP3    H266162   9.609   9.298   1.087
22093TIP3   OH266163   7.994   9.079   1.847
22093TIP3    H166164   7.985   9.134   1.924
22093TIP3    H266165   7.990   9.140   1.773
22094TIP3   OH266166   2.560   1.512   1.322
22094TIP3    H166167   2.619   1.502   1.247
22094TIP3    H266168   2.611   1.565   1.385
22095TIP3   OH266169   1.834   1.586   2.151
22095TIP3    H166170   1.768   1.615   2.215
22095TIP3    H266171   1.803   1.622   2.068
22096TIP3   OH266172   2.174   1.698   1.975
22096TIP3    H166173   2.100   1.682   1.917
22096TIP3    H266174   2.165   1.790   2.001
22097TIP3   OH266175   2.420   1.565   1.969
22097TIP3    H166176   2.332   1.600   1.976
22097TIP3    H266177   2.429   1.538   1.878
22098TIP3   OH266178   2.722   1.733   1.931
22098TIP3    H166179   2.733   1.820   1.892
22098TIP3    H266180   2.746   1.672   1.861
22099TIP3   OH266181   1.470   1.407   2.025
22099TIP3    H166182   1.478   1.402   2.120
22099TIP3    H266183   1.551   1.367   1.992
22100TIP3   OH266184   1.691   1.291   1.922
22100TIP3    H166185   1.705   1.205   1.962
22100TIP3    H266186   1.779   1.329   1.917
22101TIP3   OH266187   1.962   1.369   1.905
22101TIP3    H166188   1.978   1.275   1.895
22101TIP3    H266189   2.016   1.394   1.980
22102TIP3   OH266190   9.028   9.244   2.027
22102TIP3    H166191   9.017   9.160   2.072
22102TIP3    H266192   9.106   9.231   1.973
22103TIP3   OH266193   9.564   9.165   1.882
22103TIP3    H166194   9.604   9.202   1.803
22103TIP3    H266195   9.569   9.235   1.947
22104TIP3   OH266196   3.142   0.021   1.656
22104TIP3    H166197   3.211  -0.038   1.628
22104TIP3    H266198   3.177   0.108   1.642
22105TIP3   OH266199   8.118   8.889   1.664
22105TIP3    H166200   8.151   8.934   1.586
22105TIP3    H266201   8.091   8.959   1.722
22106TIP3   OH266202   8.753   9.025   1.893
22106TIP3    H166203   8.817   9.052   1.828
22106TIP3    H266204   8.722   9.107   1.932
22107TIP3   OH266205   9.269   9.193   1.909
22107TIP3    H166206   9.346   9.192   1.852
22107TIP3    H266207   9.269   9.106   1.950
22108TIP3   OH266208   9.326   9.102   1.450
22108TIP3    H166209   9.248   9.149   1.477
22108TIP3    H266210   9.316   9.015   1.487
22109TIP3   OH266211   1.287   1.183   1.409
22109TIP3    H166212   1.200   1.167   1.372
22109TIP3    H266213   1.278   1.262   1.462
22110TIP3   OH266214   8.234   9.013   1.438
22110TIP3    H166215   8.279   8.951   1.381
22110TIP3    H266216   8.304   9.066   1.476
22111TIP3   OH266217   8.710   9.200   1.528
22111TIP3    H166218   8.774   9.150   1.579
22111TIP3    H266219   8.727   9.291   1.553
22112TIP3   OH266220   2.049   1.339   1.009
22112TIP3    H166221   2.134   1.362   0.970
22112TIP3    H266222   2.023   1.259   0.963
22113TIP3   OH266223   2.706   1.469   1.094
22113TIP3    H166224   2.704   1.373   1.093
22113TIP3    H266225   2.667   1.495   1.011
22114TIP3   OH266226   1.356   1.198   1.104
22114TIP3    H166227   1.348   1.199   1.199
22114TIP3    H266228   1.437   1.149   1.087
22115TIP3   OH266229   4.197   0.922   1.047
22115TIP3    H166230   4.160   1.010   1.048
22115TIP3    H266231   4.133   0.869   0.999
22116TIP3   OH266232   4.211   1.045   1.470
22116TIP3    H166233   4.260   1.035   1.552
22116TIP3    H266234   4.231   0.965   1.421
22117TIP3   OH266235   3.486   0.811   1.779
22117TIP3    H166236   3.494   0.904   1.804
22117TIP3    H266237   3.557   0.797   1.716
22118TIP3   OH266238   4.460   1.387   1.209
22118TIP3    H166239   4.458   1.297   1.242
22118TIP3    H266240   4.551   1.415   1.220
22119TIP3   OH266241   3.487   1.344   1.528
22119TIP3    H166242   3.536   1.284   1.471
22119TIP3    H266243   3.555   1.397   1.570
22120TIP3   OH266244   3.213   0.501   1.280
22120TIP3    H166245   3.178   0.587   1.304
22120TIP3    H266246   3.139   0.454   1.242
22121TIP3   OH266247   3.291   0.788   1.491
22121TIP3    H166248   3.343   0.714   1.522
22121TIP3    H266249   3.356   0.855   1.470
22122TIP3   OH266250   4.218   1.800   1.116
22122TIP3    H166251   4.299   1.752   1.098
22122TIP3    H266252   4.234   1.843   1.200
22123TIP3   OH266253   4.102   1.278   1.564
22123TIP3    H166254   4.109   1.186   1.538
22123TIP3    H266255   4.190   1.313   1.551
22124TIP3   OH266256   4.971   0.602   1.491
22124TIP3    H166257   5.011   0.686   1.470
22124TIP3    H266258   5.033   0.537   1.458
22125TIP3   OH266259   4.476   0.739   1.444
22125TIP3    H166260   4.562   0.738   1.487
22125TIP3    H266261   4.458   0.647   1.424
22126TIP3   OH266262   3.799   0.374   1.472
22126TIP3    H166263   3.775   0.446   1.413
22126TIP3    H266264   3.752   0.299   1.436
22127TIP3   OH266265   4.485   0.384   1.052
22127TIP3    H166266   4.555   0.402   1.115
22127TIP3    H266267   4.495   0.453   0.986
22128TIP3   OH266268   3.434   0.574   1.597
22128TIP3    H166269   3.519   0.557   1.636
22128TIP3    H266270   3.430   0.515   1.521
22129TIP3   OH266271   3.838   0.754   1.368
22129TIP3    H166272   3.923   0.711   1.376
22129TIP3    H266273   3.779   0.684   1.340
22130TIP3   OH266274   3.716   0.346   1.953
22130TIP3    H166275   3.693   0.375   1.865
22130TIP3    H266276   3.655   0.276   1.973
22131TIP3   OH266277   4.113   1.175   0.992
22131TIP3    H166278   4.029   1.185   0.948
22131TIP3    H266279   4.151   1.263   0.993
22132TIP3   OH266280   3.958   1.090   1.748
22132TIP3    H166281   3.887   1.144   1.715
22132TIP3    H266282   3.983   1.035   1.674
22133TIP3   OH266283   4.672   0.475   1.230
22133TIP3    H166284   4.751   0.421   1.226
22133TIP3    H266285   4.700   0.554   1.275
22134TIP3   OH266286   3.676   0.470   1.701
22134TIP3    H166287   3.731   0.543   1.730
22134TIP3    H266288   3.724   0.432   1.627
22135TIP3   OH266289   3.109   1.039   1.038
22135TIP3    H166290   3.073   1.054   0.951
22135TIP3    H266291   3.142   1.125   1.066
22136TIP3   OH266292   4.982   0.450   1.716
22136TIP3    H166293   4.929   0.482   1.789
22136TIP3    H266294   4.990   0.526   1.658
22137TIP3   OH266295   4.131   0.047   1.637
22137TIP3    H166296   4.127  -0.046   1.662
22137TIP3    H266297   4.056   0.087   1.680
22138TIP3   OH266298   4.431   1.642   1.050
22138TIP3    H166299   4.405   1.551   1.060
22138TIP3    H266300   4.443   1.654   0.956
22139TIP3   OH266301   4.255   1.412   1.027
22139TIP3    H166302   4.324   1.399   0.961
22139TIP3    H266303   4.298   1.397   1.111
22140TIP3   OH266304   4.033   0.825   0.850
22140TIP3    H166305   3.955   0.879   0.840
22140TIP3    H266306   4.077   0.831   0.764
22141TIP3   OH266307   4.020   0.624   0.576
22141TIP3    H166308   4.086   0.679   0.616
22141TIP3    H266309   4.069   0.556   0.530
22142TIP3   OH266310   4.362   0.925   0.824
22142TIP3    H166311   4.304   0.919   0.901
22142TIP3    H266312   4.449   0.904   0.858
22143TIP3   OH266313   3.636   0.908   1.254
22143TIP3    H166314   3.597   0.850   1.189
22143TIP3    H266315   3.713   0.860   1.286
22144TIP3   OH266316   3.669   1.228   1.362
22144TIP3    H166317   3.636   1.240   1.273
22144TIP3    H266318   3.754   1.272   1.363
22145TIP3   OH266319   3.704   0.859   1.595
22145TIP3    H166320   3.735   0.807   1.521
22145TIP3    H266321   3.775   0.922   1.611
22146TIP3   OH266322   4.231   0.774   0.649
22146TIP3    H166323   4.280   0.837   0.702
22146TIP3    H266324   4.268   0.784   0.561
22147TIP3   OH266325   4.028   1.510   0.925
22147TIP3    H166326   4.111   1.481   0.964
22147TIP3    H266327   3.972   1.531   0.999
22148TIP3   OH266328   4.786   0.024   0.764
22148TIP3    H166329   4.703   0.040   0.809
22148TIP3    H266330   4.797   0.100   0.706
22149TIP3   OH266331   3.525   0.745   1.060
22149TIP3    H166332   3.449   0.794   1.028
22149TIP3    H266333   3.495   0.655   1.067
22150TIP3   OH266334   4.517   1.342   0.231
22150TIP3    H166335   4.491   1.395   0.306
22150TIP3    H266336   4.594   1.386   0.195
22151TIP3   OH266337   3.065   1.304   1.586
22151TIP3    H166338   3.138   1.243   1.595
22151TIP3    H266339   3.004   1.279   1.656
22152TIP3   OH266340   3.802   1.662   0.774
22152TIP3    H166341   3.806   1.621   0.688
22152TIP3    H266342   3.794   1.755   0.757
22153TIP3   OH266343   3.287   1.534   1.179
22153TIP3    H166344   3.367   1.523   1.231
22153TIP3    H266345   3.260   1.445   1.158
22154TIP3   OH266346   4.036   1.531   0.401
22154TIP3    H166347   4.103   1.496   0.343
22154TIP3    H266348   4.085   1.572   0.473
22155TIP3   OH266349   4.128   1.667   0.625
22155TIP3    H166350   4.106   1.708   0.709
22155TIP3    H266351   4.195   1.601   0.647
22156TIP3   OH266352   3.918   0.137   1.780
22156TIP3    H166353   3.825   0.145   1.758
22156TIP3    H266354   3.939   0.216   1.829
22157TIP3   OH266355   4.342   0.790   0.407
22157TIP3    H166356   4.297   0.796   0.322
22157TIP3    H266357   4.432   0.818   0.388
22158TIP3   OH266358   4.042   0.213   0.749
22158TIP3    H166359   4.004   0.218   0.837
22158TIP3    H266360   4.010   0.130   0.714
22159TIP3   OH266361   3.834   0.678   1.787
22159TIP3    H166362   3.875   0.697   1.872
22159TIP3    H266363   3.793   0.761   1.762
22160TIP3   OH266364   3.673   0.555   1.305
22160TIP3    H166365   3.589   0.519   1.334
22160TIP3    H266366   3.684   0.520   1.216
22161TIP3   OH266367   4.146   0.607   0.975
22161TIP3    H166368   4.096   0.676   0.931
22161TIP3    H266369   4.217   0.586   0.915
22162TIP3   OH266370   4.259   0.554   1.219
22162TIP3    H166371   4.209   0.569   1.139
22162TIP3    H266372   4.346   0.589   1.200
22163TIP3   OH266373   3.717   0.192   0.732
22163TIP3    H166374   3.703   0.190   0.827
22163TIP3    H266375   3.639   0.236   0.698
22164TIP3   OH266376   3.259   0.252   1.586
22164TIP3    H166377   3.330   0.284   1.641
22164TIP3    H266378   3.299   0.238   1.500
22165TIP3   OH266379   3.171   0.215   1.097
22165TIP3    H166380   3.217   0.250   1.021
22165TIP3    H266381   3.105   0.280   1.118
22166TIP3   OH266382   4.359   1.035   1.692
22166TIP3    H166383   4.433   1.074   1.644
22166TIP3    H266384   4.398   0.962   1.740
22167TIP3   OH266385   4.062   0.333   1.356
22167TIP3    H166386   3.986   0.353   1.410
22167TIP3    H266387   4.134   0.324   1.419
22168TIP3   OH266388   3.453   0.413   1.380
22168TIP3    H166389   3.371   0.427   1.333
22168TIP3    H266390   3.486   0.330   1.347
22169TIP3   OH266391   3.707   0.441   1.062
22169TIP3    H166392   3.802   0.448   1.058
22169TIP3    H266393   3.677   0.464   0.974
22170TIP3   OH266394   4.648   0.594   1.648
22170TIP3    H166395   4.624   0.534   1.719
22170TIP3    H266396   4.666   0.537   1.573
22171TIP3   OH266397   3.604   0.483   0.814
22171TIP3    H166398   3.544   0.429   0.762
22171TIP3    H266399   3.659   0.527   0.748
22172TIP3   OH266400   4.073   0.630   1.413
22172TIP3    H166401   4.137   0.605   1.347
22172TIP3    H266402   4.124   0.671   1.482
22173TIP3   OH266403   3.627   0.192   1.341
22173TIP3    H166404   3.602   0.118   1.396
22173TIP3    H266405   3.651   0.152   1.257
22174TIP3   OH266406   4.064   0.527   1.749
22174TIP3    H166407   3.978   0.568   1.738
22174TIP3    H266408   4.126   0.597   1.726
22175TIP3   OH266409   3.812   0.989   0.826
22175TIP3    H166410   3.735   0.934   0.811
22175TIP3    H266411   3.796   1.029   0.912
22176TIP3   OH266412   4.296   0.299   0.728
22176TIP3    H166413   4.201   0.286   0.727
22176TIP3    H266414   4.307   0.393   0.745
22177TIP3   OH266415   4.346   0.562   0.793
22177TIP3    H166416   4.441   0.567   0.802
22177TIP3    H266417   4.324   0.632   0.731
22178TIP3   OH266418   3.486   0.986   1.477
22178TIP3    H166419   3.526   0.988   1.391
22178TIP3    H266420   3.555   0.954   1.535
22179TIP3   OH266421   3.993   1.099   0.648
22179TIP3    H166422   4.000   1.193   0.663
22179TIP3    H266423   3.926   1.070   0.709
22180TIP3   OH266424   4.788   0.631   0.537
22180TIP3    H166425   4.706   0.598   0.502
22180TIP3    H266426   4.803   0.714   0.490
22181TIP3   OH266427   4.497   1.386   0.512
22181TIP3    H166428   4.476   1.304   0.557
22181TIP3    H266429   4.593   1.387   0.508
22182TIP3   OH266430   4.534   1.123   1.497
22182TIP3    H166431   4.472   1.197   1.502
22182TIP3    H266432   4.599   1.151   1.433
22183TIP3   OH266433   3.572   1.297   1.102
22183TIP3    H166434   3.591   1.386   1.073
22183TIP3    H266435   3.486   1.278   1.066
22184TIP3   OH266436   3.218   0.631   0.875
22184TIP3    H166437   3.261   0.714   0.894
22184TIP3    H266438   3.139   0.633   0.929
22185TIP3   OH266439   3.742   1.084   1.073
22185TIP3    H166440   3.682   1.159   1.073
22185TIP3    H266441   3.708   1.027   1.142
22186TIP3   OH266442   3.470   1.548   0.975
22186TIP3    H166443   3.392   1.549   1.030
22186TIP3    H266444   3.512   1.632   0.990
22187TIP3   OH266445   4.364   1.340   1.527
22187TIP3    H166446   4.354   1.362   1.620
22187TIP3    H266447   4.370   1.424   1.482
22188TIP3   OH266448   4.264   1.180   0.426
22188TIP3    H166449   4.307   1.161   0.509
22188TIP3    H266450   4.178   1.139   0.433
22189TIP3   OH266451   4.633   1.819   0.219
22189TIP3    H166452   4.684   1.742   0.195
22189TIP3    H266453   4.542   1.790   0.216
22190TIP3   OH266454   4.429   1.131   0.647
22190TIP3    H166455   4.387   1.071   0.709
22190TIP3    H266456   4.519   1.099   0.640
22191TIP3   OH266457   3.294   1.456   1.793
22191TIP3    H166458   3.377   1.416   1.766
22191TIP3    H266459   3.320   1.537   1.837
22192TIP3   OH266460   3.610   1.166   0.470
22192TIP3    H166461   3.625   1.073   0.453
22192TIP3    H266462   3.661   1.186   0.548
22193TIP3   OH266463   3.543   1.193   0.800
22193TIP3    H166464   3.635   1.170   0.807
22193TIP3    H266465   3.543   1.285   0.771
22194TIP3   OH266466   3.313   0.879   0.950
22194TIP3    H166467   3.245   0.923   1.001
22194TIP3    H266468   3.331   0.938   0.877
22195TIP3   OH266469   4.461   0.560   1.955
22195TIP3    H166470   4.458   0.654   1.974
22195TIP3    H266471   4.415   0.552   1.872
22196TIP3   OH266472   4.307   0.198   0.983
22196TIP3    H166473   4.288   0.218   0.892
22196TIP3    H266474   4.363   0.270   1.013
22197TIP3   OH266475   3.766   1.312   0.643
22197TIP3    H166476   3.700   1.380   0.659
22197TIP3    H266477   3.841   1.359   0.607
22198TIP3   OH266478   3.979   0.439   1.110
22198TIP3    H166479   4.038   0.500   1.065
22198TIP3    H266480   4.018   0.427   1.196
22199TIP3   OH266481   4.156   0.128   1.196
22199TIP3    H166482   4.135   0.210   1.242
22199TIP3    H266483   4.212   0.155   1.123
22200TIP3   OH266484   3.553   1.460   0.731
22200TIP3    H166485   3.536   1.534   0.673
22200TIP3    H266486   3.523   1.491   0.817
22201TIP3   OH266487   3.676   0.171   1.013
22201TIP3    H166488   3.666   0.262   1.039
22201TIP3    H266489   3.770   0.155   1.014
22202TIP3   OH266490   4.573   0.932   1.233
22202TIP3    H166491   4.560   0.842   1.262
22202TIP3    H266492   4.667   0.945   1.239
22203TIP3   OH266493   3.314   1.062   0.737
22203TIP3    H166494   3.386   1.120   0.761
22203TIP3    H266495   3.350   1.005   0.669
22204TIP3   OH266496   3.247   0.356   0.877
22204TIP3    H166497   3.254   0.451   0.882
22204TIP3    H266498   3.200   0.340   0.795
22205TIP3   OH266499   3.639   0.098   1.743
22205TIP3    H166500   3.619   0.067   1.655
22205TIP3    H266501   3.631   0.020   1.798
22206TIP3   OH266502   3.177   1.296   1.098
22206TIP3    H166503   3.118   1.317   1.171
22206TIP3    H266504   3.140   1.343   1.023
22207TIP3   OH266505   3.744   1.368   0.340
22207TIP3    H166506   3.707   1.290   0.380
22207TIP3    H266507   3.828   1.339   0.304
22208TIP3   OH266508   4.220   1.392   0.255
22208TIP3    H166509   4.252   1.324   0.315
22208TIP3    H266510   4.282   1.392   0.183
22209TIP3   OH266511   3.444   0.876   0.584
22209TIP3    H166512   3.492   0.848   0.662
22209TIP3    H266513   3.511   0.886   0.517
22210TIP3   OH266514   4.009   1.065   0.381
22210TIP3    H166515   3.989   1.071   0.474
22210TIP3    H266516   4.002   0.972   0.361
22211TIP3   OH266517   3.610   0.806   0.795
22211TIP3    H166518   3.593   0.770   0.882
22211TIP3    H266519   3.660   0.738   0.750
22212TIP3   OH266520   3.752   0.629   0.636
22212TIP3    H166521   3.724   0.632   0.545
22212TIP3    H266522   3.847   0.624   0.632
22213TIP3   OH266523   4.576   0.896   0.303
22213TIP3    H166524   4.542   0.876   0.216
22213TIP3    H266525   4.565   0.991   0.311
22214TIP3   OH266526   4.004   0.342   1.945
22214TIP3    H166527   4.016   0.420   1.891
22214TIP3    H266528   3.920   0.357   1.988
22215TIP3   OH266529   3.550   1.689   0.575
22215TIP3    H166530   3.641   1.669   0.557
22215TIP3    H266531   3.513   1.714   0.491
22216TIP3   OH266532   3.042   1.059   0.765
22216TIP3    H166533   3.135   1.075   0.756
22216TIP3    H266534   3.026   0.976   0.721
22217TIP3   OH266535   2.927   1.601   1.178
22217TIP3    H166536   2.856   1.559   1.129
22217TIP3    H266537   2.973   1.529   1.221
22218TIP3   OH266538   3.048   1.396   1.316
22218TIP3    H166539   3.016   1.343   1.389
22218TIP3    H266540   3.117   1.450   1.355
22219TIP3   OH266541   4.703   1.078   0.639
22219TIP3    H166542   4.691   1.119   0.553
22219TIP3    H266543   4.782   1.120   0.674
22220TIP3   OH266544   4.863   0.966   0.959
22220TIP3    H166545   4.777   1.007   0.949
22220TIP3    H266546   4.863   0.931   1.048
22221TIP3   OH266547   4.801   0.891   0.455
22221TIP3    H166548   4.728   0.887   0.394
22221TIP3    H266549   4.769   0.945   0.528
22222TIP3   OH266550   4.558   0.545   0.421
22222TIP3    H166551   4.525   0.553   0.331
22222TIP3    H266552   4.574   0.451   0.432
22223TIP3   OH266553   4.583   0.865   0.966
22223TIP3    H166554   4.662   0.813   0.978
22223TIP3    H266555   4.567   0.906   1.051
22224TIP3   OH266556   3.221   0.863   1.744
22224TIP3    H166557   3.210   0.842   1.652
22224TIP3    H266558   3.315   0.854   1.759
22225TIP3   OH266559   4.596   0.278   0.433
22225TIP3    H166560   4.657   0.243   0.498
22225TIP3    H266561   4.515   0.229   0.448
22226TIP3   OH266562   4.613   0.553   0.853
22226TIP3    H166563   4.660   0.470   0.860
22226TIP3    H266564   4.680   0.618   0.834
22227TIP3   OH266565   4.754   0.700   1.368
22227TIP3    H166566   4.834   0.660   1.402
22227TIP3    H266567   4.742   0.779   1.420
22228TIP3   OH266568   4.745   0.316   0.909
22228TIP3    H166569   4.809   0.270   0.963
22228TIP3    H266570   4.671   0.255   0.902
22229TIP3   OH266571   3.463   0.305   1.769
22229TIP3    H166572   3.515   0.225   1.762
22229TIP3    H266573   3.522   0.374   1.742
22230TIP3   OH266574   3.269   0.569   1.826
22230TIP3    H166575   3.319   0.558   1.745
22230TIP3    H266576   3.275   0.663   1.846
22231TIP3   OH266577   4.838   0.226   0.587
22231TIP3    H166578   4.870   0.170   0.517
22231TIP3    H266579   4.885   0.309   0.575
22232TIP3   OH266580   3.251   0.095   1.327
22232TIP3    H166581   3.166   0.077   1.367
22232TIP3    H266582   3.230   0.143   1.247
22233TIP3   OH266583   4.450   1.884   0.892
22233TIP3    H166584   4.472   1.821   0.824
22233TIP3    H266585   4.522   1.877   0.955
22234TIP3   OH266586   3.446   0.135   2.116
22234TIP3    H166587   3.449   0.164   2.207
22234TIP3    H266588   3.386   0.196   2.073
22235TIP3   OH266589   3.726   1.745   1.604
22235TIP3    H166590   3.762   1.753   1.693
22235TIP3    H266591   3.701   1.835   1.581
22236TIP3   OH266592   3.409   1.678   1.579
22236TIP3    H166593   3.388   1.689   1.671
22236TIP3    H266594   3.349   1.609   1.549
22237TIP3   OH266595   3.520   1.516   1.310
22237TIP3    H166596   3.506   1.459   1.386
22237TIP3    H266597   3.613   1.540   1.315
22238TIP3   OH266598   3.767   1.630   1.329
22238TIP3    H166599   3.847   1.622   1.278
22238TIP3    H266600   3.791   1.685   1.403
22239TIP3   OH266601   4.285   0.234   1.494
22239TIP3    H166602   4.242   0.163   1.542
22239TIP3    H266603   4.349   0.189   1.438
22240TIP3   OH266604   4.795   0.075   1.392
22240TIP3    H166605   4.844   0.132   1.451
22240TIP3    H266606   4.709   0.116   1.386
22241TIP3   OH266607   4.941   0.190   1.045
22241TIP3    H166608   4.942   0.096   1.028
22241TIP3    H266609   5.030   0.219   1.029
22242TIP3   OH266610   0.292   9.221   1.506
22242TIP3    H166611   0.202   9.188   1.512
22242TIP3    H266612   0.346   9.142   1.496
22243TIP3   OH266613   0.112   9.135   1.166
22243TIP3    H166614   0.133   9.179   1.083
22243TIP3    H266615   0.076   9.203   1.221
22244TIP3   OH266616   4.002   0.008   1.391
22244TIP3    H166617   4.051   0.050   1.321
22244TIP3    H266618   4.048   0.033   1.471
22245TIP3   OH266619   4.506   0.143   1.328
22245TIP3    H166620   4.496   0.157   1.233
22245TIP3    H266621   4.499   0.048   1.339
22246TIP3   OH266622   4.566   0.101   0.913
22246TIP3    H166623   4.477   0.136   0.918
22246TIP3    H266624   4.560   0.015   0.954
22247TIP3   OH266625   3.057   1.435   0.899
22247TIP3    H166626   2.970   1.401   0.877
22247TIP3    H266627   3.056   1.526   0.870
22248TIP3   OH266628   3.471   0.010   0.919
22248TIP3    H166629   3.518  -0.052   0.863
22248TIP3    H266630   3.540   0.066   0.956
22249TIP3   OH266631   3.947   0.189   1.008
22249TIP3    H166632   4.002   0.129   1.058
22249TIP3    H266633   3.962   0.275   1.048
22250TIP3   OH266634   3.792   1.578   0.507
22250TIP3    H166635   3.882   1.583   0.474
22250TIP3    H266636   3.749   1.514   0.450
22251TIP3   OH266637   4.480   1.697   0.703
22251TIP3    H166638   4.549   1.638   0.673
22251TIP3    H266639   4.450   1.741   0.623
22252TIP3   OH266640   3.165   1.448   0.581
22252TIP3    H166641   3.170   1.449   0.676
22252TIP3    H266642   3.245   1.402   0.553
22253TIP3   OH266643   4.821   0.731   0.786
22253TIP3    H166644   4.811   0.826   0.786
22253TIP3    H266645   4.810   0.705   0.695
22254TIP3   OH266646   5.112   1.122   1.028
22254TIP3    H166647   5.110   1.026   1.020
22254TIP3    H266648   5.158   1.152   0.950
22255TIP3   OH266649   5.658   0.564   0.896
22255TIP3    H166650   5.628   0.652   0.872
22255TIP3    H266651   5.584   0.507   0.872
22256TIP3   OH266652   5.223   0.843   1.078
22256TIP3    H166653   5.275   0.887   1.011
22256TIP3    H266654   5.216   0.752   1.048
22257TIP3   OH266655   4.981   1.227   0.502
22257TIP3    H166656   4.915   1.219   0.433
22257TIP3    H266657   5.008   1.318   0.498
22258TIP3   OH266658   5.839   0.905   0.088
22258TIP3    H166659   5.884   0.980   0.127
22258TIP3    H266660   5.909   0.847   0.059
22259TIP3   OH266661   6.527   0.283   0.202
22259TIP3    H166662   6.467   0.299   0.275
22259TIP3    H266663   6.545   0.370   0.166
22260TIP3   OH266664   5.321   0.915   0.500
22260TIP3    H166665   5.296   0.876   0.416
22260TIP3    H266666   5.384   0.853   0.537
22261TIP3   OH266667   9.336   5.678   7.902
22261TIP3    H166668   9.338   5.666   7.807
22261TIP3    H266669   9.427   5.664   7.930
22262TIP3   OH266670   5.848   0.454   0.252
22262TIP3    H166671   5.811   0.462   0.339
22262TIP3    H266672   5.807   0.375   0.216
22263TIP3   OH266673   5.531   0.780   0.787
22263TIP3    H166674   5.450   0.821   0.815
22263TIP3    H266675   5.512   0.745   0.700
22264TIP3   OH266676   5.516   0.453   0.218
22264TIP3    H166677   5.501   0.446   0.313
22264TIP3    H266678   5.435   0.490   0.184
22265TIP3   OH266679   5.171   0.362   1.039
22265TIP3    H166680   5.219   0.436   1.076
22265TIP3    H266681   5.205   0.353   0.950
22266TIP3   OH266682   4.995   0.456   0.572
22266TIP3    H166683   5.049   0.486   0.499
22266TIP3    H266684   4.922   0.517   0.574
22267TIP3   OH266685   5.279   0.615   0.916
22267TIP3    H166686   5.223   0.654   0.849
22267TIP3    H266687   5.340   0.559   0.868
22268TIP3   OH266688   5.499   0.700   0.521
22268TIP3    H166689   5.593   0.717   0.510
22268TIP3    H266690   5.463   0.709   0.433
22269TIP3   OH266691   5.382   0.749   0.278
22269TIP3    H166692   5.331   0.688   0.226
22269TIP3    H266693   5.446   0.785   0.217
22270TIP3   OH266694   5.440   0.424   0.791
22270TIP3    H166695   5.430   0.342   0.839
22270TIP3    H266696   5.451   0.397   0.699
22271TIP3   OH266697   5.672   1.239   0.308
22271TIP3    H166698   5.601   1.180   0.282
22271TIP3    H266699   5.650   1.323   0.269
22272TIP3   OH266700   6.072   0.602   0.236
22272TIP3    H166701   5.987   0.557   0.234
22272TIP3    H266702   6.069   0.663   0.163
22273TIP3   OH266703   5.037   0.855   0.319
22273TIP3    H166704   5.083   0.939   0.322
22273TIP3    H266705   4.957   0.870   0.369
22274TIP3   OH266706   8.795   6.033   7.961
22274TIP3    H166707   8.762   5.952   7.922
22274TIP3    H266708   8.754   6.037   8.047
22275TIP3   OH266709   5.415   1.384   0.205
22275TIP3    H166710   5.388   1.306   0.253
22275TIP3    H266711   5.371   1.456   0.249
22276TIP3   OH266712   5.153   1.099   0.334
22276TIP3    H166713   5.100   1.163   0.383
22276TIP3    H266714   5.164   1.139   0.248
22277TIP3   OH266715   6.154   0.532   0.486
22277TIP3    H166716   6.121   0.552   0.399
22277TIP3    H266717   6.227   0.593   0.499
22278TIP3   OH266718   5.772   0.761   0.531
22278TIP3    H166719   5.859   0.786   0.500
22278TIP3    H266720   5.734   0.843   0.564
22279TIP3   OH266721   5.983   0.428   0.677
22279TIP3    H166722   6.028   0.457   0.757
22279TIP3    H266723   6.040   0.459   0.607
22280TIP3   OH266724   5.490   0.422   0.500
22280TIP3    H166725   5.474   0.514   0.521
22280TIP3    H266726   5.585   0.413   0.506
22281TIP3   OH266727   5.095   1.323   0.145
22281TIP3    H166728   5.114   1.403   0.095
22281TIP3    H266729   5.152   1.257   0.106
22282TIP3   OH266730   5.077   0.587   0.348
22282TIP3    H166731   5.077   0.682   0.343
22282TIP3    H266732   5.026   0.559   0.272
22283TIP3   OH266733   5.480   0.300   1.193
22283TIP3    H166734   5.460   0.269   1.105
22283TIP3    H266735   5.485   0.221   1.246
22284TIP3   OH266736   4.965   1.629   0.637
22284TIP3    H166737   4.875   1.625   0.670
22284TIP3    H266738   4.956   1.659   0.546
22285TIP3   OH266739   8.909   6.264   7.828
22285TIP3    H166740   8.901   6.188   7.885
22285TIP3    H266741   8.946   6.332   7.884
22286TIP3   OH266742   5.265   1.123   0.070
22286TIP3    H166743   5.323   1.094   0.140
22286TIP3    H266744   5.323   1.142  -0.004
22287TIP3   OH266745   9.053   5.977   7.894
22287TIP3    H166746   8.966   5.993   7.930
22287TIP3    H266747   9.060   5.882   7.889
22288TIP3   OH266748   5.450   1.076   0.277
22288TIP3    H166749   5.414   1.040   0.358
22288TIP3    H266750   5.494   1.002   0.235
22289TIP3   OH266751   5.567   0.879   0.124
22289TIP3    H166752   5.540   0.885   0.033
22289TIP3    H266753   5.662   0.878   0.121
22290TIP3   OH266754   4.870   1.205   0.251
22290TIP3    H166755   4.929   1.265   0.206
22290TIP3    H266756   4.853   1.135   0.187
22291TIP3   OH266757   9.557   5.469   7.908
22291TIP3    H166758   9.554   5.465   7.813
22291TIP3    H266759   9.598   5.387   7.935
22292TIP3   OH266760   9.623   5.204   7.935
22292TIP3    H166761   9.699   5.174   7.984
22292TIP3    H266762   9.554   5.140   7.957
22293TIP3   OH266763   5.296   0.537   1.215
22293TIP3    H166764   5.359   0.467   1.230
22293TIP3    H266765   5.342   0.617   1.239
22294TIP3   OH266766   5.045   0.831   1.369
22294TIP3    H166767   5.062   0.778   1.291
22294TIP3    H266768   5.076   0.918   1.345
22295TIP3   OH266769   6.592   0.517   0.066
22295TIP3    H166770   6.635   0.454   0.010
22295TIP3    H266771   6.659   0.582   0.086
22296TIP3   OH266772   5.075   0.292   0.773
22296TIP3    H166773   4.990   0.248   0.780
22296TIP3    H266774   5.062   0.360   0.708
22297TIP3   OH266775   5.396   0.198   0.942
22297TIP3    H166776   5.308   0.162   0.950
22297TIP3    H266777   5.455   0.124   0.959
22298TIP3   OH266778   5.222   0.108   0.622
22298TIP3    H166779   5.234   0.154   0.539
22298TIP3    H266780   5.179   0.171   0.679
22299TIP3   OH266781   5.788   0.322   0.854
22299TIP3    H166782   5.851   0.351   0.788
22299TIP3    H266783   5.751   0.403   0.889
22300TIP3   OH266784   6.350   0.343   0.405
22300TIP3    H166785   6.274   0.393   0.435
22300TIP3    H266786   6.345   0.260   0.452
22301TIP3   OH266787   4.938   1.705   0.370
22301TIP3    H166788   4.872   1.658   0.320
22301TIP3    H266789   4.911   1.797   0.365
22302TIP3   OH266790   5.284   0.261   0.394
22302TIP3    H166791   5.329   0.203   0.332
22302TIP3    H266792   5.354   0.313   0.433
22303TIP3   OH266793   5.760   0.485   0.515
22303TIP3    H166794   5.827   0.450   0.574
22303TIP3    H266795   5.764   0.580   0.528
22304TIP3   OH266796   4.898   1.758   0.015
22304TIP3    H166797   4.913   1.839   0.063
22304TIP3    H266798   4.871   1.695   0.081
22305TIP3   OH266799   8.721   2.461   1.560
22305TIP3    H166800   8.720   2.552   1.530
22305TIP3    H266801   8.786   2.418   1.503
22306TIP3   OH266802   8.510   1.837   1.628
22306TIP3    H166803   8.466   1.871   1.550
22306TIP3    H266804   8.533   1.915   1.678
22307TIP3   OH266805   8.605   2.604   1.775
22307TIP3    H166806   8.532   2.542   1.776
22307TIP3    H266807   8.675   2.558   1.729
22308TIP3   OH266808   8.381   2.202   1.586
22308TIP3    H166809   8.341   2.141   1.648
22308TIP3    H266810   8.313   2.218   1.521
22309TIP3   OH266811   8.699   2.740   1.547
22309TIP3    H166812   8.679   2.826   1.510
22309TIP3    H266813   8.650   2.737   1.629
22310TIP3   OH266814   8.297   2.631   1.560
22310TIP3    H166815   8.305   2.608   1.653
22310TIP3    H266816   8.342   2.561   1.514
22311TIP3   OH266817   8.012   2.062   1.814
22311TIP3    H166818   7.979   2.151   1.805
22311TIP3    H266819   8.101   2.066   1.778
22312TIP3   OH266820   8.770   1.932   1.458
22312TIP3    H166821   8.714   1.863   1.422
22312TIP3    H266822   8.711   2.007   1.468
22313TIP3   OH266823   8.882   1.928   1.708
22313TIP3    H166824   8.831   1.924   1.627
22313TIP3    H266825   8.825   1.888   1.774
22314TIP3   OH266826   8.730   1.624   1.630
22314TIP3    H166827   8.744   1.633   1.536
22314TIP3    H266828   8.813   1.591   1.665
22315TIP3   OH266829   0.288   2.345   1.715
22315TIP3    H166830   0.252   2.427   1.684
22315TIP3    H266831   0.223   2.279   1.690
22316TIP3   OH266832   0.567   2.617   1.803
22316TIP3    H166833   0.577   2.544   1.865
22316TIP3    H266834   0.590   2.695   1.854
22317TIP3   OH266835   0.179   3.052   1.794
22317TIP3    H166836   0.233   2.996   1.738
22317TIP3    H266837   0.098   3.002   1.807
22318TIP3   OH266838   1.123   1.891   2.145
22318TIP3    H166839   1.113   1.975   2.100
22318TIP3    H266840   1.202   1.852   2.108
22319TIP3   OH266841   0.581   1.777   1.778
22319TIP3    H166842   0.647   1.767   1.846
22319TIP3    H266843   0.629   1.815   1.704
22320TIP3   OH266844   0.178   2.557   1.574
22320TIP3    H166845   0.139   2.531   1.491
22320TIP3    H266846   0.125   2.631   1.604
22321TIP3   OH266847   0.761   1.780   1.984
22321TIP3    H166848   0.737   1.747   2.071
22321TIP3    H266849   0.800   1.866   2.002
22322TIP3   OH266850   8.994   2.330   1.720
22322TIP3    H166851   8.970   2.348   1.629
22322TIP3    H266852   8.994   2.416   1.762
22323TIP3   OH266853   0.605   2.837   1.969
22323TIP3    H166854   0.521   2.834   2.016
22323TIP3    H266855   0.602   2.920   1.922
22324TIP3   OH266856   0.302   2.897   1.596
22324TIP3    H166857   0.353   2.816   1.590
22324TIP3    H266858   0.364   2.966   1.570
22325TIP3   OH266859   0.441   2.665   1.563
22325TIP3    H166860   0.365   2.606   1.566
22325TIP3    H266861   0.492   2.642   1.640
22326TIP3   OH266862   0.129   2.168   1.568
22326TIP3    H166863   0.046   2.210   1.546
22326TIP3    H266864   0.176   2.162   1.484
22327TIP3   OH266865   0.088   1.974   1.256
22327TIP3    H166866   0.155   2.022   1.306
22327TIP3    H266867   0.137   1.904   1.213
22328TIP3   OH266868   1.053   2.382   2.095
22328TIP3    H166869   0.970   2.413   2.130
22328TIP3    H266870   1.072   2.441   2.022
22329TIP3   OH266871   0.472   2.258   1.530
22329TIP3    H166872   0.419   2.292   1.603
22329TIP3    H266873   0.553   2.229   1.571
22330TIP3   OH266874   9.523   2.211   1.905
22330TIP3    H166875   9.480   2.153   1.841
22330TIP3    H266876   9.523   2.160   1.986
22331TIP3   OH266877   9.654   2.669   2.040
22331TIP3    H166878   9.587   2.665   1.970
22331TIP3    H266879   9.724   2.613   2.008
22332TIP3   OH266880   0.357   2.843   2.087
22332TIP3    H166881   0.298   2.910   2.053
22332TIP3    H266882   0.300   2.770   2.111
22333TIP3   OH266883   0.311   2.115   1.358
22333TIP3    H166884   0.370   2.174   1.405
22333TIP3    H266885   0.342   2.117   1.268
22334TIP3   OH266886   0.046   2.804   1.617
22334TIP3    H166887   0.134   2.841   1.609
22334TIP3    H266888  -0.009   2.864   1.567
22335TIP3   OH266889   0.828   1.333   1.416
22335TIP3    H166890   0.757   1.359   1.474
22335TIP3    H266891   0.837   1.405   1.354
22336TIP3   OH266892   9.396   2.046   1.721
22336TIP3    H166893   9.317   2.089   1.688
22336TIP3    H266894   9.375   1.953   1.721
22337TIP3   OH266895   0.643   2.716   0.972
22337TIP3    H166896   0.638   2.810   0.953
22337TIP3    H266897   0.733   2.692   0.948
22338TIP3   OH266898   9.701   2.986   1.443
22338TIP3    H166899   9.699   2.962   1.350
22338TIP3    H266900   9.614   3.021   1.461
22339TIP3   OH266901   0.154   2.941   1.074
22339TIP3    H166902   0.209   2.869   1.043
22339TIP3    H266903   0.183   2.955   1.165
22340TIP3   OH266904   0.179   2.988   1.352
22340TIP3    H166905   0.091   2.993   1.389
22340TIP3    H266906   0.233   2.954   1.423
22341TIP3   OH266907   0.392   2.082   1.097
22341TIP3    H166908   0.346   2.087   1.013
22341TIP3    H266909   0.473   2.131   1.083
22342TIP3   OH266910   0.106   1.517   1.415
22342TIP3    H166911   0.076   1.519   1.506
22342TIP3    H266912   0.064   1.440   1.377
22343TIP3   OH266913   0.245   1.955   1.697
22343TIP3    H166914   0.202   2.032   1.661
22343TIP3    H266915   0.305   1.926   1.628
22344TIP3   OH266916   0.438   1.980   1.900
22344TIP3    H166917   0.359   1.987   1.847
22344TIP3    H266918   0.481   1.900   1.868
22345TIP3   OH266919   9.568   1.508   1.385
22345TIP3    H166920   9.564   1.501   1.480
22345TIP3    H266921   9.487   1.554   1.361
22346TIP3   OH266922   8.977   1.548   1.723
22346TIP3    H166923   9.036   1.578   1.654
22346TIP3    H266924   9.026   1.563   1.805
22347TIP3   OH266925   9.563   1.739   1.728
22347TIP3    H166926   9.654   1.769   1.726
22347TIP3    H266927   9.526   1.768   1.644
22348TIP3   OH266928   9.451   1.802   1.484
22348TIP3    H166929   9.389   1.749   1.433
22348TIP3    H266930   9.512   1.837   1.419
22349TIP3   OH266931   9.692   2.300   1.507
22349TIP3    H166932   9.620   2.239   1.489
22349TIP3    H266933   9.672   2.335   1.594
22350TIP3   OH266934   0.814   2.518   2.129
22350TIP3    H166935   0.836   2.599   2.083
22350TIP3    H266936   0.731   2.491   2.091
22351TIP3   OH266937   0.356   1.625   1.408
22351TIP3    H166938   0.263   1.601   1.410
22351TIP3    H266939   0.357   1.719   1.425
22352TIP3   OH266940   0.415   1.886   1.488
22352TIP3    H166941   0.509   1.890   1.502
22352TIP3    H266942   0.395   1.964   1.435
22353TIP3   OH266943   9.810   2.491   1.355
22353TIP3    H166944   9.752   2.567   1.364
22353TIP3    H266945   9.767   2.422   1.406
22354TIP3   OH266946   0.800   1.985   1.311
22354TIP3    H166947   0.773   1.927   1.240
22354TIP3    H266948   0.812   2.070   1.269
22355TIP3   OH266949   0.573   2.785   1.245
22355TIP3    H166950   0.540   2.723   1.309
22355TIP3    H266951   0.581   2.734   1.164
22356TIP3   OH266952   0.583   2.419   2.000
22356TIP3    H166953   0.490   2.406   2.020
22356TIP3    H266954   0.613   2.333   1.971
22357TIP3   OH266955   9.485   2.639   1.817
22357TIP3    H166956   9.491   2.708   1.751
22357TIP3    H266957   9.391   2.623   1.826
22358TIP3   OH266958   9.080   1.939   1.511
22358TIP3    H166959   9.127   2.021   1.526
22358TIP3    H266960   9.015   1.936   1.581
22359TIP3   OH266961   9.616   2.408   1.740
22359TIP3    H166962   9.580   2.491   1.772
22359TIP3    H266963   9.589   2.344   1.806
22360TIP3   OH266964   9.472   2.848   1.637
22360TIP3    H166965   9.424   2.883   1.562
22360TIP3    H266966   9.492   2.925   1.691
22361TIP3   OH266967   0.333   2.519   1.119
22361TIP3    H166968   0.383   2.488   1.194
22361TIP3    H266969   0.248   2.477   1.127
22362TIP3   OH266970   0.653   2.988   0.930
22362TIP3    H166971   0.697   3.062   0.888
22362TIP3    H266972   0.574   3.027   0.969
22363TIP3   OH266973   0.499   2.424   1.312
22363TIP3    H166974   0.484   2.377   1.393
22363TIP3    H266975   0.594   2.437   1.308
22364TIP3   OH266976   9.491   2.473   1.135
22364TIP3    H166977   9.500   2.381   1.109
22364TIP3    H266978   9.477   2.469   1.230
22365TIP3   OH266979   9.460   2.491   1.411
22365TIP3    H166980   9.505   2.443   1.480
22365TIP3    H266981   9.507   2.574   1.405
22366TIP3   OH266982   9.189   2.179   1.599
22366TIP3    H166983   9.123   2.217   1.658
22366TIP3    H266984   9.206   2.247   1.535
22367TIP3   OH266985   0.436   1.572   1.669
22367TIP3    H166986   0.411   1.590   1.579
22367TIP3    H266987   0.477   1.654   1.699
22368TIP3   OH266988   9.630   2.702   1.392
22368TIP3    H166989   9.609   2.759   1.466
22368TIP3    H266990   9.651   2.763   1.321
22369TIP3   OH266991   0.043   1.782   1.765
22369TIP3    H166992   0.112   1.839   1.732
22369TIP3    H266993   0.041   1.797   1.859
22370TIP3   OH266994   0.254   1.469   1.845
22370TIP3    H166995   0.286   1.500   1.930
22370TIP3    H266996   0.316   1.505   1.782
22371TIP3   OH266997   9.559   1.471   1.657
22371TIP3    H166998   9.540   1.556   1.698
22371TIP3    H266999   9.653   1.459   1.671
22372TIP3   OH267000   0.642   2.159   1.930
22372TIP3    H167001   0.567   2.101   1.932
22372TIP3    H267002   0.709   2.114   1.983
22373TIP3   OH267003   9.209   2.378   1.400
22373TIP3    H167004   9.282   2.439   1.410
22373TIP3    H267005   9.238   2.316   1.334
22374TIP3   OH267006   9.111   1.664   1.516
22374TIP3    H167007   9.119   1.759   1.522
22374TIP3    H267008   9.064   1.649   1.435
22375TIP3   OH267009   0.612   3.089   1.867
22375TIP3    H167010   0.568   3.151   1.809
22375TIP3    H267011   0.704   3.115   1.863
22376TIP3   OH267012   8.967   2.584   1.829
22376TIP3    H167013   9.009   2.649   1.885
22376TIP3    H267014   8.968   2.624   1.741
22377TIP3   OH267015   9.633   2.678   1.025
22377TIP3    H167016   9.585   2.606   1.067
22377TIP3    H267017   9.712   2.637   0.990
22378TIP3   OH267018   0.284   2.731   0.954
22378TIP3    H167019   0.316   2.665   1.015
22378TIP3    H267020   0.343   2.724   0.879
22379TIP3   OH267021   9.317   2.179   1.250
22379TIP3    H167022   9.366   2.153   1.329
22379TIP3    H267023   9.384   2.188   1.182
22380TIP3   OH267024   0.080   2.409   1.101
22380TIP3    H167025   0.047   2.428   1.189
22380TIP3    H267026   0.056   2.317   1.086
22381TIP3   OH267027   9.489   2.121   1.464
22381TIP3    H167028   9.463   2.086   1.550
22381TIP3    H267029   9.533   2.047   1.421
22382TIP3   OH267030   9.618   1.933   1.308
22382TIP3    H167031   9.589   1.934   1.217
22382TIP3    H267032   9.713   1.942   1.303
22383TIP3   OH267033   0.605   2.227   0.990
22383TIP3    H167034   0.593   2.185   0.905
22383TIP3    H267035   0.582   2.318   0.976
22384TIP3   OH267036   8.945   2.343   1.448
22384TIP3    H167037   9.035   2.365   1.424
22384TIP3    H267038   8.924   2.266   1.395
22385TIP3   OH267039   0.874   3.175   1.866
22385TIP3    H167040   0.897   3.181   1.959
22385TIP3    H267041   0.851   3.264   1.841
22386TIP3   OH267042   0.775   2.439   1.319
22386TIP3    H167043   0.835   2.509   1.293
22386TIP3    H267044   0.815   2.402   1.398
22387TIP3   OH267045   0.888   2.299   1.527
22387TIP3    H167046   0.817   2.254   1.573
22387TIP3    H267047   0.949   2.325   1.596
22388TIP3   OH267048   0.931   2.728   1.981
22388TIP3    H167049   0.993   2.662   1.948
22388TIP3    H267050   0.908   2.780   1.904
22389TIP3   OH267051   0.804   2.976   2.132
22389TIP3    H167052   0.711   2.989   2.112
22389TIP3    H267053   0.825   2.891   2.094
22390TIP3   OH267054   0.818   2.218   1.162
22390TIP3    H167055   0.744   2.213   1.101
22390TIP3    H267056   0.798   2.294   1.217
22391TIP3   OH267057   0.702   1.855   1.082
22391TIP3    H167058   0.641   1.884   1.014
22391TIP3    H267059   0.693   1.760   1.084
22392TIP3   OH267060   0.694   2.155   1.658
22392TIP3    H167061   0.698   2.061   1.639
22392TIP3    H267062   0.680   2.159   1.753
22393TIP3   OH267063   0.636   1.583   1.068
22393TIP3    H167064   0.698   1.560   1.137
22393TIP3    H267065   0.552   1.550   1.099
22394TIP3   OH267066   0.697   1.892   1.547
22394TIP3    H167067   0.749   1.814   1.562
22394TIP3    H267068   0.732   1.930   1.467
22395TIP3   OH267069   0.848   2.032   2.065
22395TIP3    H167070   0.930   2.063   2.026
22395TIP3    H267071   0.867   2.025   2.159
22396TIP3   OH267072   0.837   1.666   1.597
22396TIP3    H167073   0.930   1.665   1.577
22396TIP3    H267074   0.812   1.573   1.600
22397TIP3   OH267075   0.851   1.529   1.228
22397TIP3    H167076   0.897   1.466   1.173
22397TIP3    H267077   0.911   1.604   1.234
22398TIP3   OH267078   0.464   3.082   1.496
22398TIP3    H167079   0.520   3.083   1.418
22398TIP3    H267080   0.503   3.150   1.553
22399TIP3   OH267081   0.884   1.500   1.987
22399TIP3    H167082   0.923   1.584   1.966
22399TIP3    H267083   0.790   1.517   1.993
22400TIP3   OH267084   0.607   1.481   1.950
22400TIP3    H167085   0.583   1.517   1.865
22400TIP3    H267086   0.633   1.391   1.932
22401TIP3   OH267087   0.654   1.417   1.605
22401TIP3    H167088   0.575   1.469   1.619
22401TIP3    H267089   0.632   1.330   1.637
22402TIP3   OH267090   8.968   2.698   1.579
22402TIP3    H167091   8.877   2.723   1.569
22402TIP3    H267092   9.007   2.716   1.493
22403TIP3   OH267093   9.349   1.328   1.540
22403TIP3    H167094   9.398   1.263   1.490
22403TIP3    H267095   9.416   1.372   1.593
22404TIP3   OH267096   0.034   1.518   1.682
22404TIP3    H167097   0.100   1.480   1.740
22404TIP3    H267098   0.031   1.611   1.706
22405TIP3   OH267099   9.709   2.882   1.190
22405TIP3    H167100   9.787   2.915   1.145
22405TIP3    H267101   9.667   2.825   1.126
22406TIP3   OH267102   0.609   3.055   1.260
22406TIP3    H167103   0.600   2.960   1.259
22406TIP3    H267104   0.559   3.085   1.184
22407TIP3   OH267105   8.996   2.776   1.298
22407TIP3    H167106   9.010   2.870   1.299
22407TIP3    H267107   9.076   2.740   1.259
22408TIP3   OH267108   2.048   2.605   1.193
22408TIP3    H167109   2.032   2.678   1.133
22408TIP3    H267110   1.991   2.535   1.162
22409TIP3   OH267111   1.949   2.522   1.609
22409TIP3    H167112   1.996   2.521   1.692
22409TIP3    H267113   1.940   2.429   1.585
22410TIP3   OH267114   1.378   2.504   1.906
22410TIP3    H167115   1.400   2.462   1.989
22410TIP3    H267116   1.447   2.570   1.895
22411TIP3   OH267117   2.315   2.796   1.283
22411TIP3    H167118   2.240   2.767   1.334
22411TIP3    H267119   2.339   2.880   1.322
22412TIP3   OH267120   1.381   2.859   1.700
22412TIP3    H167121   1.328   2.779   1.707
22412TIP3    H267122   1.460   2.832   1.655
22413TIP3   OH267123   1.070   2.102   1.440
22413TIP3    H167124   1.002   2.167   1.458
22413TIP3    H267125   1.022   2.021   1.424
22414TIP3   OH267126   1.119   2.348   1.676
22414TIP3    H167127   1.164   2.273   1.714
22414TIP3    H267128   1.164   2.364   1.594
22415TIP3   OH267129   1.973   3.300   1.195
22415TIP3    H167130   2.028   3.226   1.166
22415TIP3    H267131   2.013   3.328   1.277
22416TIP3   OH267132   1.815   2.728   1.721
22416TIP3    H167133   1.847   2.646   1.683
22416TIP3    H267134   1.841   2.795   1.659
22417TIP3   OH267135   2.893   2.176   1.688
22417TIP3    H167136   2.891   2.255   1.634
22417TIP3    H267137   2.893   2.104   1.625
22418TIP3   OH267138   2.287   2.228   1.669
22418TIP3    H167139   2.316   2.137   1.678
22418TIP3    H267140   2.228   2.228   1.593
22419TIP3   OH267141   1.656   1.937   1.644
22419TIP3    H167142   1.622   2.002   1.582
22419TIP3    H267143   1.628   1.853   1.608
22420TIP3   OH267144   2.317   2.022   1.212
22420TIP3    H167145   2.385   2.029   1.279
22420TIP3    H267146   2.362   2.046   1.131
22421TIP3   OH267147   1.266   2.133   1.771
22421TIP3    H167148   1.351   2.113   1.812
22421TIP3    H267149   1.262   2.075   1.695
22422TIP3   OH267150   1.692   2.308   1.509
22422TIP3    H167151   1.781   2.283   1.535
22422TIP3    H267152   1.651   2.226   1.482
22423TIP3   OH267153   1.618   1.919   2.094
22423TIP3    H167154   1.590   1.980   2.026
22423TIP3    H267155   1.538   1.872   2.118
22424TIP3   OH267156   2.021   2.797   1.001
22424TIP3    H167157   1.967   2.762   0.929
22424TIP3    H267158   1.971   2.872   1.034
22425TIP3   OH267159   1.590   2.667   1.861
22425TIP3    H167160   1.632   2.658   1.946
22425TIP3    H267161   1.656   2.707   1.805
22426TIP3   OH267162   2.487   2.067   1.411
22426TIP3    H167163   2.516   1.997   1.469
22426TIP3    H267164   2.534   2.144   1.441
22427TIP3   OH267165   1.515   2.042   1.861
22427TIP3    H167166   1.569   2.116   1.885
22427TIP3    H267167   1.563   1.999   1.790
22428TIP3   OH267168   0.950   2.623   1.203
22428TIP3    H167169   0.908   2.645   1.119
22428TIP3    H267170   0.971   2.708   1.242
22429TIP3   OH267171   2.359   3.047   1.390
22429TIP3    H167172   2.267   3.071   1.405
22429TIP3    H267173   2.394   3.120   1.339
22430TIP3   OH267174   2.720   1.990   1.824
22430TIP3    H167175   2.674   2.071   1.847
22430TIP3    H267176   2.809   2.019   1.802
22431TIP3   OH267177   1.961   1.625   1.795
22431TIP3    H167178   1.962   1.533   1.822
22431TIP3    H267179   1.886   1.663   1.840
22432TIP3   OH267180   2.153   3.109   1.125
22432TIP3    H167181   2.200   3.033   1.091
22432TIP3    H267182   2.202   3.185   1.093
22433TIP3   OH267183   2.281   2.884   1.029
22433TIP3    H167184   2.195   2.848   1.006
22433TIP3    H267185   2.304   2.840   1.111
22434TIP3   OH267186   1.912   2.415   1.045
22434TIP3    H167187   1.828   2.457   1.025
22434TIP3    H267188   1.955   2.407   0.960
22435TIP3   OH267189   1.864   2.080   0.812
22435TIP3    H167190   1.885   2.166   0.849
22435TIP3    H267191   1.925   2.070   0.739
22436TIP3   OH267192   2.814   2.629   1.596
22436TIP3    H167193   2.763   2.701   1.634
22436TIP3    H267194   2.876   2.673   1.536
22437TIP3   OH267195   2.237   2.520   1.011
22437TIP3    H167196   2.187   2.555   1.084
22437TIP3    H267197   2.296   2.455   1.050
22438TIP3   OH267198   1.497   2.475   1.419
22438TIP3    H167199   1.450   2.421   1.356
22438TIP3    H267200   1.570   2.420   1.448
22439TIP3   OH267201   1.602   2.860   1.546
22439TIP3    H167202   1.566   2.861   1.457
22439TIP3    H267203   1.692   2.829   1.534
22440TIP3   OH267204   1.682   2.423   1.764
22440TIP3    H167205   1.678   2.404   1.670
22440TIP3    H267206   1.639   2.508   1.773
22441TIP3   OH267207   2.102   3.115   1.468
22441TIP3    H167208   2.091   3.201   1.510
22441TIP3    H267209   2.106   3.053   1.541
22442TIP3   OH267210   2.085   2.363   0.835
22442TIP3    H167211   2.143   2.430   0.873
22442TIP3    H267212   2.106   2.364   0.742
22443TIP3   OH267213   1.860   3.000   1.074
22443TIP3    H167214   1.848   3.027   1.165
22443TIP3    H267215   1.780   3.029   1.029
22444TIP3   OH267216   2.588   1.580   0.870
22444TIP3    H167217   2.510   1.604   0.920
22444TIP3    H267218   2.610   1.659   0.821
22445TIP3   OH267219   1.354   2.325   1.227
22445TIP3    H167220   1.281   2.379   1.196
22445TIP3    H267221   1.313   2.247   1.264
22446TIP3   OH267222   2.413   2.961   0.456
22446TIP3    H167223   2.418   3.052   0.425
22446TIP3    H267224   2.502   2.927   0.443
22447TIP3   OH267225   0.948   2.922   1.780
22447TIP3    H167226   1.035   2.929   1.820
22447TIP3    H267227   0.904   3.003   1.804
22448TIP3   OH267228   1.722   3.258   0.913
22448TIP3    H167229   1.685   3.237   0.827
22448TIP3    H267230   1.670   3.333   0.943
22449TIP3   OH267231   1.169   3.101   1.306
22449TIP3    H167232   1.213   3.092   1.390
22449TIP3    H267233   1.115   3.022   1.299
22450TIP3   OH267234   1.941   3.172   0.590
22450TIP3    H167235   1.994   3.109   0.541
22450TIP3    H267236   1.967   3.161   0.681
22451TIP3   OH267237   1.975   3.169   0.868
22451TIP3    H167238   1.890   3.206   0.891
22451TIP3    H267239   1.995   3.109   0.939
22452TIP3   OH267240   1.742   1.726   1.928
22452TIP3    H167241   1.660   1.692   1.894
22452TIP3    H267242   1.717   1.804   1.978
22453TIP3   OH267243   2.166   2.332   0.574
22453TIP3    H167244   2.125   2.339   0.488
22453TIP3    H267245   2.250   2.376   0.564
22454TIP3   OH267246   1.843   1.803   0.933
22454TIP3    H167247   1.844   1.782   1.026
22454TIP3    H267248   1.813   1.722   0.891
22455TIP3   OH267249   1.681   2.234   1.953
22455TIP3    H167250   1.718   2.272   2.033
22455TIP3    H267251   1.683   2.305   1.889
22456TIP3   OH267252   1.550   2.080   1.435
22456TIP3    H167253   1.462   2.063   1.467
22456TIP3    H267254   1.567   2.009   1.373
22457TIP3   OH267255   2.039   2.210   1.178
22457TIP3    H167256   1.994   2.284   1.138
22457TIP3    H267257   2.098   2.179   1.109
22458TIP3   OH267258   2.183   2.178   1.412
22458TIP3    H167259   2.120   2.209   1.347
22458TIP3    H267260   2.228   2.106   1.368
22459TIP3   OH267261   1.559   1.875   0.922
22459TIP3    H167262   1.536   1.826   1.001
22459TIP3    H267263   1.479   1.874   0.869
22460TIP3   OH267264   1.044   1.721   1.213
22460TIP3    H167265   1.083   1.792   1.163
22460TIP3    H267266   1.079   1.730   1.301
22461TIP3   OH267267   2.123   2.544   1.824
22461TIP3    H167268   2.161   2.550   1.737
22461TIP3    H267269   2.190   2.501   1.877
22462TIP3   OH267270   1.916   1.974   1.544
22462TIP3    H167271   1.836   1.955   1.594
22462TIP3    H267272   1.982   1.916   1.582
22463TIP3   OH267273   1.305   1.996   1.526
22463TIP3    H167274   1.227   2.039   1.491
22463TIP3    H267275   1.283   1.903   1.526
22464TIP3   OH267276   1.706   2.074   1.062
22464TIP3    H167277   1.761   2.067   1.140
22464TIP3    H267278   1.623   2.109   1.095
22465TIP3   OH267279   2.343   1.956   1.722
22465TIP3    H167280   2.260   1.913   1.701
22465TIP3    H267281   2.407   1.914   1.665
22466TIP3   OH267282   1.945   2.247   1.606
22466TIP3    H167283   1.969   2.163   1.567
22466TIP3    H267284   1.953   2.232   1.700
22467TIP3   OH267285   1.582   1.726   1.474
22467TIP3    H167286   1.511   1.676   1.514
22467TIP3    H267287   1.660   1.672   1.489
22468TIP3   OH267288   1.955   2.178   1.875
22468TIP3    H167289   1.865   2.163   1.906
22468TIP3    H267290   2.008   2.117   1.926
22469TIP3   OH267291   1.673   2.547   0.999
22469TIP3    H167292   1.599   2.490   0.979
22469TIP3    H267293   1.651   2.586   1.083
22470TIP3   OH267294   2.647   2.806   1.714
22470TIP3    H167295   2.645   2.863   1.637
22470TIP3    H267296   2.587   2.847   1.777
22471TIP3   OH267297   2.114   1.875   0.903
22471TIP3    H167298   2.018   1.872   0.902
22471TIP3    H267299   2.135   1.967   0.912
22472TIP3   OH267300   2.192   2.135   0.949
22472TIP3    H167301   2.288   2.135   0.943
22472TIP3    H267302   2.165   2.213   0.899
22473TIP3   OH267303   1.353   2.587   1.634
22473TIP3    H167304   1.403   2.545   1.564
22473TIP3    H267305   1.364   2.529   1.709
22474TIP3   OH267306   1.815   2.714   0.834
22474TIP3    H167307   1.770   2.798   0.836
22474TIP3    H267308   1.762   2.657   0.889
22475TIP3   OH267309   2.614   2.227   0.774
22475TIP3    H167310   2.550   2.182   0.718
22475TIP3    H267311   2.621   2.315   0.737
22476TIP3   OH267312   2.385   2.953   0.786
22476TIP3    H167313   2.347   2.928   0.871
22476TIP3    H267314   2.379   2.874   0.733
22477TIP3   OH267315   2.330   2.785   1.578
22477TIP3    H167316   2.279   2.705   1.564
22477TIP3    H267317   2.408   2.773   1.525
22478TIP3   OH267318   1.469   2.890   1.308
22478TIP3    H167319   1.468   2.968   1.253
22478TIP3    H267320   1.379   2.881   1.339
22479TIP3   OH267321   1.062   2.208   1.041
22479TIP3    H167322   1.098   2.295   1.059
22479TIP3    H267323   0.978   2.207   1.088
22480TIP3   OH267324   1.591   2.657   1.231
22480TIP3    H167325   1.555   2.743   1.253
22480TIP3    H267326   1.562   2.600   1.303
22481TIP3   OH267327   1.757   3.297   1.917
22481TIP3    H167328   1.686   3.361   1.909
22481TIP3    H267329   1.760   3.253   1.832
22482TIP3   OH267330   1.396   3.108   1.157
22482TIP3    H167331   1.311   3.110   1.201
22482TIP3    H267332   1.413   3.200   1.134
22483TIP3   OH267333   2.142   2.954   1.683
22483TIP3    H167334   2.131   2.921   1.772
22483TIP3    H267335   2.201   2.891   1.641
22484TIP3   OH267336   2.104   2.767   0.583
22484TIP3    H167337   2.150   2.736   0.661
22484TIP3    H267338   2.019   2.722   0.586
22485TIP3   OH267339   2.413   3.228   0.382
22485TIP3    H167340   2.404   3.262   0.293
22485TIP3    H267341   2.333   3.257   0.427
22486TIP3   OH267342   2.252   2.672   0.786
22486TIP3    H167343   2.233   2.631   0.870
22486TIP3    H267344   2.347   2.670   0.778
22487TIP3   OH267345   1.160   3.019   1.931
22487TIP3    H167346   1.149   2.974   2.015
22487TIP3    H267347   1.148   3.112   1.952
22488TIP3   OH267348   1.485   2.740   0.628
22488TIP3    H167349   1.493   2.649   0.599
22488TIP3    H267350   1.465   2.734   0.721
22489TIP3   OH267351   1.421   2.753   0.898
22489TIP3    H167352   1.480   2.734   0.970
22489TIP3    H267353   1.413   2.849   0.897
22490TIP3   OH267354   1.151   2.463   1.109
22490TIP3    H167355   1.083   2.507   1.160
22490TIP3    H267356   1.165   2.520   1.033
22491TIP3   OH267357   2.138   1.977   2.040
22491TIP3    H167358   2.214   2.020   2.002
22491TIP3    H267359   2.132   2.013   2.128
22492TIP3   OH267360   2.175   1.798   1.159
22492TIP3    H167361   2.149   1.813   1.068
22492TIP3    H267362   2.221   1.878   1.185
22493TIP3   OH267363   1.683   2.952   0.839
22493TIP3    H167364   1.592   2.972   0.864
22493TIP3    H267365   1.705   3.021   0.776
22494TIP3   OH267366   1.860   2.031   1.283
22494TIP3    H167367   1.928   2.093   1.255
22494TIP3    H267368   1.878   2.017   1.376
22495TIP3   OH267369   2.032   1.698   1.369
22495TIP3    H167370   2.064   1.749   1.443
22495TIP3    H267371   2.084   1.728   1.294
22496TIP3   OH267372   1.427   3.025   0.900
22496TIP3    H167373   1.406   3.098   0.842
22496TIP3    H267374   1.410   3.058   0.988
22497TIP3   OH267375   1.542   1.732   1.170
22497TIP3    H167376   1.510   1.728   1.260
22497TIP3    H267377   1.637   1.729   1.178
22498TIP3   OH267378   2.391   2.360   1.395
22498TIP3    H167379   2.327   2.291   1.412
22498TIP3    H267380   2.462   2.342   1.455
22499TIP3   OH267381   1.170   2.632   0.890
22499TIP3    H167382   1.241   2.695   0.897
22499TIP3    H267383   1.200   2.571   0.822
22500TIP3   OH267384   1.086   1.932   1.038
22500TIP3    H167385   1.090   2.027   1.045
22500TIP3    H267386   0.992   1.913   1.032
22501TIP3   OH267387   2.436   3.299   1.290
22501TIP3    H167388   2.367   3.353   1.252
22501TIP3    H267389   2.506   3.360   1.311
22502TIP3   OH267390   1.490   1.637   1.870
22502TIP3    H167391   1.460   1.618   1.782
22502TIP3    H267392   1.472   1.557   1.920
22503TIP3   OH267393   1.000   2.881   1.288
22503TIP3    H167394   0.958   2.919   1.366
22503TIP3    H267395   0.958   2.925   1.215
22504TIP3   OH267396   1.632   2.939   0.511
22504TIP3    H167397   1.585   2.869   0.556
22504TIP3    H267398   1.705   2.896   0.467
22505TIP3   OH267399   2.088   2.995   0.443
22505TIP3    H167400   2.108   2.913   0.486
22505TIP3    H267401   2.125   2.986   0.355
22506TIP3   OH267402   1.304   2.448   0.739
22506TIP3    H167403   1.355   2.429   0.818
22506TIP3    H267404   1.369   2.457   0.669
22507TIP3   OH267405   1.859   2.651   0.571
22507TIP3    H167406   1.833   2.664   0.662
22507TIP3    H267407   1.840   2.558   0.554
22508TIP3   OH267408   1.460   2.368   0.968
22508TIP3    H167409   1.427   2.364   1.058
22508TIP3    H267410   1.450   2.278   0.935
22509TIP3   OH267411   2.380   2.473   0.470
22509TIP3    H167412   2.376   2.429   0.385
22509TIP3    H267413   2.359   2.565   0.451
22510TIP3   OH267414   1.862   2.044   2.110
22510TIP3    H167415   1.930   1.977   2.112
22510TIP3    H267416   1.780   1.996   2.120
22511TIP3   OH267417   1.422   3.237   0.724
22511TIP3    H167418   1.511   3.219   0.694
22511TIP3    H267419   1.381   3.285   0.652
22512TIP3   OH267420   0.897   2.630   0.907
22512TIP3    H167421   0.992   2.641   0.906
22512TIP3    H267422   0.883   2.544   0.868
22513TIP3   OH267423   0.802   3.209   1.371
22513TIP3    H167424   0.736   3.161   1.321
22513TIP3    H267425   0.842   3.144   1.428
22514TIP3   OH267426   0.937   3.021   1.521
22514TIP3    H167427   0.914   2.958   1.589
22514TIP3    H267428   0.998   3.082   1.564
22515TIP3   OH267429   2.521   2.676   0.807
22515TIP3    H167430   2.609   2.715   0.802
22515TIP3    H267431   2.521   2.628   0.890
22516TIP3   OH267432   2.592   2.521   1.044
22516TIP3    H167433   2.515   2.464   1.053
22516TIP3    H267434   2.640   2.510   1.126
22517TIP3   OH267435   2.696   2.898   1.456
22517TIP3    H167436   2.770   2.897   1.395
22517TIP3    H267437   2.671   2.990   1.460
22518TIP3   OH267438   2.588   2.462   0.640
22518TIP3    H167439   2.514   2.459   0.579
22518TIP3    H267440   2.574   2.543   0.690
22519TIP3   OH267441   2.429   2.123   0.606
22519TIP3    H167442   2.382   2.144   0.526
22519TIP3    H267443   2.433   2.027   0.607
22520TIP3   OH267444   2.407   2.341   1.123
22520TIP3    H167445   2.433   2.252   1.102
22520TIP3    H267446   2.402   2.343   1.218
22521TIP3   OH267447   1.109   2.540   1.876
22521TIP3    H167448   1.091   2.484   1.800
22521TIP3    H267449   1.204   2.540   1.885
22522TIP3   OH267450   2.415   1.854   0.591
22522TIP3    H167451   2.491   1.817   0.637
22522TIP3    H267452   2.343   1.795   0.613
22523TIP3   OH267453   2.479   2.105   0.994
22523TIP3    H167454   2.524   2.022   1.010
22523TIP3    H267455   2.529   2.146   0.923
22524TIP3   OH267456   2.609   2.273   1.542
22524TIP3    H167457   2.699   2.305   1.539
22524TIP3    H267458   2.590   2.261   1.635
22525TIP3   OH267459   2.766   2.458   1.809
22525TIP3    H167460   2.701   2.512   1.855
22525TIP3    H267461   2.803   2.516   1.742
22526TIP3   OH267462   2.591   1.861   1.049
22526TIP3    H167463   2.637   1.840   1.131
22526TIP3    H267464   2.526   1.792   1.040
22527TIP3   OH267465   1.363   1.842   2.008
22527TIP3    H167466   1.391   1.764   1.959
22527TIP3    H267467   1.378   1.915   1.948
22528TIP3   OH267468   1.100   2.127   2.004
22528TIP3    H167469   1.151   2.138   1.923
22528TIP3    H267470   1.091   2.216   2.039
22529TIP3   OH267471   2.658   1.795   0.713
22529TIP3    H167472   2.703   1.733   0.656
22529TIP3    H267473   2.713   1.873   0.711
22530TIP3   OH267474   2.272   3.332   1.037
22530TIP3    H167475   2.325   3.325   0.958
22530TIP3    H267476   2.258   3.427   1.047
22531TIP3   OH267477   1.402   3.285   1.776
22531TIP3    H167478   1.323   3.297   1.829
22531TIP3    H267479   1.412   3.367   1.728
22532TIP3   OH267480   1.897   3.518   1.646
22532TIP3    H167481   1.865   3.597   1.603
22532TIP3    H267482   1.889   3.535   1.740
22533TIP3   OH267483   2.036   3.277   1.693
22533TIP3    H167484   1.967   3.214   1.714
22533TIP3    H267485   1.991   3.361   1.687
22534TIP3   OH267486   1.119   3.177   1.663
22534TIP3    H167487   1.118   3.143   1.753
22534TIP3    H267488   1.200   3.144   1.625
22535TIP3   OH267489   1.324   3.061   1.527
22535TIP3    H167490   1.336   2.987   1.587
22535TIP3    H267491   1.413   3.093   1.511
22536TIP3   OH267492   1.586   3.140   1.495
22536TIP3    H167493   1.629   3.056   1.514
22536TIP3    H267494   1.634   3.203   1.550
22537TIP3   OH267495   2.109   1.793   1.628
22537TIP3    H167496   2.069   1.732   1.690
22537TIP3    H267497   2.192   1.753   1.604
22538TIP3   OH267498   2.684   1.666   1.510
22538TIP3    H167499   2.737   1.704   1.441
22538TIP3    H267500   2.643   1.741   1.554
22539TIP3   OH267501   2.741   1.783   1.265
22539TIP3    H167502   2.799   1.714   1.233
22539TIP3    H267503   2.792   1.863   1.257
22540TIP3   OH267504   1.402   1.571   1.619
22540TIP3    H167505   1.324   1.617   1.589
22540TIP3    H267506   1.377   1.478   1.616
22541TIP3   OH267507   1.160   1.447   1.285
22541TIP3    H167508   1.179   1.504   1.210
22541TIP3    H267509   1.155   1.507   1.360
22542TIP3   OH267510   1.828   1.606   1.539
22542TIP3    H167511   1.897   1.630   1.477
22542TIP3    H267512   1.870   1.611   1.625
22543TIP3   OH267513   2.352   1.703   1.551
22543TIP3    H167514   2.409   1.688   1.475
22543TIP3    H267515   2.367   1.627   1.607
22544TIP3   OH267516   2.397   1.663   1.054
22544TIP3    H167517   2.320   1.708   1.088
22544TIP3    H267518   2.391   1.574   1.091
22545TIP3   OH267519   0.893   3.005   1.071
22545TIP3    H167520   0.808   2.970   1.046
22545TIP3    H267521   0.895   3.094   1.036
22546TIP3   OH267522   1.328   1.588   1.044
22546TIP3    H167523   1.375   1.512   1.009
22546TIP3    H267524   1.393   1.634   1.097
22547TIP3   OH267525   1.816   1.773   1.200
22547TIP3    H167526   1.873   1.718   1.254
22547TIP3    H267527   1.828   1.861   1.235
22548TIP3   OH267528   1.676   3.167   0.651
22548TIP3    H167529   1.764   3.189   0.621
22548TIP3    H267530   1.649   3.096   0.593
22549TIP3   OH267531   2.416   3.245   0.820
22549TIP3    H167532   2.431   3.153   0.842
22549TIP3    H267533   2.354   3.243   0.747
22550TIP3   OH267534   0.998   3.008   0.719
22550TIP3    H167535   0.993   3.020   0.814
22550TIP3    H267536   1.079   2.961   0.704
22551TIP3   OH267537   2.796   2.314   0.971
22551TIP3    H167538   2.726   2.360   1.017
22551TIP3    H267539   2.755   2.282   0.891
22552TIP3   OH267540   2.868   2.666   1.166
22552TIP3    H167541   2.843   2.586   1.213
22552TIP3    H267542   2.928   2.635   1.098
22553TIP3   OH267543   3.416   2.199   1.085
22553TIP3    H167544   3.393   2.166   0.998
22553TIP3    H267545   3.397   2.127   1.144
22554TIP3   OH267546   4.085   2.315   0.756
22554TIP3    H167547   4.055   2.308   0.847
22554TIP3    H267548   4.181   2.313   0.762
22555TIP3   OH267549   3.049   2.409   1.256
22555TIP3    H167550   3.142   2.409   1.280
22555TIP3    H267551   3.036   2.325   1.212
22556TIP3   OH267552   3.525   2.679   1.029
22556TIP3    H167553   3.575   2.687   0.948
22556TIP3    H267554   3.571   2.611   1.078
22557TIP3   OH267555   3.399   2.150   1.532
22557TIP3    H167556   3.436   2.219   1.477
22557TIP3    H267557   3.433   2.169   1.620
22558TIP3   OH267558   3.294   2.483   1.403
22558TIP3    H167559   3.340   2.535   1.469
22558TIP3    H267560   3.301   2.534   1.322
22559TIP3   OH267561   2.789   2.823   0.634
22559TIP3    H167562   2.736   2.827   0.554
22559TIP3    H267563   2.749   2.888   0.692
22560TIP3   OH267564   3.890   1.890   1.377
22560TIP3    H167565   3.874   1.867   1.285
22560TIP3    H267566   3.805   1.922   1.408
22561TIP3   OH267567   3.735   2.703   0.579
22561TIP3    H167568   3.662   2.742   0.531
22561TIP3    H267569   3.812   2.752   0.550
22562TIP3   OH267570   3.685   2.384   0.286
22562TIP3    H167571   3.730   2.446   0.228
22562TIP3    H267572   3.706   2.298   0.249
22563TIP3   OH267573   3.275   2.781   0.938
22563TIP3    H167574   3.224   2.731   0.875
22563TIP3    H267575   3.362   2.740   0.938
22564TIP3   OH267576   3.902   2.622   0.316
22564TIP3    H167577   3.940   2.708   0.332
22564TIP3    H267578   3.923   2.602   0.225
22565TIP3   OH267579   4.451   1.827   0.453
22565TIP3    H167580   4.360   1.854   0.461
22565TIP3    H267581   4.495   1.901   0.411
22566TIP3   OH267582   3.112   2.657   0.756
22566TIP3    H167583   3.146   2.659   0.667
22566TIP3    H267584   3.057   2.578   0.758
22567TIP3   OH267585   2.977   3.307   0.971
22567TIP3    H167586   2.952   3.397   0.947
22567TIP3    H267587   2.946   3.254   0.898
22568TIP3   OH267588   3.751   3.376   0.047
22568TIP3    H167589   3.837   3.353   0.010
22568TIP3    H267590   3.769   3.398   0.138
22569TIP3   OH267591   3.652   1.984   1.493
22569TIP3    H167592   3.604   1.962   1.414
22569TIP3    H267593   3.664   2.079   1.488
22570TIP3   OH267594   4.068   2.638   0.076
22570TIP3    H167595   3.990   2.594   0.042
22570TIP3    H267596   4.104   2.684   0.001
22571TIP3   OH267597   3.669   1.954   0.297
22571TIP3    H167598   3.658   1.994   0.383
22571TIP3    H267599   3.615   1.874   0.300
22572TIP3   OH267600   3.263   2.425   0.912
22572TIP3    H167601   3.175   2.461   0.923
22572TIP3    H267602   3.249   2.330   0.905
22573TIP3   OH267603   3.828   2.463   0.661
22573TIP3    H167604   3.805   2.551   0.633
22573TIP3    H267605   3.904   2.440   0.607
22574TIP3   OH267606   3.325   1.991   0.322
22574TIP3    H167607   3.313   1.989   0.417
22574TIP3    H267608   3.246   2.034   0.289
22575TIP3   OH267609   2.905   1.978   1.181
22575TIP3    H167610   2.989   2.010   1.214
22575TIP3    H267611   2.925   1.947   1.092
22576TIP3   OH267612   2.809   2.032   0.726
22576TIP3    H167613   2.866   2.066   0.657
22576TIP3    H267614   2.745   2.102   0.741
22577TIP3   OH267615   3.696   2.223   1.017
22577TIP3    H167616   3.603   2.224   0.992
22577TIP3    H267617   3.702   2.156   1.085
22578TIP3   OH267618   3.035   2.216   1.068
22578TIP3    H167619   2.952   2.227   1.022
22578TIP3    H267620   3.095   2.184   1.001
22579TIP3   OH267621   3.347   2.242   0.612
22579TIP3    H167622   3.428   2.291   0.605
22579TIP3    H267623   3.299   2.262   0.532
22580TIP3   OH267624   3.196   2.295   0.396
22580TIP3    H167625   3.139   2.235   0.347
22580TIP3    H267626   3.260   2.325   0.331
22581TIP3   OH267627   3.302   1.926   0.992
22581TIP3    H167628   3.259   1.867   1.054
22581TIP3    H267629   3.357   1.869   0.938
22582TIP3   OH267630   3.496   2.805   0.490
22582TIP3    H167631   3.438   2.751   0.437
22582TIP3    H267632   3.444   2.884   0.508
22583TIP3   OH267633   3.813   2.158   0.199
22583TIP3    H167634   3.755   2.084   0.219
22583TIP3    H267635   3.865   2.169   0.279
22584TIP3   OH267636   4.015   2.426   0.465
22584TIP3    H167637   4.108   2.448   0.461
22584TIP3    H267638   3.973   2.490   0.408
22585TIP3   OH267639   3.150   2.774   1.224
22585TIP3    H167640   3.149   2.834   1.150
22585TIP3    H267641   3.205   2.701   1.195
22586TIP3   OH267642   3.727   2.949   0.351
22586TIP3    H167643   3.732   3.023   0.411
22586TIP3    H267644   3.787   2.971   0.280
22587TIP3   OH267645   4.519   2.490   0.256
22587TIP3    H167646   4.436   2.537   0.263
22587TIP3    H267647   4.586   2.558   0.258
22588TIP3   OH267648   3.301   3.260   0.892
22588TIP3    H167649   3.338   3.318   0.826
22588TIP3    H267650   3.231   3.214   0.845
22589TIP3   OH267651   2.782   2.382   0.454
22589TIP3    H167652   2.834   2.463   0.456
22589TIP3    H267653   2.712   2.397   0.517
22590TIP3   OH267654   3.424   3.017   0.889
22590TIP3    H167655   3.380   3.100   0.904
22590TIP3    H267656   3.357   2.950   0.905
22591TIP3   OH267657   3.099   3.484   0.709
22591TIP3    H167658   3.153   3.411   0.741
22591TIP3    H267659   3.162   3.553   0.689
22592TIP3   OH267660   3.863   3.079   0.133
22592TIP3    H167661   3.941   3.109   0.179
22592TIP3    H267662   3.883   2.989   0.107
22593TIP3   OH267663   3.238   2.956   0.064
22593TIP3    H167664   3.292   2.903   0.005
22593TIP3    H267665   3.233   2.904   0.145
22594TIP3   OH267666   3.206   3.038   0.367
22594TIP3    H167667   3.176   2.952   0.394
22594TIP3    H267668   3.298   3.025   0.342
22595TIP3   OH267669   2.917   2.611   0.504
22595TIP3    H167670   2.884   2.695   0.536
22595TIP3    H267671   3.011   2.626   0.492
22596TIP3   OH267672   4.004   2.072   0.638
22596TIP3    H167673   3.998   2.077   0.543
22596TIP3    H267674   4.027   2.161   0.665
22597TIP3   OH267675   3.433   3.256   0.439
22597TIP3    H167676   3.402   3.242   0.350
22597TIP3    H267677   3.528   3.262   0.431
22598TIP3   OH267678   3.770   2.214   0.750
22598TIP3    H167679   3.789   2.306   0.730
22598TIP3    H267680   3.745   2.214   0.842
22599TIP3   OH267681   3.707   1.942   0.891
22599TIP3    H167682   3.640   2.008   0.871
22599TIP3    H267683   3.790   1.989   0.884
22600TIP3   OH267684   3.170   3.360   0.474
22600TIP3    H167685   3.209   3.425   0.416
22600TIP3    H267686   3.245   3.314   0.512
22601TIP3   OH267687   3.289   1.972   0.596
22601TIP3    H167688   3.308   2.066   0.605
22601TIP3    H267689   3.369   1.929   0.625
22602TIP3   OH267690   2.973   2.863   0.344
22602TIP3    H167691   2.980   2.921   0.269
22602TIP3    H267692   2.978   2.775   0.307
22603TIP3   OH267693   2.933   2.160   0.516
22603TIP3    H167694   2.879   2.233   0.487
22603TIP3    H267695   2.951   2.109   0.437
22604TIP3   OH267696   3.231   1.843   1.447
22604TIP3    H167697   3.261   1.825   1.358
22604TIP3    H267698   3.295   1.800   1.503
22605TIP3   OH267699   2.885   3.197   0.727
22605TIP3    H167700   2.821   3.149   0.780
22605TIP3    H267701   2.846   3.199   0.639
22606TIP3   OH267702   3.387   3.171  -0.013
22606TIP3    H167703   3.334   3.099   0.022
22606TIP3    H267704   3.457   3.183   0.052
22607TIP3   OH267705   7.240   7.893   7.936
22607TIP3    H167706   7.208   7.814   7.979
22607TIP3    H267707   7.247   7.868   7.843
22608TIP3   OH267708   3.025   2.625   0.215
22608TIP3    H167709   3.059   2.569   0.285
22608TIP3    H267710   3.095   2.627   0.150
22609TIP3   OH267711   6.715   7.432   7.967
22609TIP3    H167712   6.779   7.501   7.987
22609TIP3    H267713   6.764   7.350   7.978
22610TIP3   OH267714   3.188   2.635   0.477
22610TIP3    H167715   3.257   2.580   0.515
22610TIP3    H267716   3.231   2.677   0.401
22611TIP3   OH267717   3.375   2.338   0.200
22611TIP3    H167718   3.360   2.376   0.113
22611TIP3    H267719   3.421   2.256   0.182
22612TIP3   OH267720   7.433   7.390   7.869
22612TIP3    H167721   7.434   7.354   7.780
22612TIP3    H267722   7.415   7.483   7.856
22613TIP3   OH267723   3.243   3.526   0.269
22613TIP3    H167724   3.331   3.521   0.232
22613TIP3    H267725   3.185   3.532   0.192
22614TIP3   OH267726   2.653   2.844   0.403
22614TIP3    H167727   2.691   2.911   0.347
22614TIP3    H267728   2.652   2.764   0.349
22615TIP3   OH267729   2.690   3.391   0.838
22615TIP3    H167730   2.614   3.348   0.797
22615TIP3    H267731   2.690   3.359   0.928
22616TIP3   OH267732   2.615   3.287   1.074
22616TIP3    H167733   2.636   3.194   1.072
22616TIP3    H267734   2.543   3.294   1.136
22617TIP3   OH267735   4.529   2.776   0.215
22617TIP3    H167736   4.501   2.784   0.124
22617TIP3    H267737   4.611   2.824   0.219
22618TIP3   OH267738   7.566   6.975   7.995
22618TIP3    H167739   7.499   7.005   7.933
22618TIP3    H267740   7.589   6.887   7.965
22619TIP3   OH267741   2.897   2.912   1.277
22619TIP3    H167742   2.897   2.826   1.233
22619TIP3    H267743   2.989   2.939   1.278
22620TIP3   OH267744   4.143   2.108   0.059
22620TIP3    H167745   4.229   2.068   0.044
22620TIP3    H267746   4.080   2.037   0.049
22621TIP3   OH267747   4.303   2.436   0.478
22621TIP3    H167748   4.292   2.348   0.514
22621TIP3    H267749   4.394   2.458   0.495
22622TIP3   OH267750   4.547   2.039   0.653
22622TIP3    H167751   4.544   2.079   0.740
22622TIP3    H267752   4.462   1.995   0.644
22623TIP3   OH267753   3.085   2.061   1.370
22623TIP3    H167754   3.153   1.995   1.388
22623TIP3    H267755   3.115   2.139   1.416
22624TIP3   OH267756   2.869   2.381   1.509
22624TIP3    H167757   2.868   2.386   1.413
22624TIP3    H267758   2.852   2.470   1.538
22625TIP3   OH267759   4.402   2.006   0.089
22625TIP3    H167760   4.440   1.938   0.033
22625TIP3    H267761   4.457   2.007   0.167
22626TIP3   OH267762   2.869   1.865   0.931
22626TIP3    H167763   2.779   1.850   0.958
22626TIP3    H267764   2.863   1.930   0.861
22627TIP3   OH267765   3.037   1.983   1.941
22627TIP3    H167766   3.059   1.940   2.023
22627TIP3    H267767   3.121   1.996   1.897
22628TIP3   OH267768   3.942   2.144   1.211
22628TIP3    H167769   3.975   2.057   1.233
22628TIP3    H267770   3.965   2.156   1.119
22629TIP3   OH267771   3.155   1.766   1.163
22629TIP3    H167772   3.068   1.737   1.136
22629TIP3    H267773   3.206   1.685   1.170
22630TIP3   OH267774   2.986   1.667   0.772
22630TIP3    H167775   3.019   1.712   0.694
22630TIP3    H267776   2.957   1.737   0.830
22631TIP3   OH267777   3.607   1.766   1.079
22631TIP3    H167778   3.653   1.827   1.021
22631TIP3    H267779   3.583   1.819   1.155
22632TIP3   OH267780   4.239   2.037   0.968
22632TIP3    H167781   4.314   2.005   0.917
22632TIP3    H267782   4.232   1.977   1.042
22633TIP3   OH267783   4.263   1.929   0.652
22633TIP3    H167784   4.173   1.923   0.621
22633TIP3    H267785   4.264   1.877   0.733
22634TIP3   OH267786   2.630   3.221   0.565
22634TIP3    H167787   2.554   3.218   0.507
22634TIP3    H267788   2.653   3.314   0.570
22635TIP3   OH267789   3.087   1.795   0.543
22635TIP3    H167790   3.134   1.734   0.487
22635TIP3    H267791   3.153   1.858   0.571
22636TIP3   OH267792   3.570   2.016   0.577
22636TIP3    H167793   3.637   1.949   0.592
22636TIP3    H267794   3.619   2.093   0.550
22637TIP3   OH267795   3.452   3.466   0.104
22637TIP3    H167796   3.510   3.531   0.065
22637TIP3    H267797   3.416   3.418   0.029
22638TIP3   OH267798   2.735   3.048   0.247
22638TIP3    H167799   2.710   3.138   0.269
22638TIP3    H267800   2.828   3.054   0.225
22639TIP3   OH267801   8.374   6.835   7.769
22639TIP3    H167802   8.414   6.885   7.840
22639TIP3    H267803   8.323   6.900   7.720
22640TIP3   OH267804   4.668   2.267   0.212
22640TIP3    H167805   4.727   2.295   0.142
22640TIP3    H267806   4.614   2.344   0.229
22641TIP3   OH267807   8.065   7.018   8.001
22641TIP3    H167808   8.106   7.097   7.966
22641TIP3    H267809   7.974   7.023   7.972
22642TIP3   OH267810   4.738   2.187   0.465
22642TIP3    H167811   4.657   2.137   0.473
22642TIP3    H267812   4.736   2.223   0.376
22643TIP3   OH267813   4.849   1.956   0.302
22643TIP3    H167814   4.889   1.997   0.226
22643TIP3    H267815   4.761   1.930   0.272
22644TIP3   OH267816   4.954   2.027   0.055
22644TIP3    H167817   4.928   2.019  -0.037
22644TIP3    H267818   4.966   2.121   0.068
22645TIP3   OH267819   9.530   3.816   0.856
22645TIP3    H167820   9.497   3.788   0.941
22645TIP3    H267821   9.587   3.744   0.828
22646TIP3   OH267822   0.459   3.145   1.043
22646TIP3    H167823   0.386   3.162   1.103
22646TIP3    H267824   0.465   3.225   0.990
22647TIP3   OH267825   0.090   3.827   0.712
22647TIP3    H167826   0.030   3.840   0.638
22647TIP3    H267827   0.142   3.907   0.714
22648TIP3   OH267828   9.548   3.347   1.035
22648TIP3    H167829   9.504   3.338   1.119
22648TIP3    H267830   9.524   3.268   0.986
22649TIP3   OH267831   9.240   3.298   1.039
22649TIP3    H167832   9.280   3.303   1.126
22649TIP3    H267833   9.163   3.354   1.044
22650TIP3   OH267834   9.802   3.431   1.006
22650TIP3    H167835   9.708   3.415   1.021
22650TIP3    H267836   9.813   3.525   1.024
22651TIP3   OH267837   0.078   3.685   1.064
22651TIP3    H167838   0.167   3.673   1.096
22651TIP3    H267839   0.081   3.768   1.015
22652TIP3   OH267840   0.493   3.780   0.931
22652TIP3    H167841   0.434   3.732   0.874
22652TIP3    H267842   0.484   3.871   0.904
22653TIP3   OH267843   0.092   3.407   1.269
22653TIP3    H167844   0.059   3.401   1.179
22653TIP3    H267845   0.090   3.500   1.290
22654TIP3   OH267846   0.239   4.051   0.634
22654TIP3    H167847   0.238   4.013   0.547
22654TIP3    H267848   0.196   4.136   0.624
22655TIP3   OH267849   0.444   4.025   0.816
22655TIP3    H167850   0.374   4.028   0.750
22655TIP3    H267851   0.433   4.106   0.866
22656TIP3   OH267852   0.324   3.674   0.746
22656TIP3    H167853   0.243   3.720   0.725
22656TIP3    H267854   0.308   3.583   0.720
22657TIP3   OH267855   0.274   3.402   0.705
22657TIP3    H167856   0.333   3.383   0.779
22657TIP3    H267857   0.191   3.361   0.729
22658TIP3   OH267858   0.339   3.652   1.138
22658TIP3    H167859   0.384   3.575   1.174
22658TIP3    H267860   0.405   3.697   1.086
22659TIP3   OH267861   0.472   3.418   1.225
22659TIP3    H167862   0.510   3.419   1.313
22659TIP3    H267863   0.407   3.348   1.228
22660TIP3   OH267864   0.497   3.354   0.866
22660TIP3    H167865   0.543   3.292   0.809
22660TIP3    H267866   0.556   3.430   0.870
22661TIP3   OH267867   0.531   3.279   1.681
22661TIP3    H167868   0.563   3.341   1.615
22661TIP3    H267869   0.438   3.297   1.688
22662TIP3   OH267870   0.628   3.409   1.456
22662TIP3    H167871   0.696   3.347   1.430
22662TIP3    H267872   0.673   3.494   1.460
22663TIP3   OH267873   0.259   3.293   1.678
22663TIP3    H167874   0.200   3.294   1.602
22663TIP3    H267875   0.228   3.219   1.731
22664TIP3   OH267876   0.283   3.216   1.239
22664TIP3    H167877   0.212   3.279   1.254
22664TIP3    H267878   0.255   3.137   1.285
22665TIP3   OH267879   9.068   3.048   1.259
22665TIP3    H167880   9.109   3.020   1.177
22665TIP3    H267881   9.142   3.061   1.319
22666TIP3   OH267882   9.406   3.300   1.268
22666TIP3    H167883   9.395   3.211   1.299
22666TIP3    H267884   9.430   3.350   1.346
22667TIP3   OH267885   1.778   4.371   0.913
22667TIP3    H167886   1.710   4.430   0.879
22667TIP3    H267887   1.731   4.310   0.969
22668TIP3   OH267888   0.705   3.867   1.103
22668TIP3    H167889   0.681   3.821   1.183
22668TIP3    H267890   0.640   3.839   1.039
22669TIP3   OH267891   1.286   3.730   1.116
22669TIP3    H167892   1.272   3.735   1.211
22669TIP3    H267893   1.219   3.670   1.085
22670TIP3   OH267894   1.924   3.807   0.813
22670TIP3    H167895   1.920   3.844   0.901
22670TIP3    H267896   1.925   3.882   0.755
22671TIP3   OH267897   1.292   4.209   1.193
22671TIP3    H167898   1.366   4.223   1.134
22671TIP3    H267899   1.313   4.128   1.240
22672TIP3   OH267900   1.580   4.526   0.816
22672TIP3    H167901   1.560   4.522   0.722
22672TIP3    H267902   1.588   4.620   0.834
22673TIP3   OH267903   2.173   3.916   1.197
22673TIP3    H167904   2.223   3.854   1.144
22673TIP3    H267905   2.140   3.980   1.133
22674TIP3   OH267906   1.202   3.972   1.533
22674TIP3    H167907   1.195   4.063   1.505
22674TIP3    H267908   1.112   3.945   1.551
22675TIP3   OH267909   1.496   3.358   1.357
22675TIP3    H167910   1.529   3.272   1.382
22675TIP3    H267911   1.480   3.403   1.440
22676TIP3   OH267912   1.681   4.797   0.734
22676TIP3    H167913   1.770   4.764   0.716
22676TIP3    H267914   1.694   4.865   0.800
22677TIP3   OH267915   1.450   4.100   0.650
22677TIP3    H167916   1.362   4.087   0.684
22677TIP3    H267917   1.470   4.191   0.671
22678TIP3   OH267918   1.457   3.997   0.389
22678TIP3    H167919   1.478   4.028   0.477
22678TIP3    H267920   1.539   3.960   0.356
22679TIP3   OH267921   1.951   4.362   0.706
22679TIP3    H167922   1.915   4.363   0.795
22679TIP3    H267923   1.982   4.272   0.694
22680TIP3   OH267924   1.079   4.330   1.040
22680TIP3    H167925   1.020   4.276   0.987
22680TIP3    H267926   1.139   4.267   1.080
22681TIP3   OH267927   1.723   4.098   0.421
22681TIP3    H167928   1.723   4.174   0.480
22681TIP3    H267929   1.744   4.134   0.335
22682TIP3   OH267930   2.172   3.339   0.458
22682TIP3    H167931   2.163   3.292   0.541
22682TIP3    H267932   2.168   3.432   0.482
22683TIP3   OH267933   0.912   4.157   0.908
22683TIP3    H167934   0.863   4.103   0.846
22683TIP3    H267935   0.955   4.094   0.966
22684TIP3   OH267936   2.046   4.850   0.022
22684TIP3    H167937   2.062   4.930   0.072
22684TIP3    H267938   2.133   4.816   0.003
22685TIP3   OH267939   1.604   5.020   0.183
22685TIP3    H167940   1.654   4.954   0.135
22685TIP3    H267941   1.581   4.978   0.266
22686TIP3   OH267942   1.688   5.137   0.531
22686TIP3    H167943   1.625   5.116   0.600
22686TIP3    H267944   1.735   5.055   0.516
22687TIP3   OH267945   1.468   3.523   1.577
22687TIP3    H167946   1.373   3.532   1.581
22687TIP3    H267947   1.501   3.612   1.583
22688TIP3   OH267948   1.762   4.145   0.154
22688TIP3    H167949   1.742   4.122   0.064
22688TIP3    H267950   1.835   4.207   0.148
22689TIP3   OH267951   1.548   3.539   0.542
22689TIP3    H167952   1.488   3.568   0.611
22689TIP3    H267953   1.504   3.465   0.501
22690TIP3   OH267954   1.071   4.003   1.069
22690TIP3    H167955   1.034   3.923   1.108
22690TIP3    H267956   1.160   3.978   1.043
22691TIP3   OH267957   1.665   4.041   0.809
22691TIP3    H167958   1.642   4.075   0.895
22691TIP3    H267959   1.584   4.043   0.759
22692TIP3   OH267960   1.856   4.147   1.177
22692TIP3    H167961   1.777   4.182   1.137
22692TIP3    H267962   1.927   4.202   1.142
22693TIP3   OH267963   1.201   3.576   0.518
22693TIP3    H167964   1.221   3.592   0.610
22693TIP3    H267965   1.116   3.617   0.504
22694TIP3   OH267966   0.709   3.651   1.276
22694TIP3    H167967   0.763   3.645   1.354
22694TIP3    H267968   0.726   3.569   1.228
22695TIP3   OH267969   0.668   3.574   0.879
22695TIP3    H167970   0.713   3.605   0.801
22695TIP3    H267971   0.613   3.647   0.906
22696TIP3   OH267972   1.552   3.743   1.069
22696TIP3    H167973   1.458   3.731   1.083
22696TIP3    H267974   1.590   3.734   1.156
22697TIP3   OH267975   0.965   3.790   1.194
22697TIP3    H167976   0.874   3.797   1.165
22697TIP3    H267977   0.991   3.701   1.169
22698TIP3   OH267978   1.198   3.781   0.810
22698TIP3    H167979   1.246   3.856   0.844
22698TIP3    H267980   1.140   3.817   0.743
22699TIP3   OH267981   1.975   3.924   1.382
22699TIP3    H167982   1.917   3.859   1.342
22699TIP3    H267983   2.044   3.938   1.317
22700TIP3   OH267984   1.044   3.850   0.598
22700TIP3    H167985   0.983   3.793   0.551
22700TIP3    H267986   1.095   3.893   0.530
22701TIP3   OH267987   1.695   3.949   1.292
22701TIP3    H167988   1.745   4.024   1.260
22701TIP3    H267989   1.695   3.959   1.387
22702TIP3   OH267990   1.072   3.551   1.104
22702TIP3    H167991   1.058   3.476   1.162
22702TIP3    H267992   1.072   3.513   1.016
22703TIP3   OH267993   1.654   4.023   1.561
22703TIP3    H167994   1.650   4.108   1.518
22703TIP3    H267995   1.626   4.040   1.651
22704TIP3   OH267996   1.239   4.387   0.562
22704TIP3    H167997   1.180   4.313   0.554
22704TIP3    H267998   1.259   4.392   0.655
22705TIP3   OH267999   1.744   3.668   0.411
22705TIP3    H168000   1.667   3.625   0.449
22705TIP3    H268001   1.757   3.746   0.464
22706TIP3   OH268002   1.797   3.882   0.565
22706TIP3    H168003   1.878   3.881   0.514
22706TIP3    H268004   1.751   3.961   0.535
22707TIP3   OH268005   1.558   4.598   0.360
22707TIP3    H168006   1.474   4.644   0.368
22707TIP3    H268007   1.571   4.556   0.445
22708TIP3   OH268008   2.314   4.096   0.354
22708TIP3    H168009   2.239   4.109   0.296
22708TIP3    H268010   2.280   4.110   0.442
22709TIP3   OH268011   2.056   4.863   0.337
22709TIP3    H168012   2.083   4.794   0.397
22709TIP3    H268013   1.999   4.820   0.274
22710TIP3   OH268014   0.671   3.994   0.663
22710TIP3    H168015   0.702   4.085   0.665
22710TIP3    H268016   0.593   3.994   0.718
22711TIP3   OH268017   1.238   4.548   0.990
22711TIP3    H168018   1.204   4.587   0.909
22711TIP3    H268019   1.169   4.488   1.018
22712TIP3   OH268020   1.741   4.423   0.262
22712TIP3    H168021   1.673   4.475   0.304
22712TIP3    H268022   1.717   4.425   0.169
22713TIP3   OH268023   2.077   5.115   0.118
22713TIP3    H168024   2.152   5.122   0.059
22713TIP3    H268025   2.052   5.206   0.136
22714TIP3   OH268026   1.838   4.571   0.547
22714TIP3    H168027   1.855   4.512   0.620
22714TIP3    H268028   1.924   4.607   0.524
22715TIP3   OH268029   1.093   4.529   0.238
22715TIP3    H168030   1.109   4.438   0.215
22715TIP3    H268031   1.045   4.525   0.321
22716TIP3   OH268032   1.008   4.550   0.498
22716TIP3    H168033   1.083   4.511   0.544
22716TIP3    H268034   0.993   4.633   0.544
22717TIP3   OH268035   0.736   4.254   0.710
22717TIP3    H168036   0.799   4.275   0.779
22717TIP3    H268037   0.745   4.325   0.646
22718TIP3   OH268038   1.760   3.589   0.716
22718TIP3    H168039   1.690   3.567   0.653
22718TIP3    H268040   1.755   3.684   0.725
22719TIP3   OH268041   1.265   4.883   0.499
22719TIP3    H168042   1.174   4.887   0.471
22719TIP3    H268043   1.292   4.793   0.481
22720TIP3   OH268044   1.557   3.785   0.798
22720TIP3    H168045   1.613   3.860   0.777
22720TIP3    H268046   1.556   3.782   0.894
22721TIP3   OH268047   1.592   3.508   0.927
22721TIP3    H168048   1.589   3.588   0.979
22721TIP3    H268049   1.659   3.525   0.861
22722TIP3   OH268050   1.117   3.517   0.828
22722TIP3    H168051   1.121   3.613   0.831
22722TIP3    H268052   1.208   3.490   0.813
22723TIP3   OH268053   0.764   4.437   0.507
22723TIP3    H168054   0.838   4.497   0.504
22723TIP3    H268055   0.786   4.367   0.446
22724TIP3   OH268056   0.722   3.720   0.651
22724TIP3    H168057   0.729   3.814   0.666
22724TIP3    H268058   0.642   3.710   0.599
22725TIP3   OH268059   1.016   3.401   1.546
22725TIP3    H168060   1.015   3.374   1.454
22725TIP3    H268061   1.039   3.321   1.594
22726TIP3   OH268062   1.133   4.755   0.089
22726TIP3    H168063   1.108   4.673   0.131
22726TIP3    H268064   1.216   4.780   0.131
22727TIP3   OH268065   1.733   4.822   0.062
22727TIP3    H168066   1.774   4.763   0.125
22727TIP3    H268067   1.745   4.779  -0.023
22728TIP3   OH268068   0.905   4.249   0.364
22728TIP3    H168069   0.948   4.221   0.445
22728TIP3    H268070   0.976   4.254   0.300
22729TIP3   OH268071   1.413   4.459   0.158
22729TIP3    H168072   1.450   4.499   0.236
22729TIP3    H268073   1.428   4.365   0.170
22730TIP3   OH268074   1.072   4.170   0.569
22730TIP3    H168075   1.093   4.143   0.658
22730TIP3    H268076   1.106   4.100   0.514
22731TIP3   OH268077   1.188   3.982   0.408
22731TIP3    H168078   1.166   3.985   0.315
22731TIP3    H268079   1.283   3.980   0.410
22732TIP3   OH268080   1.966   4.320   0.065
22732TIP3    H168081   1.977   4.273  -0.017
22732TIP3    H268082   1.960   4.412   0.040
22733TIP3   OH268083   1.474   3.794   1.808
22733TIP3    H168084   1.488   3.807   1.714
22733TIP3    H268085   1.408   3.860   1.831
22734TIP3   OH268086   1.005   5.085   0.302
22734TIP3    H168087   1.098   5.087   0.279
22734TIP3    H268088   0.960   5.069   0.219
22735TIP3   OH268089   0.491   4.425   0.480
22735TIP3    H168090   0.580   4.440   0.510
22735TIP3    H268091   0.486   4.330   0.467
22736TIP3   OH268092   2.095   4.610   0.455
22736TIP3    H168093   2.093   4.593   0.361
22736TIP3    H268094   2.183   4.583   0.482
22737TIP3   OH268095   2.228   4.348   0.246
22737TIP3    H168096   2.156   4.409   0.228
22737TIP3    H268097   2.275   4.388   0.319
22738TIP3   OH268098   2.155   3.875   0.117
22738TIP3    H168099   2.082   3.901   0.062
22738TIP3    H268100   2.135   3.785   0.144
22739TIP3   OH268101   2.264   4.178   0.804
22739TIP3    H168102   2.220   4.174   0.719
22739TIP3    H268103   2.334   4.242   0.792
22740TIP3   OH268104   2.000   3.657   0.186
22740TIP3    H168105   2.074   3.604   0.213
22740TIP3    H268106   1.929   3.593   0.171
22741TIP3   OH268107   2.126   3.878   0.620
22741TIP3    H168108   2.071   3.799   0.621
22741TIP3    H268109   2.158   3.886   0.710
22742TIP3   OH268110   2.207   3.610   0.835
22742TIP3    H168111   2.293   3.576   0.861
22742TIP3    H268112   2.158   3.532   0.810
22743TIP3   OH268113   0.851   3.616   1.504
22743TIP3    H168114   0.907   3.543   1.532
22743TIP3    H268115   0.894   3.693   1.539
22744TIP3   OH268116   2.235   3.555   0.268
22744TIP3    H168117   2.280   3.472   0.255
22744TIP3    H268118   2.254   3.578   0.359
22745TIP3   OH268119   0.721   3.425   1.101
22745TIP3    H168120   0.633   3.411   1.136
22745TIP3    H268121   0.709   3.483   1.026
22746TIP3   OH268122   1.858   3.674   1.325
22746TIP3    H168123   1.767   3.693   1.350
22746TIP3    H268124   1.852   3.595   1.271
22747TIP3   OH268125   2.291   3.524   1.267
22747TIP3    H168126   2.301   3.590   1.336
22747TIP3    H268127   2.205   3.542   1.228
22748TIP3   OH268128   2.461   3.542   0.928
22748TIP3    H168129   2.512   3.483   0.983
22748TIP3    H268130   2.435   3.613   0.986
22749TIP3   OH268131   1.027   3.336   1.273
22749TIP3    H168132   0.938   3.300   1.282
22749TIP3    H268133   1.083   3.259   1.270
22750TIP3   OH268134   0.834   3.232   0.929
22750TIP3    H168135   0.857   3.282   0.851
22750TIP3    H268136   0.802   3.298   0.991
22751TIP3   OH268137   1.424   3.369   1.095
22751TIP3    H168138   1.484   3.420   1.041
22751TIP3    H268139   1.454   3.383   1.184
22752TIP3   OH268140   2.072   3.544   1.120
22752TIP3    H168141   2.008   3.593   1.069
22752TIP3    H268142   2.037   3.455   1.122
22753TIP3   OH268143   2.088   3.387   0.743
22753TIP3    H168144   2.010   3.398   0.690
22753TIP3    H268145   2.070   3.309   0.796
22754TIP3   OH268146   0.929   3.367   0.698
22754TIP3    H168147   0.984   3.311   0.642
22754TIP3    H268148   0.992   3.422   0.745
22755TIP3   OH268149   1.380   3.559   0.756
22755TIP3    H168150   1.441   3.517   0.817
22755TIP3    H268151   1.385   3.652   0.777
22756TIP3   OH268152   1.274   5.089   0.224
22756TIP3    H168153   1.336   5.142   0.273
22756TIP3    H268154   1.275   5.126   0.136
22757TIP3   OH268155   2.520   4.235   0.487
22757TIP3    H168156   2.472   4.317   0.489
22757TIP3    H268157   2.485   4.185   0.561
22758TIP3   OH268158   6.542   8.602   7.932
22758TIP3    H168159   6.568   8.662   8.002
22758TIP3    H268160   6.573   8.516   7.961
22759TIP3   OH268161   6.234   8.396   7.903
22759TIP3    H168162   6.270   8.431   7.985
22759TIP3    H268163   6.162   8.455   7.881
22760TIP3   OH268164   2.499   3.879   0.884
22760TIP3    H168165   2.529   3.840   0.966
22760TIP3    H268166   2.544   3.828   0.816
22761TIP3   OH268167   2.518   3.906   0.343
22761TIP3    H168168   2.517   3.862   0.258
22761TIP3    H268169   2.437   3.877   0.386
22762TIP3   OH268170   2.899   4.026   0.050
22762TIP3    H168171   2.835   4.068  -0.007
22762TIP3    H268172   2.943   4.099   0.095
22763TIP3   OH268173   2.486   4.263   0.195
22763TIP3    H168174   2.525   4.339   0.238
22763TIP3    H268175   2.391   4.275   0.207
22764TIP3   OH268176   2.995   3.896   0.349
22764TIP3    H168177   2.904   3.909   0.324
22764TIP3    H268178   3.037   3.862   0.270
22765TIP3   OH268179   2.547   3.947   0.067
22765TIP3    H168180   2.595   4.017   0.022
22765TIP3    H268181   2.547   3.875   0.004
22766TIP3   OH268182   6.005   9.003   7.818
22766TIP3    H168183   6.065   9.002   7.893
22766TIP3    H268184   6.059   9.033   7.745
22767TIP3   OH268185   6.321   8.850   7.844
22767TIP3    H168186   6.298   8.884   7.758
22767TIP3    H268187   6.338   8.757   7.829
22768TIP3   OH268188   2.296   4.725   0.033
22768TIP3    H168189   2.331   4.804   0.074
22768TIP3    H268190   2.358   4.656   0.056
22769TIP3   OH268191   2.509   3.767   0.602
22769TIP3    H168192   2.466   3.681   0.601
22769TIP3    H268193   2.572   3.763   0.531
22770TIP3   OH268194   2.824   3.487   0.620
22770TIP3    H168195   2.784   3.453   0.700
22770TIP3    H268196   2.789   3.576   0.611
22771TIP3   OH268197   2.546   3.509   0.389
22771TIP3    H168198   2.622   3.567   0.394
22771TIP3    H268199   2.524   3.491   0.481
22772TIP3   OH268200   2.741   3.552   0.138
22772TIP3    H168201   2.775   3.538   0.050
22772TIP3    H268202   2.756   3.645   0.155
22773TIP3   OH268203   8.232   0.855   7.848
22773TIP3    H168204   8.290   0.809   7.788
22773TIP3    H268205   8.149   0.806   7.843
22774TIP3   OH268206   1.857   5.286   0.370
22774TIP3    H168207   1.823   5.263   0.283
22774TIP3    H268208   1.796   5.244   0.431
   9.80000   9.23953   8.00167   0.00000   0.00000  -3.26667   0.00000  -3.26667  -4.61976
